Protein in INSANE! Membrane UpperLeaflet>POPC=1.0 LowerLeaflet>POPC=1.0
243992
    1AU     AUC    1   8.970  29.283   7.508
    1AU     AUC    2   9.242  29.268   7.348
    1AU     AUC    3   9.238  29.263   7.674
    1AU     AUC    4   8.706  29.298   7.337
    1AU     AUC    5   8.699  29.298   7.671
    1AU     AUC    6   8.822  29.559   7.503
    1AU     AUC    7   9.153  29.540   7.512
    1AU     AUC    8   8.783  29.025   7.505
    1AU     AUC    9   9.114  29.002   7.504
    1AU     AUC   10   8.953  29.118   7.776
    1AU     AUC   11   8.980  29.446   7.776
    1AU     AUC   12   8.965  29.118   7.240
    1AU     AUC   13   8.988  29.450   7.238
    1AU     AUC   14   9.509  29.262   7.201
    1AU     AUC   15   9.519  29.244   7.508
    1AU     AUC   16   9.497  29.239   7.830
    1AU     AUC   17   8.458  29.305   7.161
    1AU     AUC   18   8.426  29.309   7.498
    1AU     AUC   19   8.439  29.317   7.830
    1AU     AUC   20   8.677  29.826   7.497
    1AU     AUC   21   9.005  29.828   7.505
    1AU     AUC   22   9.320  29.793   7.524
    1AU     AUC   23   8.602  28.781   7.502
    1AU     AUC   24   8.929  28.738   7.494
    1AU     AUC   25   9.252  28.724   7.506
    1AU     AUC   26   8.942  28.961   8.037
    1AU     AUC   27   8.965  29.280   8.059
    1AU     AUC   28   8.986  29.607   8.026
    1AU     AUC   29   8.972  28.959   6.987
    1AU     AUC   30   9.006  29.294   6.964
    1AU     AUC   31   9.014  29.614   6.974
    1AU     AUC   32   9.231  29.097   7.946
    1AU     AUC   33   9.263  29.428   7.954
    1AU     AUC   34   9.242  29.108   7.076
    1AU     AUC   35   9.274  29.463   7.082
    1AU     AUC   36   8.677  29.132   7.961
    1AU     AUC   37   8.700  29.463   7.948
    1AU     AUC   38   8.700  29.127   7.068
    1AU     AUC   39   8.720  29.460   7.051
    1AU     AUC   40   9.431  29.525   7.358
    1AU     AUC   41   9.438  29.524   7.687
    1AU     AUC   42   8.550  29.584   7.320
    1AU     AUC   43   8.544  29.589   7.671
    1AU     AUC   44   9.398  28.975   7.344
    1AU     AUC   45   9.377  28.966   7.673
    1AU     AUC   46   8.504  29.034   7.334
    1AU     AUC   47   8.503  29.033   7.677
    1AU     AUC   48   8.831  29.737   7.772
    1AU     AUC   49   9.173  29.714   7.784
    1AU     AUC   50   8.761  28.858   7.786
    1AU     AUC   51   9.088  28.825   7.768
    1AU     AUC   52   8.832  29.725   7.220
    1AU     AUC   53   9.159  29.728   7.234
    1AU     AUC   54   8.775  28.845   7.228
    1AU     AUC   55   9.113  28.826   7.228
    1AU    AUSL   56   9.464  29.203   8.131
    1AU    AUSL   57   9.206  28.839   8.058
    1AU     AUL   58   9.427  28.854   8.315
    1AU       S   59   9.572  28.374   8.167
    1AU     LIG   60   9.650  28.013   8.407
    1AU     LIG   61   9.841  27.750   8.738
    1AU     LIG   62  10.122  27.650   9.095
    1AU     LIG   63  10.199  27.452   9.520
    1AU       S   64   9.806  29.162   8.492
    1AU     LIG   65   9.932  29.187   8.962
    1AU     LIG   66   9.960  28.986   9.388
    1AU     LIG   67  10.205  28.803   9.738
    1AU     LIG   68  10.574  28.804  10.008
    1AU    AUSL   69   9.140  29.111   8.269
    1AU    AUSL   70   8.808  29.450   8.276
    1AU     AUL   71   9.060  29.325   8.551
    1AU       S   72   9.489  29.106   8.735
    1AU     LIG   73   9.515  28.882   9.135
    1AU     LIG   74   9.612  28.609   9.501
    1AU     LIG   75   9.792  28.561   9.919
    1AU     LIG   76   9.883  28.548  10.370
    1AU       S   77   8.594  29.357   8.755
    1AU     LIG   78   8.469  29.375   9.198
    1AU     LIG   79   8.389  29.182   9.615
    1AU     LIG   80   8.125  29.241   9.996
    1AU     LIG   81   7.971  29.573  10.304
    1AU    AUSL   82   9.137  29.480   8.223
    1AU    AUSL   83   9.569  29.512   7.994
    1AU     AUL   84   9.416  29.454   8.359
    1AU       S   85   9.140  29.845   8.581
    1AU     LIG   86   9.459  29.847   8.946
    1AU     LIG   87   9.546  29.900   9.426
    1AU     LIG   88   9.515  29.925   9.920
    1AU     LIG   89   9.610  29.921  10.401
    1AU       S   90   9.857  29.699   8.307
    1AU     LIG   91  10.276  29.788   8.421
    1AU     LIG   92  10.520  30.041   8.709
    1AU     LIG   93  10.712  30.329   9.023
    1AU     LIG   94  10.897  30.631   9.335
    1AU    AUSL   95   9.443  29.322   6.932
    1AU    AUSL   96   9.331  29.726   6.925
    1AU     AUL   97   9.659  29.517   6.778
    1AU       S   98   9.561  29.262   6.363
    1AU     LIG   99   9.896  29.059   6.134
    1AU     LIG  100   9.960  28.859   5.730
    1AU     LIG  101  10.069  28.936   5.275
    1AU     LIG  102  10.365  29.010   4.920
    1AU       S  103   9.630  30.004   6.655
    1AU     LIG  104   9.717  30.259   6.293
    1AU     LIG  105  10.072  30.389   6.029
    1AU     LIG  106  10.276  30.704   5.775
    1AU     LIG  107  10.273  30.909   5.368
    1AU    AUSL  108   9.223  29.111   6.771
    1AU    AUSL  109   9.497  28.979   7.035
    1AU     AUL  110   9.700  29.144   6.840
    1AU       S  111   9.655  28.705   6.603
    1AU     LIG  112   9.930  28.506   6.267
    1AU     LIG  113  10.246  28.152   6.177
    1AU     LIG  114  10.557  27.948   5.887
    1AU     LIG  115  10.807  27.928   5.490
    1AU       S  116   9.423  29.080   6.367
    1AU     LIG  117   9.509  28.747   6.046
    1AU     LIG  118   9.509  28.657   5.582
    1AU     LIG  119   9.617  28.745   5.128
    1AU     LIG  120   9.900  28.852   4.766
    1AU    AUSL  121   9.176  29.470   6.745
    1AU    AUSL  122   8.853  29.124   6.804
    1AU     AUL  123   8.972  29.244   6.503
    1AU       S  124   8.445  29.126   6.355
    1AU     LIG  125   8.362  28.764   6.078
    1AU     LIG  126   8.374  28.723   5.614
    1AU     LIG  127   8.216  28.711   5.170
    1AU     LIG  128   8.010  28.726   4.750
    1AU       S  129   9.386  29.475   6.322
    1AU     LIG  130   9.459  29.245   5.877
    1AU     LIG  131   9.625  29.154   5.462
    1AU     LIG  132   9.695  29.250   5.018
    1AU     LIG  133   9.853  29.360   4.600
    1AU    AUSL  134   8.497  29.356   8.152
    1AU    AUSL  135   8.707  29.719   8.054
    1AU     AUL  136   8.605  29.702   8.381
    1AU       S  137   8.330  29.354   8.656
    1AU     LIG  138   8.149  29.045   8.971
    1AU     LIG  139   7.967  28.984   9.408
    1AU     LIG  140   7.734  28.935   9.815
    1AU     LIG  141   7.366  28.859  10.093
    1AU       S  142   8.243  30.040   8.216
    1AU     LIG  143   8.292  30.164   8.662
    1AU     LIG  144   8.268  30.511   8.951
    1AU     LIG  145   8.007  30.631   9.304
    1AU     LIG  146   7.865  30.889   9.658
    1AU    AUSL  147   8.779  29.097   8.265
    1AU    AUSL  148   8.378  29.039   7.964
    1AU     AUL  149   8.406  29.060   8.269
    1AU       S  150   8.089  28.683   8.295
    1AU     LIG  151   7.665  28.522   8.310
    1AU     LIG  152   7.441  28.147   8.453
    1AU     LIG  153   7.285  27.791   8.721
    1AU     LIG  154   7.176  27.655   9.167
    1AU       S  155   8.621  29.080   8.719
    1AU     LIG  156   8.613  28.886   9.135
    1AU     LIG  157   8.381  28.684   9.470
    1AU     LIG  158   8.200  28.732   9.891
    1AU     LIG  159   8.202  28.661  10.357
    1AU    AUSL  160   8.545  29.271   6.838
    1AU    AUSL  161   8.664  28.851   6.930
    1AU     AUL  162   8.795  28.902   6.614
    1AU       S  163   8.274  29.271   6.508
    1AU     LIG  164   7.966  29.050   6.226
    1AU     LIG  165   7.918  28.889   5.784
    1AU     LIG  166   7.758  28.884   5.336
    1AU     LIG  167   7.374  28.855   5.073
    1AU       S  168   8.310  28.709   6.601
    1AU     LIG  169   8.062  28.381   6.317
    1AU     LIG  170   7.784  27.962   6.267
    1AU     LIG  171   7.495  27.575   6.138
    1AU     LIG  172   7.311  27.387   5.738
    1AU    AUSL  173   8.831  29.473   6.759
    1AU    AUSL  174   8.425  29.582   6.994
    1AU     AUL  175   8.594  29.647   6.647
    1AU       S  176   8.102  29.772   6.705
    1AU     LIG  177   7.783  30.061   6.500
    1AU     LIG  178   7.668  30.267   6.092
    1AU     LIG  179   7.356  30.244   5.724
    1AU     LIG  180   6.923  30.436   5.632
    1AU       S  181   8.527  29.347   6.263
    1AU     LIG  182   8.314  29.226   5.860
    1AU     LIG  183   8.186  29.169   5.419
    1AU     LIG  184   8.116  29.202   4.959
    1AU     LIG  185   8.115  29.526   4.603
    1AU    AUSL  186   9.636  29.685   7.497
    1AU    AUSL  187   9.607  29.603   7.128
    1AU     AUL  188   9.680  30.003   7.381
    1AU       S  189   9.929  29.899   6.928
    1AU     LIG  190  10.271  29.849   6.649
    1AU     LIG  191  10.404  30.048   6.247
    1AU     LIG  192  10.592  30.321   5.906
    1AU     LIG  193  10.695  30.543   5.494
    1AU       S  194  10.142  29.775   7.367
    1AU     LIG  195  10.615  29.950   7.377
    1AU     LIG  196  11.076  30.104   7.481
    1AU     LIG  197  11.358  30.460   7.644
    1AU     LIG  198  11.739  30.761   7.675
    1AU    AUSL  199   9.749  29.371   7.340
    1AU    AUSL  200   9.672  29.068   7.657
    1AU     AUL  201   9.997  29.156   7.557
    1AU       S  202  10.139  29.522   7.214
    1AU     LIG  203  10.609  29.467   7.210
    1AU     LIG  204  11.045  29.647   7.235
    1AU     LIG  205  11.474  29.852   7.205
    1AU     LIG  206  11.906  29.937   7.030
    1AU       S  207  10.101  28.641   7.671
    1AU     LIG  208  10.585  28.516   7.748
    1AU     LIG  209  11.055  28.357   7.769
    1AU     LIG  210  11.509  28.516   7.817
    1AU     LIG  211  11.946  28.449   8.011
    1AU    AUSL  212   9.742  29.408   7.700
    1AU    AUSL  213   9.487  29.820   7.792
    1AU     AUL  214   9.822  29.741   7.796
    1AU       S  215   9.819  30.013   8.216
    1AU     LIG  216  10.153  30.295   8.419
    1AU     LIG  217  10.494  30.563   8.616
    1AU     LIG  218  10.736  30.945   8.776
    1AU     LIG  219  10.687  31.400   8.913
    1AU       S  220  10.237  29.594   7.546
    1AU     LIG  221  10.651  29.591   7.739
    1AU     LIG  222  11.107  29.665   7.761
    1AU     LIG  223  11.510  29.877   7.718
    1AU     LIG  224  11.944  29.918   7.897
    1AU    AUSL  225   8.381  29.803   7.514
    1AU    AUSL  226   8.383  29.613   7.942
    1AU     AUL  227   8.083  29.807   7.726
    1AU       S  228   8.098  29.758   8.247
    1AU     LIG  229   7.819  30.070   8.488
    1AU     LIG  230   7.789  30.354   8.863
    1AU     LIG  231   7.548  30.396   9.278
    1AU     LIG  232   7.168  30.358   9.566
    1AU       S  233   8.194  30.255   7.486
    1AU     LIG  234   7.739  30.470   7.466
    1AU     LIG  235   7.318  30.702   7.603
    1AU     LIG  236   6.887  30.883   7.518
    1AU     LIG  237   6.614  31.263   7.475
    1AU    AUSL  238   8.280  29.482   7.287
    1AU    AUSL  239   8.514  29.879   7.204
    1AU     AUL  240   8.150  29.783   7.226
    1AU       S  241   7.909  29.375   6.931
    1AU     LIG  242   7.595  29.768   6.887
    1AU     LIG  243   7.159  29.989   6.909
    1AU     LIG  244   6.705  30.131   7.013
    1AU     LIG  245   6.233  30.067   6.908
    1AU       S  246   8.223  30.221   6.977
    1AU     LIG  247   7.984  30.499   6.692
    1AU     LIG  248   8.027  30.770   6.325
    1AU     LIG  249   7.762  31.116   6.197
    1AU     LIG  250   7.492  31.407   6.449
    1AU    AUSL  251   8.242  29.481   7.663
    1AU    AUSL  252   8.189  29.161   7.330
    1AU     AUL  253   7.969  29.520   7.437
    1AU       S  254   7.713  29.082   7.365
    1AU     LIG  255   7.251  29.092   7.289
    1AU     LIG  256   6.833  28.884   7.201
    1AU     LIG  257   6.429  28.627   7.208
    1AU     LIG  258   6.034  28.348   7.285
    1AU       S  259   7.846  29.413   7.973
    1AU     LIG  260   7.408  29.616   7.872
    1AU     LIG  261   7.026  29.931   7.791
    1AU     LIG  262   6.569  30.110   7.821
    1AU     LIG  263   6.110  30.086   7.945
    1AU    AUSL  264   9.576  28.761   7.546
    1AU    AUSL  265   9.520  28.921   7.933
    1AU     AUL  266   9.845  29.000   7.891
    1AU       S  267   9.894  28.486   7.585
    1AU     LIG  268  10.254  28.174   7.544
    1AU     LIG  269  10.709  28.040   7.548
    1AU     LIG  270  11.167  27.865   7.545
    1AU     LIG  271  11.349  27.395   7.579
    1AU       S  272   9.775  28.525   8.072
    1AU     LIG  273  10.081  28.303   8.339
    1AU     LIG  274  10.255  28.049   8.694
    1AU     LIG  275  10.583  27.827   8.937
    1AU     LIG  276  10.926  27.707   9.223
    1AU    AUSL  277   9.710  29.027   7.314
    1AU    AUSL  278   9.399  28.690   7.221
    1AU     AUL  279   9.722  28.721   7.161
    1AU       S  280  10.146  28.688   7.412
    1AU     LIG  281  10.564  28.599   7.249
    1AU     LIG  282  10.956  28.371   7.252
    1AU     LIG  283  11.397  28.374   7.330
    1AU     LIG  284  11.770  28.563   7.150
    1AU       S  285   9.647  28.481   6.722
    1AU     LIG  286   9.861  28.097   6.584
    1AU     LIG  287  10.080  27.722   6.415
    1AU     LIG  288  10.457  27.538   6.204
    1AU     LIG  289  10.797  27.214   6.120
    1AU    AUSL  290   8.304  28.856   7.506
    1AU    AUSL  291   8.373  29.042   7.050
    1AU     AUL  292   8.123  28.799   7.234
    1AU       S  293   8.118  28.876   6.729
    1AU     LIG  294   7.732  28.705   6.538
    1AU     LIG  295   7.473  28.347   6.409
    1AU     LIG  296   7.222  27.999   6.235
    1AU     LIG  297   6.977  27.722   5.951
    1AU       S  298   7.707  28.856   7.510
    1AU     LIG  299   7.278  28.655   7.553
    1AU     LIG  300   6.848  28.477   7.513
    1AU     LIG  301   6.472  28.229   7.535
    1AU     LIG  302   6.089  28.064   7.720
    1AU    AUSL  303   8.204  29.146   7.684
    1AU    AUSL  304   8.450  28.727   7.804
    1AU     AUL  305   8.116  28.823   7.806
    1AU       S  306   8.166  28.458   8.155
    1AU     LIG  307   7.874  28.071   8.155
    1AU     LIG  308   7.576  27.699   8.210
    1AU     LIG  309   7.405  27.339   8.457
    1AU     LIG  310   7.194  27.232   8.852
    1AU       S  311   7.718  29.092   7.618
    1AU     LIG  312   7.292  29.104   7.800
    1AU     LIG  313   6.839  28.956   7.712
    1AU     LIG  314   6.403  28.719   7.713
    1AU     LIG  315   5.938  28.595   7.755
    1AU    AUSL  316   9.006  29.921   7.967
    1AU    AUSL  317   8.564  29.910   7.802
    1AU     AUL  318   8.750  30.019   8.186
    1AU       S  319   8.329  30.240   7.973
    1AU     LIG  320   8.103  30.522   8.345
    1AU     LIG  321   8.014  30.891   8.674
    1AU     LIG  322   7.828  31.327   8.834
    1AU     LIG  323   7.453  31.645   8.817
    1AU       S  324   9.012  30.437   8.052
    1AU     LIG  325   9.183  30.691   8.392
    1AU     LIG  326   9.092  31.097   8.589
    1AU     LIG  327   8.970  31.399   8.930
    1AU     LIG  328   9.022  31.506   9.401
    1AU    AUSL  329   8.846  30.041   7.652
    1AU    AUSL  330   9.150  30.068   7.356
    1AU     AUL  331   8.752  30.295   7.410
    1AU       S  332   8.842  30.472   7.870
    1AU     LIG  333   8.870  30.931   8.062
    1AU     LIG  334   8.777  31.356   8.248
    1AU     LIG  335   8.480  31.733   8.179
    1AU     LIG  336   8.425  32.186   8.281
    1AU       S  337   9.204  30.508   7.231
    1AU     LIG  338   9.417  30.847   7.011
    1AU     LIG  339   9.361  31.237   6.768
    1AU     LIG  340   9.441  31.691   6.717
    1AU     LIG  341   9.753  32.047   6.782
    1AU    AUSL  342   9.209  30.017   7.688
    1AU    AUSL  343   9.294  29.737   8.075
    1AU     AUL  344   9.357  30.078   8.007
    1AU       S  345   9.622  29.916   8.418
    1AU     LIG  346   9.933  29.984   8.760
    1AU     LIG  347  10.178  30.331   8.962
    1AU     LIG  348  10.369  30.628   9.274
    1AU     LIG  349  10.373  30.770   9.732
    1AU       S  350   9.163  30.477   7.746
    1AU     LIG  351   9.361  30.846   7.932
    1AU     LIG  352   9.304  31.260   8.145
    1AU     LIG  353   9.427  31.725   8.209
    1AU     LIG  354   9.622  32.172   8.136
    1AU    AUSL  355   8.939  28.640   7.961
    1AU    AUSL  356   9.323  28.648   7.799
    1AU     AUL  357   9.130  28.595   8.240
    1AU       S  358   9.067  28.131   8.031
    1AU     LIG  359   8.942  27.753   8.265
    1AU     LIG  360   8.676  27.384   8.371
    1AU     LIG  361   8.580  26.926   8.439
    1AU     LIG  362   8.736  26.529   8.652
    1AU       S  363   9.549  28.344   7.910
    1AU     LIG  364   9.899  28.040   7.933
    1AU     LIG  365  10.095  27.778   8.272
    1AU     LIG  366  10.307  27.531   8.610
    1AU     LIG  367  10.717  27.344   8.766
    1AU    AUSL  368   8.736  28.600   7.676
    1AU    AUSL  369   8.659  28.820   8.088
    1AU     AUL  370   8.643  28.453   7.989
    1AU       S  371   8.881  28.020   7.800
    1AU     LIG  372   8.646  27.586   7.863
    1AU     LIG  373   8.423  27.155   7.976
    1AU     LIG  374   8.311  26.695   8.055
    1AU     LIG  375   8.236  26.350   8.345
    1AU       S  376   8.367  28.566   8.409
    1AU     LIG  377   8.019  28.269   8.607
    1AU     LIG  378   7.808  27.843   8.654
    1AU     LIG  379   7.655  27.561   8.998
    1AU     LIG  380   7.633  27.687   9.460
    1AU    AUSL  381   9.048  28.495   7.650
    1AU    AUSL  382   8.744  28.535   7.331
    1AU     AUL  383   8.581  28.361   7.599
    1AU       S  384   8.790  28.050   7.257
    1AU     LIG  385   8.620  27.593   7.258
    1AU     LIG  386   8.511  27.148   7.080
    1AU     LIG  387   8.558  26.694   6.898
    1AU     LIG  388   8.536  26.269   6.680
    1AU       S  389   9.142  28.106   7.763
    1AU     LIG  390   9.157  27.599   7.826
    1AU     LIG  391   8.958  27.161   8.000
    1AU     LIG  392   8.947  26.677   8.173
    1AU     LIG  393   9.207  26.339   8.424
    1AU    AUSL  394   9.043  29.920   7.011
    1AU    AUSL  395   9.399  29.826   7.272
    1AU     AUL  396   9.370  30.059   7.087
    1AU       S  397   9.119  30.391   6.823
    1AU     LIG  398   9.314  30.674   6.539
    1AU     LIG  399   9.204  31.048   6.310
    1AU     LIG  400   9.174  31.294   5.917
    1AU     LIG  401   8.969  31.680   5.789
    1AU       S  402   9.816  30.096   6.884
    1AU     LIG  403  10.114  30.334   6.601
    1AU     LIG  404  10.441  30.559   6.345
    1AU     LIG  405  10.691  30.855   6.084
    1AU     LIG  406  10.968  31.257   6.147
    1AU    AUSL  407   8.830  29.983   7.291
    1AU    AUSL  408   8.733  29.760   6.948
    1AU     AUL  409   8.720  30.101   6.974
    1AU       S  410   9.009  30.517   7.041
    1AU     LIG  411   8.941  30.942   6.821
    1AU     LIG  412   8.851  31.431   6.844
    1AU     LIG  413   8.657  31.884   6.781
    1AU     LIG  414   8.507  32.313   6.584
    1AU       S  415   8.286  30.048   6.705
    1AU     LIG  416   8.187  30.271   6.272
    1AU     LIG  417   8.055  30.522   5.870
    1AU     LIG  418   8.002  30.662   5.413
    1AU     LIG  419   7.970  31.000   5.049
    1AU    AUSL  420   8.927  28.633   7.037
    1AU    AUSL  421   8.477  28.733   7.212
    1AU     AUL  422   8.611  28.481   6.984
    1AU       S  423   8.151  28.570   6.791
    1AU     LIG  424   7.831  28.203   6.747
    1AU     LIG  425   7.472  27.865   6.669
    1AU     LIG  426   7.121  27.557   6.504
    1AU     LIG  427   7.040  27.255   6.155
    1AU       S  428   8.914  28.067   7.000
    1AU     LIG  429   8.903  27.601   6.828
    1AU     LIG  430   8.819  27.135   6.666
    1AU     LIG  431   8.853  26.695   6.454
    1AU     LIG  432   8.987  26.565   6.014
    1AU    AUSL  433   9.110  28.523   7.322
    1AU    AUSL  434   9.207  28.802   6.922
    1AU     AUL  435   9.247  28.447   7.012
    1AU       S  436   9.064  28.063   7.286
    1AU     LIG  437   9.125  27.618   7.305
    1AU     LIG  438   9.020  27.188   7.143
    1AU     LIG  439   9.069  26.749   6.934
    1AU     LIG  440   9.306  26.468   6.633
    1AU       S  441   9.380  28.627   6.554
    1AU     LIG  442   9.467  28.278   6.276
    1AU     LIG  443   9.766  27.995   6.082
    1AU     LIG  444  10.087  27.723   5.886
    1AU     LIG  445  10.385  27.573   5.549
    2AU     AUC  446  15.454  33.247   7.504
    2AU     AUC  447  15.725  33.230   7.344
    2AU     AUC  448  15.720  33.229   7.671
    2AU     AUC  449  15.190  33.262   7.334
    2AU     AUC  450  15.183  33.265   7.669
    2AU     AUC  451  15.306  33.524   7.498
    2AU     AUC  452  15.637  33.505   7.507
    2AU     AUC  453  15.267  32.991   7.503
    2AU     AUC  454  15.597  32.966   7.502
    2AU     AUC  455  15.437  33.085   7.774
    2AU     AUC  456  15.464  33.413   7.772
    2AU     AUC  457  15.449  33.081   7.237
    2AU     AUC  458  15.472  33.413   7.234
    2AU     AUC  459  15.992  33.222   7.197
    2AU     AUC  460  16.000  33.208   7.507
    2AU     AUC  461  15.978  33.206   7.829
    2AU     AUC  462  14.941  33.268   7.158
    2AU     AUC  463  14.910  33.273   7.495
    2AU     AUC  464  14.924  33.283   7.828
    2AU     AUC  465  15.162  33.790   7.491
    2AU     AUC  466  15.490  33.792   7.498
    2AU     AUC  467  15.804  33.757   7.515
    2AU     AUC  468  15.087  32.746   7.503
    2AU     AUC  469  15.412  32.703   7.493
    2AU     AUC  470  15.735  32.687   7.505
    2AU     AUC  471  15.428  32.930   8.035
    2AU     AUC  472  15.450  33.250   8.057
    2AU     AUC  473  15.470  33.576   8.022
    2AU     AUC  474  15.454  32.922   6.983
    2AU     AUC  475  15.489  33.254   6.959
    2AU     AUC  476  15.498  33.574   6.969
    2AU     AUC  477  15.715  33.064   7.945
    2AU     AUC  478  15.747  33.397   7.951
    2AU     AUC  479  15.727  33.068   7.071
    2AU     AUC  480  15.758  33.421   7.076
    2AU     AUC  481  15.162  33.101   7.961
    2AU     AUC  482  15.184  33.430   7.945
    2AU     AUC  483  15.182  33.090   7.065
    2AU     AUC  484  15.203  33.422   7.047
    2AU     AUC  485  15.915  33.487   7.352
    2AU     AUC  486  15.921  33.489   7.683
    2AU     AUC  487  15.034  33.547   7.316
    2AU     AUC  488  15.029  33.554   7.666
    2AU     AUC  489  15.881  32.935   7.343
    2AU     AUC  490  15.856  32.930   7.675
    2AU     AUC  491  14.988  32.999   7.332
    2AU     AUC  492  14.988  33.000   7.678
    2AU     AUC  493  15.315  33.704   7.766
    2AU     AUC  494  15.656  33.681   7.778
    2AU     AUC  495  15.246  32.825   7.785
    2AU     AUC  496  15.570  32.791   7.768
    2AU     AUC  497  15.317  33.688   7.214
    2AU     AUC  498  15.645  33.689   7.227
    2AU     AUC  499  15.258  32.811   7.227
    2AU     AUC  500  15.600  32.789   7.226
    2AU    AUSL  501  15.954  33.173   8.125
    2AU    AUSL  502  15.686  32.806   8.065
    2AU     AUL  503  15.898  32.828   8.333
    2AU       S  504  16.032  32.336   8.187
    2AU     LIG  505  16.083  31.921   8.408
    2AU     LIG  506  16.113  31.792   8.874
    2AU     LIG  507  16.435  31.812   9.210
    2AU     LIG  508  16.806  31.776   9.490
    2AU       S  509  16.311  33.144   8.436
    2AU     LIG  510  16.529  33.222   8.834
    2AU     LIG  511  16.620  33.011   9.239
    2AU     LIG  512  16.896  32.851   9.578
    2AU     LIG  513  17.118  32.748   9.981
    2AU    AUSL  514  15.633  33.090   8.263
    2AU    AUSL  515  15.291  33.417   8.276
    2AU     AUL  516  15.553  33.287   8.554
    2AU       S  517  16.031  33.112   8.716
    2AU     LIG  518  16.133  32.884   9.100
    2AU     LIG  519  16.264  32.705   9.517
    2AU     LIG  520  16.217  32.578   9.975
    2AU     LIG  521  16.214  32.568  10.450
    2AU       S  522  15.079  33.334   8.754
    2AU     LIG  523  14.881  33.300   9.187
    2AU     LIG  524  14.773  33.183   9.632
    2AU     LIG  525  14.596  33.287  10.045
    2AU     LIG  526  14.477  33.680  10.292
    2AU    AUSL  527  15.617  33.458   8.224
    2AU    AUSL  528  16.053  33.483   7.986
    2AU     AUL  529  15.899  33.430   8.346
    2AU       S  530  15.619  33.815   8.576
    2AU     LIG  531  15.898  33.884   8.956
    2AU     LIG  532  15.982  34.009   9.419
    2AU     LIG  533  15.948  34.136   9.891
    2AU     LIG  534  16.062  34.139  10.358
    2AU       S  535  16.347  33.667   8.298
    2AU     LIG  536  16.728  33.638   8.543
    2AU     LIG  537  16.995  33.938   8.774
    2AU     LIG  538  17.171  34.277   9.051
    2AU     LIG  539  17.281  34.544   9.422
    2AU    AUSL  540  15.922  33.275   6.924
    2AU    AUSL  541  15.818  33.681   6.918
    2AU     AUL  542  16.146  33.459   6.773
    2AU       S  543  16.016  33.240   6.342
    2AU     LIG  544  16.365  33.110   6.080
    2AU     LIG  545  16.489  32.968   5.659
    2AU     LIG  546  16.571  32.976   5.202
    2AU     LIG  547  16.930  32.853   4.903
    2AU       S  548  16.120  33.945   6.645
    2AU     LIG  549  16.193  34.258   6.328
    2AU     LIG  550  16.548  34.402   6.067
    2AU     LIG  551  16.726  34.694   5.755
    2AU     LIG  552  16.713  34.904   5.336
    2AU    AUSL  553  15.698  33.068   6.758
    2AU    AUSL  554  15.987  32.936   7.039
    2AU     AUL  555  16.164  33.084   6.805
    2AU       S  556  16.174  32.604   6.653
    2AU     LIG  557  16.430  32.279   6.390
    2AU     LIG  558  16.711  31.897   6.325
    2AU     LIG  559  17.005  31.724   5.994
    2AU     LIG  560  17.260  31.774   5.586
    2AU       S  561  15.891  33.027   6.356
    2AU     LIG  562  16.011  32.740   6.034
    2AU     LIG  563  16.036  32.741   5.568
    2AU     LIG  564  16.090  32.783   5.099
    2AU     LIG  565  16.052  32.703   4.627
    2AU    AUSL  566  15.656  33.429   6.739
    2AU    AUSL  567  15.332  33.085   6.799
    2AU     AUL  568  15.444  33.211   6.495
    2AU       S  569  14.914  33.085   6.355
    2AU     LIG  570  14.824  32.738   6.066
    2AU     LIG  571  14.807  32.685   5.601
    2AU     LIG  572  14.702  32.675   5.141
    2AU     LIG  573  14.509  32.704   4.713
    2AU       S  574  15.859  33.442   6.315
    2AU     LIG  575  15.924  33.237   5.846
    2AU     LIG  576  16.114  33.224   5.401
    2AU     LIG  577  16.191  33.264   4.936
    2AU     LIG  578  16.087  33.506   4.544
    2AU    AUSL  579  14.980  33.326   8.150
    2AU    AUSL  580  15.191  33.687   8.051
    2AU     AUL  581  15.094  33.675   8.378
    2AU       S  582  14.808  33.327   8.640
    2AU     LIG  583  14.610  32.982   8.889
    2AU     LIG  584  14.425  32.964   9.323
    2AU     LIG  585  14.246  33.008   9.767
    2AU     LIG  586  13.878  33.031  10.090
    2AU       S  587  14.722  33.997   8.213
    2AU     LIG  588  14.741  34.160   8.647
    2AU     LIG  589  14.696  34.356   9.046
    2AU     LIG  590  14.411  34.595   9.291
    2AU     LIG  591  14.085  34.848   9.506
    2AU    AUSL  592  15.277  33.064   8.266
    2AU    AUSL  593  14.855  33.011   7.968
    2AU     AUL  594  14.921  33.023   8.271
    2AU       S  595  14.555  32.694   8.302
    2AU     LIG  596  14.137  32.523   8.282
    2AU     LIG  597  13.927  32.176   8.477
    2AU     LIG  598  13.755  31.918   8.823
    2AU     LIG  599  13.525  31.549   8.999
    2AU       S  600  15.106  33.061   8.728
    2AU     LIG  601  15.053  32.821   9.113
    2AU     LIG  602  14.826  32.691   9.490
    2AU     LIG  603  14.671  32.747   9.930
    2AU     LIG  604  14.749  32.580  10.375
    2AU    AUSL  605  15.025  33.233   6.835
    2AU    AUSL  606  15.142  32.815   6.926
    2AU     AUL  607  15.274  32.867   6.606
    2AU       S  608  14.745  33.237   6.510
    2AU     LIG  609  14.435  33.041   6.191
    2AU     LIG  610  14.364  32.922   5.718
    2AU     LIG  611  14.260  32.924   5.233
    2AU     LIG  612  13.946  33.045   4.897
    2AU       S  613  14.793  32.670   6.604
    2AU     LIG  614  14.587  32.344   6.311
    2AU     LIG  615  14.264  32.000   6.223
    2AU     LIG  616  14.007  31.642   6.047
    2AU     LIG  617  13.921  31.362   5.663
    2AU    AUSL  618  15.312  33.433   6.759
    2AU    AUSL  619  14.911  33.544   6.990
    2AU     AUL  620  15.085  33.604   6.638
    2AU       S  621  14.595  33.726   6.702
    2AU     LIG  622  14.266  33.910   6.451
    2AU     LIG  623  14.139  34.183   6.096
    2AU     LIG  624  14.026  34.382   5.678
    2AU     LIG  625  13.711  34.469   5.326
    2AU       S  626  14.991  33.303   6.262
    2AU     LIG  627  14.801  33.195   5.840
    2AU     LIG  628  14.704  33.148   5.383
    2AU     LIG  629  14.649  33.159   4.918
    2AU     LIG  630  14.753  33.380   4.507
    2AU    AUSL  631  16.120  33.645   7.492
    2AU    AUSL  632  16.092  33.559   7.120
    2AU     AUL  633  16.177  33.957   7.369
    2AU       S  634  16.422  33.840   6.922
    2AU     LIG  635  16.778  33.816   6.659
    2AU     LIG  636  16.881  34.031   6.255
    2AU     LIG  637  17.053  34.322   5.923
    2AU     LIG  638  17.174  34.553   5.526
    2AU       S  639  16.641  33.721   7.372
    2AU     LIG  640  17.156  33.771   7.429
    2AU     LIG  641  17.639  33.840   7.467
    2AU     LIG  642  18.024  34.153   7.473
    2AU     LIG  643  18.080  34.650   7.448
    2AU    AUSL  644  16.232  33.333   7.338
    2AU    AUSL  645  16.145  33.033   7.662
    2AU     AUL  646  16.469  33.103   7.548
    2AU       S  647  16.623  33.477   7.226
    2AU     LIG  648  17.028  33.493   7.022
    2AU     LIG  649  17.496  33.531   7.061
    2AU     LIG  650  17.976  33.551   7.124
    2AU     LIG  651  18.422  33.650   6.960
    2AU       S  652  16.556  32.589   7.687
    2AU     LIG  653  16.981  32.529   7.870
    2AU     LIG  654  17.452  32.494   7.801
    2AU     LIG  655  17.891  32.472   7.973
    2AU     LIG  656  18.362  32.332   7.914
    2AU    AUSL  657  16.227  33.370   7.698
    2AU    AUSL  658  15.969  33.788   7.783
    2AU     AUL  659  16.304  33.712   7.785
    2AU       S  660  16.300  33.976   8.211
    2AU     LIG  661  16.677  34.165   8.427
    2AU     LIG  662  16.948  34.497   8.643
    2AU     LIG  663  17.118  34.892   8.860
    2AU     LIG  664  17.241  35.377   8.828
    2AU       S  665  16.724  33.530   7.570
    2AU     LIG  666  17.054  33.568   7.896
    2AU     LIG  667  17.512  33.563   7.912
    2AU     LIG  668  17.925  33.752   8.077
    2AU     LIG  669  18.349  33.921   7.899
    2AU    AUSL  670  14.865  33.766   7.508
    2AU    AUSL  671  14.868  33.580   7.936
    2AU     AUL  672  14.563  33.767   7.720
    2AU       S  673  14.585  33.721   8.243
    2AU     LIG  674  14.284  33.987   8.503
    2AU     LIG  675  14.212  34.196   8.924
    2AU     LIG  676  13.926  34.438   9.209
    2AU     LIG  677  13.573  34.404   9.524
    2AU       S  678  14.684  34.212   7.470
    2AU     LIG  679  14.255  34.263   7.216
    2AU     LIG  680  13.809  34.464   7.232
    2AU     LIG  681  13.556  34.865   7.351
    2AU     LIG  682  13.154  34.965   7.557
    2AU    AUSL  683  14.763  33.445   7.283
    2AU    AUSL  684  15.001  33.842   7.198
    2AU     AUL  685  14.636  33.744   7.221
    2AU       S  686  14.385  33.344   6.934
    2AU     LIG  687  14.078  33.760   6.919
    2AU     LIG  688  13.633  34.016   6.966
    2AU     LIG  689  13.119  34.089   6.979
    2AU     LIG  690  12.631  34.000   6.895
    2AU       S  691  14.710  34.177   6.963
    2AU     LIG  692  14.381  34.359   6.683
    2AU     LIG  693  14.318  34.624   6.290
    2AU     LIG  694  14.096  34.915   5.986
    2AU     LIG  695  13.817  35.312   5.925
    2AU    AUSL  696  14.728  33.444   7.660
    2AU    AUSL  697  14.672  33.124   7.328
    2AU     AUL  698  14.454  33.484   7.438
    2AU       S  699  14.199  33.045   7.364
    2AU     LIG  700  13.730  33.028   7.318
    2AU     LIG  701  13.321  32.804   7.233
    2AU     LIG  702  12.902  32.574   7.213
    2AU     LIG  703  12.459  32.616   7.041
    2AU       S  704  14.343  33.366   7.982
    2AU     LIG  705  13.899  33.528   7.968
    2AU     LIG  706  13.566  33.869   8.048
    2AU     LIG  707  13.194  34.157   8.139
    2AU     LIG  708  12.743  34.200   8.136
    2AU    AUSL  709  16.055  32.724   7.550
    2AU    AUSL  710  15.999  32.883   7.938
    2AU     AUL  711  16.324  32.968   7.890
    2AU       S  712  16.356  32.432   7.594
    2AU     LIG  713  16.716  32.128   7.584
    2AU     LIG  714  17.154  32.224   7.470
    2AU     LIG  715  17.594  32.095   7.472
    2AU     LIG  716  17.839  31.712   7.389
    2AU       S  717  16.245  32.494   8.088
    2AU     LIG  718  16.503  32.230   8.382
    2AU     LIG  719  16.595  31.887   8.703
    2AU     LIG  720  16.871  31.627   8.980
    2AU     LIG  721  17.236  31.564   9.266
    2AU    AUSL  722  16.189  32.991   7.321
    2AU    AUSL  723  15.893  32.640   7.223
    2AU     AUL  724  16.228  32.704   7.176
    2AU       S  725  16.644  32.637   7.442
    2AU     LIG  726  17.136  32.740   7.435
    2AU     LIG  727  17.551  32.566   7.259
    2AU     LIG  728  17.864  32.274   7.034
    2AU     LIG  729  18.350  32.283   6.984
    2AU       S  730  16.157  32.366   6.809
    2AU     LIG  731  16.354  31.926   6.767
    2AU     LIG  732  16.483  31.485   6.625
    2AU     LIG  733  16.725  31.078   6.496
    2AU     LIG  734  17.019  30.977   6.138
    2AU    AUSL  735  14.791  32.820   7.504
    2AU    AUSL  736  14.855  33.005   7.049
    2AU     AUL  737  14.608  32.760   7.234
    2AU       S  738  14.594  32.838   6.728
    2AU     LIG  739  14.227  32.652   6.500
    2AU     LIG  740  13.911  32.298   6.452
    2AU     LIG  741  13.651  31.934   6.297
    2AU     LIG  742  13.491  31.659   5.954
    2AU       S  743  14.193  32.823   7.510
    2AU     LIG  744  13.797  32.576   7.551
    2AU     LIG  745  13.382  32.368   7.493
    2AU     LIG  746  12.982  32.192   7.548
    2AU     LIG  747  12.714  31.856   7.545
    2AU    AUSL  748  14.689  33.109   7.680
    2AU    AUSL  749  14.936  32.701   7.808
    2AU     AUL  750  14.603  32.779   7.799
    2AU       S  751  14.647  32.456   8.182
    2AU     LIG  752  14.370  32.073   8.168
    2AU     LIG  753  14.053  31.741   8.228
    2AU     LIG  754  13.790  31.501   8.519
    2AU     LIG  755  13.707  31.121   8.772
    2AU       S  756  14.206  33.056   7.620
    2AU     LIG  757  13.800  33.016   7.829
    2AU     LIG  758  13.369  32.830   7.744
    2AU     LIG  759  12.909  32.672   7.738
    2AU     LIG  760  12.549  32.495   8.015
    2AU    AUSL  761  15.488  33.890   7.959
    2AU    AUSL  762  15.048  33.875   7.795
    2AU     AUL  763  15.230  33.994   8.175
    2AU       S  764  14.803  34.197   7.959
    2AU     LIG  765  14.498  34.436   8.278
    2AU     LIG  766  14.396  34.613   8.705
    2AU     LIG  767  14.130  34.892   8.973
    2AU     LIG  768  13.971  35.336   8.991
    2AU       S  769  15.496  34.407   8.036
    2AU     LIG  770  15.689  34.643   8.369
    2AU     LIG  771  15.582  35.035   8.565
    2AU     LIG  772  15.634  35.464   8.711
    2AU     LIG  773  15.689  35.683   9.125
    2AU    AUSL  774  15.328  34.008   7.644
    2AU    AUSL  775  15.639  34.030   7.345
    2AU     AUL  776  15.244  34.261   7.395
    2AU       S  777  15.327  34.448   7.855
    2AU     LIG  778  15.398  34.921   8.049
    2AU     LIG  779  15.400  35.389   8.224
    2AU     LIG  780  15.202  35.839   8.261
    2AU     LIG  781  14.886  36.229   8.220
    2AU       S  782  15.699  34.468   7.219
    2AU     LIG  783  15.982  34.746   7.000
    2AU     LIG  784  16.006  35.152   6.772
    2AU     LIG  785  16.092  35.614   6.685
    2AU     LIG  786  16.425  35.981   6.671
    2AU    AUSL  787  15.691  33.983   7.678
    2AU    AUSL  788  15.777  33.707   8.067
    2AU     AUL  789  15.841  34.048   7.997
    2AU       S  790  16.102  33.889   8.411
    2AU     LIG  791  16.380  33.937   8.773
    2AU     LIG  792  16.640  34.256   8.976
    2AU     LIG  793  16.812  34.622   9.204
    2AU     LIG  794  16.869  34.796   9.644
    2AU       S  795  15.647  34.444   7.732
    2AU     LIG  796  15.879  34.790   7.911
    2AU     LIG  797  15.872  35.177   8.168
    2AU     LIG  798  15.887  35.640   8.284
    2AU     LIG  799  16.142  36.062   8.286
    2AU    AUSL  800  15.422  32.606   7.957
    2AU    AUSL  801  15.799  32.613   7.805
    2AU     AUL  802  15.594  32.568   8.246
    2AU       S  803  15.547  32.099   8.039
    2AU     LIG  804  15.472  31.684   8.293
    2AU     LIG  805  15.345  31.206   8.387
    2AU     LIG  806  15.267  30.748   8.583
    2AU     LIG  807  14.993  30.432   8.848
    2AU       S  808  16.016  32.313   7.930
    2AU     LIG  809  16.342  31.998   7.936
    2AU     LIG  810  16.648  31.769   8.200
    2AU     LIG  811  16.821  31.432   8.492
    2AU     LIG  812  16.876  31.094   8.823
    2AU    AUSL  813  15.214  32.560   7.678
    2AU    AUSL  814  15.147  32.790   8.088
    2AU     AUL  815  15.116  32.425   7.995
    2AU       S  816  15.371  32.007   7.822
    2AU     LIG  817  15.130  31.642   7.910
    2AU     LIG  818  14.985  31.223   7.976
    2AU     LIG  819  15.058  30.816   8.125
    2AU     LIG  820  14.916  30.431   8.346
    2AU       S  821  14.837  32.544   8.419
    2AU     LIG  822  14.466  32.280   8.626
    2AU     LIG  823  14.260  31.846   8.690
    2AU     LIG  824  14.055  31.512   8.961
    2AU     LIG  825  13.876  31.436   9.378
    2AU    AUSL  826  15.529  32.463   7.643
    2AU    AUSL  827  15.232  32.501   7.331
    2AU     AUL  828  15.065  32.319   7.586
    2AU       S  829  15.296  32.012   7.252
    2AU     LIG  830  15.110  31.595   7.035
    2AU     LIG  831  14.967  31.123   7.008
    2AU     LIG  832  14.834  30.657   6.923
    2AU     LIG  833  14.594  30.372   6.633
    2AU       S  834  15.618  32.082   7.750
    2AU     LIG  835  15.648  31.600   7.821
    2AU     LIG  836  15.495  31.167   7.902
    2AU     LIG  837  15.588  30.783   8.154
    2AU     LIG  838  15.898  30.420   8.200
    2AU    AUSL  839  15.529  33.881   7.002
    2AU    AUSL  840  15.889  33.788   7.263
    2AU     AUL  841  15.858  34.017   7.073
    2AU       S  842  15.612  34.351   6.807
    2AU     LIG  843  15.842  34.629   6.520
    2AU     LIG  844  15.750  35.046   6.336
    2AU     LIG  845  15.653  35.394   6.038
    2AU     LIG  846  15.746  35.636   5.640
    2AU       S  847  16.305  34.041   6.870
    2AU     LIG  848  16.606  34.300   6.621
    2AU     LIG  849  16.935  34.536   6.381
    2AU     LIG  850  17.103  34.851   6.078
    2AU     LIG  851  17.169  35.331   6.042
    2AU    AUSL  852  15.318  33.945   7.285
    2AU    AUSL  853  15.217  33.725   6.941
    2AU     AUL  854  15.209  34.069   6.972
    2AU       S  855  15.510  34.480   7.030
    2AU     LIG  856  15.530  34.919   6.815
    2AU     LIG  857  15.548  35.391   6.679
    2AU     LIG  858  15.352  35.841   6.682
    2AU     LIG  859  15.115  36.274   6.729
    2AU       S  860  14.776  34.003   6.698
    2AU     LIG  861  14.651  34.202   6.268
    2AU     LIG  862  14.526  34.430   5.855
    2AU     LIG  863  14.358  34.764   5.554
    2AU     LIG  864  14.399  35.153   5.274
    2AU    AUSL  865  15.406  32.606   7.035
    2AU    AUSL  866  14.963  32.698   7.212
    2AU     AUL  867  15.091  32.444   6.989
    2AU       S  868  14.633  32.535   6.790
    2AU     LIG  869  14.327  32.164   6.725
    2AU     LIG  870  14.019  31.786   6.623
    2AU     LIG  871  13.725  31.426   6.439
    2AU     LIG  872  13.479  31.021   6.332
    2AU       S  873  15.399  32.038   7.000
    2AU     LIG  874  15.420  31.775   6.640
    2AU     LIG  875  15.321  31.343   6.578
    2AU     LIG  876  15.128  30.911   6.561
    2AU     LIG  877  14.992  30.508   6.359
    2AU    AUSL  878  15.597  32.486   7.316
    2AU    AUSL  879  15.697  32.767   6.922
    2AU     AUL  880  15.703  32.428   6.991
    2AU       S  881  15.588  32.016   7.267
    2AU     LIG  882  15.614  31.565   7.083
    2AU     LIG  883  15.525  31.106   6.981
    2AU     LIG  884  15.708  30.672   6.862
    2AU     LIG  885  16.039  30.374   6.662
    2AU       S  886  15.926  32.573   6.565
    2AU     LIG  887  15.941  32.123   6.414
    2AU     LIG  888  16.220  31.780   6.264
    2AU     LIG  889  16.487  31.624   5.921
    2AU     LIG  890  16.736  31.793   5.546
    3AU     AUC  891  38.814   4.257   7.504
    3AU     AUC  892  39.086   4.242   7.344
    3AU     AUC  893  39.082   4.238   7.671
    3AU     AUC  894  38.551   4.272   7.333
    3AU     AUC  895  38.544   4.272   7.667
    3AU     AUC  896  38.667   4.533   7.499
    3AU     AUC  897  38.997   4.514   7.510
    3AU     AUC  898  38.629   4.000   7.501
    3AU     AUC  899  38.959   3.978   7.501
    3AU     AUC  900  38.798   4.093   7.773
    3AU     AUC  901  38.824   4.421   7.773
    3AU     AUC  902  38.811   4.093   7.237
    3AU     AUC  903  38.833   4.424   7.235
    3AU     AUC  904  39.352   4.236   7.197
    3AU     AUC  905  39.362   4.218   7.506
    3AU     AUC  906  39.340   4.214   7.830
    3AU     AUC  907  38.304   4.276   7.157
    3AU     AUC  908  38.271   4.281   7.493
    3AU     AUC  909  38.285   4.290   7.826
    3AU     AUC  910  38.521   4.799   7.494
    3AU     AUC  911  38.849   4.802   7.504
    3AU     AUC  912  39.164   4.766   7.522
    3AU     AUC  913  38.447   3.756   7.498
    3AU     AUC  914  38.775   3.715   7.490
    3AU     AUC  915  39.098   3.701   7.503
    3AU     AUC  916  38.783   3.937   8.037
    3AU     AUC  917  38.805   4.254   8.057
    3AU     AUC  918  38.830   4.582   8.024
    3AU     AUC  919  38.818   3.933   6.983
    3AU     AUC  920  38.852   4.267   6.960
    3AU     AUC  921  38.858   4.589   6.970
    3AU     AUC  922  39.073   4.073   7.946
    3AU     AUC  923  39.106   4.403   7.950
    3AU     AUC  924  39.087   4.081   7.072
    3AU     AUC  925  39.118   4.437   7.077
    3AU     AUC  926  38.522   4.108   7.955
    3AU     AUC  927  38.545   4.438   7.944
    3AU     AUC  928  38.545   4.101   7.064
    3AU     AUC  929  38.565   4.433   7.048
    3AU     AUC  930  39.275   4.498   7.354
    3AU     AUC  931  39.282   4.498   7.685
    3AU     AUC  932  38.395   4.555   7.315
    3AU     AUC  933  38.389   4.561   7.665
    3AU     AUC  934  39.242   3.949   7.340
    3AU     AUC  935  39.221   3.942   7.672
    3AU     AUC  936  38.349   4.007   7.331
    3AU     AUC  937  38.349   4.005   7.673
    3AU     AUC  938  38.675   4.712   7.769
    3AU     AUC  939  39.016   4.689   7.783
    3AU     AUC  940  38.607   3.834   7.783
    3AU     AUC  941  38.933   3.802   7.766
    3AU     AUC  942  38.676   4.700   7.216
    3AU     AUC  943  39.001   4.702   7.232
    3AU     AUC  944  38.620   3.821   7.225
    3AU     AUC  945  38.960   3.801   7.225
    3AU    AUSL  946  39.300   4.180   8.132
    3AU    AUSL  947  39.051   3.818   8.058
    3AU     AUL  948  39.274   3.831   8.314
    3AU       S  949  39.409   3.345   8.168
    3AU     LIG  950  39.439   2.923   8.319
    3AU     LIG  951  39.604   2.659   8.660
    3AU     LIG  952  39.863   2.550   9.028
    3AU     LIG  953  39.877   2.424   9.473
    3AU       S  954  39.647   4.150   8.493
    3AU     LIG  955  39.706   4.341   8.942
    3AU     LIG  956  39.755   4.112   9.365
    3AU     LIG  957  40.048   3.902   9.686
    3AU     LIG  958  40.469   3.875   9.921
    3AU    AUSL  959  38.972   4.084   8.271
    3AU    AUSL  960  38.656   4.427   8.276
    3AU     AUL  961  38.907   4.307   8.551
    3AU       S  962  39.330   4.080   8.736
    3AU     LIG  963  39.291   3.964   9.180
    3AU     LIG  964  39.355   3.717   9.578
    3AU     LIG  965  39.338   3.537  10.019
    3AU     LIG  966  39.386   3.632  10.482
    3AU       S  967  38.445   4.324   8.756
    3AU     LIG  968  38.319   4.374   9.203
    3AU     LIG  969  38.375   4.184   9.620
    3AU     LIG  970  38.219   4.283  10.044
    3AU     LIG  971  38.065   4.653  10.309
    3AU    AUSL  972  38.983   4.451   8.215
    3AU    AUSL  973  39.413   4.485   7.991
    3AU     AUL  974  39.255   4.430   8.358
    3AU       S  975  38.988   4.826   8.577
    3AU     LIG  976  39.308   4.730   8.934
    3AU     LIG  977  39.406   4.793   9.407
    3AU     LIG  978  39.341   4.846   9.898
    3AU     LIG  979  39.398   4.767  10.377
    3AU       S  980  39.700   4.665   8.303
    3AU     LIG  981  40.117   4.741   8.421
    3AU     LIG  982  40.348   4.984   8.723
    3AU     LIG  983  40.530   5.229   9.065
    3AU     LIG  984  40.728   5.536   9.350
    3AU    AUSL  985  39.285   4.293   6.929
    3AU    AUSL  986  39.168   4.704   6.922
    3AU     AUL  987  39.469   4.501   6.752
    3AU       S  988  39.404   4.213   6.347
    3AU     LIG  989  39.697   4.051   6.042
    3AU     LIG  990  39.732   3.964   5.590
    3AU     LIG  991  39.966   3.929   5.187
    3AU     LIG  992  40.390   3.822   4.991
    3AU       S  993  39.468   4.995   6.659
    3AU     LIG  994  39.547   5.293   6.337
    3AU     LIG  995  39.906   5.378   6.062
    3AU     LIG  996  40.040   5.557   5.650
    3AU     LIG  997  39.921   5.756   5.237
    3AU    AUSL  998  39.066   4.083   6.765
    3AU    AUSL  999  39.345   3.953   7.031
    3AU     AUL 1000  39.542   4.127   6.829
    3AU       S 1001  39.513   3.670   6.613
    3AU     LIG 1002  39.776   3.355   6.338
    3AU     LIG 1003  40.021   2.941   6.306
    3AU     LIG 1004  40.309   2.690   6.022
    3AU     LIG 1005  40.734   2.674   5.810
    3AU       S 1006  39.258   4.040   6.367
    3AU     LIG 1007  39.316   3.710   6.062
    3AU     LIG 1008  39.280   3.716   5.599
    3AU     LIG 1009  39.473   3.742   5.175
    3AU     LIG 1010  39.729   3.680   4.790
    3AU    AUSL 1011  39.022   4.444   6.738
    3AU    AUSL 1012  38.699   4.095   6.798
    3AU     AUL 1013  38.811   4.223   6.500
    3AU       S 1014  38.289   4.090   6.346
    3AU     LIG 1015  38.170   3.734   6.052
    3AU     LIG 1016  38.133   3.674   5.577
    3AU     LIG 1017  38.021   3.695   5.111
    3AU     LIG 1018  38.074   3.496   4.670
    3AU       S 1019  39.225   4.426   6.295
    3AU     LIG 1020  39.243   4.200   5.853
    3AU     LIG 1021  39.318   4.197   5.380
    3AU     LIG 1022  39.478   4.209   4.930
    3AU     LIG 1023  39.594   4.522   4.586
    3AU    AUSL 1024  38.347   4.335   8.149
    3AU    AUSL 1025  38.548   4.693   8.053
    3AU     AUL 1026  38.459   4.680   8.385
    3AU       S 1027  38.197   4.333   8.668
    3AU     LIG 1028  38.025   4.024   8.978
    3AU     LIG 1029  37.913   4.024   9.435
    3AU     LIG 1030  37.601   3.932   9.790
    3AU     LIG 1031  37.232   4.010  10.093
    3AU       S 1032  38.080   4.991   8.217
    3AU     LIG 1033  38.106   5.132   8.654
    3AU     LIG 1034  38.087   5.438   8.984
    3AU     LIG 1035  37.779   5.689   9.202
    3AU     LIG 1036  37.516   5.687   9.598
    3AU    AUSL 1037  38.597   4.077   8.257
    3AU    AUSL 1038  38.237   4.009   7.960
    3AU     AUL 1039  38.176   4.075   8.254
    3AU       S 1040  37.966   3.627   8.296
    3AU     LIG 1041  37.553   3.379   8.293
    3AU     LIG 1042  37.331   3.070   8.539
    3AU     LIG 1043  37.089   2.869   8.870
    3AU     LIG 1044  36.722   2.667   9.071
    3AU       S 1045  38.459   4.038   8.679
    3AU     LIG 1046  38.510   3.906   9.124
    3AU     LIG 1047  38.316   3.694   9.477
    3AU     LIG 1048  38.104   3.793   9.869
    3AU     LIG 1049  37.809   3.708  10.210
    3AU    AUSL 1050  38.391   4.241   6.832
    3AU    AUSL 1051  38.507   3.826   6.926
    3AU     AUL 1052  38.640   3.874   6.608
    3AU       S 1053  38.121   4.241   6.506
    3AU     LIG 1054  37.802   4.047   6.209
    3AU     LIG 1055  37.732   3.949   5.735
    3AU     LIG 1056  37.612   3.986   5.265
    3AU     LIG 1057  37.312   4.006   4.885
    3AU       S 1058  38.155   3.682   6.596
    3AU     LIG 1059  37.938   3.321   6.329
    3AU     LIG 1060  37.721   2.878   6.299
    3AU     LIG 1061  37.522   2.527   6.058
    3AU     LIG 1062  37.527   2.468   5.610
    3AU    AUSL 1063  38.677   4.445   6.762
    3AU    AUSL 1064  38.274   4.552   6.988
    3AU     AUL 1065  38.453   4.615   6.637
    3AU       S 1066  37.960   4.722   6.699
    3AU     LIG 1067  37.643   4.986   6.516
    3AU     LIG 1068  37.568   5.320   6.199
    3AU     LIG 1069  37.448   5.448   5.764
    3AU     LIG 1070  37.091   5.423   5.448
    3AU       S 1071  38.362   4.315   6.260
    3AU     LIG 1072  38.172   4.201   5.841
    3AU     LIG 1073  38.099   4.156   5.376
    3AU     LIG 1074  38.193   4.336   4.942
    3AU     LIG 1075  38.261   4.706   4.631
    3AU    AUSL 1076  39.481   4.658   7.494
    3AU    AUSL 1077  39.449   4.575   7.118
    3AU     AUL 1078  39.523   4.973   7.374
    3AU       S 1079  39.767   4.859   6.919
    3AU     LIG 1080  40.152   4.841   6.697
    3AU     LIG 1081  40.273   5.051   6.289
    3AU     LIG 1082  40.414   5.318   5.926
    3AU     LIG 1083  40.618   5.542   5.564
    3AU       S 1084  39.987   4.750   7.361
    3AU     LIG 1085  40.471   4.900   7.412
    3AU     LIG 1086  40.958   4.963   7.488
    3AU     LIG 1087  41.420   5.121   7.489
    3AU     LIG 1088  41.634   5.526   7.593
    3AU    AUSL 1089  39.592   4.346   7.336
    3AU    AUSL 1090  39.514   4.042   7.657
    3AU     AUL 1091  39.841   4.118   7.544
    3AU       S 1092  39.974   4.495   7.209
    3AU     LIG 1093  40.424   4.474   7.140
    3AU     LIG 1094  40.876   4.511   7.258
    3AU     LIG 1095  41.295   4.715   7.170
    3AU     LIG 1096  41.718   4.791   6.929
    3AU       S 1097  39.917   3.591   7.668
    3AU     LIG 1098  40.301   3.401   7.854
    3AU     LIG 1099  40.774   3.336   7.801
    3AU     LIG 1100  41.238   3.262   7.760
    3AU     LIG 1101  41.658   3.465   7.795
    3AU    AUSL 1102  39.587   4.380   7.696
    3AU    AUSL 1103  39.332   4.794   7.790
    3AU     AUL 1104  39.668   4.714   7.792
    3AU       S 1105  39.664   4.980   8.216
    3AU     LIG 1106  39.976   5.243   8.460
    3AU     LIG 1107  40.294   5.517   8.686
    3AU     LIG 1108  40.379   5.964   8.821
    3AU     LIG 1109  40.318   6.439   8.714
    3AU       S 1110  40.076   4.561   7.535
    3AU     LIG 1111  40.466   4.510   7.745
    3AU     LIG 1112  40.914   4.535   7.779
    3AU     LIG 1113  41.313   4.739   7.824
    3AU     LIG 1114  41.742   4.809   7.978
    3AU    AUSL 1115  38.225   4.774   7.508
    3AU    AUSL 1116  38.227   4.583   7.932
    3AU     AUL 1117  37.923   4.777   7.715
    3AU       S 1118  37.948   4.713   8.238
    3AU     LIG 1119  37.646   4.963   8.492
    3AU     LIG 1120  37.618   5.255   8.849
    3AU     LIG 1121  37.352   5.402   9.195
    3AU     LIG 1122  37.010   5.446   9.508
    3AU       S 1123  38.059   5.222   7.477
    3AU     LIG 1124  37.629   5.386   7.358
    3AU     LIG 1125  37.220   5.627   7.460
    3AU     LIG 1126  36.830   5.915   7.419
    3AU     LIG 1127  36.473   6.045   7.134
    3AU    AUSL 1128  38.124   4.452   7.278
    3AU    AUSL 1129  38.360   4.850   7.199
    3AU     AUL 1130  37.995   4.752   7.218
    3AU       S 1131  37.757   4.331   6.925
    3AU     LIG 1132  37.343   4.592   6.907
    3AU     LIG 1133  36.859   4.693   6.980
    3AU     LIG 1134  36.387   4.853   7.001
    3AU     LIG 1135  36.115   5.227   6.847
    3AU       S 1136  38.064   5.186   6.964
    3AU     LIG 1137  37.846   5.451   6.638
    3AU     LIG 1138  37.794   5.791   6.314
    3AU     LIG 1139  37.663   6.251   6.269
    3AU     LIG 1140  37.288   6.503   6.146
    3AU    AUSL 1141  38.085   4.453   7.654
    3AU    AUSL 1142  38.035   4.131   7.330
    3AU     AUL 1143  37.812   4.489   7.428
    3AU       S 1144  37.552   4.051   7.359
    3AU     LIG 1145  37.071   4.088   7.289
    3AU     LIG 1146  36.621   3.948   7.209
    3AU     LIG 1147  36.204   3.782   7.145
    3AU     LIG 1148  35.840   3.545   6.977
    3AU       S 1149  37.683   4.386   7.962
    3AU     LIG 1150  37.237   4.584   7.914
    3AU     LIG 1151  36.756   4.620   7.799
    3AU     LIG 1152  36.374   4.929   7.762
    3AU     LIG 1153  35.945   5.121   7.876
    3AU    AUSL 1154  39.419   3.736   7.542
    3AU    AUSL 1155  39.366   3.899   7.935
    3AU     AUL 1156  39.695   3.973   7.885
    3AU       S 1157  39.722   3.443   7.574
    3AU     LIG 1158  40.058   3.118   7.506
    3AU     LIG 1159  40.524   3.038   7.462
    3AU     LIG 1160  40.978   2.911   7.488
    3AU     LIG 1161  41.213   2.615   7.748
    3AU       S 1162  39.615   3.496   8.068
    3AU     LIG 1163  39.912   3.216   8.261
    3AU     LIG 1164  40.018   2.964   8.637
    3AU     LIG 1165  40.326   2.733   8.903
    3AU     LIG 1166  40.567   2.617   9.285
    3AU    AUSL 1167  39.552   4.003   7.314
    3AU    AUSL 1168  39.249   3.660   7.218
    3AU     AUL 1169  39.580   3.713   7.161
    3AU       S 1170  39.995   3.643   7.422
    3AU     LIG 1171  40.470   3.541   7.385
    3AU     LIG 1172  40.942   3.406   7.322
    3AU     LIG 1173  41.430   3.400   7.301
    3AU     LIG 1174  41.759   3.414   6.962
    3AU       S 1175  39.499   3.439   6.750
    3AU     LIG 1176  39.657   3.012   6.718
    3AU     LIG 1177  39.817   2.587   6.634
    3AU     LIG 1178  40.050   2.360   6.333
    3AU     LIG 1179  40.256   2.158   5.991
    3AU    AUSL 1180  38.147   3.827   7.506
    3AU    AUSL 1181  38.217   4.016   7.047
    3AU     AUL 1182  37.969   3.771   7.230
    3AU       S 1183  37.952   3.848   6.724
    3AU     LIG 1184  37.574   3.621   6.528
    3AU     LIG 1185  37.351   3.199   6.436
    3AU     LIG 1186  37.122   2.871   6.151
    3AU     LIG 1187  36.711   2.650   5.987
    3AU       S 1188  37.559   3.829   7.511
    3AU     LIG 1189  37.140   3.650   7.565
    3AU     LIG 1190  36.706   3.510   7.494
    3AU     LIG 1191  36.369   3.193   7.634
    3AU     LIG 1192  35.972   2.971   7.818
    3AU    AUSL 1193  38.051   4.118   7.685
    3AU    AUSL 1194  38.296   3.696   7.801
    3AU     AUL 1195  37.960   3.805   7.818
    3AU       S 1196  38.034   3.427   8.151
    3AU     LIG 1197  37.880   2.983   8.144
    3AU     LIG 1198  37.507   2.732   8.185
    3AU     LIG 1199  37.283   2.539   8.527
    3AU     LIG 1200  37.111   2.327   8.911
    3AU       S 1201  37.560   4.060   7.612
    3AU     LIG 1202  37.125   4.103   7.794
    3AU     LIG 1203  36.662   4.012   7.712
    3AU     LIG 1204  36.278   3.701   7.689
    3AU     LIG 1205  35.886   3.479   7.850
    3AU    AUSL 1206  38.849   4.895   7.966
    3AU    AUSL 1207  38.406   4.881   7.797
    3AU     AUL 1208  38.587   5.001   8.176
    3AU       S 1209  38.154   5.197   7.970
    3AU     LIG 1210  37.851   5.419   8.302
    3AU     LIG 1211  37.787   5.702   8.656
    3AU     LIG 1212  37.696   6.141   8.708
    3AU     LIG 1213  37.379   6.477   8.699
    3AU       S 1214  38.863   5.415   8.055
    3AU     LIG 1215  39.098   5.692   8.346
    3AU     LIG 1216  39.094   6.094   8.571
    3AU     LIG 1217  39.054   6.540   8.681
    3AU     LIG 1218  38.989   6.761   9.094
    3AU    AUSL 1219  38.689   5.017   7.651
    3AU    AUSL 1220  38.996   5.041   7.355
    3AU     AUL 1221  38.608   5.275   7.402
    3AU       S 1222  38.697   5.450   7.863
    3AU     LIG 1223  38.794   5.923   8.004
    3AU     LIG 1224  38.792   6.350   8.230
    3AU     LIG 1225  38.527   6.743   8.308
    3AU     LIG 1226  38.204   7.100   8.266
    3AU       S 1227  39.062   5.485   7.225
    3AU     LIG 1228  39.355   5.752   6.992
    3AU     LIG 1229  39.354   6.183   6.792
    3AU     LIG 1230  39.380   6.647   6.712
    3AU     LIG 1231  39.713   7.002   6.764
    3AU    AUSL 1232  39.053   4.991   7.687
    3AU    AUSL 1233  39.138   4.711   8.072
    3AU     AUL 1234  39.202   5.051   8.008
    3AU       S 1235  39.471   4.886   8.417
    3AU     LIG 1236  39.774   4.897   8.777
    3AU     LIG 1237  39.999   5.240   9.007
    3AU     LIG 1238  40.219   5.615   9.208
    3AU     LIG 1239  40.373   5.782   9.632
    3AU       S 1240  39.012   5.448   7.743
    3AU     LIG 1241  39.275   5.787   7.869
    3AU     LIG 1242  39.285   6.180   8.108
    3AU     LIG 1243  39.452   6.566   8.328
    3AU     LIG 1244  39.342   6.983   8.498
    3AU    AUSL 1245  38.788   3.618   7.957
    3AU    AUSL 1246  39.168   3.627   7.799
    3AU     AUL 1247  38.971   3.574   8.240
    3AU       S 1248  38.918   3.108   8.029
    3AU     LIG 1249  38.713   2.740   8.239
    3AU     LIG 1250  38.423   2.383   8.372
    3AU     LIG 1251  38.437   1.965   8.588
    3AU     LIG 1252  38.373   1.561   8.835
    3AU       S 1253  39.391   3.326   7.915
    3AU     LIG 1254  39.683   2.981   7.867
    3AU     LIG 1255  39.890   2.700   8.186
    3AU     LIG 1256  40.065   2.463   8.538
    3AU     LIG 1257  40.232   2.208   8.882
    3AU    AUSL 1258  38.585   3.581   7.670
    3AU    AUSL 1259  38.506   3.792   8.084
    3AU     AUL 1260  38.500   3.428   7.982
    3AU       S 1261  38.732   3.003   7.784
    3AU     LIG 1262  38.378   2.704   7.851
    3AU     LIG 1263  38.210   2.292   7.917
    3AU     LIG 1264  38.396   1.929   8.082
    3AU     LIG 1265  38.297   1.532   8.321
    3AU       S 1266  38.243   3.565   8.408
    3AU     LIG 1267  37.940   3.213   8.603
    3AU     LIG 1268  37.742   2.790   8.656
    3AU     LIG 1269  37.520   2.616   9.016
    3AU     LIG 1270  37.171   2.640   9.329
    3AU    AUSL 1271  38.896   3.474   7.647
    3AU    AUSL 1272  38.589   3.511   7.328
    3AU     AUL 1273  38.422   3.346   7.602
    3AU       S 1274  38.635   3.042   7.261
    3AU     LIG 1275  38.353   2.689   7.336
    3AU     LIG 1276  38.385   2.255   7.220
    3AU     LIG 1277  38.290   1.852   7.003
    3AU     LIG 1278  38.072   1.472   6.781
    3AU       S 1279  38.988   3.098   7.757
    3AU     LIG 1280  39.052   2.629   7.848
    3AU     LIG 1281  38.797   2.268   8.023
    3AU     LIG 1282  38.878   1.857   8.257
    3AU     LIG 1283  39.231   1.519   8.286
    3AU    AUSL 1284  38.886   4.898   7.010
    3AU    AUSL 1285  39.242   4.793   7.270
    3AU     AUL 1286  39.219   5.030   7.096
    3AU       S 1287  38.980   5.355   6.810
    3AU     LIG 1288  39.188   5.650   6.515
    3AU     LIG 1289  39.097   6.082   6.354
    3AU     LIG 1290  39.024   6.404   6.011
    3AU     LIG 1291  39.098   6.700   5.640
    3AU       S 1292  39.661   5.067   6.883
    3AU     LIG 1293  39.966   5.316   6.624
    3AU     LIG 1294  40.273   5.573   6.371
    3AU     LIG 1295  40.447   5.971   6.185
    3AU     LIG 1296  40.685   6.378   6.103
    3AU    AUSL 1297  38.675   4.956   7.292
    3AU    AUSL 1298  38.578   4.738   6.941
    3AU     AUL 1299  38.565   5.086   6.982
    3AU       S 1300  38.878   5.486   7.035
    3AU     LIG 1301  38.894   5.916   6.838
    3AU     LIG 1302  38.808   6.358   6.712
    3AU     LIG 1303  38.407   6.634   6.734
    3AU     LIG 1304  38.104   6.933   6.947
    3AU       S 1305  38.139   5.008   6.704
    3AU     LIG 1306  38.070   5.175   6.265
    3AU     LIG 1307  37.965   5.481   5.910
    3AU     LIG 1308  37.847   5.600   5.461
    3AU     LIG 1309  37.700   5.793   5.052
    3AU    AUSL 1310  38.770   3.611   7.034
    3AU    AUSL 1311  38.322   3.708   7.209
    3AU     AUL 1312  38.457   3.459   6.979
    3AU       S 1313  38.001   3.552   6.785
    3AU     LIG 1314  37.744   3.156   6.781
    3AU     LIG 1315  37.530   2.732   6.752
    3AU     LIG 1316  37.232   2.506   6.487
    3AU     LIG 1317  37.038   2.283   6.127
    3AU       S 1318  38.748   3.042   7.008
    3AU     LIG 1319  38.543   2.641   6.861
    3AU     LIG 1320  38.325   2.266   6.699
    3AU     LIG 1321  38.379   1.861   6.474
    3AU     LIG 1322  38.472   1.703   6.035
    3AU    AUSL 1323  38.956   3.499   7.319
    3AU    AUSL 1324  39.055   3.776   6.920
    3AU     AUL 1325  39.079   3.420   7.008
    3AU       S 1326  38.913   3.027   7.284
    3AU     LIG 1327  38.845   2.555   7.268
    3AU     LIG 1328  38.839   2.176   6.962
    3AU     LIG 1329  39.179   1.831   6.839
    3AU     LIG 1330  39.632   1.628   6.774
    3AU       S 1331  39.246   3.592   6.563
    3AU     LIG 1332  39.291   3.193   6.349
    3AU     LIG 1333  39.523   2.806   6.264
    3AU     LIG 1334  39.794   2.636   5.952
    3AU     LIG 1335  39.807   2.720   5.499
    4AU     AUC 1336   8.988  16.398   7.505
    4AU     AUC 1337   9.260  16.385   7.344
    4AU     AUC 1338   9.255  16.380   7.672
    4AU     AUC 1339   8.724  16.412   7.335
    4AU     AUC 1340   8.717  16.411   7.670
    4AU     AUC 1341   8.839  16.673   7.500
    4AU     AUC 1342   9.170  16.657   7.510
    4AU     AUC 1343   8.803  16.140   7.504
    4AU     AUC 1344   9.134  16.119   7.500
    4AU     AUC 1345   8.973  16.233   7.773
    4AU     AUC 1346   8.997  16.561   7.774
    4AU     AUC 1347   8.984  16.235   7.237
    4AU     AUC 1348   9.006  16.565   7.236
    4AU     AUC 1349   9.527  16.383   7.196
    4AU     AUC 1350   9.535  16.363   7.507
    4AU     AUC 1351   9.515  16.355   7.828
    4AU     AUC 1352   8.475  16.415   7.160
    4AU     AUC 1353   8.444  16.419   7.496
    4AU     AUC 1354   8.457  16.427   7.828
    4AU     AUC 1355   8.693  16.938   7.494
    4AU     AUC 1356   9.021  16.943   7.502
    4AU     AUC 1357   9.335  16.910   7.520
    4AU     AUC 1358   8.625  15.893   7.503
    4AU     AUC 1359   8.950  15.856   7.490
    4AU     AUC 1360   9.274  15.843   7.496
    4AU     AUC 1361   8.966  16.075   8.034
    4AU     AUC 1362   8.985  16.394   8.057
    4AU     AUC 1363   9.000  16.721   8.025
    4AU     AUC 1364   8.988  16.081   6.981
    4AU     AUC 1365   9.021  16.409   6.959
    4AU     AUC 1366   9.031  16.727   6.972
    4AU     AUC 1367   9.253  16.212   7.943
    4AU     AUC 1368   9.279  16.544   7.954
    4AU     AUC 1369   9.260  16.229   7.068
    4AU     AUC 1370   9.292  16.577   7.078
    4AU     AUC 1371   8.697  16.245   7.961
    4AU     AUC 1372   8.715  16.575   7.945
    4AU     AUC 1373   8.716  16.241   7.065
    4AU     AUC 1374   8.736  16.572   7.050
    4AU     AUC 1375   9.448  16.644   7.356
    4AU     AUC 1376   9.454  16.641   7.686
    4AU     AUC 1377   8.567  16.695   7.318
    4AU     AUC 1378   8.561  16.700   7.667
    4AU     AUC 1379   9.416  16.092   7.337
    4AU     AUC 1380   9.396  16.083   7.669
    4AU     AUC 1381   8.523  16.146   7.333
    4AU     AUC 1382   8.523  16.145   7.679
    4AU     AUC 1383   8.846  16.851   7.769
    4AU     AUC 1384   9.187  16.831   7.782
    4AU     AUC 1385   8.783  15.971   7.783
    4AU     AUC 1386   9.109  15.942   7.763
    4AU     AUC 1387   8.849  16.839   7.217
    4AU     AUC 1388   9.178  16.842   7.230
    4AU     AUC 1389   8.793  15.965   7.228
    4AU     AUC 1390   9.137  15.947   7.223
    4AU    AUSL 1391   9.491  16.318   8.124
    4AU    AUSL 1392   9.228  15.954   8.055
    4AU     AUL 1393   9.467  15.968   8.306
    4AU       S 1394   9.568  15.474   8.156
    4AU     LIG 1395   9.544  15.107   8.407
    4AU     LIG 1396   9.698  14.849   8.760
    4AU     LIG 1397  10.019  14.660   9.031
    4AU     LIG 1398  10.352  14.550   9.327
    4AU       S 1399   9.831  16.300   8.479
    4AU     LIG 1400   9.908  16.484   8.918
    4AU     LIG 1401   9.992  16.263   9.337
    4AU     LIG 1402  10.254  16.080   9.685
    4AU     LIG 1403  10.626  16.066   9.990
    4AU    AUSL 1404   9.171  16.228   8.264
    4AU    AUSL 1405   8.817  16.558   8.271
    4AU     AUL 1406   9.059  16.421   8.550
    4AU       S 1407   9.514  16.228   8.726
    4AU     LIG 1408   9.548  16.066   9.161
    4AU     LIG 1409   9.707  15.846   9.557
    4AU     LIG 1410   9.719  15.560   9.951
    4AU     LIG 1411   9.795  15.466  10.415
    4AU       S 1412   8.582  16.474   8.747
    4AU     LIG 1413   8.358  16.408   9.160
    4AU     LIG 1414   8.325  16.230   9.598
    4AU     LIG 1415   8.149  16.294  10.027
    4AU     LIG 1416   8.075  16.590  10.385
    4AU    AUSL 1417   9.145  16.599   8.229
    4AU    AUSL 1418   9.583  16.631   7.990
    4AU     AUL 1419   9.423  16.563   8.349
    4AU       S 1420   9.148  16.944   8.588
    4AU     LIG 1421   9.476  16.876   8.937
    4AU     LIG 1422   9.600  16.979   9.393
    4AU     LIG 1423   9.554  17.045   9.877
    4AU     LIG 1424   9.610  17.137  10.348
    4AU       S 1425   9.862  16.813   8.310
    4AU     LIG 1426  10.272  16.868   8.456
    4AU     LIG 1427  10.506  17.129   8.743
    4AU     LIG 1428  10.711  17.425   9.039
    4AU     LIG 1429  10.896  17.760   9.314
    4AU    AUSL 1430   9.457  16.437   6.918
    4AU    AUSL 1431   9.359  16.828   6.920
    4AU     AUL 1432   9.717  16.591   6.806
    4AU       S 1433   9.567  16.451   6.346
    4AU     LIG 1434   9.856  16.257   6.005
    4AU     LIG 1435  10.038  16.042   5.612
    4AU     LIG 1436  10.151  16.042   5.148
    4AU     LIG 1437  10.459  15.948   4.790
    4AU       S 1438   9.661  17.069   6.637
    4AU     LIG 1439   9.866  17.261   6.251
    4AU     LIG 1440  10.114  17.577   5.982
    4AU     LIG 1441  10.322  17.815   5.613
    4AU     LIG 1442  10.588  18.140   5.390
    4AU    AUSL 1443   9.229  16.230   6.751
    4AU    AUSL 1444   9.517  16.101   7.038
    4AU     AUL 1445   9.686  16.219   6.787
    4AU       S 1446   9.723  15.727   6.660
    4AU     LIG 1447   9.957  15.319   6.456
    4AU     LIG 1448  10.187  14.983   6.211
    4AU     LIG 1449  10.460  14.856   5.848
    4AU     LIG 1450  10.840  14.949   5.571
    4AU       S 1451   9.428  16.213   6.338
    4AU     LIG 1452   9.531  15.861   6.051
    4AU     LIG 1453   9.626  15.728   5.613
    4AU     LIG 1454   9.705  15.783   5.152
    4AU     LIG 1455   9.671  15.866   4.680
    4AU    AUSL 1456   9.185  16.589   6.741
    4AU    AUSL 1457   8.866  16.237   6.795
    4AU     AUL 1458   8.977  16.370   6.491
    4AU       S 1459   8.451  16.233   6.354
    4AU     LIG 1460   8.344  15.897   6.058
    4AU     LIG 1461   8.296  15.792   5.604
    4AU     LIG 1462   8.281  15.811   5.139
    4AU     LIG 1463   8.288  15.716   4.671
    4AU       S 1464   9.390  16.633   6.343
    4AU     LIG 1465   9.390  16.425   5.872
    4AU     LIG 1466   9.587  16.238   5.471
    4AU     LIG 1467   9.694  16.286   5.006
    4AU     LIG 1468   9.609  16.500   4.584
    4AU    AUSL 1469   8.507  16.468   8.148
    4AU    AUSL 1470   8.721  16.833   8.052
    4AU     AUL 1471   8.629  16.818   8.379
    4AU       S 1472   8.313  16.474   8.617
    4AU     LIG 1473   8.122  16.093   8.812
    4AU     LIG 1474   8.013  15.994   9.254
    4AU     LIG 1475   7.862  16.002   9.698
    4AU     LIG 1476   7.558  16.122  10.029
    4AU       S 1477   8.252  17.136   8.221
    4AU     LIG 1478   8.253  17.279   8.668
    4AU     LIG 1479   8.193  17.549   9.032
    4AU     LIG 1480   7.845  17.771   9.229
    4AU     LIG 1481   7.675  17.918   9.640
    4AU    AUSL 1482   8.816  16.205   8.267
    4AU    AUSL 1483   8.389  16.153   7.970
    4AU     AUL 1484   8.472  16.159   8.273
    4AU       S 1485   8.098  15.837   8.303
    4AU     LIG 1486   7.675  15.710   8.307
    4AU     LIG 1487   7.424  15.380   8.480
    4AU     LIG 1488   7.189  15.049   8.698
    4AU     LIG 1489   7.006  14.943   9.113
    4AU       S 1490   8.618  16.203   8.741
    4AU     LIG 1491   8.516  15.923   9.118
    4AU     LIG 1492   8.365  15.719   9.520
    4AU     LIG 1493   8.246  15.780   9.961
    4AU     LIG 1494   8.016  15.904  10.344
    4AU    AUSL 1495   8.559  16.381   6.837
    4AU    AUSL 1496   8.675  15.967   6.924
    4AU     AUL 1497   8.812  16.017   6.605
    4AU       S 1498   8.285  16.383   6.519
    4AU     LIG 1499   7.964  16.192   6.233
    4AU     LIG 1500   7.899  16.064   5.777
    4AU     LIG 1501   7.821  16.044   5.304
    4AU     LIG 1502   7.610  16.160   4.884
    4AU       S 1503   8.330  15.820   6.607
    4AU     LIG 1504   8.114  15.505   6.308
    4AU     LIG 1505   7.857  15.111   6.221
    4AU     LIG 1506   7.566  14.797   6.013
    4AU     LIG 1507   7.369  14.732   5.575
    4AU    AUSL 1508   8.842  16.584   6.764
    4AU    AUSL 1509   8.444  16.692   6.991
    4AU     AUL 1510   8.625  16.757   6.639
    4AU       S 1511   8.132  16.858   6.702
    4AU     LIG 1512   7.797  17.060   6.499
    4AU     LIG 1513   7.701  17.352   6.164
    4AU     LIG 1514   7.583  17.587   5.776
    4AU     LIG 1515   7.291  17.662   5.402
    4AU       S 1516   8.516  16.456   6.269
    4AU     LIG 1517   8.310  16.370   5.860
    4AU     LIG 1518   8.268  16.272   5.403
    4AU     LIG 1519   8.136  16.266   4.937
    4AU     LIG 1520   8.199  16.444   4.498
    4AU    AUSL 1521   9.650  16.805   7.498
    4AU    AUSL 1522   9.626  16.719   7.129
    4AU     AUL 1523   9.698  17.124   7.372
    4AU       S 1524   9.952  17.008   6.921
    4AU     LIG 1525  10.185  16.954   6.532
    4AU     LIG 1526  10.385  17.180   6.176
    4AU     LIG 1527  10.621  17.477   5.886
    4AU     LIG 1528  10.848  17.711   5.548
    4AU       S 1529  10.148  16.881   7.372
    4AU     LIG 1530  10.572  17.031   7.335
    4AU     LIG 1531  11.023  17.017   7.385
    4AU     LIG 1532  11.276  17.403   7.344
    4AU     LIG 1533  11.384  17.835   7.498
    4AU    AUSL 1534   9.767  16.492   7.343
    4AU    AUSL 1535   9.688  16.184   7.658
    4AU     AUL 1536  10.015  16.255   7.546
    4AU       S 1537  10.160  16.640   7.227
    4AU     LIG 1538  10.618  16.548   7.172
    4AU     LIG 1539  11.069  16.495   7.316
    4AU     LIG 1540  11.486  16.727   7.395
    4AU     LIG 1541  11.856  16.977   7.243
    4AU       S 1542  10.084  15.721   7.645
    4AU     LIG 1543  10.450  15.485   7.785
    4AU     LIG 1544  10.884  15.322   7.772
    4AU     LIG 1545  11.337  15.339   7.709
    4AU     LIG 1546  11.798  15.336   7.700
    4AU    AUSL 1547   9.761  16.524   7.701
    4AU    AUSL 1548   9.498  16.938   7.793
    4AU     AUL 1549   9.835  16.863   7.797
    4AU       S 1550   9.822  17.121   8.226
    4AU     LIG 1551  10.146  17.378   8.443
    4AU     LIG 1552  10.464  17.651   8.648
    4AU     LIG 1553  10.738  17.960   8.858
    4AU     LIG 1554  10.930  18.398   8.845
    4AU       S 1555  10.255  16.694   7.566
    4AU     LIG 1556  10.711  16.656   7.667
    4AU     LIG 1557  11.159  16.699   7.790
    4AU     LIG 1558  11.597  16.628   7.908
    4AU     LIG 1559  11.985  16.833   8.070
    4AU    AUSL 1560   8.395  16.911   7.511
    4AU    AUSL 1561   8.400  16.724   7.936
    4AU     AUL 1562   8.093  16.910   7.721
    4AU       S 1563   8.118  16.859   8.244
    4AU     LIG 1564   7.804  17.114   8.483
    4AU     LIG 1565   7.750  17.334   8.894
    4AU     LIG 1566   7.454  17.417   9.242
    4AU     LIG 1567   7.020  17.266   9.358
    4AU       S 1568   8.222  17.357   7.480
    4AU     LIG 1569   7.745  17.410   7.483
    4AU     LIG 1570   7.303  17.511   7.625
    4AU     LIG 1571   6.886  17.724   7.594
    4AU     LIG 1572   6.577  18.066   7.696
    4AU    AUSL 1573   8.296  16.591   7.283
    4AU    AUSL 1574   8.531  16.990   7.202
    4AU     AUL 1575   8.167  16.892   7.220
    4AU       S 1576   7.925  16.471   6.932
    4AU     LIG 1577   7.545  16.778   6.881
    4AU     LIG 1578   7.080  16.960   6.890
    4AU     LIG 1579   6.664  17.171   6.751
    4AU     LIG 1580   6.219  17.084   6.916
    4AU       S 1581   8.235  17.326   6.960
    4AU     LIG 1582   7.972  17.543   6.597
    4AU     LIG 1583   7.829  17.848   6.238
    4AU     LIG 1584   7.583  18.265   6.158
    4AU     LIG 1585   7.315  18.606   6.390
    4AU    AUSL 1586   8.259  16.587   7.660
    4AU    AUSL 1587   8.207  16.270   7.331
    4AU     AUL 1588   7.986  16.630   7.436
    4AU       S 1589   7.734  16.192   7.360
    4AU     LIG 1590   7.269  16.255   7.305
    4AU     LIG 1591   6.870  16.001   7.293
    4AU     LIG 1592   6.500  15.724   7.289
    4AU     LIG 1593   6.046  15.818   7.271
    4AU       S 1594   7.876  16.507   7.983
    4AU     LIG 1595   7.475  16.745   7.964
    4AU     LIG 1596   7.168  17.083   7.892
    4AU     LIG 1597   6.807  17.346   7.951
    4AU     LIG 1598   6.368  17.206   7.989
    4AU    AUSL 1599   9.593  15.880   7.534
    4AU    AUSL 1600   9.541  16.033   7.930
    4AU     AUL 1601   9.872  16.096   7.882
    4AU       S 1602   9.883  15.580   7.549
    4AU     LIG 1603  10.172  15.244   7.418
    4AU     LIG 1604  10.625  15.110   7.385
    4AU     LIG 1605  11.078  14.937   7.442
    4AU     LIG 1606  11.525  14.860   7.544
    4AU       S 1607   9.789  15.614   8.054
    4AU     LIG 1608  10.027  15.301   8.318
    4AU     LIG 1609  10.176  15.023   8.657
    4AU     LIG 1610  10.498  14.817   8.907
    4AU     LIG 1611  10.738  14.909   9.301
    4AU    AUSL 1612   9.726  16.152   7.317
    4AU    AUSL 1613   9.430  15.794   7.204
    4AU     AUL 1614   9.765  15.886   7.155
    4AU       S 1615  10.172  15.782   7.412
    4AU     LIG 1616  10.629  15.640   7.332
    4AU     LIG 1617  11.036  15.423   7.283
    4AU     LIG 1618  11.461  15.259   7.214
    4AU     LIG 1619  11.900  15.120   7.228
    4AU       S 1620   9.670  15.510   6.831
    4AU     LIG 1621   9.941  15.155   6.940
    4AU     LIG 1622  10.089  14.781   6.685
    4AU     LIG 1623  10.278  14.461   6.378
    4AU     LIG 1624  10.686  14.159   6.347
    4AU    AUSL 1625   8.328  15.966   7.504
    4AU    AUSL 1626   8.390  16.151   7.052
    4AU     AUL 1627   8.145  15.904   7.236
    4AU       S 1628   8.128  15.981   6.730
    4AU     LIG 1629   7.751  15.798   6.515
    4AU     LIG 1630   7.477  15.434   6.360
    4AU     LIG 1631   7.187  15.078   6.200
    4AU     LIG 1632   7.025  14.684   5.961
    4AU       S 1633   7.729  15.975   7.506
    4AU     LIG 1634   7.298  15.819   7.575
    4AU     LIG 1635   6.899  15.602   7.621
    4AU     LIG 1636   6.636  15.266   7.498
    4AU     LIG 1637   6.367  14.918   7.451
    4AU    AUSL 1638   8.224  16.252   7.683
    4AU    AUSL 1639   8.471  15.844   7.807
    4AU     AUL 1640   8.137  15.922   7.798
    4AU       S 1641   8.177  15.588   8.173
    4AU     LIG 1642   7.838  15.229   8.186
    4AU     LIG 1643   7.481  14.910   8.270
    4AU     LIG 1644   7.287  14.562   8.529
    4AU     LIG 1645   7.033  14.173   8.637
    4AU       S 1646   7.737  16.202   7.619
    4AU     LIG 1647   7.316  16.268   7.816
    4AU     LIG 1648   6.877  16.088   7.803
    4AU     LIG 1649   6.483  15.819   7.851
    4AU     LIG 1650   6.017  15.904   7.788
    4AU    AUSL 1651   9.018  17.036   7.963
    4AU    AUSL 1652   8.577  17.021   7.798
    4AU     AUL 1653   8.760  17.141   8.177
    4AU       S 1654   8.325  17.337   7.971
    4AU     LIG 1655   8.021  17.570   8.299
    4AU     LIG 1656   7.881  17.795   8.695
    4AU     LIG 1657   7.689  18.176   8.919
    4AU     LIG 1658   7.341  18.493   9.024
    4AU       S 1659   9.024  17.559   8.043
    4AU     LIG 1660   9.167  17.836   8.368
    4AU     LIG 1661   9.065  18.258   8.507
    4AU     LIG 1662   9.093  18.674   8.697
    4AU     LIG 1663   9.089  18.834   9.151
    4AU    AUSL 1664   8.859  17.156   7.650
    4AU    AUSL 1665   9.170  17.184   7.349
    4AU     AUL 1666   8.773  17.409   7.407
    4AU       S 1667   8.857  17.601   7.863
    4AU     LIG 1668   8.871  18.091   8.030
    4AU     LIG 1669   8.831  18.583   8.161
    4AU     LIG 1670   8.760  19.071   8.161
    4AU     LIG 1671   8.388  19.368   8.137
    4AU       S 1672   9.231  17.617   7.229
    4AU     LIG 1673   9.453  17.943   6.989
    4AU     LIG 1674   9.409  18.335   6.732
    4AU     LIG 1675   9.349  18.807   6.675
    4AU     LIG 1676   9.315  19.252   6.837
    4AU    AUSL 1677   9.222  17.135   7.684
    4AU    AUSL 1678   9.304  16.851   8.074
    4AU     AUL 1679   9.365  17.194   8.010
    4AU       S 1680   9.626  17.025   8.424
    4AU     LIG 1681   9.929  17.066   8.784
    4AU     LIG 1682  10.162  17.414   8.995
    4AU     LIG 1683  10.375  17.783   9.193
    4AU     LIG 1684  10.468  18.046   9.573
    4AU       S 1685   9.180  17.594   7.742
    4AU     LIG 1686   9.360  17.990   7.913
    4AU     LIG 1687   9.324  18.429   8.102
    4AU     LIG 1688   9.257  18.900   8.227
    4AU     LIG 1689   9.386  19.376   8.240
    4AU    AUSL 1690   8.963  15.752   7.956
    4AU    AUSL 1691   9.341  15.766   7.793
    4AU     AUL 1692   9.146  15.725   8.243
    4AU       S 1693   9.098  15.260   8.029
    4AU     LIG 1694   9.124  14.859   8.245
    4AU     LIG 1695   8.947  14.442   8.313
    4AU     LIG 1696   8.749  14.063   8.480
    4AU     LIG 1697   8.783  13.795   8.864
    4AU       S 1698   9.565  15.454   7.899
    4AU     LIG 1699   9.779  15.043   7.952
    4AU     LIG 1700   9.912  14.759   8.299
    4AU     LIG 1701  10.214  14.514   8.556
    4AU     LIG 1702  10.352  14.251   8.898
    4AU    AUSL 1703   8.752  15.708   7.679
    4AU    AUSL 1704   8.686  15.932   8.084
    4AU     AUL 1705   8.655  15.568   7.994
    4AU       S 1706   8.918  15.148   7.815
    4AU     LIG 1707   8.755  14.718   7.909
    4AU     LIG 1708   8.494  14.338   8.086
    4AU     LIG 1709   8.321  13.892   8.201
    4AU     LIG 1710   8.193  13.415   8.212
    4AU       S 1711   8.370  15.682   8.414
    4AU     LIG 1712   7.993  15.434   8.630
    4AU     LIG 1713   7.727  15.029   8.707
    4AU     LIG 1714   7.471  14.727   8.988
    4AU     LIG 1715   7.324  14.693   9.433
    4AU    AUSL 1716   9.067  15.618   7.635
    4AU    AUSL 1717   8.775  15.650   7.334
    4AU     AUL 1718   8.603  15.466   7.586
    4AU       S 1719   8.885  15.175   7.283
    4AU     LIG 1720   8.718  14.750   7.207
    4AU     LIG 1721   8.580  14.368   6.986
    4AU     LIG 1722   8.599  13.951   6.764
    4AU     LIG 1723   8.454  13.484   6.728
    4AU       S 1724   9.148  15.246   7.750
    4AU     LIG 1725   9.334  14.833   7.781
    4AU     LIG 1726   9.373  14.433   8.020
    4AU     LIG 1727   9.460  13.975   8.098
    4AU     LIG 1728   9.519  13.502   8.056
    4AU    AUSL 1729   9.060  17.030   7.004
    4AU    AUSL 1730   9.418  16.946   7.264
    4AU     AUL 1731   9.380  17.170   7.057
    4AU       S 1732   9.127  17.520   6.821
    4AU     LIG 1733   9.270  17.833   6.521
    4AU     LIG 1734   9.115  18.217   6.322
    4AU     LIG 1735   9.183  18.493   5.954
    4AU     LIG 1736   9.410  18.882   5.846
    4AU       S 1737   9.833  17.199   6.871
    4AU     LIG 1738  10.152  17.457   6.627
    4AU     LIG 1739  10.489  17.657   6.358
    4AU     LIG 1740  10.846  17.927   6.182
    4AU     LIG 1741  10.984  18.354   6.027
    4AU    AUSL 1742   8.849  17.096   7.288
    4AU    AUSL 1743   8.748  16.874   6.946
    4AU     AUL 1744   8.737  17.218   6.975
    4AU       S 1745   9.028  17.637   7.045
    4AU     LIG 1746   8.967  18.078   6.854
    4AU     LIG 1747   8.911  18.539   6.711
    4AU     LIG 1748   8.784  19.020   6.689
    4AU     LIG 1749   8.456  19.378   6.640
    4AU       S 1750   8.303  17.142   6.705
    4AU     LIG 1751   8.217  17.256   6.252
    4AU     LIG 1752   8.099  17.554   5.897
    4AU     LIG 1753   7.963  17.890   5.583
    4AU     LIG 1754   8.054  18.122   5.177
    4AU    AUSL 1755   8.939  15.771   7.043
    4AU    AUSL 1756   8.501  15.842   7.212
    4AU     AUL 1757   8.640  15.588   6.986
    4AU       S 1758   8.173  15.673   6.794
    4AU     LIG 1759   7.843  15.312   6.711
    4AU     LIG 1760   7.521  14.948   6.577
    4AU     LIG 1761   7.206  14.586   6.431
    4AU     LIG 1762   7.008  14.148   6.292
    4AU       S 1763   8.953  15.182   7.036
    4AU     LIG 1764   8.961  14.824   6.744
    4AU     LIG 1765   8.893  14.384   6.582
    4AU     LIG 1766   8.933  14.003   6.341
    4AU     LIG 1767   8.981  13.867   5.900
    4AU    AUSL 1768   9.141  15.646   7.308
    4AU    AUSL 1769   9.231  15.932   6.917
    4AU     AUL 1770   9.199  15.601   6.949
    4AU       S 1771   9.190  15.206   7.270
    4AU     LIG 1772   9.234  14.775   7.200
    4AU     LIG 1773   9.303  14.470   6.869
    4AU     LIG 1774   9.254  14.031   6.750
    4AU     LIG 1775   8.993  13.623   6.713
    4AU       S 1776   9.479  15.753   6.565
    4AU     LIG 1777   9.468  15.366   6.334
    4AU     LIG 1778   9.714  15.149   6.017
    4AU     LIG 1779   9.935  14.826   5.776
    4AU     LIG 1780  10.176  14.474   5.598
    5AU     AUC 1781  28.284  40.467   7.506
    5AU     AUC 1782  28.556  40.454   7.344
    5AU     AUC 1783  28.552  40.446   7.671
    5AU     AUC 1784  28.020  40.483   7.337
    5AU     AUC 1785  28.013  40.481   7.671
    5AU     AUC 1786  28.136  40.742   7.504
    5AU     AUC 1787  28.468  40.725   7.511
    5AU     AUC 1788  28.098  40.210   7.503
    5AU     AUC 1789  28.429  40.187   7.500
    5AU     AUC 1790  28.269  40.300   7.773
    5AU     AUC 1791  28.295  40.628   7.775
    5AU     AUC 1792  28.281  40.305   7.237
    5AU     AUC 1793  28.302  40.637   7.238
    5AU     AUC 1794  28.820  40.449   7.195
    5AU     AUC 1795  28.831  40.428   7.505
    5AU     AUC 1796  28.811  40.420   7.827
    5AU     AUC 1797  27.771  40.491   7.162
    5AU     AUC 1798  27.739  40.493   7.499
    5AU     AUC 1799  27.752  40.498   7.831
    5AU     AUC 1800  27.991  41.006   7.504
    5AU     AUC 1801  28.321  41.011   7.508
    5AU     AUC 1802  28.634  40.979   7.518
    5AU     AUC 1803  27.919  39.965   7.500
    5AU     AUC 1804  28.246  39.924   7.488
    5AU     AUC 1805  28.568  39.909   7.498
    5AU     AUC 1806  28.260  40.140   8.033
    5AU     AUC 1807  28.281  40.460   8.058
    5AU     AUC 1808  28.300  40.787   8.027
    5AU     AUC 1809  28.288  40.149   6.982
    5AU     AUC 1810  28.318  40.482   6.962
    5AU     AUC 1811  28.323  40.804   6.975
    5AU     AUC 1812  28.548  40.277   7.943
    5AU     AUC 1813  28.577  40.609   7.953
    5AU     AUC 1814  28.559  40.298   7.069
    5AU     AUC 1815  28.585  40.650   7.076
    5AU     AUC 1816  27.992  40.312   7.960
    5AU     AUC 1817  28.013  40.643   7.949
    5AU     AUC 1818  28.014  40.315   7.066
    5AU     AUC 1819  28.031  40.647   7.053
    5AU     AUC 1820  28.743  40.713   7.352
    5AU     AUC 1821  28.751  40.706   7.685
    5AU     AUC 1822  27.863  40.767   7.323
    5AU     AUC 1823  27.858  40.770   7.674
    5AU     AUC 1824  28.712  40.160   7.336
    5AU     AUC 1825  28.691  40.148   7.669
    5AU     AUC 1826  27.819  40.220   7.333
    5AU     AUC 1827  27.818  40.215   7.677
    5AU     AUC 1828  28.146  40.917   7.774
    5AU     AUC 1829  28.487  40.898   7.784
    5AU     AUC 1830  28.078  40.039   7.782
    5AU     AUC 1831  28.404  40.007   7.763
    5AU     AUC 1832  28.144  40.909   7.221
    5AU     AUC 1833  28.474  40.918   7.234
    5AU     AUC 1834  28.090  40.033   7.225
    5AU     AUC 1835  28.432  40.014   7.222
    5AU    AUSL 1836  28.785  40.383   8.124
    5AU    AUSL 1837  28.522  40.018   8.055
    5AU     AUL 1838  28.760  40.031   8.305
    5AU       S 1839  28.866  39.534   8.158
    5AU     LIG 1840  28.839  39.165   8.417
    5AU     LIG 1841  29.024  38.918   8.777
    5AU     LIG 1842  29.315  38.633   9.006
    5AU     LIG 1843  29.628  38.546   9.339
    5AU       S 1844  29.130  40.358   8.474
    5AU     LIG 1845  29.186  40.599   8.883
    5AU     LIG 1846  29.222  40.449   9.325
    5AU     LIG 1847  29.539  40.283   9.638
    5AU     LIG 1848  29.977  40.323   9.824
    5AU    AUSL 1849  28.464  40.291   8.264
    5AU    AUSL 1850  28.118  40.625   8.277
    5AU     AUL 1851  28.372  40.492   8.550
    5AU       S 1852  28.816  40.285   8.729
    5AU     LIG 1853  28.816  40.140   9.187
    5AU     LIG 1854  28.752  39.902   9.611
    5AU     LIG 1855  28.734  39.826  10.091
    5AU     LIG 1856  28.961  39.850  10.509
    5AU       S 1857  27.904  40.528   8.757
    5AU     LIG 1858  27.698  40.489   9.184
    5AU     LIG 1859  27.639  40.316   9.619
    5AU     LIG 1860  27.511  40.353  10.073
    5AU     LIG 1861  27.526  40.588  10.481
    5AU    AUSL 1862  28.447  40.663   8.225
    5AU    AUSL 1863  28.882  40.694   7.989
    5AU     AUL 1864  28.724  40.628   8.353
    5AU       S 1865  28.449  41.014   8.585
    5AU     LIG 1866  28.779  40.935   8.918
    5AU     LIG 1867  28.996  41.091   9.309
    5AU     LIG 1868  28.903  41.262   9.758
    5AU     LIG 1869  28.799  41.351  10.218
    5AU       S 1870  29.167  40.874   8.305
    5AU     LIG 1871  29.587  40.967   8.416
    5AU     LIG 1872  29.824  41.217   8.718
    5AU     LIG 1873  29.993  41.473   9.073
    5AU     LIG 1874  30.264  41.541   9.460
    5AU    AUSL 1875  28.761  40.514   6.917
    5AU    AUSL 1876  28.630  40.922   6.929
    5AU     AUL 1877  28.832  40.763   6.671
    5AU       S 1878  28.903  40.357   6.360
    5AU     LIG 1879  29.159  40.077   6.108
    5AU     LIG 1880  29.208  40.043   5.642
    5AU     LIG 1881  29.381  40.190   5.231
    5AU     LIG 1882  29.769  40.252   4.963
    5AU       S 1883  29.050  41.207   6.707
    5AU     LIG 1884  29.251  41.259   6.299
    5AU     LIG 1885  29.463  41.543   5.993
    5AU     LIG 1886  29.651  41.749   5.608
    5AU     LIG 1887  29.653  42.170   5.382
    5AU    AUSL 1888  28.535  40.301   6.765
    5AU    AUSL 1889  28.816  40.172   7.026
    5AU     AUL 1890  29.017  40.368   6.841
    5AU       S 1891  29.008  39.900   6.625
    5AU     LIG 1892  29.240  39.593   6.320
    5AU     LIG 1893  29.502  39.187   6.245
    5AU     LIG 1894  29.817  38.860   6.118
    5AU     LIG 1895  30.143  38.813   5.785
    5AU       S 1896  28.701  40.222   6.366
    5AU     LIG 1897  28.698  39.878   6.052
    5AU     LIG 1898  28.724  39.883   5.582
    5AU     LIG 1899  28.941  39.909   5.162
    5AU     LIG 1900  29.027  39.969   4.702
    5AU    AUSL 1901  28.483  40.656   6.741
    5AU    AUSL 1902  28.167  40.314   6.800
    5AU     AUL 1903  28.276  40.454   6.503
    5AU       S 1904  27.763  40.312   6.348
    5AU     LIG 1905  27.679  39.952   6.062
    5AU     LIG 1906  27.670  39.875   5.595
    5AU     LIG 1907  27.492  39.844   5.155
    5AU     LIG 1908  27.425  39.707   4.696
    5AU       S 1909  28.695  40.538   6.242
    5AU     LIG 1910  28.806  40.343   5.835
    5AU     LIG 1911  28.889  40.368   5.379
    5AU     LIG 1912  29.024  40.428   4.937
    5AU     LIG 1913  29.105  40.675   4.552
    5AU    AUSL 1914  27.807  40.534   8.151
    5AU    AUSL 1915  28.023  40.898   8.058
    5AU     AUL 1916  27.910  40.876   8.384
    5AU       S 1917  27.635  40.518   8.650
    5AU     LIG 1918  27.447  40.147   8.888
    5AU     LIG 1919  27.301  40.060   9.336
    5AU     LIG 1920  27.129  40.180   9.766
    5AU     LIG 1921  26.769  40.308  10.055
    5AU       S 1922  27.568  41.234   8.216
    5AU     LIG 1923  27.681  41.465   8.603
    5AU     LIG 1924  27.504  41.695   8.954
    5AU     LIG 1925  27.201  41.987   9.139
    5AU     LIG 1926  26.952  42.083   9.527
    5AU    AUSL 1927  28.105  40.272   8.264
    5AU    AUSL 1928  27.688  40.219   7.964
    5AU     AUL 1929  27.744  40.233   8.265
    5AU       S 1930  27.397  39.883   8.295
    5AU     LIG 1931  26.969  39.735   8.351
    5AU     LIG 1932  26.728  39.380   8.536
    5AU     LIG 1933  26.433  39.033   8.683
    5AU     LIG 1934  26.037  38.815   8.839
    5AU       S 1935  27.934  40.250   8.723
    5AU     LIG 1936  27.895  40.020   9.121
    5AU     LIG 1937  27.730  39.808   9.489
    5AU     LIG 1938  27.532  39.867   9.884
    5AU     LIG 1939  27.330  39.843  10.295
    5AU    AUSL 1940  27.857  40.456   6.837
    5AU    AUSL 1941  27.977  40.041   6.926
    5AU     AUL 1942  28.114  40.093   6.610
    5AU       S 1943  27.587  40.458   6.508
    5AU     LIG 1944  27.286  40.240   6.213
    5AU     LIG 1945  27.237  40.097   5.764
    5AU     LIG 1946  27.067  40.118   5.321
    5AU     LIG 1947  26.671  40.152   5.048
    5AU       S 1948  27.629  39.903   6.600
    5AU     LIG 1949  27.411  39.575   6.317
    5AU     LIG 1950  27.189  39.155   6.259
    5AU     LIG 1951  26.993  38.843   5.969
    5AU     LIG 1952  26.893  38.617   5.564
    5AU    AUSL 1953  28.139  40.663   6.768
    5AU    AUSL 1954  27.737  40.768   6.995
    5AU     AUL 1955  27.909  40.831   6.646
    5AU       S 1956  27.422  40.961   6.707
    5AU     LIG 1957  27.222  41.276   6.401
    5AU     LIG 1958  27.084  41.543   6.043
    5AU     LIG 1959  26.825  41.603   5.647
    5AU     LIG 1960  26.502  41.822   5.387
    5AU       S 1961  27.827  40.536   6.262
    5AU     LIG 1962  27.640  40.411   5.840
    5AU     LIG 1963  27.555  40.338   5.374
    5AU     LIG 1964  27.653  40.516   4.931
    5AU     LIG 1965  27.679  40.838   4.562
    5AU    AUSL 1966  28.945  40.863   7.495
    5AU    AUSL 1967  28.915  40.782   7.119
    5AU     AUL 1968  28.997  41.179   7.407
    5AU       S 1969  29.218  40.989   6.920
    5AU     LIG 1970  29.597  41.031   6.686
    5AU     LIG 1971  29.772  41.262   6.315
    5AU     LIG 1972  29.967  41.468   5.941
    5AU     LIG 1973  30.244  41.511   5.567
    5AU       S 1974  29.455  40.957   7.363
    5AU     LIG 1975  29.911  41.149   7.464
    5AU     LIG 1976  30.371  41.310   7.539
    5AU     LIG 1977  30.754  41.583   7.445
    5AU     LIG 1978  30.893  42.016   7.260
    5AU    AUSL 1979  29.062  40.556   7.337
    5AU    AUSL 1980  28.983  40.248   7.657
    5AU     AUL 1981  29.309  40.320   7.551
    5AU       S 1982  29.454  40.690   7.225
    5AU     LIG 1983  29.889  40.784   7.110
    5AU     LIG 1984  30.331  40.875   7.267
    5AU     LIG 1985  30.766  41.074   7.261
    5AU     LIG 1986  31.210  41.138   7.119
    5AU       S 1987  29.378  39.780   7.653
    5AU     LIG 1988  29.777  39.594   7.815
    5AU     LIG 1989  30.244  39.493   7.797
    5AU     LIG 1990  30.714  39.489   7.729
    5AU     LIG 1991  31.190  39.483   7.730
    5AU    AUSL 1992  29.057  40.587   7.697
    5AU    AUSL 1993  28.798  41.005   7.791
    5AU     AUL 1994  29.134  40.925   7.791
    5AU       S 1995  29.127  41.187   8.218
    5AU     LIG 1996  29.432  41.465   8.464
    5AU     LIG 1997  29.754  41.741   8.682
    5AU     LIG 1998  29.960  42.146   8.859
    5AU     LIG 1999  30.236  42.563   8.806
    5AU       S 2000  29.545  40.763   7.544
    5AU     LIG 2001  29.873  40.808   7.845
    5AU     LIG 2002  30.321  40.859   7.792
    5AU     LIG 2003  30.758  40.995   7.764
    5AU     LIG 2004  31.140  41.208   7.630
    5AU    AUSL 2005  27.694  40.986   7.520
    5AU    AUSL 2006  27.696  40.796   7.945
    5AU     AUL 2007  27.395  40.993   7.727
    5AU       S 2008  27.410  40.953   8.247
    5AU     LIG 2009  27.203  41.273   8.558
    5AU     LIG 2010  27.019  41.610   8.819
    5AU     LIG 2011  26.807  41.663   9.244
    5AU     LIG 2012  26.556  41.757   9.642
    5AU       S 2013  27.525  41.446   7.491
    5AU     LIG 2014  27.123  41.711   7.422
    5AU     LIG 2015  26.641  41.839   7.478
    5AU     LIG 2016  26.163  41.907   7.589
    5AU     LIG 2017  25.754  42.166   7.651
    5AU    AUSL 2018  27.592  40.669   7.289
    5AU    AUSL 2019  27.828  41.061   7.212
    5AU     AUL 2020  27.464  40.974   7.226
    5AU       S 2021  27.218  40.557   6.938
    5AU     LIG 2022  26.749  40.661   7.099
    5AU     LIG 2023  26.413  41.021   7.094
    5AU     LIG 2024  26.005  41.190   6.917
    5AU     LIG 2025  25.629  40.952   6.770
    5AU       S 2026  27.545  41.419   6.978
    5AU     LIG 2027  27.384  41.722   6.642
    5AU     LIG 2028  27.342  41.991   6.260
    5AU     LIG 2029  27.112  42.380   6.132
    5AU     LIG 2030  26.800  42.749   6.180
    5AU    AUSL 2031  27.554  40.663   7.667
    5AU    AUSL 2032  27.503  40.347   7.331
    5AU     AUL 2033  27.285  40.707   7.441
    5AU       S 2034  27.021  40.272   7.362
    5AU     LIG 2035  26.537  40.206   7.329
    5AU     LIG 2036  26.199  39.858   7.283
    5AU     LIG 2037  25.737  39.696   7.284
    5AU     LIG 2038  25.312  39.933   7.237
    5AU       S 2039  27.158  40.597   7.975
    5AU     LIG 2040  26.696  40.750   7.881
    5AU     LIG 2041  26.300  41.027   7.955
    5AU     LIG 2042  25.931  41.228   8.188
    5AU     LIG 2043  25.525  41.009   8.348
    5AU    AUSL 2044  28.887  39.943   7.536
    5AU    AUSL 2045  28.836  40.098   7.930
    5AU     AUL 2046  29.165  40.159   7.883
    5AU       S 2047  29.178  39.637   7.552
    5AU     LIG 2048  29.459  39.260   7.579
    5AU     LIG 2049  29.946  39.146   7.551
    5AU     LIG 2050  30.441  39.067   7.531
    5AU     LIG 2051  30.924  39.028   7.553
    5AU       S 2052  29.087  39.676   8.060
    5AU     LIG 2053  29.326  39.320   8.292
    5AU     LIG 2054  29.506  39.016   8.618
    5AU     LIG 2055  29.714  38.971   9.025
    5AU     LIG 2056  30.076  38.805   9.261
    5AU    AUSL 2057  29.018  40.215   7.314
    5AU    AUSL 2058  28.722  39.871   7.209
    5AU     AUL 2059  29.051  39.936   7.154
    5AU       S 2060  29.452  39.843   7.421
    5AU     LIG 2061  29.813  39.582   7.304
    5AU     LIG 2062  30.278  39.491   7.284
    5AU     LIG 2063  30.743  39.409   7.229
    5AU     LIG 2064  31.194  39.308   7.200
    5AU       S 2065  28.989  39.622   6.766
    5AU     LIG 2066  29.167  39.180   6.650
    5AU     LIG 2067  29.332  38.740   6.468
    5AU     LIG 2068  29.639  38.393   6.274
    5AU     LIG 2069  29.997  38.053   6.240
    5AU    AUSL 2070  27.621  40.041   7.503
    5AU    AUSL 2071  27.687  40.229   7.052
    5AU     AUL 2072  27.436  39.984   7.237
    5AU       S 2073  27.428  40.067   6.732
    5AU     LIG 2074  27.058  39.886   6.521
    5AU     LIG 2075  26.836  39.502   6.397
    5AU     LIG 2076  26.643  39.107   6.250
    5AU     LIG 2077  26.483  38.744   6.000
    5AU       S 2078  27.017  40.041   7.509
    5AU     LIG 2079  26.616  39.783   7.618
    5AU     LIG 2080  26.190  39.552   7.682
    5AU     LIG 2081  25.985  39.226   7.446
    5AU     LIG 2082  25.905  38.783   7.380
    5AU    AUSL 2083  27.516  40.328   7.684
    5AU    AUSL 2084  27.766  39.909   7.802
    5AU     AUL 2085  27.430  39.997   7.798
    5AU       S 2086  27.476  39.646   8.162
    5AU     LIG 2087  27.149  39.273   8.213
    5AU     LIG 2088  26.822  38.917   8.321
    5AU     LIG 2089  26.571  38.563   8.513
    5AU     LIG 2090  26.439  38.443   8.937
    5AU       S 2091  27.033  40.278   7.615
    5AU     LIG 2092  26.635  40.245   7.836
    5AU     LIG 2093  26.219  40.036   7.843
    5AU     LIG 2094  25.763  39.941   7.732
    5AU     LIG 2095  25.280  39.864   7.749
    5AU    AUSL 2096  28.321  41.102   7.966
    5AU    AUSL 2097  27.880  41.089   7.807
    5AU     AUL 2098  28.073  41.194   8.192
    5AU       S 2099  27.652  41.415   7.973
    5AU     LIG 2100  27.365  41.708   8.276
    5AU     LIG 2101  27.298  42.051   8.609
    5AU     LIG 2102  27.039  42.450   8.686
    5AU     LIG 2103  26.634  42.602   8.939
    5AU       S 2104  28.310  41.624   8.053
    5AU     LIG 2105  28.313  41.946   8.396
    5AU     LIG 2106  28.127  42.337   8.541
    5AU     LIG 2107  28.217  42.727   8.756
    5AU     LIG 2108  28.215  43.207   8.833
    5AU    AUSL 2109  28.161  41.222   7.660
    5AU    AUSL 2110  28.468  41.256   7.348
    5AU     AUL 2111  28.067  41.462   7.418
    5AU       S 2112  28.154  41.668   7.862
    5AU     LIG 2113  28.115  42.161   7.974
    5AU     LIG 2114  28.049  42.620   8.134
    5AU     LIG 2115  28.096  43.016   8.366
    5AU     LIG 2116  27.844  43.359   8.496
    5AU       S 2117  28.496  41.707   7.221
    5AU     LIG 2118  28.606  42.103   6.944
    5AU     LIG 2119  28.498  42.544   6.748
    5AU     LIG 2120  28.632  43.017   6.638
    5AU     LIG 2121  28.895  43.434   6.686
    5AU    AUSL 2122  28.523  41.204   7.683
    5AU    AUSL 2123  28.608  40.918   8.075
    5AU     AUL 2124  28.665  41.266   8.008
    5AU       S 2125  28.931  41.089   8.418
    5AU     LIG 2126  29.239  41.111   8.776
    5AU     LIG 2127  29.463  41.435   9.013
    5AU     LIG 2128  29.636  41.841   9.175
    5AU     LIG 2129  29.608  42.202   9.463
    5AU       S 2130  28.470  41.666   7.742
    5AU     LIG 2131  28.612  42.043   7.981
    5AU     LIG 2132  28.524  42.436   8.234
    5AU     LIG 2133  28.591  42.895   8.382
    5AU     LIG 2134  28.790  43.348   8.428
    5AU    AUSL 2135  28.257  39.818   7.955
    5AU    AUSL 2136  28.639  39.830   7.794
    5AU     AUL 2137  28.443  39.785   8.241
    5AU       S 2138  28.396  39.322   8.022
    5AU     LIG 2139  28.400  38.940   8.261
    5AU     LIG 2140  28.166  38.563   8.355
    5AU     LIG 2141  28.151  38.111   8.432
    5AU     LIG 2142  28.407  37.797   8.703
    5AU       S 2143  28.868  39.516   7.904
    5AU     LIG 2144  29.047  39.077   7.946
    5AU     LIG 2145  29.167  38.783   8.304
    5AU     LIG 2146  29.458  38.496   8.527
    5AU     LIG 2147  29.790  38.493   8.844
    5AU    AUSL 2148  28.051  39.781   7.673
    5AU    AUSL 2149  27.978  39.999   8.082
    5AU     AUL 2150  27.953  39.631   7.984
    5AU       S 2151  28.225  39.212   7.797
    5AU     LIG 2152  28.099  38.780   7.867
    5AU     LIG 2153  27.800  38.444   8.014
    5AU     LIG 2154  27.583  38.036   8.092
    5AU     LIG 2155  27.251  37.716   8.026
    5AU       S 2156  27.681  39.749   8.407
    5AU     LIG 2157  27.341  39.504   8.644
    5AU     LIG 2158  27.123  39.094   8.705
    5AU     LIG 2159  26.835  38.793   8.907
    5AU     LIG 2160  26.677  38.655   9.336
    5AU    AUSL 2161  28.365  39.683   7.638
    5AU    AUSL 2162  28.064  39.721   7.328
    5AU     AUL 2163  27.903  39.537   7.592
    5AU       S 2164  28.136  39.235   7.259
    5AU     LIG 2165  27.984  38.779   7.182
    5AU     LIG 2166  27.764  38.361   7.011
    5AU     LIG 2167  27.444  37.957   7.008
    5AU     LIG 2168  27.207  37.560   6.828
    5AU       S 2169  28.465  39.296   7.747
    5AU     LIG 2170  28.618  38.838   7.811
    5AU     LIG 2171  28.607  38.451   8.102
    5AU     LIG 2172  28.628  37.986   8.275
    5AU     LIG 2173  28.638  37.489   8.331
    5AU    AUSL 2174  28.349  41.116   7.014
    5AU    AUSL 2175  28.725  41.025   7.261
    5AU     AUL 2176  28.678  41.267   7.044
    5AU       S 2177  28.387  41.613   6.834
    5AU     LIG 2178  28.320  41.962   6.532
    5AU     LIG 2179  28.135  42.366   6.425
    5AU     LIG 2180  28.318  42.783   6.287
    5AU     LIG 2181  28.537  43.023   5.921
    5AU       S 2182  29.188  41.249   6.950
    5AU     LIG 2183  29.481  41.533   6.664
    5AU     LIG 2184  29.776  41.798   6.360
    5AU     LIG 2185  30.025  42.249   6.324
    5AU     LIG 2186  30.113  42.748   6.331
    5AU    AUSL 2187  28.148  41.153   7.305
    5AU    AUSL 2188  28.042  40.952   6.949
    5AU     AUL 2189  28.035  41.291   7.011
    5AU       S 2190  28.265  41.740   7.060
    5AU     LIG 2191  28.104  42.200   6.938
    5AU     LIG 2192  27.931  42.625   6.821
    5AU     LIG 2193  27.860  43.090   6.714
    5AU     LIG 2194  27.841  43.577   6.696
    5AU       S 2195  27.623  41.245   6.717
    5AU     LIG 2196  27.692  41.466   6.309
    5AU     LIG 2197  27.563  41.670   5.916
    5AU     LIG 2198  27.227  41.931   5.722
    5AU     LIG 2199  27.018  41.954   5.304
    5AU    AUSL 2200  28.240  39.829   7.033
    5AU    AUSL 2201  27.794  39.919   7.210
    5AU     AUL 2202  27.929  39.666   6.983
    5AU       S 2203  27.475  39.773   6.786
    5AU     LIG 2204  27.190  39.411   6.759
    5AU     LIG 2205  26.918  39.033   6.683
    5AU     LIG 2206  26.798  38.644   6.431
    5AU     LIG 2207  26.826  38.354   6.070
    5AU       S 2208  28.233  39.255   7.008
    5AU     LIG 2209  28.346  38.851   6.822
    5AU     LIG 2210  28.240  38.426   6.649
    5AU     LIG 2211  28.181  38.179   6.241
    5AU     LIG 2212  28.209  38.080   5.763
    5AU    AUSL 2213  28.432  39.710   7.311
    5AU    AUSL 2214  28.528  39.993   6.915
    5AU     AUL 2215  28.542  39.647   6.985
    5AU       S 2216  28.416  39.247   7.270
    5AU     LIG 2217  28.491  38.797   7.312
    5AU     LIG 2218  28.616  38.444   7.007
    5AU     LIG 2219  28.669  38.016   6.779
    5AU     LIG 2220  28.767  37.520   6.786
    5AU       S 2221  28.768  39.792   6.565
    5AU     LIG 2222  28.773  39.388   6.346
    5AU     LIG 2223  29.016  39.046   6.165
    5AU     LIG 2224  29.320  38.752   5.957
    5AU     LIG 2225  29.642  38.795   5.629
    6AU     AUC 2226  18.230  23.363   7.508
    6AU     AUC 2227  18.502  23.348   7.348
    6AU     AUC 2228  18.497  23.347   7.675
    6AU     AUC 2229  17.967  23.374   7.338
    6AU     AUC 2230  17.960  23.377   7.673
    6AU     AUC 2231  18.081  23.637   7.501
    6AU     AUC 2232  18.411  23.622   7.510
    6AU     AUC 2233  18.045  23.104   7.508
    6AU     AUC 2234  18.376  23.084   7.507
    6AU     AUC 2235  18.214  23.200   7.778
    6AU     AUC 2236  18.238  23.529   7.775
    6AU     AUC 2237  18.227  23.196   7.242
    6AU     AUC 2238  18.248  23.527   7.237
    6AU     AUC 2239  18.769  23.342   7.202
    6AU     AUC 2240  18.777  23.328   7.510
    6AU     AUC 2241  18.755  23.327   7.832
    6AU     AUC 2242  17.717  23.377   7.164
    6AU     AUC 2243  17.687  23.383   7.501
    6AU     AUC 2244  17.701  23.395   7.834
    6AU     AUC 2245  17.935  23.902   7.492
    6AU     AUC 2246  18.262  23.909   7.498
    6AU     AUC 2247  18.575  23.878   7.518
    6AU     AUC 2248  17.866  22.860   7.507
    6AU     AUC 2249  18.192  22.819   7.498
    6AU     AUC 2250  18.515  22.807   7.511
    6AU     AUC 2251  18.204  23.044   8.042
    6AU     AUC 2252  18.224  23.364   8.061
    6AU     AUC 2253  18.243  23.692   8.025
    6AU     AUC 2254  18.234  23.034   6.989
    6AU     AUC 2255  18.267  23.368   6.963
    6AU     AUC 2256  18.273  23.686   6.970
    6AU     AUC 2257  18.492  23.183   7.949
    6AU     AUC 2258  18.520  23.515   7.954
    6AU     AUC 2259  18.504  23.185   7.078
    6AU     AUC 2260  18.534  23.539   7.080
    6AU     AUC 2261  17.938  23.213   7.965
    6AU     AUC 2262  17.958  23.544   7.949
    6AU     AUC 2263  17.961  23.202   7.069
    6AU     AUC 2264  17.979  23.531   7.049
    6AU     AUC 2265  18.688  23.608   7.357
    6AU     AUC 2266  18.693  23.611   7.687
    6AU     AUC 2267  17.808  23.656   7.319
    6AU     AUC 2268  17.804  23.666   7.671
    6AU     AUC 2269  18.660  23.057   7.347
    6AU     AUC 2270  18.638  23.052   7.676
    6AU     AUC 2271  17.766  23.111   7.338
    6AU     AUC 2272  17.767  23.110   7.683
    6AU     AUC 2273  18.089  23.817   7.767
    6AU     AUC 2274  18.428  23.801   7.780
    6AU     AUC 2275  18.025  22.939   7.791
    6AU     AUC 2276  18.351  22.908   7.773
    6AU     AUC 2277  18.090  23.800   7.216
    6AU     AUC 2278  18.417  23.806   7.229
    6AU     AUC 2279  18.037  22.923   7.232
    6AU     AUC 2280  18.375  22.905   7.232
    6AU    AUSL 2281  18.724  23.293   8.132
    6AU    AUSL 2282  18.469  22.923   8.063
    6AU     AUL 2283  18.696  22.942   8.314
    6AU       S 2284  18.838  22.460   8.169
    6AU     LIG 2285  18.904  22.105   8.416
    6AU     LIG 2286  19.042  21.816   8.742
    6AU     LIG 2287  19.308  21.715   9.107
    6AU     LIG 2288  19.458  21.437   9.458
    6AU       S 2289  19.067  23.260   8.493
    6AU     LIG 2290  19.185  23.312   8.961
    6AU     LIG 2291  19.222  23.095   9.379
    6AU     LIG 2292  19.447  22.883   9.726
    6AU     LIG 2293  19.857  22.936   9.931
    6AU    AUSL 2294  18.402  23.197   8.270
    6AU    AUSL 2295  18.064  23.534   8.277
    6AU     AUL 2296  18.316  23.406   8.551
    6AU       S 2297  18.750  23.194   8.736
    6AU     LIG 2298  18.767  23.000   9.154
    6AU     LIG 2299  18.880  22.722   9.520
    6AU     LIG 2300  19.060  22.592   9.931
    6AU     LIG 2301  19.230  22.712  10.353
    6AU       S 2302  17.853  23.440   8.759
    6AU     LIG 2303  17.677  23.430   9.192
    6AU     LIG 2304  17.586  23.257   9.616
    6AU     LIG 2305  17.445  23.333  10.056
    6AU     LIG 2306  17.429  23.645  10.420
    6AU    AUSL 2307  18.393  23.567   8.223
    6AU    AUSL 2308  18.822  23.604   7.995
    6AU     AUL 2309  18.671  23.541   8.361
    6AU       S 2310  18.388  23.926   8.584
    6AU     LIG 2311  18.684  23.917   8.956
    6AU     LIG 2312  18.753  24.010   9.425
    6AU     LIG 2313  18.713  24.065   9.908
    6AU     LIG 2314  18.787  24.046  10.382
    6AU       S 2315  19.104  23.797   8.307
    6AU     LIG 2316  19.518  23.866   8.445
    6AU     LIG 2317  19.756  24.110   8.747
    6AU     LIG 2318  19.930  24.352   9.107
    6AU     LIG 2319  20.080  24.639   9.456
    6AU    AUSL 2320  18.703  23.397   6.933
    6AU    AUSL 2321  18.590  23.800   6.920
    6AU     AUL 2322  18.913  23.593   6.776
    6AU       S 2323  18.824  23.331   6.362
    6AU     LIG 2324  19.170  23.135   6.148
    6AU     LIG 2325  19.273  22.917   5.762
    6AU     LIG 2326  19.392  22.948   5.309
    6AU     LIG 2327  19.567  23.037   4.890
    6AU       S 2328  18.914  24.079   6.647
    6AU     LIG 2329  19.142  24.182   6.248
    6AU     LIG 2330  19.362  24.456   5.928
    6AU     LIG 2331  19.577  24.741   5.613
    6AU     LIG 2332  19.565  25.134   5.343
    6AU    AUSL 2333  18.486  23.183   6.772
    6AU    AUSL 2334  18.760  23.057   7.038
    6AU     AUL 2335  18.961  23.221   6.841
    6AU       S 2336  18.920  22.777   6.610
    6AU     LIG 2337  19.195  22.558   6.285
    6AU     LIG 2338  19.469  22.165   6.221
    6AU     LIG 2339  19.781  21.870   6.028
    6AU     LIG 2340  20.136  21.900   5.704
    6AU       S 2341  18.687  23.147   6.367
    6AU     LIG 2342  18.792  22.811   6.059
    6AU     LIG 2343  18.844  22.684   5.604
    6AU     LIG 2344  18.961  22.727   5.141
    6AU     LIG 2345  19.086  22.826   4.678
    6AU    AUSL 2346  18.436  23.541   6.742
    6AU    AUSL 2347  18.117  23.196   6.802
    6AU     AUL 2348  18.235  23.312   6.502
    6AU       S 2349  17.719  23.196   6.344
    6AU     LIG 2350  17.624  22.847   6.053
    6AU     LIG 2351  17.599  22.812   5.581
    6AU     LIG 2352  17.437  22.803   5.130
    6AU     LIG 2353  17.264  22.686   4.702
    6AU       S 2354  18.649  23.540   6.315
    6AU     LIG 2355  18.747  23.304   5.870
    6AU     LIG 2356  18.937  23.175   5.454
    6AU     LIG 2357  19.062  23.228   5.002
    6AU     LIG 2358  18.951  23.341   4.551
    6AU    AUSL 2359  17.753  23.436   8.153
    6AU    AUSL 2360  17.967  23.801   8.054
    6AU     AUL 2361  17.846  23.780   8.379
    6AU       S 2362  17.589  23.425   8.662
    6AU     LIG 2363  17.385  23.094   8.935
    6AU     LIG 2364  17.188  23.037   9.369
    6AU     LIG 2365  16.917  23.104   9.759
    6AU     LIG 2366  16.655  23.348  10.080
    6AU       S 2367  17.517  24.149   8.200
    6AU     LIG 2368  17.631  24.488   8.526
    6AU     LIG 2369  17.538  24.688   8.933
    6AU     LIG 2370  17.231  24.842   9.238
    6AU     LIG 2371  16.845  25.040   9.372
    6AU    AUSL 2372  18.040  23.181   8.269
    6AU    AUSL 2373  17.640  23.115   7.970
    6AU     AUL 2374  17.665  23.139   8.271
    6AU       S 2375  17.342  22.762   8.308
    6AU     LIG 2376  16.928  22.487   8.365
    6AU     LIG 2377  16.564  22.161   8.462
    6AU     LIG 2378  16.256  21.910   8.725
    6AU     LIG 2379  16.226  21.966   9.183
    6AU       S 2380  17.879  23.156   8.722
    6AU     LIG 2381  17.837  22.944   9.133
    6AU     LIG 2382  17.607  22.759   9.487
    6AU     LIG 2383  17.438  22.822   9.916
    6AU     LIG 2384  17.427  22.614  10.350
    6AU    AUSL 2385  17.806  23.339   6.837
    6AU    AUSL 2386  17.924  22.929   6.934
    6AU     AUL 2387  18.056  22.969   6.617
    6AU       S 2388  17.544  23.332   6.497
    6AU     LIG 2389  17.235  23.145   6.187
    6AU     LIG 2390  17.162  23.049   5.716
    6AU     LIG 2391  16.995  23.042   5.261
    6AU     LIG 2392  16.705  23.069   4.874
    6AU       S 2393  17.567  22.797   6.605
    6AU     LIG 2394  17.363  22.465   6.317
    6AU     LIG 2395  17.090  22.070   6.257
    6AU     LIG 2396  16.881  21.811   5.915
    6AU     LIG 2397  16.916  21.737   5.435
    6AU    AUSL 2398  18.091  23.544   6.756
    6AU    AUSL 2399  17.681  23.647   6.994
    6AU     AUL 2400  17.852  23.713   6.645
    6AU       S 2401  17.358  23.817   6.706
    6AU     LIG 2402  17.056  24.098   6.498
    6AU     LIG 2403  16.975  24.403   6.147
    6AU     LIG 2404  16.683  24.460   5.773
    6AU     LIG 2405  16.276  24.422   5.519
    6AU       S 2406  17.795  23.420   6.253
    6AU     LIG 2407  17.603  23.306   5.823
    6AU     LIG 2408  17.494  23.273   5.347
    6AU     LIG 2409  17.572  23.356   4.864
    6AU     LIG 2410  17.563  23.625   4.443
    6AU    AUSL 2411  18.890  23.771   7.496
    6AU    AUSL 2412  18.866  23.682   7.127
    6AU     AUL 2413  18.935  24.088   7.378
    6AU       S 2414  19.192  23.971   6.923
    6AU     LIG 2415  19.466  23.919   6.569
    6AU     LIG 2416  19.660  24.108   6.189
    6AU     LIG 2417  19.875  24.383   5.864
    6AU     LIG 2418  20.110  24.681   5.575
    6AU       S 2419  19.389  23.849   7.362
    6AU     LIG 2420  19.847  23.949   7.281
    6AU     LIG 2421  20.284  24.068   7.449
    6AU     LIG 2422  20.676  24.288   7.342
    6AU     LIG 2423  20.891  24.643   7.095
    6AU    AUSL 2424  19.006  23.454   7.345
    6AU    AUSL 2425  18.932  23.157   7.658
    6AU     AUL 2426  19.255  23.253   7.580
    6AU       S 2427  19.395  23.594   7.215
    6AU     LIG 2428  19.829  23.419   7.226
    6AU     LIG 2429  20.245  23.606   7.251
    6AU     LIG 2430  20.674  23.765   7.177
    6AU     LIG 2431  21.095  23.517   7.214
    6AU       S 2432  19.371  22.746   7.653
    6AU     LIG 2433  19.856  22.660   7.683
    6AU     LIG 2434  20.286  22.445   7.649
    6AU     LIG 2435  20.746  22.299   7.661
    6AU     LIG 2436  21.069  22.442   7.991
    6AU    AUSL 2437  18.996  23.498   7.703
    6AU    AUSL 2438  18.738  23.911   7.790
    6AU     AUL 2439  19.075  23.833   7.795
    6AU       S 2440  19.063  24.108   8.215
    6AU     LIG 2441  19.383  24.370   8.472
    6AU     LIG 2442  19.697  24.636   8.724
    6AU     LIG 2443  19.930  25.040   8.826
    6AU     LIG 2444  20.086  25.503   8.806
    6AU       S 2445  19.493  23.687   7.547
    6AU     LIG 2446  19.926  23.643   7.686
    6AU     LIG 2447  20.368  23.658   7.749
    6AU     LIG 2448  20.789  23.823   7.676
    6AU     LIG 2449  21.157  24.066   7.855
    6AU    AUSL 2450  17.639  23.877   7.512
    6AU    AUSL 2451  17.643  23.698   7.944
    6AU     AUL 2452  17.337  23.879   7.721
    6AU       S 2453  17.354  23.880   8.240
    6AU     LIG 2454  17.160  24.222   8.537
    6AU     LIG 2455  17.056  24.496   8.889
    6AU     LIG 2456  16.766  24.538   9.242
    6AU     LIG 2457  16.359  24.360   9.416
    6AU       S 2458  17.464  24.326   7.475
    6AU     LIG 2459  17.063  24.492   7.247
    6AU     LIG 2460  16.648  24.742   7.366
    6AU     LIG 2461  16.199  24.938   7.493
    6AU     LIG 2462  15.853  24.816   7.801
    6AU    AUSL 2463  17.537  23.554   7.290
    6AU    AUSL 2464  17.771  23.949   7.200
    6AU     AUL 2465  17.407  23.852   7.225
    6AU       S 2466  17.152  23.437   6.948
    6AU     LIG 2467  16.732  23.709   6.857
    6AU     LIG 2468  16.266  23.838   6.698
    6AU     LIG 2469  15.823  24.046   6.703
    6AU     LIG 2470  15.438  24.066   7.025
    6AU       S 2471  17.481  24.287   6.971
    6AU     LIG 2472  17.227  24.552   6.686
    6AU     LIG 2473  17.147  24.859   6.343
    6AU     LIG 2474  16.963  25.253   6.156
    6AU     LIG 2475  16.617  25.551   6.011
    6AU    AUSL 2476  17.506  23.554   7.669
    6AU    AUSL 2477  17.450  23.233   7.338
    6AU     AUL 2478  17.230  23.593   7.448
    6AU       S 2479  16.980  23.153   7.390
    6AU     LIG 2480  16.540  23.262   7.414
    6AU     LIG 2481  16.181  23.067   7.211
    6AU     LIG 2482  15.729  23.027   7.267
    6AU     LIG 2483  15.364  22.766   7.325
    6AU       S 2484  17.143  23.480   8.009
    6AU     LIG 2485  16.712  23.606   8.018
    6AU     LIG 2486  16.343  23.892   8.112
    6AU     LIG 2487  16.035  24.207   7.962
    6AU     LIG 2488  15.563  24.181   7.973
    6AU    AUSL 2489  18.840  22.847   7.551
    6AU    AUSL 2490  18.780  23.010   7.935
    6AU     AUL 2491  19.104  23.082   7.900
    6AU       S 2492  19.170  22.585   7.592
    6AU     LIG 2493  19.520  22.280   7.544
    6AU     LIG 2494  19.932  22.271   7.323
    6AU     LIG 2495  20.378  22.091   7.293
    6AU     LIG 2496  20.626  21.718   7.446
    6AU       S 2497  19.041  22.605   8.073
    6AU     LIG 2498  19.345  22.370   8.324
    6AU     LIG 2499  19.457  22.115   8.696
    6AU     LIG 2500  19.769  21.903   8.967
    6AU     LIG 2501  20.093  21.940   9.300
    6AU    AUSL 2502  18.974  23.111   7.315
    6AU    AUSL 2503  18.662  22.770   7.228
    6AU     AUL 2504  18.982  22.797   7.168
    6AU       S 2505  19.425  22.806   7.391
    6AU     LIG 2506  19.873  22.864   7.219
    6AU     LIG 2507  20.266  22.623   7.150
    6AU     LIG 2508  20.695  22.507   7.189
    6AU     LIG 2509  20.889  22.102   7.176
    6AU       S 2510  18.910  22.552   6.732
    6AU     LIG 2511  19.107  22.151   6.606
    6AU     LIG 2512  19.308  21.740   6.482
    6AU     LIG 2513  19.591  21.390   6.326
    6AU     LIG 2514  19.867  20.997   6.328
    6AU    AUSL 2515  17.570  22.931   7.512
    6AU    AUSL 2516  17.631  23.118   7.056
    6AU     AUL 2517  17.384  22.867   7.245
    6AU       S 2518  17.366  22.962   6.742
    6AU     LIG 2519  17.006  22.778   6.506
    6AU     LIG 2520  16.738  22.396   6.436
    6AU     LIG 2521  16.550  21.992   6.277
    6AU     LIG 2522  16.242  21.732   6.038
    6AU       S 2523  16.971  22.935   7.526
    6AU     LIG 2524  16.530  22.758   7.465
    6AU     LIG 2525  16.085  22.586   7.429
    6AU     LIG 2526  15.825  22.201   7.540
    6AU     LIG 2527  15.601  21.833   7.336
    6AU    AUSL 2528  17.467  23.219   7.690
    6AU    AUSL 2529  17.718  22.805   7.813
    6AU     AUL 2530  17.385  22.886   7.810
    6AU       S 2531  17.443  22.551   8.183
    6AU     LIG 2532  17.235  22.139   8.151
    6AU     LIG 2533  16.849  21.874   8.147
    6AU     LIG 2534  16.529  21.620   8.380
    6AU     LIG 2535  16.397  21.331   8.738
    6AU       S 2536  16.988  23.170   7.652
    6AU     LIG 2537  16.586  23.072   7.878
    6AU     LIG 2538  16.127  23.002   7.730
    6AU     LIG 2539  15.698  22.782   7.726
    6AU     LIG 2540  15.232  22.797   7.821
    6AU    AUSL 2541  18.257  24.007   7.955
    6AU    AUSL 2542  17.826  23.986   7.798
    6AU     AUL 2543  18.016  24.091   8.192
    6AU       S 2544  17.602  24.315   7.952
    6AU     LIG 2545  17.273  24.596   8.190
    6AU     LIG 2546  17.214  24.864   8.567
    6AU     LIG 2547  16.988  25.141   8.873
    6AU     LIG 2548  16.801  25.583   8.956
    6AU       S 2549  18.232  24.520   8.027
    6AU     LIG 2550  18.133  24.790   8.373
    6AU     LIG 2551  18.052  25.230   8.468
    6AU     LIG 2552  18.083  25.662   8.600
    6AU     LIG 2553  18.227  26.004   8.889
    6AU    AUSL 2554  18.099  24.122   7.640
    6AU    AUSL 2555  18.408  24.149   7.344
    6AU     AUL 2556  18.015  24.375   7.396
    6AU       S 2557  18.059  24.562   7.859
    6AU     LIG 2558  18.033  25.062   7.947
    6AU     LIG 2559  18.010  25.540   8.050
    6AU     LIG 2560  17.865  25.951   8.237
    6AU     LIG 2561  17.794  26.342   8.465
    6AU       S 2562  18.463  24.589   7.210
    6AU     LIG 2563  18.661  24.912   6.937
    6AU     LIG 2564  18.582  25.335   6.751
    6AU     LIG 2565  18.509  25.798   6.657
    6AU     LIG 2566  18.676  26.260   6.720
    6AU    AUSL 2567  18.461  24.106   7.678
    6AU    AUSL 2568  18.544  23.828   8.073
    6AU     AUL 2569  18.600  24.175   8.002
    6AU       S 2570  18.864  24.010   8.415
    6AU     LIG 2571  19.159  24.032   8.780
    6AU     LIG 2572  19.396  24.345   9.031
    6AU     LIG 2573  19.585  24.686   9.295
    6AU     LIG 2574  19.627  24.992   9.655
    6AU       S 2575  18.398  24.573   7.740
    6AU     LIG 2576  18.519  24.948   8.034
    6AU     LIG 2577  18.471  25.394   8.226
    6AU     LIG 2578  18.460  25.883   8.300
    6AU     LIG 2579  18.710  26.319   8.301
    6AU    AUSL 2580  18.204  22.722   7.966
    6AU    AUSL 2581  18.588  22.733   7.804
    6AU     AUL 2582  18.395  22.676   8.244
    6AU       S 2583  18.334  22.209   8.033
    6AU     LIG 2584  18.213  21.765   8.179
    6AU     LIG 2585  18.052  21.350   8.355
    6AU     LIG 2586  18.070  20.911   8.524
    6AU     LIG 2587  18.220  20.487   8.643
    6AU       S 2588  18.818  22.432   7.911
    6AU     LIG 2589  19.140  22.107   7.931
    6AU     LIG 2590  19.323  21.838   8.273
    6AU     LIG 2591  19.502  21.596   8.632
    6AU     LIG 2592  19.698  21.376   8.995
    6AU    AUSL 2593  18.002  22.681   7.680
    6AU    AUSL 2594  17.925  22.901   8.095
    6AU     AUL 2595  17.910  22.532   7.995
    6AU       S 2596  18.154  22.108   7.794
    6AU     LIG 2597  17.974  21.681   7.715
    6AU     LIG 2598  17.803  21.278   7.905
    6AU     LIG 2599  17.756  20.853   8.115
    6AU     LIG 2600  17.755  20.492   8.418
    6AU       S 2601  17.647  22.653   8.424
    6AU     LIG 2602  17.350  22.343   8.635
    6AU     LIG 2603  17.030  22.008   8.617
    6AU     LIG 2604  16.726  21.751   8.839
    6AU     LIG 2605  16.587  21.597   9.239
    6AU    AUSL 2606  18.314  22.580   7.655
    6AU    AUSL 2607  18.007  22.614   7.336
    6AU     AUL 2608  17.841  22.447   7.610
    6AU       S 2609  18.064  22.148   7.269
    6AU     LIG 2610  17.782  21.813   7.237
    6AU     LIG 2611  17.810  21.376   7.113
    6AU     LIG 2612  17.814  20.928   6.954
    6AU     LIG 2613  17.628  20.478   7.008
    6AU       S 2614  18.408  22.205   7.760
    6AU     LIG 2615  18.486  21.731   7.739
    6AU     LIG 2616  18.323  21.306   7.912
    6AU     LIG 2617  18.289  20.835   8.063
    6AU     LIG 2618  18.213  20.361   8.136
    6AU    AUSL 2619  18.297  23.992   7.000
    6AU    AUSL 2620  18.659  23.911   7.263
    6AU     AUL 2621  18.619  24.137   7.060
    6AU       S 2622  18.365  24.472   6.803
    6AU     LIG 2623  18.361  24.836   6.518
    6AU     LIG 2624  18.228  25.260   6.397
    6AU     LIG 2625  18.325  25.643   6.167
    6AU     LIG 2626  18.382  25.792   5.716
    6AU       S 2627  19.081  24.171   6.890
    6AU     LIG 2628  19.385  24.422   6.631
    6AU     LIG 2629  19.680  24.608   6.310
    6AU     LIG 2630  19.900  24.891   6.006
    6AU     LIG 2631  20.137  25.266   5.827
    6AU    AUSL 2632  18.088  24.059   7.282
    6AU    AUSL 2633  17.988  23.827   6.946
    6AU     AUL 2634  17.978  24.170   6.962
    6AU       S 2635  18.256  24.595   7.021
    6AU     LIG 2636  18.163  25.056   6.930
    6AU     LIG 2637  18.087  25.510   6.842
    6AU     LIG 2638  18.025  25.967   6.785
    6AU     LIG 2639  17.980  26.418   6.636
    6AU       S 2640  17.534  24.103   6.714
    6AU     LIG 2641  17.488  24.323   6.300
    6AU     LIG 2642  17.407  24.635   5.959
    6AU     LIG 2643  17.031  24.853   5.822
    6AU     LIG 2644  16.866  25.252   5.636
    6AU    AUSL 2645  18.188  22.710   7.040
    6AU    AUSL 2646  17.739  22.812   7.217
    6AU     AUL 2647  17.867  22.561   6.988
    6AU       S 2648  17.413  22.666   6.790
    6AU     LIG 2649  17.136  22.291   6.748
    6AU     LIG 2650  16.830  21.930   6.704
    6AU     LIG 2651  16.542  21.558   6.586
    6AU     LIG 2652  16.400  21.281   6.238
    6AU       S 2653  18.170  22.152   7.010
    6AU     LIG 2654  18.060  21.752   6.804
    6AU     LIG 2655  17.941  21.352   6.613
    6AU     LIG 2656  18.107  20.940   6.515
    6AU     LIG 2657  18.342  20.656   6.224
    6AU    AUSL 2658  18.372  22.604   7.327
    6AU    AUSL 2659  18.470  22.877   6.928
    6AU     AUL 2660  18.512  22.522   7.024
    6AU       S 2661  18.331  22.123   7.288
    6AU     LIG 2662  18.265  21.637   7.260
    6AU     LIG 2663  18.287  21.213   6.980
    6AU     LIG 2664  18.500  20.784   6.820
    6AU     LIG 2665  18.598  20.372   6.579
    6AU       S 2666  18.644  22.696   6.563
    6AU     LIG 2667  18.730  22.340   6.287
    6AU     LIG 2668  18.996  22.002   6.117
    6AU     LIG 2669  19.302  21.674   5.972
    6AU     LIG 2670  19.455  21.242   5.844
    7AU     AUC 2671  17.382   8.250   7.507
    7AU     AUC 2672  17.655   8.236   7.347
    7AU     AUC 2673  17.648   8.231   7.674
    7AU     AUC 2674  17.120   8.264   7.335
    7AU     AUC 2675  17.112   8.263   7.669
    7AU     AUC 2676  17.233   8.525   7.503
    7AU     AUC 2677  17.564   8.509   7.512
    7AU     AUC 2678  17.198   7.991   7.501
    7AU     AUC 2679  17.528   7.970   7.503
    7AU     AUC 2680  17.365   8.084   7.774
    7AU     AUC 2681  17.390   8.413   7.776
    7AU     AUC 2682  17.380   8.086   7.238
    7AU     AUC 2683  17.401   8.419   7.238
    7AU     AUC 2684  17.923   8.228   7.203
    7AU     AUC 2685  17.930   8.212   7.510
    7AU     AUC 2686  17.905   8.209   7.833
    7AU     AUC 2687  16.872   8.269   7.159
    7AU     AUC 2688  16.839   8.271   7.496
    7AU     AUC 2689  16.854   8.278   7.829
    7AU     AUC 2690  17.086   8.790   7.500
    7AU     AUC 2691  17.414   8.796   7.507
    7AU     AUC 2692  17.729   8.762   7.523
    7AU     AUC 2693  17.017   7.745   7.496
    7AU     AUC 2694  17.345   7.705   7.490
    7AU     AUC 2695  17.667   7.693   7.507
    7AU     AUC 2696  17.349   7.926   8.037
    7AU     AUC 2697  17.370   8.244   8.059
    7AU     AUC 2698  17.395   8.573   8.028
    7AU     AUC 2699  17.390   7.928   6.984
    7AU     AUC 2700  17.422   8.263   6.963
    7AU     AUC 2701  17.425   8.586   6.975
    7AU     AUC 2702  17.639   8.066   7.948
    7AU     AUC 2703  17.671   8.396   7.953
    7AU     AUC 2704  17.659   8.075   7.076
    7AU     AUC 2705  17.686   8.432   7.081
    7AU     AUC 2706  17.090   8.096   7.956
    7AU     AUC 2707  17.111   8.427   7.948
    7AU     AUC 2708  17.115   8.095   7.065
    7AU     AUC 2709  17.133   8.427   7.051
    7AU     AUC 2710  17.842   8.493   7.357
    7AU     AUC 2711  17.845   8.493   7.689
    7AU     AUC 2712  16.962   8.547   7.320
    7AU     AUC 2713  16.955   8.551   7.670
    7AU     AUC 2714  17.814   7.944   7.345
    7AU     AUC 2715  17.789   7.936   7.674
    7AU     AUC 2716  16.918   7.999   7.331
    7AU     AUC 2717  16.919   7.993   7.673
    7AU     AUC 2718  17.240   8.703   7.774
    7AU     AUC 2719  17.580   8.683   7.786
    7AU     AUC 2720  17.176   7.821   7.782
    7AU     AUC 2721  17.502   7.793   7.767
    7AU     AUC 2722  17.242   8.694   7.221
    7AU     AUC 2723  17.569   8.699   7.236
    7AU     AUC 2724  17.190   7.813   7.223
    7AU     AUC 2725  17.527   7.795   7.227
    7AU    AUSL 2726  17.866   8.173   8.135
    7AU    AUSL 2727  17.618   7.809   8.060
    7AU     AUL 2728  17.855   7.819   8.304
    7AU       S 2729  17.965   7.324   8.166
    7AU     LIG 2730  17.973   6.919   8.367
    7AU     LIG 2731  18.168   6.671   8.713
    7AU     LIG 2732  18.463   6.530   9.042
    7AU     LIG 2733  18.730   6.513   9.427
    7AU       S 2734  18.210   8.140   8.503
    7AU     LIG 2735  18.296   8.244   8.970
    7AU     LIG 2736  18.353   8.024   9.389
    7AU     LIG 2737  18.605   7.833   9.735
    7AU     LIG 2738  18.971   7.813  10.019
    7AU    AUSL 2739  17.537   8.073   8.273
    7AU    AUSL 2740  17.221   8.414   8.279
    7AU     AUL 2741  17.472   8.299   8.553
    7AU       S 2742  17.888   8.061   8.734
    7AU     LIG 2743  17.891   7.926   9.167
    7AU     LIG 2744  18.003   7.655   9.530
    7AU     LIG 2745  18.219   7.545   9.927
    7AU     LIG 2746  18.545   7.611  10.257
    7AU       S 2747  17.014   8.299   8.764
    7AU     LIG 2748  16.855   8.313   9.217
    7AU     LIG 2749  16.637   8.238   9.632
    7AU     LIG 2750  16.482   8.304  10.074
    7AU     LIG 2751  16.455   8.564  10.469
    7AU    AUSL 2752  17.548   8.442   8.218
    7AU    AUSL 2753  17.976   8.482   7.998
    7AU     AUL 2754  17.821   8.424   8.365
    7AU       S 2755  17.545   8.818   8.579
    7AU     LIG 2756  17.860   8.746   8.935
    7AU     LIG 2757  18.009   8.846   9.382
    7AU     LIG 2758  17.929   8.942   9.859
    7AU     LIG 2759  17.868   9.052  10.330
    7AU       S 2760  18.264   8.664   8.308
    7AU     LIG 2761  18.688   8.736   8.430
    7AU     LIG 2762  18.975   8.994   8.676
    7AU     LIG 2763  19.170   9.241   9.019
    7AU     LIG 2764  19.275   9.486   9.407
    7AU    AUSL 2765  17.856   8.286   6.937
    7AU    AUSL 2766  17.729   8.706   6.930
    7AU     AUL 2767  17.975   8.515   6.726
    7AU       S 2768  18.002   8.167   6.360
    7AU     LIG 2769  18.326   7.990   6.107
    7AU     LIG 2770  18.376   7.938   5.648
    7AU     LIG 2771  18.502   8.043   5.202
    7AU     LIG 2772  18.874   8.105   4.905
    7AU       S 2773  18.087   8.997   6.675
    7AU     LIG 2774  18.325   9.063   6.290
    7AU     LIG 2775  18.532   9.390   6.038
    7AU     LIG 2776  18.707   9.600   5.670
    7AU     LIG 2777  18.785   9.904   5.329
    7AU    AUSL 2778  17.639   8.080   6.768
    7AU    AUSL 2779  17.923   7.946   7.033
    7AU     AUL 2780  18.117   8.150   6.846
    7AU       S 2781  18.092   7.694   6.621
    7AU     LIG 2782  18.327   7.465   6.273
    7AU     LIG 2783  18.582   7.073   6.161
    7AU     LIG 2784  18.858   6.766   5.950
    7AU     LIG 2785  19.186   6.714   5.626
    7AU       S 2786  17.824   8.030   6.361
    7AU     LIG 2787  17.909   7.709   6.050
    7AU     LIG 2788  17.921   7.711   5.581
    7AU     LIG 2789  18.104   7.696   5.143
    7AU     LIG 2790  18.196   7.440   4.739
    7AU    AUSL 2791  17.593   8.439   6.743
    7AU    AUSL 2792  17.272   8.093   6.799
    7AU     AUL 2793  17.386   8.226   6.504
    7AU       S 2794  16.874   8.095   6.340
    7AU     LIG 2795  16.798   7.747   6.028
    7AU     LIG 2796  16.750   7.640   5.566
    7AU     LIG 2797  16.662   7.708   5.108
    7AU     LIG 2798  16.485   7.798   4.680
    7AU       S 2799  17.804   8.377   6.265
    7AU     LIG 2800  17.927   8.186   5.834
    7AU     LIG 2801  18.020   8.189   5.359
    7AU     LIG 2802  18.147   8.389   4.934
    7AU     LIG 2803  18.191   8.639   4.508
    7AU    AUSL 2804  16.913   8.320   8.151
    7AU    AUSL 2805  17.114   8.683   8.060
    7AU     AUL 2806  17.013   8.660   8.391
    7AU       S 2807  16.771   8.300   8.679
    7AU     LIG 2808  16.564   7.980   8.961
    7AU     LIG 2809  16.327   7.915   9.369
    7AU     LIG 2810  16.138   8.082   9.763
    7AU     LIG 2811  15.937   8.291  10.135
    7AU       S 2812  16.648   8.990   8.222
    7AU     LIG 2813  16.677   9.161   8.655
    7AU     LIG 2814  16.618   9.395   9.038
    7AU     LIG 2815  16.309   9.671   9.227
    7AU     LIG 2816  16.233  10.089   9.429
    7AU    AUSL 2817  17.159   8.064   8.257
    7AU    AUSL 2818  16.809   7.994   7.961
    7AU     AUL 2819  16.731   8.067   8.252
    7AU       S 2820  16.552   7.605   8.290
    7AU     LIG 2821  16.117   7.448   8.258
    7AU     LIG 2822  15.919   7.082   8.394
    7AU     LIG 2823  15.708   6.783   8.647
    7AU     LIG 2824  15.492   6.482   8.929
    7AU       S 2825  17.027   8.013   8.671
    7AU     LIG 2826  17.042   7.847   9.103
    7AU     LIG 2827  16.802   7.769   9.491
    7AU     LIG 2828  16.567   7.788   9.905
    7AU     LIG 2829  16.517   7.523  10.309
    7AU    AUSL 2830  16.962   8.236   6.833
    7AU    AUSL 2831  17.080   7.823   6.926
    7AU     AUL 2832  17.216   7.871   6.610
    7AU       S 2833  16.697   8.236   6.498
    7AU     LIG 2834  16.394   7.992   6.211
    7AU     LIG 2835  16.336   7.893   5.734
    7AU     LIG 2836  16.232   7.959   5.255
    7AU     LIG 2837  16.086   8.118   4.827
    7AU       S 2838  16.728   7.691   6.592
    7AU     LIG 2839  16.502   7.391   6.286
    7AU     LIG 2840  16.285   6.964   6.205
    7AU     LIG 2841  16.066   6.620   5.955
    7AU     LIG 2842  15.854   6.526   5.533
    7AU    AUSL 2843  17.247   8.444   6.765
    7AU    AUSL 2844  16.840   8.544   6.992
    7AU     AUL 2845  17.017   8.612   6.645
    7AU       S 2846  16.524   8.717   6.704
    7AU     LIG 2847  16.201   8.937   6.478
    7AU     LIG 2848  16.082   9.234   6.146
    7AU     LIG 2849  15.872   9.346   5.733
    7AU     LIG 2850  15.465   9.436   5.499
    7AU       S 2851  16.944   8.320   6.258
    7AU     LIG 2852  16.717   8.228   5.862
    7AU     LIG 2853  16.691   8.137   5.411
    7AU     LIG 2854  16.582   8.226   4.962
    7AU     LIG 2855  16.392   8.472   4.593
    7AU    AUSL 2856  18.045   8.652   7.497
    7AU    AUSL 2857  18.018   8.564   7.120
    7AU     AUL 2858  18.097   8.965   7.382
    7AU       S 2859  18.336   8.803   6.919
    7AU     LIG 2860  18.665   8.816   6.615
    7AU     LIG 2861  18.837   8.999   6.229
    7AU     LIG 2862  19.035   9.273   5.908
    7AU     LIG 2863  19.212   9.559   5.569
    7AU       S 2864  18.557   8.734   7.363
    7AU     LIG 2865  19.066   8.817   7.424
    7AU     LIG 2866  19.563   8.890   7.456
    7AU     LIG 2867  19.980   9.112   7.575
    7AU     LIG 2868  20.171   9.511   7.765
    7AU    AUSL 2869  18.161   8.339   7.347
    7AU    AUSL 2870  18.085   8.039   7.659
    7AU     AUL 2871  18.406   8.142   7.603
    7AU       S 2872  18.551   8.463   7.223
    7AU     LIG 2873  19.004   8.331   7.235
    7AU     LIG 2874  19.390   8.544   7.132
    7AU     LIG 2875  19.814   8.678   6.996
    7AU     LIG 2876  20.264   8.621   6.860
    7AU       S 2877  18.528   7.637   7.636
    7AU     LIG 2878  19.012   7.607   7.700
    7AU     LIG 2879  19.489   7.576   7.777
    7AU     LIG 2880  19.962   7.550   7.808
    7AU     LIG 2881  20.392   7.360   7.831
    7AU    AUSL 2882  18.145   8.381   7.705
    7AU    AUSL 2883  17.893   8.789   7.793
    7AU     AUL 2884  18.229   8.714   7.796
    7AU       S 2885  18.224   8.976   8.222
    7AU     LIG 2886  18.536   9.231   8.481
    7AU     LIG 2887  18.852   9.505   8.702
    7AU     LIG 2888  19.203   9.765   8.900
    7AU     LIG 2889  19.534  10.129   8.807
    7AU       S 2890  18.642   8.571   7.543
    7AU     LIG 2891  19.010   8.405   7.744
    7AU     LIG 2892  19.449   8.479   7.755
    7AU     LIG 2893  19.861   8.669   7.821
    7AU     LIG 2894  20.270   8.857   7.944
    7AU    AUSL 2895  16.790   8.763   7.515
    7AU    AUSL 2896  16.792   8.573   7.940
    7AU     AUL 2897  16.488   8.764   7.723
    7AU       S 2898  16.508   8.712   8.244
    7AU     LIG 2899  16.218   8.988   8.508
    7AU     LIG 2900  16.147   9.234   8.906
    7AU     LIG 2901  15.896   9.349   9.297
    7AU     LIG 2902  15.532   9.326   9.615
    7AU       S 2903  16.617   9.211   7.481
    7AU     LIG 2904  16.186   9.327   7.286
    7AU     LIG 2905  15.726   9.495   7.303
    7AU     LIG 2906  15.306   9.731   7.304
    7AU     LIG 2907  15.021  10.030   7.509
    7AU    AUSL 2908  16.691   8.443   7.284
    7AU    AUSL 2909  16.924   8.841   7.206
    7AU     AUL 2910  16.561   8.742   7.225
    7AU       S 2911  16.316   8.334   6.934
    7AU     LIG 2912  15.991   8.728   6.916
    7AU     LIG 2913  15.594   9.041   7.016
    7AU     LIG 2914  15.141   9.265   7.110
    7AU     LIG 2915  14.646   9.324   7.070
    7AU       S 2916  16.619   9.177   6.968
    7AU     LIG 2917  16.353   9.405   6.640
    7AU     LIG 2918  16.347   9.674   6.236
    7AU     LIG 2919  16.247  10.127   6.067
    7AU     LIG 2920  15.964  10.528   6.007
    7AU    AUSL 2921  16.653   8.440   7.661
    7AU    AUSL 2922  16.603   8.122   7.331
    7AU     AUL 2923  16.380   8.478   7.437
    7AU       S 2924  16.124   8.037   7.367
    7AU     LIG 2925  15.645   8.097   7.350
    7AU     LIG 2926  15.183   7.942   7.285
    7AU     LIG 2927  14.747   7.715   7.276
    7AU     LIG 2928  14.445   7.355   7.156
    7AU       S 2929  16.261   8.364   7.973
    7AU     LIG 2930  15.811   8.521   7.929
    7AU     LIG 2931  15.365   8.712   7.956
    7AU     LIG 2932  14.904   8.862   7.920
    7AU     LIG 2933  14.458   9.000   8.008
    7AU    AUSL 2934  17.990   7.729   7.551
    7AU    AUSL 2935  17.929   7.893   7.933
    7AU     AUL 2936  18.252   7.947   7.906
    7AU       S 2937  18.335   7.466   7.590
    7AU     LIG 2938  18.734   7.182   7.588
    7AU     LIG 2939  19.224   7.143   7.542
    7AU     LIG 2940  19.604   6.831   7.500
    7AU     LIG 2941  19.814   6.379   7.486
    7AU       S 2942  18.188   7.467   8.070
    7AU     LIG 2943  18.440   7.176   8.349
    7AU     LIG 2944  18.632   6.896   8.680
    7AU     LIG 2945  18.943   6.699   8.964
    7AU     LIG 2946  19.205   6.734   9.354
    7AU    AUSL 2947  18.127   7.995   7.316
    7AU    AUSL 2948  17.810   7.664   7.225
    7AU     AUL 2949  18.125   7.671   7.173
    7AU       S 2950  18.570   7.707   7.384
    7AU     LIG 2951  18.987   7.802   7.230
    7AU     LIG 2952  19.371   7.571   7.281
    7AU     LIG 2953  19.740   7.334   7.385
    7AU     LIG 2954  20.197   7.403   7.351
    7AU       S 2955  18.069   7.448   6.724
    7AU     LIG 2956  18.255   7.035   6.572
    7AU     LIG 2957  18.453   6.627   6.394
    7AU     LIG 2958  18.744   6.293   6.188
    7AU     LIG 2959  19.125   5.982   6.277
    7AU    AUSL 2960  16.715   7.814   7.504
    7AU    AUSL 2961  16.787   8.010   7.047
    7AU     AUL 2962  16.537   7.763   7.227
    7AU       S 2963  16.527   7.851   6.725
    7AU     LIG 2964  16.144   7.659   6.534
    7AU     LIG 2965  15.926   7.269   6.412
    7AU     LIG 2966  15.729   6.890   6.235
    7AU     LIG 2967  15.537   6.577   5.945
    7AU       S 2968  16.126   7.804   7.514
    7AU     LIG 2969  15.674   7.618   7.520
    7AU     LIG 2970  15.216   7.471   7.486
    7AU     LIG 2971  14.805   7.235   7.518
    7AU     LIG 2972  14.634   6.809   7.618
    7AU    AUSL 2973  16.623   8.105   7.685
    7AU    AUSL 2974  16.867   7.682   7.796
    7AU     AUL 2975  16.532   7.792   7.819
    7AU       S 2976  16.600   7.393   8.132
    7AU     LIG 2977  16.359   6.976   8.124
    7AU     LIG 2978  16.027   6.626   8.173
    7AU     LIG 2979  15.745   6.316   8.406
    7AU     LIG 2980  15.631   6.024   8.741
    7AU       S 2981  16.135   8.046   7.613
    7AU     LIG 2982  15.748   8.011   7.848
    7AU     LIG 2983  15.294   7.899   7.785
    7AU     LIG 2984  14.851   7.697   7.779
    7AU     LIG 2985  14.398   7.551   7.641
    7AU    AUSL 2986  17.412   8.888   7.969
    7AU    AUSL 2987  16.972   8.871   7.804
    7AU     AUL 2988  17.155   8.987   8.186
    7AU       S 2989  16.728   9.190   7.971
    7AU     LIG 2990  16.430   9.434   8.290
    7AU     LIG 2991  16.337   9.667   8.692
    7AU     LIG 2992  16.203  10.078   8.905
    7AU     LIG 2993  16.038  10.536   8.925
    7AU       S 2994  17.420   9.410   8.061
    7AU     LIG 2995  17.543   9.732   8.383
    7AU     LIG 2996  17.431  10.155   8.562
    7AU     LIG 2997  17.374  10.623   8.635
    7AU     LIG 2998  17.219  11.014   8.872
    7AU    AUSL 2999  17.252   9.009   7.657
    7AU    AUSL 3000  17.563   9.036   7.354
    7AU     AUL 3001  17.172   9.267   7.411
    7AU       S 3002  17.246   9.441   7.875
    7AU     LIG 3003  17.260   9.925   8.005
    7AU     LIG 3004  17.215  10.391   8.154
    7AU     LIG 3005  17.155  10.842   8.226
    7AU     LIG 3006  16.940  11.173   8.453
    7AU       S 3007  17.616   9.485   7.222
    7AU     LIG 3008  17.816   9.837   6.974
    7AU     LIG 3009  17.774  10.287   6.804
    7AU     LIG 3010  17.678  10.761   6.686
    7AU     LIG 3011  17.910  11.186   6.566
    7AU    AUSL 3012  17.615   8.986   7.688
    7AU    AUSL 3013  17.700   8.706   8.077
    7AU     AUL 3014  17.763   9.048   8.009
    7AU       S 3015  18.029   8.885   8.422
    7AU     LIG 3016  18.335   8.872   8.785
    7AU     LIG 3017  18.629   9.149   9.021
    7AU     LIG 3018  18.793   9.535   9.218
    7AU     LIG 3019  18.784   9.811   9.585
    7AU       S 3020  17.569   9.446   7.747
    7AU     LIG 3021  17.760   9.822   7.922
    7AU     LIG 3022  17.707  10.236   8.136
    7AU     LIG 3023  17.689  10.714   8.227
    7AU     LIG 3024  17.981  11.102   8.331
    7AU    AUSL 3025  17.358   7.606   7.957
    7AU    AUSL 3026  17.739   7.619   7.803
    7AU     AUL 3027  17.541   7.573   8.246
    7AU       S 3028  17.494   7.107   8.037
    7AU     LIG 3029  17.321   6.740   8.258
    7AU     LIG 3030  17.053   6.365   8.249
    7AU     LIG 3031  17.167   5.944   8.397
    7AU     LIG 3032  17.481   5.692   8.659
    7AU       S 3033  17.972   7.313   7.904
    7AU     LIG 3034  18.248   6.941   7.932
    7AU     LIG 3035  18.435   6.646   8.270
    7AU     LIG 3036  18.677   6.356   8.591
    7AU     LIG 3037  18.960   5.950   8.701
    7AU    AUSL 3038  17.157   7.567   7.668
    7AU    AUSL 3039  17.075   7.778   8.083
    7AU     AUL 3040  17.071   7.417   7.978
    7AU       S 3041  17.311   6.987   7.801
    7AU     LIG 3042  16.881   6.828   7.997
    7AU     LIG 3043  16.560   6.494   8.104
    7AU     LIG 3044  16.602   6.036   8.114
    7AU     LIG 3045  16.352   5.657   8.016
    7AU       S 3046  16.806   7.543   8.401
    7AU     LIG 3047  16.466   7.193   8.579
    7AU     LIG 3048  16.266   6.752   8.604
    7AU     LIG 3049  16.017   6.443   8.853
    7AU     LIG 3050  15.855   6.307   9.268
    7AU    AUSL 3051  17.470   7.462   7.648
    7AU    AUSL 3052  17.158   7.503   7.323
    7AU     AUL 3053  17.007   7.323   7.596
    7AU       S 3054  17.205   7.026   7.236
    7AU     LIG 3055  16.970   6.633   7.120
    7AU     LIG 3056  16.841   6.190   6.976
    7AU     LIG 3057  16.499   5.829   6.920
    7AU     LIG 3058  16.275   5.426   6.750
    7AU       S 3059  17.563   7.088   7.758
    7AU     LIG 3060  17.708   6.658   7.925
    7AU     LIG 3061  17.556   6.240   8.131
    7AU     LIG 3062  17.604   5.757   8.161
    7AU     LIG 3063  17.825   5.329   8.206
    7AU    AUSL 3064  17.448   8.899   7.016
    7AU    AUSL 3065  17.815   8.793   7.269
    7AU     AUL 3066  17.789   9.036   7.083
    7AU       S 3067  17.520   9.359   6.822
    7AU     LIG 3068  17.544   9.719   6.550
    7AU     LIG 3069  17.433  10.149   6.448
    7AU     LIG 3070  17.553  10.462   6.140
    7AU     LIG 3071  17.600  10.841   5.870
    7AU       S 3072  18.260   9.034   6.907
    7AU     LIG 3073  18.561   9.316   6.667
    7AU     LIG 3074  18.897   9.490   6.378
    7AU     LIG 3075  19.101   9.771   6.050
    7AU     LIG 3076  19.465  10.101   6.015
    7AU    AUSL 3077  17.239   8.950   7.299
    7AU    AUSL 3078  17.143   8.732   6.948
    7AU     AUL 3079  17.121   9.078   6.991
    7AU       S 3080  17.413   9.496   7.039
    7AU     LIG 3081  17.324   9.976   6.940
    7AU     LIG 3082  17.292  10.454   6.872
    7AU     LIG 3083  17.134  10.849   6.661
    7AU     LIG 3084  16.959  11.300   6.654
    7AU       S 3085  16.697   9.001   6.708
    7AU     LIG 3086  16.614   9.169   6.268
    7AU     LIG 3087  16.485   9.318   5.843
    7AU     LIG 3088  16.288   9.580   5.526
    7AU     LIG 3089  16.281   9.978   5.292
    7AU    AUSL 3090  17.345   7.603   7.030
    7AU    AUSL 3091  16.892   7.702   7.206
    7AU     AUL 3092  17.026   7.455   6.974
    7AU       S 3093  16.571   7.550   6.777
    7AU     LIG 3094  16.324   7.147   6.712
    7AU     LIG 3095  16.051   6.753   6.614
    7AU     LIG 3096  15.831   6.383   6.375
    7AU     LIG 3097  15.428   6.156   6.233
    7AU       S 3098  17.332   7.046   6.984
    7AU     LIG 3099  17.308   6.642   6.733
    7AU     LIG 3100  17.162   6.234   6.547
    7AU     LIG 3101  17.196   5.923   6.176
    7AU     LIG 3102  17.393   5.691   5.791
    7AU    AUSL 3103  17.522   7.491   7.319
    7AU    AUSL 3104  17.628   7.772   6.922
    7AU     AUL 3105  17.672   7.417   7.019
    7AU       S 3106  17.477   7.024   7.280
    7AU     LIG 3107  17.474   6.554   7.211
    7AU     LIG 3108  17.499   6.137   6.952
    7AU     LIG 3109  17.758   5.708   6.859
    7AU     LIG 3110  17.883   5.309   6.590
    7AU       S 3111  17.816   7.590   6.563
    7AU     LIG 3112  17.867   7.237   6.282
    7AU     LIG 3113  18.106   6.896   6.087
    7AU     LIG 3114  18.384   6.583   5.881
    7AU     LIG 3115  18.711   6.394   5.607
    8AU     AUC 3116   2.375   6.698   7.506
    8AU     AUC 3117   2.647   6.684   7.346
    8AU     AUC 3118   2.640   6.679   7.676
    8AU     AUC 3119   2.111   6.722   7.337
    8AU     AUC 3120   2.103   6.713   7.668
    8AU     AUC 3121   2.227   6.976   7.507
    8AU     AUC 3122   2.556   6.955   7.515
    8AU     AUC 3123   2.196   6.440   7.497
    8AU     AUC 3124   2.528   6.417   7.503
    8AU     AUC 3125   2.358   6.528   7.769
    8AU     AUC 3126   2.382   6.860   7.776
    8AU     AUC 3127   2.375   6.536   7.235
    8AU     AUC 3128   2.389   6.864   7.237
    8AU     AUC 3129   2.914   6.684   7.191
    8AU     AUC 3130   2.914   6.663   7.511
    8AU     AUC 3131   2.891   6.659   7.844
    8AU     AUC 3132   1.853   6.746   7.173
    8AU     AUC 3133   1.829   6.739   7.500
    8AU     AUC 3134   1.841   6.725   7.828
    8AU     AUC 3135   2.089   7.243   7.509
    8AU     AUC 3136   2.417   7.242   7.509
    8AU     AUC 3137   2.729   7.209   7.524
    8AU     AUC 3138   2.021   6.190   7.479
    8AU     AUC 3139   2.347   6.145   7.495
    8AU     AUC 3140   2.682   6.150   7.505
    8AU     AUC 3141   2.340   6.368   8.023
    8AU     AUC 3142   2.352   6.696   8.049
    8AU     AUC 3143   2.387   7.019   8.033
    8AU     AUC 3144   2.388   6.383   6.972
    8AU     AUC 3145   2.396   6.698   6.956
    8AU     AUC 3146   2.405   7.019   6.974
    8AU     AUC 3147   2.634   6.505   7.938
    8AU     AUC 3148   2.655   6.842   7.966
    8AU     AUC 3149   2.660   6.532   7.067
    8AU     AUC 3150   2.670   6.860   7.079
    8AU     AUC 3151   2.075   6.539   7.945
    8AU     AUC 3152   2.099   6.872   7.950
    8AU     AUC 3153   2.106   6.560   7.063
    8AU     AUC 3154   2.111   6.888   7.055
    8AU     AUC 3155   2.836   6.940   7.367
    8AU     AUC 3156   2.825   6.946   7.700
    8AU     AUC 3157   1.954   7.014   7.333
    8AU     AUC 3158   1.949   7.006   7.682
    8AU     AUC 3159   2.811   6.399   7.334
    8AU     AUC 3160   2.806   6.388   7.667
    8AU     AUC 3161   1.921   6.463   7.331
    8AU     AUC 3162   1.906   6.448   7.650
    8AU     AUC 3163   2.238   7.148   7.777
    8AU     AUC 3164   2.573   7.131   7.791
    8AU     AUC 3165   2.173   6.258   7.761
    8AU     AUC 3166   2.520   6.238   7.774
    8AU     AUC 3167   2.237   7.142   7.223
    8AU     AUC 3168   2.566   7.136   7.239
    8AU     AUC 3169   2.199   6.263   7.227
    8AU     AUC 3170   2.530   6.250   7.223
    8AU    AUSL 3171   2.830   6.605   8.160
    8AU    AUSL 3172   2.635   6.229   8.075
    8AU     AUL 3173   2.580   6.284   8.425
    8AU       S 3174   2.992   5.978   8.350
    8AU     LIG 3175   3.059   5.545   8.519
    8AU     LIG 3176   3.174   5.138   8.712
    8AU     LIG 3177   3.459   4.897   8.983
    8AU     LIG 3178   3.657   4.890   9.400
    8AU       S 3179   3.214   6.555   8.405
    8AU     LIG 3180   3.284   6.841   8.794
    8AU     LIG 3181   3.395   6.786   9.248
    8AU     LIG 3182   3.615   6.557   9.613
    8AU     LIG 3183   3.935   6.383   9.932
    8AU    AUSL 3184   2.503   6.537   8.210
    8AU    AUSL 3185   2.207   6.847   8.282
    8AU     AUL 3186   2.479   6.673   8.542
    8AU       S 3187   3.007   6.429   8.622
    8AU     LIG 3188   2.862   6.285   9.052
    8AU     LIG 3189   2.835   6.077   9.485
    8AU     LIG 3190   2.897   6.026   9.958
    8AU     LIG 3191   2.890   6.152  10.424
    8AU       S 3192   2.025   6.760   8.765
    8AU     LIG 3193   1.801   6.736   9.194
    8AU     LIG 3194   1.729   6.599   9.644
    8AU     LIG 3195   1.643   6.644  10.099
    8AU     LIG 3196   1.788   6.862  10.500
    8AU    AUSL 3197   2.533   6.900   8.239
    8AU    AUSL 3198   2.950   6.923   8.030
    8AU     AUL 3199   2.801   6.848   8.404
    8AU       S 3200   2.508   7.213   8.621
    8AU     LIG 3201   2.852   7.120   8.945
    8AU     LIG 3202   3.104   7.208   9.339
    8AU     LIG 3203   3.134   7.211   9.833
    8AU     LIG 3204   3.225   7.321  10.303
    8AU       S 3205   3.225   7.116   8.340
    8AU     LIG 3206   3.629   7.145   8.522
    8AU     LIG 3207   3.932   7.421   8.720
    8AU     LIG 3208   4.128   7.676   9.045
    8AU     LIG 3209   4.274   7.831   9.462
    8AU    AUSL 3210   2.854   6.793   6.879
    8AU    AUSL 3211   2.713   7.109   6.949
    8AU     AUL 3212   2.640   7.154   6.640
    8AU       S 3213   3.020   6.825   6.435
    8AU     LIG 3214   3.332   6.632   6.146
    8AU     LIG 3215   3.362   6.413   5.745
    8AU     LIG 3216   3.488   6.448   5.302
    8AU     LIG 3217   3.585   6.438   4.851
    8AU       S 3218   3.144   7.242   6.679
    8AU     LIG 3219   3.270   7.429   6.263
    8AU     LIG 3220   3.447   7.749   5.948
    8AU     LIG 3221   3.631   8.075   5.642
    8AU     LIG 3222   3.843   8.381   5.346
    8AU    AUSL 3223   2.666   6.517   6.792
    8AU    AUSL 3224   2.914   6.399   7.023
    8AU     AUL 3225   3.124   6.580   6.871
    8AU       S 3226   3.100   6.136   6.616
    8AU     LIG 3227   3.365   5.866   6.302
    8AU     LIG 3228   3.601   5.459   6.175
    8AU     LIG 3229   3.867   5.221   5.861
    8AU     LIG 3230   4.150   5.072   5.523
    8AU       S 3231   2.904   6.531   6.385
    8AU     LIG 3232   3.015   6.192   6.083
    8AU     LIG 3233   2.977   6.096   5.608
    8AU     LIG 3234   3.105   6.152   5.142
    8AU     LIG 3235   3.113   6.226   4.673
    8AU    AUSL 3236   2.538   6.824   6.736
    8AU    AUSL 3237   2.210   6.544   6.760
    8AU     AUL 3238   2.436   6.432   6.555
    8AU       S 3239   2.041   6.608   6.288
    8AU     LIG 3240   1.873   6.370   5.921
    8AU     LIG 3241   1.782   6.204   5.505
    8AU     LIG 3242   1.644   6.288   5.077
    8AU     LIG 3243   1.584   6.229   4.610
    8AU       S 3244   2.739   6.782   6.297
    8AU     LIG 3245   2.891   6.640   5.866
    8AU     LIG 3246   2.996   6.585   5.409
    8AU     LIG 3247   3.130   6.666   4.962
    8AU     LIG 3248   3.072   6.966   4.590
    8AU    AUSL 3249   1.894   6.750   8.146
    8AU    AUSL 3250   2.119   7.122   8.065
    8AU     AUL 3251   1.981   7.089   8.376
    8AU       S 3252   1.754   6.733   8.665
    8AU     LIG 3253   1.517   6.420   8.900
    8AU     LIG 3254   1.393   6.364   9.342
    8AU     LIG 3255   1.210   6.486   9.767
    8AU     LIG 3256   0.782   6.594   9.981
    8AU       S 3257   1.670   7.472   8.218
    8AU     LIG 3258   1.812   7.798   8.519
    8AU     LIG 3259   1.651   7.931   8.927
    8AU     LIG 3260   1.282   8.090   9.158
    8AU     LIG 3261   1.113   8.046   9.600
    8AU    AUSL 3262   2.152   6.501   8.257
    8AU    AUSL 3263   1.778   6.432   7.938
    8AU     AUL 3264   1.747   6.462   8.254
    8AU       S 3265   1.502   6.022   8.217
    8AU     LIG 3266   1.131   5.755   8.310
    8AU     LIG 3267   1.013   5.490   8.658
    8AU     LIG 3268   0.668   5.382   8.916
    8AU     LIG 3269   0.311   5.259   9.191
    8AU       S 3270   2.008   6.468   8.693
    8AU     LIG 3271   1.957   6.256   9.116
    8AU     LIG 3272   1.793   6.098   9.528
    8AU     LIG 3273   1.575   6.149   9.939
    8AU     LIG 3274   1.542   6.019  10.402
    8AU    AUSL 3275   1.903   6.723   6.857
    8AU    AUSL 3276   2.092   6.284   6.956
    8AU     AUL 3277   1.861   6.367   6.711
    8AU       S 3278   1.790   6.722   6.348
    8AU     LIG 3279   1.463   6.665   6.031
    8AU     LIG 3280   1.377   6.518   5.593
    8AU     LIG 3281   1.203   6.554   5.148
    8AU     LIG 3282   0.812   6.495   4.856
    8AU       S 3283   1.589   5.932   6.823
    8AU     LIG 3284   1.359   5.628   6.571
    8AU     LIG 3285   1.219   5.285   6.301
    8AU     LIG 3286   1.059   4.987   5.990
    8AU     LIG 3287   0.823   4.783   5.644
    8AU    AUSL 3288   2.212   6.902   6.760
    8AU    AUSL 3289   1.808   7.031   7.023
    8AU     AUL 3290   1.923   7.066   6.680
    8AU       S 3291   1.479   7.288   6.747
    8AU     LIG 3292   1.455   7.213   6.272
    8AU     LIG 3293   1.291   7.500   5.919
    8AU     LIG 3294   0.934   7.726   5.684
    8AU     LIG 3295   0.497   7.864   5.560
    8AU       S 3296   2.161   6.858   6.283
    8AU     LIG 3297   1.904   6.878   5.859
    8AU     LIG 3298   1.807   6.718   5.409
    8AU     LIG 3299   1.684   6.791   4.951
    8AU     LIG 3300   1.784   7.071   4.574
    8AU    AUSL 3301   3.042   7.118   7.506
    8AU    AUSL 3302   3.014   6.983   7.139
    8AU     AUL 3303   3.102   7.415   7.350
    8AU       S 3304   3.319   7.092   6.896
    8AU     LIG 3305   3.615   7.132   6.523
    8AU     LIG 3306   3.794   7.444   6.206
    8AU     LIG 3307   3.968   7.762   5.897
    8AU     LIG 3308   4.133   7.979   5.509
    8AU       S 3309   3.550   7.169   7.363
    8AU     LIG 3310   4.044   7.302   7.444
    8AU     LIG 3311   4.516   7.515   7.497
    8AU     LIG 3312   4.735   7.956   7.616
    8AU     LIG 3313   5.035   8.325   7.746
    8AU    AUSL 3314   3.158   6.786   7.396
    8AU    AUSL 3315   3.102   6.504   7.646
    8AU     AUL 3316   3.358   6.660   7.819
    8AU       S 3317   3.533   6.868   7.290
    8AU     LIG 3318   3.989   6.864   7.166
    8AU     LIG 3319   4.440   7.049   7.215
    8AU     LIG 3320   4.759   7.353   7.057
    8AU     LIG 3321   5.228   7.386   7.093
    8AU       S 3322   3.623   6.404   7.469
    8AU     LIG 3323   3.938   6.203   7.734
    8AU     LIG 3324   4.205   5.835   7.727
    8AU     LIG 3325   4.606   5.628   7.701
    8AU     LIG 3326   5.061   5.698   7.689
    8AU    AUSL 3327   3.084   6.847   7.721
    8AU    AUSL 3328   2.887   7.231   7.807
    8AU     AUL 3329   3.230   7.139   7.822
    8AU       S 3330   3.200   7.414   8.245
    8AU     LIG 3331   3.535   7.662   8.481
    8AU     LIG 3332   3.839   7.957   8.709
    8AU     LIG 3333   4.060   8.383   8.757
    8AU     LIG 3334   4.314   8.785   8.641
    8AU       S 3335   3.629   6.972   7.537
    8AU     LIG 3336   4.034   6.828   7.671
    8AU     LIG 3337   4.429   7.052   7.733
    8AU     LIG 3338   4.800   7.135   7.978
    8AU     LIG 3339   5.228   7.286   7.948
    8AU    AUSL 3340   1.796   7.234   7.537
    8AU    AUSL 3341   1.789   7.029   7.956
    8AU     AUL 3342   1.491   7.227   7.738
    8AU       S 3343   1.491   7.199   8.254
    8AU     LIG 3344   1.369   7.531   8.605
    8AU     LIG 3345   1.204   7.608   9.020
    8AU     LIG 3346   0.844   7.780   9.251
    8AU     LIG 3347   0.499   7.849   9.560
    8AU       S 3348   1.634   7.697   7.536
    8AU     LIG 3349   1.291   8.000   7.373
    8AU     LIG 3350   0.821   8.144   7.404
    8AU     LIG 3351   0.348   8.245   7.524
    8AU     LIG 3352   0.021   8.444   7.823
    8AU    AUSL 3353   1.671   6.948   7.320
    8AU    AUSL 3354   1.929   7.316   7.225
    8AU     AUL 3355   1.553   7.247   7.264
    8AU       S 3356   1.223   6.942   6.986
    8AU     LIG 3357   0.821   7.250   6.955
    8AU     LIG 3358   0.375   7.507   6.958
    8AU     LIG 3359  44.901   7.709   6.955
    8AU     LIG 3360  44.424   7.849   6.924
    8AU       S 3361   1.670   7.689   7.035
    8AU     LIG 3362   1.660   8.041   6.761
    8AU     LIG 3363   1.445   8.321   6.484
    8AU     LIG 3364   1.187   8.628   6.244
    8AU     LIG 3365   0.951   8.799   5.870
    8AU    AUSL 3366   1.642   6.893   7.684
    8AU    AUSL 3367   1.595   6.625   7.324
    8AU     AUL 3368   1.359   6.942   7.476
    8AU       S 3369   1.128   6.477   7.370
    8AU     LIG 3370   0.677   6.466   7.221
    8AU     LIG 3371   0.227   6.285   7.237
    8AU     LIG 3372  44.868   5.961   7.260
    8AU     LIG 3373  44.430   5.900   7.137
    8AU       S 3374   1.256   6.808   7.984
    8AU     LIG 3375   0.770   6.911   7.925
    8AU     LIG 3376   0.320   7.145   7.948
    8AU     LIG 3377  44.912   7.442   7.984
    8AU     LIG 3378  44.421   7.533   7.943
    8AU    AUSL 3379   3.013   6.186   7.508
    8AU    AUSL 3380   2.943   6.371   7.939
    8AU     AUL 3381   3.259   6.261   7.810
    8AU       S 3382   3.536   6.096   7.432
    8AU     LIG 3383   3.732   5.720   7.566
    8AU     LIG 3384   4.061   5.428   7.427
    8AU     LIG 3385   4.483   5.244   7.370
    8AU     LIG 3386   4.892   5.208   7.578
    8AU       S 3387   3.167   6.085   8.267
    8AU     LIG 3388   3.498   5.790   8.435
    8AU     LIG 3389   3.609   5.416   8.714
    8AU     LIG 3390   3.880   5.197   9.031
    8AU     LIG 3391   4.162   4.910   9.264
    8AU    AUSL 3392   3.113   6.463   7.293
    8AU    AUSL 3393   2.809   6.116   7.216
    8AU     AUL 3394   3.123   6.108   7.161
    8AU       S 3395   3.564   6.369   7.227
    8AU     LIG 3396   3.993   6.061   7.242
    8AU     LIG 3397   4.393   5.779   7.245
    8AU     LIG 3398   4.832   5.598   7.229
    8AU     LIG 3399   5.279   5.525   7.174
    8AU       S 3400   3.042   5.898   6.710
    8AU     LIG 3401   3.190   5.483   6.598
    8AU     LIG 3402   3.378   5.092   6.472
    8AU     LIG 3403   3.703   4.900   6.234
    8AU     LIG 3404   4.134   4.827   6.076
    8AU    AUSL 3405   1.686   6.305   7.424
    8AU    AUSL 3406   1.809   6.451   7.082
    8AU     AUL 3407   1.510   6.495   7.025
    8AU       S 3408   1.458   6.002   7.003
    8AU     LIG 3409   1.048   5.829   6.952
    8AU     LIG 3410   0.845   5.551   6.625
    8AU     LIG 3411   0.709   5.306   6.247
    8AU     LIG 3412   0.658   5.259   5.785
    8AU       S 3413   1.200   6.224   7.372
    8AU     LIG 3414   0.785   6.008   7.419
    8AU     LIG 3415   0.335   5.851   7.495
    8AU     LIG 3416   0.000   5.516   7.512
    8AU     LIG 3417  44.752   5.227   7.787
    8AU    AUSL 3418   1.608   6.556   7.667
    8AU    AUSL 3419   1.867   6.145   7.724
    8AU     AUL 3420   1.538   6.216   7.752
    8AU       S 3421   1.576   5.797   8.050
    8AU     LIG 3422   1.383   5.364   8.060
    8AU     LIG 3423   0.986   5.227   8.214
    8AU     LIG 3424   0.810   5.002   8.577
    8AU     LIG 3425   0.600   4.880   8.983
    8AU       S 3426   1.129   6.467   7.589
    8AU     LIG 3427   0.685   6.420   7.731
    8AU     LIG 3428   0.227   6.291   7.751
    8AU     LIG 3429  44.855   6.002   7.770
    8AU     LIG 3430  44.428   6.017   7.990
    8AU    AUSL 3431   2.405   7.338   7.966
    8AU    AUSL 3432   1.983   7.323   7.823
    8AU     AUL 3433   2.175   7.403   8.221
    8AU       S 3434   1.772   7.655   8.000
    8AU     LIG 3435   1.417   7.910   8.218
    8AU     LIG 3436   1.359   8.187   8.607
    8AU     LIG 3437   1.149   8.522   8.887
    8AU     LIG 3438   0.950   8.949   8.931
    8AU       S 3439   2.381   7.835   8.046
    8AU     LIG 3440   2.347   8.002   8.453
    8AU     LIG 3441   2.444   8.439   8.511
    8AU     LIG 3442   2.552   8.868   8.561
    8AU     LIG 3443   2.443   9.131   8.916
    8AU    AUSL 3444   2.252   7.453   7.655
    8AU    AUSL 3445   2.580   7.478   7.342
    8AU     AUL 3446   2.173   7.697   7.406
    8AU       S 3447   2.218   7.873   7.875
    8AU     LIG 3448   2.201   8.307   8.084
    8AU     LIG 3449   2.396   8.730   8.078
    8AU     LIG 3450   2.261   9.155   8.216
    8AU     LIG 3451   1.916   9.493   8.126
    8AU       S 3452   2.645   7.888   7.251
    8AU     LIG 3453   2.936   8.225   7.164
    8AU     LIG 3454   3.006   8.597   6.900
    8AU     LIG 3455   2.928   9.041   6.917
    8AU     LIG 3456   3.042   9.416   6.661
    8AU    AUSL 3457   2.614   7.434   7.684
    8AU    AUSL 3458   2.684   7.160   8.088
    8AU     AUL 3459   2.758   7.504   8.002
    8AU       S 3460   2.978   7.330   8.439
    8AU     LIG 3461   3.272   7.373   8.811
    8AU     LIG 3462   3.582   7.641   9.031
    8AU     LIG 3463   3.793   7.985   9.282
    8AU     LIG 3464   3.932   8.121   9.723
    8AU       S 3465   2.542   7.901   7.754
    8AU     LIG 3466   2.688   8.304   7.943
    8AU     LIG 3467   2.877   8.633   8.228
    8AU     LIG 3468   2.926   9.100   8.281
    8AU     LIG 3469   3.198   9.490   8.202
    8AU    AUSL 3470   2.335   6.065   7.967
    8AU    AUSL 3471   2.813   6.077   7.784
    8AU     AUL 3472   2.610   5.866   8.040
    8AU       S 3473   2.215   5.535   8.127
    8AU     LIG 3474   1.862   5.250   8.246
    8AU     LIG 3475   1.864   4.820   8.421
    8AU     LIG 3476   2.007   4.392   8.524
    8AU     LIG 3477   2.182   3.984   8.643
    8AU       S 3478   3.114   5.834   8.061
    8AU     LIG 3479   3.333   5.437   8.090
    8AU     LIG 3480   3.508   5.090   8.324
    8AU     LIG 3481   3.808   4.907   8.609
    8AU     LIG 3482   4.039   4.580   8.835
    8AU    AUSL 3483   2.153   5.946   7.644
    8AU    AUSL 3484   2.047   6.243   8.063
    8AU     AUL 3485   2.029   5.951   7.946
    8AU       S 3486   2.047   5.475   7.805
    8AU     LIG 3487   1.738   5.162   7.742
    8AU     LIG 3488   1.591   4.847   8.003
    8AU     LIG 3489   1.627   4.416   8.145
    8AU     LIG 3490   1.642   4.032   8.419
    8AU       S 3491   1.749   5.940   8.357
    8AU     LIG 3492   1.542   5.539   8.516
    8AU     LIG 3493   1.348   5.112   8.586
    8AU     LIG 3494   1.093   5.035   8.992
    8AU     LIG 3495   0.808   5.159   9.360
    8AU    AUSL 3496   2.511   5.938   7.682
    8AU    AUSL 3497   2.167   5.936   7.299
    8AU     AUL 3498   2.399   5.684   7.502
    8AU       S 3499   2.044   5.542   7.151
    8AU     LIG 3500   1.792   5.174   7.224
    8AU     LIG 3501   1.743   4.739   7.080
    8AU     LIG 3502   1.702   4.389   6.760
    8AU     LIG 3503   1.696   4.133   6.367
    8AU       S 3504   2.359   5.431   7.924
    8AU     LIG 3505   2.179   4.985   7.955
    8AU     LIG 3506   2.153   4.532   8.056
    8AU     LIG 3507   2.445   4.178   8.224
    8AU     LIG 3508   2.888   3.938   8.211
    8AU    AUSL 3509   2.450   7.333   7.011
    8AU    AUSL 3510   2.821   7.236   7.259
    8AU     AUL 3511   2.796   7.458   7.012
    8AU       S 3512   2.524   7.845   6.867
    8AU     LIG 3513   2.538   8.056   6.477
    8AU     LIG 3514   2.365   8.392   6.237
    8AU     LIG 3515   2.331   8.730   5.944
    8AU     LIG 3516   2.575   8.939   5.592
    8AU       S 3517   3.291   7.364   6.890
    8AU     LIG 3518   3.563   7.642   6.631
    8AU     LIG 3519   3.739   7.967   6.328
    8AU     LIG 3520   3.903   8.416   6.244
    8AU     LIG 3521   4.204   8.796   6.266
    8AU    AUSL 3522   2.257   7.386   7.301
    8AU    AUSL 3523   2.128   7.187   6.951
    8AU     AUL 3524   2.150   7.526   6.991
    8AU       S 3525   2.432   7.956   7.083
    8AU     LIG 3526   2.525   8.376   6.898
    8AU     LIG 3527   2.288   8.721   6.694
    8AU     LIG 3528   2.024   9.111   6.780
    8AU     LIG 3529   2.073   9.563   6.899
    8AU       S 3530   1.705   7.519   6.750
    8AU     LIG 3531   1.578   7.713   6.351
    8AU     LIG 3532   1.587   7.939   5.950
    8AU     LIG 3533   1.325   8.053   5.590
    8AU     LIG 3534   0.997   8.225   5.314
    8AU    AUSL 3535   2.357   6.053   7.028
    8AU    AUSL 3536   1.907   6.138   7.223
    8AU     AUL 3537   2.069   5.990   6.894
    8AU       S 3538   1.615   5.845   7.150
    8AU     LIG 3539   1.398   5.451   7.044
    8AU     LIG 3540   1.130   5.150   6.794
    8AU     LIG 3541   0.905   4.872   6.473
    8AU     LIG 3542   0.769   4.568   6.110
    8AU       S 3543   2.279   5.547   6.872
    8AU     LIG 3544   1.928   5.273   6.728
    8AU     LIG 3545   1.946   4.826   6.610
    8AU     LIG 3546   2.130   4.421   6.451
    8AU     LIG 3547   2.153   4.101   6.111
    8AU    AUSL 3548   2.522   5.958   7.327
    8AU    AUSL 3549   2.634   6.206   6.917
    8AU     AUL 3550   2.680   5.838   7.051
    8AU       S 3551   2.347   5.444   7.074
    8AU     LIG 3552   2.228   4.990   7.038
    8AU     LIG 3553   2.221   4.532   6.946
    8AU     LIG 3554   2.535   4.216   6.770
    8AU     LIG 3555   2.996   4.033   6.767
    8AU       S 3556   2.812   6.032   6.567
    8AU     LIG 3557   2.878   5.708   6.244
    8AU     LIG 3558   3.112   5.337   6.087
    8AU     LIG 3559   3.384   5.038   5.839
    8AU     LIG 3560   3.656   4.921   5.463
    9AU     AUC 3561  28.458  17.284   7.505
    9AU     AUC 3562  28.731  17.267   7.345
    9AU     AUC 3563  28.726  17.263   7.672
    9AU     AUC 3564  28.196  17.300   7.332
    9AU     AUC 3565  28.187  17.300   7.666
    9AU     AUC 3566  28.312  17.560   7.500
    9AU     AUC 3567  28.643  17.540   7.511
    9AU     AUC 3568  28.271  17.028   7.501
    9AU     AUC 3569  28.602  17.003   7.501
    9AU     AUC 3570  28.440  17.120   7.773
    9AU     AUC 3571  28.468  17.447   7.773
    9AU     AUC 3572  28.455  17.119   7.237
    9AU     AUC 3573  28.479  17.451   7.236
    9AU     AUC 3574  28.997  17.261   7.198
    9AU     AUC 3575  29.007  17.242   7.508
    9AU     AUC 3576  28.985  17.236   7.829
    9AU     AUC 3577  27.950  17.307   7.153
    9AU     AUC 3578  27.914  17.310   7.488
    9AU     AUC 3579  27.925  17.318   7.822
    9AU     AUC 3580  28.167  17.827   7.495
    9AU     AUC 3581  28.496  17.828   7.507
    9AU     AUC 3582  28.811  17.791   7.525
    9AU     AUC 3583  28.090  16.785   7.499
    9AU     AUC 3584  28.415  16.742   7.492
    9AU     AUC 3585  28.739  16.726   7.502
    9AU     AUC 3586  28.428  16.962   8.035
    9AU     AUC 3587  28.452  17.280   8.056
    9AU     AUC 3588  28.471  17.607   8.025
    9AU     AUC 3589  28.460  16.960   6.982
    9AU     AUC 3590  28.497  17.294   6.961
    9AU     AUC 3591  28.507  17.618   6.973
    9AU     AUC 3592  28.719  17.096   7.944
    9AU     AUC 3593  28.750  17.426   7.953
    9AU     AUC 3594  28.730  17.108   7.071
    9AU     AUC 3595  28.764  17.462   7.078
    9AU     AUC 3596  28.162  17.135   7.957
    9AU     AUC 3597  28.186  17.463   7.943
    9AU     AUC 3598  28.190  17.129   7.062
    9AU     AUC 3599  28.212  17.464   7.049
    9AU     AUC 3600  28.921  17.522   7.357
    9AU     AUC 3601  28.927  17.522   7.688
    9AU     AUC 3602  28.042  17.585   7.314
    9AU     AUC 3603  28.033  17.589   7.664
    9AU     AUC 3604  28.886  16.973   7.340
    9AU     AUC 3605  28.864  16.966   7.671
    9AU     AUC 3606  27.994  17.037   7.327
    9AU     AUC 3607  27.989  17.036   7.672
    9AU     AUC 3608  28.318  17.738   7.770
    9AU     AUC 3609  28.661  17.714   7.785
    9AU     AUC 3610  28.246  16.862   7.783
    9AU     AUC 3611  28.573  16.827   7.766
    9AU     AUC 3612  28.324  17.728   7.217
    9AU     AUC 3613  28.650  17.728   7.234
    9AU     AUC 3614  28.263  16.848   7.225
    9AU     AUC 3615  28.603  16.827   7.225
    9AU    AUSL 3616  28.955  17.200   8.127
    9AU    AUSL 3617  28.692  16.838   8.055
    9AU     AUL 3618  28.937  16.846   8.302
    9AU       S 3619  29.020  16.342   8.152
    9AU     LIG 3620  28.981  15.933   8.346
    9AU     LIG 3621  29.206  15.698   8.678
    9AU     LIG 3622  29.503  15.590   9.017
    9AU     LIG 3623  29.766  15.221   9.076
    9AU       S 3624  29.292  17.175   8.492
    9AU     LIG 3625  29.349  17.392   8.920
    9AU     LIG 3626  29.452  17.203   9.355
    9AU     LIG 3627  29.765  17.026   9.690
    9AU     LIG 3628  30.151  16.922   9.972
    9AU    AUSL 3629  28.633  17.109   8.267
    9AU    AUSL 3630  28.290  17.451   8.273
    9AU     AUL 3631  28.540  17.321   8.549
    9AU       S 3632  28.971  17.096   8.731
    9AU     LIG 3633  28.817  16.869   9.119
    9AU     LIG 3634  28.893  16.623   9.522
    9AU     LIG 3635  29.046  16.596   9.970
    9AU     LIG 3636  29.081  16.635  10.447
    9AU       S 3637  28.069  17.360   8.755
    9AU     LIG 3638  27.895  17.295   9.202
    9AU     LIG 3639  27.800  17.254   9.665
    9AU     LIG 3640  27.899  17.424  10.097
    9AU     LIG 3641  27.947  17.782  10.415
    9AU    AUSL 3642  28.619  17.479   8.221
    9AU    AUSL 3643  29.056  17.510   7.993
    9AU     AUL 3644  28.895  17.447   8.355
    9AU       S 3645  28.625  17.839   8.582
    9AU     LIG 3646  28.950  17.763   8.939
    9AU     LIG 3647  29.081  17.854   9.402
    9AU     LIG 3648  29.024  17.947   9.892
    9AU     LIG 3649  29.061  18.015  10.381
    9AU       S 3650  29.339  17.691   8.313
    9AU     LIG 3651  29.755  17.805   8.432
    9AU     LIG 3652  29.987  18.064   8.727
    9AU     LIG 3653  30.170  18.316   9.070
    9AU     LIG 3654  30.304  18.555   9.455
    9AU    AUSL 3655  28.929  17.317   6.928
    9AU    AUSL 3656  28.818  17.729   6.924
    9AU     AUL 3657  29.119  17.521   6.754
    9AU       S 3658  29.042  17.242   6.343
    9AU     LIG 3659  29.330  17.048   6.038
    9AU     LIG 3660  29.354  16.907   5.590
    9AU     LIG 3661  29.530  16.943   5.145
    9AU     LIG 3662  29.910  16.831   4.865
    9AU       S 3663  29.129  18.014   6.659
    9AU     LIG 3664  29.228  18.280   6.298
    9AU     LIG 3665  29.557  18.398   5.986
    9AU     LIG 3666  29.726  18.497   5.547
    9AU     LIG 3667  29.834  18.749   5.158
    9AU    AUSL 3668  28.706  17.110   6.761
    9AU    AUSL 3669  28.985  16.979   7.032
    9AU     AUL 3670  29.181  17.144   6.822
    9AU       S 3671  29.157  16.681   6.619
    9AU     LIG 3672  29.435  16.375   6.355
    9AU     LIG 3673  29.630  15.942   6.278
    9AU     LIG 3674  29.945  15.645   6.092
    9AU     LIG 3675  30.261  15.454   5.786
    9AU       S 3676  28.893  17.063   6.367
    9AU     LIG 3677  28.914  16.752   6.040
    9AU     LIG 3678  28.852  16.782   5.580
    9AU     LIG 3679  29.051  16.759   5.163
    9AU     LIG 3680  29.229  16.716   4.736
    9AU    AUSL 3681  28.668  17.472   6.739
    9AU    AUSL 3682  28.340  17.124   6.799
    9AU     AUL 3683  28.448  17.261   6.498
    9AU       S 3684  27.901  17.130   6.358
    9AU     LIG 3685  27.688  16.834   6.073
    9AU     LIG 3686  27.650  16.699   5.604
    9AU     LIG 3687  27.651  16.673   5.113
    9AU     LIG 3688  27.793  16.557   4.661
    9AU       S 3689  28.869  17.455   6.297
    9AU     LIG 3690  28.899  17.250   5.843
    9AU     LIG 3691  29.024  17.235   5.371
    9AU     LIG 3692  29.124  17.211   4.899
    9AU     LIG 3693  29.127  17.405   4.458
    9AU    AUSL 3694  27.981  17.359   8.146
    9AU    AUSL 3695  28.189  17.720   8.052
    9AU     AUL 3696  28.091  17.705   8.381
    9AU       S 3697  27.800  17.353   8.637
    9AU     LIG 3698  27.634  16.985   8.898
    9AU     LIG 3699  27.495  16.959   9.355
    9AU     LIG 3700  27.216  16.933   9.742
    9AU     LIG 3701  26.851  16.961  10.043
    9AU       S 3702  27.713  18.018   8.216
    9AU     LIG 3703  27.622  18.111   8.664
    9AU     LIG 3704  27.518  18.310   9.063
    9AU     LIG 3705  27.388  18.711   9.229
    9AU     LIG 3706  27.333  19.072   9.512
    9AU    AUSL 3707  28.274  17.098   8.263
    9AU    AUSL 3708  27.852  17.048   7.959
    9AU     AUL 3709  27.916  17.059   8.261
    9AU       S 3710  27.545  16.735   8.284
    9AU     LIG 3711  27.121  16.606   8.216
    9AU     LIG 3712  26.879  16.287   8.427
    9AU     LIG 3713  26.672  15.956   8.675
    9AU     LIG 3714  26.466  15.635   8.945
    9AU       S 3715  28.101  17.088   8.716
    9AU     LIG 3716  28.183  16.880   9.090
    9AU     LIG 3717  27.978  16.798   9.475
    9AU     LIG 3718  27.694  16.759   9.828
    9AU     LIG 3719  27.488  16.545  10.189
    9AU    AUSL 3720  28.035  17.277   6.832
    9AU    AUSL 3721  28.154  16.849   6.919
    9AU     AUL 3722  28.277  16.920   6.594
    9AU       S 3723  27.751  17.296   6.517
    9AU     LIG 3724  27.403  17.250   6.215
    9AU     LIG 3725  27.317  17.070   5.779
    9AU     LIG 3726  27.252  16.939   5.323
    9AU     LIG 3727  27.110  16.952   4.871
    9AU       S 3728  27.807  16.701   6.596
    9AU     LIG 3729  27.555  16.392   6.309
    9AU     LIG 3730  27.296  16.001   6.241
    9AU     LIG 3731  27.060  15.666   6.005
    9AU     LIG 3732  26.875  15.503   5.604
    9AU    AUSL 3733  28.324  17.474   6.770
    9AU    AUSL 3734  27.925  17.588   6.985
    9AU     AUL 3735  28.117  17.646   6.634
    9AU       S 3736  27.624  17.768   6.693
    9AU     LIG 3737  27.410  17.784   6.306
    9AU     LIG 3738  27.104  18.028   6.070
    9AU     LIG 3739  26.821  18.124   5.713
    9AU     LIG 3740  26.374  18.133   5.564
    9AU       S 3741  27.986  17.347   6.270
    9AU     LIG 3742  27.783  17.294   5.854
    9AU     LIG 3743  27.707  17.171   5.407
    9AU     LIG 3744  27.582  17.170   4.955
    9AU     LIG 3745  27.658  17.304   4.505
    9AU    AUSL 3746  29.127  17.682   7.500
    9AU    AUSL 3747  29.097  17.597   7.121
    9AU     AUL 3748  29.170  17.998   7.376
    9AU       S 3749  29.419  17.875   6.924
    9AU     LIG 3750  29.789  17.876   6.681
    9AU     LIG 3751  29.881  18.081   6.268
    9AU     LIG 3752  30.068  18.318   5.911
    9AU     LIG 3753  30.390  18.424   5.594
    9AU       S 3754  29.628  17.767   7.369
    9AU     LIG 3755  30.052  17.995   7.382
    9AU     LIG 3756  30.525  18.047   7.492
    9AU     LIG 3757  30.963  18.260   7.496
    9AU     LIG 3758  31.294  18.624   7.426
    9AU    AUSL 3759  29.239  17.370   7.341
    9AU    AUSL 3760  29.162  17.063   7.658
    9AU     AUL 3761  29.487  17.147   7.560
    9AU       S 3762  29.626  17.516   7.221
    9AU     LIG 3763  30.079  17.548   7.140
    9AU     LIG 3764  30.540  17.595   7.244
    9AU     LIG 3765  30.973  17.768   7.307
    9AU     LIG 3766  31.412  17.806   7.128
    9AU       S 3767  29.571  16.613   7.654
    9AU     LIG 3768  30.018  16.416   7.706
    9AU     LIG 3769  30.428  16.168   7.739
    9AU     LIG 3770  30.870  16.118   7.856
    9AU     LIG 3771  31.232  16.344   8.042
    9AU    AUSL 3772  29.232  17.403   7.701
    9AU    AUSL 3773  28.977  17.820   7.795
    9AU     AUL 3774  29.315  17.734   7.799
    9AU       S 3775  29.305  18.008   8.221
    9AU     LIG 3776  29.600  18.307   8.473
    9AU     LIG 3777  29.914  18.600   8.709
    9AU     LIG 3778  30.121  19.008   8.890
    9AU     LIG 3779  30.305  19.483   8.868
    9AU       S 3780  29.738  17.583   7.555
    9AU     LIG 3781  30.225  17.597   7.656
    9AU     LIG 3782  30.715  17.636   7.748
    9AU     LIG 3783  31.093  17.764   8.031
    9AU     LIG 3784  31.444  17.973   8.300
    9AU    AUSL 3785  27.870  17.802   7.506
    9AU    AUSL 3786  27.869  17.610   7.931
    9AU     AUL 3787  27.572  17.800   7.710
    9AU       S 3788  27.579  17.739   8.231
    9AU     LIG 3789  27.212  17.969   8.398
    9AU     LIG 3790  27.097  18.193   8.783
    9AU     LIG 3791  26.851  18.130   9.178
    9AU     LIG 3792  26.450  18.193   9.434
    9AU       S 3793  27.677  18.249   7.476
    9AU     LIG 3794  27.175  18.260   7.608
    9AU     LIG 3795  26.743  18.505   7.593
    9AU     LIG 3796  26.398  18.865   7.576
    9AU     LIG 3797  26.070  19.062   7.864
    9AU    AUSL 3798  27.771  17.484   7.273
    9AU    AUSL 3799  28.009  17.882   7.200
    9AU     AUL 3800  27.645  17.785   7.214
    9AU       S 3801  27.400  17.386   6.914
    9AU     LIG 3802  27.093  17.777   6.815
    9AU     LIG 3803  26.637  17.966   6.974
    9AU     LIG 3804  26.166  18.157   7.021
    9AU     LIG 3805  25.726  18.228   6.805
    9AU       S 3806  27.710  18.213   6.950
    9AU     LIG 3807  27.340  18.224   6.612
    9AU     LIG 3808  27.239  18.509   6.235
    9AU     LIG 3809  27.032  18.921   6.069
    9AU     LIG 3810  26.683  19.262   6.135
    9AU    AUSL 3811  27.731  17.479   7.650
    9AU    AUSL 3812  27.679  17.163   7.317
    9AU     AUL 3813  27.460  17.521   7.423
    9AU       S 3814  27.200  17.086   7.343
    9AU     LIG 3815  26.736  17.012   7.320
    9AU     LIG 3816  26.370  16.774   7.270
    9AU     LIG 3817  25.937  16.772   7.175
    9AU     LIG 3818  25.515  16.898   7.062
    9AU       S 3819  27.323  17.411   7.953
    9AU     LIG 3820  27.044  17.801   7.937
    9AU     LIG 3821  26.688  18.089   7.921
    9AU     LIG 3822  26.220  18.184   7.960
    9AU     LIG 3823  25.815  17.921   7.987
    9AU    AUSL 3824  29.061  16.759   7.540
    9AU    AUSL 3825  29.006  16.916   7.930
    9AU     AUL 3826  29.334  16.973   7.892
    9AU       S 3827  29.362  16.473   7.564
    9AU     LIG 3828  29.627  16.098   7.601
    9AU     LIG 3829  30.043  15.910   7.492
    9AU     LIG 3830  30.493  15.797   7.376
    9AU     LIG 3831  30.940  15.736   7.520
    9AU       S 3832  29.252  16.487   8.057
    9AU     LIG 3833  29.457  16.179   8.357
    9AU     LIG 3834  29.679  15.932   8.678
    9AU     LIG 3835  29.997  15.688   8.914
    9AU     LIG 3836  30.363  15.428   9.009
    9AU    AUSL 3837  29.196  17.028   7.315
    9AU    AUSL 3838  28.892  16.682   7.214
    9AU     AUL 3839  29.218  16.742   7.153
    9AU       S 3840  29.628  16.675   7.414
    9AU     LIG 3841  29.882  16.350   7.221
    9AU     LIG 3842  30.340  16.272   7.245
    9AU     LIG 3843  30.812  16.197   7.323
    9AU     LIG 3844  31.224  16.188   7.088
    9AU       S 3845  29.145  16.431   6.765
    9AU     LIG 3846  29.302  15.980   6.687
    9AU     LIG 3847  29.470  15.532   6.563
    9AU     LIG 3848  29.711  15.226   6.293
    9AU     LIG 3849  29.900  14.898   6.012
    9AU    AUSL 3850  27.795  16.858   7.495
    9AU    AUSL 3851  27.867  17.043   7.042
    9AU     AUL 3852  27.616  16.800   7.225
    9AU       S 3853  27.616  16.883   6.721
    9AU     LIG 3854  27.255  16.767   6.482
    9AU     LIG 3855  26.990  16.390   6.388
    9AU     LIG 3856  26.753  16.029   6.204
    9AU     LIG 3857  26.530  15.693   5.955
    9AU       S 3858  27.195  16.851   7.490
    9AU     LIG 3859  26.816  16.563   7.561
    9AU     LIG 3860  26.363  16.384   7.598
    9AU     LIG 3861  25.914  16.294   7.449
    9AU     LIG 3862  25.622  15.921   7.337
    9AU    AUSL 3863  27.688  17.146   7.670
    9AU    AUSL 3864  27.932  16.737   7.802
    9AU     AUL 3865  27.601  16.819   7.785
    9AU       S 3866  27.632  16.485   8.162
    9AU     LIG 3867  27.307  16.118   8.177
    9AU     LIG 3868  26.950  15.789   8.265
    9AU     LIG 3869  26.657  15.464   8.482
    9AU     LIG 3870  26.499  15.142   8.815
    9AU       S 3871  27.206  17.092   7.593
    9AU     LIG 3872  26.877  16.983   7.876
    9AU     LIG 3873  26.462  16.857   7.786
    9AU     LIG 3874  26.014  16.772   7.688
    9AU     LIG 3875  25.556  16.672   7.550
    9AU    AUSL 3876  28.491  17.921   7.969
    9AU    AUSL 3877  28.048  17.910   7.795
    9AU     AUL 3878  28.223  18.030   8.175
    9AU       S 3879  27.787  18.224   7.967
    9AU     LIG 3880  27.446  18.430   8.283
    9AU     LIG 3881  27.338  18.653   8.697
    9AU     LIG 3882  27.200  19.086   8.898
    9AU     LIG 3883  26.983  19.540   8.911
    9AU       S 3884  28.502  18.441   8.051
    9AU     LIG 3885  28.666  18.716   8.369
    9AU     LIG 3886  28.624  19.159   8.476
    9AU     LIG 3887  28.618  19.617   8.575
    9AU     LIG 3888  28.517  19.923   8.922
    9AU    AUSL 3889  28.334  18.045   7.654
    9AU    AUSL 3890  28.647  18.068   7.358
    9AU     AUL 3891  28.256  18.301   7.402
    9AU       S 3892  28.340  18.483   7.863
    9AU     LIG 3893  28.391  18.969   8.012
    9AU     LIG 3894  28.448  19.469   8.091
    9AU     LIG 3895  28.401  19.941   8.227
    9AU     LIG 3896  28.400  20.279   8.571
    9AU       S 3897  28.718  18.511   7.229
    9AU     LIG 3898  28.983  18.837   7.006
    9AU     LIG 3899  29.000  19.289   6.820
    9AU     LIG 3900  28.899  19.781   6.745
    9AU     LIG 3901  28.959  20.278   6.662
    9AU    AUSL 3902  28.698  18.017   7.691
    9AU    AUSL 3903  28.780  17.734   8.074
    9AU     AUL 3904  28.841  18.075   8.014
    9AU       S 3905  29.108  17.906   8.423
    9AU     LIG 3906  29.408  17.947   8.786
    9AU     LIG 3907  29.632  18.293   9.021
    9AU     LIG 3908  29.835  18.672   9.234
    9AU     LIG 3909  29.940  18.868   9.658
    9AU       S 3910  28.663  18.480   7.749
    9AU     LIG 3911  28.884  18.867   7.925
    9AU     LIG 3912  28.943  19.317   8.104
    9AU     LIG 3913  28.911  19.798   8.176
    9AU     LIG 3914  28.886  20.258   8.330
    9AU    AUSL 3915  28.420  16.643   7.963
    9AU    AUSL 3916  28.807  16.650   7.795
    9AU     AUL 3917  28.614  16.613   8.246
    9AU       S 3918  28.543  16.146   8.042
    9AU     LIG 3919  28.516  15.719   8.214
    9AU     LIG 3920  28.412  15.285   8.332
    9AU     LIG 3921  28.448  14.882   8.559
    9AU     LIG 3922  28.539  14.728   8.999
    9AU       S 3923  29.030  16.329   7.897
    9AU     LIG 3924  29.282  15.930   7.942
    9AU     LIG 3925  29.514  15.658   8.268
    9AU     LIG 3926  29.761  15.368   8.586
    9AU     LIG 3927  30.112  15.030   8.721
    9AU    AUSL 3928  28.216  16.603   7.679
    9AU    AUSL 3929  28.142  16.826   8.083
    9AU     AUL 3930  28.112  16.461   7.994
    9AU       S 3931  28.369  16.037   7.810
    9AU     LIG 3932  28.281  15.595   7.761
    9AU     LIG 3933  28.224  15.134   7.878
    9AU     LIG 3934  28.093  14.761   8.146
    9AU     LIG 3935  27.735  14.408   8.152
    9AU       S 3936  27.821  16.583   8.406
    9AU     LIG 3937  27.426  16.368   8.615
    9AU     LIG 3938  27.205  15.963   8.676
    9AU     LIG 3939  26.991  15.593   8.860
    9AU     LIG 3940  26.866  15.356   9.238
    9AU    AUSL 3941  28.529  16.504   7.647
    9AU    AUSL 3942  28.235  16.538   7.335
    9AU     AUL 3943  28.057  16.368   7.599
    9AU       S 3944  28.312  16.066   7.287
    9AU     LIG 3945  28.073  15.690   7.270
    9AU     LIG 3946  28.049  15.283   7.067
    9AU     LIG 3947  28.185  14.869   6.891
    9AU     LIG 3948  28.123  14.412   6.805
    9AU       S 3949  28.600  16.139   7.770
    9AU     LIG 3950  28.811  15.752   7.799
    9AU     LIG 3951  28.698  15.325   7.893
    9AU     LIG 3952  28.680  14.905   8.092
    9AU     LIG 3953  28.692  14.437   8.178
    9AU    AUSL 3954  28.537  17.927   7.013
    9AU    AUSL 3955  28.890  17.817   7.271
    9AU     AUL 3956  28.872  18.055   7.094
    9AU       S 3957  28.626  18.382   6.815
    9AU     LIG 3958  28.828  18.684   6.536
    9AU     LIG 3959  28.730  19.127   6.413
    9AU     LIG 3960  28.628  19.582   6.352
    9AU     LIG 3961  28.483  19.974   6.145
    9AU       S 3962  29.319  18.085   6.886
    9AU     LIG 3963  29.614  18.359   6.621
    9AU     LIG 3964  29.904  18.613   6.321
    9AU     LIG 3965  30.142  19.023   6.166
    9AU     LIG 3966  30.322  19.488   6.066
    9AU    AUSL 3967  28.327  17.981   7.297
    9AU    AUSL 3968  28.229  17.772   6.942
    9AU     AUL 3969  28.214  18.122   6.997
    9AU       S 3970  28.535  18.515   7.043
    9AU     LIG 3971  28.509  18.947   6.857
    9AU     LIG 3972  28.507  19.415   6.830
    9AU     LIG 3973  28.371  19.857   6.853
    9AU     LIG 3974  28.118  20.070   6.555
    9AU       S 3975  27.808  18.041   6.693
    9AU     LIG 3976  27.713  18.201   6.263
    9AU     LIG 3977  27.504  18.277   5.853
    9AU     LIG 3978  27.304  18.594   5.566
    9AU     LIG 3979  27.282  18.880   5.177
    9AU    AUSL 3980  28.411  16.639   7.041
    9AU    AUSL 3981  27.970  16.735   7.206
    9AU     AUL 3982  28.100  16.476   6.987
    9AU       S 3983  27.646  16.582   6.779
    9AU     LIG 3984  27.328  16.235   6.744
    9AU     LIG 3985  26.995  15.906   6.648
    9AU     LIG 3986  26.764  15.550   6.424
    9AU     LIG 3987  26.548  15.228   6.165
    9AU       S 3988  28.399  16.066   7.039
    9AU     LIG 3989  28.394  15.656   6.863
    9AU     LIG 3990  28.321  15.287   6.625
    9AU     LIG 3991  28.420  14.912   6.403
    9AU     LIG 3992  28.432  14.830   5.942
    9AU    AUSL 3993  28.603  16.526   7.321
    9AU    AUSL 3994  28.696  16.804   6.918
    9AU     AUL 3995  28.708  16.455   6.994
    9AU       S 3996  28.597  16.060   7.295
    9AU     LIG 3997  28.575  15.601   7.343
    9AU     LIG 3998  28.560  15.206   7.096
    9AU     LIG 3999  28.707  14.835   6.855
    9AU     LIG 4000  29.030  14.490   6.909
    9AU       S 4001  28.902  16.610   6.556
    9AU     LIG 4002  28.954  16.199   6.341
    9AU     LIG 4003  29.136  15.774   6.239
    9AU     LIG 4004  29.433  15.528   5.995
    9AU     LIG 4005  29.753  15.314   5.740
   10AU     AUC 4006  12.936   1.183   7.507
   10AU     AUC 4007  13.206   1.166   7.345
   10AU     AUC 4008  13.201   1.158   7.675
   10AU     AUC 4009  12.672   1.203   7.339
   10AU     AUC 4010  12.667   1.203   7.670
   10AU     AUC 4011  12.792   1.461   7.505
   10AU     AUC 4012  13.121   1.437   7.514
   10AU     AUC 4013  12.748   0.929   7.503
   10AU     AUC 4014  13.078   0.902   7.501
   10AU     AUC 4015  12.917   1.017   7.772
   10AU     AUC 4016  12.947   1.343   7.778
   10AU     AUC 4017  12.931   1.021   7.239
   10AU     AUC 4018  12.955   1.351   7.239
   10AU     AUC 4019  13.468   1.163   7.190
   10AU     AUC 4020  13.479   1.140   7.509
   10AU     AUC 4021  13.457   1.130   7.829
   10AU     AUC 4022  12.423   1.210   7.168
   10AU     AUC 4023  12.392   1.216   7.504
   10AU     AUC 4024  12.411   1.227   7.832
   10AU     AUC 4025  12.652   1.728   7.504
   10AU     AUC 4026  12.979   1.727   7.509
   10AU     AUC 4027  13.291   1.687   7.526
   10AU     AUC 4028  12.565   0.685   7.503
   10AU     AUC 4029  12.894   0.642   7.487
   10AU     AUC 4030  13.214   0.623   7.499
   10AU     AUC 4031  12.893   0.853   8.026
   10AU     AUC 4032  12.921   1.171   8.061
   10AU     AUC 4033  12.961   1.491   8.041
   10AU     AUC 4034  12.936   0.867   6.984
   10AU     AUC 4035  12.966   1.192   6.966
   10AU     AUC 4036  12.975   1.516   6.978
   10AU     AUC 4037  13.181   0.982   7.950
   10AU     AUC 4038  13.224   1.317   7.957
   10AU     AUC 4039  13.212   1.017   7.065
   10AU     AUC 4040  13.240   1.355   7.076
   10AU     AUC 4041  12.646   1.038   7.949
   10AU     AUC 4042  12.672   1.365   7.948
   10AU     AUC 4043  12.663   1.034   7.070
   10AU     AUC 4044  12.684   1.365   7.056
   10AU     AUC 4045  13.397   1.419   7.359
   10AU     AUC 4046  13.403   1.417   7.692
   10AU     AUC 4047  12.519   1.489   7.324
   10AU     AUC 4048  12.514   1.493   7.672
   10AU     AUC 4049  13.356   0.873   7.338
   10AU     AUC 4050  13.336   0.862   7.672
   10AU     AUC 4051  12.467   0.941   7.342
   10AU     AUC 4052  12.472   0.936   7.681
   10AU     AUC 4053  12.802   1.632   7.777
   10AU     AUC 4054  13.140   1.607   7.788
   10AU     AUC 4055  12.728   0.757   7.777
   10AU     AUC 4056  13.057   0.727   7.769
   10AU     AUC 4057  12.802   1.629   7.222
   10AU     AUC 4058  13.129   1.625   7.237
   10AU     AUC 4059  12.736   0.754   7.228
   10AU     AUC 4060  13.081   0.731   7.221
   10AU    AUSL 4061  13.403   1.087   8.114
   10AU    AUSL 4062  13.198   0.736   8.103
   10AU     AUL 4063  13.288   1.034   8.426
   10AU       S 4064  13.506   0.347   8.233
   10AU     LIG 4065  13.517  44.943   8.409
   10AU     LIG 4066  13.725  44.781   8.799
   10AU     LIG 4067  14.046  44.468   8.931
   10AU     LIG 4068  14.021  44.163   9.261
   10AU       S 4069  13.694   0.759   8.446
   10AU     LIG 4070  13.837   0.964   8.833
   10AU     LIG 4071  13.881   0.992   9.288
   10AU     LIG 4072  14.029   0.876   9.717
   10AU     LIG 4073  14.417   0.857   9.988
   10AU    AUSL 4074  13.000   0.955   8.260
   10AU    AUSL 4075  12.799   1.331   8.281
   10AU     AUL 4076  12.980   1.143   8.582
   10AU       S 4077  13.334   0.599   8.630
   10AU     LIG 4078  13.453   0.721   9.083
   10AU     LIG 4079  13.560   0.681   9.546
   10AU     LIG 4080  13.648   0.635  10.007
   10AU     LIG 4081  13.509   0.490  10.446
   10AU       S 4082  12.509   1.217   8.745
   10AU     LIG 4083  12.358   1.181   9.194
   10AU     LIG 4084  12.244   1.172   9.656
   10AU     LIG 4085  12.098   1.175  10.111
   10AU     LIG 4086  11.847   1.407  10.454
   10AU    AUSL 4087  13.146   1.336   8.255
   10AU    AUSL 4088  13.534   1.404   7.995
   10AU     AUL 4089  13.529   1.293   8.365
   10AU       S 4090  13.176   1.627   8.625
   10AU     LIG 4091  13.452   1.660   9.031
   10AU     LIG 4092  13.563   1.716   9.512
   10AU     LIG 4093  13.648   1.914   9.955
   10AU     LIG 4094  13.739   2.015  10.420
   10AU       S 4095  13.810   1.702   8.296
   10AU     LIG 4096  14.228   1.701   8.431
   10AU     LIG 4097  14.511   1.963   8.662
   10AU     LIG 4098  14.678   2.213   9.010
   10AU     LIG 4099  14.803   2.547   9.309
   10AU    AUSL 4100  13.428   1.246   6.881
   10AU    AUSL 4101  13.285   1.619   6.934
   10AU     AUL 4102  13.366   1.558   6.593
   10AU       S 4103  13.594   1.106   6.393
   10AU     LIG 4104  13.867   0.795   6.169
   10AU     LIG 4105  13.994   0.758   5.704
   10AU     LIG 4106  14.108   0.775   5.235
   10AU     LIG 4107  14.410   0.644   4.885
   10AU       S 4108  13.750   1.849   6.722
   10AU     LIG 4109  13.940   1.971   6.321
   10AU     LIG 4110  14.111   2.205   5.956
   10AU     LIG 4111  14.286   2.481   5.619
   10AU     LIG 4112  14.497   2.802   5.348
   10AU    AUSL 4113  13.194   1.010   6.771
   10AU    AUSL 4114  13.457   0.888   7.031
   10AU     AUL 4115  13.678   1.052   6.876
   10AU       S 4116  13.672   0.588   6.653
   10AU     LIG 4117  13.968   0.280   6.442
   10AU     LIG 4118  14.314  44.943   6.409
   10AU     LIG 4119  14.632  44.800   6.077
   10AU     LIG 4120  14.610  44.821   5.599
   10AU       S 4121  13.369   0.905   6.391
   10AU     LIG 4122  13.438   0.540   6.083
   10AU     LIG 4123  13.562   0.488   5.618
   10AU     LIG 4124  13.677   0.500   5.142
   10AU     LIG 4125  13.721   0.584   4.669
   10AU    AUSL 4126  13.124   1.355   6.753
   10AU    AUSL 4127  12.820   1.025   6.788
   10AU     AUL 4128  12.942   1.174   6.498
   10AU       S 4129  12.434   1.019   6.341
   10AU     LIG 4130  12.350   0.710   5.993
   10AU     LIG 4131  12.228   0.584   5.543
   10AU     LIG 4132  12.169   0.600   5.075
   10AU     LIG 4133  12.329   0.387   4.680
   10AU       S 4134  13.382   1.175   6.259
   10AU     LIG 4135  13.521   0.992   5.844
   10AU     LIG 4136  13.632   0.961   5.390
   10AU     LIG 4137  13.729   1.020   4.941
   10AU     LIG 4138  13.662   1.205   4.509
   10AU    AUSL 4139  12.473   1.289   8.151
   10AU    AUSL 4140  12.676   1.610   8.073
   10AU     AUL 4141  12.616   1.597   8.416
   10AU       S 4142  12.279   1.242   8.616
   10AU     LIG 4143  12.035   0.931   8.881
   10AU     LIG 4144  11.933   0.880   9.351
   10AU     LIG 4145  11.747   0.996   9.779
   10AU     LIG 4146  11.622   0.998  10.242
   10AU       S 4147  12.239   1.924   8.249
   10AU     LIG 4148  12.255   2.100   8.684
   10AU     LIG 4149  12.210   2.429   9.005
   10AU     LIG 4150  11.887   2.684   9.214
   10AU     LIG 4151  11.609   2.729   9.600
   10AU    AUSL 4152  12.649   1.008   8.232
   10AU    AUSL 4153  12.384   0.936   7.977
   10AU     AUL 4154  12.192   1.105   8.147
   10AU       S 4155  12.172   0.640   8.361
   10AU     LIG 4156  11.717   0.507   8.391
   10AU     LIG 4157  11.412   0.167   8.471
   10AU     LIG 4158  11.219  44.943   8.821
   10AU     LIG 4159  10.941  44.916   9.199
   10AU       S 4160  12.471   0.967   8.603
   10AU     LIG 4161  12.493   0.722   8.984
   10AU     LIG 4162  12.411   0.714   9.446
   10AU     LIG 4163  12.171   0.703   9.853
   10AU     LIG 4164  12.014   0.677  10.298
   10AU    AUSL 4165  12.508   1.164   6.843
   10AU    AUSL 4166  12.615   0.770   6.935
   10AU     AUL 4167  12.755   0.783   6.626
   10AU       S 4168  12.249   1.156   6.516
   10AU     LIG 4169  11.949   0.894   6.262
   10AU     LIG 4170  11.864   0.821   5.815
   10AU     LIG 4171  11.792   0.855   5.361
   10AU     LIG 4172  11.680   0.740   4.932
   10AU       S 4173  12.254   0.635   6.613
   10AU     LIG 4174  12.013   0.293   6.349
   10AU     LIG 4175  11.745  44.879   6.344
   10AU     LIG 4176  11.473  44.523   6.191
   10AU     LIG 4177  11.265  44.389   5.791
   10AU    AUSL 4178  12.784   1.375   6.773
   10AU    AUSL 4179  12.398   1.488   6.997
   10AU     AUL 4180  12.567   1.542   6.647
   10AU       S 4181  12.083   1.671   6.711
   10AU     LIG 4182  11.791   1.950   6.493
   10AU     LIG 4183  11.692   2.199   6.109
   10AU     LIG 4184  11.515   2.330   5.679
   10AU     LIG 4185  11.129   2.421   5.392
   10AU       S 4186  12.477   1.243   6.273
   10AU     LIG 4187  12.217   1.198   5.896
   10AU     LIG 4188  12.235   1.087   5.442
   10AU     LIG 4189  12.077   1.112   4.993
   10AU     LIG 4190  12.015   1.411   4.624
   10AU    AUSL 4191  13.602   1.574   7.505
   10AU    AUSL 4192  13.568   1.481   7.119
   10AU     AUL 4193  13.643   1.892   7.392
   10AU       S 4194  13.859   1.614   6.881
   10AU     LIG 4195  14.266   1.703   6.669
   10AU     LIG 4196  14.457   1.955   6.312
   10AU     LIG 4197  14.625   2.237   5.964
   10AU     LIG 4198  14.817   2.539   5.653
   10AU       S 4199  14.107   1.669   7.370
   10AU     LIG 4200  14.581   1.850   7.427
   10AU     LIG 4201  15.072   1.938   7.507
   10AU     LIG 4202  15.518   2.142   7.503
   10AU     LIG 4203  15.721   2.513   7.706
   10AU    AUSL 4204  13.715   1.266   7.344
   10AU    AUSL 4205  13.633   0.956   7.660
   10AU     AUL 4206  13.961   1.016   7.529
   10AU       S 4207  14.109   1.417   7.246
   10AU     LIG 4208  14.538   1.457   7.109
   10AU     LIG 4209  14.994   1.523   7.217
   10AU     LIG 4210  15.435   1.719   7.189
   10AU     LIG 4211  15.879   1.770   6.973
   10AU       S 4212  13.998   0.452   7.691
   10AU     LIG 4213  14.386   0.173   7.809
   10AU     LIG 4214  14.861   0.252   7.756
   10AU     LIG 4215  15.350   0.387   7.824
   10AU     LIG 4216  15.828   0.463   7.817
   10AU    AUSL 4217  13.709   1.291   7.703
   10AU    AUSL 4218  13.450   1.718   7.801
   10AU     AUL 4219  13.790   1.618   7.801
   10AU       S 4220  13.770   1.968   8.169
   10AU     LIG 4221  14.082   2.197   8.448
   10AU     LIG 4222  14.398   2.485   8.658
   10AU     LIG 4223  14.541   2.894   8.864
   10AU     LIG 4224  14.756   3.314   8.923
   10AU       S 4225  14.204   1.460   7.560
   10AU     LIG 4226  14.640   1.426   7.702
   10AU     LIG 4227  15.100   1.457   7.715
   10AU     LIG 4228  15.477   1.692   7.783
   10AU     LIG 4229  15.813   1.986   7.932
   10AU    AUSL 4230  12.360   1.714   7.522
   10AU    AUSL 4231  12.350   1.523   7.931
   10AU     AUL 4232  12.059   1.731   7.721
   10AU       S 4233  12.085   1.665   8.244
   10AU     LIG 4234  11.800   1.925   8.518
   10AU     LIG 4235  11.753   2.212   8.885
   10AU     LIG 4236  11.477   2.365   9.238
   10AU     LIG 4237  11.184   2.422   9.614
   10AU       S 4238  12.200   2.174   7.493
   10AU     LIG 4239  11.777   2.447   7.549
   10AU     LIG 4240  11.308   2.623   7.619
   10AU     LIG 4241  10.882   2.807   7.797
   10AU     LIG 4242  10.436   3.004   7.759
   10AU    AUSL 4243  12.246   1.388   7.285
   10AU    AUSL 4244  12.491   1.785   7.210
   10AU     AUL 4245  12.129   1.698   7.231
   10AU       S 4246  11.891   1.265   6.928
   10AU     LIG 4247  11.432   1.351   6.950
   10AU     LIG 4248  11.045   1.543   6.766
   10AU     LIG 4249  10.591   1.652   6.786
   10AU     LIG 4250  10.342   1.891   7.072
   10AU       S 4251  12.195   2.128   6.965
   10AU     LIG 4252  11.997   2.418   6.622
   10AU     LIG 4253  11.849   2.678   6.246
   10AU     LIG 4254  11.581   3.022   6.034
   10AU     LIG 4255  11.385   3.461   6.068
   10AU    AUSL 4256  12.199   1.391   7.658
   10AU    AUSL 4257  12.154   1.070   7.351
   10AU     AUL 4258  11.931   1.434   7.426
   10AU       S 4259  11.678   0.991   7.390
   10AU     LIG 4260  11.223   1.041   7.304
   10AU     LIG 4261  10.808   0.841   7.263
   10AU     LIG 4262  10.384   0.763   7.127
   10AU     LIG 4263  10.070   0.449   7.207
   10AU       S 4264  11.763   1.375   7.940
   10AU     LIG 4265  11.283   1.514   7.894
   10AU     LIG 4266  10.824   1.714   7.909
   10AU     LIG 4267  10.556   2.097   7.988
   10AU     LIG 4268  10.110   2.255   8.038
   10AU    AUSL 4269  13.528   0.655   7.540
   10AU    AUSL 4270  13.483   0.810   7.927
   10AU     AUL 4271  13.822   0.876   7.871
   10AU       S 4272  13.794   0.340   7.558
   10AU     LIG 4273  14.170   0.044   7.370
   10AU     LIG 4274  14.678  44.980   7.328
   10AU     LIG 4275  15.049  44.666   7.405
   10AU     LIG 4276  15.448  44.501   7.601
   10AU       S 4277  13.703   0.418   8.090
   10AU     LIG 4278  13.986   0.142   8.368
   10AU     LIG 4279  14.226  44.834   8.618
   10AU     LIG 4280  14.482  44.749   9.004
   10AU     LIG 4281  14.921  44.885   9.158
   10AU    AUSL 4282  13.654   0.929   7.320
   10AU    AUSL 4283  13.375   0.579   7.210
   10AU     AUL 4284  13.714   0.676   7.164
   10AU       S 4285  14.070   0.522   7.464
   10AU     LIG 4286  14.512   0.459   7.391
   10AU     LIG 4287  14.885   0.434   7.114
   10AU     LIG 4288  15.344   0.455   7.007
   10AU     LIG 4289  15.693   0.397   7.302
   10AU       S 4290  13.644   0.300   6.841
   10AU     LIG 4291  13.912  44.897   6.815
   10AU     LIG 4292  14.119  44.508   6.633
   10AU     LIG 4293  14.295  44.131   6.407
   10AU     LIG 4294  14.634  43.792   6.250
   10AU    AUSL 4295  12.264   0.765   7.524
   10AU    AUSL 4296  12.329   0.951   7.066
   10AU     AUL 4297  12.086   0.706   7.255
   10AU       S 4298  12.052   0.786   6.754
   10AU     LIG 4299  11.653   0.566   6.590
   10AU     LIG 4300  11.370   0.169   6.550
   10AU     LIG 4301  11.088  44.819   6.373
   10AU     LIG 4302  10.882  44.719   5.949
   10AU       S 4303  11.682   0.766   7.545
   10AU     LIG 4304  11.256   0.585   7.527
   10AU     LIG 4305  10.867   0.369   7.466
   10AU     LIG 4306  10.523   0.121   7.583
   10AU     LIG 4307  10.173  44.953   7.355
   10AU    AUSL 4308  12.178   1.057   7.712
   10AU    AUSL 4309  12.418   0.625   7.808
   10AU     AUL 4310  12.088   0.741   7.851
   10AU       S 4311  12.176   0.394   8.208
   10AU     LIG 4312  11.854   0.032   8.208
   10AU     LIG 4313  11.498  44.708   8.232
   10AU     LIG 4314  11.142  44.549   8.470
   10AU     LIG 4315  10.827  44.236   8.643
   10AU       S 4316  11.693   0.999   7.636
   10AU     LIG 4317  11.264   1.003   7.817
   10AU     LIG 4318  10.814   0.833   7.773
   10AU     LIG 4319  10.427   0.611   7.617
   10AU     LIG 4320  10.070   0.323   7.720
   10AU    AUSL 4321  12.966   1.806   7.963
   10AU    AUSL 4322  12.546   1.809   7.817
   10AU     AUL 4323  12.745   1.909   8.207
   10AU       S 4324  12.318   2.129   7.992
   10AU     LIG 4325  12.018   2.372   8.313
   10AU     LIG 4326  11.893   2.664   8.672
   10AU     LIG 4327  11.674   3.029   8.876
   10AU     LIG 4328  11.432   3.441   8.838
   10AU       S 4329  12.962   2.339   8.035
   10AU     LIG 4330  13.139   2.548   8.381
   10AU     LIG 4331  13.146   2.981   8.498
   10AU     LIG 4332  13.007   3.305   8.797
   10AU     LIG 4333  12.896   3.640   9.109
   10AU    AUSL 4334  12.816   1.944   7.655
   10AU    AUSL 4335  13.141   1.963   7.349
   10AU     AUL 4336  12.752   2.201   7.402
   10AU       S 4337  12.793   2.369   7.873
   10AU     LIG 4338  12.822   2.832   8.077
   10AU     LIG 4339  12.765   3.276   8.280
   10AU     LIG 4340  12.570   3.710   8.387
   10AU     LIG 4341  12.490   4.165   8.454
   10AU       S 4342  13.218   2.391   7.236
   10AU     LIG 4343  13.470   2.686   6.975
   10AU     LIG 4344  13.473   3.117   6.780
   10AU     LIG 4345  13.754   3.518   6.757
   10AU     LIG 4346  13.937   3.969   6.747
   10AU    AUSL 4347  13.177   1.915   7.687
   10AU    AUSL 4348  13.249   1.616   8.084
   10AU     AUL 4349  13.286   1.961   8.024
   10AU       S 4350  13.576   1.821   8.411
   10AU     LIG 4351  13.865   1.866   8.777
   10AU     LIG 4352  14.152   2.155   8.982
   10AU     LIG 4353  14.304   2.545   9.171
   10AU     LIG 4354  14.344   2.928   9.432
   10AU       S 4355  13.139   2.376   7.754
   10AU     LIG 4356  13.320   2.765   7.953
   10AU     LIG 4357  13.461   3.182   8.133
   10AU     LIG 4358  13.776   3.537   8.231
   10AU     LIG 4359  13.804   3.981   8.377
   10AU    AUSL 4360  12.921   0.547   7.935
   10AU    AUSL 4361  13.269   0.550   7.807
   10AU     AUL 4362  13.019   0.482   8.219
   10AU       S 4363  13.044   0.025   7.999
   10AU     LIG 4364  12.936  44.782   8.357
   10AU     LIG 4365  12.802  44.339   8.436
   10AU     LIG 4366  12.676  43.901   8.650
   10AU     LIG 4367  12.569  43.441   8.813
   10AU       S 4368  13.497   0.243   7.947
   10AU     LIG 4369  13.893  44.975   7.904
   10AU     LIG 4370  14.244  44.727   8.091
   10AU     LIG 4371  14.366  44.384   8.389
   10AU     LIG 4372  14.498  44.218   8.806
   10AU    AUSL 4373  12.699   0.499   7.668
   10AU    AUSL 4374  12.646   0.703   8.080
   10AU     AUL 4375  12.619   0.343   7.974
   10AU       S 4376  12.850  44.927   7.762
   10AU     LIG 4377  12.519  44.595   7.792
   10AU     LIG 4378  12.278  44.194   7.712
   10AU     LIG 4379  12.252  43.777   7.950
   10AU     LIG 4380  12.274  43.365   8.217
   10AU       S 4381  12.408   0.506   8.423
   10AU     LIG 4382  12.056   0.206   8.657
   10AU     LIG 4383  11.730  44.826   8.689
   10AU     LIG 4384  11.436  44.488   8.894
   10AU     LIG 4385  11.228  44.421   9.308
   10AU    AUSL 4386  13.011   0.397   7.628
   10AU    AUSL 4387  12.711   0.442   7.324
   10AU     AUL 4388  12.535   0.269   7.583
   10AU       S 4389  12.778  44.967   7.255
   10AU     LIG 4390  12.517  44.583   7.265
   10AU     LIG 4391  12.188  44.247   7.207
   10AU     LIG 4392  12.164  43.878   6.934
   10AU     LIG 4393  12.447  43.595   6.689
   10AU       S 4394  13.089   0.014   7.737
   10AU     LIG 4395  13.005  44.509   7.946
   10AU     LIG 4396  13.280  44.158   7.886
   10AU     LIG 4397  13.392  43.721   8.036
   10AU     LIG 4398  13.305  43.305   8.277
   10AU    AUSL 4399  13.014   1.829   7.014
   10AU    AUSL 4400  13.376   1.713   7.270
   10AU     AUL 4401  13.370   1.948   7.048
   10AU       S 4402  13.093   2.294   6.826
   10AU     LIG 4403  13.300   2.546   6.504
   10AU     LIG 4404  13.248   2.967   6.331
   10AU     LIG 4405  13.236   3.281   5.989
   10AU     LIG 4406  13.127   3.366   5.541
   10AU       S 4407  13.881   1.884   6.958
   10AU     LIG 4408  14.149   2.203   6.728
   10AU     LIG 4409  14.318   2.447   6.361
   10AU     LIG 4410  14.481   2.732   6.028
   10AU     LIG 4411  14.671   3.118   5.858
   10AU    AUSL 4412  12.814   1.879   7.303
   10AU    AUSL 4413  12.702   1.677   6.945
   10AU     AUL 4414  12.693   2.026   7.009
   10AU       S 4415  13.026   2.417   7.050
   10AU     LIG 4416  13.006   2.827   6.816
   10AU     LIG 4417  12.922   3.243   6.649
   10AU     LIG 4418  12.545   3.529   6.624
   10AU     LIG 4419  12.333   3.940   6.660
   10AU       S 4420  12.282   1.956   6.702
   10AU     LIG 4421  12.209   2.132   6.250
   10AU     LIG 4422  12.093   2.407   5.867
   10AU     LIG 4423  11.910   2.597   5.463
   10AU     LIG 4424  11.718   2.917   5.161
   10AU    AUSL 4425  12.879   0.555   7.031
   10AU    AUSL 4426  12.437   0.640   7.220
   10AU     AUL 4427  12.570   0.397   6.979
   10AU       S 4428  12.102   0.487   6.809
   10AU     LIG 4429  11.814   0.098   6.809
   10AU     LIG 4430  11.499  44.708   6.786
   10AU     LIG 4431  11.218  44.356   6.633
   10AU     LIG 4432  10.998  44.316   6.230
   10AU       S 4433  12.858  44.978   7.010
   10AU     LIG 4434  13.092  44.773   6.686
   10AU     LIG 4435  12.963  44.357   6.525
   10AU     LIG 4436  12.845  44.032   6.201
   10AU     LIG 4437  12.740  43.546   6.261
   10AU    AUSL 4438  13.078   0.429   7.302
   10AU    AUSL 4439  13.178   0.704   6.919
   10AU     AUL 4440  13.163   0.368   6.968
   10AU       S 4441  13.063  44.958   7.253
   10AU     LIG 4442  13.016  44.487   7.092
   10AU     LIG 4443  13.301  44.181   6.874
   10AU     LIG 4444  13.396  43.734   6.782
   10AU     LIG 4445  13.067  43.394   6.705
   10AU       S 4446  13.463   0.479   6.594
   10AU     LIG 4447  13.503   0.058   6.415
   10AU     LIG 4448  13.838  44.782   6.283
   10AU     LIG 4449  14.176  44.535   6.082
   10AU     LIG 4450  14.246  44.455   5.626
   11POPC   NC3 4451  40.228   7.033   9.558
   11POPC   PO4 4452  40.076   7.701   9.431
   11POPC   GL1 4453  40.047   7.574   9.031
   11POPC   GL2 4454  40.039   7.209   9.089
   11POPC   C1A 4455  40.134   7.446   8.607
   11POPC   D2A 4456  40.113   7.268   8.192
   11POPC   C3A 4457  39.962   7.459   7.858
   11POPC   C4A 4458  40.219   7.429   7.480
   11POPC   C1B 4459  39.696   7.256   8.811
   11POPC   C2B 4460  39.651   7.398   8.385
   11POPC   C3B 4461  39.565   7.178   8.018
   11POPC   C4B 4462  39.616   7.207   7.571
   12POPC   NC3 4463  30.270  28.846   9.433
   12POPC   PO4 4464  30.810  29.352   9.476
   12POPC   GL1 4465  30.881  29.282   9.071
   12POPC   GL2 4466  30.517  29.333   8.967
   12POPC   C1A 4467  30.965  29.185   8.643
   12POPC   D2A 4468  30.613  29.271   8.374
   12POPC   C3A 4469  30.667  29.284   7.920
   12POPC   C4A 4470  30.822  29.517   7.557
   12POPC   C1B 4471  30.575  28.922   8.819
   12POPC   C2B 4472  30.530  28.754   8.370
   12POPC   C3B 4473  30.659  28.778   7.899
   12POPC   C4B 4474  30.442  29.016   7.546
   13POPC   NC3 4475  20.163   5.580   9.713
   13POPC   PO4 4476  20.753   5.208   9.731
   13POPC   GL1 4477  20.664   5.292   9.297
   13POPC   GL2 4478  20.402   5.072   9.201
   13POPC   C1A 4479  20.780   5.226   8.854
   13POPC   D2A 4480  20.836   4.915   8.539
   13POPC   C3A 4481  20.971   5.131   8.182
   13POPC   C4A 4482  20.738   5.365   7.883
   13POPC   C1B 4483  20.363   4.849   8.801
   13POPC   C2B 4484  20.382   4.660   8.389
   13POPC   C3B 4485  20.656   4.752   8.052
   13POPC   C4B 4486  20.556   4.922   7.659
   14POPC   NC3 4487  17.474  14.786   9.267
   14POPC   PO4 4488  17.852  14.222   9.322
   14POPC   GL1 4489  17.629  14.347   9.017
   14POPC   GL2 4490  17.816  14.649   8.914
   14POPC   C1A 4491  17.697  14.203   8.609
   14POPC   D2A 4492  17.944  13.992   8.323
   14POPC   C3A 4493  17.839  14.298   8.051
   14POPC   C4A 4494  17.543  14.226   7.773
   14POPC   C1B 4495  17.429  14.644   8.630
   14POPC   C2B 4496  17.346  14.571   8.202
   14POPC   C3B 4497  17.052  14.555   7.911
   14POPC   C4B 4498  17.146  14.389   7.533
   15POPC   NC3 4499  38.967  32.372   9.387
   15POPC   PO4 4500  39.607  31.979   9.315
   15POPC   GL1 4501  39.262  32.114   9.081
   15POPC   GL2 4502  39.341  32.469   8.972
   15POPC   C1A 4503  39.045  32.216   8.680
   15POPC   D2A 4504  39.211  32.517   8.386
   15POPC   C3A 4505  39.311  32.339   7.971
   15POPC   C4A 4506  39.002  32.081   7.743
   15POPC   C1B 4507  38.958  32.724   8.812
   15POPC   C2B 4508  38.669  32.743   8.437
   15POPC   C3B 4509  38.801  32.806   8.002
   15POPC   C4B 4510  39.029  32.625   7.653
   16POPC   NC3 4511  15.001  40.442   9.612
   16POPC   PO4 4512  14.732  41.030   9.660
   16POPC   GL1 4513  15.161  40.775   9.280
   16POPC   GL2 4514  15.312  40.421   9.198
   16POPC   C1A 4515  15.253  40.833   8.815
   16POPC   D2A 4516  15.029  40.700   8.416
   16POPC   C3A 4517  15.216  40.786   8.005
   16POPC   C4A 4518  15.541  41.091   7.810
   16POPC   C1B 4519  15.312  40.336   8.750
   16POPC   C2B 4520  15.457  40.362   8.321
   16POPC   C3B 4521  15.236  40.269   7.934
   16POPC   C4B 4522  14.985  40.517   7.628
   17POPC   NC3 4523  28.035  34.101   9.512
   17POPC   PO4 4524  28.325  33.496   9.419
   17POPC   GL1 4525  28.382  33.730   9.087
   17POPC   GL2 4526  28.600  33.979   9.213
   17POPC   C1A 4527  28.214  33.927   8.751
   17POPC   D2A 4528  28.332  34.070   8.363
   17POPC   C3A 4529  28.237  33.796   8.058
   17POPC   C4A 4530  28.186  33.985   7.679
   17POPC   C1B 4531  28.723  33.963   8.756
   17POPC   C2B 4532  28.842  34.130   8.343
   17POPC   C3B 4533  28.670  34.082   7.941
   17POPC   C4B 4534  28.639  34.235   7.530
   18POPC   NC3 4535  33.914  35.262   9.371
   18POPC   PO4 4536  34.588  35.302   9.465
   18POPC   GL1 4537  34.734  35.392   9.043
   18POPC   GL2 4538  35.044  35.201   8.937
   18POPC   C1A 4539  34.526  35.447   8.657
   18POPC   D2A 4540  34.363  35.161   8.333
   18POPC   C3A 4541  34.483  35.276   7.917
   18POPC   C4A 4542  34.571  35.694   7.830
   18POPC   C1B 4543  35.045  35.547   8.664
   18POPC   C2B 4544  34.855  35.557   8.247
   18POPC   C3B 4545  35.040  35.430   7.836
   18POPC   C4B 4546  34.940  35.346   7.385
   19POPC   NC3 4547  44.869  11.936   9.349
   19POPC   PO4 4548   0.480  12.308   9.517
   19POPC   GL1 4549   0.592  12.097   9.137
   19POPC   GL2 4550   0.684  11.735   9.176
   19POPC   C1A 4551   0.449  11.983   8.719
   19POPC   D2A 4552   0.626  12.082   8.313
   19POPC   C3A 4553   0.290  12.197   8.043
   19POPC   C4A 4554   0.216  12.281   7.609
   19POPC   C1B 4555   0.649  11.518   8.801
   19POPC   C2B 4556   0.525  11.548   8.389
   19POPC   C3B 4557   0.727  11.660   8.015
   19POPC   C4B 4558   0.695  12.014   7.771
   20POPC   NC3 4559  21.549  31.968   9.425
   20POPC   PO4 4560  21.370  32.581   9.466
   20POPC   GL1 4561  21.395  32.350   9.066
   20POPC   GL2 4562  21.486  31.995   8.934
   20POPC   C1A 4563  21.661  32.515   8.753
   20POPC   D2A 4564  21.770  32.601   8.337
   20POPC   C3A 4565  21.487  32.411   8.056
   20POPC   C4A 4566  21.216  32.552   7.712
   20POPC   C1B 4567  21.164  32.083   8.645
   20POPC   C2B 4568  21.185  31.985   8.211
   20POPC   C3B 4569  21.201  32.045   7.783
   20POPC   C4B 4570  21.312  31.908   7.388
   21POPC   NC3 4571  41.013  37.600   9.558
   21POPC   PO4 4572  40.354  37.421   9.529
   21POPC   GL1 4573  40.582  37.535   9.145
   21POPC   GL2 4574  40.871  37.760   9.099
   21POPC   C1A 4575  40.500  37.458   8.694
   21POPC   D2A 4576  40.282  37.378   8.281
   21POPC   C3A 4577  40.610  37.303   8.050
   21POPC   C4A 4578  40.800  37.497   7.783
   21POPC   C1B 4579  40.783  37.878   8.690
   21POPC   C2B 4580  40.870  37.656   8.332
   21POPC   C3B 4581  40.839  37.927   8.047
   21POPC   C4B 4582  40.767  38.097   7.732
   22POPC   NC3 4583   5.990  14.258   9.515
   22POPC   PO4 4584   5.976  14.946   9.585
   22POPC   GL1 4585   6.036  14.647   9.195
   22POPC   GL2 4586   5.786  14.423   9.058
   22POPC   C1A 4587   6.182  14.598   8.799
   22POPC   D2A 4588   5.830  14.571   8.507
   22POPC   C3A 4589   5.905  14.562   8.043
   22POPC   C4A 4590   5.785  14.503   7.609
   22POPC   C1B 4591   6.022  14.130   8.772
   22POPC   C2B 4592   6.010  14.133   8.304
   22POPC   C3B 4593   6.052  14.071   7.828
   22POPC   C4B 4594   5.934  14.057   7.386
   23POPC   NC3 4595  27.888  20.198   9.389
   23POPC   PO4 4596  27.361  19.925   9.460
   23POPC   GL1 4597  27.491  19.951   9.049
   23POPC   GL2 4598  27.527  20.300   9.005
   23POPC   C1A 4599  27.271  19.870   8.638
   23POPC   D2A 4600  27.025  19.745   8.259
   23POPC   C3A 4601  27.274  19.726   7.870
   23POPC   C4A 4602  27.753  19.806   7.731
   23POPC   C1B 4603  27.739  20.098   8.636
   23POPC   C2B 4604  27.549  20.030   8.233
   23POPC   C3B 4605  27.462  20.192   7.847
   23POPC   C4B 4606  27.605  20.181   7.386
   24POPC   NC3 4607  19.711   0.246   9.476
   24POPC   PO4 4608  19.388   0.900   9.380
   24POPC   GL1 4609  19.592   0.755   8.998
   24POPC   GL2 4610  19.861   0.518   9.061
   24POPC   C1A 4611  19.648   0.552   8.601
   24POPC   D2A 4612  20.058   0.499   8.385
   24POPC   C3A 4613  19.909   0.389   7.979
   24POPC   C4A 4614  19.909   0.538   7.573
   24POPC   C1B 4615  19.942   0.144   8.819
   24POPC   C2B 4616  19.900   0.029   8.421
   24POPC   C3B 4617  19.591  44.989   8.139
   24POPC   C4B 4618  19.638   0.008   7.721
   25POPC   NC3 4619  28.949   0.471   9.497
   25POPC   PO4 4620  29.445  44.962   9.517
   25POPC   GL1 4621  29.293   0.230   9.160
   25POPC   GL2 4622  29.354   0.626   9.195
   25POPC   C1A 4623  28.986   0.081   8.797
   25POPC   D2A 4624  28.772   0.115   8.359
   25POPC   C3A 4625  29.103   0.100   8.031
   25POPC   C4A 4626  29.304   0.398   7.716
   25POPC   C1B 4627  29.108   0.579   8.829
   25POPC   C2B 4628  29.208   0.406   8.443
   25POPC   C3B 4629  29.286   0.690   8.126
   25POPC   C4B 4630  29.307   0.919   7.756
   26POPC   NC3 4631  15.871  11.425   9.542
   26POPC   PO4 4632  16.549  11.283   9.524
   26POPC   GL1 4633  16.190  11.263   9.168
   26POPC   GL2 4634  15.849  11.065   9.179
   26POPC   C1A 4635  15.887  11.504   8.847
   26POPC   D2A 4636  15.670  11.630   8.424
   26POPC   C3A 4637  15.784  11.512   7.947
   26POPC   C4A 4638  16.153  11.383   7.642
   26POPC   C1B 4639  15.911  11.008   8.739
   26POPC   C2B 4640  15.868  11.154   8.322
   26POPC   C3B 4641  15.934  11.004   7.903
   26POPC   C4B 4642  15.726  11.122   7.508
   27POPC   NC3 4643  43.956  20.136   9.581
   27POPC   PO4 4644  44.083  20.777   9.342
   27POPC   GL1 4645  43.981  20.420   9.143
   27POPC   GL2 4646  43.630  20.341   9.202
   27POPC   C1A 4647  43.965  20.364   8.719
   27POPC   D2A 4648  43.877  20.642   8.368
   27POPC   C3A 4649  44.011  20.579   7.931
   27POPC   C4A 4650  44.051  20.820   7.500
   27POPC   C1B 4651  43.601  20.691   8.867
   27POPC   C2B 4652  43.405  20.799   8.472
   27POPC   C3B 4653  43.542  20.879   8.045
   27POPC   C4B 4654  43.582  20.677   7.652
   28POPC   NC3 4655  37.955  13.410   9.439
   28POPC   PO4 4656  37.505  13.921   9.489
   28POPC   GL1 4657  37.606  13.746   9.072
   28POPC   GL2 4658  37.585  13.383   9.074
   28POPC   C1A 4659  37.772  13.620   8.650
   28POPC   D2A 4660  38.032  13.872   8.332
   28POPC   C3A 4661  37.881  13.886   7.898
   28POPC   C4A 4662  37.606  13.558   7.762
   28POPC   C1B 4663  37.293  13.134   8.874
   28POPC   C2B 4664  37.233  13.140   8.451
   28POPC   C3B 4665  37.273  13.211   8.000
   28POPC   C4B 4666  37.151  13.373   7.628
   29POPC   NC3 4667  10.090  25.119   9.728
   29POPC   PO4 4668   9.542  24.986   9.380
   29POPC   GL1 4669   9.843  25.238   9.128
   29POPC   GL2 4670   9.986  25.527   9.280
   29POPC   C1A 4671   9.839  25.292   8.696
   29POPC   D2A 4672   9.675  25.069   8.318
   29POPC   C3A 4673   9.899  25.184   7.967
   29POPC   C4A 4674   9.762  25.231   7.537
   29POPC   C1B 4675  10.267  25.577   8.918
   29POPC   C2B 4676  10.179  25.610   8.494
   29POPC   C3B 4677   9.809  25.603   8.252
   29POPC   C4B 4678   9.830  25.676   7.810
   30POPC   NC3 4679  30.461  32.635   9.385
   30POPC   PO4 4680  30.170  32.102   9.612
   30POPC   GL1 4681  30.507  32.199   9.151
   30POPC   GL2 4682  30.819  32.336   9.108
   30POPC   C1A 4683  30.594  32.084   8.717
   30POPC   D2A 4684  30.790  32.289   8.380
   30POPC   C3A 4685  30.555  32.169   8.055
   30POPC   C4A 4686  30.609  32.065   7.650
   30POPC   C1B 4687  30.658  32.588   8.778
   30POPC   C2B 4688  30.348  32.528   8.502
   30POPC   C3B 4689  30.319  32.632   8.109
   30POPC   C4B 4690  30.499  32.574   7.746
   31POPC   NC3 4691  32.505   5.937   9.597
   31POPC   PO4 4692  33.184   5.768   9.555
   31POPC   GL1 4693  33.053   5.936   9.167
   31POPC   GL2 4694  33.332   5.777   9.026
   31POPC   C1A 4695  33.129   6.142   8.730
   31POPC   D2A 4696  33.342   6.136   8.314
   31POPC   C3A 4697  33.085   6.232   7.962
   31POPC   C4A 4698  32.626   6.140   7.898
   31POPC   C1B 4699  32.942   5.673   8.760
   31POPC   C2B 4700  32.836   5.851   8.344
   31POPC   C3B 4701  33.026   5.731   7.960
   31POPC   C4B 4702  33.445   5.825   7.774
   32POPC   NC3 4703   6.155  11.743   9.414
   32POPC   PO4 4704   6.451  12.274   9.714
   32POPC   GL1 4705   6.394  12.194   9.252
   32POPC   GL2 4706   6.529  11.926   9.134
   32POPC   C1A 4707   6.323  12.287   8.807
   32POPC   D2A 4708   6.599  12.400   8.463
   32POPC   C3A 4709   6.611  12.159   8.074
   32POPC   C4A 4710   7.023  12.155   7.892
   32POPC   C1B 4711   6.611  11.832   8.761
   32POPC   C2B 4712   6.671  11.729   8.364
   32POPC   C3B 4713   6.765  11.648   7.962
   32POPC   C4B 4714   6.872  11.780   7.580
   33POPC   NC3 4715  25.502  29.345   9.690
   33POPC   PO4 4716  24.943  29.213   9.309
   33POPC   GL1 4717  25.338  29.314   9.080
   33POPC   GL2 4718  25.157  29.115   8.845
   33POPC   C1A 4719  25.616  29.155   8.674
   33POPC   D2A 4720  25.414  29.144   8.230
   33POPC   C3A 4721  25.276  28.757   7.965
   33POPC   C4A 4722  25.327  28.721   7.490
   33POPC   C1B 4723  24.997  29.548   8.733
   33POPC   C2B 4724  24.789  29.789   8.395
   33POPC   C3B 4725  24.946  29.706   7.992
   33POPC   C4B 4726  25.136  29.336   7.809
   34POPC   NC3 4727  32.608  10.956  10.013
   34POPC   PO4 4728  33.147  10.729   9.660
   34POPC   GL1 4729  33.174  10.808   9.225
   34POPC   GL2 4730  32.849  10.716   9.106
   34POPC   C1A 4731  33.233  10.897   8.778
   34POPC   D2A 4732  33.493  10.702   8.452
   34POPC   C3A 4733  33.309  10.701   8.050
   34POPC   C4A 4734  33.302  10.285   7.925
   34POPC   C1B 4735  32.625  10.491   8.768
   34POPC   C2B 4736  32.527  10.412   8.329
   34POPC   C3B 4737  32.801  10.450   7.968
   34POPC   C4B 4738  32.988  10.619   7.585
   35POPC   NC3 4739   8.196   8.313   9.524
   35POPC   PO4 4740   7.861   7.712   9.343
   35POPC   GL1 4741   8.023   8.090   9.084
   35POPC   GL2 4742   7.993   8.482   9.095
   35POPC   C1A 4743   8.227   8.239   8.715
   35POPC   D2A 4744   8.372   8.424   8.340
   35POPC   C3A 4745   8.427   8.146   8.021
   35POPC   C4A 4746   8.332   8.257   7.634
   35POPC   C1B 4747   7.755   8.470   8.723
   35POPC   C2B 4748   7.861   8.256   8.340
   35POPC   C3B 4749   8.004   8.429   7.969
   35POPC   C4B 4750   7.895   8.483   7.535
   36POPC   NC3 4751  26.411  27.305   9.342
   36POPC   PO4 4752  25.748  27.655   9.498
   36POPC   GL1 4753  25.999  27.563   9.152
   36POPC   GL2 4754  26.310  27.754   9.113
   36POPC   C1A 4755  26.035  27.578   8.725
   36POPC   D2A 4756  25.746  27.573   8.401
   36POPC   C3A 4757  25.929  27.492   8.022
   36POPC   C4A 4758  25.997  27.426   7.606
   36POPC   C1B 4759  26.459  27.903   8.738
   36POPC   C2B 4760  26.111  28.006   8.489
   36POPC   C3B 4761  26.039  28.007   8.097
   36POPC   C4B 4762  26.197  27.887   7.737
   37POPC   NC3 4763   5.108  28.579   9.590
   37POPC   PO4 4764   4.486  28.593   9.566
   37POPC   GL1 4765   4.765  28.441   9.200
   37POPC   GL2 4766   5.153  28.414   9.120
   37POPC   C1A 4767   4.846  28.359   8.744
   37POPC   D2A 4768   5.112  28.565   8.444
   37POPC   C3A 4769   4.932  28.438   8.062
   37POPC   C4A 4770   4.851  28.579   7.659
   37POPC   C1B 4771   5.301  28.150   8.756
   37POPC   C2B 4772   5.154  28.062   8.332
   37POPC   C3B 4773   5.446  28.187   8.029
   37POPC   C4B 4774   5.603  27.923   7.711
   38POPC   NC3 4775  24.261  10.915   9.365
   38POPC   PO4 4776  24.838  10.653   9.618
   38POPC   GL1 4777  24.582  10.511   9.268
   38POPC   GL2 4778  24.790  10.507   8.984
   38POPC   C1A 4779  24.320  10.444   8.870
   38POPC   D2A 4780  24.574  10.506   8.492
   38POPC   C3A 4781  24.317  10.464   8.143
   38POPC   C4A 4782  24.250  10.587   7.723
   38POPC   C1B 4783  25.070  10.756   8.741
   38POPC   C2B 4784  25.049  10.893   8.319
   38POPC   C3B 4785  24.759  10.716   8.029
   38POPC   C4B 4786  24.717  10.792   7.623
   39POPC   NC3 4787  43.874  15.810   9.591
   39POPC   PO4 4788  44.156  16.353   9.315
   39POPC   GL1 4789  43.735  16.114   9.200
   39POPC   GL2 4790  43.671  15.720   9.148
   39POPC   C1A 4791  43.596  16.079   8.769
   39POPC   D2A 4792  43.916  16.217   8.467
   39POPC   C3A 4793  43.785  16.263   8.039
   39POPC   C4A 4794  43.989  16.113   7.668
   39POPC   C1B 4795  43.947  15.708   8.783
   39POPC   C2B 4796  43.909  15.665   8.307
   39POPC   C3B 4797  43.695  15.765   7.892
   39POPC   C4B 4798  43.548  15.532   7.508
   40POPC   NC3 4799  41.267  38.460   9.460
   40POPC   PO4 4800  41.912  38.475   9.519
   40POPC   GL1 4801  41.659  38.529   9.162
   40POPC   GL2 4802  41.581  38.179   9.116
   40POPC   C1A 4803  41.484  38.568   8.741
   40POPC   D2A 4804  41.568  38.460   8.305
   40POPC   C3A 4805  41.402  38.684   7.936
   40POPC   C4A 4806  41.553  38.483   7.583
   40POPC   C1B 4807  41.237  38.061   8.848
   40POPC   C2B 4808  41.163  38.116   8.392
   40POPC   C3B 4809  41.279  38.193   7.943
   40POPC   C4B 4810  41.209  38.137   7.511
   41POPC   NC3 4811  36.021  39.047   9.581
   41POPC   PO4 4812  36.422  39.551   9.333
   41POPC   GL1 4813  36.205  39.436   8.984
   41POPC   GL2 4814  35.907  39.277   9.090
   41POPC   C1A 4815  36.157  39.133   8.653
   41POPC   D2A 4816  36.375  38.940   8.332
   41POPC   C3A 4817  36.144  38.998   7.980
   41POPC   C4A 4818  36.327  39.148   7.642
   41POPC   C1B 4819  35.628  39.176   8.759
   41POPC   C2B 4820  35.719  39.079   8.320
   41POPC   C3B 4821  35.623  39.004   7.891
   41POPC   C4B 4822  35.837  39.089   7.497
   42POPC   NC3 4823  41.427  40.305   9.330
   42POPC   PO4 4824  41.614  39.593   9.508
   42POPC   GL1 4825  41.706  39.888   9.219
   42POPC   GL2 4826  41.353  39.816   9.120
   42POPC   C1A 4827  41.859  39.913   8.799
   42POPC   D2A 4828  41.717  39.748   8.401
   42POPC   C3A 4829  41.703  39.978   8.034
   42POPC   C4A 4830  41.545  40.364   7.904
   42POPC   C1B 4831  41.368  40.040   8.748
   42POPC   C2B 4832  41.304  40.119   8.345
   42POPC   C3B 4833  41.180  39.969   7.973
   42POPC   C4B 4834  41.362  39.690   7.698
   43POPC   NC3 4835  33.794  11.707   9.484
   43POPC   PO4 4836  34.013  11.099   9.664
   43POPC   GL1 4837  33.874  11.229   9.242
   43POPC   GL2 4838  34.129  11.445   9.133
   43POPC   C1A 4839  33.731  11.345   8.807
   43POPC   D2A 4840  33.499  11.200   8.432
   43POPC   C3A 4841  33.620  11.124   7.994
   43POPC   C4A 4842  33.669  11.382   7.614
   43POPC   C1B 4843  34.229  11.186   8.739
   43POPC   C2B 4844  34.009  11.195   8.352
   43POPC   C3B 4845  34.036  11.402   7.956
   43POPC   C4B 4846  34.183  11.265   7.572
   44POPC   NC3 4847   1.524  40.552   9.361
   44POPC   PO4 4848   2.216  40.382   9.415
   44POPC   GL1 4849   2.143  40.653   9.076
   44POPC   GL2 4850   1.875  40.848   9.152
   44POPC   C1A 4851   1.978  40.704   8.635
   44POPC   D2A 4852   2.041  40.841   8.207
   44POPC   C3A 4853   1.818  40.685   7.836
   44POPC   C4A 4854   1.865  40.705   7.367
   44POPC   C1B 4855   1.673  41.071   8.834
   44POPC   C2B 4856   1.817  41.247   8.466
   44POPC   C3B 4857   1.825  41.258   8.008
   44POPC   C4B 4858   1.631  41.097   7.622
   45POPC   NC3 4859  36.422   1.740   9.355
   45POPC   PO4 4860  36.171   1.191   9.664
   45POPC   GL1 4861  36.272   1.245   9.222
   45POPC   GL2 4862  36.206   0.913   9.122
   45POPC   C1A 4863  36.173   1.429   8.807
   45POPC   D2A 4864  36.208   1.353   8.358
   45POPC   C3A 4865  35.890   1.511   8.085
   45POPC   C4A 4866  35.816   1.524   7.651
   45POPC   C1B 4867  36.051   0.942   8.691
   45POPC   C2B 4868  36.247   0.858   8.299
   45POPC   C3B 4869  36.171   1.057   7.888
   45POPC   C4B 4870  36.414   0.839   7.512
   46POPC   NC3 4871   3.844   2.799   9.522
   46POPC   PO4 4872   3.304   2.631   9.849
   46POPC   GL1 4873   3.345   2.700   9.374
   46POPC   GL2 4874   3.426   2.419   9.182
   46POPC   C1A 4875   3.504   2.855   8.939
   46POPC   D2A 4876   3.436   2.902   8.475
   46POPC   C3A 4877   3.662   2.830   8.073
   46POPC   C4A 4878   3.471   2.657   7.709
   46POPC   C1B 4879   3.752   2.381   8.831
   46POPC   C2B 4880   3.779   2.483   8.431
   46POPC   C3B 4881   3.654   2.310   8.036
   46POPC   C4B 4882   3.838   2.281   7.640
   47POPC   NC3 4883  23.168  17.874   9.647
   47POPC   PO4 4884  22.571  18.176   9.358
   47POPC   GL1 4885  22.758  18.254   9.016
   47POPC   GL2 4886  23.084  18.282   9.151
   47POPC   C1A 4887  22.769  18.071   8.609
   47POPC   D2A 4888  22.590  18.301   8.274
   47POPC   C3A 4889  22.628  18.050   7.930
   47POPC   C4A 4890  23.053  18.036   7.799
   47POPC   C1B 4891  23.129  18.435   8.714
   47POPC   C2B 4892  23.134  18.242   8.301
   47POPC   C3B 4893  23.502  18.117   8.076
   47POPC   C4B 4894  23.559  17.992   7.649
   48POPC   NC3 4895  44.546  23.378   9.540
   48POPC   PO4 4896   0.092  23.722   9.764
   48POPC   GL1 4897  44.804  23.717   9.269
   48POPC   GL2 4898  44.813  23.381   9.093
   48POPC   C1A 4899  44.945  23.749   8.772
   48POPC   D2A 4900  44.771  23.888   8.373
   48POPC   C3A 4901  44.889  23.701   7.953
   48POPC   C4A 4902  44.663  23.891   7.588
   48POPC   C1B 4903  44.479  23.546   8.826
   48POPC   C2B 4904  44.326  23.591   8.416
   48POPC   C3B 4905  44.402  23.707   8.022
   48POPC   C4B 4906  44.550  23.367   7.751
   49POPC   NC3 4907  26.028  19.355   9.476
   49POPC   PO4 4908  25.666  19.917   9.484
   49POPC   GL1 4909  25.825  19.798   9.117
   49POPC   GL2 4910  26.125  19.935   8.992
   49POPC   C1A 4911  25.709  19.950   8.705
   49POPC   D2A 4912  25.862  19.797   8.305
   49POPC   C3A 4913  26.012  20.039   7.984
   49POPC   C4A 4914  26.415  20.156   7.846
   49POPC   C1B 4915  26.069  19.564   8.732
   49POPC   C2B 4916  26.199  19.396   8.332
   49POPC   C3B 4917  26.179  19.559   7.931
   49POPC   C4B 4918  25.842  19.499   7.675
   50POPC   NC3 4919  38.162   8.519   9.429
   50POPC   PO4 4920  37.508   8.851   9.512
   50POPC   GL1 4921  37.470   9.020   9.139
   50POPC   GL2 4922  37.810   9.050   9.113
   50POPC   C1A 4923  37.455   9.187   8.756
   50POPC   D2A 4924  37.489   9.019   8.372
   50POPC   C3A 4925  37.570   9.109   7.969
   50POPC   C4A 4926  37.512   8.759   7.707
   50POPC   C1B 4927  37.976   8.818   8.802
   50POPC   C2B 4928  37.762   8.612   8.502
   50POPC   C3B 4929  37.866   8.703   8.105
   50POPC   C4B 4930  37.908   8.466   7.737
   51POPC   NC3 4931  25.986   3.131   9.363
   51POPC   PO4 4932  26.046   2.535   9.506
   51POPC   GL1 4933  26.115   2.683   9.126
   51POPC   GL2 4934  26.422   2.560   9.046
   51POPC   C1A 4935  25.967   2.561   8.739
   51POPC   D2A 4936  25.756   2.592   8.361
   51POPC   C3A 4937  25.924   2.837   8.051
   51POPC   C4A 4938  25.862   2.950   7.630
   51POPC   C1B 4939  26.417   2.811   8.715
   51POPC   C2B 4940  26.546   2.985   8.349
   51POPC   C3B 4941  26.454   2.820   7.940
   51POPC   C4B 4942  26.340   3.058   7.602
   52POPC   NC3 4943  35.029  10.224   9.543
   52POPC   PO4 4944  35.427  10.815   9.551
   52POPC   GL1 4945  35.478  10.628   9.148
   52POPC   GL2 4946  35.433  10.269   9.201
   52POPC   C1A 4947  35.309  10.778   8.766
   52POPC   D2A 4948  35.178  10.556   8.382
   52POPC   C3A 4949  35.369  10.635   7.977
   52POPC   C4A 4950  35.102  10.673   7.606
   52POPC   C1B 4951  35.391  10.273   8.761
   52POPC   C2B 4952  35.553  10.195   8.345
   52POPC   C3B 4953  35.671  10.172   7.919
   52POPC   C4B 4954  35.534  10.010   7.507
   53POPC   NC3 4955  34.266  28.817   9.496
   53POPC   PO4 4956  33.748  29.247   9.595
   53POPC   GL1 4957  33.887  29.083   9.182
   53POPC   GL2 4958  34.004  28.723   9.080
   53POPC   C1A 4959  33.696  29.291   8.786
   53POPC   D2A 4960  33.680  29.464   8.351
   53POPC   C3A 4961  33.699  29.186   7.943
   53POPC   C4A 4962  33.428  29.233   7.585
   53POPC   C1B 4963  34.091  28.972   8.723
   53POPC   C2B 4964  34.014  29.064   8.328
   53POPC   C3B 4965  34.215  28.993   7.946
   53POPC   C4B 4966  34.082  29.142   7.540
   54POPC   NC3 4967  22.990   4.470   9.655
   54POPC   PO4 4968  22.643   3.901   9.485
   54POPC   GL1 4969  22.864   4.236   9.196
   54POPC   GL2 4970  22.781   4.626   9.150
   54POPC   C1A 4971  22.999   4.386   8.764
   54POPC   D2A 4972  23.284   4.502   8.420
   54POPC   C3A 4973  23.072   4.399   8.020
   54POPC   C4A 4974  23.196   4.169   7.646
   54POPC   C1B 4975  22.551   4.705   8.711
   54POPC   C2B 4976  22.458   4.668   8.247
   54POPC   C3B 4977  22.565   4.548   7.801
   54POPC   C4B 4978  22.786   4.427   7.412
   55POPC   NC3 4979  37.911  23.048   9.505
   55POPC   PO4 4980  37.432  22.963   9.980
   55POPC   GL1 4981  37.429  22.944   9.408
   55POPC   GL2 4982  37.698  22.682   9.246
   55POPC   C1A 4983  37.476  22.963   8.895
   55POPC   D2A 4984  37.422  22.997   8.414
   55POPC   C3A 4985  37.656  22.779   8.102
   55POPC   C4A 4986  37.665  22.877   7.682
   55POPC   C1B 4987  37.963  22.810   8.866
   55POPC   C2B 4988  37.928  23.047   8.476
   55POPC   C3B 4989  38.086  23.051   8.037
   55POPC   C4B 4990  38.136  22.719   7.739
   56POPC   NC3 4991  11.437   3.976   9.572
   56POPC   PO4 4992  11.208   4.597   9.564
   56POPC   GL1 4993  11.230   4.604   9.143
   56POPC   GL2 4994  10.897   4.704   9.111
   56POPC   C1A 4995  11.413   4.320   8.836
   56POPC   D2A 4996  11.637   4.190   8.476
   56POPC   C3A 4997  11.388   4.276   8.114
   56POPC   C4A 4998  11.429   4.404   7.704
   56POPC   C1B 4999  10.905   4.259   8.926
   56POPC   C2B 5000  11.033   4.017   8.547
   56POPC   C3B 5001  10.990   3.941   8.094
   56POPC   C4B 5002  10.939   4.246   7.779
   57POPC   NC3 5003  43.339  35.203   9.645
   57POPC   PO4 5004  43.726  35.727   9.725
   57POPC   GL1 5005  43.997  35.457   9.227
   57POPC   GL2 5006  44.125  35.157   9.035
   57POPC   C1A 5007  43.881  35.514   8.767
   57POPC   D2A 5008  44.095  35.360   8.409
   57POPC   C3A 5009  43.852  35.470   8.078
   57POPC   C4A 5010  43.947  35.564   7.686
   57POPC   C1B 5011  43.817  35.008   8.676
   57POPC   C2B 5012  43.600  35.045   8.273
   57POPC   C3B 5013  43.738  35.013   7.837
   57POPC   C4B 5014  43.747  34.829   7.425
   58POPC   NC3 5015  33.436  17.249   9.380
   58POPC   PO4 5016  32.903  17.628   9.480
   58POPC   GL1 5017  33.029  17.495   9.115
   58POPC   GL2 5018  33.072  17.848   8.993
   58POPC   C1A 5019  32.871  17.480   8.709
   58POPC   D2A 5020  32.867  17.830   8.464
   58POPC   C3A 5021  32.993  17.750   8.062
   58POPC   C4A 5022  32.969  17.335   7.879
   58POPC   C1B 5023  33.379  17.598   8.760
   58POPC   C2B 5024  33.544  17.675   8.365
   58POPC   C3B 5025  33.461  17.576   7.940
   58POPC   C4B 5026  33.341  17.664   7.527
   59POPC   NC3 5027  33.124   3.644   9.747
   59POPC   PO4 5028  32.628   3.319   9.561
   59POPC   GL1 5029  32.805   3.624   9.261
   59POPC   GL2 5030  33.174   3.649   9.233
   59POPC   C1A 5031  32.860   3.517   8.819
   59POPC   D2A 5032  32.693   3.380   8.414
   59POPC   C3A 5033  32.874   3.524   8.029
   59POPC   C4A 5034  32.942   3.322   7.652
   59POPC   C1B 5035  33.337   3.696   8.803
   59POPC   C2B 5036  33.148   3.756   8.418
   59POPC   C3B 5037  33.350   3.786   8.027
   59POPC   C4B 5038  33.316   3.628   7.703
   60POPC   NC3 5039  31.441   9.905   9.524
   60POPC   PO4 5040  31.146   9.374   9.113
   60POPC   GL1 5041  31.534   9.665   9.063
   60POPC   GL2 5042  31.485  10.003   9.039
   60POPC   C1A 5043  31.774   9.870   8.672
   60POPC   D2A 5044  31.568  10.009   8.268
   60POPC   C3A 5045  31.529   9.707   7.945
   60POPC   C4A 5046  31.765   9.422   7.703
   60POPC   C1B 5047  31.401  10.278   8.687
   60POPC   C2B 5048  31.076  10.438   8.430
   60POPC   C3B 5049  31.038  10.349   8.018
   60POPC   C4B 5050  31.358  10.153   7.775
   61POPC   NC3 5051  33.518  35.780   9.425
   61POPC   PO4 5052  33.458  35.090   9.427
   61POPC   GL1 5053  33.560  35.206   9.015
   61POPC   GL2 5054  33.650  35.551   8.993
   61POPC   C1A 5055  33.912  35.188   8.706
   61POPC   D2A 5056  33.846  35.152   8.283
   61POPC   C3A 5057  34.014  35.475   8.056
   61POPC   C4A 5058  34.067  35.489   7.639
   61POPC   C1B 5059  33.513  35.480   8.568
   61POPC   C2B 5060  33.471  35.486   8.134
   61POPC   C3B 5061  33.603  35.286   7.793
   61POPC   C4B 5062  33.603  35.387   7.364
   62POPC   NC3 5063  33.642  27.999   9.555
   62POPC   PO4 5064  33.936  28.498   9.555
   62POPC   GL1 5065  33.617  28.414   9.233
   62POPC   GL2 5066  33.848  28.210   9.121
   62POPC   C1A 5067  33.470  28.324   8.799
   62POPC   D2A 5068  33.709  28.308   8.386
   62POPC   C3A 5069  33.773  28.643   8.068
   62POPC   C4A 5070  33.989  28.634   7.672
   62POPC   C1B 5071  34.093  28.307   8.771
   62POPC   C2B 5072  34.178  28.075   8.396
   62POPC   C3B 5073  34.097  28.182   7.990
   62POPC   C4B 5074  33.763  28.139   7.755
   63POPC   NC3 5075  41.210  40.831   9.544
   63POPC   PO4 5076  41.847  40.519   9.374
   63POPC   GL1 5077  41.564  40.785   9.152
   63POPC   GL2 5078  41.858  40.843   8.980
   63POPC   C1A 5079  41.383  40.813   8.713
   63POPC   D2A 5080  41.306  40.629   8.292
   63POPC   C3A 5081  41.360  40.847   7.916
   63POPC   C4A 5082  41.076  41.096   7.775
   63POPC   C1B 5083  41.836  41.052   8.644
   63POPC   C2B 5084  41.662  41.035   8.285
   63POPC   C3B 5085  41.862  41.051   7.905
   63POPC   C4B 5086  41.666  41.068   7.525
   64POPC   NC3 5087  26.917  19.999   9.522
   64POPC   PO4 5088  26.349  19.694   9.411
   64POPC   GL1 5089  26.626  19.983   9.092
   64POPC   GL2 5090  26.999  20.063   9.046
   64POPC   C1A 5091  26.726  19.968   8.632
   64POPC   D2A 5092  26.479  19.829   8.261
   64POPC   C3A 5093  26.674  19.697   7.867
   64POPC   C4A 5094  26.676  19.887   7.466
   64POPC   C1B 5095  27.100  20.332   8.733
   64POPC   C2B 5096  27.065  20.251   8.293
   64POPC   C3B 5097  26.938  20.141   7.886
   64POPC   C4B 5098  27.085  20.184   7.455
   65POPC   NC3 5099  33.868  20.930   9.555
   65POPC   PO4 5100  33.693  20.311   9.320
   65POPC   GL1 5101  33.832  20.629   9.141
   65POPC   GL2 5102  33.627  20.867   9.042
   65POPC   C1A 5103  33.999  20.637   8.770
   65POPC   D2A 5104  33.765  20.725   8.421
   65POPC   C3A 5105  33.851  20.427   8.093
   65POPC   C4A 5106  33.982  20.622   7.731
   65POPC   C1B 5107  33.283  20.927   8.733
   65POPC   C2B 5108  33.268  20.950   8.288
   65POPC   C3B 5109  33.552  20.860   7.956
   65POPC   C4B 5110  33.460  20.835   7.534
   66POPC   NC3 5111  43.942  43.517   9.320
   66POPC   PO4 5112  43.677  44.061   9.681
   66POPC   GL1 5113  43.847  44.054   9.238
   66POPC   GL2 5114  44.199  44.247   9.250
   66POPC   C1A 5115  43.789  43.854   8.794
   66POPC   D2A 5116  43.629  43.601   8.453
   66POPC   C3A 5117  43.631  43.869   8.109
   66POPC   C4A 5118  43.890  43.851   7.760
   66POPC   C1B 5119  44.123  44.253   8.801
   66POPC   C2B 5120  43.936  44.208   8.386
   66POPC   C3B 5121  44.066  44.286   7.954
   66POPC   C4B 5122  44.128  44.220   7.485
   67POPC   NC3 5123  42.089  10.823   9.155
   67POPC   PO4 5124  42.313  10.346   9.641
   67POPC   GL1 5125  42.237  10.330   9.179
   67POPC   GL2 5126  41.872  10.341   9.100
   67POPC   C1A 5127  42.392  10.449   8.731
   67POPC   D2A 5128  42.286  10.715   8.332
   67POPC   C3A 5129  42.361  10.493   7.943
   67POPC   C4A 5130  42.694  10.155   7.855
   67POPC   C1B 5131  41.890  10.492   8.625
   67POPC   C2B 5132  41.774  10.824   8.324
   67POPC   C3B 5133  41.890  10.789   7.888
   67POPC   C4B 5134  42.245  10.787   7.538
   68POPC   NC3 5135  44.917  21.757   9.541
   68POPC   PO4 5136  44.304  21.421   9.551
   68POPC   GL1 5137  44.632  21.361   9.204
   68POPC   GL2 5138  44.746  21.655   9.053
   68POPC   C1A 5139  44.607  21.092   8.805
   68POPC   D2A 5140  44.776  20.843   8.430
   68POPC   C3A 5141  44.752  21.100   8.025
   68POPC   C4A 5142  44.990  21.284   7.667
   68POPC   C1B 5143  44.383  21.557   8.747
   68POPC   C2B 5144  44.412  21.441   8.280
   68POPC   C3B 5145  44.680  21.616   7.919
   68POPC   C4B 5146  44.995  21.835   7.630
   69POPC   NC3 5147  34.252   3.004   9.580
   69POPC   PO4 5148  34.930   2.761   9.665
   69POPC   GL1 5149  34.655   2.885   9.281
   69POPC   GL2 5150  34.385   2.627   9.212
   69POPC   C1A 5151  34.558   2.994   8.830
   69POPC   D2A 5152  34.738   2.878   8.412
   69POPC   C3A 5153  34.702   3.133   8.055
   69POPC   C4A 5154  34.421   3.050   7.713
   69POPC   C1B 5155  34.368   2.528   8.769
   69POPC   C2B 5156  34.245   2.677   8.380
   69POPC   C3B 5157  34.409   2.591   7.996
   69POPC   C4B 5158  34.765   2.695   7.815
   70POPC   NC3 5159   1.613   8.519   9.504
   70POPC   PO4 5160   2.048   8.173   9.511
   70POPC   GL1 5161   1.935   8.333   9.091
   70POPC   GL2 5162   2.267   8.419   9.012
   70POPC   C1A 5163   1.943   8.277   8.615
   70POPC   D2A 5164   1.694   8.328   8.231
   70POPC   C3A 5165   1.798   8.169   7.812
   70POPC   C4A 5166   2.203   8.289   7.562
   70POPC   C1B 5167   2.106   8.746   8.757
   70POPC   C2B 5168   1.952   8.748   8.335
   70POPC   C3B 5169   1.927   8.661   7.868
   70POPC   C4B 5170   1.916   8.702   7.402
   71POPC   NC3 5171   6.594  10.351   9.571
   71POPC   PO4 5172   6.519  10.938   9.162
   71POPC   GL1 5173   6.395  10.558   9.127
   71POPC   GL2 5174   6.169  10.653   8.865
   71POPC   C1A 5175   6.536  10.311   8.791
   71POPC   D2A 5176   6.844  10.498   8.482
   71POPC   C3A 5177   6.706  10.465   8.061
   71POPC   C4A 5178   6.746  10.474   7.658
   71POPC   C1B 5179   6.241  10.950   8.563
   71POPC   C2B 5180   6.514  10.884   8.270
   71POPC   C3B 5181   6.449  10.881   7.840
   71POPC   C4B 5182   6.454  11.252   7.608
   72POPC   NC3 5183  29.143   2.223   9.490
   72POPC   PO4 5184  28.814   1.622   9.573
   72POPC   GL1 5185  29.035   1.819   9.186
   72POPC   GL2 5186  29.396   1.909   9.179
   72POPC   C1A 5187  28.913   2.099   8.845
   72POPC   D2A 5188  28.995   2.307   8.454
   72POPC   C3A 5189  28.780   2.230   8.057
   72POPC   C4A 5190  28.833   2.328   7.630
   72POPC   C1B 5191  29.407   2.089   8.782
   72POPC   C2B 5192  29.346   1.933   8.389
   72POPC   C3B 5193  29.295   2.169   8.043
   72POPC   C4B 5194  29.302   2.160   7.647
   73POPC   NC3 5195  22.018  41.061   9.939
   73POPC   PO4 5196  21.869  40.476   9.617
   73POPC   GL1 5197  22.079  40.669   9.266
   73POPC   GL2 5198  22.295  40.894   9.395
   73POPC   C1A 5199  22.161  40.600   8.826
   73POPC   D2A 5200  22.332  40.558   8.397
   73POPC   C3A 5201  22.012  40.581   8.076
   73POPC   C4A 5202  22.033  40.354   7.711
   73POPC   C1B 5203  22.376  41.057   8.961
   73POPC   C2B 5204  22.496  41.087   8.500
   73POPC   C3B 5205  22.354  41.035   8.073
   73POPC   C4B 5206  22.093  41.296   7.797
   74POPC   NC3 5207  16.901  43.576   9.537
   74POPC   PO4 5208  16.862  42.935   9.546
   74POPC   GL1 5209  16.679  42.992   9.161
   74POPC   GL2 5210  16.541  43.302   9.233
   74POPC   C1A 5211  16.731  42.955   8.702
   74POPC   D2A 5212  16.628  43.135   8.300
   74POPC   C3A 5213  16.738  43.122   7.884
   74POPC   C4A 5214  16.321  43.104   7.770
   74POPC   C1B 5215  16.915  43.378   8.933
   74POPC   C2B 5216  16.906  43.510   8.534
   74POPC   C3B 5217  17.023  43.445   8.163
   74POPC   C4B 5218  16.895  43.599   7.774
   75POPC   NC3 5219  39.554  36.567   9.517
   75POPC   PO4 5220  39.069  37.064   9.480
   75POPC   GL1 5221  39.395  36.946   9.172
   75POPC   GL2 5222  39.709  36.742   9.065
   75POPC   C1A 5223  39.325  36.931   8.747
   75POPC   D2A 5224  39.166  36.710   8.408
   75POPC   C3A 5225  39.237  36.877   8.010
   75POPC   C4A 5226  39.156  37.011   7.578
   75POPC   C1B 5227  39.622  36.529   8.669
   75POPC   C2B 5228  39.681  36.823   8.329
   75POPC   C3B 5229  39.724  36.882   7.890
   75POPC   C4B 5230  39.489  36.609   7.600
   76POPC   NC3 5231  33.640  41.517   9.295
   76POPC   PO4 5232  33.091  41.613   9.650
   76POPC   GL1 5233  33.076  41.661   9.182
   76POPC   GL2 5234  33.326  41.905   9.095
   76POPC   C1A 5235  32.981  41.483   8.750
   76POPC   D2A 5236  32.703  41.214   8.427
   76POPC   C3A 5237  32.641  41.399   8.033
   76POPC   C4A 5238  32.895  41.428   7.710
   76POPC   C1B 5239  33.239  41.925   8.652
   76POPC   C2B 5240  33.061  41.706   8.281
   76POPC   C3B 5241  33.318  41.578   7.935
   76POPC   C4B 5242  33.342  41.698   7.520
   77POPC   NC3 5243   3.237  21.050   9.531
   77POPC   PO4 5244   3.589  21.629   9.686
   77POPC   GL1 5245   3.609  21.695   9.227
   77POPC   GL2 5246   3.400  21.396   9.151
   77POPC   C1A 5247   3.689  21.582   8.781
   77POPC   D2A 5248   3.501  21.516   8.383
   77POPC   C3A 5249   3.824  21.581   8.092
   77POPC   C4A 5250   3.866  21.361   7.718
   77POPC   C1B 5251   3.347  21.127   8.775
   77POPC   C2B 5252   3.146  21.126   8.341
   77POPC   C3B 5253   3.410  21.196   7.938
   77POPC   C4B 5254   3.419  21.304   7.468
   78POPC   NC3 5255  11.907  13.139   9.522
   78POPC   PO4 5256  12.370  12.608   9.467
   78POPC   GL1 5257  12.055  12.683   9.150
   78POPC   GL2 5258  12.149  12.995   9.114
   78POPC   C1A 5259  11.945  12.782   8.712
   78POPC   D2A 5260  11.750  12.772   8.328
   78POPC   C3A 5261  12.023  12.578   8.056
   78POPC   C4A 5262  12.061  12.670   7.624
   78POPC   C1B 5263  12.360  13.085   8.713
   78POPC   C2B 5264  12.170  13.092   8.311
   78POPC   C3B 5265  11.934  13.092   7.953
   78POPC   C4B 5266  12.154  13.164   7.602
   79POPC   NC3 5267  21.095  14.808   9.469
   79POPC   PO4 5268  21.536  15.328   9.434
   79POPC   GL1 5269  21.282  15.154   9.126
   79POPC   GL2 5270  21.416  14.812   9.060
   79POPC   C1A 5271  21.335  15.164   8.688
   79POPC   D2A 5272  21.645  15.262   8.400
   79POPC   C3A 5273  21.533  15.417   8.030
   79POPC   C4A 5274  21.150  15.462   7.842
   79POPC   C1B 5275  21.193  14.653   8.729
   79POPC   C2B 5276  21.131  14.800   8.350
   79POPC   C3B 5277  21.396  14.898   8.052
   79POPC   C4B 5278  21.270  14.999   7.684
   80POPC   NC3 5279   4.563  44.892   9.391
   80POPC   PO4 5280   3.992  44.621   9.367
   80POPC   GL1 5281   4.131  44.569   8.956
   80POPC   GL2 5282   4.463  44.652   8.964
   80POPC   C1A 5283   4.325  44.287   8.634
   80POPC   D2A 5284   4.663  44.119   8.369
   80POPC   C3A 5285   4.515  44.202   7.964
   80POPC   C4A 5286   4.366  44.543   7.707
   80POPC   C1B 5287   4.409  44.815   8.577
   80POPC   C2B 5288   4.165   0.117   8.363
   80POPC   C3B 5289   4.236  44.942   7.987
   80POPC   C4B 5290   4.613  44.995   7.707
   81POPC   NC3 5291   5.325   3.919   9.658
   81POPC   PO4 5292   5.189   4.574   9.594
   81POPC   GL1 5293   5.202   4.238   9.266
   81POPC   GL2 5294   4.941   3.985   9.289
   81POPC   C1A 5295   5.200   4.246   8.825
   81POPC   D2A 5296   5.431   4.059   8.505
   81POPC   C3A 5297   5.235   4.165   8.131
   81POPC   C4A 5298   5.311   4.061   7.745
   81POPC   C1B 5299   4.845   3.887   8.834
   81POPC   C2B 5300   4.836   3.911   8.362
   81POPC   C3B 5301   4.823   3.901   7.878
   81POPC   C4B 5302   4.451   4.075   7.614
   82POPC   NC3 5303  28.199  25.781   9.920
   82POPC   PO4 5304  28.509  26.277   9.720
   82POPC   GL1 5305  28.336  26.172   9.201
   82POPC   GL2 5306  28.219  25.786   9.209
   82POPC   C1A 5307  28.442  26.312   8.704
   82POPC   D2A 5308  28.615  26.232   8.226
   82POPC   C3A 5309  28.340  26.244   7.785
   82POPC   C4A 5310  28.007  26.228   7.396
   82POPC   C1B 5311  28.410  25.807   8.825
   82POPC   C2B 5312  28.264  25.874   8.434
   82POPC   C3B 5313  28.411  25.776   8.046
   82POPC   C4B 5314  28.614  25.808   7.690
   83POPC   NC3 5315  10.792  40.823   9.779
   83POPC   PO4 5316  10.154  40.653   9.509
   83POPC   GL1 5317  10.525  40.820   9.240
   83POPC   GL2 5318  10.895  40.921   9.281
   83POPC   C1A 5319  10.671  40.699   8.819
   83POPC   D2A 5320  10.755  40.475   8.450
   83POPC   C3A 5321  10.573  40.711   8.126
   83POPC   C4A 5322  10.280  40.727   7.765
   83POPC   C1B 5323  11.042  41.036   8.869
   83POPC   C2B 5324  10.844  41.109   8.451
   83POPC   C3B 5325  11.023  41.123   8.031
   83POPC   C4B 5326  10.795  40.906   7.710
   84POPC   NC3 5327  34.619  30.186   9.477
   84POPC   PO4 5328  34.397  30.844   9.322
   84POPC   GL1 5329  34.619  30.589   9.100
   84POPC   GL2 5330  34.317  30.368   9.101
   84POPC   C1A 5331  34.707  30.795   8.700
   84POPC   D2A 5332  34.373  30.943   8.441
   84POPC   C3A 5333  34.507  30.858   8.051
   84POPC   C4A 5334  34.320  30.874   7.687
   84POPC   C1B 5335  34.291  30.479   8.685
   84POPC   C2B 5336  34.281  30.418   8.264
   84POPC   C3B 5337  34.567  30.324   7.980
   84POPC   C4B 5338  34.444  30.387   7.599
   85POPC   NC3 5339  29.684  34.974   9.417
   85POPC   PO4 5340  30.108  35.525   9.488
   85POPC   GL1 5341  30.222  35.435   9.109
   85POPC   GL2 5342  29.987  35.186   9.066
   85POPC   C1A 5343  30.147  35.593   8.718
   85POPC   D2A 5344  29.821  35.568   8.406
   85POPC   C3A 5345  29.952  35.508   8.004
   85POPC   C4A 5346  30.159  35.689   7.681
   85POPC   C1B 5347  29.690  35.183   8.731
   85POPC   C2B 5348  29.744  35.065   8.282
   85POPC   C3B 5349  29.641  35.126   7.888
   85POPC   C4B 5350  29.662  35.311   7.502
   86POPC   NC3 5351  12.911  28.263   9.602
   86POPC   PO4 5352  12.557  28.827   9.463
   86POPC   GL1 5353  12.851  28.483   9.154
   86POPC   GL2 5354  13.028  28.129   9.128
   86POPC   C1A 5355  13.102  28.445   8.741
   86POPC   D2A 5356  12.905  28.428   8.328
   86POPC   C3A 5357  13.120  28.395   7.938
   86POPC   C4A 5358  12.990  28.242   7.512
   86POPC   C1B 5359  12.778  28.035   8.769
   86POPC   C2B 5360  12.790  27.939   8.322
   86POPC   C3B 5361  12.703  28.076   7.909
   86POPC   C4B 5362  12.302  28.182   7.740
   87POPC   NC3 5363  22.949   2.577   9.679
   87POPC   PO4 5364  22.683   3.201   9.586
   87POPC   GL1 5365  22.833   3.000   9.201
   87POPC   GL2 5366  22.965   2.637   9.172
   87POPC   C1A 5367  22.716   2.902   8.790
   87POPC   D2A 5368  22.931   2.922   8.406
   87POPC   C3A 5369  22.768   2.847   8.024
   87POPC   C4A 5370  22.971   2.980   7.664
   87POPC   C1B 5371  23.098   2.569   8.751
   87POPC   C2B 5372  23.009   2.366   8.356
   87POPC   C3B 5373  23.182   2.543   8.000
   87POPC   C4B 5374  23.314   2.554   7.607
   88POPC   NC3 5375   6.833  33.712   9.533
   88POPC   PO4 5376   6.365  34.174   9.357
   88POPC   GL1 5377   6.516  33.766   9.112
   88POPC   GL2 5378   6.846  33.522   9.081
   88POPC   C1A 5379   6.459  33.526   8.740
   88POPC   D2A 5380   6.340  33.728   8.401
   88POPC   C3A 5381   6.453  33.659   8.007
   88POPC   C4A 5382   6.472  33.976   7.714
   88POPC   C1B 5383   6.883  33.792   8.747
   88POPC   C2B 5384   6.789  33.898   8.333
   88POPC   C3B 5385   6.940  33.928   7.947
   88POPC   C4B 5386   6.836  33.614   7.677
   89POPC   NC3 5387  20.765  43.470   9.584
   89POPC   PO4 5388  20.859  42.837   9.394
   89POPC   GL1 5389  20.584  43.146   9.224
   89POPC   GL2 5390  20.810  43.333   9.043
   89POPC   C1A 5391  20.355  43.252   8.854
   89POPC   D2A 5392  20.631  43.367   8.512
   89POPC   C3A 5393  20.570  43.346   8.087
   89POPC   C4A 5394  20.574  43.329   7.648
   89POPC   C1B 5395  20.808  42.965   8.770
   89POPC   C2B 5396  20.878  42.961   8.312
   89POPC   C3B 5397  20.792  42.880   7.877
   89POPC   C4B 5398  20.874  42.988   7.418
   90POPC   NC3 5399  14.048  20.416   9.364
   90POPC   PO4 5400  13.346  20.537   9.487
   90POPC   GL1 5401  13.611  20.597   9.141
   90POPC   GL2 5402  13.650  20.245   9.063
   90POPC   C1A 5403  13.744  20.625   8.702
   90POPC   D2A 5404  13.546  20.616   8.290
   90POPC   C3A 5405  13.743  20.815   7.926
   90POPC   C4A 5406  13.762  20.839   7.446
   90POPC   C1B 5407  13.486  20.178   8.637
   90POPC   C2B 5408  13.808  20.183   8.356
   90POPC   C3B 5409  13.839  20.317   7.917
   90POPC   C4B 5410  13.491  20.460   7.654
   91POPC   NC3 5411  43.285  44.176   9.459
   91POPC   PO4 5412  42.941  43.513   9.688
   91POPC   GL1 5413  43.025  43.699   9.256
   91POPC   GL2 5414  43.338  43.859   9.072
   91POPC   C1A 5415  43.018  43.570   8.798
   91POPC   D2A 5416  43.183  43.840   8.460
   91POPC   C3A 5417  43.112  43.845   8.015
   91POPC   C4A 5418  43.396  43.677   7.685
   91POPC   C1B 5419  43.080  44.189   8.815
   91POPC   C2B 5420  42.837  44.201   8.414
   91POPC   C3B 5421  42.842  44.353   8.007
   91POPC   C4B 5422  42.800  44.092   7.665
   92POPC   NC3 5423  19.383   3.141   9.574
   92POPC   PO4 5424  18.809   3.242   9.500
   92POPC   GL1 5425  18.938   3.397   9.102
   92POPC   GL2 5426  19.291   3.318   9.090
   92POPC   C1A 5427  18.905   3.247   8.666
   92POPC   D2A 5428  18.793   3.439   8.283
   92POPC   C3A 5429  18.793   3.263   7.861
   92POPC   C4A 5430  18.885   3.341   7.355
   92POPC   C1B 5431  19.239   3.621   8.778
   92POPC   C2B 5432  19.241   3.707   8.360
   92POPC   C3B 5433  19.447   3.579   8.017
   92POPC   C4B 5434  19.154   3.587   7.707
   93POPC   NC3 5435  21.336  13.171   9.588
   93POPC   PO4 5436  21.543  13.787   9.475
   93POPC   GL1 5437  21.449  13.616   9.098
   93POPC   GL2 5438  21.260  13.323   9.077
   93POPC   C1A 5439  21.520  13.707   8.680
   93POPC   D2A 5440  21.532  13.993   8.352
   93POPC   C3A 5441  21.699  13.855   7.978
   93POPC   C4A 5442  21.363  13.957   7.689
   93POPC   C1B 5443  21.040  13.550   8.769
   93POPC   C2B 5444  21.121  13.432   8.348
   93POPC   C3B 5445  21.143  13.560   7.930
   93POPC   C4B 5446  21.496  13.443   7.711
   94POPC   NC3 5447  16.566  29.463   9.364
   94POPC   PO4 5448  16.852  28.852   9.478
   94POPC   GL1 5449  16.856  29.079   9.147
   94POPC   GL2 5450  16.544  28.900   9.045
   94POPC   C1A 5451  16.981  29.253   8.768
   94POPC   D2A 5452  16.710  29.318   8.426
   94POPC   C3A 5453  16.865  29.297   8.037
   94POPC   C4A 5454  16.470  29.240   7.790
   94POPC   C1B 5455  16.882  28.708   8.805
   94POPC   C2B 5456  16.962  28.844   8.404
   94POPC   C3B 5457  16.703  28.824   8.044
   94POPC   C4B 5458  16.872  28.947   7.632
   95POPC   NC3 5459   4.226  40.272   9.529
   95POPC   PO4 5460   4.538  39.591   9.412
   95POPC   GL1 5461   4.549  39.872   9.086
   95POPC   GL2 5462   4.601  40.200   9.155
   95POPC   C1A 5463   4.460  39.951   8.667
   95POPC   D2A 5464   4.077  39.856   8.392
   95POPC   C3A 5465   4.071  39.714   7.932
   95POPC   C4A 5466   4.058  39.847   7.474
   95POPC   C1B 5467   4.254  40.363   8.894
   95POPC   C2B 5468   4.284  40.380   8.464
   95POPC   C3B 5469   4.475  40.109   8.158
   95POPC   C4B 5470   4.322  40.162   7.768
   96POPC   NC3 5471  34.106  12.439   9.225
   96POPC   PO4 5472  33.702  12.937   9.555
   96POPC   GL1 5473  33.854  12.911   9.156
   96POPC   GL2 5474  33.585  12.685   9.093
   96POPC   C1A 5475  33.836  13.069   8.733
   96POPC   D2A 5476  33.614  12.933   8.353
   96POPC   C3A 5477  33.566  13.197   7.972
   96POPC   C4A 5478  33.794  12.877   7.785
   96POPC   C1B 5479  33.720  12.557   8.704
   96POPC   C2B 5480  34.073  12.627   8.479
   96POPC   C3B 5481  34.058  12.523   8.049
   96POPC   C4B 5482  33.678  12.351   7.818
   97POPC   NC3 5483   1.450  11.362   9.483
   97POPC   PO4 5484   0.748  11.255   9.631
   97POPC   GL1 5485   0.983  11.314   9.257
   97POPC   GL2 5486   1.096  10.981   9.272
   97POPC   C1A 5487   1.137  11.398   8.830
   97POPC   D2A 5488   0.974  11.279   8.428
   97POPC   C3A 5489   1.251  11.403   8.086
   97POPC   C4A 5490   1.154  11.666   7.733
   97POPC   C1B 5491   1.348  10.939   8.908
   97POPC   C2B 5492   1.419  11.015   8.454
   97POPC   C3B 5493   1.507  10.930   8.019
   97POPC   C4B 5494   1.342  11.058   7.644
   98POPC   NC3 5495  35.694  33.097   9.428
   98POPC   PO4 5496  36.409  32.907   9.440
   98POPC   GL1 5497  36.316  33.218   9.117
   98POPC   GL2 5498  35.947  33.337   9.075
   98POPC   C1A 5499  36.493  33.188   8.734
   98POPC   D2A 5500  36.336  32.842   8.459
   98POPC   C3A 5501  36.365  32.879   8.014
   98POPC   C4A 5502  36.151  32.915   7.607
   98POPC   C1B 5503  36.012  33.271   8.663
   98POPC   C2B 5504  36.251  33.319   8.302
   98POPC   C3B 5505  35.984  33.203   8.003
   98POPC   C4B 5506  35.843  33.399   7.660
   99POPC   NC3 5507  24.116  38.491   9.454
   99POPC   PO4 5508  23.446  38.284   9.674
   99POPC   GL1 5509  23.646  38.426   9.279
   99POPC   GL2 5510  23.401  38.451   9.119
   99POPC   C1A 5511  23.794  38.307   8.823
   99POPC   D2A 5512  23.825  38.497   8.414
   99POPC   C3A 5513  24.005  38.353   8.023
   99POPC   C4A 5514  24.124  38.717   7.781
   99POPC   C1B 5515  23.311  38.471   8.726
   99POPC   C2B 5516  23.322  38.668   8.336
   99POPC   C3B 5517  23.505  38.519   7.993
   99POPC   C4B 5518  23.514  38.381   7.629
  100POPC   NC3 5519  14.547  14.973   9.512
  100POPC   PO4 5520  14.153  15.515   9.512
  100POPC   GL1 5521  14.330  15.287   9.184
  100POPC   GL2 5522  14.166  14.951   9.189
  100POPC   C1A 5523  14.512  15.121   8.799
  100POPC   D2A 5524  14.635  14.934   8.407
  100POPC   C3A 5525  14.535  15.134   8.027
  100POPC   C4A 5526  14.566  15.039   7.595
  100POPC   C1B 5527  13.994  15.149   8.813
  100POPC   C2B 5528  14.125  15.100   8.392
  100POPC   C3B 5529  14.097  15.422   8.071
  100POPC   C4B 5530  14.072  15.234   7.705
  101POPC   NC3 5531   4.517  24.047   9.694
  101POPC   PO4 5532   4.353  24.750   9.553
  101POPC   GL1 5533   4.465  24.602   9.174
  101POPC   GL2 5534   4.503  24.214   9.215
  101POPC   C1A 5535   4.347  24.723   8.758
  101POPC   D2A 5536   4.576  24.669   8.386
  101POPC   C3A 5537   4.247  24.699   8.083
  101POPC   C4A 5538   4.129  24.868   7.703
  101POPC   C1B 5539   4.193  24.247   8.888
  101POPC   C2B 5540   4.248  24.283   8.450
  101POPC   C3B 5541   4.480  24.255   8.076
  101POPC   C4B 5542   4.249  24.274   7.710
  102POPC   NC3 5543  17.188  25.926   9.588
  102POPC   PO4 5544  16.563  25.881   9.729
  102POPC   GL1 5545  16.776  25.995   9.281
  102POPC   GL2 5546  16.643  26.281   9.094
  102POPC   C1A 5547  17.042  26.060   8.861
  102POPC   D2A 5548  16.920  26.367   8.495
  102POPC   C3A 5549  16.986  26.261   8.029
  102POPC   C4A 5550  16.950  25.857   7.760
  102POPC   C1B 5551  16.538  26.063   8.712
  102POPC   C2B 5552  16.501  26.103   8.260
  102POPC   C3B 5553  16.493  26.074   7.809
  102POPC   C4B 5554  16.516  25.919   7.352
  103POPC   NC3 5555  11.589  22.750   9.728
  103POPC   PO4 5556  12.262  22.930   9.633
  103POPC   GL1 5557  12.082  23.008   9.240
  103POPC   GL2 5558  11.783  23.156   9.394
  103POPC   C1A 5559  12.262  22.869   8.804
  103POPC   D2A 5560  12.190  22.615   8.452
  103POPC   C3A 5561  12.163  22.772   8.047
  103POPC   C4A 5562  12.045  22.518   7.706
  103POPC   C1B 5563  11.655  23.141   8.966
  103POPC   C2B 5564  11.805  22.966   8.588
  103POPC   C3B 5565  11.660  22.805   8.209
  103POPC   C4B 5566  11.689  22.911   7.761
  104POPC   NC3 5567  10.057  41.268   9.533
  104POPC   PO4 5568   9.490  41.785   9.510
  104POPC   GL1 5569   9.726  41.572   9.178
  104POPC   GL2 5570   9.402  41.427   9.106
  104POPC   C1A 5571   9.914  41.395   8.797
  104POPC   D2A 5572   9.795  41.268   8.387
  104POPC   C3A 5573  10.022  41.470   8.029
  104POPC   C4A 5574   9.870  41.529   7.594
  104POPC   C1B 5575   9.425  41.657   8.754
  104POPC   C2B 5576   9.288  41.531   8.371
  104POPC   C3B 5577   9.485  41.443   7.980
  104POPC   C4B 5578   9.361  41.593   7.589
  105POPC   NC3 5579  41.889  13.772   9.675
  105POPC   PO4 5580  42.417  13.354   9.598
  105POPC   GL1 5581  42.371  13.656   9.225
  105POPC   GL2 5582  42.370  13.971   9.042
  105POPC   C1A 5583  42.310  13.552   8.754
  105POPC   D2A 5584  42.553  13.416   8.352
  105POPC   C3A 5585  42.293  13.455   7.981
  105POPC   C4A 5586  42.093  13.547   7.592
  105POPC   C1B 5587  42.629  13.928   8.706
  105POPC   C2B 5588  42.442  13.913   8.312
  105POPC   C3B 5589  42.318  13.951   7.878
  105POPC   C4B 5590  42.578  13.726   7.573
  106POPC   NC3 5591  23.479  34.861   9.464
  106POPC   PO4 5592  24.142  34.925   9.350
  106POPC   GL1 5593  23.795  34.704   9.090
  106POPC   GL2 5594  23.631  34.390   9.256
  106POPC   C1A 5595  23.549  34.726   8.684
  106POPC   D2A 5596  23.616  34.501   8.308
  106POPC   C3A 5597  23.538  34.746   7.949
  106POPC   C4A 5598  23.770  34.686   7.537
  106POPC   C1B 5599  23.443  34.268   8.849
  106POPC   C2B 5600  23.178  34.251   8.448
  106POPC   C3B 5601  23.244  34.333   8.016
  106POPC   C4B 5602  23.636  34.282   7.801
  107POPC   NC3 5603  25.931  15.690   9.372
  107POPC   PO4 5604  26.120  15.048   9.414
  107POPC   GL1 5605  25.923  15.034   9.006
  107POPC   GL2 5606  25.987  15.379   8.960
  107POPC   C1A 5607  25.675  15.164   8.608
  107POPC   D2A 5608  25.668  15.389   8.199
  107POPC   C3A 5609  25.781  15.151   7.818
  107POPC   C4A 5610  26.127  14.896   7.715
  107POPC   C1B 5611  26.137  15.391   8.541
  107POPC   C2B 5612  26.196  15.209   8.131
  107POPC   C3B 5613  26.380  15.337   7.714
  107POPC   C4B 5614  26.527  15.394   7.262
  108POPC   NC3 5615  24.447  36.155   9.800
  108POPC   PO4 5616  24.329  35.826   9.272
  108POPC   GL1 5617  24.320  36.287   9.133
  108POPC   GL2 5618  24.624  36.489   9.137
  108POPC   C1A 5619  24.297  36.305   8.674
  108POPC   D2A 5620  24.454  35.921   8.444
  108POPC   C3A 5621  24.747  35.913   8.095
  108POPC   C4A 5622  24.460  36.116   7.805
  108POPC   C1B 5623  24.817  36.369   8.760
  108POPC   C2B 5624  24.710  36.363   8.343
  108POPC   C3B 5625  24.879  36.384   7.929
  108POPC   C4B 5626  24.805  36.461   7.475
  109POPC   NC3 5627   1.275  15.775   9.229
  109POPC   PO4 5628   1.151  16.293   9.633
  109POPC   GL1 5629   1.206  16.291   9.151
  109POPC   GL2 5630   0.927  16.096   8.997
  109POPC   C1A 5631   1.322  16.141   8.691
  109POPC   D2A 5632   1.310  15.738   8.422
  109POPC   C3A 5633   1.404  15.819   7.988
  109POPC   C4A 5634   1.499  16.258   7.818
  109POPC   C1B 5635   0.807  15.973   8.596
  109POPC   C2B 5636   0.765  16.029   8.147
  109POPC   C3B 5637   1.018  16.077   7.761
  109POPC   C4B 5638   1.000  15.887   7.355
  110POPC   NC3 5639  42.675   6.968   9.548
  110POPC   PO4 5640  43.002   6.360   9.637
  110POPC   GL1 5641  43.070   6.610   9.220
  110POPC   GL2 5642  43.393   6.747   9.179
  110POPC   C1A 5643  43.094   6.784   8.745
  110POPC   D2A 5644  42.923   6.845   8.280
  110POPC   C3A 5645  43.014   6.698   7.860
  110POPC   C4A 5646  42.657   6.734   7.574
  110POPC   C1B 5647  43.554   6.602   8.781
  110POPC   C2B 5648  43.368   6.544   8.364
  110POPC   C3B 5649  43.456   6.422   7.928
  110POPC   C4B 5650  43.193   6.249   7.671
  111POPC   NC3 5651  41.892  10.155   9.750
  111POPC   PO4 5652  41.627   9.629   9.524
  111POPC   GL1 5653  41.597   9.513   9.130
  111POPC   GL2 5654  41.559   9.876   9.069
  111POPC   C1A 5655  41.354   9.330   8.770
  111POPC   D2A 5656  41.432   9.443   8.311
  111POPC   C3A 5657  41.246   9.530   7.879
  111POPC   C4A 5658  41.247   9.452   7.392
  111POPC   C1B 5659  41.704   9.708   8.685
  111POPC   C2B 5660  41.755   9.928   8.350
  111POPC   C3B 5661  41.701   9.765   7.983
  111POPC   C4B 5662  41.586   9.797   7.582
  112POPC   NC3 5663  25.912  32.955   9.458
  112POPC   PO4 5664  26.387  33.402   9.387
  112POPC   GL1 5665  26.301  33.004   9.094
  112POPC   GL2 5666  26.007  32.714   9.035
  112POPC   C1A 5667  26.180  32.981   8.653
  112POPC   D2A 5668  26.035  32.823   8.261
  112POPC   C3A 5669  26.212  32.942   7.854
  112POPC   C4A 5670  26.029  32.758   7.441
  112POPC   C1B 5671  25.709  32.673   8.661
  112POPC   C2B 5672  25.537  32.690   8.231
  112POPC   C3B 5673  25.711  32.913   7.863
  112POPC   C4B 5674  25.872  33.349   7.923
  113POPC   NC3 5675  23.399   7.949   9.496
  113POPC   PO4 5676  22.709   8.131   9.574
  113POPC   GL1 5677  22.973   8.243   9.217
  113POPC   GL2 5678  22.887   8.529   8.963
  113POPC   C1A 5679  23.032   8.053   8.817
  113POPC   D2A 5680  22.901   8.192   8.401
  113POPC   C3A 5681  22.947   7.870   8.065
  113POPC   C4A 5682  23.322   7.980   7.790
  113POPC   C1B 5683  23.132   8.775   8.621
  113POPC   C2B 5684  23.401   8.644   8.304
  113POPC   C3B 5685  23.229   8.454   7.997
  113POPC   C4B 5686  22.865   8.333   7.909
  114POPC   NC3 5687   0.841  11.998   9.576
  114POPC   PO4 5688   1.457  11.788   9.306
  114POPC   GL1 5689   1.134  12.038   9.161
  114POPC   GL2 5690   1.070  12.357   9.300
  114POPC   C1A 5691   0.946  11.990   8.791
  114POPC   D2A 5692   1.013  11.779   8.425
  114POPC   C3A 5693   1.248  11.988   8.107
  114POPC   C4A 5694   1.631  11.845   7.920
  114POPC   C1B 5695   1.127  12.494   8.890
  114POPC   C2B 5696   1.096  12.342   8.459
  114POPC   C3B 5697   1.092  12.481   8.052
  114POPC   C4B 5698   1.109  12.271   7.674
  115POPC   NC3 5699   7.689  11.617   9.413
  115POPC   PO4 5700   7.388  11.041   9.341
  115POPC   GL1 5701   7.189  11.284   9.055
  115POPC   GL2 5702   7.453  11.486   8.986
  115POPC   C1A 5703   7.274  11.114   8.686
  115POPC   D2A 5704   7.564  11.290   8.430
  115POPC   C3A 5705   7.420  11.142   8.067
  115POPC   C4A 5706   7.514  11.194   7.688
  115POPC   C1B 5707   7.881  11.485   8.807
  115POPC   C2B 5708   8.009  11.580   8.415
  115POPC   C3B 5709   7.753  11.572   8.029
  115POPC   C4B 5710   7.746  11.772   7.594
  116POPC   NC3 5711   6.833  32.242   9.561
  116POPC   PO4 5712   6.210  32.265   9.716
  116POPC   GL1 5713   6.417  32.311   9.258
  116POPC   GL2 5714   6.644  32.611   9.245
  116POPC   C1A 5715   6.553  32.085   8.833
  116POPC   D2A 5716   6.575  31.833   8.437
  116POPC   C3A 5717   6.552  31.993   8.067
  116POPC   C4A 5718   6.951  32.146   7.930
  116POPC   C1B 5719   6.636  32.578   8.787
  116POPC   C2B 5720   6.681  32.376   8.381
  116POPC   C3B 5721   6.595  32.511   7.942
  116POPC   C4B 5722   6.257  32.574   7.617
  117POPC   NC3 5723  21.092  15.654   9.509
  117POPC   PO4 5724  20.673  16.152   9.438
  117POPC   GL1 5725  20.846  15.955   9.118
  117POPC   GL2 5726  20.676  15.645   9.211
  117POPC   C1A 5727  20.711  16.160   8.722
  117POPC   D2A 5728  20.337  16.071   8.444
  117POPC   C3A 5729  20.483  16.067   8.017
  117POPC   C4A 5730  20.778  16.216   7.703
  117POPC   C1B 5731  20.715  15.552   8.781
  117POPC   C2B 5732  20.776  15.765   8.403
  117POPC   C3B 5733  20.694  15.592   8.034
  117POPC   C4B 5734  20.734  15.706   7.644
  118POPC   NC3 5735  35.303  18.695   9.387
  118POPC   PO4 5736  35.628  18.035   9.415
  118POPC   GL1 5737  35.421  18.267   9.138
  118POPC   GL2 5738  35.702  18.521   9.113
  118POPC   C1A 5739  35.306  18.510   8.762
  118POPC   D2A 5740  35.297  18.315   8.372
  118POPC   C3A 5741  35.116  18.473   8.012
  118POPC   C4A 5742  35.103  18.117   7.761
  118POPC   C1B 5743  35.740  18.230   8.748
  118POPC   C2B 5744  35.821  18.332   8.320
  118POPC   C3B 5745  35.609  18.268   7.933
  118POPC   C4B 5746  35.425  18.541   7.605
  119POPC   NC3 5747  23.111  29.558   9.525
  119POPC   PO4 5748  22.517  29.294   9.728
  119POPC   GL1 5749  22.597  29.493   9.242
  119POPC   GL2 5750  22.924  29.442   9.081
  119POPC   C1A 5751  22.578  29.375   8.727
  119POPC   D2A 5752  22.588  29.405   8.272
  119POPC   C3A 5753  22.672  29.091   7.993
  119POPC   C4A 5754  23.024  28.864   7.874
  119POPC   C1B 5755  23.147  29.322   8.720
  119POPC   C2B 5756  23.056  29.131   8.347
  119POPC   C3B 5757  23.143  29.341   7.981
  119POPC   C4B 5758  23.322  29.244   7.600
  120POPC   NC3 5759  36.410  28.500   9.543
  120POPC   PO4 5760  35.762  28.253   9.380
  120POPC   GL1 5761  36.148  28.284   9.157
  120POPC   GL2 5762  36.367  28.050   9.290
  120POPC   C1A 5763  36.247  28.424   8.760
  120POPC   D2A 5764  35.916  28.363   8.463
  120POPC   C3A 5765  36.034  28.190   8.084
  120POPC   C4A 5766  35.865  28.304   7.705
  120POPC   C1B 5767  36.533  28.003   8.886
  120POPC   C2B 5768  36.362  28.036   8.463
  120POPC   C3B 5769  36.564  28.102   8.077
  120POPC   C4B 5770  36.387  28.202   7.700
  121POPC   NC3 5771  30.390  22.938   9.431
  121POPC   PO4 5772  29.773  22.589   9.535
  121POPC   GL1 5773  29.945  22.804   9.149
  121POPC   GL2 5774  29.741  23.087   8.997
  121POPC   C1A 5775  30.105  22.873   8.731
  121POPC   D2A 5776  30.241  22.997   8.329
  121POPC   C3A 5777  30.143  22.779   7.989
  121POPC   C4A 5778  30.044  23.095   7.615
  121POPC   C1B 5779  29.590  22.739   8.748
  121POPC   C2B 5780  29.706  22.746   8.331
  121POPC   C3B 5781  29.672  22.970   7.970
  121POPC   C4B 5782  29.512  22.979   7.579
  122POPC   NC3 5783   4.399  18.418   9.595
  122POPC   PO4 5784   4.737  17.922   9.346
  122POPC   GL1 5785   4.322  18.070   9.228
  122POPC   GL2 5786   4.426  18.339   9.074
  122POPC   C1A 5787   4.106  18.037   8.822
  122POPC   D2A 5788   4.331  18.160   8.432
  122POPC   C3A 5789   4.091  18.206   8.052
  122POPC   C4A 5790   4.299  17.996   7.704
  122POPC   C1B 5791   4.497  18.595   8.722
  122POPC   C2B 5792   4.422  18.648   8.312
  122POPC   C3B 5793   4.545  18.405   7.936
  122POPC   C4B 5794   4.824  18.553   7.634
  123POPC   NC3 5795  25.627   0.775   9.612
  123POPC   PO4 5796  25.063   0.359   9.473
  123POPC   GL1 5797  25.173   0.320   9.099
  123POPC   GL2 5798  25.420   0.574   9.166
  123POPC   C1A 5799  25.048   0.457   8.704
  123POPC   D2A 5800  25.254   0.452   8.347
  123POPC   C3A 5801  25.148   0.521   7.945
  123POPC   C4A 5802  25.378   0.272   7.664
  123POPC   C1B 5803  25.567   0.462   8.774
  123POPC   C2B 5804  25.683   0.730   8.423
  123POPC   C3B 5805  25.665   0.509   8.052
  123POPC   C4B 5806  25.765   0.629   7.670
  124POPC   NC3 5807  44.464  20.985   9.498
  124POPC   PO4 5808  44.271  20.415   9.774
  124POPC   GL1 5809  44.493  20.512   9.258
  124POPC   GL2 5810  44.792  20.739   9.142
  124POPC   C1A 5811  44.432  20.601   8.797
  124POPC   D2A 5812  44.366  20.442   8.389
  124POPC   C3A 5813  44.508  20.657   8.020
  124POPC   C4A 5814  44.452  20.541   7.600
  124POPC   C1B 5815  44.931  20.461   8.759
  124POPC   C2B 5816  44.859  20.282   8.312
  124POPC   C3B 5817  44.887  20.378   7.855
  124POPC   C4B 5818  44.955  20.781   7.635
  125POPC   NC3 5819  12.221  30.854   9.608
  125POPC   PO4 5820  11.592  30.735   9.618
  125POPC   GL1 5821  11.824  30.796   9.166
  125POPC   GL2 5822  12.176  30.854   9.110
  125POPC   C1A 5823  11.953  30.752   8.659
  125POPC   D2A 5824  12.271  30.586   8.286
  125POPC   C3A 5825  12.114  30.407   7.857
  125POPC   C4A 5826  12.228  30.094   7.492
  125POPC   C1B 5827  12.379  31.008   8.739
  125POPC   C2B 5828  12.250  31.082   8.317
  125POPC   C3B 5829  12.232  30.945   7.887
  125POPC   C4B 5830  12.066  31.144   7.543
  126POPC   NC3 5831  15.105  11.590   9.348
  126POPC   PO4 5832  14.822  12.216   9.444
  126POPC   GL1 5833  15.185  12.194   9.160
  126POPC   GL2 5834  15.288  11.888   8.977
  126POPC   C1A 5835  15.212  12.333   8.737
  126POPC   D2A 5836  15.107  12.097   8.387
  126POPC   C3A 5837  15.248  12.218   7.984
  126POPC   C4A 5838  15.452  11.889   7.782
  126POPC   C1B 5839  14.826  11.943   8.822
  126POPC   C2B 5840  14.683  11.800   8.407
  126POPC   C3B 5841  14.841  11.879   7.992
  126POPC   C4B 5842  14.980  11.803   7.578
  127POPC   NC3 5843  17.446  36.285   9.913
  127POPC   PO4 5844  17.926  35.886   9.508
  127POPC   GL1 5845  17.698  36.261   9.329
  127POPC   GL2 5846  17.353  36.323   9.329
  127POPC   C1A 5847  17.582  36.479   8.908
  127POPC   D2A 5848  17.334  36.370   8.570
  127POPC   C3A 5849  17.541  36.294   8.146
  127POPC   C4A 5850  17.438  36.485   7.752
  127POPC   C1B 5851  17.446  35.996   8.967
  127POPC   C2B 5852  17.496  35.889   8.503
  127POPC   C3B 5853  17.448  35.779   8.051
  127POPC   C4B 5854  17.707  35.548   7.738
  128POPC   NC3 5855  43.973  36.447   9.545
  128POPC   PO4 5856  43.776  35.923   9.257
  128POPC   GL1 5857  44.093  36.100   9.093
  128POPC   GL2 5858  43.874  36.377   9.061
  128POPC   C1A 5859  44.039  36.057   8.667
  128POPC   D2A 5860  43.732  36.124   8.360
  128POPC   C3A 5861  43.998  35.971   8.089
  128POPC   C4A 5862  44.190  36.032   7.741
  128POPC   C1B 5863  43.764  36.519   8.703
  128POPC   C2B 5864  43.947  36.616   8.350
  128POPC   C3B 5865  44.037  36.472   7.968
  128POPC   C4B 5866  43.762  36.343   7.682
  129POPC   NC3 5867  43.566  12.935   9.528
  129POPC   PO4 5868  44.074  12.957   9.194
  129POPC   GL1 5869  43.690  13.016   9.029
  129POPC   GL2 5870  43.468  12.736   9.072
  129POPC   C1A 5871  43.689  12.958   8.623
  129POPC   D2A 5872  43.736  13.067   8.186
  129POPC   C3A 5873  44.021  12.833   7.961
  129POPC   C4A 5874  43.900  12.892   7.557
  129POPC   C1B 5875  43.449  12.482   8.706
  129POPC   C2B 5876  43.624  12.568   8.297
  129POPC   C3B 5877  43.512  12.713   7.871
  129POPC   C4B 5878  43.532  12.581   7.390
  130POPC   NC3 5879  34.526  34.086   9.547
  130POPC   PO4 5880  34.263  33.452   9.406
  130POPC   GL1 5881  34.550  33.724   9.131
  130POPC   GL2 5882  34.768  34.019   9.120
  130POPC   C1A 5883  34.535  33.843   8.674
  130POPC   D2A 5884  34.268  33.701   8.308
  130POPC   C3A 5885  34.534  33.621   7.941
  130POPC   C4A 5886  34.445  33.640   7.478
  130POPC   C1B 5887  34.993  34.223   8.842
  130POPC   C2B 5888  34.929  34.145   8.452
  130POPC   C3B 5889  34.603  34.142   8.176
  130POPC   C4B 5890  34.635  34.091   7.774
  131POPC   NC3 5891   4.637  25.899   9.415
  131POPC   PO4 5892   5.344  26.010   9.493
  131POPC   GL1 5893   5.046  25.947   9.135
  131POPC   GL2 5894   5.118  26.231   9.035
  131POPC   C1A 5895   4.798  26.032   8.706
  131POPC   D2A 5896   4.929  26.323   8.394
  131POPC   C3A 5897   4.747  26.335   7.995
  131POPC   C4A 5898   4.797  26.085   7.648
  131POPC   C1B 5899   5.300  25.975   8.687
  131POPC   C2B 5900   5.422  26.198   8.330
  131POPC   C3B 5901   5.281  26.419   8.021
  131POPC   C4B 5902   5.286  26.163   7.652
  132POPC   NC3 5903   8.677  37.135   9.458
  132POPC   PO4 5904   9.155  36.653   9.474
  132POPC   GL1 5905   9.042  36.842   9.117
  132POPC   GL2 5906   8.736  36.751   9.111
  132POPC   C1A 5907   9.012  36.662   8.703
  132POPC   D2A 5908   9.236  36.659   8.348
  132POPC   C3A 5909   9.004  36.783   7.995
  132POPC   C4A 5910   8.721  36.740   7.687
  132POPC   C1B 5911   8.743  37.128   8.804
  132POPC   C2B 5912   8.547  37.322   8.417
  132POPC   C3B 5913   8.672  37.224   7.972
  132POPC   C4B 5914   8.552  37.194   7.533
  133POPC   NC3 5915   0.609  10.821   9.483
  133POPC   PO4 5916   0.312  10.176   9.489
  133POPC   GL1 5917   0.472  10.459   9.151
  133POPC   GL2 5918   0.243  10.765   9.148
  133POPC   C1A 5919   0.520  10.593   8.707
  133POPC   D2A 5920   0.291  10.355   8.391
  133POPC   C3A 5921   0.442  10.371   8.002
  133POPC   C4A 5922   0.532  10.797   7.865
  133POPC   C1B 5923   0.030  10.708   8.776
  133POPC   C2B 5924   0.061  10.806   8.377
  133POPC   C3B 5925  44.998  10.612   8.036
  133POPC   C4B 5926  44.996  10.291   7.772
  134POPC   NC3 5927   2.444  22.382   9.740
  134POPC   PO4 5928   2.906  22.038   9.358
  134POPC   GL1 5929   2.582  22.199   9.039
  134POPC   GL2 5930   2.615  22.543   8.896
  134POPC   C1A 5931   2.450  22.186   8.585
  134POPC   D2A 5932   2.768  22.208   8.243
  134POPC   C3A 5933   2.668  21.919   7.947
  134POPC   C4A 5934   2.569  22.126   7.615
  134POPC   C1B 5935   2.950  22.308   8.707
  134POPC   C2B 5936   3.242  22.450   8.461
  134POPC   C3B 5937   3.301  22.444   8.074
  134POPC   C4B 5938   2.974  22.470   7.770
  135POPC   NC3 5939  20.901  30.512   9.290
  135POPC   PO4 5940  20.649  31.101   9.676
  135POPC   GL1 5941  20.531  30.868   9.145
  135POPC   GL2 5942  20.557  30.594   8.951
  135POPC   C1A 5943  20.346  31.025   8.748
  135POPC   D2A 5944  20.450  31.207   8.343
  135POPC   C3A 5945  20.390  30.940   7.985
  135POPC   C4A 5946  20.536  30.633   7.704
  135POPC   C1B 5947  20.799  30.497   8.598
  135POPC   C2B 5948  20.771  30.621   8.177
  135POPC   C3B 5949  21.017  30.526   7.802
  135POPC   C4B 5950  20.867  30.466   7.360
  136POPC   NC3 5951  14.037   8.414   9.383
  136POPC   PO4 5952  14.162   7.823   9.726
  136POPC   GL1 5953  14.219   7.943   9.259
  136POPC   GL2 5954  14.462   8.195   9.163
  136POPC   C1A 5955  14.103   8.056   8.802
  136POPC   D2A 5956  14.016   8.289   8.405
  136POPC   C3A 5957  14.185   8.112   7.984
  136POPC   C4A 5958  14.518   8.060   7.629
  136POPC   C1B 5959  14.441   8.437   8.760
  136POPC   C2B 5960  14.502   8.450   8.300
  136POPC   C3B 5961  14.523   8.511   7.863
  136POPC   C4B 5962  14.521   8.775   7.492
  137POPC   NC3 5963   1.597  34.972   9.537
  137POPC   PO4 5964   2.227  35.282   9.527
  137POPC   GL1 5965   2.091  35.194   9.033
  137POPC   GL2 5966   1.786  35.361   8.912
  137POPC   C1A 5967   2.073  35.202   8.555
  137POPC   D2A 5968   1.740  35.448   8.299
  137POPC   C3A 5969   1.907  35.398   7.882
  137POPC   C4A 5970   2.168  35.060   7.709
  137POPC   C1B 5971   1.991  35.698   8.671
  137POPC   C2B 5972   2.154  35.933   8.374
  137POPC   C3B 5973   2.165  35.889   7.950
  137POPC   C4B 5974   2.117  35.744   7.538
  138POPC   NC3 5975  32.866  38.213   9.482
  138POPC   PO4 5976  33.099  38.796   9.586
  138POPC   GL1 5977  33.136  38.553   9.187
  138POPC   GL2 5978  32.807  38.419   9.039
  138POPC   C1A 5979  33.103  38.692   8.764
  138POPC   D2A 5980  32.869  38.782   8.417
  138POPC   C3A 5981  33.042  38.560   8.050
  138POPC   C4A 5982  33.179  38.728   7.649
  138POPC   C1B 5983  32.923  38.223   8.646
  138POPC   C2B 5984  32.657  38.139   8.276
  138POPC   C3B 5985  32.588  38.325   7.873
  138POPC   C4B 5986  32.896  38.332   7.578
  139POPC   NC3 5987  35.164   3.080   9.418
  139POPC   PO4 5988  35.088   3.720   9.689
  139POPC   GL1 5989  35.012   3.616   9.218
  139POPC   GL2 5990  34.842   3.326   9.095
  139POPC   C1A 5991  35.165   3.571   8.757
  139POPC   D2A 5992  35.404   3.490   8.356
  139POPC   C3A 5993  35.350   3.690   7.939
  139POPC   C4A 5994  35.329   3.926   7.551
  139POPC   C1B 5995  35.072   3.056   8.773
  139POPC   C2B 5996  35.272   2.995   8.369
  139POPC   C3B 5997  35.425   3.141   7.963
  139POPC   C4B 5998  35.071   3.173   7.687
  140POPC   NC3 5999  30.246   5.616   9.453
  140POPC   PO4 6000  30.871   5.808   9.527
  140POPC   GL1 6001  30.662   5.740   9.153
  140POPC   GL2 6002  30.450   6.022   9.092
  140POPC   C1A 6003  30.761   5.775   8.715
  140POPC   D2A 6004  30.474   5.981   8.435
  140POPC   C3A 6005  30.647   5.912   8.044
  140POPC   C4A 6006  30.460   5.873   7.623
  140POPC   C1B 6007  30.805   6.242   8.878
  140POPC   C2B 6008  30.906   6.239   8.438
  140POPC   C3B 6009  30.952   6.353   8.027
  140POPC   C4B 6010  30.622   6.333   7.759
  141POPC   NC3 6011  33.700  40.534   9.787
  141POPC   PO4 6012  34.191  40.561   9.294
  141POPC   GL1 6013  34.063  40.951   9.037
  141POPC   GL2 6014  33.749  41.089   9.031
  141POPC   C1A 6015  34.100  41.185   8.695
  141POPC   D2A 6016  33.979  41.165   8.320
  141POPC   C3A 6017  33.810  40.832   8.118
  141POPC   C4A 6018  34.071  40.859   7.775
  141POPC   C1B 6019  33.707  40.830   8.647
  141POPC   C2B 6020  33.522  40.476   8.413
  141POPC   C3B 6021  33.335  40.536   8.018
  141POPC   C4B 6022  33.574  40.708   7.674
  142POPC   NC3 6023  18.569   4.361   9.543
  142POPC   PO4 6024  17.867   4.248   9.491
  142POPC   GL1 6025  18.148   4.388   9.152
  142POPC   GL2 6026  18.501   4.502   9.069
  142POPC   C1A 6027  18.120   4.224   8.735
  142POPC   D2A 6028  17.863   4.258   8.356
  142POPC   C3A 6029  18.096   4.069   8.026
  142POPC   C4A 6030  18.264   4.003   7.644
  142POPC   C1B 6031  18.611   4.352   8.661
  142POPC   C2B 6032  18.368   4.389   8.310
  142POPC   C3B 6033  18.393   4.484   7.887
  142POPC   C4B 6034  18.551   4.365   7.468
  143POPC   NC3 6035   0.731   3.062   9.440
  143POPC   PO4 6036   0.151   2.699   9.642
  143POPC   GL1 6037   0.235   2.772   9.184
  143POPC   GL2 6038   0.359   2.445   9.053
  143POPC   C1A 6039   0.377   2.913   8.746
  143POPC   D2A 6040   0.573   3.181   8.421
  143POPC   C3A 6041   0.669   2.965   8.036
  143POPC   C4A 6042   0.324   2.837   7.776
  143POPC   C1B 6043   0.618   2.468   8.707
  143POPC   C2B 6044   0.481   2.591   8.318
  143POPC   C3B 6045   0.603   2.442   7.920
  143POPC   C4B 6046   0.210   2.341   7.767
  144POPC   NC3 6047  34.290  10.770   9.848
  144POPC   PO4 6048  34.534  11.190   9.305
  144POPC   GL1 6049  34.796  11.374   9.002
  144POPC   GL2 6050  34.563  11.606   8.923
  144POPC   C1A 6051  34.790  11.201   8.588
  144POPC   D2A 6052  34.495  11.057   8.291
  144POPC   C3A 6053  34.589  11.225   7.891
  144POPC   C4A 6054  34.677  11.018   7.502
  144POPC   C1B 6055  34.247  11.680   8.637
  144POPC   C2B 6056  34.343  11.691   8.211
  144POPC   C3B 6057  34.419  11.686   7.741
  144POPC   C4B 6058  34.272  11.872   7.352
  145POPC   NC3 6059   8.240  31.474   9.493
  145POPC   PO4 6060   8.532  31.050   9.302
  145POPC   GL1 6061   8.409  31.394   8.983
  145POPC   GL2 6062   8.250  31.723   9.058
  145POPC   C1A 6063   8.214  31.524   8.573
  145POPC   D2A 6064   7.938  31.285   8.290
  145POPC   C3A 6065   8.084  31.246   7.830
  145POPC   C4A 6066   8.162  31.200   7.354
  145POPC   C1B 6067   7.908  31.894   8.830
  145POPC   C2B 6068   7.759  31.790   8.414
  145POPC   C3B 6069   7.937  31.704   8.002
  145POPC   C4B 6070   8.080  31.680   7.543
  146POPC   NC3 6071  24.932  44.237   9.889
  146POPC   PO4 6072  25.108  43.769   9.464
  146POPC   GL1 6073  25.265  43.685   9.094
  146POPC   GL2 6074  25.229  44.031   9.010
  146POPC   C1A 6075  25.579  43.628   8.780
  146POPC   D2A 6076  25.623  43.563   8.334
  146POPC   C3A 6077  25.228  43.672   8.125
  146POPC   C4A 6078  25.189  43.892   7.735
  146POPC   C1B 6079  25.012  44.241   8.663
  146POPC   C2B 6080  25.046  44.165   8.207
  146POPC   C3B 6081  25.096  44.371   7.836
  146POPC   C4B 6082  25.096  44.278   7.377
  147POPC   NC3 6083  26.399  37.041   9.535
  147POPC   PO4 6084  25.857  36.633   9.561
  147POPC   GL1 6085  26.031  36.792   9.188
  147POPC   GL2 6086  26.389  36.697   9.154
  147POPC   C1A 6087  26.044  36.811   8.748
  147POPC   D2A 6088  25.975  37.188   8.520
  147POPC   C3A 6089  25.974  37.038   8.110
  147POPC   C4A 6090  26.056  37.107   7.692
  147POPC   C1B 6091  26.435  37.085   8.891
  147POPC   C2B 6092  26.468  37.143   8.454
  147POPC   C3B 6093  26.422  37.277   8.030
  147POPC   C4B 6094  26.519  37.249   7.569
  148POPC   NC3 6095  19.935  34.006   9.527
  148POPC   PO4 6096  20.215  33.452   9.324
  148POPC   GL1 6097  19.942  33.696   9.042
  148POPC   GL2 6098  19.602  33.837   9.154
  148POPC   C1A 6099  19.830  33.511   8.597
  148POPC   D2A 6100  19.715  33.421   8.152
  148POPC   C3A 6101  19.894  33.625   7.828
  148POPC   C4A 6102  20.139  33.827   7.501
  148POPC   C1B 6103  19.721  33.995   8.706
  148POPC   C2B 6104  19.775  33.936   8.265
  148POPC   C3B 6105  19.756  34.115   7.848
  148POPC   C4B 6106  19.374  34.194   7.648
  149POPC   NC3 6107  25.870  35.554   9.528
  149POPC   PO4 6108  26.244  34.988   9.637
  149POPC   GL1 6109  26.210  35.281   9.238
  149POPC   GL2 6110  25.876  35.323   9.087
  149POPC   C1A 6111  26.224  35.322   8.751
  149POPC   D2A 6112  26.259  35.605   8.393
  149POPC   C3A 6113  26.094  35.437   7.994
  149POPC   C4A 6114  26.093  35.618   7.588
  149POPC   C1B 6115  25.648  35.468   8.780
  149POPC   C2B 6116  25.732  35.596   8.389
  149POPC   C3B 6117  25.632  35.717   8.005
  149POPC   C4B 6118  25.585  35.487   7.666
  150POPC   NC3 6119   5.520  36.611   9.419
  150POPC   PO4 6120   5.640  35.846   9.424
  150POPC   GL1 6121   5.849  36.056   9.100
  150POPC   GL2 6122   6.058  36.376   9.031
  150POPC   C1A 6123   5.913  36.006   8.682
  150POPC   D2A 6124   5.997  36.312   8.396
  150POPC   C3A 6125   5.827  36.102   8.077
  150POPC   C4A 6126   5.881  35.800   7.772
  150POPC   C1B 6127   5.658  36.445   8.790
  150POPC   C2B 6128   5.481  36.599   8.393
  150POPC   C3B 6129   5.488  36.468   7.956
  150POPC   C4B 6130   5.728  36.280   7.613
  151POPC   NC3 6131  37.316  34.100   9.448
  151POPC   PO4 6132  36.644  33.872   9.551
  151POPC   GL1 6133  36.734  33.768   9.138
  151POPC   GL2 6134  37.088  33.714   9.161
  151POPC   C1A 6135  36.717  33.931   8.716
  151POPC   D2A 6136  36.482  33.781   8.353
  151POPC   C3A 6137  36.681  33.756   7.967
  151POPC   C4A 6138  36.928  34.059   7.771
  151POPC   C1B 6139  37.259  33.842   8.758
  151POPC   C2B 6140  37.083  33.844   8.353
  151POPC   C3B 6141  37.186  33.609   8.013
  151POPC   C4B 6142  37.288  33.735   7.600
  152POPC   NC3 6143   0.320  14.187   9.424
  152POPC   PO4 6144   0.545  14.854   9.412
  152POPC   GL1 6145   0.226  14.724   9.091
  152POPC   GL2 6146   0.457  14.488   9.018
  152POPC   C1A 6147   0.221  14.636   8.600
  152POPC   D2A 6148   0.343  14.317   8.287
  152POPC   C3A 6149   0.101  14.369   7.924
  152POPC   C4A 6150  44.795  14.650   7.845
  152POPC   C1B 6151   0.712  14.402   8.662
  152POPC   C2B 6152   0.783  14.058   8.416
  152POPC   C3B 6153   0.712  14.084   7.996
  152POPC   C4B 6154   0.582  14.420   7.741
  153POPC   NC3 6155   3.676  22.808   9.508
  153POPC   PO4 6156   4.365  22.839   9.459
  153POPC   GL1 6157   4.321  22.820   9.038
  153POPC   GL2 6158   3.942  22.722   9.070
  153POPC   C1A 6159   4.568  22.872   8.658
  153POPC   D2A 6160   4.683  22.997   8.218
  153POPC   C3A 6161   4.406  22.793   7.891
  153POPC   C4A 6162   4.277  22.705   7.451
  153POPC   C1B 6163   3.977  22.943   8.724
  153POPC   C2B 6164   4.153  22.915   8.350
  153POPC   C3B 6165   4.027  23.112   8.008
  153POPC   C4B 6166   3.883  22.978   7.648
  154POPC   NC3 6167   6.793  25.824   9.503
  154POPC   PO4 6168   7.178  26.362   9.461
  154POPC   GL1 6169   7.009  26.105   9.148
  154POPC   GL2 6170   6.684  26.261   9.183
  154POPC   C1A 6171   6.751  25.933   8.811
  154POPC   D2A 6172   6.738  26.030   8.403
  154POPC   C3A 6173   6.573  25.752   8.136
  154POPC   C4A 6174   6.724  25.854   7.771
  154POPC   C1B 6175   6.610  26.436   8.748
  154POPC   C2B 6176   6.698  26.528   8.303
  154POPC   C3B 6177   6.507  26.302   7.975
  154POPC   C4B 6178   6.521  26.357   7.539
  155POPC   NC3 6179  39.290  17.278   9.507
  155POPC   PO4 6180  39.861  17.811   9.424
  155POPC   GL1 6181  39.493  17.660   9.141
  155POPC   GL2 6182  39.139  17.491   9.097
  155POPC   C1A 6183  39.421  17.502   8.711
  155POPC   D2A 6184  39.158  17.470   8.368
  155POPC   C3A 6185  39.333  17.232   8.083
  155POPC   C4A 6186  39.454  17.543   7.838
  155POPC   C1B 6187  38.984  17.198   8.776
  155POPC   C2B 6188  38.658  17.341   8.424
  155POPC   C3B 6189  38.818  17.337   7.985
  155POPC   C4B 6190  38.714  17.060   7.656
  156POPC   NC3 6191   1.960  17.142   9.473
  156POPC   PO4 6192   2.361  17.687   9.456
  156POPC   GL1 6193   2.316  17.456   9.117
  156POPC   GL2 6194   1.966  17.409   9.024
  156POPC   C1A 6195   2.332  17.544   8.686
  156POPC   D2A 6196   2.142  17.459   8.325
  156POPC   C3A 6197   2.204  17.680   7.948
  156POPC   C4A 6198   2.148  17.884   7.541
  156POPC   C1B 6199   1.714  17.320   8.627
  156POPC   C2B 6200   1.545  17.224   8.282
  156POPC   C3B 6201   1.782  17.353   7.976
  156POPC   C4B 6202   1.805  17.027   7.739
  157POPC   NC3 6203  41.406  44.069   9.568
  157POPC   PO4 6204  42.061  43.833   9.579
  157POPC   GL1 6205  41.787  43.803   9.209
  157POPC   GL2 6206  41.461  43.611   9.124
  157POPC   C1A 6207  41.688  43.986   8.824
  157POPC   D2A 6208  41.616  44.244   8.456
  157POPC   C3A 6209  41.528  43.993   8.091
  157POPC   C4A 6210  41.464  44.078   7.658
  157POPC   C1B 6211  41.214  43.434   8.740
  157POPC   C2B 6212  41.082  43.546   8.315
  157POPC   C3B 6213  41.249  43.523   7.900
  157POPC   C4B 6214  41.584  43.607   7.685
  158POPC   NC3 6215  43.983  26.241   9.295
  158POPC   PO4 6216  43.763  25.768   9.668
  158POPC   GL1 6217  43.770  25.741   9.184
  158POPC   GL2 6218  43.563  26.003   9.105
  158POPC   C1A 6219  43.936  25.884   8.732
  158POPC   D2A 6220  44.041  25.699   8.295
  158POPC   C3A 6221  44.139  25.886   7.876
  158POPC   C4A 6222  43.944  25.874   7.454
  158POPC   C1B 6223  43.583  26.274   8.765
  158POPC   C2B 6224  43.843  26.465   8.429
  158POPC   C3B 6225  43.883  26.300   7.997
  158POPC   C4B 6226  43.595  26.337   7.594
  159POPC   NC3 6227  22.888  17.798   9.218
  159POPC   PO4 6228  23.062  17.393   9.731
  159POPC   GL1 6229  22.956  17.298   9.171
  159POPC   GL2 6230  22.716  17.365   8.972
  159POPC   C1A 6231  23.190  17.426   8.722
  159POPC   D2A 6232  23.155  17.726   8.337
  159POPC   C3A 6233  23.279  17.597   7.898
  159POPC   C4A 6234  23.254  17.328   7.505
  159POPC   C1B 6235  22.594  17.499   8.600
  159POPC   C2B 6236  22.671  17.606   8.186
  159POPC   C3B 6237  22.769  17.570   7.744
  159POPC   C4B 6238  22.958  17.712   7.365
  160POPC   NC3 6239   7.168  19.781   9.568
  160POPC   PO4 6240   7.610  20.216   9.581
  160POPC   GL1 6241   7.319  20.176   9.231
  160POPC   GL2 6242   7.347  19.828   9.099
  160POPC   C1A 6243   7.194  20.209   8.800
  160POPC   D2A 6244   7.337  20.105   8.399
  160POPC   C3A 6245   6.985  20.085   8.093
  160POPC   C4A 6246   7.025  19.904   7.681
  160POPC   C1B 6247   7.236  19.643   8.708
  160POPC   C2B 6248   7.182  19.640   8.265
  160POPC   C3B 6249   7.441  19.799   7.947
  160POPC   C4B 6250   7.587  19.565   7.583
  161POPC   NC3 6251   3.808  18.974   9.258
  161POPC   PO4 6252   3.270  18.758   9.436
  161POPC   GL1 6253   3.288  18.973   9.083
  161POPC   GL2 6254   3.382  19.334   9.056
  161POPC   C1A 6255   3.427  18.913   8.703
  161POPC   D2A 6256   3.333  19.144   8.393
  161POPC   C3A 6257   3.487  18.951   8.079
  161POPC   C4A 6258   3.420  18.902   7.719
  161POPC   C1B 6259   3.696  19.366   8.745
  161POPC   C2B 6260   3.697  19.495   8.331
  161POPC   C3B 6261   3.858  19.285   7.995
  161POPC   C4B 6262   3.745  19.256   7.575
  162POPC   NC3 6263  36.996  42.563   9.538
  162POPC   PO4 6264  36.890  41.872   9.481
  162POPC   GL1 6265  37.059  42.152   9.098
  162POPC   GL2 6266  36.971  42.493   9.046
  162POPC   C1A 6267  37.069  42.306   8.605
  162POPC   D2A 6268  36.768  42.445   8.259
  162POPC   C3A 6269  36.765  42.331   7.801
  162POPC   C4A 6270  37.076  42.299   7.456
  162POPC   C1B 6271  36.699  42.711   8.732
  162POPC   C2B 6272  36.715  42.953   8.361
  162POPC   C3B 6273  36.676  42.860   7.928
  162POPC   C4B 6274  36.382  42.916   7.603
  163POPC   NC3 6275   7.980   2.930   9.526
  163POPC   PO4 6276   8.100   2.290   9.431
  163POPC   GL1 6277   8.058   2.653   9.080
  163POPC   GL2 6278   8.082   3.039   9.045
  163POPC   C1A 6279   8.033   2.780   8.625
  163POPC   D2A 6280   8.045   2.746   8.216
  163POPC   C3A 6281   7.914   2.402   7.980
  163POPC   C4A 6282   7.884   2.676   7.591
  163POPC   C1B 6283   8.405   3.178   8.726
  163POPC   C2B 6284   8.444   3.078   8.274
  163POPC   C3B 6285   8.269   3.014   7.841
  163POPC   C4B 6286   8.458   2.951   7.420
  164POPC   NC3 6287  37.573  34.846   9.437
  164POPC   PO4 6288  37.789  34.233   9.493
  164POPC   GL1 6289  37.598  34.429   9.136
  164POPC   GL2 6290  37.919  34.592   9.104
  164POPC   C1A 6291  37.620  34.695   8.737
  164POPC   D2A 6292  37.812  34.552   8.355
  164POPC   C3A 6293  37.644  34.630   7.972
  164POPC   C4A 6294  37.308  34.906   7.892
  164POPC   C1B 6295  38.135  34.433   8.752
  164POPC   C2B 6296  38.202  34.231   8.339
  164POPC   C3B 6297  37.998  34.157   7.957
  164POPC   C4B 6298  38.017  34.428   7.603
  165POPC   NC3 6299  33.486  37.958   9.523
  165POPC   PO4 6300  34.105  37.636   9.468
  165POPC   GL1 6301  33.832  37.779   9.166
  165POPC   GL2 6302  33.571  37.520   9.210
  165POPC   C1A 6303  33.969  37.933   8.764
  165POPC   D2A 6304  34.000  37.743   8.366
  165POPC   C3A 6305  33.759  38.029   8.099
  165POPC   C4A 6306  33.798  38.093   7.670
  165POPC   C1B 6307  33.771  37.431   8.791
  165POPC   C2B 6308  33.827  37.236   8.390
  165POPC   C3B 6309  33.890  37.367   7.998
  165POPC   C4B 6310  33.638  37.641   7.793
  166POPC   NC3 6311  13.834  17.760   9.563
  166POPC   PO4 6312  13.396  17.349   9.412
  166POPC   GL1 6313  13.553  17.641   9.111
  166POPC   GL2 6314  13.917  17.639   9.075
  166POPC   C1A 6315  13.580  17.651   8.667
  166POPC   D2A 6316  13.320  17.587   8.307
  166POPC   C3A 6317  13.471  17.508   7.907
  166POPC   C4A 6318  13.847  17.250   7.812
  166POPC   C1B 6319  13.907  17.280   8.787
  166POPC   C2B 6320  13.800  17.297   8.351
  166POPC   C3B 6321  13.886  17.662   8.133
  166POPC   C4B 6322  13.994  17.712   7.700
  167POPC   NC3 6323  15.884   3.958   9.548
  167POPC   PO4 6324  15.511   4.613   9.580
  167POPC   GL1 6325  15.737   4.668   9.171
  167POPC   GL2 6326  16.083   4.508   9.221
  167POPC   C1A 6327  15.856   4.463   8.751
  167POPC   D2A 6328  15.892   4.292   8.349
  167POPC   C3A 6329  15.839   4.500   7.965
  167POPC   C4A 6330  16.084   4.397   7.602
  167POPC   C1B 6331  16.333   4.327   8.865
  167POPC   C2B 6332  16.374   4.164   8.446
  167POPC   C3B 6333  16.316   4.352   8.065
  167POPC   C4B 6334  16.270   4.766   7.899
  168POPC   NC3 6335  29.470   8.545   9.400
  168POPC   PO4 6336  28.818   8.883   9.510
  168POPC   GL1 6337  29.097   8.880   9.136
  168POPC   GL2 6338  29.010   8.576   9.108
  168POPC   C1A 6339  29.218   8.761   8.657
  168POPC   D2A 6340  29.506   8.800   8.262
  168POPC   C3A 6341  29.362   9.017   7.880
  168POPC   C4A 6342  28.909   9.096   7.803
  168POPC   C1B 6343  28.738   8.507   8.737
  168POPC   C2B 6344  28.924   8.458   8.317
  168POPC   C3B 6345  29.063   8.625   7.935
  168POPC   C4B 6346  28.971   8.691   7.479
  169POPC   NC3 6347  44.058  42.560   9.503
  169POPC   PO4 6348  43.632  42.033   9.275
  169POPC   GL1 6349  43.838  42.326   9.002
  169POPC   GL2 6350  43.746  42.604   9.115
  169POPC   C1A 6351  43.774  42.236   8.583
  169POPC   D2A 6352  43.574  42.048   8.233
  169POPC   C3A 6353  43.733  42.284   7.883
  169POPC   C4A 6354  44.029  42.518   7.629
  169POPC   C1B 6355  43.609  42.706   8.704
  169POPC   C2B 6356  43.603  42.595   8.255
  169POPC   C3B 6357  43.596  42.785   7.815
  169POPC   C4B 6358  43.589  42.758   7.316
  170POPC   NC3 6359  44.432   2.256   9.378
  170POPC   PO4 6360  44.943   1.864   9.539
  170POPC   GL1 6361  44.781   1.916   9.171
  170POPC   GL2 6362   0.034   2.034   8.938
  170POPC   C1A 6363  44.561   1.873   8.815
  170POPC   D2A 6364  44.738   1.873   8.440
  170POPC   C3A 6365  44.427   1.711   8.164
  170POPC   C4A 6366  44.564   1.710   7.757
  170POPC   C1B 6367   0.130   2.270   8.578
  170POPC   C2B 6368  44.779   2.387   8.347
  170POPC   C3B 6369  44.657   2.161   8.012
  170POPC   C4B 6370  44.684   2.253   7.613
  171POPC   NC3 6371   3.329  25.570   9.704
  171POPC   PO4 6372   3.759  25.110   9.661
  171POPC   GL1 6373   3.691  25.225   9.220
  171POPC   GL2 6374   4.000  25.392   9.161
  171POPC   C1A 6375   3.447  25.152   8.796
  171POPC   D2A 6376   3.410  24.905   8.389
  171POPC   C3A 6377   3.364  25.102   8.003
  171POPC   C4A 6378   3.164  25.420   7.734
  171POPC   C1B 6379   3.994  25.167   8.791
  171POPC   C2B 6380   3.789  25.255   8.416
  171POPC   C3B 6381   3.879  25.215   8.004
  171POPC   C4B 6382   3.666  25.331   7.660
  172POPC   NC3 6383  39.663  38.311   9.430
  172POPC   PO4 6384  40.201  38.711   9.462
  172POPC   GL1 6385  39.937  38.598   9.081
  172POPC   GL2 6386  40.006  38.270   8.976
  172POPC   C1A 6387  39.886  38.549   8.590
  172POPC   D2A 6388  39.986  38.296   8.235
  172POPC   C3A 6389  39.993  38.552   7.854
  172POPC   C4A 6390  39.739  38.605   7.474
  172POPC   C1B 6391  40.242  38.072   8.635
  172POPC   C2B 6392  40.360  37.895   8.255
  172POPC   C3B 6393  40.299  38.142   7.877
  172POPC   C4B 6394  40.373  38.419   7.552
  173POPC   NC3 6395  28.859  29.596   9.421
  173POPC   PO4 6396  29.109  28.984   9.528
  173POPC   GL1 6397  29.056  29.153   9.170
  173POPC   GL2 6398  29.291  29.384   9.126
  173POPC   C1A 6399  28.827  29.108   8.832
  173POPC   D2A 6400  28.936  28.898   8.467
  173POPC   C3A 6401  29.175  29.128   8.188
  173POPC   C4A 6402  28.927  29.028   7.817
  173POPC   C1B 6403  29.271  29.283   8.683
  173POPC   C2B 6404  29.453  29.574   8.383
  173POPC   C3B 6405  29.399  29.666   7.966
  173POPC   C4B 6406  29.299  29.354   7.697
  174POPC   NC3 6407  21.832  23.012   9.595
  174POPC   PO4 6408  21.210  23.014   9.776
  174POPC   GL1 6409  21.305  23.011   9.339
  174POPC   GL2 6410  21.180  22.692   9.240
  174POPC   C1A 6411  21.568  23.053   8.936
  174POPC   D2A 6412  21.683  22.906   8.502
  174POPC   C3A 6413  21.536  23.035   8.094
  174POPC   C4A 6414  21.481  22.710   7.798
  174POPC   C1B 6415  21.128  22.854   8.812
  174POPC   C2B 6416  21.105  22.877   8.360
  174POPC   C3B 6417  21.057  22.975   7.929
  174POPC   C4B 6418  21.016  22.730   7.574
  175POPC   NC3 6419  15.099  43.854   9.561
  175POPC   PO4 6420  15.717  43.571   9.685
  175POPC   GL1 6421  15.545  43.823   9.267
  175POPC   GL2 6422  15.225  43.970   9.106
  175POPC   C1A 6423  15.611  43.924   8.812
  175POPC   D2A 6424  15.364  43.994   8.417
  175POPC   C3A 6425  15.054  43.847   8.104
  175POPC   C4A 6426  15.160  44.048   7.714
  175POPC   C1B 6427  14.981  44.053   8.754
  175POPC   C2B 6428  14.865  44.249   8.365
  175POPC   C3B 6429  14.757  44.256   7.920
  175POPC   C4B 6430  14.803  44.223   7.400
  176POPC   NC3 6431  25.695  36.199   9.528
  176POPC   PO4 6432  26.269  35.808   9.550
  176POPC   GL1 6433  26.066  35.920   9.210
  176POPC   GL2 6434  26.096  36.270   9.215
  176POPC   C1A 6435  26.013  35.820   8.803
  176POPC   D2A 6436  25.956  36.048   8.440
  176POPC   C3A 6437  26.083  35.944   8.052
  176POPC   C4A 6438  25.882  36.068   7.708
  176POPC   C1B 6439  25.830  36.342   8.862
  176POPC   C2B 6440  25.746  36.499   8.436
  176POPC   C3B 6441  25.934  36.490   8.012
  176POPC   C4B 6442  26.107  36.513   7.585
  177POPC   NC3 6443  17.498  41.804   9.972
  177POPC   PO4 6444  17.626  42.327   9.529
  177POPC   GL1 6445  17.631  42.564   9.156
  177POPC   GL2 6446  17.332  42.417   9.043
  177POPC   C1A 6447  17.710  42.680   8.709
  177POPC   D2A 6448  17.677  42.747   8.259
  177POPC   C3A 6449  17.447  42.379   8.087
  177POPC   C4A 6450  17.232  42.329   7.652
  177POPC   C1B 6451  17.639  42.167   8.811
  177POPC   C2B 6452  17.722  41.883   8.464
  177POPC   C3B 6453  17.739  41.825   8.018
  177POPC   C4B 6454  17.711  42.163   7.715
  178POPC   NC3 6455  43.016  26.851   9.501
  178POPC   PO4 6456  43.564  26.399   9.428
  178POPC   GL1 6457  43.283  26.593   9.164
  178POPC   GL2 6458  43.407  26.962   9.174
  178POPC   C1A 6459  43.039  26.796   8.829
  178POPC   D2A 6460  43.146  27.089   8.495
  178POPC   C3A 6461  43.084  26.941   8.052
  178POPC   C4A 6462  42.882  26.895   7.601
  178POPC   C1B 6463  43.561  26.765   8.796
  178POPC   C2B 6464  43.332  26.592   8.449
  178POPC   C3B 6465  43.453  26.557   8.059
  178POPC   C4B 6466  43.446  26.813   7.719
  179POPC   NC3 6467  27.997  21.014   9.620
  179POPC   PO4 6468  27.282  20.990   9.773
  179POPC   GL1 6469  27.528  20.874   9.352
  179POPC   GL2 6470  27.781  20.706   9.207
  179POPC   C1A 6471  27.486  20.795   8.831
  179POPC   D2A 6472  27.490  20.516   8.472
  179POPC   C3A 6473  27.482  20.669   8.047
  179POPC   C4A 6474  27.381  20.588   7.582
  179POPC   C1B 6475  27.938  20.548   8.786
  179POPC   C2B 6476  27.983  20.458   8.357
  179POPC   C3B 6477  27.977  20.221   8.010
  179POPC   C4B 6478  28.017  20.353   7.625
  180POPC   NC3 6479   7.638  43.431   9.422
  180POPC   PO4 6480   7.071  43.846   9.524
  180POPC   GL1 6481   7.268  43.747   9.109
  180POPC   GL2 6482   7.648  43.800   9.066
  180POPC   C1A 6483   7.337  43.740   8.654
  180POPC   D2A 6484   7.511  43.937   8.294
  180POPC   C3A 6485   7.408  43.733   7.918
  180POPC   C4A 6486   7.124  43.440   7.793
  180POPC   C1B 6487   7.900  44.038   8.753
  180POPC   C2B 6488   7.833  44.324   8.406
  180POPC   C3B 6489   7.839  44.181   7.952
  180POPC   C4B 6490   7.779  43.858   7.593
  181POPC   NC3 6491  44.006  32.769   9.592
  181POPC   PO4 6492  44.213  33.471   9.516
  181POPC   GL1 6493  44.120  33.234   9.153
  181POPC   GL2 6494  43.949  32.918   9.110
  181POPC   C1A 6495  43.918  33.277   8.753
  181POPC   D2A 6496  43.682  33.314   8.396
  181POPC   C3A 6497  43.970  33.144   8.123
  181POPC   C4A 6498  44.071  33.034   7.727
  181POPC   C1B 6499  43.669  32.836   8.740
  181POPC   C2B 6500  43.692  32.765   8.308
  181POPC   C3B 6501  43.593  32.860   7.888
  181POPC   C4B 6502  43.527  32.599   7.513
  182POPC   NC3 6503  21.012  39.142   9.455
  182POPC   PO4 6504  21.527  39.537   9.655
  182POPC   GL1 6505  21.485  39.317   9.202
  182POPC   GL2 6506  21.493  38.941   9.221
  182POPC   C1A 6507  21.242  39.278   8.774
  182POPC   D2A 6508  21.059  39.364   8.352
  182POPC   C3A 6509  21.210  39.205   7.937
  182POPC   C4A 6510  21.204  39.180   7.455
  182POPC   C1B 6511  21.358  38.796   8.803
  182POPC   C2B 6512  21.389  38.932   8.388
  182POPC   C3B 6513  21.556  38.760   8.026
  182POPC   C4B 6514  21.362  38.715   7.634
  183POPC   NC3 6515   5.376   6.447   9.529
  183POPC   PO4 6516   4.885   6.299   9.339
  183POPC   GL1 6517   5.229   6.470   9.026
  183POPC   GL2 6518   5.515   6.724   9.110
  183POPC   C1A 6519   5.213   6.537   8.559
  183POPC   D2A 6520   5.243   6.449   8.090
  183POPC   C3A 6521   5.097   6.754   7.789
  183POPC   C4A 6522   4.719   6.695   7.496
  183POPC   C1B 6523   5.609   6.831   8.665
  183POPC   C2B 6524   5.443   6.910   8.239
  183POPC   C3B 6525   5.584   6.968   7.800
  183POPC   C4B 6526   5.401   6.920   7.392
  184POPC   NC3 6527  38.487  10.762   9.647
  184POPC   PO4 6528  38.643  10.203   9.781
  184POPC   GL1 6529  38.512  10.357   9.271
  184POPC   GL2 6530  38.429  10.728   9.148
  184POPC   C1A 6531  38.727  10.368   8.835
  184POPC   D2A 6532  38.550  10.548   8.448
  184POPC   C3A 6533  38.643  10.350   8.052
  184POPC   C4A 6534  38.625  10.535   7.665
  184POPC   C1B 6535  38.155  10.591   8.824
  184POPC   C2B 6536  38.067  10.291   8.523
  184POPC   C3B 6537  38.024  10.270   8.138
  184POPC   C4B 6538  38.164  10.281   7.755
  185POPC   NC3 6539   5.741  40.950   9.436
  185POPC   PO4 6540   6.379  40.661   9.499
  185POPC   GL1 6541   6.126  40.762   9.128
  185POPC   GL2 6542   5.870  40.500   9.221
  185POPC   C1A 6543   6.016  41.044   8.749
  185POPC   D2A 6544   5.811  41.143   8.327
  185POPC   C3A 6545   5.649  40.875   8.010
  185POPC   C4A 6546   5.945  40.756   7.710
  185POPC   C1B 6547   5.716  40.631   8.814
  185POPC   C2B 6548   5.749  40.504   8.403
  185POPC   C3B 6549   5.472  40.316   8.128
  185POPC   C4B 6550   5.549  40.431   7.739
  186POPC   NC3 6551  38.381  24.904   9.447
  186POPC   PO4 6552  38.549  24.266   9.468
  186POPC   GL1 6553  38.494  24.274   9.058
  186POPC   GL2 6554  38.327  24.575   9.068
  186POPC   C1A 6555  38.682  24.335   8.671
  186POPC   D2A 6556  38.427  24.302   8.327
  186POPC   C3A 6557  38.527  24.294   7.905
  186POPC   C4A 6558  38.096  24.243   7.783
  186POPC   C1B 6559  38.318  24.710   8.662
  186POPC   C2B 6560  38.599  24.800   8.371
  186POPC   C3B 6561  38.683  24.925   7.992
  186POPC   C4B 6562  38.849  24.656   7.699
  187POPC   NC3 6563  23.644  39.360   9.442
  187POPC   PO4 6564  24.017  38.834   9.135
  187POPC   GL1 6565  23.733  39.080   9.036
  187POPC   GL2 6566  23.434  38.956   9.166
  187POPC   C1A 6567  23.650  39.428   8.786
  187POPC   D2A 6568  23.974  39.546   8.552
  187POPC   C3A 6569  23.930  39.407   8.161
  187POPC   C4A 6570  23.712  39.377   7.778
  187POPC   C1B 6571  23.353  38.975   8.746
  187POPC   C2B 6572  23.735  39.002   8.508
  187POPC   C3B 6573  23.701  38.965   8.107
  187POPC   C4B 6574  23.264  39.003   7.916
  188POPC   NC3 6575  41.136  23.714   9.515
  188POPC   PO4 6576  41.754  23.501   9.678
  188POPC   GL1 6577  41.798  23.589   9.247
  188POPC   GL2 6578  41.463  23.664   9.091
  188POPC   C1A 6579  41.895  23.556   8.815
  188POPC   D2A 6580  41.630  23.649   8.482
  188POPC   C3A 6581  41.589  23.534   8.054
  188POPC   C4A 6582  41.503  23.795   7.695
  188POPC   C1B 6583  41.247  23.880   8.731
  188POPC   C2B 6584  40.997  23.901   8.403
  188POPC   C3B 6585  41.241  24.014   8.099
  188POPC   C4B 6586  41.229  24.221   7.731
  189POPC   NC3 6587  41.499  11.555   9.496
  189POPC   PO4 6588  41.713  10.910   9.412
  189POPC   GL1 6589  41.441  11.216   9.118
  189POPC   GL2 6590  41.175  11.559   9.109
  189POPC   C1A 6591  41.553  11.512   8.798
  189POPC   D2A 6592  41.521  11.404   8.388
  189POPC   C3A 6593  41.691  11.281   8.033
  189POPC   C4A 6594  41.477  11.110   7.682
  189POPC   C1B 6595  41.023  11.467   8.717
  189POPC   C2B 6596  41.027  11.416   8.281
  189POPC   C3B 6597  41.267  11.615   7.938
  189POPC   C4B 6598  41.319  11.624   7.482
  190POPC   NC3 6599  18.796  29.097   9.832
  190POPC   PO4 6600  19.335  29.081   9.446
  190POPC   GL1 6601  19.008  29.066   9.192
  190POPC   GL2 6602  18.756  29.266   9.247
  190POPC   C1A 6603  18.906  29.040   8.807
  190POPC   D2A 6604  19.141  28.934   8.508
  190POPC   C3A 6605  18.960  28.993   8.147
  190POPC   C4A 6606  19.225  29.147   7.846
  190POPC   C1B 6607  18.837  29.528   8.869
  190POPC   C2B 6608  18.906  29.425   8.439
  190POPC   C3B 6609  18.930  29.524   7.994
  190POPC   C4B 6610  18.786  29.660   7.576
  191POPC   NC3 6611  31.323  37.167   9.481
  191POPC   PO4 6612  31.077  37.818   9.708
  191POPC   GL1 6613  31.385  37.660   9.394
  191POPC   GL2 6614  31.164  37.781   9.160
  191POPC   C1A 6615  31.661  37.573   8.994
  191POPC   D2A 6616  31.540  37.545   8.538
  191POPC   C3A 6617  31.759  37.608   8.146
  191POPC   C4A 6618  31.782  37.546   7.718
  191POPC   C1B 6619  31.048  37.822   8.739
  191POPC   C2B 6620  31.234  37.893   8.343
  191POPC   C3B 6621  31.295  37.767   7.932
  191POPC   C4B 6622  31.284  37.992   7.565
  192POPC   NC3 6623  12.338   6.677   9.261
  192POPC   PO4 6624  11.975   7.080   9.618
  192POPC   GL1 6625  11.826   6.861   9.210
  192POPC   GL2 6626  11.871   6.488   9.181
  192POPC   C1A 6627  11.942   6.824   8.768
  192POPC   D2A 6628  12.209   6.615   8.491
  192POPC   C3A 6629  11.988   6.688   8.097
  192POPC   C4A 6630  11.775   6.731   7.729
  192POPC   C1B 6631  12.025   6.238   8.833
  192POPC   C2B 6632  12.113   6.079   8.430
  192POPC   C3B 6633  12.168   6.219   8.050
  192POPC   C4B 6634  11.994   6.254   7.672
  193POPC   NC3 6635  35.779   7.431   9.696
  193POPC   PO4 6636  36.430   7.671   9.588
  193POPC   GL1 6637  36.108   7.528   9.248
  193POPC   GL2 6638  35.950   7.281   9.058
  193POPC   C1A 6639  36.113   7.670   8.798
  193POPC   D2A 6640  36.255   7.598   8.373
  193POPC   C3A 6641  36.412   7.426   7.975
  193POPC   C4A 6642  36.273   7.406   7.540
  193POPC   C1B 6643  36.082   7.182   8.635
  193POPC   C2B 6644  36.026   7.158   8.217
  193POPC   C3B 6645  36.071   7.038   7.812
  193POPC   C4B 6646  36.098   6.946   7.381
  194POPC   NC3 6647  22.380  18.616   9.484
  194POPC   PO4 6648  22.100  19.248   9.517
  194POPC   GL1 6649  22.066  18.977   9.170
  194POPC   GL2 6650  22.407  18.906   9.057
  194POPC   C1A 6651  22.089  19.217   8.787
  194POPC   D2A 6652  22.014  19.387   8.374
  194POPC   C3A 6653  22.076  19.112   8.065
  194POPC   C4A 6654  22.233  18.888   7.710
  194POPC   C1B 6655  22.190  18.736   8.704
  194POPC   C2B 6656  22.193  18.666   8.282
  194POPC   C3B 6657  21.844  18.631   7.978
  194POPC   C4B 6658  21.676  18.357   7.656
  195POPC   NC3 6659  10.973  37.132   9.464
  195POPC   PO4 6660  11.670  37.054   9.429
  195POPC   GL1 6661  11.386  37.078   9.140
  195POPC   GL2 6662  11.253  36.755   9.255
  195POPC   C1A 6663  11.309  37.190   8.695
  195POPC   D2A 6664  11.198  36.955   8.314
  195POPC   C3A 6665  11.452  37.090   7.957
  195POPC   C4A 6666  11.785  37.066   7.630
  195POPC   C1B 6667  11.388  36.705   8.812
  195POPC   C2B 6668  11.279  36.477   8.487
  195POPC   C3B 6669  11.392  36.481   8.076
  195POPC   C4B 6670  11.286  36.628   7.741
  196POPC   NC3 6671  37.960  42.316   9.445
  196POPC   PO4 6672  37.375  42.166   9.709
  196POPC   GL1 6673  37.454  42.406   9.308
  196POPC   GL2 6674  37.567  42.075   9.193
  196POPC   C1A 6675  37.554  42.491   8.849
  196POPC   D2A 6676  37.518  42.380   8.386
  196POPC   C3A 6677  37.665  42.593   8.015
  196POPC   C4A 6678  37.791  42.521   7.591
  196POPC   C1B 6679  37.518  41.968   8.769
  196POPC   C2B 6680  37.745  41.917   8.392
  196POPC   C3B 6681  37.979  42.126   8.069
  196POPC   C4B 6682  37.956  42.022   7.639
  197POPC   NC3 6683  35.921  38.218   9.347
  197POPC   PO4 6684  36.408  38.674   9.543
  197POPC   GL1 6685  36.280  38.550   9.159
  197POPC   GL2 6686  36.255  38.901   9.099
  197POPC   C1A 6687  36.229  38.316   8.768
  197POPC   D2A 6688  36.345  38.210   8.364
  197POPC   C3A 6689  36.313  38.492   8.035
  197POPC   C4A 6690  36.307  38.241   7.688
  197POPC   C1B 6691  35.901  38.734   8.864
  197POPC   C2B 6692  35.976  38.643   8.453
  197POPC   C3B 6693  35.821  38.589   8.069
  197POPC   C4B 6694  35.927  38.616   7.652
  198POPC   NC3 6695   5.572  24.650   9.553
  198POPC   PO4 6696   6.208  24.627   9.404
  198POPC   GL1 6697   5.835  24.706   9.132
  198POPC   GL2 6698   5.612  24.392   9.117
  198POPC   C1A 6699   5.615  24.743   8.746
  198POPC   D2A 6700   5.869  24.498   8.492
  198POPC   C3A 6701   5.872  24.637   8.095
  198POPC   C4A 6702   6.170  24.580   7.781
  198POPC   C1B 6703   5.326  24.300   8.780
  198POPC   C2B 6704   5.400  24.367   8.370
  198POPC   C3B 6705   5.460  24.365   7.969
  198POPC   C4B 6706   5.672  24.494   7.651
  199POPC   NC3 6707  31.129  13.878   9.539
  199POPC   PO4 6708  31.779  13.561   9.501
  199POPC   GL1 6709  31.600  13.662   9.078
  199POPC   GL2 6710  31.265  13.598   9.117
  199POPC   C1A 6711  31.597  13.626   8.607
  199POPC   D2A 6712  31.731  13.398   8.228
  199POPC   C3A 6713  31.840  13.651   7.866
  199POPC   C4A 6714  31.757  13.595   7.402
  199POPC   C1B 6715  31.163  13.817   8.771
  199POPC   C2B 6716  31.112  13.664   8.369
  199POPC   C3B 6717  31.338  13.635   8.004
  199POPC   C4B 6718  31.303  13.774   7.584
  200POPC   NC3 6719  11.652   7.428   9.556
  200POPC   PO4 6720  11.039   7.219   9.294
  200POPC   GL1 6721  11.251   7.484   9.017
  200POPC   GL2 6722  11.601   7.660   9.114
  200POPC   C1A 6723  11.002   7.478   8.616
  200POPC   D2A 6724  11.145   7.216   8.282
  200POPC   C3A 6725  11.140   7.269   7.875
  200POPC   C4A 6726  11.119   7.527   7.586
  200POPC   C1B 6727  11.749   7.299   8.895
  200POPC   C2B 6728  11.694   7.174   8.465
  200POPC   C3B 6729  11.608   7.318   8.048
  200POPC   C4B 6730  11.623   7.643   7.715
  201POPC   NC3 6731  30.876   3.465   9.563
  201POPC   PO4 6732  30.302   3.742   9.708
  201POPC   GL1 6733  30.434   3.693   9.262
  201POPC   GL2 6734  30.788   3.763   9.174
  201POPC   C1A 6735  30.406   3.555   8.812
  201POPC   D2A 6736  30.527   3.725   8.386
  201POPC   C3A 6737  30.720   3.498   8.026
  201POPC   C4A 6738  30.571   3.412   7.629
  201POPC   C1B 6739  30.918   3.602   8.771
  201POPC   C2B 6740  31.066   3.715   8.352
  201POPC   C3B 6741  30.987   3.913   7.942
  201POPC   C4B 6742  31.065   3.861   7.502
  202POPC   NC3 6743  16.698  38.805   9.658
  202POPC   PO4 6744  16.307  39.276   9.711
  202POPC   GL1 6745  16.686  39.237   9.389
  202POPC   GL2 6746  16.758  39.544   9.192
  202POPC   C1A 6747  16.838  39.140   8.916
  202POPC   D2A 6748  16.592  39.131   8.517
  202POPC   C3A 6749  16.802  39.161   8.077
  202POPC   C4A 6750  16.618  39.148   7.659
  202POPC   C1B 6751  16.666  39.599   8.750
  202POPC   C2B 6752  16.637  39.596   8.313
  202POPC   C3B 6753  16.617  39.613   7.894
  202POPC   C4B 6754  16.623  39.627   7.471
  203POPC   NC3 6755  24.804  11.093   9.815
  203POPC   PO4 6756  24.431  11.465   9.438
  203POPC   GL1 6757  24.659  11.311   9.125
  203POPC   GL2 6758  24.836  10.988   9.194
  203POPC   C1A 6759  24.526  11.454   8.726
  203POPC   D2A 6760  24.201  11.537   8.438
  203POPC   C3A 6761  24.427  11.464   8.087
  203POPC   C4A 6762  24.458  11.647   7.706
  203POPC   C1B 6763  24.592  10.927   8.801
  203POPC   C2B 6764  24.536  11.041   8.394
  203POPC   C3B 6765  24.292  10.975   8.058
  203POPC   C4B 6766  24.327  11.136   7.668
  204POPC   NC3 6767  27.690  44.796   9.949
  204POPC   PO4 6768  27.481  44.510   9.400
  204POPC   GL1 6769  27.594  44.495   9.032
  204POPC   GL2 6770  27.730  44.773   8.957
  204POPC   C1A 6771  27.567  44.288   8.689
  204POPC   D2A 6772  27.476  44.516   8.397
  204POPC   C3A 6773  27.755  44.604   8.116
  204POPC   C4A 6774  27.588  44.431   7.801
  204POPC   C1B 6775  27.322  44.891   8.781
  204POPC   C2B 6776  27.112  44.846   8.385
  204POPC   C3B 6777  27.317  44.865   7.988
  204POPC   C4B 6778  27.414   0.239   7.748
  205POPC   NC3 6779  19.469  15.710   9.494
  205POPC   PO4 6780  18.713  15.711   9.690
  205POPC   GL1 6781  18.883  15.764   9.260
  205POPC   GL2 6782  19.106  15.994   9.289
  205POPC   C1A 6783  18.794  16.045   8.884
  205POPC   D2A 6784  18.659  16.042   8.465
  205POPC   C3A 6785  18.887  16.284   8.166
  205POPC   C4A 6786  19.085  16.107   7.829
  205POPC   C1B 6787  19.299  15.992   8.868
  205POPC   C2B 6788  19.244  15.998   8.422
  205POPC   C3B 6789  19.285  15.701   8.047
  205POPC   C4B 6790  19.180  15.669   7.585
  206POPC   NC3 6791  31.669  26.394   9.627
  206POPC   PO4 6792  31.346  27.000   9.601
  206POPC   GL1 6793  31.314  26.898   9.181
  206POPC   GL2 6794  31.138  26.585   9.124
  206POPC   C1A 6795  31.402  26.974   8.749
  206POPC   D2A 6796  31.677  27.060   8.389
  206POPC   C3A 6797  31.438  26.987   8.029
  206POPC   C4A 6798  31.140  26.713   7.814
  206POPC   C1B 6799  31.539  26.496   8.927
  206POPC   C2B 6800  31.642  26.575   8.500
  206POPC   C3B 6801  31.485  26.456   8.111
  206POPC   C4B 6802  31.637  26.547   7.724
  207POPC   NC3 6803  41.750  33.810   9.568
  207POPC   PO4 6804  41.120  33.895   9.353
  207POPC   GL1 6805  41.475  33.651   9.138
  207POPC   GL2 6806  41.850  33.564   9.143
  207POPC   C1A 6807  41.570  33.573   8.717
  207POPC   D2A 6808  41.334  33.441   8.373
  207POPC   C3A 6809  41.401  33.751   8.069
  207POPC   C4A 6810  41.547  33.833   7.673
  207POPC   C1B 6811  41.934  33.920   8.859
  207POPC   C2B 6812  41.772  33.971   8.443
  207POPC   C3B 6813  41.905  33.850   8.044
  207POPC   C4B 6814  42.047  34.126   7.752
  208POPC   NC3 6815  42.730   7.770   9.420
  208POPC   PO4 6816  43.097   7.127   9.383
  208POPC   GL1 6817  43.010   7.381   9.056
  208POPC   GL2 6818  42.661   7.246   9.099
  208POPC   C1A 6819  43.159   7.522   8.620
  208POPC   D2A 6820  43.406   7.672   8.230
  208POPC   C3A 6821  43.431   7.382   7.922
  208POPC   C4A 6822  43.086   7.199   7.854
  208POPC   C1B 6823  42.775   7.164   8.663
  208POPC   C2B 6824  42.813   7.352   8.264
  208POPC   C3B 6825  42.602   7.148   7.915
  208POPC   C4B 6826  42.646   7.222   7.457
  209POPC   NC3 6827  36.642  41.912   9.880
  209POPC   PO4 6828  36.987  41.262   9.719
  209POPC   GL1 6829  36.954  41.393   9.262
  209POPC   GL2 6830  37.207  41.646   9.125
  209POPC   C1A 6831  36.907  41.349   8.819
  209POPC   D2A 6832  36.934  41.148   8.436
  209POPC   C3A 6833  36.971  41.422   8.108
  209POPC   C4A 6834  37.165  41.403   7.744
  209POPC   C1B 6835  37.038  41.815   8.721
  209POPC   C2B 6836  37.244  41.891   8.325
  209POPC   C3B 6837  37.275  42.144   7.960
  209POPC   C4B 6838  37.005  41.877   7.731
  210POPC   NC3 6839   3.390  16.570   9.599
  210POPC   PO4 6840   3.429  15.794   9.559
  210POPC   GL1 6841   3.413  16.000   9.155
  210POPC   GL2 6842   3.690  15.786   9.077
  210POPC   C1A 6843   3.454  16.045   8.710
  210POPC   D2A 6844   3.689  16.040   8.333
  210POPC   C3A 6845   3.425  15.914   8.005
  210POPC   C4A 6846   3.306  15.900   7.598
  210POPC   C1B 6847   3.326  15.562   8.867
  210POPC   C2B 6848   3.324  15.619   8.430
  210POPC   C3B 6849   3.702  15.528   8.222
  210POPC   C4B 6850   3.918  15.778   7.934
  211POPC   NC3 6851   7.808  37.224   9.460
  211POPC   PO4 6852   8.328  36.765   9.451
  211POPC   GL1 6853   8.308  37.017   9.091
  211POPC   GL2 6854   8.349  37.342   9.110
  211POPC   C1A 6855   8.315  36.898   8.682
  211POPC   D2A 6856   8.637  36.822   8.372
  211POPC   C3A 6857   8.360  36.834   8.043
  211POPC   C4A 6858   8.175  36.847   7.654
  211POPC   C1B 6859   8.075  37.341   8.745
  211POPC   C2B 6860   8.071  37.201   8.317
  211POPC   C3B 6861   8.158  37.294   7.869
  211POPC   C4B 6862   8.091  37.284   7.397
  212POPC   NC3 6863  34.917  23.729   9.590
  212POPC   PO4 6864  35.430  23.367   9.467
  212POPC   GL1 6865  35.222  23.477   9.145
  212POPC   GL2 6866  35.249  23.817   9.168
  212POPC   C1A 6867  35.398  23.475   8.771
  212POPC   D2A 6868  35.270  23.614   8.404
  212POPC   C3A 6869  35.468  23.598   8.053
  212POPC   C4A 6870  35.354  23.423   7.670
  212POPC   C1B 6871  35.365  23.993   8.753
  212POPC   C2B 6872  35.354  24.159   8.315
  212POPC   C3B 6873  35.244  24.146   7.875
  212POPC   C4B 6874  34.922  24.067   7.528
  213POPC   NC3 6875   8.486  33.966   9.426
  213POPC   PO4 6876   8.039  33.549   9.643
  213POPC   GL1 6877   8.205  33.611   9.153
  213POPC   GL2 6878   8.341  33.959   8.945
  213POPC   C1A 6879   8.177  33.595   8.682
  213POPC   D2A 6880   8.343  33.742   8.304
  213POPC   C3A 6881   8.248  33.495   7.986
  213POPC   C4A 6882   8.496  33.412   7.659
  213POPC   C1B 6883   8.556  34.177   8.607
  213POPC   C2B 6884   8.575  34.177   8.146
  213POPC   C3B 6885   8.468  33.989   7.732
  213POPC   C4B 6886   8.439  34.213   7.306
  214POPC   NC3 6887   9.775  39.090   9.444
  214POPC   PO4 6888   9.269  39.447   9.678
  214POPC   GL1 6889   9.520  39.543   9.255
  214POPC   GL2 6890   9.908  39.529   9.184
  214POPC   C1A 6891   9.497  39.436   8.797
  214POPC   D2A 6892   9.617  39.102   8.463
  214POPC   C3A 6893   9.528  39.240   8.022
  214POPC   C4A 6894   9.618  39.431   7.620
  214POPC   C1B 6895   9.995  39.381   8.736
  214POPC   C2B 6896   9.834  39.525   8.333
  214POPC   C3B 6897  10.003  39.428   7.939
  214POPC   C4B 6898  10.143  39.644   7.558
  215POPC   NC3 6899  33.806   7.015   9.796
  215POPC   PO4 6900  34.161   7.386   9.373
  215POPC   GL1 6901  33.888   7.350   9.081
  215POPC   GL2 6902  33.637   7.542   9.107
  215POPC   C1A 6903  33.759   7.341   8.675
  215POPC   D2A 6904  33.860   7.173   8.355
  215POPC   C3A 6905  33.830   7.382   8.019
  215POPC   C4A 6906  33.750   7.144   7.690
  215POPC   C1B 6907  33.470   7.787   8.801
  215POPC   C2B 6908  33.640   7.808   8.424
  215POPC   C3B 6909  33.476   7.810   8.030
  215POPC   C4B 6910  33.513   7.602   7.680
  216POPC   NC3 6911  21.528  18.129   9.440
  216POPC   PO4 6912  20.897  18.243   9.535
  216POPC   GL1 6913  21.085  18.351   9.155
  216POPC   GL2 6914  21.183  18.030   9.037
  216POPC   C1A 6915  21.382  18.466   8.809
  216POPC   D2A 6916  21.703  18.372   8.449
  216POPC   C3A 6917  21.423  18.303   8.096
  216POPC   C4A 6918  21.186  18.490   7.719
  216POPC   C1B 6919  21.340  17.998   8.599
  216POPC   C2B 6920  21.293  17.774   8.201
  216POPC   C3B 6921  21.106  17.989   7.842
  216POPC   C4B 6922  21.314  18.024   7.430
  217POPC   NC3 6923  20.968   2.547   9.381
  217POPC   PO4 6924  20.432   2.976   9.480
  217POPC   GL1 6925  20.580   2.739   9.125
  217POPC   GL2 6926  20.879   2.961   9.069
  217POPC   C1A 6927  20.749   2.506   8.715
  217POPC   D2A 6928  20.773   2.310   8.276
  217POPC   C3A 6929  20.685   2.518   7.887
  217POPC   C4A 6930  20.838   2.620   7.430
  217POPC   C1B 6931  20.636   3.027   8.722
  217POPC   C2B 6932  20.798   2.897   8.359
  217POPC   C3B 6933  20.759   3.047   7.985
  217POPC   C4B 6934  20.514   2.934   7.653
  218POPC   NC3 6935  20.774  34.545   9.556
  218POPC   PO4 6936  20.119  34.437   9.467
  218POPC   GL1 6937  20.436  34.588   9.172
  218POPC   GL2 6938  20.522  34.920   9.289
  218POPC   C1A 6939  20.630  34.423   8.777
  218POPC   D2A 6940  20.621  34.178   8.371
  218POPC   C3A 6941  20.908  34.319   8.029
  218POPC   C4A 6942  20.837  34.451   7.569
  218POPC   C1B 6943  20.612  34.944   8.829
  218POPC   C2B 6944  20.724  34.837   8.394
  218POPC   C3B 6945  20.587  34.736   7.972
  218POPC   C4B 6946  20.453  35.016   7.655
  219POPC   NC3 6947  10.883  10.518   9.760
  219POPC   PO4 6948  11.379  10.330   9.337
  219POPC   GL1 6949  11.328  10.672   9.119
  219POPC   GL2 6950  11.110  10.519   8.910
  219POPC   C1A 6951  11.488  10.817   8.720
  219POPC   D2A 6952  11.308  10.516   8.410
  219POPC   C3A 6953  11.160  10.659   8.015
  219POPC   C4A 6954  11.405  10.614   7.642
  219POPC   C1B 6955  10.797  10.391   8.658
  219POPC   C2B 6956  10.696  10.557   8.283
  219POPC   C3B 6957  10.807  10.271   7.984
  219POPC   C4B 6958  10.939  10.393   7.609
  220POPC   NC3 6959  16.918  16.400   9.389
  220POPC   PO4 6960  16.460  16.851   9.495
  220POPC   GL1 6961  16.654  16.786   9.118
  220POPC   GL2 6962  16.489  16.469   9.116
  220POPC   C1A 6963  16.879  16.937   8.738
  220POPC   D2A 6964  17.107  16.971   8.378
  220POPC   C3A 6965  16.855  16.915   8.005
  220POPC   C4A 6966  17.011  17.219   7.720
  220POPC   C1B 6967  16.733  16.447   8.751
  220POPC   C2B 6968  16.644  16.634   8.386
  220POPC   C3B 6969  16.691  16.383   8.051
  220POPC   C4B 6970  17.009  16.427   7.767
  221POPC   NC3 6971  40.859  18.841   9.683
  221POPC   PO4 6972  40.345  19.293   9.597
  221POPC   GL1 6973  40.681  19.049   9.262
  221POPC   GL2 6974  40.979  18.797   9.198
  221POPC   C1A 6975  40.797  19.155   8.807
  221POPC   D2A 6976  40.736  19.445   8.429
  221POPC   C3A 6977  40.865  19.326   8.021
  221POPC   C4A 6978  40.652  19.469   7.645
  221POPC   C1B 6979  40.870  18.646   8.813
  221POPC   C2B 6980  40.996  18.772   8.418
  221POPC   C3B 6981  40.875  18.666   8.020
  221POPC   C4B 6982  40.854  18.934   7.696
  222POPC   NC3 6983  33.535  28.750   9.614
  222POPC   PO4 6984  32.828  28.950   9.618
  222POPC   GL1 6985  33.013  29.064   9.205
  222POPC   GL2 6986  33.363  29.100   9.271
  222POPC   C1A 6987  33.182  29.212   8.804
  222POPC   D2A 6988  32.990  29.031   8.450
  222POPC   C3A 6989  32.928  29.244   8.046
  222POPC   C4A 6990  32.935  29.006   7.671
  222POPC   C1B 6991  33.508  28.829   8.929
  222POPC   C2B 6992  33.535  28.909   8.475
  222POPC   C3B 6993  33.311  28.905   8.071
  222POPC   C4B 6994  33.376  28.734   7.687
  223POPC   NC3 6995  42.315   5.398   9.371
  223POPC   PO4 6996  42.278   5.961   9.593
  223POPC   GL1 6997  42.368   5.875   9.185
  223POPC   GL2 6998  42.028   5.780   9.149
  223POPC   C1A 6999  42.564   6.063   8.825
  223POPC   D2A 7000  42.377   6.224   8.450
  223POPC   C3A 7001  42.379   6.001   8.046
  223POPC   C4A 7002  42.233   6.017   7.600
  223POPC   C1B 7003  42.111   5.858   8.722
  223POPC   C2B 7004  42.444   5.694   8.476
  223POPC   C3B 7005  42.505   5.491   8.126
  223POPC   C4B 7006  42.189   5.567   7.810
  224POPC   NC3 7007  43.589  39.682   9.566
  224POPC   PO4 7008  44.003  40.148   9.359
  224POPC   GL1 7009  43.933  39.969   9.040
  224POPC   GL2 7010  44.121  39.653   9.123
  224POPC   C1A 7011  44.022  40.259   8.686
  224POPC   D2A 7012  43.696  40.425   8.435
  224POPC   C3A 7013  43.705  40.215   8.049
  224POPC   C4A 7014  43.938  40.188   7.694
  224POPC   C1B 7015  44.199  39.785   8.671
  224POPC   C2B 7016  44.213  39.861   8.258
  224POPC   C3B 7017  43.958  39.741   7.962
  224POPC   C4B 7018  44.180  39.743   7.640
  225POPC   NC3 7019   0.332  40.438   9.359
  225POPC   PO4 7020   0.742  40.878   9.592
  225POPC   GL1 7021   0.477  40.900   9.198
  225POPC   GL2 7022   0.711  41.142   9.145
  225POPC   C1A 7023   0.223  40.702   8.804
  225POPC   D2A 7024   0.373  40.590   8.414
  225POPC   C3A 7025   0.146  40.524   8.063
  225POPC   C4A 7026   0.305  40.599   7.664
  225POPC   C1B 7027   0.798  41.127   8.738
  225POPC   C2B 7028   0.572  41.119   8.376
  225POPC   C3B 7029   0.402  40.966   8.000
  225POPC   C4B 7030   0.566  41.041   7.581
  226POPC   NC3 7031  41.509  27.742   9.490
  226POPC   PO4 7032  41.139  28.140   9.201
  226POPC   GL1 7033  41.523  27.891   9.004
  226POPC   GL2 7034  41.512  27.484   9.060
  226POPC   C1A 7035  41.683  27.954   8.579
  226POPC   D2A 7036  41.845  27.819   8.183
  226POPC   C3A 7037  41.554  27.744   7.850
  226POPC   C4A 7038  41.658  27.682   7.437
  226POPC   C1B 7039  41.415  27.496   8.628
  226POPC   C2B 7040  41.258  27.478   8.192
  226POPC   C3B 7041  41.134  27.433   7.759
  226POPC   C4B 7042  41.081  27.367   7.295
  227POPC   NC3 7043  20.598   6.263   9.534
  227POPC   PO4 7044  20.423   5.856   9.987
  227POPC   GL1 7045  20.483   5.781   9.400
  227POPC   GL2 7046  20.243   5.561   9.175
  227POPC   C1A 7047  20.668   5.718   8.931
  227POPC   D2A 7048  20.728   5.565   8.464
  227POPC   C3A 7049  20.737   5.868   8.115
  227POPC   C4A 7050  20.476   6.164   7.858
  227POPC   C1B 7051  20.296   5.358   8.731
  227POPC   C2B 7052  20.283   5.382   8.239
  227POPC   C3B 7053  20.326   5.661   7.850
  227POPC   C4B 7054  20.319   5.620   7.383
  228POPC   NC3 7055  39.427  15.543   9.260
  228POPC   PO4 7056  39.090  15.113   9.635
  228POPC   GL1 7057  39.195  15.067   9.227
  228POPC   GL2 7058  39.531  15.005   9.246
  228POPC   C1A 7059  38.993  15.094   8.848
  228POPC   D2A 7060  39.144  15.329   8.514
  228POPC   C3A 7061  39.152  15.211   8.117
  228POPC   C4A 7062  38.915  15.158   7.770
  228POPC   C1B 7063  39.505  15.027   8.785
  228POPC   C2B 7064  39.650  15.364   8.497
  228POPC   C3B 7065  39.629  15.375   8.045
  228POPC   C4B 7066  39.539  14.963   7.837
  229POPC   NC3 7067  26.044   9.119   9.333
  229POPC   PO4 7068  25.878   8.549   9.683
  229POPC   GL1 7069  25.886   8.653   9.214
  229POPC   GL2 7070  25.661   8.921   9.046
  229POPC   C1A 7071  26.102   8.785   8.781
  229POPC   D2A 7072  26.111   8.993   8.365
  229POPC   C3A 7073  26.111   8.771   7.975
  229POPC   C4A 7074  26.117   8.781   7.508
  229POPC   C1B 7075  25.856   9.267   8.730
  229POPC   C2B 7076  25.767   9.357   8.268
  229POPC   C3B 7077  25.967   9.244   7.851
  229POPC   C4B 7078  25.748   9.124   7.431
  230POPC   NC3 7079   7.073   0.218   9.400
  230POPC   PO4 7080   6.459   0.402   9.445
  230POPC   GL1 7081   6.723   0.434   9.101
  230POPC   GL2 7082   6.783   0.762   9.002
  230POPC   C1A 7083   6.769   0.399   8.660
  230POPC   D2A 7084   6.785   0.235   8.271
  230POPC   C3A 7085   6.738   0.441   7.876
  230POPC   C4A 7086   6.680   0.295   7.436
  230POPC   C1B 7087   6.337   0.642   8.802
  230POPC   C2B 7088   6.273   0.381   8.411
  230POPC   C3B 7089   6.245   0.527   7.939
  230POPC   C4B 7090   6.412   0.728   7.517
  231POPC   NC3 7091  16.025  12.413   9.531
  231POPC   PO4 7092  16.120  11.809   9.594
  231POPC   GL1 7093  16.088  11.996   9.202
  231POPC   GL2 7094  15.734  12.104   9.186
  231POPC   C1A 7095  16.054  12.034   8.743
  231POPC   D2A 7096  15.799  12.133   8.356
  231POPC   C3A 7097  15.945  12.057   7.913
  231POPC   C4A 7098  16.113  12.420   7.709
  231POPC   C1B 7099  15.703  12.430   8.862
  231POPC   C2B 7100  15.583  12.594   8.436
  231POPC   C3B 7101  15.678  12.501   7.989
  231POPC   C4B 7102  15.623  12.335   7.558
  232POPC   NC3 7103  19.319  41.477   9.437
  232POPC   PO4 7104  18.614  41.404   9.589
  232POPC   GL1 7105  18.869  41.277   9.234
  232POPC   GL2 7106  19.000  41.532   9.025
  232POPC   C1A 7107  18.701  41.166   8.801
  232POPC   D2A 7108  18.966  41.294   8.516
  232POPC   C3A 7109  18.832  41.369   8.120
  232POPC   C4A 7110  19.114  41.364   7.790
  232POPC   C1B 7111  19.110  41.827   8.690
  232POPC   C2B 7112  19.162  41.708   8.286
  232POPC   C3B 7113  19.021  41.852   7.912
  232POPC   C4B 7114  19.398  41.965   7.741
  233POPC   NC3 7115   2.516  44.263   9.373
  233POPC   PO4 7116   2.711  43.679   9.544
  233POPC   GL1 7117   2.878  43.717   9.111
  233POPC   GL2 7118   2.856  44.072   9.027
  233POPC   C1A 7119   2.902  43.776   8.641
  233POPC   D2A 7120   2.779  43.979   8.276
  233POPC   C3A 7121   3.064  43.875   8.004
  233POPC   C4A 7122   2.766  43.613   7.825
  233POPC   C1B 7123   2.697  44.319   8.644
  233POPC   C2B 7124   2.499  44.543   8.308
  233POPC   C3B 7125   2.390  44.356   7.959
  233POPC   C4B 7126   2.665  44.112   7.765
  234POPC   NC3 7127  35.281  40.677   9.637
  234POPC   PO4 7128  35.693  40.124   9.434
  234POPC   GL1 7129  35.489  40.083   9.096
  234POPC   GL2 7130  35.408  40.437   9.127
  234POPC   C1A 7131  35.249  40.137   8.739
  234POPC   D2A 7132  35.204  40.291   8.357
  234POPC   C3A 7133  35.234  39.977   8.022
  234POPC   C4A 7134  35.230  40.216   7.635
  234POPC   C1B 7135  35.675  40.421   8.751
  234POPC   C2B 7136  35.688  40.491   8.311
  234POPC   C3B 7137  35.674  40.262   7.925
  234POPC   C4B 7138  35.612  39.880   7.675
  235POPC   NC3 7139  32.967  39.945   9.446
  235POPC   PO4 7140  33.336  40.511   9.484
  235POPC   GL1 7141  33.337  40.233   9.117
  235POPC   GL2 7142  33.339  39.867   9.125
  235POPC   C1A 7143  33.315  40.097   8.684
  235POPC   D2A 7144  33.207  39.830   8.367
  235POPC   C3A 7145  33.158  40.042   7.984
  235POPC   C4A 7146  32.978  40.074   7.546
  235POPC   C1B 7147  32.921  39.781   8.790
  235POPC   C2B 7148  32.712  39.772   8.323
  235POPC   C3B 7149  32.749  39.734   7.830
  235POPC   C4B 7150  32.875  39.647   7.309
  236POPC   NC3 7151  19.697  42.784   9.623
  236POPC   PO4 7152  20.128  43.194   9.509
  236POPC   GL1 7153  19.851  43.036   9.189
  236POPC   GL2 7154  19.488  43.121   9.257
  236POPC   C1A 7155  19.932  42.967   8.735
  236POPC   D2A 7156  20.138  43.221   8.382
  236POPC   C3A 7157  20.203  43.002   7.979
  236POPC   C4A 7158  19.906  42.823   7.674
  236POPC   C1B 7159  19.592  43.328   8.856
  236POPC   C2B 7160  19.619  43.227   8.408
  236POPC   C3B 7161  19.765  43.264   7.990
  236POPC   C4B 7162  19.482  43.395   7.691
  237POPC   NC3 7163  30.107   8.650   9.598
  237POPC   PO4 7164  29.558   9.050   9.452
  237POPC   GL1 7165  29.819   9.015   9.110
  237POPC   GL2 7166  29.945   8.676   9.094
  237POPC   C1A 7167  29.787   8.930   8.674
  237POPC   D2A 7168  30.003   9.085   8.309
  237POPC   C3A 7169  29.863   8.932   7.898
  237POPC   C4A 7170  29.732   9.091   7.473
  237POPC   C1B 7171  30.118   8.495   8.693
  237POPC   C2B 7172  29.988   8.559   8.287
  237POPC   C3B 7173  30.169   8.523   7.891
  237POPC   C4B 7174  29.986   8.656   7.486
  238POPC   NC3 7175  19.724  30.226   9.474
  238POPC   PO4 7176  20.053  29.620   9.472
  238POPC   GL1 7177  19.951  29.899   9.126
  238POPC   GL2 7178  19.595  29.943   9.090
  238POPC   C1A 7179  19.901  29.916   8.680
  238POPC   D2A 7180  20.098  30.024   8.301
  238POPC   C3A 7181  19.890  29.923   7.946
  238POPC   C4A 7182  19.942  29.640   7.634
  238POPC   C1B 7183  19.454  30.192   8.750
  238POPC   C2B 7184  19.581  30.129   8.331
  238POPC   C3B 7185  19.425  30.117   7.930
  238POPC   C4B 7186  19.612  30.033   7.516
  239POPC   NC3 7187  20.963  41.924   9.205
  239POPC   PO4 7188  20.505  41.529   9.619
  239POPC   GL1 7189  20.451  41.576   9.164
  239POPC   GL2 7190  20.786  41.463   9.083
  239POPC   C1A 7191  20.420  41.626   8.704
  239POPC   D2A 7192  20.540  41.369   8.367
  239POPC   C3A 7193  20.723  41.420   7.973
  239POPC   C4A 7194  20.597  41.574   7.616
  239POPC   C1B 7195  20.924  41.613   8.649
  239POPC   C2B 7196  21.131  41.967   8.434
  239POPC   C3B 7197  21.077  42.023   8.008
  239POPC   C4B 7198  21.169  41.732   7.709
  240POPC   NC3 7199  41.113  15.684   9.310
  240POPC   PO4 7200  41.657  16.197   9.555
  240POPC   GL1 7201  41.466  16.051   9.138
  240POPC   GL2 7202  41.718  15.766   8.976
  240POPC   C1A 7203  41.480  16.102   8.695
  240POPC   D2A 7204  41.831  16.118   8.424
  240POPC   C3A 7205  41.795  16.074   7.993
  240POPC   C4A 7206  41.498  16.119   7.681
  240POPC   C1B 7207  41.670  15.604   8.609
  240POPC   C2B 7208  41.923  15.632   8.260
  240POPC   C3B 7209  41.865  15.594   7.836
  240POPC   C4B 7210  41.463  15.596   7.600
  241POPC   NC3 7211  26.401  28.888   9.423
  241POPC   PO4 7212  25.918  29.282   9.509
  241POPC   GL1 7213  25.864  29.349   9.102
  241POPC   GL2 7214  26.037  29.047   9.049
  241POPC   C1A 7215  26.042  29.448   8.713
  241POPC   D2A 7216  26.090  29.201   8.333
  241POPC   C3A 7217  25.867  29.322   7.972
  241POPC   C4A 7218  25.606  29.066   7.746
  241POPC   C1B 7219  26.374  29.017   8.748
  241POPC   C2B 7220  26.390  28.775   8.368
  241POPC   C3B 7221  26.122  28.802   7.969
  241POPC   C4B 7222  26.169  29.078   7.625
  242POPC   NC3 7223  18.895   0.824   9.492
  242POPC   PO4 7224  19.283   0.266   9.634
  242POPC   GL1 7225  19.282   0.403   9.196
  242POPC   GL2 7226  19.458   0.138   9.029
  242POPC   C1A 7227  19.113   0.640   8.823
  242POPC   D2A 7228  18.824   0.646   8.441
  242POPC   C3A 7229  18.966   0.738   7.995
  242POPC   C4A 7230  18.980   0.558   7.509
  242POPC   C1B 7231  19.114   0.160   8.715
  242POPC   C2B 7232  19.227   0.364   8.295
  242POPC   C3B 7233  19.333   0.389   7.839
  242POPC   C4B 7234  19.229   0.098   7.443
  243POPC   NC3 7235  27.355   8.507   9.565
  243POPC   PO4 7236  27.698   7.951   9.424
  243POPC   GL1 7237  27.593   8.151   9.070
  243POPC   GL2 7238  27.559   8.432   9.099
  243POPC   C1A 7239  27.518   8.047   8.653
  243POPC   D2A 7240  27.340   8.078   8.283
  243POPC   C3A 7241  27.675   8.184   8.024
  243POPC   C4A 7242  27.675   8.177   7.610
  243POPC   C1B 7243  27.376   8.537   8.714
  243POPC   C2B 7244  27.462   8.603   8.279
  243POPC   C3B 7245  27.382   8.595   7.836
  243POPC   C4B 7246  27.417   8.537   7.383
  244POPC   NC3 7247  44.334  25.057   9.403
  244POPC   PO4 7248  44.810  25.494   9.628
  244POPC   GL1 7249  44.769  25.335   9.189
  244POPC   GL2 7250  44.495  25.190   8.933
  244POPC   C1A 7251  44.937  25.362   8.748
  244POPC   D2A 7252  44.722  25.332   8.377
  244POPC   C3A 7253  44.945  25.338   7.989
  244POPC   C4A 7254  44.796  25.281   7.583
  244POPC   C1B 7255  44.478  24.853   8.595
  244POPC   C2B 7256  44.353  24.724   8.164
  244POPC   C3B 7257  44.373  24.956   7.754
  244POPC   C4B 7258  44.413  25.092   7.320
  245POPC   NC3 7259  37.213  29.843   9.509
  245POPC   PO4 7260  36.565  29.771   9.404
  245POPC   GL1 7261  36.713  30.127   9.148
  245POPC   GL2 7262  37.090  30.214   9.163
  245POPC   C1A 7263  36.777  30.098   8.699
  245POPC   D2A 7264  36.880  29.749   8.395
  245POPC   C3A 7265  36.713  29.807   7.971
  245POPC   C4A 7266  36.624  30.186   7.719
  245POPC   C1B 7267  37.321  30.226   8.755
  245POPC   C2B 7268  37.151  30.207   8.335
  245POPC   C3B 7269  37.130  30.111   7.886
  245POPC   C4B 7270  37.185  29.775   7.594
  246POPC   NC3 7271  43.179   8.428   9.592
  246POPC   PO4 7272  43.204   7.721   9.413
  246POPC   GL1 7273  43.255   8.106   9.210
  246POPC   GL2 7274  43.013   8.385   9.111
  246POPC   C1A 7275  43.348   8.176   8.815
  246POPC   D2A 7276  43.132   8.016   8.490
  246POPC   C3A 7277  43.153   8.055   8.021
  246POPC   C4A 7278  43.401   7.815   7.705
  246POPC   C1B 7279  43.019   8.519   8.650
  246POPC   C2B 7280  43.066   8.526   8.196
  246POPC   C3B 7281  42.897   8.512   7.766
  246POPC   C4B 7282  42.865   8.480   7.288
  247POPC   NC3 7283  42.103  23.803   9.632
  247POPC   PO4 7284  42.692  23.605   9.347
  247POPC   GL1 7285  42.324  23.615   9.096
  247POPC   GL2 7286  42.173  23.936   9.163
  247POPC   C1A 7287  42.368  23.581   8.634
  247POPC   D2A 7288  42.536  23.792   8.274
  247POPC   C3A 7289  42.520  23.506   7.924
  247POPC   C4A 7290  42.119  23.299   7.812
  247POPC   C1B 7291  42.310  24.051   8.815
  247POPC   C2B 7292  42.075  23.966   8.487
  247POPC   C3B 7293  42.062  23.655   8.193
  247POPC   C4B 7294  42.131  23.811   7.796
  248POPC   NC3 7295  13.415  36.581   9.565
  248POPC   PO4 7296  13.903  37.037   9.473
  248POPC   GL1 7297  13.724  36.831   9.138
  248POPC   GL2 7298  13.470  37.051   9.099
  248POPC   C1A 7299  13.725  36.882   8.673
  248POPC   D2A 7300  13.744  37.117   8.304
  248POPC   C3A 7301  13.920  36.923   7.964
  248POPC   C4A 7302  13.666  36.938   7.598
  248POPC   C1B 7303  13.205  36.928   8.762
  248POPC   C2B 7304  13.283  36.751   8.405
  248POPC   C3B 7305  13.436  36.750   8.015
  248POPC   C4B 7306  13.208  36.758   7.625
  249POPC   NC3 7307  12.140  29.023   9.598
  249POPC   PO4 7308  12.577  29.580   9.470
  249POPC   GL1 7309  12.308  29.304   9.195
  249POPC   GL2 7310  12.431  29.479   8.902
  249POPC   C1A 7311  12.304  29.002   8.834
  249POPC   D2A 7312  12.421  29.161   8.429
  249POPC   C3A 7313  12.296  29.066   8.012
  249POPC   C4A 7314  12.274  29.418   7.756
  249POPC   C1B 7315  12.014  29.378   8.682
  249POPC   C2B 7316  11.817  29.348   8.259
  249POPC   C3B 7317  11.771  29.432   7.821
  249POPC   C4B 7318  11.912  29.668   7.456
  250POPC   NC3 7319   9.216   7.980   9.506
  250POPC   PO4 7320   8.609   8.228   9.733
  250POPC   GL1 7321   8.632   8.236   9.218
  250POPC   GL2 7322   9.009   8.254   9.130
  250POPC   C1A 7323   8.708   8.390   8.763
  250POPC   D2A 7324   8.827   8.189   8.404
  250POPC   C3A 7325   8.900   8.334   8.007
  250POPC   C4A 7326   8.792   8.028   7.666
  250POPC   C1B 7327   9.251   8.286   8.728
  250POPC   C2B 7328   9.345   8.079   8.311
  250POPC   C3B 7329   9.265   8.004   7.875
  250POPC   C4B 7330   9.188   8.336   7.557
  251POPC   NC3 7331   4.870  10.000   9.552
  251POPC   PO4 7332   5.212  10.594   9.561
  251POPC   GL1 7333   5.206  10.554   9.159
  251POPC   GL2 7334   5.478  10.825   9.165
  251POPC   C1A 7335   5.073  10.361   8.751
  251POPC   D2A 7336   4.947  10.158   8.353
  251POPC   C3A 7337   4.998  10.408   7.975
  251POPC   C4A 7338   4.939  10.362   7.524
  251POPC   C1B 7339   5.296  10.826   8.757
  251POPC   C2B 7340   5.221  10.700   8.382
  251POPC   C3B 7341   5.102  10.913   8.052
  251POPC   C4B 7342   5.181  10.790   7.644
  252POPC   NC3 7343  15.825  31.627   9.810
  252POPC   PO4 7344  16.267  31.331   9.651
  252POPC   GL1 7345  16.164  31.352   9.184
  252POPC   GL2 7346  16.442  31.355   8.967
  252POPC   C1A 7347  15.927  31.272   8.759
  252POPC   D2A 7348  15.851  31.339   8.277
  252POPC   C3A 7349  16.006  31.229   7.841
  252POPC   C4A 7350  15.958  31.448   7.449
  252POPC   C1B 7351  16.326  31.479   8.545
  252POPC   C2B 7352  16.380  31.345   8.160
  252POPC   C3B 7353  16.456  31.530   7.759
  252POPC   C4B 7354  16.341  31.791   7.385
  253POPC   NC3 7355   4.745  21.562   9.533
  253POPC   PO4 7356   5.198  21.047   9.684
  253POPC   GL1 7357   5.191  21.171   9.250
  253POPC   GL2 7358   5.548  21.136   9.149
  253POPC   C1A 7359   4.981  21.417   8.880
  253POPC   D2A 7360   4.699  21.396   8.515
  253POPC   C3A 7361   4.827  21.467   8.065
  253POPC   C4A 7362   4.640  21.770   7.770
  253POPC   C1B 7363   5.351  21.083   8.769
  253POPC   C2B 7364   5.161  21.228   8.395
  253POPC   C3B 7365   5.196  21.076   7.996
  253POPC   C4B 7366   5.109  21.173   7.579
  254POPC   NC3 7367   3.147  42.482   9.624
  254POPC   PO4 7368   2.707  41.937   9.540
  254POPC   GL1 7369   2.986  42.158   9.248
  254POPC   GL2 7370   2.765  42.441   9.263
  254POPC   C1A 7371   3.001  42.359   8.825
  254POPC   D2A 7372   2.783  42.208   8.460
  254POPC   C3A 7373   2.882  42.323   8.042
  254POPC   C4A 7374   2.971  42.150   7.641
  254POPC   C1B 7375   2.558  42.661   8.913
  254POPC   C2B 7376   2.309  42.690   8.543
  254POPC   C3B 7377   2.373  42.804   8.113
  254POPC   C4B 7378   2.564  42.609   7.727
  255POPC   NC3 7379  14.090  27.648   9.536
  255POPC   PO4 7380  13.476  27.337   9.485
  255POPC   GL1 7381  13.710  27.542   9.173
  255POPC   GL2 7382  14.006  27.324   9.119
  255POPC   C1A 7383  13.624  27.851   8.831
  255POPC   D2A 7384  13.258  27.969   8.569
  255POPC   C3A 7385  13.281  27.926   8.112
  255POPC   C4A 7386  13.450  27.765   7.731
  255POPC   C1B 7387  13.798  27.360   8.708
  255POPC   C2B 7388  13.610  27.592   8.385
  255POPC   C3B 7389  13.842  27.621   8.020
  255POPC   C4B 7390  13.830  27.452   7.599
  256POPC   NC3 7391  33.565   5.496   9.592
  256POPC   PO4 7392  34.134   5.948   9.508
  256POPC   GL1 7393  33.810   5.824   9.257
  256POPC   GL2 7394  33.929   6.061   9.048
  256POPC   C1A 7395  33.788   5.615   8.862
  256POPC   D2A 7396  33.731   5.450   8.456
  256POPC   C3A 7397  33.852   5.675   8.097
  256POPC   C4A 7398  33.947   5.570   7.672
  256POPC   C1B 7399  34.154   5.931   8.649
  256POPC   C2B 7400  34.319   5.920   8.204
  256POPC   C3B 7401  34.093   6.054   7.822
  256POPC   C4B 7402  33.823   6.005   7.449
  257POPC   NC3 7403  40.564  27.156   9.493
  257POPC   PO4 7404  40.837  26.499   9.632
  257POPC   GL1 7405  40.827  26.605   9.198
  257POPC   GL2 7406  40.892  26.917   9.174
  257POPC   C1A 7407  41.013  26.606   8.757
  257POPC   D2A 7408  40.891  26.721   8.350
  257POPC   C3A 7409  40.931  26.504   7.991
  257POPC   C4A 7410  40.641  26.543   7.672
  257POPC   C1B 7411  40.878  27.103   8.802
  257POPC   C2B 7412  40.610  27.105   8.508
  257POPC   C3B 7413  40.805  27.189   8.130
  257POPC   C4B 7414  40.623  27.235   7.757
  258POPC   NC3 7415  39.305  28.274   9.597
  258POPC   PO4 7416  38.778  28.846   9.468
  258POPC   GL1 7417  39.019  28.481   9.202
  258POPC   GL2 7418  39.422  28.512   9.162
  258POPC   C1A 7419  39.180  28.413   8.755
  258POPC   D2A 7420  38.997  28.337   8.394
  258POPC   C3A 7421  39.194  28.338   8.044
  258POPC   C4A 7422  39.033  28.303   7.655
  258POPC   C1B 7423  39.591  28.159   8.899
  258POPC   C2B 7424  39.482  28.136   8.467
  258POPC   C3B 7425  39.635  28.072   8.090
  258POPC   C4B 7426  39.601  28.380   7.751
  259POPC   NC3 7427   7.078  38.609   9.631
  259POPC   PO4 7428   6.721  38.073   9.552
  259POPC   GL1 7429   6.584  38.310   9.197
  259POPC   GL2 7430   6.792  38.594   9.162
  259POPC   C1A 7431   6.425  38.333   8.782
  259POPC   D2A 7432   6.676  38.478   8.425
  259POPC   C3A 7433   6.533  38.367   8.025
  259POPC   C4A 7434   6.435  38.625   7.703
  259POPC   C1B 7435   6.918  38.778   8.788
  259POPC   C2B 7436   6.861  38.964   8.430
  259POPC   C3B 7437   6.741  38.862   8.047
  259POPC   C4B 7438   6.960  38.872   7.674
  260POPC   NC3 7439  10.765  23.489   9.412
  260POPC   PO4 7440  10.355  23.983   9.292
  260POPC   GL1 7441  10.720  23.813   9.003
  260POPC   GL2 7442  10.721  23.428   8.921
  260POPC   C1A 7443  10.763  23.820   8.536
  260POPC   D2A 7444  10.571  24.130   8.241
  260POPC   C3A 7445  10.452  23.946   7.856
  260POPC   C4A 7446  10.161  23.618   7.779
  260POPC   C1B 7447  10.359  23.393   8.682
  260POPC   C2B 7448  10.339  23.504   8.254
  260POPC   C3B 7449  10.632  23.458   7.920
  260POPC   C4B 7450  10.490  23.380   7.474
  261POPC   NC3 7451  19.291  34.545   9.647
  261POPC   PO4 7452  18.659  34.373   9.584
  261POPC   GL1 7453  18.969  34.432   9.267
  261POPC   GL2 7454  19.160  34.128   9.354
  261POPC   C1A 7455  19.082  34.633   8.857
  261POPC   D2A 7456  19.337  34.739   8.464
  261POPC   C3A 7457  19.140  34.848   8.087
  261POPC   C4A 7458  19.147  34.662   7.691
  261POPC   C1B 7459  19.231  34.114   8.914
  261POPC   C2B 7460  19.311  34.156   8.466
  261POPC   C3B 7461  19.154  34.308   8.100
  261POPC   C4B 7462  18.856  34.153   7.819
  262POPC   NC3 7463  23.942  22.351   9.461
  262POPC   PO4 7464  23.432  21.902   9.390
  262POPC   GL1 7465  23.754  22.007   9.069
  262POPC   GL2 7466  23.877  22.340   8.975
  262POPC   C1A 7467  23.638  22.057   8.623
  262POPC   D2A 7468  23.837  21.973   8.238
  262POPC   C3A 7469  23.582  21.996   7.900
  262POPC   C4A 7470  23.564  22.373   7.680
  262POPC   C1B 7471  24.071  22.332   8.600
  262POPC   C2B 7472  23.943  22.501   8.212
  262POPC   C3B 7473  24.059  22.289   7.866
  262POPC   C4B 7474  23.977  22.154   7.461
  263POPC   NC3 7475  33.571  23.301   9.473
  263POPC   PO4 7476  33.392  22.693   9.163
  263POPC   GL1 7477  33.789  22.856   9.031
  263POPC   GL2 7478  33.588  23.155   8.964
  263POPC   C1A 7479  34.105  22.687   8.728
  263POPC   D2A 7480  34.030  22.483   8.333
  263POPC   C3A 7481  33.880  22.752   8.031
  263POPC   C4A 7482  33.995  22.592   7.628
  263POPC   C1B 7483  33.704  23.000   8.544
  263POPC   C2B 7484  33.745  23.261   8.177
  263POPC   C3B 7485  34.028  23.205   7.844
  263POPC   C4B 7486  33.932  23.087   7.426
  264POPC   NC3 7487  32.172  13.811   9.452
  264POPC   PO4 7488  32.138  13.125   9.272
  264POPC   GL1 7489  32.088  13.502   9.044
  264POPC   GL2 7490  32.367  13.784   8.996
  264POPC   C1A 7491  32.030  13.384   8.642
  264POPC   D2A 7492  32.220  13.569   8.282
  264POPC   C3A 7493  32.192  13.254   7.995
  264POPC   C4A 7494  32.105  13.305   7.621
  264POPC   C1B 7495  32.505  13.519   8.703
  264POPC   C2B 7496  32.676  13.258   8.385
  264POPC   C3B 7497  32.673  13.408   7.978
  264POPC   C4B 7498  32.414  13.707   7.821
  265POPC   NC3 7499  44.610  11.172   9.601
  265POPC   PO4 7500  44.399  11.848   9.405
  265POPC   GL1 7501  44.613  11.480   9.196
  265POPC   GL2 7502  44.353  11.275   9.192
  265POPC   C1A 7503  44.776  11.165   8.840
  265POPC   D2A 7504  44.944  11.289   8.391
  265POPC   C3A 7505  44.922  11.098   7.941
  265POPC   C4A 7506   0.031  11.287   7.499
  265POPC   C1B 7507  44.366  11.429   8.778
  265POPC   C2B 7508  44.399  11.319   8.396
  265POPC   C3B 7509  44.562  11.417   8.062
  265POPC   C4B 7510  44.512  11.201   7.661
  266POPC   NC3 7511  44.333   9.686   9.869
  266POPC   PO4 7512  43.835   9.609   9.418
  266POPC   GL1 7513  44.050   9.794   9.061
  266POPC   GL2 7514  44.045   9.461   8.948
  266POPC   C1A 7515  43.963   9.946   8.611
  266POPC   D2A 7516  43.636   9.970   8.280
  266POPC   C3A 7517  43.761   9.918   7.840
  266POPC   C4A 7518  43.507   9.924   7.480
  266POPC   C1B 7519  44.185   9.492   8.560
  266POPC   C2B 7520  44.046   9.629   8.166
  266POPC   C3B 7521  44.131   9.372   7.834
  266POPC   C4B 7522  44.237   9.288   7.408
  267POPC   NC3 7523  29.692  22.149   9.591
  267POPC   PO4 7524  30.270  21.721   9.563
  267POPC   GL1 7525  30.030  22.006   9.241
  267POPC   GL2 7526  29.646  21.863   9.177
  267POPC   C1A 7527  30.187  22.197   8.825
  267POPC   D2A 7528  30.231  22.470   8.446
  267POPC   C3A 7529  30.345  22.289   8.064
  267POPC   C4A 7530  30.156  22.214   7.673
  267POPC   C1B 7531  29.705  22.267   8.945
  267POPC   C2B 7532  29.748  22.263   8.504
  267POPC   C3B 7533  29.819  22.317   8.059
  267POPC   C4B 7534  29.646  22.181   7.663
  268POPC   NC3 7535  37.776  21.691   9.440
  268POPC   PO4 7536  37.959  21.068   9.476
  268POPC   GL1 7537  38.000  21.236   9.080
  268POPC   GL2 7538  37.674  21.381   9.030
  268POPC   C1A 7539  38.060  21.479   8.694
  268POPC   D2A 7540  37.891  21.492   8.322
  268POPC   C3A 7541  38.033  21.417   7.951
  268POPC   C4A 7542  37.901  21.583   7.562
  268POPC   C1B 7543  37.399  21.356   8.679
  268POPC   C2B 7544  37.460  21.213   8.259
  268POPC   C3B 7545  37.549  21.299   7.832
  268POPC   C4B 7546  37.379  21.052   7.501
  269POPC   NC3 7547  32.020  22.762   9.500
  269POPC   PO4 7548  32.370  23.440   9.450
  269POPC   GL1 7549  32.519  23.205   9.061
  269POPC   GL2 7550  32.269  22.926   9.087
  269POPC   C1A 7551  32.359  23.154   8.610
  269POPC   D2A 7552  32.131  22.781   8.370
  269POPC   C3A 7553  32.202  22.742   7.950
  269POPC   C4A 7554  32.267  23.115   7.726
  269POPC   C1B 7555  32.442  22.690   8.755
  269POPC   C2B 7556  32.701  22.819   8.396
  269POPC   C3B 7557  32.703  22.987   7.990
  269POPC   C4B 7558  32.643  22.711   7.702
  270POPC   NC3 7559  18.792  29.710   9.486
  270POPC   PO4 7560  19.268  30.171   9.471
  270POPC   GL1 7561  19.092  29.917   9.137
  270POPC   GL2 7562  19.226  29.565   9.210
  270POPC   C1A 7563  18.971  29.993   8.711
  270POPC   D2A 7564  19.142  29.867   8.323
  270POPC   C3A 7565  18.918  30.040   7.974
  270POPC   C4A 7566  19.057  30.206   7.585
  270POPC   C1B 7567  19.347  29.623   8.773
  270POPC   C2B 7568  19.424  29.389   8.401
  270POPC   C3B 7569  19.487  29.585   8.020
  270POPC   C4B 7570  19.287  29.690   7.677
  271POPC   NC3 7571  25.363  20.253   9.608
  271POPC   PO4 7572  24.859  20.428   9.189
  271POPC   GL1 7573  25.266  20.423   9.118
  271POPC   GL2 7574  25.389  20.748   9.168
  271POPC   C1A 7575  25.445  20.393   8.713
  271POPC   D2A 7576  25.220  20.505   8.357
  271POPC   C3A 7577  25.369  20.346   7.950
  271POPC   C4A 7578  25.182  20.263   7.556
  271POPC   C1B 7579  25.265  20.889   8.743
  271POPC   C2B 7580  25.282  21.059   8.328
  271POPC   C3B 7581  25.138  20.829   7.984
  271POPC   C4B 7582  25.275  20.764   7.590
  272POPC   NC3 7583  10.707  43.477   9.708
  272POPC   PO4 7584  10.502  42.893   9.726
  272POPC   GL1 7585  10.642  43.089   9.313
  272POPC   GL2 7586  10.626  42.825   9.076
  272POPC   C1A 7587  10.470  43.262   8.866
  272POPC   D2A 7588  10.237  43.110   8.466
  272POPC   C3A 7589  10.293  43.246   8.035
  272POPC   C4A 7590  10.582  43.378   7.716
  272POPC   C1B 7591  10.375  42.704   8.758
  272POPC   C2B 7592  10.429  42.591   8.319
  272POPC   C3B 7593  10.571  42.786   7.939
  272POPC   C4B 7594  10.323  42.941   7.630
  273POPC   NC3 7595  11.688  27.006   9.651
  273POPC   PO4 7596  12.353  26.806   9.579
  273POPC   GL1 7597  12.109  26.632   9.229
  273POPC   GL2 7598  11.765  26.548   9.324
  273POPC   C1A 7599  12.055  26.553   8.792
  273POPC   D2A 7600  12.170  26.737   8.425
  273POPC   C3A 7601  12.339  26.580   8.115
  273POPC   C4A 7602  12.073  26.543   7.791
  273POPC   C1B 7603  11.702  26.865   8.996
  273POPC   C2B 7604  11.636  26.850   8.521
  273POPC   C3B 7605  11.744  26.793   8.091
  273POPC   C4B 7606  11.716  26.995   7.698
  274POPC   NC3 7607   7.254   9.617   9.412
  274POPC   PO4 7608   7.613  10.201   9.200
  274POPC   GL1 7609   7.532  10.002   8.841
  274POPC   GL2 7610   7.504   9.695   8.975
  274POPC   C1A 7611   7.604   9.733   8.489
  274POPC   D2A 7612   7.526   9.482   8.129
  274POPC   C3A 7613   7.373   9.762   7.783
  274POPC   C4A 7614   7.370   9.901   7.314
  274POPC   C1B 7615   7.151   9.601   8.755
  274POPC   C2B 7616   7.055   9.583   8.333
  274POPC   C3B 7617   7.008   9.363   7.943
  274POPC   C4B 7618   7.090   9.460   7.506
  275POPC   NC3 7619  13.999  23.450   9.381
  275POPC   PO4 7620  14.327  23.976   9.603
  275POPC   GL1 7621  14.301  23.951   9.120
  275POPC   GL2 7622  14.106  23.677   8.952
  275POPC   C1A 7623  14.511  23.825   8.688
  275POPC   D2A 7624  14.397  23.518   8.335
  275POPC   C3A 7625  14.539  23.597   7.895
  275POPC   C4A 7626  14.667  23.919   7.609
  275POPC   C1B 7627  14.025  24.004   8.640
  275POPC   C2B 7628  14.049  23.929   8.205
  275POPC   C3B 7629  14.050  23.534   7.938
  275POPC   C4B 7630  14.206  23.615   7.461
  276POPC   NC3 7631   8.824  36.320   9.475
  276POPC   PO4 7632   9.334  35.884   9.536
  276POPC   GL1 7633   9.087  35.993   9.153
  276POPC   GL2 7634   9.152  36.329   9.085
  276POPC   C1A 7635   8.918  36.053   8.711
  276POPC   D2A 7636   8.828  36.327   8.337
  276POPC   C3A 7637   8.769  36.134   7.943
  276POPC   C4A 7638   8.775  36.264   7.510
  276POPC   C1B 7639   9.416  36.327   8.751
  276POPC   C2B 7640   9.310  36.135   8.391
  276POPC   C3B 7641   9.277  36.290   7.988
  276POPC   C4B 7642   9.189  36.035   7.656
  277POPC   NC3 7643  37.653  32.853   9.280
  277POPC   PO4 7644  38.047  33.277   9.627
  277POPC   GL1 7645  37.808  33.358   9.205
  277POPC   GL2 7646  37.431  33.305   9.127
  277POPC   C1A 7647  37.809  33.200   8.769
  277POPC   D2A 7648  37.702  32.932   8.489
  277POPC   C3A 7649  37.719  33.125   8.097
  277POPC   C4A 7650  37.908  33.000   7.714
  277POPC   C1B 7651  37.288  33.088   8.751
  277POPC   C2B 7652  37.233  33.157   8.307
  277POPC   C3B 7653  37.235  32.995   7.912
  277POPC   C4B 7654  37.435  33.261   7.678
  278POPC   NC3 7655  32.828  32.095   9.265
  278POPC   PO4 7656  32.950  32.597   9.680
  278POPC   GL1 7657  33.044  32.539   9.237
  278POPC   GL2 7658  33.283  32.219   9.112
  278POPC   C1A 7659  32.977  32.536   8.794
  278POPC   D2A 7660  32.678  32.253   8.570
  278POPC   C3A 7661  32.706  32.254   8.110
  278POPC   C4A 7662  32.642  32.106   7.704
  278POPC   C1B 7663  33.158  32.026   8.699
  278POPC   C2B 7664  33.022  31.904   8.285
  278POPC   C3B 7665  33.129  32.020   7.867
  278POPC   C4B 7666  33.388  31.871   7.552
  279POPC   NC3 7667  21.528  44.933   9.634
  279POPC   PO4 7668  21.575   0.551   9.594
  279POPC   GL1 7669  21.371   0.371   9.215
  279POPC   GL2 7670  21.007   0.257   9.236
  279POPC   C1A 7671  21.247   0.584   8.835
  279POPC   D2A 7672  21.225   0.407   8.456
  279POPC   C3A 7673  21.424   0.580   8.128
  279POPC   C4A 7674  21.464   0.706   7.714
  279POPC   C1B 7675  21.057   0.081   8.821
  279POPC   C2B 7676  20.936  44.971   8.384
  279POPC   C3B 7677  21.067   0.211   8.013
  279POPC   C4B 7678  21.232   0.175   7.585
  280POPC   NC3 7679   9.672  33.242   9.989
  280POPC   PO4 7680   9.739  32.914   9.421
  280POPC   GL1 7681   9.825  33.239   9.101
  280POPC   GL2 7682   9.517  33.290   8.899
  280POPC   C1A 7683   9.999  33.415   8.723
  280POPC   D2A 7684   9.688  33.533   8.424
  280POPC   C3A 7685   9.695  33.295   8.049
  280POPC   C4A 7686   9.681  32.954   7.785
  280POPC   C1B 7687   9.756  33.023   8.551
  280POPC   C2B 7688  10.012  32.878   8.178
  280POPC   C3B 7689   9.963  32.531   7.863
  280POPC   C4B 7690   9.789  32.597   7.427
  281POPC   NC3 7691  19.772  25.871   9.538
  281POPC   PO4 7692  19.617  26.430   9.538
  281POPC   GL1 7693  19.839  26.286   9.150
  281POPC   GL2 7694  19.944  25.963   9.047
  281POPC   C1A 7695  19.774  26.424   8.702
  281POPC   D2A 7696  19.616  26.338   8.263
  281POPC   C3A 7697  19.821  26.337   7.837
  281POPC   C4A 7698  19.721  26.150   7.394
  281POPC   C1B 7699  19.884  25.945   8.592
  281POPC   C2B 7700  20.025  25.982   8.158
  281POPC   C3B 7701  19.912  25.831   7.739
  281POPC   C4B 7702  19.808  25.626   7.334
  282POPC   NC3 7703  22.974   5.451   9.462
  282POPC   PO4 7704  23.235   4.794   9.458
  282POPC   GL1 7705  23.106   5.067   9.159
  282POPC   GL2 7706  22.776   5.137   9.039
  282POPC   C1A 7707  23.246   5.330   8.830
  282POPC   D2A 7708  23.004   5.352   8.449
  282POPC   C3A 7709  23.149   5.336   8.029
  282POPC   C4A 7710  22.794   5.395   7.747
  282POPC   C1B 7711  23.019   4.895   8.697
  282POPC   C2B 7712  22.938   4.864   8.266
  282POPC   C3B 7713  22.976   4.882   7.838
  282POPC   C4B 7714  23.165   4.736   7.457
  283POPC   NC3 7715  21.364  27.301   9.441
  283POPC   PO4 7716  21.648  27.899   9.590
  283POPC   GL1 7717  21.451  27.786   9.232
  283POPC   GL2 7718  21.723  27.565   9.140
  283POPC   C1A 7719  21.339  27.807   8.803
  283POPC   D2A 7720  21.533  27.962   8.438
  283POPC   C3A 7721  21.289  27.813   8.119
  283POPC   C4A 7722  21.229  27.811   7.688
  283POPC   C1B 7723  21.531  27.333   8.803
  283POPC   C2B 7724  21.280  27.330   8.440
  283POPC   C3B 7725  21.388  27.320   8.024
  283POPC   C4B 7726  21.658  27.585   7.853
  284POPC   NC3 7727  26.741  23.994   9.461
  284POPC   PO4 7728  26.933  23.341   9.475
  284POPC   GL1 7729  26.676  23.547   9.147
  284POPC   GL2 7730  26.481  23.851   9.049
  284POPC   C1A 7731  26.725  23.412   8.751
  284POPC   D2A 7732  27.040  23.492   8.483
  284POPC   C3A 7733  26.782  23.613   8.150
  284POPC   C4A 7734  26.724  23.531   7.717
  284POPC   C1B 7735  26.820  23.915   8.739
  284POPC   C2B 7736  26.795  24.092   8.326
  284POPC   C3B 7737  26.871  24.057   7.888
  284POPC   C4B 7738  26.526  23.997   7.590
  285POPC   NC3 7739  31.469  21.851   9.474
  285POPC   PO4 7740  31.421  22.506   9.447
  285POPC   GL1 7741  31.271  22.272   9.098
  285POPC   GL2 7742  31.036  22.011   9.188
  285POPC   C1A 7743  31.429  22.216   8.681
  285POPC   D2A 7744  31.581  22.386   8.279
  285POPC   C3A 7745  31.451  22.124   7.907
  285POPC   C4A 7746  31.569  21.721   7.719
  285POPC   C1B 7747  30.925  21.882   8.770
  285POPC   C2B 7748  31.154  21.846   8.383
  285POPC   C3B 7749  31.111  21.679   7.983
  285POPC   C4B 7750  31.059  21.871   7.617
  286POPC   NC3 7751  22.626  10.298   9.503
  286POPC   PO4 7752  23.221  10.582   9.548
  286POPC   GL1 7753  23.025  10.716   9.140
  286POPC   GL2 7754  22.657  10.683   9.133
  286POPC   C1A 7755  22.936  10.666   8.693
  286POPC   D2A 7756  22.900  10.275   8.461
  286POPC   C3A 7757  23.109  10.306   8.072
  286POPC   C4A 7758  23.007  10.575   7.731
  286POPC   C1B 7759  22.437  10.596   8.744
  286POPC   C2B 7760  22.544  10.612   8.304
  286POPC   C3B 7761  22.521  10.644   7.865
  286POPC   C4B 7762  22.489  10.798   7.426
  287POPC   NC3 7763  32.394   7.662   9.436
  287POPC   PO4 7764  32.032   7.039   9.454
  287POPC   GL1 7765  31.949   7.233   9.065
  287POPC   GL2 7766  32.036   7.621   9.044
  287POPC   C1A 7767  31.820   7.365   8.646
  287POPC   D2A 7768  32.051   7.636   8.363
  287POPC   C3A 7769  32.082   7.465   7.932
  287POPC   C4A 7770  32.404   7.210   7.754
  287POPC   C1B 7771  32.413   7.771   8.764
  287POPC   C2B 7772  32.544   7.948   8.338
  287POPC   C3B 7773  32.557   7.741   7.914
  287POPC   C4B 7774  32.332   7.740   7.520
  288POPC   NC3 7775  41.151  34.644   9.562
  288POPC   PO4 7776  41.776  34.508   9.598
  288POPC   GL1 7777  41.724  34.493   9.169
  288POPC   GL2 7778  41.394  34.647   9.074
  288POPC   C1A 7779  41.756  34.434   8.739
  288POPC   D2A 7780  41.881  34.612   8.374
  288POPC   C3A 7781  41.720  34.350   8.081
  288POPC   C4A 7782  41.582  34.334   7.677
  288POPC   C1B 7783  41.409  34.858   8.665
  288POPC   C2B 7784  41.382  34.724   8.257
  288POPC   C3B 7785  41.208  34.904   7.892
  288POPC   C4B 7786  41.505  34.851   7.602
  289POPC   NC3 7787   7.510  31.985   9.471
  289POPC   PO4 7788   7.136  32.604   9.548
  289POPC   GL1 7789   7.374  32.539   9.177
  289POPC   GL2 7790   7.112  32.679   9.015
  289POPC   C1A 7791   7.339  32.317   8.731
  289POPC   D2A 7792   7.148  31.996   8.421
  289POPC   C3A 7793   7.381  31.861   8.020
  289POPC   C4A 7794   7.247  31.914   7.564
  289POPC   C1B 7795   7.071  32.776   8.575
  289POPC   C2B 7796   7.162  32.495   8.234
  289POPC   C3B 7797   7.428  32.359   7.896
  289POPC   C4B 7798   7.788  32.604   7.745
  290POPC   NC3 7799   6.297  13.409   9.291
  290POPC   PO4 7800   6.861  13.697   9.704
  290POPC   GL1 7801   6.707  13.761   9.259
  290POPC   GL2 7802   6.803  13.535   9.002
  290POPC   C1A 7803   6.443  13.876   8.911
  290POPC   D2A 7804   6.319  13.760   8.513
  290POPC   C3A 7805   6.628  13.661   8.188
  290POPC   C4A 7806   6.776  13.917   7.820
  290POPC   C1B 7807   6.573  13.305   8.671
  290POPC   C2B 7808   6.228  13.272   8.352
  290POPC   C3B 7809   6.381  13.284   7.936
  290POPC   C4B 7810   6.845  13.206   7.958
  291POPC   NC3 7811  12.364  18.631   9.326
  291POPC   PO4 7812  12.463  19.287   9.311
  291POPC   GL1 7813  12.150  19.271   8.998
  291POPC   GL2 7814  11.803  19.231   9.106
  291POPC   C1A 7815  12.248  19.152   8.560
  291POPC   D2A 7816  12.438  18.844   8.277
  291POPC   C3A 7817  12.233  18.756   7.918
  291POPC   C4A 7818  12.128  19.095   7.715
  291POPC   C1B 7819  11.787  18.970   8.729
  291POPC   C2B 7820  11.900  18.832   8.295
  291POPC   C3B 7821  11.726  18.770   7.865
  291POPC   C4B 7822  11.642  19.165   7.691
  292POPC   NC3 7823  25.575  25.137   9.369
  292POPC   PO4 7824  24.995  25.358   9.383
  292POPC   GL1 7825  25.116  25.060   9.097
  292POPC   GL2 7826  24.902  24.774   9.044
  292POPC   C1A 7827  25.333  25.149   8.721
  292POPC   D2A 7828  25.315  25.464   8.412
  292POPC   C3A 7829  25.368  25.279   8.017
  292POPC   C4A 7830  25.562  25.440   7.678
  292POPC   C1B 7831  24.822  24.994   8.667
  292POPC   C2B 7832  24.854  25.215   8.266
  292POPC   C3B 7833  24.905  25.236   7.814
  292POPC   C4B 7834  25.266  25.013   7.554
  293POPC   NC3 7835  38.483  25.728   9.514
  293POPC   PO4 7836  38.089  25.192   9.670
  293POPC   GL1 7837  38.389  25.349   9.222
  293POPC   GL2 7838  38.499  25.088   8.984
  293POPC   C1A 7839  38.696  25.528   8.868
  293POPC   D2A 7840  38.746  25.291   8.467
  293POPC   C3A 7841  38.469  25.391   8.107
  293POPC   C4A 7842  38.555  25.445   7.652
  293POPC   C1B 7843  38.268  25.299   8.649
  293POPC   C2B 7844  38.151  25.049   8.314
  293POPC   C3B 7845  38.188  24.724   8.019
  293POPC   C4B 7846  38.257  25.033   7.746
  294POPC   NC3 7847  17.380  41.923   9.427
  294POPC   PO4 7848  17.646  41.399   9.837
  294POPC   GL1 7849  17.543  41.331   9.315
  294POPC   GL2 7850  17.342  41.517   9.105
  294POPC   C1A 7851  17.667  41.248   8.828
  294POPC   D2A 7852  17.732  41.402   8.373
  294POPC   C3A 7853  17.517  41.351   7.982
  294POPC   C4A 7854  17.683  41.314   7.559
  294POPC   C1B 7855  17.316  41.730   8.745
  294POPC   C2B 7856  17.263  41.638   8.335
  294POPC   C3B 7857  17.236  41.899   7.986
  294POPC   C4B 7858  17.381  41.772   7.604
  295POPC   NC3 7859  30.038   2.494   9.502
  295POPC   PO4 7860  29.839   3.051   9.540
  295POPC   GL1 7861  29.839   2.829   9.148
  295POPC   GL2 7862  29.618   3.102   9.038
  295POPC   C1A 7863  30.003   2.649   8.757
  295POPC   D2A 7864  29.865   2.477   8.369
  295POPC   C3A 7865  30.068   2.652   8.027
  295POPC   C4A 7866  30.303   2.889   7.751
  295POPC   C1B 7867  29.422   3.087   8.662
  295POPC   C2B 7868  29.736   3.022   8.383
  295POPC   C3B 7869  29.724   3.126   7.986
  295POPC   C4B 7870  29.289   3.080   7.819
  296POPC   NC3 7871  19.809  18.721   9.881
  296POPC   PO4 7872  19.817  19.262   9.415
  296POPC   GL1 7873  19.894  19.148   9.024
  296POPC   GL2 7874  19.634  18.937   8.937
  296POPC   C1A 7875  19.921  19.107   8.592
  296POPC   D2A 7876  19.670  18.999   8.315
  296POPC   C3A 7877  19.974  19.074   8.063
  296POPC   C4A 7878  20.085  18.978   7.682
  296POPC   C1B 7879  19.855  18.628   8.718
  296POPC   C2B 7880  19.838  18.468   8.312
  296POPC   C3B 7881  19.698  18.636   7.937
  296POPC   C4B 7882  19.584  18.992   7.746
  297POPC   NC3 7883   5.285  33.277   9.242
  297POPC   PO4 7884   4.849  32.961   9.641
  297POPC   GL1 7885   4.929  32.817   9.198
  297POPC   GL2 7886   5.285  32.776   9.120
  297POPC   C1A 7887   4.977  32.993   8.747
  297POPC   D2A 7888   5.188  33.014   8.331
  297POPC   C3A 7889   5.104  32.772   7.972
  297POPC   C4A 7890   4.980  33.169   7.802
  297POPC   C1B 7891   5.486  32.880   8.721
  297POPC   C2B 7892   5.688  33.090   8.344
  297POPC   C3B 7893   5.498  33.131   7.909
  297POPC   C4B 7894   5.424  32.852   7.570
  298POPC   NC3 7895   7.580  40.915   9.610
  298POPC   PO4 7896   7.186  40.297   9.472
  298POPC   GL1 7897   7.277  40.496   9.044
  298POPC   GL2 7898   7.483  40.795   9.053
  298POPC   C1A 7899   7.363  40.521   8.606
  298POPC   D2A 7900   7.300  40.766   8.248
  298POPC   C3A 7901   7.543  40.657   7.915
  298POPC   C4A 7902   7.291  40.902   7.644
  298POPC   C1B 7903   7.688  41.077   8.795
  298POPC   C2B 7904   7.643  41.188   8.396
  298POPC   C3B 7905   7.564  41.171   7.997
  298POPC   C4B 7906   7.607  41.335   7.616
  299POPC   NC3 7907  16.631   4.634   9.501
  299POPC   PO4 7908  16.332   4.052   9.475
  299POPC   GL1 7909  16.695   4.200   9.223
  299POPC   GL2 7910  16.900   3.903   9.181
  299POPC   C1A 7911  16.801   4.514   8.854
  299POPC   D2A 7912  16.569   4.632   8.450
  299POPC   C3A 7913  16.775   4.568   8.030
  299POPC   C4A 7914  16.619   4.446   7.615
  299POPC   C1B 7915  16.762   4.026   8.745
  299POPC   C2B 7916  16.866   4.132   8.318
  299POPC   C3B 7917  16.687   4.048   7.918
  299POPC   C4B 7918  16.822   3.930   7.512
  300POPC   NC3 7919  31.602  12.280   9.387
  300POPC   PO4 7920  31.070  11.794   9.466
  300POPC   GL1 7921  31.302  11.956   9.137
  300POPC   GL2 7922  31.222  12.287   9.070
  300POPC   C1A 7923  31.431  11.953   8.709
  300POPC   D2A 7924  31.270  11.901   8.285
  300POPC   C3A 7925  31.567  12.042   7.997
  300POPC   C4A 7926  31.547  12.217   7.617
  300POPC   C1B 7927  31.038  12.295   8.728
  300POPC   C2B 7928  31.056  12.385   8.334
  300POPC   C3B 7929  31.162  12.409   7.924
  300POPC   C4B 7930  31.107  12.397   7.451
  301POPC   NC3 7931  41.028  20.532   9.573
  301POPC   PO4 7932  40.430  20.893   9.586
  301POPC   GL1 7933  40.658  20.695   9.210
  301POPC   GL2 7934  40.831  20.376   9.137
  301POPC   C1A 7935  40.678  20.722   8.752
  301POPC   D2A 7936  40.533  20.775   8.314
  301POPC   C3A 7937  40.655  20.444   8.043
  301POPC   C4A 7938  40.731  20.818   7.808
  301POPC   C1B 7939  40.941  20.236   8.743
  301POPC   C2B 7940  41.010  20.529   8.414
  301POPC   C3B 7941  41.149  20.588   8.026
  301POPC   C4B 7942  41.012  20.435   7.650
  302POPC   NC3 7943  29.311  26.249   9.425
  302POPC   PO4 7944  30.022  26.080   9.434
  302POPC   GL1 7945  29.712  26.051   9.139
  302POPC   GL2 7946  29.976  26.181   8.910
  302POPC   C1A 7947  29.504  26.162   8.755
  302POPC   D2A 7948  29.746  26.184   8.375
  302POPC   C3A 7949  29.562  26.383   8.052
  302POPC   C4A 7950  29.449  26.453   7.629
  302POPC   C1B 7951  29.982  25.748   8.759
  302POPC   C2B 7952  30.080  25.522   8.354
  302POPC   C3B 7953  30.004  25.759   7.980
  302POPC   C4B 7954  29.833  26.089   7.724
  303POPC   NC3 7955  35.563  22.140   9.487
  303POPC   PO4 7956  34.999  22.547   9.368
  303POPC   GL1 7957  35.208  22.178   9.104
  303POPC   GL2 7958  35.560  22.227   8.989
  303POPC   C1A 7959  35.316  21.931   8.690
  303POPC   D2A 7960  35.644  22.051   8.434
  303POPC   C3A 7961  35.462  21.978   8.045
  303POPC   C4A 7962  35.418  21.887   7.606
  303POPC   C1B 7963  35.324  22.454   8.688
  303POPC   C2B 7964  35.471  22.553   8.295
  303POPC   C3B 7965  35.449  22.472   7.882
  303POPC   C4B 7966  35.356  22.394   7.457
  304POPC   NC3 7967  25.228  31.611   9.608
  304POPC   PO4 7968  25.660  31.167   9.436
  304POPC   GL1 7969  25.255  31.291   9.221
  304POPC   GL2 7970  25.426  31.173   8.975
  304POPC   C1A 7971  25.091  31.540   8.848
  304POPC   D2A 7972  25.096  31.729   8.403
  304POPC   C3A 7973  25.100  31.445   8.027
  304POPC   C4A 7974  25.270  31.566   7.625
  304POPC   C1B 7975  25.691  31.184   8.650
  304POPC   C2B 7976  25.704  31.146   8.211
  304POPC   C3B 7977  25.538  31.177   7.808
  304POPC   C4B 7978  25.562  31.273   7.350
  305POPC   NC3 7979  23.949   5.673   9.437
  305POPC   PO4 7980  23.573   6.134   9.656
  305POPC   GL1 7981  23.514   5.995   9.245
  305POPC   GL2 7982  23.436   6.271   9.033
  305POPC   C1A 7983  23.474   5.794   8.859
  305POPC   D2A 7984  23.738   5.751   8.530
  305POPC   C3A 7985  23.591   5.606   8.148
  305POPC   C4A 7986  23.889   5.763   7.884
  305POPC   C1B 7987  23.531   6.225   8.567
  305POPC   C2B 7988  23.525   6.116   8.110
  305POPC   C3B 7989  23.470   6.051   7.651
  305POPC   C4B 7990  23.341   6.096   7.167
  306POPC   NC3 7991  24.645   7.169   9.542
  306POPC   PO4 7992  24.535   7.837   9.721
  306POPC   GL1 7993  24.540   7.621   9.297
  306POPC   GL2 7994  24.816   7.733   9.121
  306POPC   C1A 7995  24.554   7.347   8.883
  306POPC   D2A 7996  24.521   6.970   8.594
  306POPC   C3A 7997  24.570   7.038   8.160
  306POPC   C4A 7998  24.713   6.900   7.772
  306POPC   C1B 7999  24.953   7.674   8.749
  306POPC   C2B 8000  25.020   7.891   8.366
  306POPC   C3B 8001  24.801   7.810   8.000
  306POPC   C4B 8002  24.635   7.415   7.778
  307POPC   NC3 8003  28.737  37.492   9.430
  307POPC   PO4 8004  29.306  37.774   9.704
  307POPC   GL1 8005  29.188  37.669   9.278
  307POPC   GL2 8006  29.366  37.376   9.266
  307POPC   C1A 8007  28.970  37.661   8.839
  307POPC   D2A 8008  29.075  37.732   8.405
  307POPC   C3A 8009  28.950  37.734   7.960
  307POPC   C4A 8010  29.053  37.907   7.540
  307POPC   C1B 8011  29.478  37.580   8.858
  307POPC   C2B 8012  29.506  37.458   8.458
  307POPC   C3B 8013  29.436  37.575   8.044
  307POPC   C4B 8014  29.551  37.734   7.643
  308POPC   NC3 8015   1.080  38.607   9.437
  308POPC   PO4 8016   1.207  37.991   9.487
  308POPC   GL1 8017   1.244  38.259   9.098
  308POPC   GL2 8018   1.411  38.591   9.051
  308POPC   C1A 8019   1.078  38.367   8.700
  308POPC   D2A 8020   0.933  38.594   8.334
  308POPC   C3A 8021   1.137  38.576   7.954
  308POPC   C4A 8022   1.014  38.303   7.623
  308POPC   C1B 8023   1.346  38.797   8.653
  308POPC   C2B 8024   1.547  38.892   8.268
  308POPC   C3B 8025   1.663  38.648   7.913
  308POPC   C4B 8026   1.456  38.562   7.529
  309POPC   NC3 8027   0.163  39.468   9.276
  309POPC   PO4 8028   0.782  39.398   9.352
  309POPC   GL1 8029   0.501  39.145   9.071
  309POPC   GL2 8030   0.174  38.992   9.127
  309POPC   C1A 8031   0.369  39.317   8.677
  309POPC   D2A 8032   0.513  39.252   8.279
  309POPC   C3A 8033   0.273  39.450   7.974
  309POPC   C4A 8034   0.528  39.344   7.624
  309POPC   C1B 8035   0.228  38.820   8.720
  309POPC   C2B 8036   0.407  38.744   8.298
  309POPC   C3B 8037   0.275  38.945   7.908
  309POPC   C4B 8038   0.317  38.884   7.432
  310POPC   NC3 8039  36.942  31.744   9.615
  310POPC   PO4 8040  36.531  31.252   9.461
  310POPC   GL1 8041  36.712  31.557   9.186
  310POPC   GL2 8042  37.012  31.406   9.242
  310POPC   C1A 8043  37.002  31.727   8.856
  310POPC   D2A 8044  36.932  31.805   8.422
  310POPC   C3A 8045  37.145  31.596   8.097
  310POPC   C4A 8046  36.947  31.428   7.750
  310POPC   C1B 8047  37.174  31.214   8.899
  310POPC   C2B 8048  37.185  31.285   8.497
  310POPC   C3B 8049  37.279  31.072   8.127
  310POPC   C4B 8050  37.232  30.994   7.728
  311POPC   NC3 8051  26.626  17.584   9.611
  311POPC   PO4 8052  27.178  17.598   9.580
  311POPC   GL1 8053  26.949  17.621   9.197
  311POPC   GL2 8054  26.728  17.349   9.152
  311POPC   C1A 8055  26.890  17.729   8.769
  311POPC   D2A 8056  26.727  17.789   8.353
  311POPC   C3A 8057  26.690  17.456   8.065
  311POPC   C4A 8058  26.699  17.396   7.633
  311POPC   C1B 8059  26.521  17.384   8.741
  311POPC   C2B 8060  26.317  17.237   8.359
  311POPC   C3B 8061  26.231  17.282   7.912
  311POPC   C4B 8062  26.239  17.216   7.484
  312POPC   NC3 8063  23.358  35.779   9.349
  312POPC   PO4 8064  23.554  36.384   9.570
  312POPC   GL1 8065  23.528  36.231   9.129
  312POPC   GL2 8066  23.241  36.370   8.967
  312POPC   C1A 8067  23.555  35.989   8.706
  312POPC   D2A 8068  23.910  35.962   8.366
  312POPC   C3A 8069  23.898  36.052   7.899
  312POPC   C4A 8070  24.063  36.316   7.548
  312POPC   C1B 8071  23.613  36.514   8.690
  312POPC   C2B 8072  23.658  36.583   8.231
  312POPC   C3B 8073  23.649  36.504   7.779
  312POPC   C4B 8074  23.572  36.308   7.358
  313POPC   NC3 8075  25.339  42.439   9.997
  313POPC   PO4 8076  25.022  42.065   9.550
  313POPC   GL1 8077  25.255  42.219   9.167
  313POPC   GL2 8078  25.547  42.429   9.159
  313POPC   C1A 8079  25.201  42.278   8.720
  313POPC   D2A 8080  25.382  42.169   8.326
  313POPC   C3A 8081  25.211  42.285   7.927
  313POPC   C4A 8082  25.162  42.025   7.521
  313POPC   C1B 8083  25.681  42.478   8.693
  313POPC   C2B 8084  25.792  42.493   8.225
  313POPC   C3B 8085  25.572  42.659   7.865
  313POPC   C4B 8086  25.399  42.488   7.470
  314POPC   NC3 8087  32.424  18.519   9.491
  314POPC   PO4 8088  32.150  17.983   9.591
  314POPC   GL1 8089  32.398  18.055   9.228
  314POPC   GL2 8090  32.205  18.317   9.067
  314POPC   C1A 8091  32.543  18.029   8.807
  314POPC   D2A 8092  32.300  18.067   8.442
  314POPC   C3A 8093  32.515  17.966   8.092
  314POPC   C4A 8094  32.506  18.163   7.719
  314POPC   C1B 8095  32.394  18.538   8.716
  314POPC   C2B 8096  32.307  18.576   8.267
  314POPC   C3B 8097  32.082  18.338   7.931
  314POPC   C4B 8098  31.819  18.213   7.566
  315POPC   NC3 8099  14.330  22.743   9.423
  315POPC   PO4 8100  14.461  23.379   9.277
  315POPC   GL1 8101  14.181  23.135   9.010
  315POPC   GL2 8102  14.122  22.766   8.976
  315POPC   C1A 8103  14.137  23.110   8.580
  315POPC   D2A 8104  14.191  22.807   8.277
  315POPC   C3A 8105  14.410  23.052   8.020
  315POPC   C4A 8106  14.281  23.161   7.640
  315POPC   C1B 8107  14.491  22.740   8.716
  315POPC   C2B 8108  14.734  22.733   8.315
  315POPC   C3B 8109  14.633  22.562   7.923
  315POPC   C4B 8110  14.243  22.644   7.733
  316POPC   NC3 8111   8.367   4.820   9.525
  316POPC   PO4 8112   8.259   4.186   9.586
  316POPC   GL1 8113   8.151   4.133   9.158
  316POPC   GL2 8114   8.142   4.520   9.129
  316POPC   C1A 8115   8.065   4.157   8.738
  316POPC   D2A 8116   8.282   4.046   8.364
  316POPC   C3A 8117   8.024   4.141   7.998
  316POPC   C4A 8118   8.151   3.871   7.662
  316POPC   C1B 8119   8.165   4.683   8.719
  316POPC   C2B 8120   8.227   4.558   8.284
  316POPC   C3B 8121   8.223   4.679   7.836
  316POPC   C4B 8122   8.216   4.743   7.361
  317POPC   NC3 8123  14.947  36.611   9.596
  317POPC   PO4 8124  15.479  36.978   9.665
  317POPC   GL1 8125  15.348  36.989   9.244
  317POPC   GL2 8126  15.029  37.073   9.200
  317POPC   C1A 8127  15.280  36.816   8.834
  317POPC   D2A 8128  15.296  37.005   8.443
  317POPC   C3A 8129  15.135  36.800   8.118
  317POPC   C4A 8130  15.268  36.928   7.715
  317POPC   C1B 8131  14.951  37.212   8.765
  317POPC   C2B 8132  14.826  37.189   8.315
  317POPC   C3B 8133  14.991  37.307   7.933
  317POPC   C4B 8134  14.923  37.260   7.483
  318POPC   NC3 8135  20.809  40.333   9.364
  318POPC   PO4 8136  20.365  39.814   9.600
  318POPC   GL1 8137  20.525  39.824   9.184
  318POPC   GL2 8138  20.387  40.135   9.125
  318POPC   C1A 8139  20.757  39.994   8.795
  318POPC   D2A 8140  20.780  40.212   8.384
  318POPC   C3A 8141  20.507  40.033   8.051
  318POPC   C4A 8142  20.475  39.793   7.716
  318POPC   C1B 8143  20.415  40.401   8.772
  318POPC   C2B 8144  20.293  40.373   8.374
  318POPC   C3B 8145  20.473  40.524   7.990
  318POPC   C4B 8146  20.332  40.296   7.613
  319POPC   NC3 8147  40.673  14.998   9.494
  319POPC   PO4 8148  41.282  15.225   9.525
  319POPC   GL1 8149  40.880  15.283   9.137
  319POPC   GL2 8150  40.523  15.177   9.051
  319POPC   C1A 8151  40.770  15.444   8.705
  319POPC   D2A 8152  41.043  15.387   8.347
  319POPC   C3A 8153  40.890  15.331   7.931
  319POPC   C4A 8154  40.959  15.493   7.512
  319POPC   C1B 8155  40.537  14.987   8.671
  319POPC   C2B 8156  40.493  15.170   8.268
  319POPC   C3B 8157  40.557  14.921   7.899
  319POPC   C4B 8158  40.547  14.846   7.446
  320POPC   NC3 8159   3.360  20.155   9.929
  320POPC   PO4 8160   3.519  19.679   9.467
  320POPC   GL1 8161   3.791  19.717   9.121
  320POPC   GL2 8162   3.528  19.818   8.921
  320POPC   C1A 8163   4.001  19.973   8.787
  320POPC   D2A 8164   3.979  20.170   8.374
  320POPC   C3A 8165   3.649  19.978   8.121
  320POPC   C4A 8166   3.791  19.746   7.772
  320POPC   C1B 8167   3.271  19.634   8.621
  320POPC   C2B 8168   3.176  19.585   8.216
  320POPC   C3B 8169   3.366  19.426   7.863
  320POPC   C4B 8170   3.421  19.598   7.449
  321POPC   NC3 8171  17.270  15.063   9.727
  321POPC   PO4 8172  17.850  15.046   9.332
  321POPC   GL1 8173  17.594  15.200   9.004
  321POPC   GL2 8174  17.279  15.239   9.203
  321POPC   C1A 8175  17.571  15.142   8.556
  321POPC   D2A 8176  17.769  14.848   8.243
  321POPC   C3A 8177  17.761  15.120   7.899
  321POPC   C4A 8178  17.466  15.487   7.900
  321POPC   C1B 8179  17.108  15.037   8.803
  321POPC   C2B 8180  17.087  15.001   8.359
  321POPC   C3B 8181  17.243  15.033   7.946
  321POPC   C4B 8182  17.501  14.729   7.720
  322POPC   NC3 8183  38.985  24.107   9.444
  322POPC   PO4 8184  39.494  24.582   9.389
  322POPC   GL1 8185  39.340  24.351   9.070
  322POPC   GL2 8186  38.974  24.473   9.099
  322POPC   C1A 8187  39.190  24.416   8.632
  322POPC   D2A 8188  38.972  24.457   8.237
  322POPC   C3A 8189  39.221  24.293   7.919
  322POPC   C4A 8190  38.982  23.998   7.708
  322POPC   C1B 8191  38.882  24.802   8.811
  322POPC   C2B 8192  39.102  24.908   8.443
  322POPC   C3B 8193  39.180  24.897   8.051
  322POPC   C4B 8194  39.358  24.741   7.709
  323POPC   NC3 8195   2.523  25.073   9.641
  323POPC   PO4 8196   2.878  25.623   9.609
  323POPC   GL1 8197   2.666  25.524   9.196
  323POPC   GL2 8198   2.380  25.257   9.191
  323POPC   C1A 8199   2.726  25.485   8.745
  323POPC   D2A 8200   2.955  25.135   8.530
  323POPC   C3A 8201   2.885  25.214   8.107
  323POPC   C4A 8202   2.666  25.498   7.841
  323POPC   C1B 8203   2.520  25.025   8.808
  323POPC   C2B 8204   2.461  25.051   8.398
  323POPC   C3B 8205   2.423  25.057   7.983
  323POPC   C4B 8206   2.646  24.916   7.617
  324POPC   NC3 8207   2.879  33.299   9.506
  324POPC   PO4 8208   2.596  34.001   9.588
  324POPC   GL1 8209   2.727  33.717   9.228
  324POPC   GL2 8210   2.494  33.461   9.180
  324POPC   C1A 8211   2.910  33.740   8.804
  324POPC   D2A 8212   2.769  33.639   8.400
  324POPC   C3A 8213   3.003  33.756   8.027
  324POPC   C4A 8214   2.960  33.618   7.618
  324POPC   C1B 8215   2.339  33.551   8.765
  324POPC   C2B 8216   2.247  33.643   8.334
  324POPC   C3B 8217   2.504  33.622   7.951
  324POPC   C4B 8218   2.364  33.705   7.543
  325POPC   NC3 8219  21.762  14.915   9.438
  325POPC   PO4 8220  22.265  15.299   9.489
  325POPC   GL1 8221  22.126  15.365   9.051
  325POPC   GL2 8222  21.750  15.398   8.975
  325POPC   C1A 8223  22.125  15.347   8.604
  325POPC   D2A 8224  22.018  15.589   8.234
  325POPC   C3A 8225  22.275  15.378   7.961
  325POPC   C4A 8226  22.350  14.897   7.873
  325POPC   C1B 8227  21.821  14.970   8.781
  325POPC   C2B 8228  22.006  14.898   8.364
  325POPC   C3B 8229  21.882  15.051   7.972
  325POPC   C4B 8230  21.849  14.713   7.746
  326POPC   NC3 8231  17.855  29.169   9.543
  326POPC   PO4 8232  18.467  29.382   9.655
  326POPC   GL1 8233  18.241  29.317   9.243
  326POPC   GL2 8234  18.059  28.993   9.086
  326POPC   C1A 8235  18.424  29.227   8.838
  326POPC   D2A 8236  18.529  29.062   8.448
  326POPC   C3A 8237  18.479  29.357   8.127
  326POPC   C4A 8238  18.330  29.401   7.732
  326POPC   C1B 8239  18.330  28.705   8.776
  326POPC   C2B 8240  18.414  28.574   8.334
  326POPC   C3B 8241  18.353  28.883   7.992
  326POPC   C4B 8242  17.990  29.009   7.713
  327POPC   NC3 8243  18.664  27.155   9.510
  327POPC   PO4 8244  17.952  27.091   9.523
  327POPC   GL1 8245  18.251  26.953   9.206
  327POPC   GL2 8246  18.205  26.605   9.138
  327POPC   C1A 8247  18.376  26.939   8.770
  327POPC   D2A 8248  18.267  27.167   8.413
  327POPC   C3A 8249  18.472  27.058   8.062
  327POPC   C4A 8250  18.318  26.967   7.622
  327POPC   C1B 8251  18.212  26.475   8.708
  327POPC   C2B 8252  18.311  26.643   8.311
  327POPC   C3B 8253  18.485  26.566   7.878
  327POPC   C4B 8254  18.667  26.626   7.435
  328POPC   NC3 8255   9.843   5.668   9.358
  328POPC   PO4 8256   9.641   5.055   9.574
  328POPC   GL1 8257   9.712   4.908   9.183
  328POPC   GL2 8258   9.645   5.247   9.056
  328POPC   C1A 8259   9.587   4.769   8.796
  328POPC   D2A 8260   9.414   4.930   8.433
  328POPC   C3A 8261   9.636   4.745   8.076
  328POPC   C4A 8262   9.771   5.038   7.768
  328POPC   C1B 8263   9.692   5.333   8.626
  328POPC   C2B 8264   9.890   5.125   8.301
  328POPC   C3B 8265  10.180   5.261   8.020
  328POPC   C4B 8266  10.154   5.434   7.644
  329POPC   NC3 8267  30.582   9.973   9.476
  329POPC   PO4 8268  31.146   9.545   9.618
  329POPC   GL1 8269  31.021   9.846   9.218
  329POPC   GL2 8270  30.697   9.770   9.025
  329POPC   C1A 8271  31.080   9.889   8.740
  329POPC   D2A 8272  30.798   9.784   8.428
  329POPC   C3A 8273  31.040   9.851   8.090
  329POPC   C4A 8274  31.024   9.757   7.689
  329POPC   C1B 8275  30.584   9.407   8.752
  329POPC   C2B 8276  30.618   9.287   8.347
  329POPC   C3B 8277  30.727   9.446   7.970
  329POPC   C4B 8278  30.487   9.529   7.615
  330POPC   NC3 8279  37.225  12.812   9.470
  330POPC   PO4 8280  36.694  13.068   9.659
  330POPC   GL1 8281  36.902  13.125   9.205
  330POPC   GL2 8282  36.906  12.811   9.008
  330POPC   C1A 8283  36.812  13.262   8.743
  330POPC   D2A 8284  36.528  13.256   8.360
  330POPC   C3A 8285  36.663  12.968   8.028
  330POPC   C4A 8286  36.953  12.914   7.700
  330POPC   C1B 8287  36.846  12.805   8.528
  330POPC   C2B 8288  37.112  12.744   8.158
  330POPC   C3B 8289  37.143  12.452   7.821
  330POPC   C4B 8290  37.114  12.511   7.373
  331POPC   NC3 8291  33.518  14.263   9.612
  331POPC   PO4 8292  33.975  14.730   9.384
  331POPC   GL1 8293  33.869  14.319   9.221
  331POPC   GL2 8294  33.576  14.450   9.133
  331POPC   C1A 8295  33.852  14.123   8.802
  331POPC   D2A 8296  34.164  14.330   8.521
  331POPC   C3A 8297  34.086  14.379   8.079
  331POPC   C4A 8298  33.732  14.210   7.865
  331POPC   C1B 8299  33.623  14.593   8.730
  331POPC   C2B 8300  33.607  14.432   8.312
  331POPC   C3B 8301  33.664  14.705   7.916
  331POPC   C4B 8302  33.497  14.976   7.584
  332POPC   NC3 8303  39.371  41.605   9.575
  332POPC   PO4 8304  38.833  41.322   9.220
  332POPC   GL1 8305  39.287  41.435   9.106
  332POPC   GL2 8306  39.336  41.760   9.068
  332POPC   C1A 8307  39.653  41.510   8.791
  332POPC   D2A 8308  39.671  41.647   8.356
  332POPC   C3A 8309  39.297  41.668   8.077
  332POPC   C4A 8310  39.382  41.678   7.645
  332POPC   C1B 8311  39.209  41.788   8.636
  332POPC   C2B 8312  38.990  42.036   8.302
  332POPC   C3B 8313  39.021  42.042   7.831
  332POPC   C4B 8314  38.919  41.806   7.464
  333POPC   NC3 8315  27.253  44.924   9.452
  333POPC   PO4 8316  26.573  44.928   9.390
  333POPC   GL1 8317  26.838  44.778   9.122
  333POPC   GL2 8318  26.997  44.498   9.244
  333POPC   C1A 8319  26.757  44.840   8.726
  333POPC   D2A 8320  26.583  44.718   8.364
  333POPC   C3A 8321  26.793  44.790   8.006
  333POPC   C4A 8322  26.672  44.719   7.618
  333POPC   C1B 8323  27.083  44.432   8.814
  333POPC   C2B 8324  26.926  44.335   8.421
  333POPC   C3B 8325  27.144  44.269   8.076
  333POPC   C4B 8326  27.082  44.453   7.749
  334POPC   NC3 8327  35.934  22.719   9.396
  334POPC   PO4 8328  36.293  23.273   9.459
  334POPC   GL1 8329  36.127  23.100   9.102
  334POPC   GL2 8330  35.751  23.137   9.128
  334POPC   C1A 8331  36.132  22.785   8.745
  334POPC   D2A 8332  35.931  22.780   8.321
  334POPC   C3A 8333  36.158  22.938   8.010
  334POPC   C4A 8334  36.117  22.999   7.592
  334POPC   C1B 8335  35.884  23.317   8.723
  334POPC   C2B 8336  35.940  23.363   8.289
  334POPC   C3B 8337  35.842  23.321   7.848
  334POPC   C4B 8338  35.767  23.358   7.381
  335POPC   NC3 8339  38.328  41.318   9.509
  335POPC   PO4 8340  38.901  41.677   9.676
  335POPC   GL1 8341  38.498  41.695   9.231
  335POPC   GL2 8342  38.245  41.497   9.042
  335POPC   C1A 8343  38.639  41.699   8.734
  335POPC   D2A 8344  38.879  41.492   8.374
  335POPC   C3A 8345  38.760  41.619   7.946
  335POPC   C4A 8346  38.545  41.425   7.595
  335POPC   C1B 8347  38.345  41.269   8.670
  335POPC   C2B 8348  38.377  41.399   8.251
  335POPC   C3B 8349  38.216  41.654   7.922
  335POPC   C4B 8350  38.005  41.503   7.575
  336POPC   NC3 8351  16.636  10.829   9.596
  336POPC   PO4 8352  16.887  10.342   9.557
  336POPC   GL1 8353  16.846  10.632   9.144
  336POPC   GL2 8354  16.731  10.992   9.117
  336POPC   C1A 8355  16.862  10.697   8.667
  336POPC   D2A 8356  16.709  10.573   8.244
  336POPC   C3A 8357  16.895  10.666   7.825
  336POPC   C4A 8358  16.974  10.572   7.365
  336POPC   C1B 8359  16.413  10.914   8.804
  336POPC   C2B 8360  16.357  10.954   8.342
  336POPC   C3B 8361  16.477  11.002   7.889
  336POPC   C4B 8362  16.525  10.803   7.482
  337POPC   NC3 8363  13.980   9.401   9.550
  337POPC   PO4 8364  14.471   9.722   9.705
  337POPC   GL1 8365  14.214   9.863   9.327
  337POPC   GL2 8366  14.172   9.582   9.121
  337POPC   C1A 8367  14.216  10.050   8.878
  337POPC   D2A 8368  14.067   9.955   8.431
  337POPC   C3A 8369  14.256  10.002   7.999
  337POPC   C4A 8370  14.521   9.969   7.619
  337POPC   C1B 8371  14.294   9.570   8.693
  337POPC   C2B 8372  14.510   9.689   8.314
  337POPC   C3B 8373  14.457   9.531   7.896
  337POPC   C4B 8374  14.100   9.297   7.787
  338POPC   NC3 8375  42.747  33.819   9.394
  338POPC   PO4 8376  42.148  33.580   9.602
  338POPC   GL1 8377  42.295  33.778   9.198
  338POPC   GL2 8378  42.279  34.153   9.222
  338POPC   C1A 8379  42.350  33.609   8.761
  338POPC   D2A 8380  42.099  33.523   8.407
  338POPC   C3A 8381  42.348  33.583   8.046
  338POPC   C4A 8382  42.179  33.645   7.636
  338POPC   C1B 8383  42.453  34.099   8.800
  338POPC   C2B 8384  42.290  34.006   8.374
  338POPC   C3B 8385  42.551  34.057   7.980
  338POPC   C4B 8386  42.493  34.027   7.547
  339POPC   NC3 8387  26.487  12.411   9.223
  339POPC   PO4 8388  27.020  12.178   9.422
  339POPC   GL1 8389  26.880  12.190   9.007
  339POPC   GL2 8390  26.773  11.872   9.011
  339POPC   C1A 8391  26.698  12.183   8.596
  339POPC   D2A 8392  26.940  12.320   8.277
  339POPC   C3A 8393  26.779  12.199   7.898
  339POPC   C4A 8394  26.375  12.272   7.815
  339POPC   C1B 8395  26.992  11.737   8.630
  339POPC   C2B 8396  27.067  11.823   8.187
  339POPC   C3B 8397  26.832  11.712   7.785
  339POPC   C4B 8398  26.592  11.957   7.477
  340POPC   NC3 8399   1.632  16.603   9.409
  340POPC   PO4 8400   2.265  16.806   9.605
  340POPC   GL1 8401   2.120  16.657   9.203
  340POPC   GL2 8402   2.211  16.937   9.076
  340POPC   C1A 8403   2.037  16.565   8.740
  340POPC   D2A 8404   1.725  16.548   8.378
  340POPC   C3A 8405   1.908  16.560   7.944
  340POPC   C4A 8406   1.769  16.594   7.498
  340POPC   C1B 8407   2.147  17.060   8.672
  340POPC   C2B 8408   2.018  16.973   8.272
  340POPC   C3B 8409   2.257  17.103   7.928
  340POPC   C4B 8410   2.248  16.766   7.572
  341POPC   NC3 8411   0.612  18.691   9.582
  341POPC   PO4 8412   0.284  18.197   9.609
  341POPC   GL1 8413   0.534  18.144   9.272
  341POPC   GL2 8414   0.496  18.461   9.141
  341POPC   C1A 8415   0.624  18.067   8.830
  341POPC   D2A 8416   0.524  18.300   8.461
  341POPC   C3A 8417   0.514  18.034   8.121
  341POPC   C4A 8418   0.646  18.034   7.717
  341POPC   C1B 8419   0.164  18.269   8.891
  341POPC   C2B 8420   0.017  18.295   8.464
  341POPC   C3B 8421   0.148  18.423   8.071
  341POPC   C4B 8422   0.108  18.041   7.801
  342POPC   NC3 8423  13.359  13.663   9.419
  342POPC   PO4 8424  14.005  13.505   9.404
  342POPC   GL1 8425  13.802  13.751   9.076
  342POPC   GL2 8426  13.463  13.916   9.008
  342POPC   C1A 8427  13.728  13.604   8.673
  342POPC   D2A 8428  13.485  13.446   8.340
  342POPC   C3A 8429  13.751  13.583   7.999
  342POPC   C4A 8430  13.820  13.341   7.657
  342POPC   C1B 8431  13.274  13.844   8.655
  342POPC   C2B 8432  13.409  13.940   8.266
  342POPC   C3B 8433  13.262  13.692   7.912
  342POPC   C4B 8434  13.443  13.655   7.518
  343POPC   NC3 8435  32.768  19.717   9.544
  343POPC   PO4 8436  33.078  20.312   9.613
  343POPC   GL1 8437  33.048  20.037   9.197
  343POPC   GL2 8438  32.902  19.698   9.079
  343POPC   C1A 8439  33.125  19.960   8.735
  343POPC   D2A 8440  33.017  20.133   8.367
  343POPC   C3A 8441  32.843  20.093   7.940
  343POPC   C4A 8442  33.075  20.012   7.568
  343POPC   C1B 8443  32.888  19.399   8.784
  343POPC   C2B 8444  32.746  19.282   8.419
  343POPC   C3B 8445  32.900  19.331   8.042
  343POPC   C4B 8446  32.855  19.579   7.708
  344POPC   NC3 8447  40.287  38.259   9.437
  344POPC   PO4 8448  40.988  38.095   9.467
  344POPC   GL1 8449  40.855  38.311   9.138
  344POPC   GL2 8450  40.543  38.178   9.017
  344POPC   C1A 8451  40.896  38.424   8.733
  344POPC   D2A 8452  40.665  38.295   8.391
  344POPC   C3A 8453  40.895  38.482   8.098
  344POPC   C4A 8454  40.983  38.552   7.686
  344POPC   C1B 8455  40.391  38.559   8.763
  344POPC   C2B 8456  40.319  38.665   8.298
  344POPC   C3B 8457  40.520  38.753   7.892
  344POPC   C4B 8458  40.626  38.808   7.386
  345POPC   NC3 8459   5.286   1.760   9.766
  345POPC   PO4 8460   4.749   2.156   9.621
  345POPC   GL1 8461   4.985   2.045   9.271
  345POPC   GL2 8462   5.222   1.760   9.202
  345POPC   C1A 8463   5.030   2.079   8.834
  345POPC   D2A 8464   5.006   1.884   8.437
  345POPC   C3A 8465   4.817   2.094   8.122
  345POPC   C4A 8466   4.980   2.186   7.742
  345POPC   C1B 8467   5.197   1.559   8.772
  345POPC   C2B 8468   5.449   1.653   8.370
  345POPC   C3B 8469   5.303   1.828   7.941
  345POPC   C4B 8470   5.424   1.747   7.458
  346POPC   NC3 8471   1.117  23.085   9.621
  346POPC   PO4 8472   1.630  22.712   9.674
  346POPC   GL1 8473   1.404  22.983   9.217
  346POPC   GL2 8474   1.028  23.023   9.143
  346POPC   C1A 8475   1.231  22.854   8.737
  346POPC   D2A 8476   1.157  23.042   8.361
  346POPC   C3A 8477   0.937  22.845   8.028
  346POPC   C4A 8478   1.220  22.958   7.721
  346POPC   C1B 8479   0.806  23.194   8.788
  346POPC   C2B 8480   0.789  23.394   8.421
  346POPC   C3B 8481   0.960  23.368   7.999
  346POPC   C4B 8482   0.766  23.236   7.615
  347POPC   NC3 8483  43.415   4.184   9.216
  347POPC   PO4 8484  44.103   4.344   9.363
  347POPC   GL1 8485  43.894   4.291   9.020
  347POPC   GL2 8486  43.893   3.939   9.023
  347POPC   C1A 8487  43.657   4.515   8.699
  347POPC   D2A 8488  43.449   4.374   8.339
  347POPC   C3A 8489  43.705   4.399   7.945
  347POPC   C4A 8490  43.998   4.690   7.769
  347POPC   C1B 8491  43.796   3.974   8.582
  347POPC   C2B 8492  44.114   3.895   8.251
  347POPC   C3B 8493  44.278   3.925   7.861
  347POPC   C4B 8494  44.149   4.230   7.574
  348POPC   NC3 8495  42.971  40.467   9.554
  348POPC   PO4 8496  43.389  40.936   9.394
  348POPC   GL1 8497  43.153  40.736   9.061
  348POPC   GL2 8498  42.811  40.589   9.063
  348POPC   C1A 8499  43.319  40.733   8.644
  348POPC   D2A 8500  43.119  40.624   8.252
  348POPC   C3A 8501  42.953  40.935   7.958
  348POPC   C4A 8502  43.234  40.783   7.681
  348POPC   C1B 8503  42.794  40.781   8.641
  348POPC   C2B 8504  42.607  40.655   8.239
  348POPC   C3B 8505  42.749  40.489   7.845
  348POPC   C4B 8506  42.912  40.218   7.536
  349POPC   NC3 8507  42.767  15.482   9.461
  349POPC   PO4 8508  43.381  15.834   9.630
  349POPC   GL1 8509  43.217  15.958   9.197
  349POPC   GL2 8510  43.086  15.659   9.114
  349POPC   C1A 8511  43.093  15.976   8.724
  349POPC   D2A 8512  42.996  16.193   8.328
  349POPC   C3A 8513  43.287  16.081   7.984
  349POPC   C4A 8514  43.202  15.924   7.575
  349POPC   C1B 8515  42.814  15.523   8.774
  349POPC   C2B 8516  42.876  15.560   8.342
  349POPC   C3B 8517  42.849  15.825   7.982
  349POPC   C4B 8518  42.742  15.688   7.586
  350POPC   NC3 8519  39.610   7.830   9.420
  350POPC   PO4 8520  39.958   8.426   9.489
  350POPC   GL1 8521  40.220   8.419   9.132
  350POPC   GL2 8522  40.239   8.071   9.113
  350POPC   C1A 8523  40.115   8.552   8.734
  350POPC   D2A 8524  39.886   8.363   8.385
  350POPC   C3A 8525  40.114   8.243   8.001
  350POPC   C4A 8526  40.079   8.375   7.574
  350POPC   C1B 8527  40.063   8.004   8.715
  350POPC   C2B 8528  39.911   7.839   8.313
  350POPC   C3B 8529  39.729   7.926   7.919
  350POPC   C4B 8530  40.013   7.877   7.588
  351POPC   NC3 8531  12.839  43.286   9.438
  351POPC   PO4 8532  12.868  43.925   9.456
  351POPC   GL1 8533  13.037  43.835   9.038
  351POPC   GL2 8534  13.398  43.892   8.982
  351POPC   C1A 8535  13.064  43.554   8.665
  351POPC   D2A 8536  12.793  43.300   8.364
  351POPC   C3A 8537  12.714  43.539   7.989
  351POPC   C4A 8538  12.979  43.790   7.669
  351POPC   C1B 8539  13.201  44.053   8.594
  351POPC   C2B 8540  12.973  43.902   8.238
  351POPC   C3B 8541  12.709  44.097   7.949
  351POPC   C4B 8542  12.828  44.282   7.533
  352POPC   NC3 8543  27.981  11.273   9.555
  352POPC   PO4 8544  27.409  11.402   9.416
  352POPC   GL1 8545  27.679  11.358   9.095
  352POPC   GL2 8546  27.701  10.987   9.018
  352POPC   C1A 8547  27.664  11.645   8.723
  352POPC   D2A 8548  27.630  11.649   8.259
  352POPC   C3A 8549  27.626  11.209   8.109
  352POPC   C4A 8550  27.435  10.997   7.733
  352POPC   C1B 8551  27.891  11.200   8.665
  352POPC   C2B 8552  28.106  11.485   8.403
  352POPC   C3B 8553  28.134  11.339   8.027
  352POPC   C4B 8554  27.924  11.155   7.696
  353POPC   NC3 8555   5.938  44.213   9.527
  353POPC   PO4 8556   5.443  43.850   9.478
  353POPC   GL1 8557   5.728  43.765   9.109
  353POPC   GL2 8558   5.912  44.086   9.033
  353POPC   C1A 8559   5.949  43.679   8.699
  353POPC   D2A 8560   6.118  43.963   8.347
  353POPC   C3A 8561   6.019  43.748   7.969
  353POPC   C4A 8562   5.859  43.906   7.568
  353POPC   C1B 8563   5.594  44.048   8.716
  353POPC   C2B 8564   5.626  43.880   8.316
  353POPC   C3B 8565   5.629  44.100   7.973
  353POPC   C4B 8566   5.429  44.133   7.597
  354POPC   NC3 8567  31.413  16.250   9.359
  354POPC   PO4 8568  31.257  15.697   9.571
  354POPC   GL1 8569  31.469  15.752   9.187
  354POPC   GL2 8570  31.344  15.455   9.117
  354POPC   C1A 8571  31.338  15.801   8.748
  354POPC   D2A 8572  31.467  15.960   8.341
  354POPC   C3A 8573  31.311  15.841   7.942
  354POPC   C4A 8574  31.315  16.108   7.577
  354POPC   C1B 8575  31.700  15.439   8.828
  354POPC   C2B 8576  31.617  15.479   8.413
  354POPC   C3B 8577  31.743  15.547   7.996
  354POPC   C4B 8578  31.717  15.799   7.644
  355POPC   NC3 8579  18.901  18.581   9.485
  355POPC   PO4 8580  19.380  18.064   9.219
  355POPC   GL1 8581  19.057  18.157   8.933
  355POPC   GL2 8582  18.825  18.377   9.026
  355POPC   C1A 8583  19.093  18.177   8.485
  355POPC   D2A 8584  19.450  18.099   8.248
  355POPC   C3A 8585  19.272  17.960   7.902
  355POPC   C4A 8586  18.936  18.251   7.787
  355POPC   C1B 8587  18.851  18.603   8.644
  355POPC   C2B 8588  18.847  18.577   8.192
  355POPC   C3B 8589  18.636  18.666   7.807
  355POPC   C4B 8590  18.582  18.717   7.359
  356POPC   NC3 8591  43.110  28.650   9.651
  356POPC   PO4 8592  43.124  29.274   9.799
  356POPC   GL1 8593  43.158  29.225   9.261
  356POPC   GL2 8594  42.836  29.319   9.073
  356POPC   C1A 8595  43.315  29.066   8.809
  356POPC   D2A 8596  43.218  28.872   8.379
  356POPC   C3A 8597  43.340  29.093   7.981
  356POPC   C4A 8598  43.265  29.095   7.525
  356POPC   C1B 8599  42.838  29.318   8.629
  356POPC   C2B 8600  42.901  29.252   8.202
  356POPC   C3B 8601  42.828  29.249   7.779
  356POPC   C4B 8602  42.861  29.397   7.391
  357POPC   NC3 8603  31.214  21.216   9.562
  357POPC   PO4 8604  31.863  21.611   9.514
  357POPC   GL1 8605  31.468  21.451   9.183
  357POPC   GL2 8606  31.237  21.118   9.067
  357POPC   C1A 8607  31.288  21.538   8.788
  357POPC   D2A 8608  31.233  21.226   8.455
  357POPC   C3A 8609  31.474  21.326   8.090
  357POPC   C4A 8610  31.300  21.289   7.669
  357POPC   C1B 8611  31.621  21.159   8.796
  357POPC   C2B 8612  31.940  21.150   8.507
  357POPC   C3B 8613  31.986  21.073   8.107
  357POPC   C4B 8614  31.747  21.057   7.735
  358POPC   NC3 8615   6.652   0.899   9.459
  358POPC   PO4 8616   6.996   1.530   9.396
  358POPC   GL1 8617   6.873   1.294   9.061
  358POPC   GL2 8618   6.514   1.221   9.074
  358POPC   C1A 8619   6.967   1.407   8.637
  358POPC   D2A 8620   6.898   1.205   8.263
  358POPC   C3A 8621   6.752   1.417   7.905
  358POPC   C4A 8622   6.693   1.196   7.494
  358POPC   C1B 8623   6.599   1.058   8.653
  358POPC   C2B 8624   6.608   0.761   8.316
  358POPC   C3B 8625   6.594   0.934   7.934
  358POPC   C4B 8626   6.251   1.202   7.776
  359POPC   NC3 8627   5.605  14.827   9.347
  359POPC   PO4 8628   5.006  15.176   9.517
  359POPC   GL1 8629   4.977  15.405   9.162
  359POPC   GL2 8630   5.213  15.116   9.031
  359POPC   C1A 8631   4.976  15.463   8.738
  359POPC   D2A 8632   5.052  15.188   8.421
  359POPC   C3A 8633   5.320  15.217   8.055
  359POPC   C4A 8634   5.522  14.875   7.836
  359POPC   C1B 8635   4.816  14.950   8.864
  359POPC   C2B 8636   4.741  14.780   8.459
  359POPC   C3B 8637   4.733  15.005   8.070
  359POPC   C4B 8638   5.002  14.914   7.765
  360POPC   NC3 8639  12.366  42.486   9.327
  360POPC   PO4 8640  11.740  42.627   9.500
  360POPC   GL1 8641  11.750  42.436   9.055
  360POPC   GL2 8642  12.036  42.231   8.998
  360POPC   C1A 8643  11.742  42.373   8.609
  360POPC   D2A 8644  12.088  42.309   8.345
  360POPC   C3A 8645  11.898  42.339   7.936
  360POPC   C4A 8646  11.914  42.226   7.472
  360POPC   C1B 8647  12.430  42.135   8.754
  360POPC   C2B 8648  12.535  41.933   8.351
  360POPC   C3B 8649  12.404  42.140   7.982
  360POPC   C4B 8650  12.402  42.150   7.572
  361POPC   NC3 8651  21.264  35.408   9.679
  361POPC   PO4 8652  21.759  35.036   9.501
  361POPC   GL1 8653  21.484  35.258   9.235
  361POPC   GL2 8654  21.519  35.630   9.287
  361POPC   C1A 8655  21.447  35.174   8.810
  361POPC   D2A 8656  21.469  34.977   8.420
  361POPC   C3A 8657  21.526  35.222   8.082
  361POPC   C4A 8658  21.342  35.167   7.716
  361POPC   C1B 8659  21.248  35.631   8.928
  361POPC   C2B 8660  21.355  35.572   8.494
  361POPC   C3B 8661  21.284  35.695   8.089
  361POPC   C4B 8662  21.142  35.618   7.687
  362POPC   NC3 8663  43.410  36.224   9.279
  362POPC   PO4 8664  43.118  35.653   9.487
  362POPC   GL1 8665  43.145  35.774   9.074
  362POPC   GL2 8666  43.446  35.870   8.874
  362POPC   C1A 8667  42.954  35.938   8.709
  362POPC   D2A 8668  43.023  36.111   8.319
  362POPC   C3A 8669  43.088  35.805   8.033
  362POPC   C4A 8670  43.015  35.841   7.637
  362POPC   C1B 8671  43.323  36.298   8.673
  362POPC   C2B 8672  43.388  36.536   8.303
  362POPC   C3B 8673  43.358  36.250   7.965
  362POPC   C4B 8674  43.566  35.876   7.832
  363POPC   NC3 8675  14.391  43.654   9.582
  363POPC   PO4 8676  14.714  44.123   9.624
  363POPC   GL1 8677  14.708  43.849   9.202
  363POPC   GL2 8678  14.344  43.824   9.094
  363POPC   C1A 8679  14.666  43.661   8.754
  363POPC   D2A 8680  14.495  43.880   8.390
  363POPC   C3A 8681  14.351  43.734   7.985
  363POPC   C4A 8682  14.638  43.832   7.668
  363POPC   C1B 8683  14.073  43.947   8.721
  363POPC   C2B 8684  14.010  44.035   8.264
  363POPC   C3B 8685  14.263  44.214   7.887
  363POPC   C4B 8686  14.287  44.159   7.426
  364POPC   NC3 8687  13.077  38.954   9.463
  364POPC   PO4 8688  12.724  39.582   9.488
  364POPC   GL1 8689  13.002  39.408   9.205
  364POPC   GL2 8690  12.756  39.148   9.140
  364POPC   C1A 8691  13.182  39.235   8.834
  364POPC   D2A 8692  12.950  39.284   8.455
  364POPC   C3A 8693  13.062  39.180   8.093
  364POPC   C4A 8694  12.901  39.286   7.709
  364POPC   C1B 8695  12.595  39.326   8.819
  364POPC   C2B 8696  12.444  39.111   8.470
  364POPC   C3B 8697  12.546  39.207   8.063
  364POPC   C4B 8698  12.388  39.283   7.666
  365POPC   NC3 8699   1.989  20.633   9.562
  365POPC   PO4 8700   1.501  20.369   9.212
  365POPC   GL1 8701   1.965  20.369   9.114
  365POPC   GL2 8702   2.157  20.723   9.092
  365POPC   C1A 8703   2.218  20.339   8.757
  365POPC   D2A 8704   2.280  20.636   8.410
  365POPC   C3A 8705   2.093  20.421   8.062
  365POPC   C4A 8706   1.807  20.372   7.710
  365POPC   C1B 8707   1.877  20.728   8.733
  365POPC   C2B 8708   1.869  20.928   8.319
  365POPC   C3B 8709   1.818  20.842   7.893
  365POPC   C4B 8710   1.846  21.029   7.500
  366POPC   NC3 8711  24.741  29.651   9.436
  366POPC   PO4 8712  24.038  29.628   9.216
  366POPC   GL1 8713  24.394  29.818   9.077
  366POPC   GL2 8714  24.573  30.107   9.202
  366POPC   C1A 8715  24.361  29.892   8.674
  366POPC   D2A 8716  24.356  30.114   8.346
  366POPC   C3A 8717  24.336  29.876   8.015
  366POPC   C4A 8718  24.251  30.115   7.677
  366POPC   C1B 8719  24.796  30.151   8.784
  366POPC   C2B 8720  24.835  30.317   8.345
  366POPC   C3B 8721  24.759  30.179   7.930
  366POPC   C4B 8722  24.702  29.922   7.587
  367POPC   NC3 8723  38.906  10.069   9.439
  367POPC   PO4 8724  39.599  10.051   9.528
  367POPC   GL1 8725  39.482   9.816   9.114
  367POPC   GL2 8726  39.147   9.753   9.139
  367POPC   C1A 8727  39.354   9.618   8.707
  367POPC   D2A 8728  39.355   9.813   8.332
  367POPC   C3A 8729  39.307   9.558   7.993
  367POPC   C4A 8730  39.399   9.843   7.657
  367POPC   C1B 8731  38.857   9.827   8.802
  367POPC   C2B 8732  38.888   9.644   8.414
  367POPC   C3B 8733  38.882   9.841   8.035
  367POPC   C4B 8734  38.920   9.706   7.635
  368POPC   NC3 8735   7.516  25.767   9.395
  368POPC   PO4 8736   7.957  26.268   9.449
  368POPC   GL1 8737   7.617  26.183   9.139
  368POPC   GL2 8738   7.397  26.394   9.012
  368POPC   C1A 8739   7.485  25.951   8.774
  368POPC   D2A 8740   7.592  25.767   8.389
  368POPC   C3A 8741   7.576  25.970   8.010
  368POPC   C4A 8742   7.574  25.647   7.751
  368POPC   C1B 8743   7.115  26.325   8.702
  368POPC   C2B 8744   7.233  26.141   8.363
  368POPC   C3B 8745   7.064  26.202   7.960
  368POPC   C4B 8746   6.909  26.576   7.801
  369POPC   NC3 8747   1.086   9.350   9.685
  369POPC   PO4 8748   1.239   8.760   9.554
  369POPC   GL1 8749   1.420   8.892   9.154
  369POPC   GL2 8750   1.763   8.824   9.119
  369POPC   C1A 8751   1.400   9.096   8.729
  369POPC   D2A 8752   1.059   9.138   8.426
  369POPC   C3A 8753   1.139   9.150   7.971
  369POPC   C4A 8754   1.199   9.202   7.522
  369POPC   C1B 8755   1.614   8.629   8.742
  369POPC   C2B 8756   1.336   8.673   8.405
  369POPC   C3B 8757   1.416   8.701   7.973
  369POPC   C4B 8758   1.612   9.019   7.728
  370POPC   NC3 8759  44.079  18.505   9.863
  370POPC   PO4 8760  43.544  18.299   9.437
  370POPC   GL1 8761  43.718  18.231   9.080
  370POPC   GL2 8762  44.038  18.148   9.221
  370POPC   C1A 8763  43.525  18.352   8.718
  370POPC   D2A 8764  43.476  18.559   8.365
  370POPC   C3A 8765  43.580  18.303   8.051
  370POPC   C4A 8766  43.691  18.441   7.659
  370POPC   C1B 8767  44.138  18.300   8.785
  370POPC   C2B 8768  44.001  18.429   8.379
  370POPC   C3B 8769  44.194  18.401   7.988
  370POPC   C4B 8770  44.189  18.321   7.549
  371POPC   NC3 8771  16.510  42.653   9.606
  371POPC   PO4 8772  17.017  42.170   9.601
  371POPC   GL1 8773  16.902  42.157   9.202
  371POPC   GL2 8774  16.851  42.515   9.208
  371POPC   C1A 8775  16.830  41.895   8.839
  371POPC   D2A 8776  16.976  42.039   8.451
  371POPC   C3A 8777  16.742  41.937   8.108
  371POPC   C4A 8778  16.746  42.178   7.782
  371POPC   C1B 8779  16.797  42.431   8.765
  371POPC   C2B 8780  16.758  42.583   8.313
  371POPC   C3B 8781  16.571  42.643   7.871
  371POPC   C4B 8782  16.701  42.528   7.417
  372POPC   NC3 8783  27.806  28.096   9.802
  372POPC   PO4 8784  27.829  28.714   9.431
  372POPC   GL1 8785  27.644  28.613   9.078
  372POPC   GL2 8786  27.434  28.273   9.040
  372POPC   C1A 8787  27.779  28.436   8.692
  372POPC   D2A 8788  27.639  28.199   8.346
  372POPC   C3A 8789  27.773  28.462   8.037
  372POPC   C4A 8790  27.800  28.275   7.676
  372POPC   C1B 8791  27.284  28.618   8.758
  372POPC   C2B 8792  27.405  28.654   8.356
  372POPC   C3B 8793  27.269  28.445   7.957
  372POPC   C4B 8794  27.327  28.389   7.492
  373POPC   NC3 8795  31.988  42.256   9.557
  373POPC   PO4 8796  32.620  42.492   9.578
  373POPC   GL1 8797  32.393  42.424   9.187
  373POPC   GL2 8798  32.177  42.176   9.089
  373POPC   C1A 8799  32.505  42.415   8.739
  373POPC   D2A 8800  32.473  42.237   8.331
  373POPC   C3A 8801  32.223  42.449   8.108
  373POPC   C4A 8802  31.978  42.692   7.893
  373POPC   C1B 8803  32.224  41.991   8.708
  373POPC   C2B 8804  31.976  42.039   8.334
  373POPC   C3B 8805  31.939  42.068   7.908
  373POPC   C4B 8806  32.183  42.260   7.624
  374POPC   NC3 8807  28.565   5.314   9.596
  374POPC   PO4 8808  28.162   4.711   9.555
  374POPC   GL1 8809  28.335   4.972   9.271
  374POPC   GL2 8810  28.164   5.297   9.283
  374POPC   C1A 8811  28.231   4.891   8.862
  374POPC   D2A 8812  28.369   4.733   8.497
  374POPC   C3A 8813  28.314   4.949   8.109
  374POPC   C4A 8814  28.512   4.922   7.714
  374POPC   C1B 8815  28.409   5.361   8.918
  374POPC   C2B 8816  28.457   5.247   8.499
  374POPC   C3B 8817  28.653   5.328   8.088
  374POPC   C4B 8818  28.402   5.429   7.735
  375POPC   NC3 8819  44.522  41.694   9.612
  375POPC   PO4 8820  44.916  41.192   9.547
  375POPC   GL1 8821  44.671  41.349   9.163
  375POPC   GL2 8822  44.560  41.724   9.111
  375POPC   C1A 8823  44.653  41.433   8.696
  375POPC   D2A 8824  44.320  41.487   8.370
  375POPC   C3A 8825  44.428  41.602   7.957
  375POPC   C4A 8826  44.667  41.362   7.689
  375POPC   C1B 8827  44.459  41.900   8.681
  375POPC   C2B 8828  44.508  42.057   8.270
  375POPC   C3B 8829  44.555  42.089   7.836
  375POPC   C4B 8830  44.828  42.133   7.510
  376POPC   NC3 8831   7.345   8.826   9.443
  376POPC   PO4 8832   7.746   9.445   9.372
  376POPC   GL1 8833   7.467   9.212   9.078
  376POPC   GL2 8834   7.445   8.850   8.959
  376POPC   C1A 8835   7.520   9.243   8.628
  376POPC   D2A 8836   7.449   8.819   8.457
  376POPC   C3A 8837   7.388   8.824   8.051
  376POPC   C4A 8838   7.433   9.155   7.750
  376POPC   C1B 8839   7.068   9.080   8.748
  376POPC   C2B 8840   6.946   9.025   8.335
  376POPC   C3B 8841   6.889   8.812   7.941
  376POPC   C4B 8842   6.939   8.824   7.485
  377POPC   NC3 8843  30.441  10.748   9.545
  377POPC   PO4 8844  30.940  10.289   9.459
  377POPC   GL1 8845  30.786  10.544   9.199
  377POPC   GL2 8846  30.878  10.310   8.936
  377POPC   C1A 8847  30.583  10.741   8.878
  377POPC   D2A 8848  30.515  10.837   8.484
  377POPC   C3A 8849  30.642  10.626   8.166
  377POPC   C4A 8850  30.699  10.675   7.755
  377POPC   C1B 8851  30.620  10.300   8.592
  377POPC   C2B 8852  30.491  10.132   8.219
  377POPC   C3B 8853  30.625  10.052   7.822
  377POPC   C4B 8854  30.923  10.232   7.526
  378POPC   NC3 8855  32.643  36.115   9.574
  378POPC   PO4 8856  33.330  36.219   9.516
  378POPC   GL1 8857  33.051  36.146   9.174
  378POPC   GL2 8858  32.747  36.311   9.118
  378POPC   C1A 8859  33.166  36.228   8.730
  378POPC   D2A 8860  33.382  36.305   8.385
  378POPC   C3A 8861  33.298  36.057   8.036
  378POPC   C4A 8862  33.333  36.209   7.634
  378POPC   C1B 8863  32.722  36.008   8.769
  378POPC   C2B 8864  32.776  36.177   8.347
  378POPC   C3B 8865  32.737  36.404   7.973
  378POPC   C4B 8866  32.838  36.026   7.783
  379POPC   NC3 8867  17.157  37.751   9.530
  379POPC   PO4 8868  17.843  37.593   9.680
  379POPC   GL1 8869  17.609  37.651   9.282
  379POPC   GL2 8870  17.751  37.888   9.071
  379POPC   C1A 8871  17.377  37.606   8.864
  379POPC   D2A 8872  17.428  37.344   8.479
  379POPC   C3A 8873  17.311  37.443   8.038
  379POPC   C4A 8874  17.621  37.472   7.713
  379POPC   C1B 8875  17.532  38.120   8.770
  379POPC   C2B 8876  17.424  37.903   8.411
  379POPC   C3B 8877  17.690  37.798   8.102
  379POPC   C4B 8878  17.715  37.976   7.717
  380POPC   NC3 8879  33.082  37.132   9.371
  380POPC   PO4 8880  33.048  37.794   9.491
  380POPC   GL1 8881  32.955  37.903   9.068
  380POPC   GL2 8882  33.320  37.966   9.018
  380POPC   C1A 8883  32.747  37.731   8.654
  380POPC   D2A 8884  32.696  37.609   8.186
  380POPC   C3A 8885  32.865  37.887   7.860
  380POPC   C4A 8886  33.298  38.072   7.784
  380POPC   C1B 8887  33.229  37.535   8.822
  380POPC   C2B 8888  33.128  37.407   8.392
  380POPC   C3B 8889  33.163  37.486   7.939
  380POPC   C4B 8890  33.297  37.479   7.477
  381POPC   NC3 8891  35.204  41.343   9.427
  381POPC   PO4 8892  35.599  41.909   9.451
  381POPC   GL1 8893  35.423  41.775   9.094
  381POPC   GL2 8894  35.509  41.418   9.028
  381POPC   C1A 8895  35.425  41.739   8.656
  381POPC   D2A 8896  35.399  41.431   8.354
  381POPC   C3A 8897  35.622  41.521   8.012
  381POPC   C4A 8898  35.541  41.608   7.603
  381POPC   C1B 8899  35.129  41.248   8.753
  381POPC   C2B 8900  34.957  41.200   8.305
  381POPC   C3B 8901  35.129  41.365   7.926
  381POPC   C4B 8902  35.068  41.076   7.646
  382POPC   NC3 8903  37.899  35.575   9.512
  382POPC   PO4 8904  38.110  34.920   9.446
  382POPC   GL1 8905  37.833  35.111   9.092
  382POPC   GL2 8906  37.760  35.461   9.053
  382POPC   C1A 8907  37.727  35.193   8.650
  382POPC   D2A 8908  37.563  35.028   8.314
  382POPC   C3A 8909  37.745  35.161   7.946
  382POPC   C4A 8910  37.914  34.951   7.605
  382POPC   C1B 8911  37.416  35.607   8.819
  382POPC   C2B 8912  37.389  35.730   8.403
  382POPC   C3B 8913  37.236  35.754   8.012
  382POPC   C4B 8914  37.314  35.401   7.779
  383POPC   NC3 8915  25.398  27.996   9.484
  383POPC   PO4 8916  24.901  27.662   9.426
  383POPC   GL1 8917  25.146  27.773   9.084
  383POPC   GL2 8918  25.462  27.626   9.084
  383POPC   C1A 8919  25.155  27.699   8.653
  383POPC   D2A 8920  24.898  27.955   8.387
  383POPC   C3A 8921  24.996  27.693   8.083
  383POPC   C4A 8922  25.147  27.772   7.713
  383POPC   C1B 8923  25.648  27.916   8.800
  383POPC   C2B 8924  25.595  28.065   8.381
  383POPC   C3B 8925  25.573  27.864   7.976
  383POPC   C4B 8926  25.712  27.845   7.549
  384POPC   NC3 8927  39.065  18.929   9.590
  384POPC   PO4 8928  39.472  19.439   9.592
  384POPC   GL1 8929  39.253  19.141   9.188
  384POPC   GL2 8930  39.365  18.781   9.195
  384POPC   C1A 8931  39.087  18.943   8.759
  384POPC   D2A 8932  39.157  18.837   8.313
  384POPC   C3A 8933  38.997  19.230   8.120
  384POPC   C4A 8934  38.902  19.340   7.692
  384POPC   C1B 8935  39.591  18.934   8.825
  384POPC   C2B 8936  39.522  19.164   8.438
  384POPC   C3B 8937  39.474  19.101   7.990
  384POPC   C4B 8938  39.640  18.766   7.792
  385POPC   NC3 8939  29.656  31.067   9.549
  385POPC   PO4 8940  29.997  30.503   9.614
  385POPC   GL1 8941  29.836  30.677   9.218
  385POPC   GL2 8942  29.938  31.014   9.129
  385POPC   C1A 8943  29.726  30.676   8.774
  385POPC   D2A 8944  29.629  30.852   8.361
  385POPC   C3A 8945  29.792  30.575   8.050
  385POPC   C4A 8946  29.967  30.616   7.636
  385POPC   C1B 8947  29.901  31.145   8.716
  385POPC   C2B 8948  30.121  31.269   8.359
  385POPC   C3B 8949  30.033  31.031   8.003
  385POPC   C4B 8950  29.731  31.068   7.715
  386POPC   NC3 8951   5.391  33.318   9.761
  386POPC   PO4 8952   5.029  33.853   9.570
  386POPC   GL1 8953   4.967  33.772   9.159
  386POPC   GL2 8954   5.292  33.837   9.108
  386POPC   C1A 8955   4.978  33.740   8.714
  386POPC   D2A 8956   5.158  33.972   8.382
  386POPC   C3A 8957   5.029  33.773   8.005
  386POPC   C4A 8958   5.038  33.995   7.627
  386POPC   C1B 8959   5.489  33.737   8.727
  386POPC   C2B 8960   5.372  33.502   8.388
  386POPC   C3B 8961   5.501  33.624   7.999
  386POPC   C4B 8962   5.314  33.552   7.626
  387POPC   NC3 8963  13.727  17.032   9.480
  387POPC   PO4 8964  13.608  16.349   9.599
  387POPC   GL1 8965  13.700  16.592   9.225
  387POPC   GL2 8966  13.418  16.824   9.115
  387POPC   C1A 8967  13.866  16.778   8.842
  387POPC   D2A 8968  13.687  16.779   8.455
  387POPC   C3A 8969  13.894  16.828   8.098
  387POPC   C4A 8970  13.960  16.779   7.696
  387POPC   C1B 8971  13.268  16.955   8.686
  387POPC   C2B 8972  13.341  17.070   8.217
  387POPC   C3B 8973  13.407  17.002   7.748
  387POPC   C4B 8974  13.191  16.906   7.303
  388POPC   NC3 8975  43.798   5.632   9.501
  388POPC   PO4 8976  44.206   6.059   9.510
  388POPC   GL1 8977  43.911   5.989   9.154
  388POPC   GL2 8978  43.660   6.199   9.069
  388POPC   C1A 8979  43.822   5.760   8.752
  388POPC   D2A 8980  44.091   5.845   8.363
  388POPC   C3A 8981  44.080   5.622   7.962
  388POPC   C4A 8982  43.727   5.611   7.747
  388POPC   C1B 8983  43.922   6.254   8.707
  388POPC   C2B 8984  43.783   6.251   8.308
  388POPC   C3B 8985  43.915   6.125   7.913
  388POPC   C4B 8986  44.128   5.997   7.550
  389POPC   NC3 8987  37.514   0.794   9.441
  389POPC   PO4 8988  38.068   0.401   9.426
  389POPC   GL1 8989  37.663   0.325   9.239
  389POPC   GL2 8990  37.582  44.950   9.264
  389POPC   C1A 8991  37.461   0.483   8.845
  389POPC   D2A 8992  37.579   0.536   8.412
  389POPC   C3A 8993  37.761   0.590   8.004
  389POPC   C4A 8994  37.405   0.627   7.767
  389POPC   C1B 8995  37.715   0.034   8.834
  389POPC   C2B 8996  37.662  44.976   8.441
  389POPC   C3B 8997  37.559   0.139   8.069
  389POPC   C4B 8998  37.764   0.149   7.701
  390POPC   NC3 8999  35.295   5.825   9.644
  390POPC   PO4 9000  35.730   6.340   9.538
  390POPC   GL1 9001  35.366   6.137   9.229
  390POPC   GL2 9002  35.295   5.769   9.148
  390POPC   C1A 9003  35.157   6.076   8.791
  390POPC   D2A 9004  35.131   5.760   8.461
  390POPC   C3A 9005  35.205   5.835   8.046
  390POPC   C4A 9006  35.107   6.047   7.678
  390POPC   C1B 9007  35.482   5.576   8.772
  390POPC   C2B 9008  35.502   5.399   8.345
  390POPC   C3B 9009  35.590   5.520   7.904
  390POPC   C4B 9010  35.619   5.332   7.516
  391POPC   NC3 9011  34.650  34.869   9.615
  391POPC   PO4 9012  34.196  34.429   9.608
  391POPC   GL1 9013  34.400  34.419   9.175
  391POPC   GL2 9014  34.756  34.555   9.172
  391POPC   C1A 9015  34.518  34.368   8.732
  391POPC   D2A 9016  34.725  34.605   8.425
  391POPC   C3A 9017  34.459  34.705   8.112
  391POPC   C4A 9018  34.518  34.591   7.722
  391POPC   C1B 9019  34.648  34.890   8.859
  391POPC   C2B 9020  34.857  35.089   8.480
  391POPC   C3B 9021  34.884  34.989   8.042
  391POPC   C4B 9022  34.953  34.859   7.608
  392POPC   NC3 9023  41.348   7.941   9.634
  392POPC   PO4 9024  41.511   7.277   9.606
  392POPC   GL1 9025  41.686   7.586   9.307
  392POPC   GL2 9026  41.381   7.717   9.181
  392POPC   C1A 9027  41.792   7.676   8.863
  392POPC   D2A 9028  41.920   7.491   8.481
  392POPC   C3A 9029  41.850   7.672   8.084
  392POPC   C4A 9030  41.740   7.503   7.703
  392POPC   C1B 9031  41.357   7.380   8.916
  392POPC   C2B 9032  41.424   7.342   8.471
  392POPC   C3B 9033  41.343   7.540   8.068
  392POPC   C4B 9034  41.238   7.363   7.660
  393POPC   NC3 9035  41.743  35.447   9.494
  393POPC   PO4 9036  41.126  35.294   9.667
  393POPC   GL1 9037  41.339  35.170   9.269
  393POPC   GL2 9038  41.667  34.985   9.316
  393POPC   C1A 9039  41.522  35.334   8.875
  393POPC   D2A 9040  41.411  35.370   8.438
  393POPC   C3A 9041  41.591  35.595   8.111
  393POPC   C4A 9042  41.454  35.366   7.755
  393POPC   C1B 9043  41.849  34.926   8.898
  393POPC   C2B 9044  41.838  35.103   8.481
  393POPC   C3B 9045  41.717  35.056   8.059
  393POPC   C4B 9046  41.896  35.161   7.646
  394POPC   NC3 9047   6.672  19.234   9.432
  394POPC   PO4 9048   6.465  18.649   9.764
  394POPC   GL1 9049   6.672  18.724   9.289
  394POPC   GL2 9050   7.005  18.892   9.230
  394POPC   C1A 9051   6.670  18.885   8.801
  394POPC   D2A 9052   6.414  19.049   8.408
  394POPC   C3A 9053   6.452  19.181   7.962
  394POPC   C4A 9054   6.658  19.117   7.553
  394POPC   C1B 9055   7.094  19.172   8.864
  394POPC   C2B 9056   6.881  19.273   8.462
  394POPC   C3B 9057   6.972  19.197   8.008
  394POPC   C4B 9058   7.110  19.373   7.623
  395POPC   NC3 9059  27.012  31.722   9.362
  395POPC   PO4 9060  26.895  31.061   9.362
  395POPC   GL1 9061  26.647  31.337   9.123
  395POPC   GL2 9062  26.953  31.417   8.940
  395POPC   C1A 9063  26.557  31.676   8.796
  395POPC   D2A 9064  26.703  31.756   8.373
  395POPC   C3A 9065  26.677  31.398   8.124
  395POPC   C4A 9066  26.817  31.279   7.726
  395POPC   C1B 9067  27.096  31.818   8.732
  395POPC   C2B 9068  27.168  31.976   8.336
  395POPC   C3B 9069  27.046  31.776   7.945
  395POPC   C4B 9070  26.677  31.763   7.758
  396POPC   NC3 9071  33.359  31.085   9.471
  396POPC   PO4 9072  33.111  31.752   9.363
  396POPC   GL1 9073  33.064  31.629   9.000
  396POPC   GL2 9074  33.187  31.321   9.065
  396POPC   C1A 9075  32.802  31.640   8.654
  396POPC   D2A 9076  32.855  31.388   8.262
  396POPC   C3A 9077  32.838  31.609   7.899
  396POPC   C4A 9078  32.915  31.657   7.454
  396POPC   C1B 9079  32.962  31.167   8.750
  396POPC   C2B 9080  33.052  30.941   8.413
  396POPC   C3B 9081  33.157  31.038   7.987
  396POPC   C4B 9082  32.873  31.148   7.682
  397POPC   NC3 9083   0.911   1.140   9.351
  397POPC   PO4 9084   0.249   0.968   9.504
  397POPC   GL1 9085   0.292   1.059   9.083
  397POPC   GL2 9086   0.518   1.251   9.098
  397POPC   C1A 9087   0.482   1.012   8.647
  397POPC   D2A 9088   0.305   1.271   8.336
  397POPC   C3A 9089   0.322   1.191   7.907
  397POPC   C4A 9090   0.572   0.989   7.618
  397POPC   C1B 9091   0.575   1.494   8.779
  397POPC   C2B 9092   0.743   1.577   8.413
  397POPC   C3B 9093   0.725   1.461   8.020
  397POPC   C4B 9094   0.581   1.535   7.614
  398POPC   NC3 9095  21.311  31.265   9.398
  398POPC   PO4 9096  21.086  31.959   9.350
  398POPC   GL1 9097  21.082  31.672   8.974
  398POPC   GL2 9098  21.160  31.307   8.936
  398POPC   C1A 9099  21.248  31.579   8.534
  398POPC   D2A 9100  21.590  31.608   8.245
  398POPC   C3A 9101  21.474  31.607   7.801
  398POPC   C4A 9102  21.529  31.477   7.353
  398POPC   C1B 9103  21.387  31.077   8.702
  398POPC   C2B 9104  21.458  31.132   8.334
  398POPC   C3B 9105  21.619  31.146   8.000
  398POPC   C4B 9106  21.396  31.104   7.657
  399POPC   NC3 9107  34.079  26.185   9.509
  399POPC   PO4 9108  33.482  26.076   9.639
  399POPC   GL1 9109  33.697  25.954   9.260
  399POPC   GL2 9110  33.589  25.660   9.231
  399POPC   C1A 9111  33.818  26.113   8.847
  399POPC   D2A 9112  33.906  25.975   8.428
  399POPC   C3A 9113  33.926  26.287   8.116
  399POPC   C4A 9114  33.963  26.166   7.721
  399POPC   C1B 9115  33.508  25.705   8.809
  399POPC   C2B 9116  33.400  25.889   8.424
  399POPC   C3B 9117  33.544  25.952   8.017
  399POPC   C4B 9118  33.599  25.808   7.606
  400POPC   NC3 9119  31.992  30.806   9.445
  400POPC   PO4 9120  32.397  30.365   9.737
  400POPC   GL1 9121  32.365  30.462   9.262
  400POPC   GL2 9122  32.376  30.801   9.113
  400POPC   C1A 9123  32.268  30.415   8.785
  400POPC   D2A 9124  32.170  30.586   8.355
  400POPC   C3A 9125  32.344  30.350   8.042
  400POPC   C4A 9126  32.570  30.371   7.662
  400POPC   C1B 9127  32.117  30.899   8.746
  400POPC   C2B 9128  32.061  31.136   8.377
  400POPC   C3B 9129  31.979  30.968   8.031
  400POPC   C4B 9130  32.161  30.702   7.737
  401POPC   NC3 9131   1.688  27.559   9.549
  401POPC   PO4 9132   2.298  27.226   9.653
  401POPC   GL1 9133   2.228  27.290   9.211
  401POPC   GL2 9134   2.065  27.608   9.214
  401POPC   C1A 9135   1.995  27.322   8.812
  401POPC   D2A 9136   1.670  27.533   8.539
  401POPC   C3A 9137   1.746  27.503   8.093
  401POPC   C4A 9138   2.122  27.340   7.857
  401POPC   C1B 9139   2.014  27.824   8.806
  401POPC   C2B 9140   2.162  27.643   8.398
  401POPC   C3B 9141   2.123  27.833   7.993
  401POPC   C4B 9142   2.339  27.782   7.634
  402POPC   NC3 9143   7.408   7.744   9.292
  402POPC   PO4 9144   7.287   7.049   9.505
  402POPC   GL1 9145   7.424   7.246   9.161
  402POPC   GL2 9146   7.781   7.229   9.168
  402POPC   C1A 9147   7.262   7.414   8.770
  402POPC   D2A 9148   7.178   7.730   8.479
  402POPC   C3A 9149   7.497   7.838   8.191
  402POPC   C4A 9150   7.351   7.836   7.771
  402POPC   C1B 9151   7.764   7.381   8.747
  402POPC   C2B 9152   7.564   7.329   8.366
  402POPC   C3B 9153   7.234   7.410   8.070
  402POPC   C4B 9154   7.493   7.347   7.739
  403POPC   NC3 9155  12.338  15.913   9.825
  403POPC   PO4 9156  11.830  16.140   9.708
  403POPC   GL1 9157  11.941  16.031   9.252
  403POPC   GL2 9158  12.297  16.031   9.155
  403POPC   C1A 9159  11.962  16.072   8.760
  403POPC   D2A 9160  12.194  15.964   8.346
  403POPC   C3A 9161  12.018  15.830   7.916
  403POPC   C4A 9162  12.144  15.656   7.485
  403POPC   C1B 9163  12.440  16.325   8.784
  403POPC   C2B 9164  12.491  16.374   8.327
  403POPC   C3B 9165  12.177  16.358   7.952
  403POPC   C4B 9166  11.988  16.613   7.589
  404POPC   NC3 9167  25.630   5.426   9.291
  404POPC   PO4 9168  25.232   5.106   9.752
  404POPC   GL1 9169  25.254   4.924   9.286
  404POPC   GL2 9170  25.247   5.206   9.049
  404POPC   C1A 9171  25.278   4.787   8.798
  404POPC   D2A 9172  25.111   4.886   8.357
  404POPC   C3A 9173  25.350   4.927   7.964
  404POPC   C4A 9174  25.398   5.186   7.598
  404POPC   C1B 9175  25.475   5.312   8.667
  404POPC   C2B 9176  25.815   5.382   8.358
  404POPC   C3B 9177  25.605   5.519   7.996
  404POPC   C4B 9178  25.592   5.676   7.577
  405POPC   NC3 9179   1.676  19.929   9.247
  405POPC   PO4 9180   2.023  19.477   9.658
  405POPC   GL1 9181   2.165  19.714   9.226
  405POPC   GL2 9182   2.465  19.566   9.142
  405POPC   C1A 9183   2.107  19.833   8.754
  405POPC   D2A 9184   1.861  20.118   8.443
  405POPC   C3A 9185   1.753  19.933   8.022
  405POPC   C4A 9186   1.925  19.878   7.598
  405POPC   C1B 9187   2.464  19.459   8.711
  405POPC   C2B 9188   2.288  19.597   8.278
  405POPC   C3B 9189   2.319  19.550   7.798
  405POPC   C4B 9190   2.205  19.574   7.318
  406POPC   NC3 9191   9.177  23.851   9.455
  406POPC   PO4 9192   8.514  23.602   9.330
  406POPC   GL1 9193   8.851  23.515   9.085
  406POPC   GL2 9194   9.166  23.458   9.147
  406POPC   C1A 9195   8.991  23.720   8.747
  406POPC   D2A 9196   8.871  24.009   8.463
  406POPC   C3A 9197   9.073  24.161   8.120
  406POPC   C4A 9198   8.929  24.186   7.713
  406POPC   C1B 9199   9.391  23.409   8.770
  406POPC   C2B 9200   9.305  23.270   8.374
  406POPC   C3B 9201   9.318  23.433   8.010
  406POPC   C4B 9202   9.186  23.769   7.823
  407POPC   NC3 9203  32.312  27.778   9.452
  407POPC   PO4 9204  31.725  27.782   9.575
  407POPC   GL1 9205  31.896  27.815   9.129
  407POPC   GL2 9206  32.134  27.503   9.061
  407POPC   C1A 9207  31.972  27.793   8.671
  407POPC   D2A 9208  32.120  27.353   8.489
  407POPC   C3A 9209  32.304  27.335   8.080
  407POPC   C4A 9210  32.173  27.168   7.675
  407POPC   C1B 9211  32.449  27.666   8.753
  407POPC   C2B 9212  32.573  27.772   8.318
  407POPC   C3B 9213  32.467  27.764   7.866
  407POPC   C4B 9214  32.424  27.553   7.464
  408POPC   NC3 9215  20.068  19.620   9.593
  408POPC   PO4 9216  19.753  20.250   9.553
  408POPC   GL1 9217  19.862  20.023   9.155
  408POPC   GL2 9218  19.722  19.698   9.159
  408POPC   C1A 9219  19.787  20.058   8.707
  408POPC   D2A 9220  19.769  20.203   8.282
  408POPC   C3A 9221  19.677  19.894   7.966
  408POPC   C4A 9222  19.441  19.768   7.588
  408POPC   C1B 9223  19.862  19.571   8.756
  408POPC   C2B 9224  19.770  19.508   8.328
  408POPC   C3B 9225  19.476  19.419   8.011
  408POPC   C4B 9226  19.835  19.446   7.727
  409POPC   NC3 9227   2.813  43.244   9.679
  409POPC   PO4 9228   3.136  42.807   9.298
  409POPC   GL1 9229   2.976  43.200   9.199
  409POPC   GL2 9230   2.610  43.273   9.207
  409POPC   C1A 9231   3.014  43.284   8.787
  409POPC   D2A 9232   2.731  43.063   8.492
  409POPC   C3A 9233   2.872  43.178   8.101
  409POPC   C4A 9234   2.802  43.069   7.692
  409POPC   C1B 9235   2.535  43.440   8.799
  409POPC   C2B 9236   2.520  43.546   8.355
  409POPC   C3B 9237   2.394  43.313   7.989
  409POPC   C4B 9238   2.422  43.368   7.554
  410POPC   NC3 9239  34.271  17.477   9.487
  410POPC   PO4 9240  33.615  17.680   9.422
  410POPC   GL1 9241  33.884  17.550   9.159
  410POPC   GL2 9242  34.077  17.868   9.196
  410POPC   C1A 9243  33.824  17.341   8.768
  410POPC   D2A 9244  33.739  17.174   8.390
  410POPC   C3A 9245  33.910  17.299   7.997
  410POPC   C4A 9246  33.767  17.356   7.569
  410POPC   C1B 9247  33.896  17.839   8.762
  410POPC   C2B 9248  34.053  17.647   8.384
  410POPC   C3B 9249  33.907  17.821   8.021
  410POPC   C4B 9250  33.788  17.866   7.633
  411POPC   NC3 9251  39.553   9.568   9.543
  411POPC   PO4 9252  39.397   8.938   9.458
  411POPC   GL1 9253  39.121   9.228   9.247
  411POPC   GL2 9254  39.408   9.316   9.113
  411POPC   C1A 9255  38.911   9.313   8.828
  411POPC   D2A 9256  38.836   9.118   8.404
  411POPC   C3A 9257  39.057   9.101   8.005
  411POPC   C4A 9258  39.165   8.696   7.849
  411POPC   C1B 9259  39.353   9.051   8.786
  411POPC   C2B 9260  39.390   9.191   8.400
  411POPC   C3B 9261  39.552   8.969   8.092
  411POPC   C4B 9262  39.611   9.164   7.753
  412POPC   NC3 9263  20.702  18.658   9.434
  412POPC   PO4 9264  20.248  18.997   9.829
  412POPC   GL1 9265  20.322  19.060   9.335
  412POPC   GL2 9266  20.650  19.220   9.195
  412POPC   C1A 9267  20.354  19.048   8.839
  412POPC   D2A 9268  20.351  19.291   8.402
  412POPC   C3A 9269  20.493  19.040   8.029
  412POPC   C4A 9270  20.884  18.882   7.880
  412POPC   C1B 9271  20.752  19.383   8.743
  412POPC   C2B 9272  20.875  19.346   8.275
  412POPC   C3B 9273  20.732  19.437   7.834
  412POPC   C4B 9274  20.762  19.301   7.395
  413POPC   NC3 9275  40.496  34.871   9.796
  413POPC   PO4 9276  40.791  34.395   9.728
  413POPC   GL1 9277  40.657  34.499   9.268
  413POPC   GL2 9278  40.955  34.390   9.157
  413POPC   C1A 9279  40.567  34.395   8.800
  413POPC   D2A 9280  40.565  34.760   8.431
  413POPC   C3A 9281  40.728  34.645   8.020
  413POPC   C4A 9282  40.640  34.223   7.840
  413POPC   C1B 9283  40.948  34.709   8.816
  413POPC   C2B 9284  40.981  34.446   8.439
  413POPC   C3B 9285  41.202  34.276   8.084
  413POPC   C4B 9286  41.101  34.424   7.717
  414POPC   NC3 9287  22.769  43.553   9.405
  414POPC   PO4 9288  22.681  44.282   9.472
  414POPC   GL1 9289  22.732  44.034   9.128
  414POPC   GL2 9290  23.057  44.000   9.133
  414POPC   C1A 9291  22.776  44.163   8.703
  414POPC   D2A 9292  22.533  44.143   8.344
  414POPC   C3A 9293  22.764  44.102   7.979
  414POPC   C4A 9294  22.879  43.829   7.600
  414POPC   C1B 9295  23.252  43.996   8.734
  414POPC   C2B 9296  23.173  44.127   8.316
  414POPC   C3B 9297  23.259  43.985   7.897
  414POPC   C4B 9298  23.317  44.015   7.427
  415POPC   NC3 9299  12.302  27.630   9.396
  415POPC   PO4 9300  11.763  27.445   9.532
  415POPC   GL1 9301  11.945  27.418   9.100
  415POPC   GL2 9302  12.149  27.145   9.175
  415POPC   C1A 9303  12.284  27.543   8.736
  415POPC   D2A 9304  12.430  27.576   8.275
  415POPC   C3A 9305  12.108  27.788   8.009
  415POPC   C4A 9306  11.706  27.731   7.762
  415POPC   C1B 9307  12.031  27.117   8.710
  415POPC   C2B 9308  12.043  27.210   8.252
  415POPC   C3B 9309  12.103  27.315   7.811
  415POPC   C4B 9310  12.330  27.262   7.428
  416POPC   NC3 9311  27.636   4.794   9.637
  416POPC   PO4 9312  27.691   5.434   9.478
  416POPC   GL1 9313  27.521   5.088   9.242
  416POPC   GL2 9314  27.812   4.952   9.179
  416POPC   C1A 9315  27.402   4.977   8.847
  416POPC   D2A 9316  27.314   5.312   8.566
  416POPC   C3A 9317  27.412   5.266   8.130
  416POPC   C4A 9318  27.274   5.426   7.752
  416POPC   C1B 9319  27.863   5.236   8.828
  416POPC   C2B 9320  27.899   5.177   8.377
  416POPC   C3B 9321  27.830   5.001   7.949
  416POPC   C4B 9322  28.065   4.659   7.751
  417POPC   NC3 9323  43.722  22.644   9.506
  417POPC   PO4 9324  44.190  23.055   9.609
  417POPC   GL1 9325  43.938  22.999   9.200
  417POPC   GL2 9326  43.774  22.707   9.002
  417POPC   C1A 9327  43.716  23.208   8.859
  417POPC   D2A 9328  43.971  23.216   8.495
  417POPC   C3A 9329  43.875  23.303   8.104
  417POPC   C4A 9330  43.692  23.128   7.783
  417POPC   C1B 9331  43.692  22.785   8.551
  417POPC   C2B 9332  43.742  22.711   8.082
  417POPC   C3B 9333  43.962  22.701   7.666
  417POPC   C4B 9334  44.180  22.720   7.245
  418POPC   NC3 9335  23.974  17.522   9.566
  418POPC   PO4 9336  23.329  17.578   9.318
  418POPC   GL1 9337  23.695  17.441   9.108
  418POPC   GL2 9338  23.916  17.727   9.107
  418POPC   C1A 9339  23.742  17.300   8.688
  418POPC   D2A 9340  23.591  17.443   8.290
  418POPC   C3A 9341  23.537  17.151   7.935
  418POPC   C4A 9342  23.820  16.996   7.634
  418POPC   C1B 9343  23.787  17.832   8.700
  418POPC   C2B 9344  23.998  17.850   8.319
  418POPC   C3B 9345  23.868  17.710   7.946
  418POPC   C4B 9346  23.717  17.506   7.626
  419POPC   NC3 9347  18.654  38.804   9.345
  419POPC   PO4 9348  19.231  38.336   9.455
  419POPC   GL1 9349  18.950  38.380   9.148
  419POPC   GL2 9350  19.078  38.671   9.050
  419POPC   C1A 9351  18.917  38.205   8.753
  419POPC   D2A 9352  19.083  38.461   8.445
  419POPC   C3A 9353  18.879  38.563   8.063
  419POPC   C4A 9354  19.029  38.373   7.703
  419POPC   C1B 9355  19.389  38.796   8.736
  419POPC   C2B 9356  19.574  38.730   8.323
  419POPC   C3B 9357  19.501  38.961   7.923
  419POPC   C4B 9358  19.286  38.891   7.519
  420POPC   NC3 9359   0.647  34.714   9.364
  420POPC   PO4 9360   0.165  35.083   9.621
  420POPC   GL1 9361   0.141  34.860   9.158
  420POPC   GL2 9362   0.392  34.853   8.893
  420POPC   C1A 9363  44.939  34.742   8.731
  420POPC   D2A 9364   0.020  34.438   8.380
  420POPC   C3A 9365   0.250  34.542   7.973
  420POPC   C4A 9366   0.637  34.779   7.815
  420POPC   C1B 9367   0.414  34.461   8.720
  420POPC   C2B 9368   0.709  34.406   8.399
  420POPC   C3B 9369   0.736  34.309   7.955
  420POPC   C4B 9370   0.530  34.039   7.721
  421POPC   NC3 9371   6.767  11.975   9.564
  421POPC   PO4 9372   7.488  12.010   9.568
  421POPC   GL1 9373   7.345  12.028   9.149
  421POPC   GL2 9374   7.048  11.818   9.131
  421POPC   C1A 9375   7.571  11.924   8.772
  421POPC   D2A 9376   7.715  11.999   8.370
  421POPC   C3A 9377   7.540  12.048   7.943
  421POPC   C4A 9378   7.319  12.000   7.524
  421POPC   C1B 9379   7.113  11.715   8.688
  421POPC   C2B 9380   7.204  11.818   8.257
  421POPC   C3B 9381   7.275  11.615   7.855
  421POPC   C4B 9382   7.272  11.531   7.369
  422POPC   NC3 9383  22.170  44.168   9.577
  422POPC   PO4 9384  22.212  43.478   9.620
  422POPC   GL1 9385  22.318  43.742   9.221
  422POPC   GL2 9386  22.044  43.906   9.040
  422POPC   C1A 9387  22.423  43.805   8.749
  422POPC   D2A 9388  22.073  43.959   8.469
  422POPC   C3A 9389  22.117  44.083   8.013
  422POPC   C4A 9390  22.399  44.010   7.633
  422POPC   C1B 9391  22.013  43.501   8.735
  422POPC   C2B 9392  22.137  43.285   8.374
  422POPC   C3B 9393  22.286  43.581   8.087
  422POPC   C4B 9394  22.035  43.660   7.742
  423POPC   NC3 9395  26.514   7.462   9.277
  423POPC   PO4 9396  26.042   7.245   9.707
  423POPC   GL1 9397  26.025   7.267   9.247
  423POPC   GL2 9398  26.080   7.623   9.136
  423POPC   C1A 9399  26.066   7.132   8.823
  423POPC   D2A 9400  25.845   7.167   8.431
  423POPC   C3A 9401  26.058   7.126   8.043
  423POPC   C4A 9402  26.001   7.324   7.669
  423POPC   C1B 9403  26.248   7.599   8.694
  423POPC   C2B 9404  26.164   7.561   8.275
  423POPC   C3B 9405  26.382   7.672   7.901
  423POPC   C4B 9406  26.424   7.564   7.482
  424POPC   NC3 9407  34.379  21.277   9.834
  424POPC   PO4 9408  34.841  21.666   9.495
  424POPC   GL1 9409  34.495  21.541   9.189
  424POPC   GL2 9410  34.259  21.286   9.324
  424POPC   C1A 9411  34.486  21.411   8.735
  424POPC   D2A 9412  34.574  21.206   8.333
  424POPC   C3A 9413  34.612  21.463   7.958
  424POPC   C4A 9414  34.293  21.655   7.715
  424POPC   C1B 9415  34.096  21.124   8.951
  424POPC   C2B 9416  34.119  21.064   8.525
  424POPC   C3B 9417  34.177  20.904   8.111
  424POPC   C4B 9418  34.344  21.097   7.753
  425POPC   NC3 9419  21.891  30.420   9.395
  425POPC   PO4 9420  22.438  30.862   9.485
  425POPC   GL1 9421  22.120  30.873   9.178
  425POPC   GL2 9422  21.832  31.086   9.239
  425POPC   C1A 9423  22.153  30.672   8.775
  425POPC   D2A 9424  22.404  30.728   8.396
  425POPC   C3A 9425  22.405  30.444   8.034
  425POPC   C4A 9426  22.306  30.608   7.592
  425POPC   C1B 9427  21.887  31.130   8.787
  425POPC   C2B 9428  21.899  30.895   8.392
  425POPC   C3B 9429  22.104  30.918   8.007
  425POPC   C4B 9430  21.882  30.925   7.640
  426POPC   NC3 9431  33.899   9.304   9.528
  426POPC   PO4 9432  33.506   9.870   9.560
  426POPC   GL1 9433  33.734   9.818   9.168
  426POPC   GL2 9434  33.650   9.487   9.108
  426POPC   C1A 9435  33.728   9.811   8.688
  426POPC   D2A 9436  33.447   9.869   8.290
  426POPC   C3A 9437  33.672   9.926   7.900
  426POPC   C4A 9438  34.115   9.848   7.918
  426POPC   C1B 9439  33.703   9.262   8.712
  426POPC   C2B 9440  33.524   9.212   8.309
  426POPC   C3B 9441  33.731   9.421   7.978
  426POPC   C4B 9442  33.905   9.249   7.638
  427POPC   NC3 9443  39.259  31.776   9.509
  427POPC   PO4 9444  39.054  31.185   9.565
  427POPC   GL1 9445  39.083  31.404   9.144
  427POPC   GL2 9446  39.376  31.586   9.065
  427POPC   C1A 9447  39.190  31.344   8.670
  427POPC   D2A 9448  39.430  31.166   8.320
  427POPC   C3A 9449  39.220  31.294   7.923
  427POPC   C4A 9450  38.894  31.584   7.755
  427POPC   C1B 9451  39.388  31.836   8.688
  427POPC   C2B 9452  39.202  31.929   8.282
  427POPC   C3B 9453  39.363  31.781   7.921
  427POPC   C4B 9454  39.433  31.662   7.526
  428POPC   NC3 9455   0.489  23.498   9.852
  428POPC   PO4 9456   0.253  23.900   9.308
  428POPC   GL1 9457   0.472  23.668   9.043
  428POPC   GL2 9458   0.694  23.421   9.228
  428POPC   C1A 9459   0.492  23.767   8.644
  428POPC   D2A 9460   0.239  23.708   8.331
  428POPC   C3A 9461   0.271  24.025   7.987
  428POPC   C4A 9462   0.166  23.887   7.544
  428POPC   C1B 9463   0.947  23.698   8.908
  428POPC   C2B 9464   0.964  23.870   8.501
  428POPC   C3B 9465   0.709  23.809   8.147
  428POPC   C4B 9466   0.625  23.750   7.705
  429POPC   NC3 9467   4.030   8.872   9.824
  429POPC   PO4 9468   3.814   9.400   9.580
  429POPC   GL1 9469   3.868   9.283   9.130
  429POPC   GL2 9470   3.538   9.175   9.013
  429POPC   C1A 9471   3.921   9.118   8.687
  429POPC   D2A 9472   4.140   9.175   8.309
  429POPC   C3A 9473   3.895   9.050   7.931
  429POPC   C4A 9474   3.571   8.939   7.593
  429POPC   C1B 9475   3.403   9.157   8.567
  429POPC   C2B 9476   3.408   9.014   8.125
  429POPC   C3B 9477   3.100   8.888   7.821
  429POPC   C4B 9478   3.081   8.728   7.390
  430POPC   NC3 9479  32.226  32.440   9.550
  430POPC   PO4 9480  32.443  31.869   9.355
  430POPC   GL1 9481  32.362  32.226   9.085
  430POPC   GL2 9482  32.548  32.536   9.107
  430POPC   C1A 9483  32.185  32.399   8.726
  430POPC   D2A 9484  32.021  32.242   8.344
  430POPC   C3A 9485  32.243  32.023   8.030
  430POPC   C4A 9486  32.143  32.063   7.591
  430POPC   C1B 9487  32.528  32.778   8.698
  430POPC   C2B 9488  32.396  32.614   8.282
  430POPC   C3B 9489  32.230  32.507   7.858
  430POPC   C4B 9490  32.369  32.466   7.403
  431POPC   NC3 9491  20.936  27.004   9.748
  431POPC   PO4 9492  20.486  26.528   9.598
  431POPC   GL1 9493  20.765  26.700   9.214
  431POPC   GL2 9494  20.923  27.056   9.227
  431POPC   C1A 9495  20.769  26.696   8.722
  431POPC   D2A 9496  20.554  26.726   8.311
  431POPC   C3A 9497  20.763  26.655   7.898
  431POPC   C4A 9498  20.924  26.600   7.498
  431POPC   C1B 9499  20.569  27.125   8.924
  431POPC   C2B 9500  20.619  27.243   8.478
  431POPC   C3B 9501  20.506  27.159   8.054
  431POPC   C4B 9502  20.767  27.138   7.701
  432POPC   NC3 9503  15.467  39.674   9.452
  432POPC   PO4 9504  14.897  40.100   9.332
  432POPC   GL1 9505  15.175  39.897   9.027
  432POPC   GL2 9506  15.497  39.938   9.018
  432POPC   C1A 9507  15.228  39.859   8.561
  432POPC   D2A 9508  14.960  40.173   8.377
  432POPC   C3A 9509  14.739  40.131   8.008
  432POPC   C4A 9510  14.914  40.000   7.637
  432POPC   C1B 9511  15.697  39.682   8.703
  432POPC   C2B 9512  15.585  39.525   8.292
  432POPC   C3B 9513  15.450  39.797   7.979
  432POPC   C4B 9514  15.517  39.828   7.538
  433POPC   NC3 9515  31.740  43.224   9.538
  433POPC   PO4 9516  31.170  43.075   9.806
  433POPC   GL1 9517  31.303  43.033   9.312
  433POPC   GL2 9518  31.568  43.238   9.053
  433POPC   C1A 9519  31.191  42.990   8.829
  433POPC   D2A 9520  31.522  43.015   8.494
  433POPC   C3A 9521  31.499  42.940   8.019
  433POPC   C4A 9522  31.342  43.151   7.640
  433POPC   C1B 9523  31.945  43.203   8.727
  433POPC   C2B 9524  31.959  43.093   8.244
  433POPC   C3B 9525  31.823  43.333   7.874
  433POPC   C4B 9526  31.796  43.413   7.424
  434POPC   NC3 9527  37.067  14.729   9.438
  434POPC   PO4 9528  36.902  14.159   9.672
  434POPC   GL1 9529  36.903  14.195   9.249
  434POPC   GL2 9530  36.711  14.499   9.134
  434POPC   C1A 9531  36.905  14.130   8.825
  434POPC   D2A 9532  36.684  14.268   8.486
  434POPC   C3A 9533  36.766  14.015   8.135
  434POPC   C4A 9534  36.906  14.222   7.794
  434POPC   C1B 9535  36.931  14.633   8.764
  434POPC   C2B 9536  36.939  14.788   8.369
  434POPC   C3B 9537  36.813  14.681   7.981
  434POPC   C4B 9538  37.059  14.727   7.577
  435POPC   NC3 9539  31.683  15.498   9.585
  435POPC   PO4 9540  31.236  14.980   9.430
  435POPC   GL1 9541  31.493  14.983   9.103
  435POPC   GL2 9542  31.721  15.141   9.221
  435POPC   C1A 9543  31.401  15.057   8.666
  435POPC   D2A 9544  31.133  15.088   8.333
  435POPC   C3A 9545  31.380  15.197   8.057
  435POPC   C4A 9546  31.383  15.385   7.678
  435POPC   C1B 9547  31.884  14.954   8.781
  435POPC   C2B 9548  31.837  15.017   8.324
  435POPC   C3B 9549  31.813  15.014   7.870
  435POPC   C4B 9550  31.920  15.323   7.551
  436POPC   NC3 9551  41.353  15.890   9.744
  436POPC   PO4 9552  40.732  15.879   9.478
  436POPC   GL1 9553  40.723  15.940   9.020
  436POPC   GL2 9554  40.614  16.308   8.985
  436POPC   C1A 9555  41.019  15.888   8.643
  436POPC   D2A 9556  41.338  15.828   8.287
  436POPC   C3A 9557  41.131  15.841   7.904
  436POPC   C4A 9558  41.052  15.989   7.470
  436POPC   C1B 9559  40.601  16.166   8.535
  436POPC   C2B 9560  40.570  15.742   8.294
  436POPC   C3B 9561  40.636  15.783   7.853
  436POPC   C4B 9562  40.755  16.227   7.797
  437POPC   NC3 9563  13.648  38.385   9.563
  437POPC   PO4 9564  13.253  37.757   9.523
  437POPC   GL1 9565  13.450  38.071   9.219
  437POPC   GL2 9566  13.787  38.176   9.094
  437POPC   C1A 9567  13.342  38.056   8.796
  437POPC   D2A 9568  13.549  38.158   8.409
  437POPC   C3A 9569  13.324  38.297   8.067
  437POPC   C4A 9570  13.474  38.407   7.653
  437POPC   C1B 9571  13.637  38.512   8.806
  437POPC   C2B 9572  13.785  38.654   8.405
  437POPC   C3B 9573  13.889  38.497   7.984
  437POPC   C4B 9574  13.881  38.698   7.554
  438POPC   NC3 9575  23.922  25.241   9.677
  438POPC   PO4 9576  23.332  25.024   9.365
  438POPC   GL1 9577  23.540  25.380   9.228
  438POPC   GL2 9578  23.916  25.420   9.201
  438POPC   C1A 9579  23.569  25.421   8.808
  438POPC   D2A 9580  23.533  25.093   8.549
  438POPC   C3A 9581  23.535  25.272   8.169
  438POPC   C4A 9582  23.445  25.469   7.822
  438POPC   C1B 9583  24.063  25.332   8.770
  438POPC   C2B 9584  24.015  25.091   8.385
  438POPC   C3B 9585  23.784  24.832   8.114
  438POPC   C4B 9586  23.905  25.171   7.818
  439POPC   NC3 9587  42.237  29.737   9.483
  439POPC   PO4 9588  41.554  29.907   9.472
  439POPC   GL1 9589  41.438  30.036   9.080
  439POPC   GL2 9590  41.118  30.007   9.076
  439POPC   C1A 9591  41.655  30.149   8.715
  439POPC   D2A 9592  41.853  29.989   8.353
  439POPC   C3A 9593  41.628  29.772   8.033
  439POPC   C4A 9594  41.570  29.770   7.599
  439POPC   C1B 9595  41.167  29.785   8.718
  439POPC   C2B 9596  41.312  29.989   8.381
  439POPC   C3B 9597  41.129  30.030   8.016
  439POPC   C4B 9598  41.172  30.065   7.630
  440POPC   NC3 9599  35.841  40.574   9.376
  440POPC   PO4 9600  35.526  41.089   9.635
  440POPC   GL1 9601  35.434  40.939   9.190
  440POPC   GL2 9602  35.689  40.894   9.013
  440POPC   C1A 9603  35.286  40.741   8.737
  440POPC   D2A 9604  35.311  40.851   8.321
  440POPC   C3A 9605  35.202  40.625   7.960
  440POPC   C4A 9606  34.892  40.606   7.609
  440POPC   C1B 9607  35.647  41.101   8.661
  440POPC   C2B 9608  35.754  41.060   8.259
  440POPC   C3B 9609  35.516  41.037   7.865
  440POPC   C4B 9610  35.495  41.132   7.394
  441POPC   NC3 9611  14.132  11.313   9.530
  441POPC   PO4 9612  14.684  11.449   9.314
  441POPC   GL1 9613  14.324  11.397   9.058
  441POPC   GL2 9614  14.088  11.099   9.057
  441POPC   C1A 9615  14.478  11.367   8.647
  441POPC   D2A 9616  14.762  11.279   8.339
  441POPC   C3A 9617  14.559  11.440   8.018
  441POPC   C4A 9618  14.304  11.392   7.674
  441POPC   C1B 9619  13.970  11.284   8.678
  441POPC   C2B 9620  14.042  11.258   8.250
  441POPC   C3B 9621  14.279  11.019   8.048
  441POPC   C4B 9622  14.280  10.881   7.651
  442POPC   NC3 9623  12.455  24.671   9.424
  442POPC   PO4 9624  11.877  24.389   9.374
  442POPC   GL1 9625  12.186  24.365   9.085
  442POPC   GL2 9626  12.220  24.713   8.975
  442POPC   C1A 9627  12.147  24.347   8.658
  442POPC   D2A 9628  12.156  24.613   8.341
  442POPC   C3A 9629  12.021  24.362   8.036
  442POPC   C4A 9630  12.128  24.268   7.667
  442POPC   C1B 9631  11.794  24.676   8.767
  442POPC   C2B 9632  11.647  24.557   8.348
  442POPC   C3B 9633  11.697  24.785   7.955
  442POPC   C4B 9634  11.388  25.084   7.789
  443POPC   NC3 9635  44.421  15.192   9.719
  443POPC   PO4 9636  44.931  15.595   9.463
  443POPC   GL1 9637  44.805  15.265   9.136
  443POPC   GL2 9638  44.498  15.036   9.200
  443POPC   C1A 9639  44.750  15.161   8.692
  443POPC   D2A 9640  44.840  14.937   8.285
  443POPC   C3A 9641  44.973  15.140   7.918
  443POPC   C4A 9642  44.775  15.457   7.740
  443POPC   C1B 9643  44.334  15.366   8.949
  443POPC   C2B 9644  44.362  15.486   8.542
  443POPC   C3B 9645  44.542  15.361   8.169
  443POPC   C4B 9646  44.473  15.037   7.833
  444POPC   NC3 9647  33.996  30.694   9.467
  444POPC   PO4 9648  33.353  30.546   9.506
  444POPC   GL1 9649  33.627  30.449   9.187
  444POPC   GL2 9650  33.695  30.787   9.062
  444POPC   C1A 9651  33.820  30.341   8.816
  444POPC   D2A 9652  33.759  30.601   8.449
  444POPC   C3A 9653  33.983  30.801   8.109
  444POPC   C4A 9654  34.006  30.483   7.802
  444POPC   C1B 9655  33.476  31.041   8.744
  444POPC   C2B 9656  33.541  31.051   8.315
  444POPC   C3B 9657  33.702  31.195   7.932
  444POPC   C4B 9658  33.837  30.967   7.584
  445POPC   NC3 9659  17.090  39.484   9.573
  445POPC   PO4 9660  17.725  39.323   9.603
  445POPC   GL1 9661  17.578  39.390   9.176
  445POPC   GL2 9662  17.508  39.755   9.149
  445POPC   C1A 9663  17.652  39.488   8.704
  445POPC   D2A 9664  17.567  39.507   8.240
  445POPC   C3A 9665  17.353  39.130   8.037
  445POPC   C4A 9666  17.654  38.817   7.862
  445POPC   C1B 9667  17.171  39.573   8.878
  445POPC   C2B 9668  17.086  39.389   8.474
  445POPC   C3B 9669  17.103  39.597   8.068
  445POPC   C4B 9670  17.075  39.440   7.683
  446POPC   NC3 9671  30.966  43.436   9.601
  446POPC   PO4 9672  30.555  42.868   9.530
  446POPC   GL1 9673  30.614  43.235   9.176
  446POPC   GL2 9674  30.962  43.346   9.119
  446POPC   C1A 9675  30.723  43.280   8.687
  446POPC   D2A 9676  30.646  42.965   8.375
  446POPC   C3A 9677  30.582  43.087   7.953
  446POPC   C4A 9678  30.867  42.967   7.682
  446POPC   C1B 9679  31.186  43.494   8.782
  446POPC   C2B 9680  31.171  43.373   8.370
  446POPC   C3B 9681  31.023  43.353   7.985
  446POPC   C4B 9682  30.922  43.529   7.592
  447POPC   NC3 9683   8.351  26.029   9.458
  447POPC   PO4 9684   8.664  25.531   9.195
  447POPC   GL1 9685   8.231  25.668   9.037
  447POPC   GL2 9686   8.112  26.033   9.020
  447POPC   C1A 9687   8.059  25.779   8.602
  447POPC   D2A 9688   8.330  25.852   8.254
  447POPC   C3A 9689   8.111  25.996   7.912
  447POPC   C4A 9690   8.031  25.755   7.559
  447POPC   C1B 9691   7.873  26.275   8.716
  447POPC   C2B 9692   7.693  26.386   8.321
  447POPC   C3B 9693   7.836  26.427   7.892
  447POPC   C4B 9694   7.928  26.239   7.463
  448POPC   NC3 9695   7.796   6.011   9.212
  448POPC   PO4 9696   8.449   6.008   9.337
  448POPC   GL1 9697   8.229   5.786   9.006
  448POPC   GL2 9698   7.978   5.919   8.749
  448POPC   C1A 9699   8.293   5.545   8.646
  448POPC   D2A 9700   8.440   5.716   8.288
  448POPC   C3A 9701   8.141   5.850   8.034
  448POPC   C4A 9702   8.024   5.526   7.752
  448POPC   C1B 9703   8.416   6.095   8.636
  448POPC   C2B 9704   8.593   6.239   8.240
  448POPC   C3B 9705   8.518   6.200   7.773
  448POPC   C4B 9706   8.186   5.966   7.527
  449POPC   NC3 9707   5.281  27.461   9.546
  449POPC   PO4 9708   5.125  28.085   9.519
  449POPC   GL1 9709   5.232  27.814   9.132
  449POPC   GL2 9710   5.075  27.453   9.086
  449POPC   C1A 9711   5.015  27.727   8.686
  449POPC   D2A 9712   5.096  27.492   8.277
  449POPC   C3A 9713   5.173  27.723   7.874
  449POPC   C4A 9714   5.103  28.144   7.676
  449POPC   C1B 9715   4.888  27.216   8.719
  449POPC   C2B 9716   4.657  27.224   8.320
  449POPC   C3B 9717   4.737  27.438   7.905
  449POPC   C4B 9718   4.793  27.410   7.417
  450POPC   NC3 9719  31.234  30.526   9.507
  450POPC   PO4 9720  31.593  31.117   9.518
  450POPC   GL1 9721  31.321  30.914   9.179
  450POPC   GL2 9722  31.576  30.674   9.135
  450POPC   C1A 9723  31.265  30.741   8.732
  450POPC   D2A 9724  31.109  30.971   8.377
  450POPC   C3A 9725  31.289  30.852   7.983
  450POPC   C4A 9726  31.142  30.438   7.831
  450POPC   C1B 9727  31.740  30.531   8.746
  450POPC   C2B 9728  31.657  30.680   8.322
  450POPC   C3B 9729  31.701  30.534   7.888
  450POPC   C4B 9730  31.799  30.530   7.395
  451POPC   NC3 9731  26.539  26.463   9.522
  451POPC   PO4 9732  26.796  27.156   9.591
  451POPC   GL1 9733  26.972  26.995   9.211
  451POPC   GL2 9734  26.850  26.668   9.165
  451POPC   C1A 9735  26.871  26.996   8.749
  451POPC   D2A 9736  26.607  26.967   8.350
  451POPC   C3A 9737  26.864  26.989   7.960
  451POPC   C4A 9738  26.976  27.077   7.504
  451POPC   C1B 9739  26.770  26.498   8.769
  451POPC   C2B 9740  26.894  26.543   8.347
  451POPC   C3B 9741  26.604  26.535   8.014
  451POPC   C4B 9742  26.778  26.581   7.641
  452POPC   NC3 9743  22.698  17.111   9.585
  452POPC   PO4 9744  23.103  16.614   9.458
  452POPC   GL1 9745  22.842  16.565   9.115
  452POPC   GL2 9746  22.725  16.853   9.122
  452POPC   C1A 9747  22.659  16.544   8.718
  452POPC   D2A 9748  22.900  16.636   8.363
  452POPC   C3A 9749  22.761  16.684   7.974
  452POPC   C4A 9750  23.000  16.490   7.679
  452POPC   C1B 9751  22.911  16.995   8.718
  452POPC   C2B 9752  22.986  17.218   8.316
  452POPC   C3B 9753  23.029  17.140   7.917
  452POPC   C4B 9754  22.906  16.969   7.541
  453POPC   NC3 9755  38.829  30.786   9.578
  453POPC   PO4 9756  38.208  30.816   9.451
  453POPC   GL1 9757  38.487  30.672   9.115
  453POPC   GL2 9758  38.733  30.421   9.169
  453POPC   C1A 9759  38.474  30.627   8.670
  453POPC   D2A 9760  38.458  30.960   8.386
  453POPC   C3A 9761  38.270  30.932   7.986
  453POPC   C4A 9762  38.357  30.753   7.590
  453POPC   C1B 9763  38.980  30.469   8.790
  453POPC   C2B 9764  38.904  30.526   8.370
  453POPC   C3B 9765  38.569  30.508   8.090
  453POPC   C4B 9766  38.641  30.359   7.679
  454POPC   NC3 9767  39.168  44.301   9.426
  454POPC   PO4 9768  39.217  43.634   9.431
  454POPC   GL1 9769  39.152  43.934   9.067
  454POPC   GL2 9770  39.394  44.264   8.988
  454POPC   C1A 9771  39.176  43.949   8.625
  454POPC   D2A 9772  39.268  44.104   8.253
  454POPC   C3A 9773  38.985  43.898   8.000
  454POPC   C4A 9774  38.869  43.487   7.941
  454POPC   C1B 9775  39.616  43.897   8.863
  454POPC   C2B 9776  39.707  43.816   8.448
  454POPC   C3B 9777  39.631  43.847   8.005
  454POPC   C4B 9778  39.353  43.735   7.698
  455POPC   NC3 9779  34.745  16.397   9.351
  455POPC   PO4 9780  34.344  16.999   9.484
  455POPC   GL1 9781  34.460  16.785   9.147
  455POPC   GL2 9782  34.775  16.861   9.124
  455POPC   C1A 9783  34.310  16.550   8.783
  455POPC   D2A 9784  34.485  16.386   8.410
  455POPC   C3A 9785  34.365  16.537   7.993
  455POPC   C4A 9786  34.321  16.965   7.831
  455POPC   C1B 9787  34.715  16.896   8.701
  455POPC   C2B 9788  34.910  16.773   8.353
  455POPC   C3B 9789  34.808  16.825   7.950
  455POPC   C4B 9790  34.805  16.469   7.717
  456POPC   NC3 9791   4.294   2.257   9.472
  456POPC   PO4 9792   4.436   1.647   9.576
  456POPC   GL1 9793   4.493   1.894   9.144
  456POPC   GL2 9794   4.176   2.116   9.001
  456POPC   C1A 9795   4.532   1.998   8.668
  456POPC   D2A 9796   4.164   2.118   8.413
  456POPC   C3A 9797   4.250   2.011   8.029
  456POPC   C4A 9798   4.581   1.835   7.760
  456POPC   C1B 9799   4.335   2.462   8.723
  456POPC   C2B 9800   4.571   2.479   8.351
  456POPC   C3B 9801   4.678   2.566   7.942
  456POPC   C4B 9802   4.438   2.324   7.684
  457POPC   NC3 9803  21.680  36.269   9.388
  457POPC   PO4 9804  21.135  35.832   9.569
  457POPC   GL1 9805  21.255  36.085   9.181
  457POPC   GL2 9806  21.567  36.022   8.965
  457POPC   C1A 9807  21.196  36.319   8.791
  457POPC   D2A 9808  21.327  36.119   8.426
  457POPC   C3A 9809  21.139  36.196   8.035
  457POPC   C4A 9810  21.398  36.045   7.708
  457POPC   C1B 9811  21.734  36.374   8.761
  457POPC   C2B 9812  21.815  36.367   8.372
  457POPC   C3B 9813  21.634  36.390   7.996
  457POPC   C4B 9814  21.843  36.533   7.656
  458POPC   NC3 9815  18.630   2.102   9.572
  458POPC   PO4 9816  19.237   1.884   9.469
  458POPC   GL1 9817  19.175   2.256   9.209
  458POPC   GL2 9818  18.819   2.180   9.121
  458POPC   C1A 9819  19.064   2.468   8.812
  458POPC   D2A 9820  18.725   2.302   8.552
  458POPC   C3A 9821  18.832   2.286   8.120
  458POPC   C4A 9822  18.832   2.389   7.689
  458POPC   C1B 9823  19.023   1.950   8.788
  458POPC   C2B 9824  19.167   1.991   8.377
  458POPC   C3B 9825  19.082   1.830   7.973
  458POPC   C4B 9826  19.470   1.684   7.818
  459POPC   NC3 9827  33.137  21.596   9.534
  459POPC   PO4 9828  33.345  20.920   9.451
  459POPC   GL1 9829  33.065  21.186   9.197
  459POPC   GL2 9830  33.258  21.499   9.042
  459POPC   C1A 9831  32.806  21.272   8.836
  459POPC   D2A 9832  32.973  21.349   8.417
  459POPC   C3A 9833  32.800  21.215   8.023
  459POPC   C4A 9834  33.083  21.129   7.695
  459POPC   C1B 9835  33.452  21.732   8.662
  459POPC   C2B 9836  33.276  21.727   8.233
  459POPC   C3B 9837  33.343  21.541   7.796
  459POPC   C4B 9838  33.365  21.759   7.375
  460POPC   NC3 9839  39.839   1.638   9.585
  460POPC   PO4 9840  40.332   1.960   9.634
  460POPC   GL1 9841  40.172   1.800   9.224
  460POPC   GL2 9842  39.867   1.994   9.184
  460POPC   C1A 9843  40.055   1.728   8.779
  460POPC   D2A 9844  40.034   1.980   8.392
  460POPC   C3A 9845  40.220   1.939   7.982
  460POPC   C4A 9846  39.997   1.880   7.586
  460POPC   C1B 9847  39.711   2.138   8.766
  460POPC   C2B 9848  39.615   2.270   8.327
  460POPC   C3B 9849  39.813   2.259   7.917
  460POPC   C4B 9850  39.864   2.397   7.478
  461POPC   NC3 9851  15.970  40.548   9.569
  461POPC   PO4 9852  15.587  41.081   9.461
  461POPC   GL1 9853  15.724  40.751   9.155
  461POPC   GL2 9854  16.109  40.682   9.086
  461POPC   C1A 9855  15.736  40.694   8.718
  461POPC   D2A 9856  15.956  40.877   8.397
  461POPC   C3A 9857  15.823  40.743   8.019
  461POPC   C4A 9858  15.938  40.855   7.591
  461POPC   C1B 9859  16.229  40.526   8.664
  461POPC   C2B 9860  16.144  40.421   8.230
  461POPC   C3B 9861  16.164  40.455   7.763
  461POPC   C4B 9862  16.273  40.400   7.299
  462POPC   NC3 9863  32.146  40.366   9.522
  462POPC   PO4 9864  32.514  40.940   9.419
  462POPC   GL1 9865  32.220  40.837   9.119
  462POPC   GL2 9866  32.045  41.121   9.005
  462POPC   C1A 9867  32.388  40.843   8.710
  462POPC   D2A 9868  32.586  40.681   8.371
  462POPC   C3A 9869  32.414  40.714   7.968
  462POPC   C4A 9870  32.569  40.723   7.558
  462POPC   C1B 9871  32.081  41.228   8.592
  462POPC   C2B 9872  32.232  41.138   8.201
  462POPC   C3B 9873  32.254  41.160   7.763
  462POPC   C4B 9874  32.102  40.930   7.431
  463POPC   NC3 9875   0.615  43.668   9.382
  463POPC   PO4 9876   0.123  44.078   9.372
  463POPC   GL1 9877   0.414  44.003   9.039
  463POPC   GL2 9878   0.797  44.065   9.116
  463POPC   C1A 9879   0.318  43.697   8.736
  463POPC   D2A 9880   0.138  43.624   8.331
  463POPC   C3A 9881   0.243  44.032   8.131
  463POPC   C4A 9882   0.463  44.196   7.786
  463POPC   C1B 9883   0.842  43.912   8.695
  463POPC   C2B 9884   0.636  43.765   8.333
  463POPC   C3B 9885   0.571  43.694   7.901
  463POPC   C4B 9886   0.803  43.879   7.549
  464POPC   NC3 9887  10.638   8.526   9.472
  464POPC   PO4 9888  10.961   9.156   9.576
  464POPC   GL1 9889  10.817   8.929   9.166
  464POPC   GL2 9890  10.465   8.836   9.133
  464POPC   C1A 9891  10.691   8.835   8.698
  464POPC   D2A 9892  10.735   8.953   8.281
  464POPC   C3A 9893  10.879   8.714   7.948
  464POPC   C4A 9894  10.895   9.013   7.674
  464POPC   C1B 9895  10.190   8.724   8.771
  464POPC   C2B 9896  10.201   8.842   8.331
  464POPC   C3B 9897  10.351   8.877   7.869
  464POPC   C4B 9898  10.143   8.785   7.403
  465POPC   NC3 9899  16.579   0.799   9.429
  465POPC   PO4 9900  16.904   1.269   9.835
  465POPC   GL1 9901  16.893   1.251   9.356
  465POPC   GL2 9902  16.572   1.246   9.206
  465POPC   C1A 9903  16.946   1.201   8.873
  465POPC   D2A 9904  17.098   1.295   8.463
  465POPC   C3A 9905  16.915   1.219   8.084
  465POPC   C4A 9906  16.657   1.470   7.844
  465POPC   C1B 9907  16.463   1.210   8.742
  465POPC   C2B 9908  16.444   1.263   8.265
  465POPC   C3B 9909  16.306   1.103   7.781
  465POPC   C4B 9910  16.348   0.897   7.302
  466POPC   NC3 9911  34.459   7.871  10.011
  466POPC   PO4 9912  34.563   8.291   9.510
  466POPC   GL1 9913  34.555   8.146   9.109
  466POPC   GL2 9914  34.243   8.295   9.065
  466POPC   C1A 9915  34.498   8.101   8.666
  466POPC   D2A 9916  34.473   7.951   8.265
  466POPC   C3A 9917  34.584   8.211   7.926
  466POPC   C4A 9918  34.612   7.950   7.566
  466POPC   C1B 9919  34.213   8.518   8.675
  466POPC   C2B 9920  34.186   8.356   8.257
  466POPC   C3B 9921  34.102   8.491   7.859
  466POPC   C4B 9922  34.281   8.374   7.480
  467POPC   NC3 9923  33.541  11.010   9.615
  467POPC   PO4 9924  34.013  10.520   9.565
  467POPC   GL1 9925  33.936  10.459   9.160
  467POPC   GL2 9926  33.692  10.740   9.194
  467POPC   C1A 9927  34.026  10.265   8.763
  467POPC   D2A 9928  33.929  10.175   8.333
  467POPC   C3A 9929  34.227  10.336   8.042
  467POPC   C4A 9930  33.953  10.315   7.705
  467POPC   C1B 9931  33.853  10.843   8.798
  467POPC   C2B 9932  34.057  10.687   8.441
  467POPC   C3B 9933  33.839  10.663   8.069
  467POPC   C4B 9934  33.953  10.848   7.704
  468POPC   NC3 9935  14.665  42.955   9.507
  468POPC   PO4 9936  14.088  43.321   9.615
  468POPC   GL1 9937  14.239  43.134   9.226
  468POPC   GL2 9938  14.511  43.346   9.146
  468POPC   C1A 9939  14.444  42.951   8.822
  468POPC   D2A 9940  14.680  43.007   8.431
  468POPC   C3A 9941  14.428  42.949   8.078
  468POPC   C4A 9942  14.204  43.221   7.793
  468POPC   C1B 9943  14.212  43.416   8.781
  468POPC   C2B 9944  14.337  43.381   8.348
  468POPC   C3B 9945  14.702  43.388   8.033
  468POPC   C4B 9946  14.683  43.344   7.589
  469POPC   NC3 9947  31.965  19.385   9.688
  469POPC   PO4 9948  32.467  18.968   9.515
  469POPC   GL1 9949  32.543  19.311   9.190
  469POPC   GL2 9950  32.523  19.049   8.936
  469POPC   C1A 9951  32.366  19.487   8.756
  469POPC   D2A 9952  32.257  19.402   8.306
  469POPC   C3A 9953  32.438  19.055   8.056
  469POPC   C4A 9954  32.476  18.662   7.798
  469POPC   C1B 9955  32.169  19.020   8.647
  469POPC   C2B 9956  31.959  18.974   8.248
  469POPC   C3B 9957  31.995  18.848   7.808
  469POPC   C4B 9958  31.818  18.773   7.377
  470POPC   NC3 9959  20.611   9.869   9.577
  470POPC   PO4 9960  20.658   9.157   9.599
  470POPC   GL1 9961  20.800   9.363   9.150
  470POPC   GL2 9962  20.799   9.743   9.091
  470POPC   C1A 9963  20.806   9.463   8.668
  470POPC   D2A 9964  20.885   9.685   8.268
  470POPC   C3A 9965  20.691   9.511   7.870
  470POPC   C4A 9966  20.540   9.638   7.426
  470POPC   C1B 9967  21.016   9.921   8.732
  470POPC   C2B 9968  20.740  10.167   8.440
  470POPC   C3B 9969  20.591  10.038   8.015
  470POPC   C4B 9970  20.715  10.097   7.608
  471POPC   NC3 9971   1.429  23.959   9.529
  471POPC   PO4 9972   0.932  23.496   9.723
  471POPC   GL1 9973   1.214  23.482   9.290
  471POPC   GL2 9974   1.412  23.743   9.093
  471POPC   C1A 9975   1.319  23.344   8.819
  471POPC   D2A 9976   1.321  23.533   8.390
  471POPC   C3A 9977   1.494  23.424   7.990
  471POPC   C4A 9978   1.298  23.434   7.590
  471POPC   C1B 9979   1.433  23.938   8.711
  471POPC   C2B 9980   1.626  23.949   8.311
  471POPC   C3B 9981   1.479  24.008   7.922
  471POPC   C4B 9982   1.114  23.831   7.841
  472POPC   NC3 9983  38.964  34.128   9.519
  472POPC   PO4 9984  39.017  33.427   9.658
  472POPC   GL1 9985  38.905  33.655   9.278
  472POPC   GL2 9986  39.263  33.757   9.251
  472POPC   C1A 9987  38.864  33.882   8.866
  472POPC   D2A 9988  39.107  33.956   8.470
  472POPC   C3A 9989  38.945  34.067   8.050
  472POPC   C4A 9990  39.147  33.927   7.682
  472POPC   C1B 9991  39.588  33.466   9.033
  472POPC   C2B 9992  39.617  33.439   8.567
  472POPC   C3B 9993  39.533  33.582   8.148
  472POPC   C4B 9994  39.638  33.551   7.716
  473POPC   NC3 9995   3.822  38.268   9.585
  473POPC   PO4 9996   3.208  38.688   9.499
  473POPC   GL1 9997   3.507  38.471   9.228
  473POPC   GL2 9998   3.834  38.654   9.182
  473POPC   C1A 9999   3.325  38.356   8.847
  473POPC   D2A10000   3.204  38.513   8.438
  473POPC   C3A10001   3.328  38.246   8.086
  473POPC   C4A10002   3.634  38.336   7.761
  473POPC   C1B10003   4.017  38.542   8.772
  473POPC   C2B10004   3.915  38.457   8.338
  473POPC   C3B10005   3.982  38.674   7.928
  473POPC   C4B10006   3.929  38.662   7.459
  474POPC   NC310007  26.932   2.122   9.437
  474POPC   PO410008  27.016   1.497   9.534
  474POPC   GL110009  26.817   1.761   9.080
  474POPC   GL210010  26.659   2.113   9.034
  474POPC   C1A10011  26.521   1.738   8.692
  474POPC   D2A10012  26.595   1.575   8.243
  474POPC   C3A10013  26.558   1.807   7.853
  474POPC   C4A10014  26.826   1.992   7.498
  474POPC   C1B10015  26.883   2.118   8.701
  474POPC   C2B10016  26.743   2.049   8.318
  474POPC   C3B10017  26.907   2.171   7.958
  474POPC   C4B10018  26.552   2.328   7.750
  475POPC   NC310019  30.983  20.245   9.626
  475POPC   PO410020  30.576  19.597   9.650
  475POPC   GL110021  30.647  19.730   9.189
  475POPC   GL210022  30.949  19.967   9.160
  475POPC   C1A10023  30.721  19.831   8.724
  475POPC   D2A10024  30.726  20.063   8.304
  475POPC   C3A10025  30.584  19.875   7.898
  475POPC   C4A10026  30.759  19.917   7.468
  475POPC   C1B10027  31.216  19.912   8.809
  475POPC   C2B10028  31.164  19.814   8.357
  475POPC   C3B10029  31.106  19.867   7.876
  475POPC   C4B10030  31.263  19.922   7.414
  476POPC   NC310031  26.123   4.074   9.439
  476POPC   PO410032  25.754   3.523   9.382
  476POPC   GL110033  26.084   3.633   9.131
  476POPC   GL210034  25.863   3.935   9.027
  476POPC   C1A10035  26.249   3.352   8.792
  476POPC   D2A10036  26.067   3.098   8.467
  476POPC   C3A10037  26.215   3.255   8.062
  476POPC   C4A10038  26.113   3.600   7.847
  476POPC   C1B10039  26.133   3.852   8.675
  476POPC   C2B10040  25.964   3.629   8.334
  476POPC   C3B10041  25.746   3.897   8.020
  476POPC   C4B10042  25.816   3.872   7.556
  477POPC   NC310043  44.461  31.619   9.505
  477POPC   PO410044  44.972  32.022   9.588
  477POPC   GL110045  44.948  31.804   9.146
  477POPC   GL210046  44.785  31.463   9.170
  477POPC   C1A10047  44.645  31.718   8.776
  477POPC   D2A10048  44.449  31.541   8.450
  477POPC   C3A10049  44.609  31.662   8.081
  477POPC   C4A10050  44.713  31.426   7.718
  477POPC   C1B10051  44.567  31.191   8.855
  477POPC   C2B10052  44.322  31.054   8.493
  477POPC   C3B10053  44.455  31.143   8.078
  477POPC   C4B10054  44.281  31.148   7.698
  478POPC   NC310055  39.817  32.376   9.388
  478POPC   PO410056  40.386  32.107   9.585
  478POPC   GL110057  40.122  32.101   9.131
  478POPC   GL210058  40.172  32.405   9.003
  478POPC   C1A10059  39.893  32.025   8.726
  478POPC   D2A10060  39.630  32.211   8.396
  478POPC   C3A10061  39.766  32.067   7.990
  478POPC   C4A10062  40.123  32.066   7.746
  478POPC   C1B10063  39.806  32.575   8.778
  478POPC   C2B10064  39.678  32.751   8.411
  478POPC   C3B10065  39.767  32.602   8.009
  478POPC   C4B10066  39.768  32.433   7.605
  479POPC   NC310067   6.833   7.163   9.587
  479POPC   PO410068   6.952   7.785   9.435
  479POPC   GL110069   6.870   7.437   9.116
  479POPC   GL210070   6.528   7.332   9.197
  479POPC   C1A10071   6.791   7.351   8.639
  479POPC   D2A10072   6.685   7.658   8.302
  479POPC   C3A10073   6.801   7.617   7.838
  479POPC   C4A10074   6.646   7.642   7.394
  479POPC   C1B10075   6.408   7.066   8.840
  479POPC   C2B10076   6.343   7.198   8.435
  479POPC   C3B10077   6.359   7.367   8.065
  479POPC   C4B10078   6.402   7.274   7.659
  480POPC   NC310079  25.817   9.868   9.567
  480POPC   PO410080  26.351   9.419   9.612
  480POPC   GL110081  26.171   9.652   9.256
  480POPC   GL210082  25.922   9.859   9.066
  480POPC   C1A10083  26.287   9.579   8.830
  480POPC   D2A10084  26.254   9.483   8.406
  480POPC   C3A10085  26.065   9.799   8.164
  480POPC   C4A10086  25.944   9.820   7.762
  480POPC   C1B10087  25.799   9.776   8.622
  480POPC   C2B10088  25.536   9.814   8.227
  480POPC   C3B10089  25.464  10.041   7.836
  480POPC   C4B10090  25.363  10.166   7.384
  481POPC   NC310091  12.953  15.400   9.543
  481POPC   PO410092  12.465  15.078   9.280
  481POPC   GL110093  12.897  15.112   9.113
  481POPC   GL210094  13.058  15.451   9.031
  481POPC   C1A10095  13.022  15.047   8.699
  481POPC   D2A10096  12.810  15.197   8.294
  481POPC   C3A10097  12.679  14.959   7.900
  481POPC   C4A10098  12.815  14.996   7.457
  481POPC   C1B10099  13.113  15.544   8.576
  481POPC   C2B10100  13.258  15.403   8.164
  481POPC   C3B10101  13.024  15.310   7.810
  481POPC   C4B10102  12.651  15.486   7.606
  482POPC   NC310103  30.890   8.401   9.524
  482POPC   PO410104  30.224   8.318   9.307
  482POPC   GL110105  30.544   8.256   9.065
  482POPC   GL210106  30.744   8.010   9.189
  482POPC   C1A10107  30.632   8.415   8.675
  482POPC   D2A10108  30.461   8.320   8.284
  482POPC   C3A10109  30.707   8.460   7.938
  482POPC   C4A10110  30.591   8.703   7.596
  482POPC   C1B10111  30.960   8.037   8.782
  482POPC   C2B10112  30.970   8.166   8.355
  482POPC   C3B10113  30.730   7.953   8.059
  482POPC   C4B10114  30.836   8.034   7.653
  483POPC   NC310115   0.756  42.883   9.348
  483POPC   PO410116   0.271  43.365   9.531
  483POPC   GL110117   0.247  43.197   9.084
  483POPC   GL210118   0.037  42.884   9.107
  483POPC   C1A10119   0.396  43.210   8.609
  483POPC   D2A10120   0.663  43.008   8.303
  483POPC   C3A10121   0.669  43.161   7.893
  483POPC   C4A10122   0.738  42.958   7.517
  483POPC   C1B10123  44.910  43.097   8.735
  483POPC   C2B10124   0.024  42.948   8.393
  483POPC   C3B10125   0.197  43.170   8.089
  483POPC   C4B10126   0.195  43.112   7.673
  484POPC   NC310127   7.612  35.022   9.439
  484POPC   PO410128   7.222  35.551   9.632
  484POPC   GL110129   7.310  35.577   9.168
  484POPC   GL210130   7.662  35.437   9.100
  484POPC   C1A10131   7.278  35.497   8.705
  484POPC   D2A10132   7.052  35.319   8.321
  484POPC   C3A10133   7.176  35.435   7.887
  484POPC   C4A10134   6.984  35.178   7.525
  484POPC   C1B10135   7.709  35.205   8.698
  484POPC   C2B10136   7.578  35.307   8.257
  484POPC   C3B10137   7.696  35.608   7.929
  484POPC   C4B10138   7.889  35.542   7.517
  485POPC   NC310139  25.057  42.537   9.518
  485POPC   PO410140  24.358  42.267   9.463
  485POPC   GL110141  24.427  42.424   9.080
  485POPC   GL210142  24.759  42.327   9.148
  485POPC   C1A10143  24.410  42.380   8.632
  485POPC   D2A10144  24.331  42.502   8.224
  485POPC   C3A10145  24.281  42.173   7.968
  485POPC   C4A10146  24.287  41.923   7.627
  485POPC   C1B10147  24.834  42.607   8.818
  485POPC   C2B10148  24.866  42.489   8.372
  485POPC   C3B10149  24.739  42.496   7.949
  485POPC   C4B10150  24.909  42.481   7.553
  486POPC   NC310151   0.035  29.073   9.719
  486POPC   PO410152  44.357  29.088   9.565
  486POPC   GL110153  44.555  29.133   9.176
  486POPC   GL210154  44.866  29.295   9.265
  486POPC   C1A10155  44.594  28.968   8.746
  486POPC   D2A10156  44.806  29.113   8.344
  486POPC   C3A10157  44.626  29.097   7.925
  486POPC   C4A10158  44.272  28.828   7.743
  486POPC   C1B10159   0.003  29.269   8.822
  486POPC   C2B10160   0.167  29.472   8.426
  486POPC   C3B10161  44.960  29.533   8.030
  486POPC   C4B10162  44.947  29.416   7.582
  487POPC   NC310163  17.106  26.922   9.566
  487POPC   PO410164  16.533  26.549   9.519
  487POPC   GL110165  16.718  26.774   9.239
  487POPC   GL210166  16.409  26.750   9.046
  487POPC   C1A10167  16.919  26.780   8.860
  487POPC   D2A10168  16.775  26.984   8.493
  487POPC   C3A10169  16.935  26.786   8.129
  487POPC   C4A10170  16.879  26.894   7.732
  487POPC   C1B10171  16.478  26.577   8.668
  487POPC   C2B10172  16.459  26.612   8.234
  487POPC   C3B10173  16.480  26.579   7.791
  487POPC   C4B10174  16.343  26.394   7.402
  488POPC   NC310175  31.219  22.774   9.765
  488POPC   PO410176  30.842  23.123   9.376
  488POPC   GL110177  30.766  23.063   9.017
  488POPC   GL210178  30.595  22.767   8.997
  488POPC   C1A10179  30.513  23.200   8.709
  488POPC   D2A10180  30.496  23.452   8.363
  488POPC   C3A10181  30.788  23.347   8.065
  488POPC   C4A10182  30.525  23.070   7.827
  488POPC   C1B10183  30.855  22.788   8.628
  488POPC   C2B10184  30.746  22.877   8.264
  488POPC   C3B10185  30.720  22.631   7.943
  488POPC   C4B10186  30.905  22.720   7.538
  489POPC   NC310187  21.978  21.387   9.715
  489POPC   PO410188  21.857  21.720   9.156
  489POPC   GL110189  22.158  21.375   9.174
  489POPC   GL210190  21.985  21.162   8.989
  489POPC   C1A10191  22.446  21.218   8.792
  489POPC   D2A10192  22.484  21.314   8.314
  489POPC   C3A10193  22.313  21.288   7.869
  489POPC   C4A10194  22.286  21.528   7.443
  489POPC   C1B10195  21.978  21.190   8.522
  489POPC   C2B10196  21.827  21.292   8.096
  489POPC   C3B10197  21.861  21.467   7.677
  489POPC   C4B10198  21.860  21.245   7.239
  490POPC   NC310199  33.686  18.539   9.500
  490POPC   PO410200  34.287  18.374   9.679
  490POPC   GL110201  34.074  18.417   9.186
  490POPC   GL210202  33.709  18.606   9.009
  490POPC   C1A10203  33.996  18.323   8.747
  490POPC   D2A10204  33.806  18.171   8.382
  490POPC   C3A10205  33.934  18.373   8.057
  490POPC   C4A10206  33.786  18.390   7.675
  490POPC   C1B10207  33.502  18.582   8.595
  490POPC   C2B10208  33.419  18.572   8.145
  490POPC   C3B10209  33.332  18.642   7.730
  490POPC   C4B10210  33.526  18.674   7.333
  491POPC   NC310211  34.973  28.985   9.749
  491POPC   PO410212  34.480  29.245   9.489
  491POPC   GL110213  34.436  29.066   9.101
  491POPC   GL210214  34.741  28.950   9.123
  491POPC   C1A10215  34.580  29.211   8.723
  491POPC   D2A10216  34.525  29.052   8.363
  491POPC   C3A10217  34.577  29.355   8.094
  491POPC   C4A10218  34.471  29.389   7.737
  491POPC   C1B10219  34.957  28.834   8.712
  491POPC   C2B10220  34.871  28.695   8.299
  491POPC   C3B10221  34.794  28.914   7.912
  491POPC   C4B10222  35.045  29.045   7.568
  492POPC   NC310223   9.965  43.932   9.520
  492POPC   PO410224  10.729  43.940   9.557
  492POPC   GL110225  10.627  43.959   9.121
  492POPC   GL210226  10.281  43.955   9.086
  492POPC   C1A10227  10.712  43.734   8.732
  492POPC   D2A10228  10.455  43.566   8.389
  492POPC   C3A10229  10.364  43.754   7.973
  492POPC   C4A10230  10.783  43.930   7.812
  492POPC   C1B10231  10.272  43.971   8.633
  492POPC   C2B10232  10.494  44.133   8.272
  492POPC   C3B10233  10.374  44.246   7.851
  492POPC   C4B10234  10.248  44.225   7.405
  493POPC   NC310235  38.434  17.133   9.422
  493POPC   PO410236  38.924  17.613   9.531
  493POPC   GL110237  38.646  17.725   9.175
  493POPC   GL210238  38.626  17.411   9.031
  493POPC   C1A10239  38.398  17.772   8.742
  493POPC   D2A10240  38.222  17.770   8.299
  493POPC   C3A10241  38.303  17.397   8.001
  493POPC   C4A10242  38.410  17.453   7.548
  493POPC   C1B10243  38.883  17.691   8.726
  493POPC   C2B10244  38.737  17.872   8.334
  493POPC   C3B10245  38.605  17.802   7.901
  493POPC   C4B10246  38.882  17.651   7.536
  494POPC   NC310247  33.212  25.601   9.592
  494POPC   PO410248  32.891  24.975   9.394
  494POPC   GL110249  32.932  25.114   8.994
  494POPC   GL210250  33.172  25.369   9.108
  494POPC   C1A10251  32.928  25.099   8.540
  494POPC   D2A10252  33.186  25.076   8.196
  494POPC   C3A10253  33.038  25.046   7.799
  494POPC   C4A10254  32.875  25.121   7.397
  494POPC   C1B10255  33.035  25.550   8.722
  494POPC   C2B10256  33.037  25.559   8.273
  494POPC   C3B10257  33.283  25.520   7.910
  494POPC   C4B10258  33.220  25.485   7.459
  495POPC   NC310259  35.750  27.831   9.203
  495POPC   PO410260  36.333  27.434   9.429
  495POPC   GL110261  36.221  27.596   9.102
  495POPC   GL210262  35.958  27.382   9.054
  495POPC   C1A10263  36.325  27.551   8.711
  495POPC   D2A10264  36.042  27.616   8.426
  495POPC   C3A10265  36.257  27.695   8.076
  495POPC   C4A10266  36.051  27.810   7.706
  495POPC   C1B10267  35.956  27.096   8.726
  495POPC   C2B10268  35.776  27.150   8.317
  495POPC   C3B10269  35.845  27.425   7.996
  495POPC   C4B10270  35.812  27.306   7.622
  496POPC   NC310271  36.688  27.712   9.527
  496POPC   PO410272  37.328  27.546   9.670
  496POPC   GL110273  37.179  27.777   9.303
  496POPC   GL210274  37.177  27.466   9.144
  496POPC   C1A10275  37.056  27.879   8.840
  496POPC   D2A10276  36.768  27.754   8.490
  496POPC   C3A10277  36.776  27.601   8.069
  496POPC   C4A10278  36.565  27.724   7.673
  496POPC   C1B10279  36.814  27.406   8.871
  496POPC   C2B10280  36.819  27.219   8.440
  496POPC   C3B10281  37.040  27.151   8.039
  496POPC   C4B10282  36.774  27.234   7.663
  497POPC   NC310283  27.368  37.214   9.705
  497POPC   PO410284  26.855  36.686   9.525
  497POPC   GL110285  26.872  36.900   9.146
  497POPC   GL210286  26.905  36.562   8.993
  497POPC   C1A10287  26.904  37.003   8.695
  497POPC   D2A10288  26.826  36.805   8.272
  497POPC   C3A10289  26.894  37.044   7.879
  497POPC   C4A10290  26.910  36.976   7.431
  497POPC   C1B10291  26.555  36.615   8.680
  497POPC   C2B10292  26.303  36.686   8.312
  497POPC   C3B10293  26.440  36.786   7.880
  497POPC   C4B10294  26.760  36.517   7.640
  498POPC   NC310295  37.416  10.193   9.444
  498POPC   PO410296  38.047  10.573   9.525
  498POPC   GL110297  37.730  10.583   9.177
  498POPC   GL210298  37.498  10.875   9.169
  498POPC   C1A10299  37.611  10.412   8.752
  498POPC   D2A10300  37.594  10.088   8.411
  498POPC   C3A10301  37.527  10.221   7.997
  498POPC   C4A10302  37.734  10.559   7.785
  498POPC   C1B10303  37.752  10.925   8.771
  498POPC   C2B10304  37.840  10.708   8.358
  498POPC   C3B10305  38.177  10.741   8.004
  498POPC   C4B10306  38.163  10.719   7.508
  499POPC   NC310307  12.352   8.043   9.463
  499POPC   PO410308  11.927   8.561   9.474
  499POPC   GL110309  12.018   8.382   9.105
  499POPC   GL210310  11.987   8.034   9.093
  499POPC   C1A10311  12.046   8.344   8.680
  499POPC   D2A10312  12.266   8.067   8.454
  499POPC   C3A10313  12.223   8.115   8.030
  499POPC   C4A10314  12.344   8.094   7.623
  499POPC   C1B10315  11.774   7.926   8.713
  499POPC   C2B10316  11.615   8.104   8.319
  499POPC   C3B10317  11.730   8.125   7.886
  499POPC   C4B10318  11.917   8.493   7.715
  500POPC   NC310319   4.505  37.824   9.853
  500POPC   PO410320   4.264  37.205   9.636
  500POPC   GL110321   4.435  37.513   9.320
  500POPC   GL210322   4.567  37.878   9.333
  500POPC   C1A10323   4.230  37.626   8.913
  500POPC   D2A10324   4.065  37.859   8.542
  500POPC   C3A10325   4.322  37.789   8.174
  500POPC   C4A10326   4.374  37.541   7.808
  500POPC   C1B10327   4.725  37.803   8.902
  500POPC   C2B10328   4.756  37.935   8.439
  500POPC   C3B10329   4.842  37.750   7.976
  500POPC   C4B10330   4.791  37.755   7.459
  501POPC   NC310331  28.847  23.786   9.374
  501POPC   PO410332  29.347  24.144   9.299
  501POPC   GL110333  29.224  23.781   9.065
  501POPC   GL210334  29.048  23.964   8.895
  501POPC   C1A10335  28.937  23.512   8.756
  501POPC   D2A10336  28.999  23.428   8.304
  501POPC   C3A10337  29.046  23.668   7.890
  501POPC   C4A10338  28.779  23.997   7.701
  501POPC   C1B10339  29.361  23.726   8.606
  501POPC   C2B10340  29.336  23.859   8.270
  501POPC   C3B10341  29.608  23.909   7.998
  501POPC   C4B10342  29.316  24.112   7.762
  502POPC   NC310343  31.200  23.366   9.574
  502POPC   PO410344  31.491  23.951   9.359
  502POPC   GL110345  31.369  23.623   9.072
  502POPC   GL210346  31.268  23.237   9.107
  502POPC   C1A10347  31.365  23.757   8.629
  502POPC   D2A10348  31.644  23.945   8.334
  502POPC   C3A10349  31.605  23.856   7.884
  502POPC   C4A10350  31.411  23.940   7.467
  502POPC   C1B10351  31.424  23.252   8.734
  502POPC   C2B10352  31.210  23.302   8.369
  502POPC   C3B10353  31.276  23.161   7.958
  502POPC   C4B10354  31.368  23.461   7.677
  503POPC   NC310355   3.360  22.031   9.544
  503POPC   PO410356   3.989  22.051   9.338
  503POPC   GL110357   3.657  22.294   9.175
  503POPC   GL210358   3.295  22.219   9.083
  503POPC   C1A10359   3.643  22.306   8.736
  503POPC   D2A10360   3.723  21.996   8.427
  503POPC   C3A10361   3.671  22.079   8.000
  503POPC   C4A10362   3.491  22.226   7.602
  503POPC   C1B10363   3.281  21.906   8.751
  503POPC   C2B10364   3.230  21.973   8.310
  503POPC   C3B10365   3.161  21.985   7.899
  503POPC   C4B10366   3.412  21.679   7.800
  504POPC   NC310367  43.795  23.359   9.546
  504POPC   PO410368  44.264  23.809   9.426
  504POPC   GL110369  44.041  23.552   9.133
  504POPC   GL210370  43.673  23.669   9.155
  504POPC   C1A10371  43.924  23.667   8.722
  504POPC   D2A10372  43.611  23.658   8.413
  504POPC   C3A10373  43.886  23.810   8.108
  504POPC   C4A10374  44.023  23.643   7.713
  504POPC   C1B10375  43.663  24.076   8.884
  504POPC   C2B10376  43.461  24.177   8.470
  504POPC   C3B10377  43.441  24.034   8.031
  504POPC   C4B10378  43.690  24.037   7.627
  505POPC   NC310379  11.981  35.756   9.626
  505POPC   PO410380  12.305  36.357   9.389
  505POPC   GL110381  12.292  36.290   8.933
  505POPC   GL210382  11.990  36.181   9.011
  505POPC   C1A10383  12.077  36.023   8.555
  505POPC   D2A10384  11.998  35.857   8.118
  505POPC   C3A10385  12.343  35.976   7.892
  505POPC   C4A10386  12.382  36.247   7.593
  505POPC   C1B10387  11.879  36.515   8.708
  505POPC   C2B10388  11.891  36.557   8.259
  505POPC   C3B10389  11.889  36.314   7.871
  505POPC   C4B10390  11.909  36.341   7.405
  506POPC   NC310391  24.744   0.048   9.576
  506POPC   PO410392  24.564  44.420   9.663
  506POPC   GL110393  24.373  44.716   9.380
  506POPC   GL210394  24.390  44.424   9.171
  506POPC   C1A10395  24.443  44.944   8.975
  506POPC   D2A10396  24.390  44.862   8.509
  506POPC   C3A10397  24.579  44.834   8.081
  506POPC   C4A10398  24.382  44.894   7.693
  506POPC   C1B10399  24.592  44.490   8.806
  506POPC   C2B10400  24.597  44.398   8.388
  506POPC   C3B10401  24.595  44.323   7.971
  506POPC   C4B10402  24.678  44.508   7.560
  507POPC   NC310403  13.707  13.160   9.303
  507POPC   PO410404  13.212  12.933   9.654
  507POPC   GL110405  13.323  12.733   9.213
  507POPC   GL210406  13.675  12.713   9.076
  507POPC   C1A10407  13.291  12.580   8.781
  507POPC   D2A10408  13.583  12.575   8.413
  507POPC   C3A10409  13.471  12.868   8.066
  507POPC   C4A10410  13.511  12.831   7.608
  507POPC   C1B10411  13.649  13.013   8.677
  507POPC   C2B10412  13.881  13.117   8.281
  507POPC   C3B10413  13.957  12.899   7.879
  507POPC   C4B10414  13.961  12.937   7.414
  508POPC   NC310415  15.453  37.419   9.530
  508POPC   PO410416  14.996  37.854   9.653
  508POPC   GL110417  15.362  37.807   9.243
  508POPC   GL210418  15.224  37.514   9.092
  508POPC   C1A10419  15.420  37.827   8.766
  508POPC   D2A10420  15.081  37.666   8.483
  508POPC   C3A10421  15.235  37.750   8.067
  508POPC   C4A10422  15.343  38.028   7.731
  508POPC   C1B10423  15.488  37.306   8.809
  508POPC   C2B10424  15.538  37.443   8.358
  508POPC   C3B10425  15.555  37.349   7.922
  508POPC   C4B10426  15.347  37.522   7.583
  509POPC   NC310427   6.944  25.058   9.495
  509POPC   PO410428   6.414  25.578   9.464
  509POPC   GL110429   6.516  25.481   9.057
  509POPC   GL210430   6.595  25.158   9.120
  509POPC   C1A10431   6.511  25.329   8.625
  509POPC   D2A10432   6.833  25.327   8.319
  509POPC   C3A10433   6.635  25.248   7.947
  509POPC   C4A10434   6.327  25.483   7.753
  509POPC   C1B10435   6.948  25.152   8.810
  509POPC   C2B10436   7.094  24.901   8.483
  509POPC   C3B10437   7.071  24.982   8.017
  509POPC   C4B10438   6.940  24.972   7.608
  510POPC   NC310439  15.097   4.719   9.788
  510POPC   PO410440  15.119   4.105   9.450
  510POPC   GL110441  15.046   4.159   9.025
  510POPC   GL210442  15.414   4.278   9.010
  510POPC   C1A10443  15.099   4.282   8.611
  510POPC   D2A10444  15.398   4.238   8.340
  510POPC   C3A10445  15.205   4.126   7.993
  510POPC   C4A10446  14.909   4.382   7.855
  510POPC   C1B10447  15.404   4.653   8.756
  510POPC   C2B10448  15.528   4.725   8.345
  510POPC   C3B10449  15.350   4.622   7.950
  510POPC   C4B10450  15.504   4.695   7.581
  511POPC   NC310451  23.686  19.595   9.437
  511POPC   PO410452  23.596  20.335   9.462
  511POPC   GL110453  23.638  20.160   9.076
  511POPC   GL210454  23.977  20.086   9.012
  511POPC   C1A10455  23.599  19.923   8.699
  511POPC   D2A10456  23.430  19.633   8.388
  511POPC   C3A10457  23.556  19.763   7.988
  511POPC   C4A10458  23.786  19.542   7.696
  511POPC   C1B10459  24.074  19.705   8.756
  511POPC   C2B10460  24.004  19.498   8.354
  511POPC   C3B10461  24.114  19.735   8.024
  511POPC   C4B10462  23.938  20.088   7.855
  512POPC   NC310463  13.556  21.078   9.558
  512POPC   PO410464  14.016  21.674   9.539
  512POPC   GL110465  13.790  21.412   9.241
  512POPC   GL210466  13.447  21.480   9.210
  512POPC   C1A10467  13.618  21.099   8.900
  512POPC   D2A10468  13.452  21.128   8.473
  512POPC   C3A10469  13.563  21.269   8.069
  512POPC   C4A10470  13.413  21.144   7.674
  512POPC   C1B10471  13.478  21.574   8.755
  512POPC   C2B10472  13.270  21.625   8.328
  512POPC   C3B10473  13.357  21.706   7.852
  512POPC   C4B10474  13.302  21.745   7.371
  513POPC   NC310475   2.309  21.502   9.707
  513POPC   PO410476   1.810  21.081   9.629
  513POPC   GL110477   1.832  21.199   9.188
  513POPC   GL210478   1.986  21.547   9.158
  513POPC   C1A10479   1.941  21.232   8.741
  513POPC   D2A10480   1.924  21.475   8.361
  513POPC   C3A10481   1.947  21.325   7.948
  513POPC   C4A10482   1.909  21.541   7.558
  513POPC   C1B10483   2.159  21.722   8.741
  513POPC   C2B10484   2.341  21.760   8.318
  513POPC   C3B10485   2.171  21.814   7.899
  513POPC   C4B10486   2.416  21.653   7.547
  514POPC   NC310487  38.134  37.858   9.491
  514POPC   PO410488  38.832  38.034   9.423
  514POPC   GL110489  38.534  37.786   9.148
  514POPC   GL210490  38.594  37.438   9.016
  514POPC   C1A10491  38.239  37.772   8.786
  514POPC   D2A10492  38.342  37.719   8.342
  514POPC   C3A10493  38.137  37.925   8.017
  514POPC   C4A10494  38.161  37.810   7.607
  514POPC   C1B10495  38.783  37.658   8.654
  514POPC   C2B10496  38.856  37.783   8.223
  514POPC   C3B10497  38.633  37.856   7.871
  514POPC   C4B10498  38.544  37.464   7.669
  515POPC   NC310499  40.299  18.032   9.501
  515POPC   PO410500  39.803  18.567   9.428
  515POPC   GL110501  39.977  18.416   9.092
  515POPC   GL210502  40.100  18.082   9.034
  515POPC   C1A10503  39.827  18.377   8.719
  515POPC   D2A10504  39.957  18.175   8.360
  515POPC   C3A10505  39.939  18.392   7.994
  515POPC   C4A10506  40.104  18.079   7.748
  515POPC   C1B10507  39.810  17.849   8.737
  515POPC   C2B10508  39.634  17.754   8.314
  515POPC   C3B10509  39.608  18.016   7.902
  515POPC   C4B10510  39.679  18.068   7.429
  516POPC   NC310511  42.357  16.335   9.382
  516POPC   PO410512  42.077  16.987   9.507
  516POPC   GL110513  42.286  16.856   9.175
  516POPC   GL210514  42.037  16.678   9.099
  516POPC   C1A10515  42.511  16.687   8.836
  516POPC   D2A10516  42.703  16.883   8.528
  516POPC   C3A10517  42.701  16.726   8.136
  516POPC   C4A10518  42.453  16.767   7.780
  516POPC   C1B10519  41.998  16.812   8.664
  516POPC   C2B10520  42.193  16.921   8.275
  516POPC   C3B10521  41.992  16.943   7.854
  516POPC   C4B10522  42.082  16.784   7.403
  517POPC   NC310523  43.015  33.292   9.651
  517POPC   PO410524  43.593  32.967   9.456
  517POPC   GL110525  43.449  33.222   9.108
  517POPC   GL210526  43.111  33.415   9.121
  517POPC   C1A10527  43.233  33.097   8.727
  517POPC   D2A10528  43.258  33.014   8.308
  517POPC   C3A10529  43.199  33.230   7.929
  517POPC   C4A10530  43.169  32.933   7.606
  517POPC   C1B10531  42.833  33.391   8.729
  517POPC   C2B10532  42.764  33.246   8.285
  517POPC   C3B10533  42.693  33.238   7.813
  517POPC   C4B10534  42.911  33.319   7.426
  518POPC   NC310535  28.111  35.690   9.888
  518POPC   PO410536  28.280  36.202   9.516
  518POPC   GL110537  28.446  36.054   9.166
  518POPC   GL210538  28.464  36.364   9.057
  518POPC   C1A10539  28.461  35.897   8.759
  518POPC   D2A10540  28.236  35.854   8.409
  518POPC   C3A10541  28.390  35.975   7.997
  518POPC   C4A10542  28.283  36.147   7.629
  518POPC   C1B10543  28.654  36.368   8.701
  518POPC   C2B10544  28.541  36.298   8.344
  518POPC   C3B10545  28.740  36.367   7.978
  518POPC   C4B10546  28.603  36.552   7.615
  519POPC   NC310547  23.249  38.704   9.568
  519POPC   PO410548  22.763  38.254   9.433
  519POPC   GL110549  22.884  38.378   9.037
  519POPC   GL210550  22.963  38.702   9.142
  519POPC   C1A10551  22.864  38.297   8.576
  519POPC   D2A10552  22.966  37.993   8.259
  519POPC   C3A10553  23.095  38.143   7.877
  519POPC   C4A10554  23.053  38.567   7.755
  519POPC   C1B10555  22.861  38.808   8.735
  519POPC   C2B10556  22.828  38.791   8.318
  519POPC   C3B10557  22.712  38.443   8.107
  519POPC   C4B10558  22.508  38.527   7.769
  520POPC   NC310559  35.095   4.833   9.258
  520POPC   PO410560  35.142   5.384   9.667
  520POPC   GL110561  34.984   5.354   9.231
  520POPC   GL210562  35.328   5.257   9.131
  520POPC   C1A10563  34.989   5.341   8.750
  520POPC   D2A10564  35.069   5.114   8.352
  520POPC   C3A10565  35.140   5.301   7.991
  520POPC   C4A10566  35.228   5.038   7.670
  520POPC   C1B10567  35.444   5.036   8.737
  520POPC   C2B10568  35.449   4.787   8.371
  520POPC   C3B10569  35.560   4.763   7.968
  520POPC   C4B10570  35.681   4.825   7.553
  521POPC   NC310571  17.736  40.231   9.533
  521POPC   PO410572  17.117  39.928   9.441
  521POPC   GL110573  17.308  40.244   9.139
  521POPC   GL210574  17.684  40.341   9.046
  521POPC   C1A10575  17.359  40.221   8.698
  521POPC   D2A10576  17.552  40.021   8.366
  521POPC   C3A10577  17.391  40.040   7.976
  521POPC   C4A10578  17.443  39.785   7.623
  521POPC   C1B10579  17.828  39.966   8.806
  521POPC   C2B10580  18.001  39.785   8.398
  521POPC   C3B10581  17.887  39.785   7.936
  521POPC   C4B10582  17.936  39.875   7.491
  522POPC   NC310583   0.742  29.205   9.463
  522POPC   PO410584   0.230  28.734   9.494
  522POPC   GL110585   0.342  29.042   9.178
  522POPC   GL210586   0.657  28.880   9.082
  522POPC   C1A10587   0.502  29.258   8.784
  522POPC   D2A10588   0.556  29.132   8.360
  522POPC   C3A10589   0.699  29.285   7.999
  522POPC   C4A10590   0.424  29.571   7.822
  522POPC   C1B10591   0.294  28.791   8.738
  522POPC   C2B10592   0.191  28.801   8.292
  522POPC   C3B10593   0.177  29.077   7.928
  522POPC   C4B10594   0.054  28.932   7.507
  523POPC   NC310595  41.010  17.326   9.358
  523POPC   PO410596  40.540  17.686   9.688
  523POPC   GL110597  40.690  17.757   9.243
  523POPC   GL210598  40.572  17.455   9.106
  523POPC   C1A10599  40.933  17.661   8.809
  523POPC   D2A10600  41.102  17.386   8.475
  523POPC   C3A10601  41.018  17.670   8.120
  523POPC   C4A10602  40.866  17.738   7.725
  523POPC   C1B10603  40.638  17.249   8.729
  523POPC   C2B10604  40.611  17.440   8.337
  523POPC   C3B10605  40.708  17.288   7.929
  523POPC   C4B10606  40.500  17.111   7.574
  524POPC   NC310607  12.314  23.392   9.750
  524POPC   PO410608  11.799  23.815   9.669
  524POPC   GL110609  11.921  23.862   9.210
  524POPC   GL210610  12.139  23.577   9.271
  524POPC   C1A10611  12.121  23.865   8.780
  524POPC   D2A10612  12.333  24.009   8.345
  524POPC   C3A10613  12.122  23.822   8.024
  524POPC   C4A10614  11.826  23.856   7.715
  524POPC   C1B10615  12.123  23.366   8.876
  524POPC   C2B10616  12.209  23.262   8.453
  524POPC   C3B10617  11.953  23.241   8.102
  524POPC   C4B10618  12.110  23.377   7.730
  525POPC   NC310619  23.383  13.353   9.498
  525POPC   PO410620  23.904  13.739   9.435
  525POPC   GL110621  23.971  13.580   9.041
  525POPC   GL210622  23.731  13.285   9.033
  525POPC   C1A10623  23.881  13.623   8.609
  525POPC   D2A10624  23.841  13.301   8.291
  525POPC   C3A10625  23.699  13.452   7.882
  525POPC   C4A10626  23.781  13.753   7.565
  525POPC   C1B10627  23.458  13.322   8.631
  525POPC   C2B10628  23.445  13.664   8.280
  525POPC   C3B10629  23.633  13.996   7.997
  525POPC   C4B10630  23.507  14.209   7.611
  526POPC   NC310631  17.826  33.439   9.313
  526POPC   PO410632  17.938  32.869   9.459
  526POPC   GL110633  17.700  32.982   9.081
  526POPC   GL210634  17.357  33.087   9.157
  526POPC   C1A10635  17.507  32.997   8.640
  526POPC   D2A10636  17.308  32.844   8.229
  526POPC   C3A10637  17.471  33.001   7.845
  526POPC   C4A10638  17.800  32.836   7.607
  526POPC   C1B10639  17.059  33.230   8.797
  526POPC   C2B10640  16.954  33.216   8.328
  526POPC   C3B10641  16.973  33.064   7.874
  526POPC   C4B10642  17.157  33.254   7.481
  527POPC   NC310643  35.836   0.732   9.482
  527POPC   PO410644  36.267   0.196   9.643
  527POPC   GL110645  36.171   0.401   9.235
  527POPC   GL210646  35.810   0.276   9.232
  527POPC   C1A10647  36.345   0.534   8.794
  527POPC   D2A10648  36.374   0.363   8.355
  527POPC   C3A10649  36.439   0.541   7.941
  527POPC   C4A10650  36.298   0.309   7.565
  527POPC   C1B10651  35.807   0.513   8.853
  527POPC   C2B10652  35.844   0.539   8.414
  527POPC   C3B10653  35.952   0.408   8.016
  527POPC   C4B10654  35.971   0.664   7.656
  528POPC   NC310655  25.554  43.947   9.441
  528POPC   PO410656  26.241  44.077   9.502
  528POPC   GL110657  26.043  43.869   9.186
  528POPC   GL210658  26.145  44.169   9.005
  528POPC   C1A10659  26.081  43.730   8.761
  528POPC   D2A10660  25.958  43.965   8.432
  528POPC   C3A10661  26.160  43.840   8.099
  528POPC   C4A10662  26.059  44.053   7.754
  528POPC   C1B10663  25.711  44.133   8.851
  528POPC   C2B10664  25.451  44.049   8.508
  528POPC   C3B10665  25.564  44.063   8.088
  528POPC   C4B10666  25.690  43.709   7.834
  529POPC   NC310667   5.904  31.904   9.676
  529POPC   PO410668   6.180  31.290   9.512
  529POPC   GL110669   6.035  31.444   9.087
  529POPC   GL210670   5.682  31.458   9.019
  529POPC   C1A10671   5.963  31.607   8.635
  529POPC   D2A10672   5.837  31.369   8.269
  529POPC   C3A10673   5.950  31.523   7.893
  529POPC   C4A10674   5.853  31.601   7.423
  529POPC   C1B10675   5.490  31.247   8.646
  529POPC   C2B10676   5.415  31.079   8.226
  529POPC   C3B10677   5.511  31.279   7.846
  529POPC   C4B10678   5.631  31.157   7.429
  530POPC   NC310679  25.517  21.810   9.525
  530POPC   PO410680  25.049  22.340   9.404
  530POPC   GL110681  25.256  22.031   9.133
  530POPC   GL210682  25.591  22.132   9.138
  530POPC   C1A10683  25.211  21.941   8.701
  530POPC   D2A10684  25.471  22.102   8.352
  530POPC   C3A10685  25.254  22.034   7.974
  530POPC   C4A10686  24.897  21.877   7.760
  530POPC   C1B10687  25.411  22.392   8.791
  530POPC   C2B10688  25.483  22.622   8.411
  530POPC   C3B10689  25.588  22.509   7.999
  530POPC   C4B10690  25.640  22.204   7.672
  531POPC   NC310691  18.035   2.548   9.387
  531POPC   PO410692  18.191   1.960   9.584
  531POPC   GL110693  18.286   2.055   9.154
  531POPC   GL210694  18.358   2.379   8.998
  531POPC   C1A10695  18.515   1.884   8.802
  531POPC   D2A10696  18.701   1.773   8.397
  531POPC   C3A10697  18.386   1.776   8.089
  531POPC   C4A10698  18.010   1.770   7.845
  531POPC   C1B10699  18.038   2.277   8.668
  531POPC   C2B10700  18.061   2.221   8.192
  531POPC   C3B10701  18.391   2.232   7.858
  531POPC   C4B10702  18.429   2.251   7.371
  532POPC   NC310703  33.430  26.526   9.735
  532POPC   PO410704  34.030  26.857   9.668
  532POPC   GL110705  33.720  26.851   9.318
  532POPC   GL210706  33.592  27.196   9.180
  532POPC   C1A10707  33.749  26.627   8.917
  532POPC   D2A10708  33.975  26.627   8.509
  532POPC   C3A10709  33.783  26.791   8.122
  532POPC   C4A10710  33.830  26.685   7.697
  532POPC   C1B10711  33.731  27.115   8.768
  532POPC   C2B10712  33.614  27.213   8.369
  532POPC   C3B10713  33.551  27.363   7.985
  532POPC   C4B10714  33.674  27.167   7.606
  533POPC   NC310715   8.860  19.654   9.635
  533POPC   PO410716   8.183  19.402   9.491
  533POPC   GL110717   8.026  19.301   9.069
  533POPC   GL210718   7.991  18.973   9.012
  533POPC   C1A10719   8.114  19.393   8.627
  533POPC   D2A10720   7.886  19.198   8.311
  533POPC   C3A10721   7.990  19.159   7.874
  533POPC   C4A10722   8.288  19.205   7.574
  533POPC   C1B10723   8.119  18.856   8.615
  533POPC   C2B10724   8.279  18.860   8.205
  533POPC   C3B10725   8.475  18.809   7.823
  533POPC   C4B10726   8.396  18.716   7.393
  534POPC   NC310727   4.634   0.562   9.420
  534POPC   PO410728   4.032   0.496   9.571
  534POPC   GL110729   3.981   0.408   9.154
  534POPC   GL210730   4.103   0.076   9.065
  534POPC   C1A10731   4.077   0.633   8.792
  534POPC   D2A10732   4.314   0.632   8.432
  534POPC   C3A10733   4.009   0.591   8.115
  534POPC   C4A10734   3.957   0.738   7.694
  534POPC   C1B10735   4.464   0.262   8.813
  534POPC   C2B10736   4.672   0.236   8.395
  534POPC   C3B10737   4.471   0.390   8.010
  534POPC   C4B10738   4.194   0.307   7.648
  535POPC   NC310739  24.947   7.942   9.560
  535POPC   PO410740  25.551   8.070   9.462
  535POPC   GL110741  25.282   7.954   9.158
  535POPC   GL210742  25.087   8.198   9.138
  535POPC   C1A10743  25.379   7.955   8.743
  535POPC   D2A10744  25.452   8.198   8.393
  535POPC   C3A10745  25.408   7.974   7.999
  535POPC   C4A10746  25.579   8.121   7.590
  535POPC   C1B10747  24.833   8.171   8.781
  535POPC   C2B10748  24.754   8.387   8.401
  535POPC   C3B10749  24.961   8.298   8.027
  535POPC   C4B10750  25.063   8.070   7.637
  536POPC   NC310751  15.371  29.472   9.449
  536POPC   PO410752  15.356  28.800   9.578
  536POPC   GL110753  15.441  29.003   9.193
  536POPC   GL210754  15.133  29.207   9.093
  536POPC   C1A10755  15.383  28.977   8.734
  536POPC   D2A10756  15.177  29.182   8.418
  536POPC   C3A10757  15.373  29.080   8.066
  536POPC   C4A10758  15.153  28.933   7.720
  536POPC   C1B10759  15.297  29.517   8.781
  536POPC   C2B10760  15.293  29.692   8.373
  536POPC   C3B10761  15.122  29.518   8.015
  536POPC   C4B10762  15.344  29.441   7.661
  537POPC   NC310763  30.820  44.921   9.430
  537POPC   PO410764  30.304  44.458   9.602
  537POPC   GL110765  30.508  44.541   9.191
  537POPC   GL210766  30.849  44.515   9.106
  537POPC   C1A10767  30.520  44.756   8.793
  537POPC   D2A10768  30.371  44.705   8.405
  537POPC   C3A10769  30.442  44.639   7.988
  537POPC   C4A10770  30.638  44.812   7.639
  537POPC   C1B10771  31.029  44.712   8.711
  537POPC   C2B10772  30.906  44.780   8.259
  537POPC   C3B10773  30.925  44.473   7.897
  537POPC   C4B10774  30.922  44.417   7.438
  538POPC   NC310775  22.851  34.130   9.733
  538POPC   PO410776  23.209  33.601   9.804
  538POPC   GL110777  23.056  33.894   9.352
  538POPC   GL210778  22.672  33.833   9.267
  538POPC   C1A10779  23.031  33.996   8.904
  538POPC   D2A10780  23.143  33.730   8.537
  538POPC   C3A10781  23.080  33.860   8.116
  538POPC   C4A10782  23.270  33.961   7.686
  538POPC   C1B10783  22.691  33.631   8.833
  538POPC   C2B10784  22.732  33.460   8.431
  538POPC   C3B10785  22.730  33.519   7.993
  538POPC   C4B10786  22.788  33.856   7.692
  539POPC   NC310787  44.622   8.916   9.725
  539POPC   PO410788  44.802   9.376   9.336
  539POPC   GL110789  44.500   9.097   9.095
  539POPC   GL210790  44.430   8.778   9.252
  539POPC   C1A10791  44.511   9.110   8.657
  539POPC   D2A10792  44.873   9.085   8.359
  539POPC   C3A10793  44.787   8.969   7.930
  539POPC   C4A10794  44.408   8.958   7.753
  539POPC   C1B10795  44.396   8.627   8.804
  539POPC   C2B10796  44.405   8.730   8.337
  539POPC   C3B10797  44.510   8.513   7.966
  539POPC   C4B10798  44.205   8.503   7.649
  540POPC   NC310799   7.472   5.146   9.407
  540POPC   PO410800   6.957   4.665   9.287
  540POPC   GL110801   7.154   5.020   9.057
  540POPC   GL210802   7.125   5.433   9.135
  540POPC   C1A10803   7.402   4.973   8.726
  540POPC   D2A10804   7.116   5.026   8.409
  540POPC   C3A10805   7.311   4.914   8.046
  540POPC   C4A10806   7.384   4.829   7.629
  540POPC   C1B10807   7.335   5.468   8.737
  540POPC   C2B10808   7.463   5.400   8.344
  540POPC   C3B10809   7.181   5.414   8.073
  540POPC   C4B10810   7.015   5.319   7.707
  541POPC   NC310811  26.365  25.726   9.372
  541POPC   PO410812  26.986  26.181   9.536
  541POPC   GL110813  26.911  26.150   9.135
  541POPC   GL210814  27.230  26.192   9.023
  541POPC   C1A10815  26.808  26.000   8.724
  541POPC   D2A10816  26.576  26.158   8.397
  541POPC   C3A10817  26.652  26.021   8.024
  541POPC   C4A10818  26.650  26.044   7.644
  541POPC   C1B10819  27.320  25.938   8.661
  541POPC   C2B10820  27.076  25.968   8.277
  541POPC   C3B10821  27.089  26.278   7.927
  541POPC   C4B10822  27.078  26.221   7.472
  542POPC   NC310823  21.711  11.520   9.803
  542POPC   PO410824  21.238  11.198   9.425
  542POPC   GL110825  21.458  11.410   9.140
  542POPC   GL210826  21.777  11.502   9.285
  542POPC   C1A10827  21.426  11.213   8.744
  542POPC   D2A10828  21.200  11.181   8.356
  542POPC   C3A10829  21.438  11.109   8.017
  542POPC   C4A10830  21.222  11.152   7.645
  542POPC   C1B10831  21.916  11.322   8.882
  542POPC   C2B10832  21.856  11.199   8.461
  542POPC   C3B10833  21.929  11.324   8.054
  542POPC   C4B10834  21.709  11.378   7.684
  543POPC   NC310835  31.931   3.867   9.482
  543POPC   PO410836  31.292   3.660   9.591
  543POPC   GL110837  31.278   3.524   9.189
  543POPC   GL210838  31.661   3.520   9.186
  543POPC   C1A10839  31.420   3.679   8.782
  543POPC   D2A10840  31.651   3.929   8.542
  543POPC   C3A10841  31.558   3.758   8.151
  543POPC   C4A10842  31.490   3.910   7.762
  543POPC   C1B10843  31.492   3.191   8.879
  543POPC   C2B10844  31.214   3.243   8.517
  543POPC   C3B10845  31.175   3.195   8.063
  543POPC   C4B10846  31.447   3.376   7.741
  544POPC   NC310847   3.361  30.430   9.566
  544POPC   PO410848   3.723  30.929   9.576
  544POPC   GL110849   3.850  30.551   9.299
  544POPC   GL210850   3.600  30.284   9.153
  544POPC   C1A10851   3.951  30.510   8.858
  544POPC   D2A10852   3.733  30.595   8.511
  544POPC   C3A10853   3.815  30.586   8.083
  544POPC   C4A10854   3.625  30.765   7.699
  544POPC   C1B10855   3.401  30.607   8.904
  544POPC   C2B10856   3.233  30.588   8.480
  544POPC   C3B10857   3.290  30.633   8.068
  544POPC   C4B10858   3.106  30.535   7.685
  545POPC   NC310859  32.955  40.805   9.452
  545POPC   PO410860  33.586  41.062   9.516
  545POPC   GL110861  33.257  41.099   9.162
  545POPC   GL210862  33.308  40.748   9.012
  545POPC   C1A10863  32.923  40.975   8.812
  545POPC   D2A10864  33.076  40.776   8.418
  545POPC   C3A10865  32.899  40.906   8.015
  545POPC   C4A10866  33.159  41.013   7.692
  545POPC   C1B10867  32.972  40.457   8.815
  545POPC   C2B10868  32.903  40.268   8.389
  545POPC   C3B10869  32.803  40.393   7.940
  545POPC   C4B10870  33.074  40.547   7.579
  546POPC   NC310871  33.635  39.721   9.588
  546POPC   PO410872  33.996  39.131   9.558
  546POPC   GL110873  33.864  39.278   9.127
  546POPC   GL210874  33.556  39.406   9.184
  546POPC   C1A10875  33.896  39.063   8.666
  546POPC   D2A10876  33.896  38.735   8.314
  546POPC   C3A10877  34.091  38.908   7.962
  546POPC   C4A10878  33.816  39.252   7.910
  546POPC   C1B10879  33.409  39.539   8.767
  546POPC   C2B10880  33.543  39.412   8.391
  546POPC   C3B10881  33.456  39.579   8.018
  546POPC   C4B10882  33.225  39.657   7.680
  547POPC   NC310883   1.950  39.094   9.355
  547POPC   PO410884   1.605  39.642   9.456
  547POPC   GL110885   1.676  39.427   9.071
  547POPC   GL210886   1.680  39.050   8.942
  547POPC   C1A10887   1.969  39.463   8.742
  547POPC   D2A10888   1.789  39.437   8.352
  547POPC   C3A10889   2.068  39.568   8.072
  547POPC   C4A10890   2.040  39.519   7.675
  547POPC   C1B10891   1.958  38.959   8.613
  547POPC   C2B10892   2.170  39.078   8.237
  547POPC   C3B10893   1.883  39.105   7.912
  547POPC   C4B10894   1.824  38.977   7.498
  548POPC   NC310895  27.426  43.941   9.514
  548POPC   PO410896  27.894  44.403   9.804
  548POPC   GL110897  27.936  44.192   9.284
  548POPC   GL210898  27.656  43.988   9.089
  548POPC   C1A10899  28.033  44.039   8.799
  548POPC   D2A10900  27.701  43.844   8.486
  548POPC   C3A10901  27.752  43.680   8.063
  548POPC   C4A10902  27.694  43.935   7.690
  548POPC   C1B10903  27.324  43.819   8.825
  548POPC   C2B10904  27.155  43.861   8.384
  548POPC   C3B10905  27.249  43.785   7.912
  548POPC   C4B10906  27.326  43.716   7.405
  549POPC   NC310907  35.431   6.716   9.595
  549POPC   PO410908  35.525   7.355   9.326
  549POPC   GL110909  35.277   6.992   9.128
  549POPC   GL210910  35.215   6.613   9.158
  549POPC   C1A10911  35.076   6.840   8.751
  549POPC   D2A10912  35.227   6.626   8.397
  549POPC   C3A10913  35.236   6.837   7.999
  549POPC   C4A10914  35.114   6.739   7.598
  549POPC   C1B10915  35.495   6.465   8.816
  549POPC   C2B10916  35.486   6.196   8.427
  549POPC   C3B10917  35.380   6.324   8.014
  549POPC   C4B10918  35.692   6.288   7.732
  550POPC   NC310919  42.434  22.396   9.827
  550POPC   PO410920  42.465  23.055   9.664
  550POPC   GL110921  42.504  23.150   9.199
  550POPC   GL210922  42.481  22.874   9.053
  550POPC   C1A10923  42.661  23.190   8.713
  550POPC   D2A10924  42.391  22.961   8.391
  550POPC   C3A10925  42.483  22.956   7.944
  550POPC   C4A10926  42.520  22.678   7.583
  550POPC   C1B10927  42.161  23.105   8.831
  550POPC   C2B10928  41.893  22.935   8.536
  550POPC   C3B10929  41.901  22.965   8.124
  550POPC   C4B10930  41.791  22.912   7.694
  551POPC   NC310931  40.464  21.170   9.210
  551POPC   PO410932  40.865  21.616   9.491
  551POPC   GL110933  40.725  21.611   9.076
  551POPC   GL210934  40.496  21.861   9.056
  551POPC   C1A10935  40.836  21.354   8.712
  551POPC   D2A10936  40.866  21.139   8.335
  551POPC   C3A10937  40.746  21.309   7.949
  551POPC   C4A10938  40.838  21.238   7.529
  551POPC   C1B10939  40.507  21.738   8.612
  551POPC   C2B10940  40.815  21.667   8.300
  551POPC   C3B10941  40.925  21.797   7.896
  551POPC   C4B10942  40.652  21.772   7.537
  552POPC   NC310943  18.601  27.920   9.634
  552POPC   PO410944  19.051  27.423   9.488
  552POPC   GL110945  18.839  27.681   9.201
  552POPC   GL210946  19.161  27.818   9.118
  552POPC   C1A10947  18.879  27.644   8.750
  552POPC   D2A10948  18.784  27.336   8.417
  552POPC   C3A10949  18.810  27.588   8.050
  552POPC   C4A10950  18.917  27.534   7.618
  552POPC   C1B10951  19.387  27.677   8.762
  552POPC   C2B10952  19.236  27.631   8.358
  552POPC   C3B10953  19.321  27.668   7.934
  552POPC   C4B10954  19.416  27.928   7.594
  553POPC   NC310955  35.155   0.000   9.506
  553POPC   PO410956  35.382   0.614   9.453
  553POPC   GL110957  35.304   0.331   9.096
  553POPC   GL210958  35.008   0.082   9.027
  553POPC   C1A10959  35.339   0.403   8.666
  553POPC   D2A10960  35.170   0.180   8.333
  553POPC   C3A10961  35.384   0.426   8.067
  553POPC   C4A10962  35.552   0.412   7.694
  553POPC   C1B10963  34.848   0.407   8.792
  553POPC   C2B10964  34.966   0.693   8.451
  553POPC   C3B10965  34.884   0.599   8.026
  553POPC   C4B10966  35.034   0.377   7.670
  554POPC   NC310967  20.979  11.599   9.451
  554POPC   PO410968  20.504  11.118   9.511
  554POPC   GL110969  20.616  11.322   9.141
  554POPC   GL210970  20.959  11.376   8.999
  554POPC   C1A10971  20.574  11.117   8.746
  554POPC   D2A10972  20.672  11.191   8.323
  554POPC   C3A10973  20.467  11.051   7.947
  554POPC   C4A10974  20.494  11.189   7.517
  554POPC   C1B10975  21.061  11.580   8.635
  554POPC   C2B10976  20.925  11.613   8.214
  554POPC   C3B10977  20.838  11.414   7.832
  554POPC   C4B10978  21.000  11.627   7.444
  555POPC   NC310979  28.786  33.481   9.350
  555POPC   PO410980  29.189  33.998   9.466
  555POPC   GL110981  29.094  33.817   9.091
  555POPC   GL210982  29.281  33.506   8.997
  555POPC   C1A10983  29.227  33.920   8.688
  555POPC   D2A10984  29.296  33.638   8.381
  555POPC   C3A10985  29.109  33.813   8.021
  555POPC   C4A10986  28.992  33.873   7.583
  555POPC   C1B10987  28.911  33.476   8.709
  555POPC   C2B10988  28.690  33.636   8.340
  555POPC   C3B10989  28.674  33.571   7.906
  555POPC   C4B10990  28.823  33.357   7.594
  556POPC   NC310991  33.931  13.357   9.482
  556POPC   PO410992  33.503  13.804   9.562
  556POPC   GL110993  33.711  13.713   9.176
  556POPC   GL210994  33.558  13.365   9.123
  556POPC   C1A10995  33.958  13.584   8.786
  556POPC   D2A10996  33.782  13.449   8.368
  556POPC   C3A10997  34.016  13.525   7.965
  556POPC   C4A10998  34.116  13.884   7.789
  556POPC   C1B10999  33.456  13.627   8.753
  556POPC   C2B11000  33.426  13.847   8.370
  556POPC   C3B11001  33.583  13.750   7.962
  556POPC   C4B11002  33.697  13.566   7.552
  557POPC   NC311003   5.416  19.960   9.844
  557POPC   PO411004   5.937  19.796   9.503
  557POPC   GL111005   5.915  19.828   9.127
  557POPC   GL211006   5.604  19.964   9.123
  557POPC   C1A11007   6.055  19.736   8.739
  557POPC   D2A11008   5.974  19.846   8.331
  557POPC   C3A11009   6.188  19.631   8.007
  557POPC   C4A11010   5.912  19.349   7.787
  557POPC   C1B11011   5.599  19.988   8.686
  557POPC   C2B11012   5.419  20.233   8.386
  557POPC   C3B11013   5.496  20.100   8.002
  557POPC   C4B11014   5.782  19.876   7.826
  558POPC   NC311015  14.398  40.704   9.632
  558POPC   PO411016  14.778  41.080   9.161
  558POPC   GL111017  14.482  40.770   9.100
  558POPC   GL211018  14.715  40.555   9.204
  558POPC   C1A11019  14.269  40.850   8.712
  558POPC   D2A11020  14.482  41.005   8.348
  558POPC   C3A11021  14.245  40.910   7.996
  558POPC   C4A11022  14.256  41.017   7.581
  558POPC   C1B11023  14.741  40.427   8.784
  558POPC   C2B11024  14.540  40.481   8.408
  558POPC   C3B11025  14.674  40.631   8.016
  558POPC   C4B11026  14.477  40.566   7.597
  559POPC   NC311027   0.157  25.165   9.585
  559POPC   PO411028   0.697  24.788   9.362
  559POPC   GL111029   0.376  25.033   9.139
  559POPC   GL211030   0.282  25.398   9.110
  559POPC   C1A11031   0.379  25.064   8.713
  559POPC   D2A11032   0.318  25.323   8.369
  559POPC   C3A11033   0.409  25.118   7.980
  559POPC   C4A11034   0.202  24.982   7.654
  559POPC   C1B11035   0.629  25.478   8.817
  559POPC   C2B11036   0.826  25.283   8.465
  559POPC   C3B11037   0.752  25.462   8.083
  559POPC   C4B11038   0.766  25.336   7.656
  560POPC   NC311039  23.323  30.426   9.640
  560POPC   PO411040  23.161  31.046   9.489
  560POPC   GL111041  23.041  30.767   9.154
  560POPC   GL211042  23.063  30.402   9.108
  560POPC   C1A11043  22.780  30.737   8.771
  560POPC   D2A11044  22.899  30.672   8.320
  560POPC   C3A11045  22.722  30.825   7.931
  560POPC   C4A11046  23.134  30.871   7.730
  560POPC   C1B11047  23.128  30.334   8.678
  560POPC   C2B11048  22.960  30.169   8.296
  560POPC   C3B11049  23.025  30.371   7.890
  560POPC   C4B11050  23.065  30.426   7.420
  561POPC   NC311051   2.185  13.933   9.584
  561POPC   PO411052   1.535  13.622   9.498
  561POPC   GL111053   1.616  13.619   9.083
  561POPC   GL211054   1.918  13.834   9.157
  561POPC   C1A11055   1.910  13.413   8.786
  561POPC   D2A11056   2.309  13.385   8.537
  561POPC   C3A11057   2.242  13.410   8.069
  561POPC   C4A11058   1.916  13.381   7.733
  561POPC   C1B11059   1.849  13.929   8.754
  561POPC   C2B11060   2.040  13.814   8.396
  561POPC   C3B11061   1.922  13.825   7.997
  561POPC   C4B11062   2.223  13.787   7.680
  562POPC   NC311063  38.382  18.615   9.482
  562POPC   PO411064  38.715  19.215   9.489
  562POPC   GL111065  38.734  19.125   9.069
  562POPC   GL211066  38.805  18.776   9.154
  562POPC   C1A11067  38.583  19.275   8.634
  562POPC   D2A11068  38.317  19.181   8.244
  562POPC   C3A11069  38.413  19.166   7.782
  562POPC   C4A11070  38.510  19.343   7.325
  562POPC   C1B11071  38.572  18.651   8.808
  562POPC   C2B11072  38.673  18.829   8.433
  562POPC   C3B11073  38.695  18.835   8.040
  562POPC   C4B11074  38.509  18.651   7.737
  563POPC   NC311075   6.513   3.043   9.358
  563POPC   PO411076   6.701   2.440   9.687
  563POPC   GL111077   6.828   2.655   9.257
  563POPC   GL211078   7.038   2.971   9.353
  563POPC   C1A11079   6.675   2.787   8.791
  563POPC   D2A11080   6.435   2.546   8.475
  563POPC   C3A11081   6.427   2.595   8.020
  563POPC   C4A11082   6.801   2.679   7.758
  563POPC   C1B11083   7.132   3.005   8.892
  563POPC   C2B11084   7.042   3.131   8.456
  563POPC   C3B11085   7.082   3.026   8.032
  563POPC   C4B11086   6.972   3.186   7.619
  564POPC   NC311087   1.444  42.158   9.370
  564POPC   PO411088   1.224  42.817   9.475
  564POPC   GL111089   1.422  42.581   9.082
  564POPC   GL211090   1.295  42.222   8.893
  564POPC   C1A11091   1.593  42.510   8.665
  564POPC   D2A11092   1.433  42.280   8.343
  564POPC   C3A11093   1.278  42.477   7.978
  564POPC   C4A11094   1.001  42.405   7.616
  564POPC   C1B11095   1.187  41.870   8.602
  564POPC   C2B11096   1.081  41.950   8.179
  564POPC   C3B11097   1.254  41.994   7.790
  564POPC   C4B11098   1.280  42.008   7.309
  565POPC   NC311099  19.452  31.566   9.616
  565POPC   PO411100  20.117  31.423   9.568
  565POPC   GL111101  19.871  31.342   9.201
  565POPC   GL211102  19.603  31.572   9.133
  565POPC   C1A11103  19.754  31.215   8.781
  565POPC   D2A11104  19.526  31.382   8.426
  565POPC   C3A11105  19.658  31.304   8.003
  565POPC   C4A11106  20.051  31.272   7.789
  565POPC   C1B11107  19.725  31.736   8.745
  565POPC   C2B11108  19.700  31.887   8.319
  565POPC   C3B11109  19.865  31.809   7.885
  565POPC   C4B11110  19.918  31.946   7.436
  566POPC   NC311111  44.964   1.400   9.539
  566POPC   PO411112  44.279   1.142   9.535
  566POPC   GL111113  44.428   1.203   9.115
  566POPC   GL211114  44.796   1.182   9.094
  566POPC   C1A11115  44.532   1.367   8.696
  566POPC   D2A11116  44.800   1.382   8.360
  566POPC   C3A11117  44.634   1.282   8.022
  566POPC   C4A11118  44.304   1.244   7.787
  566POPC   C1B11119  44.970   1.031   8.689
  566POPC   C2B11120  44.913   0.896   8.258
  566POPC   C3B11121  44.914   0.940   7.825
  566POPC   C4B11122   0.095   0.949   7.408
  567POPC   NC311123  22.428   1.203   9.589
  567POPC   PO411124  23.051   1.179   9.594
  567POPC   GL111125  22.832   1.317   9.250
  567POPC   GL211126  23.010   1.601   9.085
  567POPC   C1A11127  22.742   1.003   8.950
  567POPC   D2A11128  22.793   0.900   8.514
  567POPC   C3A11129  22.825   1.001   8.073
  567POPC   C4A11130  23.095   1.273   7.811
  567POPC   C1B11131  22.943   1.391   8.715
  567POPC   C2B11132  23.061   1.384   8.319
  567POPC   C3B11133  23.444   1.472   8.141
  567POPC   C4B11134  23.429   1.735   7.787
  568POPC   NC311135   1.889   1.203   9.548
  568POPC   PO411136   2.530   0.920   9.437
  568POPC   GL111137   2.116   1.104   9.106
  568POPC   GL211138   1.738   1.273   9.083
  568POPC   C1A11139   1.990   1.142   8.665
  568POPC   D2A11140   1.913   0.891   8.321
  568POPC   C3A11141   2.047   1.097   7.976
  568POPC   C4A11142   2.183   1.308   7.640
  568POPC   C1B11143   1.578   1.483   8.704
  568POPC   C2B11144   1.714   1.370   8.262
  568POPC   C3B11145   1.648   1.367   7.791
  568POPC   C4B11146   1.473   1.550   7.376
  569POPC   NC311147  42.737  29.198   9.559
  569POPC   PO411148  42.068  29.290   9.587
  569POPC   GL111149  42.336  29.285   9.243
  569POPC   GL211150  42.281  28.943   9.214
  569POPC   C1A11151  42.348  29.396   8.825
  569POPC   D2A11152  42.055  29.579   8.567
  569POPC   C3A11153  41.988  29.370   8.194
  569POPC   C4A11154  42.273  29.313   7.864
  569POPC   C1B11155  42.470  28.895   8.814
  569POPC   C2B11156  42.466  29.066   8.398
  569POPC   C3B11157  42.539  28.901   8.001
  569POPC   C4B11158  42.170  28.808   7.806
  570POPC   NC311159  28.966  44.472   9.536
  570POPC   PO411160  29.649  44.206   9.566
  570POPC   GL111161  29.359  44.418   9.229
  570POPC   GL211162  29.174  44.731   9.152
  570POPC   C1A11163  29.115  44.403   8.790
  570POPC   D2A11164  29.058  44.706   8.427
  570POPC   C3A11165  29.018  44.519   8.005
  570POPC   C4A11166  28.869  44.592   7.567
  570POPC   C1B11167  29.425  44.841   8.781
  570POPC   C2B11168  29.510  44.968   8.379
  570POPC   C3B11169  29.487  44.739   7.994
  570POPC   C4B11170  29.292  44.868   7.608
  571POPC   NC311171  11.740  35.134   9.626
  571POPC   PO411172  12.378  35.456   9.439
  571POPC   GL111173  12.022  35.340   9.206
  571POPC   GL211174  11.933  35.674   9.102
  571POPC   C1A11175  11.905  35.187   8.777
  571POPC   D2A11176  11.830  35.436   8.380
  571POPC   C3A11177  11.855  35.188   7.990
  571POPC   C4A11178  12.211  34.960   7.803
  571POPC   C1B11179  12.234  35.571   8.757
  571POPC   C2B11180  12.347  35.575   8.322
  571POPC   C3B11181  12.269  35.474   7.859
  571POPC   C4B11182  12.427  35.696   7.463
  572POPC   NC311183  34.124  25.193   9.632
  572POPC   PO411184  33.498  25.232   9.504
  572POPC   GL111185  33.867  25.242   9.182
  572POPC   GL211186  34.107  25.556   9.256
  572POPC   C1A11187  33.780  25.192   8.733
  572POPC   D2A11188  33.542  25.393   8.375
  572POPC   C3A11189  33.658  25.184   7.985
  572POPC   C4A11190  34.074  25.096   7.962
  572POPC   C1B11191  34.026  25.632   8.831
  572POPC   C2B11192  34.064  25.476   8.395
  572POPC   C3B11193  33.967  25.649   8.003
  572POPC   C4B11194  33.978  25.479   7.615
  573POPC   NC311195  42.232  19.770   9.486
  573POPC   PO411196  42.872  19.845   9.491
  573POPC   GL111197  42.646  19.708   9.104
  573POPC   GL211198  42.327  19.544   9.055
  573POPC   C1A11199  42.570  19.786   8.651
  573POPC   D2A11200  42.670  19.725   8.208
  573POPC   C3A11201  42.480  19.978   7.883
  573POPC   C4A11202  42.102  20.256   7.852
  573POPC   C1B11203  42.062  19.615   8.707
  573POPC   C2B11204  42.172  19.748   8.303
  573POPC   C3B11205  42.174  19.565   7.931
  573POPC   C4B11206  42.119  19.739   7.582
  574POPC   NC311207  33.302  20.507   9.245
  574POPC   PO411208  32.702  20.414   9.238
  574POPC   GL111209  32.872  20.730   8.987
  574POPC   GL211210  33.022  20.462   8.823
  574POPC   C1A11211  32.812  20.852   8.537
  574POPC   D2A11212  32.887  20.585   8.224
  574POPC   C3A11213  33.064  20.663   7.877
  574POPC   C4A11214  32.744  20.730   7.622
  574POPC   C1B11215  33.391  20.419   8.627
  574POPC   C2B11216  33.378  20.459   8.252
  574POPC   C3B11217  33.322  20.238   7.964
  574POPC   C4B11218  33.523  20.361   7.705
  575POPC   NC311219  16.603  19.675   9.550
  575POPC   PO411220  16.851  20.243   9.411
  575POPC   GL111221  16.518  20.040   9.116
  575POPC   GL211222  16.372  19.694   9.092
  575POPC   C1A11223  16.552  20.054   8.661
  575POPC   D2A11224  16.901  20.194   8.348
  575POPC   C3A11225  16.811  20.072   7.931
  575POPC   C4A11226  16.396  19.994   7.807
  575POPC   C1B11227  16.812  19.686   8.906
  575POPC   C2B11228  16.929  19.690   8.496
  575POPC   C3B11229  16.692  19.602   8.137
  575POPC   C4B11230  16.731  19.608   7.702
  576POPC   NC311231  11.043  21.784   9.327
  576POPC   PO411232  11.390  22.345   9.595
  576POPC   GL111233  11.276  22.281   9.179
  576POPC   GL211234  11.433  21.988   9.038
  576POPC   C1A11235  11.082  22.272   8.778
  576POPC   D2A11236  11.007  22.039   8.425
  576POPC   C3A11237  11.149  22.245   8.060
  576POPC   C4A11238  11.532  22.424   7.882
  576POPC   C1B11239  11.439  21.706   8.698
  576POPC   C2B11240  11.440  21.807   8.268
  576POPC   C3B11241  11.424  21.867   7.854
  576POPC   C4B11242  11.451  21.785   7.431
  577POPC   NC311243   3.002  24.204   9.521
  577POPC   PO411244   2.641  24.703   9.403
  577POPC   GL111245   2.689  24.556   9.025
  577POPC   GL211246   2.704  24.233   9.110
  577POPC   C1A11247   2.678  24.530   8.595
  577POPC   D2A11248   2.835  24.727   8.207
  577POPC   C3A11249   2.777  24.455   7.857
  577POPC   C4A11250   2.568  24.416   7.421
  577POPC   C1B11251   2.996  24.155   8.784
  577POPC   C2B11252   2.885  24.033   8.358
  577POPC   C3B11253   3.059  24.031   7.947
  577POPC   C4B11254   2.718  23.984   7.665
  578POPC   NC311255  43.425  32.548   9.311
  578POPC   PO411256  43.026  32.008   9.556
  578POPC   GL111257  43.045  32.206   9.163
  578POPC   GL211258  43.376  32.083   9.080
  578POPC   C1A11259  42.914  32.265   8.721
  578POPC   D2A11260  42.910  31.985   8.376
  578POPC   C3A11261  43.095  32.117   7.989
  578POPC   C4A11262  43.071  31.894   7.634
  578POPC   C1B11263  43.448  32.325   8.712
  578POPC   C2B11264  43.278  32.463   8.337
  578POPC   C3B11265  43.578  32.352   8.026
  578POPC   C4B11266  43.539  32.145   7.681
  579POPC   NC311267  18.310   6.206   9.962
  579POPC   PO411268  18.363   5.722   9.657
  579POPC   GL111269  18.303   5.589   9.206
  579POPC   GL211270  18.021   5.407   9.066
  579POPC   C1A11271  18.478   5.492   8.794
  579POPC   D2A11272  18.583   5.729   8.426
  579POPC   C3A11273  18.535   5.596   7.984
  579POPC   C4A11274  18.416   5.875   7.651
  579POPC   C1B11275  17.998   5.583   8.634
  579POPC   C2B11276  18.111   5.754   8.227
  579POPC   C3B11277  17.986   5.636   7.803
  579POPC   C4B11278  17.802   5.429   7.415
  580POPC   NC311279  34.516  35.774   9.377
  580POPC   PO411280  34.341  36.467   9.580
  580POPC   GL111281  34.318  36.212   9.186
  580POPC   GL211282  34.648  36.175   9.091
  580POPC   C1A11283  34.216  35.967   8.783
  580POPC   D2A11284  34.308  35.805   8.334
  580POPC   C3A11285  34.359  36.129   7.989
  580POPC   C4A11286  34.703  36.401   7.834
  580POPC   C1B11287  34.718  35.950   8.718
  580POPC   C2B11288  34.755  36.072   8.313
  580POPC   C3B11289  34.983  35.988   7.977
  580POPC   C4B11290  35.015  35.874   7.601
  581POPC   NC311291  14.709  39.062   9.678
  581POPC   PO411292  15.316  39.242   9.582
  581POPC   GL111293  15.319  39.084   9.165
  581POPC   GL211294  15.395  39.399   9.004
  581POPC   C1A11295  15.099  39.002   8.771
  581POPC   D2A11296  15.131  39.272   8.412
  581POPC   C3A11297  15.020  39.098   8.039
  581POPC   C4A11298  15.114  39.015   7.603
  581POPC   C1B11299  14.946  39.488   8.855
  581POPC   C2B11300  14.768  39.645   8.456
  581POPC   C3B11301  14.967  39.681   8.092
  581POPC   C4B11302  15.110  39.517   7.708
  582POPC   NC311303  27.894  12.893   9.495
  582POPC   PO411304  28.429  12.693   9.732
  582POPC   GL111305  28.502  12.668   9.262
  582POPC   GL211306  28.176  12.692   9.105
  582POPC   C1A11307  28.620  12.771   8.805
  582POPC   D2A11308  28.360  12.745   8.403
  582POPC   C3A11309  28.506  12.857   7.991
  582POPC   C4A11310  28.605  12.668   7.574
  582POPC   C1B11311  28.168  13.027   8.784
  582POPC   C2B11312  28.093  13.184   8.351
  582POPC   C3B11313  28.069  13.108   7.910
  582POPC   C4B11314  28.325  13.102   7.554
  583POPC   NC311315   2.117  34.119   9.568
  583POPC   PO411316   1.700  33.564   9.500
  583POPC   GL111317   1.987  33.693   9.132
  583POPC   GL211318   2.273  33.946   9.120
  583POPC   C1A11319   1.940  33.882   8.712
  583POPC   D2A11320   1.570  33.903   8.444
  583POPC   C3A11321   1.720  33.965   8.031
  583POPC   C4A11322   1.996  33.634   7.871
  583POPC   C1B11323   2.489  34.048   8.736
  583POPC   C2B11324   2.303  34.184   8.350
  583POPC   C3B11325   2.240  34.078   7.922
  583POPC   C4B11326   1.985  34.045   7.569
  584POPC   NC311327  30.054  24.652   9.424
  584POPC   PO411328  29.959  24.007   9.512
  584POPC   GL111329  29.813  24.218   9.094
  584POPC   GL211330  29.675  24.596   9.057
  584POPC   C1A11331  29.893  24.365   8.656
  584POPC   D2A11332  30.029  24.228   8.272
  584POPC   C3A11333  30.245  24.548   8.053
  584POPC   C4A11334  30.197  24.649   7.628
  584POPC   C1B11335  29.565  24.747   8.617
  584POPC   C2B11336  29.804  24.772   8.175
  584POPC   C3B11337  29.767  24.904   7.697
  584POPC   C4B11338  29.577  24.849   7.225
  585POPC   NC311339  39.856   8.872   9.453
  585POPC   PO411340  39.987   9.525   9.712
  585POPC   GL111341  39.900   9.342   9.272
  585POPC   GL211342  40.183   9.145   9.171
  585POPC   C1A11343  39.822   9.396   8.829
  585POPC   D2A11344  39.924   9.129   8.485
  585POPC   C3A11345  39.984   9.234   8.069
  585POPC   C4A11346  39.981   8.834   7.786
  585POPC   C1B11347  40.374   9.156   8.761
  585POPC   C2B11348  40.474   9.040   8.337
  585POPC   C3B11349  40.420   9.094   7.886
  585POPC   C4B11350  40.341   9.304   7.494
  586POPC   NC311351  16.088  38.190   9.465
  586POPC   PO411352  15.924  37.492   9.553
  586POPC   GL111353  16.016  37.615   9.129
  586POPC   GL211354  15.855  37.927   9.098
  586POPC   C1A11355  15.891  37.592   8.685
  586POPC   D2A11356  16.093  37.627   8.276
  586POPC   C3A11357  16.059  37.492   7.847
  586POPC   C4A11358  16.228  37.665   7.459
  586POPC   C1B11359  15.872  38.096   8.698
  586POPC   C2B11360  15.695  37.959   8.303
  586POPC   C3B11361  15.831  37.949   7.872
  586POPC   C4B11362  15.729  37.831   7.428
  587POPC   NC311363  18.094  13.825   9.410
  587POPC   PO411364  18.793  13.897   9.222
  587POPC   GL111365  18.438  13.662   9.084
  587POPC   GL211366  18.221  13.374   9.223
  587POPC   C1A11367  18.242  13.794   8.734
  587POPC   D2A11368  18.451  13.904   8.357
  587POPC   C3A11369  18.292  13.637   8.030
  587POPC   C4A11370  18.439  13.649   7.599
  587POPC   C1B11371  18.196  13.285   8.801
  587POPC   C2B11372  17.977  13.473   8.431
  587POPC   C3B11373  17.837  13.343   8.046
  587POPC   C4B11374  18.085  13.300   7.693
  588POPC   NC311375  12.236   3.560   9.487
  588POPC   PO411376  12.456   3.118   9.229
  588POPC   GL111377  12.065   3.325   9.039
  588POPC   GL211378  11.874   3.637   9.107
  588POPC   C1A11379  11.913   3.421   8.614
  588POPC   D2A11380  12.187   3.407   8.249
  588POPC   C3A11381  12.107   3.480   7.809
  588POPC   C4A11382  12.335   3.346   7.425
  588POPC   C1B11383  12.135   3.846   8.785
  588POPC   C2B11384  12.071   3.915   8.335
  588POPC   C3B11385  12.315   3.929   7.943
  588POPC   C4B11386  12.263   3.862   7.473
  589POPC   NC311387  25.491  44.944   9.406
  589POPC   PO411388  25.207  44.371   9.538
  589POPC   GL111389  25.154  44.529   9.146
  589POPC   GL211390  24.855  44.685   9.214
  589POPC   C1A11391  25.386  44.580   8.761
  589POPC   D2A11392  25.232  44.626   8.326
  589POPC   C3A11393  25.512  44.653   7.939
  589POPC   C4A11394  25.568  44.737   7.475
  589POPC   C1B11395  24.945  44.921   8.831
  589POPC   C2B11396  24.884   0.075   8.409
  589POPC   C3B11397  25.100   0.009   8.014
  589POPC   C4B11398  25.099  44.812   7.596
  590POPC   NC311399  34.171  38.707   9.530
  590POPC   PO411400  33.745  38.300   9.382
  590POPC   GL111401  33.992  38.498   9.103
  590POPC   GL211402  33.858  38.786   9.108
  590POPC   C1A11403  34.137  38.547   8.719
  590POPC   D2A11404  34.142  38.250   8.368
  590POPC   C3A11405  34.139  38.382   7.960
  590POPC   C4A11406  34.017  38.505   7.547
  590POPC   C1B11407  33.614  38.567   8.763
  590POPC   C2B11408  33.473  38.425   8.343
  590POPC   C3B11409  33.608  38.510   7.919
  590POPC   C4B11410  33.693  38.844   7.634
  591POPC   NC311411  40.541   7.739   9.413
  591POPC   PO411412  40.700   7.068   9.478
  591POPC   GL111413  40.854   7.381   9.150
  591POPC   GL211414  40.523   7.377   9.016
  591POPC   C1A11415  40.906   7.458   8.667
  591POPC   D2A11416  40.595   7.318   8.334
  591POPC   C3A11417  40.616   7.214   7.864
  591POPC   C4A11418  40.916   6.997   7.544
  591POPC   C1B11419  40.515   7.762   8.772
  591POPC   C2B11420  40.410   7.798   8.360
  591POPC   C3B11421  40.403   7.680   7.963
  591POPC   C4B11422  40.815   7.703   7.824
  592POPC   NC311423  43.104  14.548   9.344
  592POPC   PO411424  43.007  15.116   9.673
  592POPC   GL111425  43.065  15.103   9.183
  592POPC   GL211426  43.392  15.263   9.119
  592POPC   C1A11427  43.116  15.102   8.681
  592POPC   D2A11428  43.092  15.051   8.193
  592POPC   C3A11429  42.780  15.282   7.915
  592POPC   C4A11430  42.752  15.189   7.452
  592POPC   C1B11431  43.449  15.519   8.739
  592POPC   C2B11432  43.380  15.718   8.344
  592POPC   C3B11433  43.251  15.519   7.952
  592POPC   C4B11434  43.224  15.170   7.670
  593POPC   NC311435  31.852  36.358   9.501
  593POPC   PO411436  32.254  35.877   9.593
  593POPC   GL111437  32.261  36.182   9.235
  593POPC   GL211438  31.986  36.051   9.096
  593POPC   C1A11439  32.319  36.305   8.779
  593POPC   D2A11440  32.305  35.962   8.416
  593POPC   C3A11441  32.338  36.075   7.975
  593POPC   C4A11442  32.233  36.479   7.842
  593POPC   C1B11443  31.871  36.101   8.664
  593POPC   C2B11444  31.917  36.284   8.249
  593POPC   C3B11445  31.834  36.033   7.881
  593POPC   C4B11446  31.983  35.757   7.583
  594POPC   NC311447  29.246  36.986   9.630
  594POPC   PO411448  28.729  36.707   9.807
  594POPC   GL111449  29.084  36.640   9.314
  594POPC   GL211450  29.363  36.871   9.152
  594POPC   C1A11451  29.049  36.654   8.835
  594POPC   D2A11452  29.342  36.767   8.493
  594POPC   C3A11453  29.190  36.719   8.060
  594POPC   C4A11454  29.398  36.770   7.717
  594POPC   C1B11455  29.179  37.159   8.806
  594POPC   C2B11456  29.083  37.192   8.342
  594POPC   C3B11457  29.086  37.235   7.891
  594POPC   C4B11458  28.751  37.388   7.589
  595POPC   NC311459  20.829  12.720   9.319
  595POPC   PO411460  20.268  12.900   9.281
  595POPC   GL111461  20.296  12.627   8.951
  595POPC   GL211462  20.601  12.809   8.887
  595POPC   C1A11463  20.324  12.681   8.497
  595POPC   D2A11464  20.612  12.990   8.399
  595POPC   C3A11465  20.693  12.911   8.006
  595POPC   C4A11466  20.806  12.848   7.622
  595POPC   C1B11467  20.813  12.554   8.622
  595POPC   C2B11468  20.797  12.471   8.228
  595POPC   C3B11469  21.082  12.531   7.886
  595POPC   C4B11470  21.104  12.510   7.403
  596POPC   NC311471  33.081  22.490   9.436
  596POPC   PO411472  32.888  21.944   9.724
  596POPC   GL111473  32.907  21.961   9.265
  596POPC   GL211474  32.709  22.223   9.150
  596POPC   C1A11475  33.021  21.976   8.820
  596POPC   D2A11476  32.916  22.153   8.426
  596POPC   C3A11477  33.176  22.232   8.145
  596POPC   C4A11478  33.170  22.007   7.780
  596POPC   C1B11479  32.519  22.199   8.734
  596POPC   C2B11480  32.455  22.367   8.313
  596POPC   C3B11481  32.706  22.274   7.960
  596POPC   C4B11482  32.807  22.285   7.532
  597POPC   NC311483  44.041  14.830   9.457
  597POPC   PO411484  43.540  14.387   9.502
  597POPC   GL111485  43.729  14.515   9.158
  597POPC   GL211486  43.550  14.789   9.160
  597POPC   C1A11487  43.908  14.446   8.756
  597POPC   D2A11488  43.728  14.224   8.387
  597POPC   C3A11489  43.877  14.345   7.981
  597POPC   C4A11490  44.014  14.034   7.691
  597POPC   C1B11491  43.586  14.867   8.734
  597POPC   C2B11492  43.781  14.741   8.338
  597POPC   C3B11493  43.522  14.779   7.963
  597POPC   C4B11494  43.567  14.835   7.508
  598POPC   NC311495  31.357  27.502   9.585
  598POPC   PO411496  31.382  28.054   9.139
  598POPC   GL111497  31.374  27.614   9.099
  598POPC   GL211498  31.650  27.345   9.213
  598POPC   C1A11499  31.186  27.490   8.732
  598POPC   D2A11500  31.170  27.769   8.383
  598POPC   C3A11501  31.213  27.495   8.061
  598POPC   C4A11502  31.441  27.643   7.735
  598POPC   C1B11503  31.702  27.385   8.788
  598POPC   C2B11504  31.637  27.556   8.368
  598POPC   C3B11505  31.798  27.386   7.987
  598POPC   C4B11506  31.969  27.647   7.654
  599POPC   NC311507  27.040  25.306   9.945
  599POPC   PO411508  26.604  25.301   9.394
  599POPC   GL111509  26.976  25.331   9.154
  599POPC   GL211510  27.039  25.661   9.046
  599POPC   C1A11511  26.950  25.091   8.784
  599POPC   D2A11512  26.710  25.134   8.395
  599POPC   C3A11513  26.872  25.021   8.021
  599POPC   C4A11514  26.691  25.046   7.625
  599POPC   C1B11515  26.670  25.526   8.778
  599POPC   C2B11516  26.595  25.635   8.362
  599POPC   C3B11517  26.830  25.546   8.018
  599POPC   C4B11518  27.096  25.797   7.767
  600POPC   NC311519   2.860  35.144   9.469
  600POPC   PO411520   2.453  35.581   9.136
  600POPC   GL111521   2.598  35.157   9.035
  600POPC   GL211522   2.971  35.182   8.972
  600POPC   C1A11523   2.646  35.024   8.624
  600POPC   D2A11524   2.965  35.223   8.392
  600POPC   C3A11525   2.798  35.359   8.019
  600POPC   C4A11526   2.444  35.485   7.833
  600POPC   C1B11527   2.994  35.598   8.760
  600POPC   C2B11528   3.198  35.689   8.365
  600POPC   C3B11529   3.085  35.782   7.955
  600POPC   C4B11530   3.101  35.951   7.579
  601POPC   NC311531  44.491  40.947   9.546
  601POPC   PO411532  44.923  40.306   9.539
  601POPC   GL111533  44.668  40.561   9.231
  601POPC   GL211534  44.906  40.821   9.196
  601POPC   C1A11535  44.448  40.565   8.826
  601POPC   D2A11536  44.781  40.593   8.446
  601POPC   C3A11537  44.637  40.628   8.021
  601POPC   C4A11538  44.881  40.881   7.785
  601POPC   C1B11539  44.747  40.959   8.810
  601POPC   C2B11540  44.608  41.054   8.352
  601POPC   C3B11541  44.376  41.087   8.015
  601POPC   C4B11542  44.406  40.924   7.607
  602POPC   NC311543  37.634   7.745   9.425
  602POPC   PO411544  37.198   7.222   9.461
  602POPC   GL111545  37.473   7.320   9.067
  602POPC   GL211546  37.841   7.464   9.052
  602POPC   C1A11547  37.588   7.475   8.623
  602POPC   D2A11548  37.737   7.714   8.266
  602POPC   C3A11549  37.691   7.458   7.946
  602POPC   C4A11550  37.944   7.106   7.807
  602POPC   C1B11551  38.060   7.690   8.676
  602POPC   C2B11552  38.242   7.647   8.213
  602POPC   C3B11553  38.143   7.595   7.728
  602POPC   C4B11554  38.065   7.694   7.243
  603POPC   NC311555  35.236  15.228   9.631
  603POPC   PO411556  34.638  15.475   9.451
  603POPC   GL111557  35.074  15.448   9.199
  603POPC   GL211558  35.206  15.067   9.139
  603POPC   C1A11559  35.371  15.409   8.818
  603POPC   D2A11560  35.446  15.114   8.464
  603POPC   C3A11561  35.591  15.154   8.049
  603POPC   C4A11562  35.517  15.034   7.628
  603POPC   C1B11563  35.042  14.966   8.757
  603POPC   C2B11564  34.931  15.184   8.375
  603POPC   C3B11565  35.084  15.136   7.942
  603POPC   C4B11566  35.098  15.480   7.664
  604POPC   NC311567  37.384  28.050   9.766
  604POPC   PO411568  36.715  28.157   9.646
  604POPC   GL111569  36.867  28.258   9.237
  604POPC   GL211570  36.626  28.484   9.086
  604POPC   C1A11571  37.060  28.449   8.851
  604POPC   D2A11572  36.827  28.334   8.486
  604POPC   C3A11573  37.076  28.099   8.197
  604POPC   C4A11574  36.990  27.971   7.794
  604POPC   C1B11575  36.637  28.778   8.713
  604POPC   C2B11576  36.874  28.847   8.325
  604POPC   C3B11577  36.841  28.542   7.987
  604POPC   C4B11578  37.084  28.428   7.635
  605POPC   NC311579  26.995  29.643   9.376
  605POPC   PO411580  26.867  28.978   9.428
  605POPC   GL111581  26.715  29.198   9.109
  605POPC   GL211582  26.414  29.375   9.179
  605POPC   C1A11583  26.936  29.238   8.743
  605POPC   D2A11584  27.085  29.063   8.385
  605POPC   C3A11585  27.057  29.359   8.083
  605POPC   C4A11586  26.810  29.405   7.733
  605POPC   C1B11587  26.532  29.548   8.777
  605POPC   C2B11588  26.585  29.340   8.366
  605POPC   C3B11589  26.554  29.085   8.018
  605POPC   C4B11590  26.659  28.926   7.621
  606POPC   NC311591  22.549  28.819   9.676
  606POPC   PO411592  22.301  28.168   9.570
  606POPC   GL111593  22.244  28.552   9.283
  606POPC   GL211594  22.260  28.279   9.060
  606POPC   C1A11595  22.099  28.688   8.844
  606POPC   D2A11596  22.197  28.386   8.524
  606POPC   C3A11597  22.171  28.492   8.115
  606POPC   C4A11598  22.086  28.360   7.692
  606POPC   C1B11599  22.554  28.071   8.771
  606POPC   C2B11600  22.599  28.151   8.304
  606POPC   C3B11601  22.486  28.112   7.857
  606POPC   C4B11602  22.398  28.055   7.383
  607POPC   NC311603  24.150  35.402   9.213
  607POPC   PO411604  23.476  35.359   9.505
  607POPC   GL111605  23.658  35.217   9.108
  607POPC   GL211606  23.688  35.556   9.018
  607POPC   C1A11607  23.917  35.064   8.723
  607POPC   D2A11608  23.743  35.052   8.301
  607POPC   C3A11609  23.943  35.038   7.893
  607POPC   C4A11610  23.778  35.165   7.460
  607POPC   C1B11611  23.751  35.518   8.586
  607POPC   C2B11612  23.475  35.519   8.250
  607POPC   C3B11613  23.496  35.348   7.865
  607POPC   C4B11614  23.898  35.522   7.815
  608POPC   NC311615  35.367  42.329   9.444
  608POPC   PO411616  35.052  42.975   9.469
  608POPC   GL111617  35.009  42.621   9.153
  608POPC   GL211618  35.048  42.243   9.056
  608POPC   C1A11619  35.202  42.627   8.744
  608POPC   D2A11620  35.460  42.449   8.411
  608POPC   C3A11621  35.182  42.431   8.077
  608POPC   C4A11622  35.083  42.396   7.672
  608POPC   C1B11623  35.099  42.145   8.588
  608POPC   C2B11624  35.298  41.948   8.199
  608POPC   C3B11625  35.148  41.878   7.788
  608POPC   C4B11626  35.282  41.988   7.355
  609POPC   NC311627  24.594   6.418   9.499
  609POPC   PO411628  24.169   6.928   9.559
  609POPC   GL111629  24.312   6.744   9.157
  609POPC   GL211630  24.675   6.829   9.078
  609POPC   C1A11631  24.386   6.492   8.767
  609POPC   D2A11632  24.465   6.520   8.298
  609POPC   C3A11633  24.271   6.694   7.907
  609POPC   C4A11634  24.054   6.693   7.508
  609POPC   C1B11635  24.955   6.721   8.692
  609POPC   C2B11636  24.967   6.688   8.233
  609POPC   C3B11637  24.798   6.423   7.918
  609POPC   C4B11638  24.496   6.394   7.548
  610POPC   NC311639   0.423  37.279   9.543
  610POPC   PO411640   0.343  36.629   9.419
  610POPC   GL111641   0.392  36.947   9.091
  610POPC   GL211642   0.710  37.119   9.131
  610POPC   C1A11643   0.322  36.978   8.629
  610POPC   D2A11644   0.056  36.817   8.276
  610POPC   C3A11645   0.326  36.813   7.925
  610POPC   C4A11646   0.553  36.495   7.706
  610POPC   C1B11647   0.747  37.337   8.744
  610POPC   C2B11648   0.626  37.322   8.320
  610POPC   C3B11649   0.545  37.269   7.895
  610POPC   C4B11650   0.709  37.010   7.589
  611POPC   NC311651  31.873   2.266   9.508
  611POPC   PO411652  31.211   2.103   9.381
  611POPC   GL111653  31.564   2.054   9.120
  611POPC   GL211654  31.633   2.352   9.067
  611POPC   C1A11655  31.530   1.896   8.688
  611POPC   D2A11656  31.237   1.823   8.318
  611POPC   C3A11657  31.423   1.938   7.926
  611POPC   C4A11658  31.419   1.910   7.450
  611POPC   C1B11659  31.302   2.355   8.768
  611POPC   C2B11660  31.393   2.311   8.369
  611POPC   C3B11661  31.612   2.417   8.040
  611POPC   C4B11662  31.488   2.367   7.653
  612POPC   NC311663  32.100  30.038   9.615
  612POPC   PO411664  32.439  29.461   9.421
  612POPC   GL111665  32.123  29.670   9.170
  612POPC   GL211666  32.094  30.042   9.118
  612POPC   C1A11667  32.213  29.556   8.764
  612POPC   D2A11668  32.067  29.624   8.377
  612POPC   C3A11669  32.367  29.883   8.225
  612POPC   C4A11670  32.423  29.888   7.793
  612POPC   C1B11671  31.913  30.028   8.738
  612POPC   C2B11672  31.811  30.176   8.358
  612POPC   C3B11673  31.913  29.999   8.001
  612POPC   C4B11674  32.028  30.179   7.663
  613POPC   NC311675  28.840  35.483   9.585
  613POPC   PO411676  29.231  34.881   9.586
  613POPC   GL111677  29.190  35.176   9.239
  613POPC   GL211678  29.466  35.438   9.238
  613POPC   C1A11679  29.123  35.267   8.797
  613POPC   D2A11680  29.329  35.348   8.393
  613POPC   C3A11681  29.164  35.087   8.079
  613POPC   C4A11682  28.812  35.159   7.831
  613POPC   C1B11683  29.404  35.686   8.856
  613POPC   C2B11684  29.368  35.863   8.431
  613POPC   C3B11685  29.479  35.722   8.039
  613POPC   C4B11686  29.256  35.489   7.793
  614POPC   NC311687   8.475  20.499   9.758
  614POPC   PO411688   7.996  20.943   9.421
  614POPC   GL111689   7.950  20.752   9.089
  614POPC   GL211690   7.897  20.410   9.162
  614POPC   C1A11691   7.942  20.936   8.694
  614POPC   D2A11692   8.183  20.834   8.345
  614POPC   C3A11693   7.998  20.868   7.948
  614POPC   C4A11694   7.772  20.513   7.758
  614POPC   C1B11695   8.149  20.451   8.747
  614POPC   C2B11696   8.426  20.350   8.413
  614POPC   C3B11697   8.317  20.424   8.006
  614POPC   C4B11698   8.623  20.409   7.730
  615POPC   NC311699   3.450   9.544   9.364
  615POPC   PO411700   3.672  10.164   9.587
  615POPC   GL111701   3.606  10.019   9.208
  615POPC   GL211702   3.844   9.791   9.094
  615POPC   C1A11703   3.493  10.045   8.781
  615POPC   D2A11704   3.539   9.909   8.340
  615POPC   C3A11705   3.770   9.857   7.966
  615POPC   C4A11706   3.360   9.915   7.748
  615POPC   C1B11707   3.706   9.581   8.698
  615POPC   C2B11708   3.705   9.426   8.250
  615POPC   C3B11709   3.547   9.419   7.806
  615POPC   C4B11710   3.699   9.399   7.374
  616POPC   NC311711  22.438   3.569   9.745
  616POPC   PO411712  21.762   3.770   9.542
  616POPC   GL111713  21.851   3.736   9.065
  616POPC   GL211714  21.860   3.364   9.036
  616POPC   C1A11715  22.219   3.790   8.730
  616POPC   D2A11716  22.508   3.585   8.412
  616POPC   C3A11717  22.352   3.716   7.990
  616POPC   C4A11718  22.207   3.770   7.566
  616POPC   C1B11719  22.110   3.310   8.674
  616POPC   C2B11720  22.094   3.349   8.226
  616POPC   C3B11721  21.929   3.204   7.830
  616POPC   C4B11722  22.054   3.073   7.431
  617POPC   NC311723  44.257  12.221   9.645
  617POPC   PO411724  44.755  12.382   9.230
  617POPC   GL111725  44.510  12.232   8.909
  617POPC   GL211726  44.518  11.900   8.918
  617POPC   C1A11727  44.440  12.245   8.493
  617POPC   D2A11728  44.773  12.076   8.257
  617POPC   C3A11729  44.800  12.282   7.894
  617POPC   C4A11730  44.680  12.142   7.488
  617POPC   C1B11731  44.145  11.858   8.664
  617POPC   C2B11732  44.223  11.819   8.242
  617POPC   C3B11733  44.428  11.902   7.894
  617POPC   C4B11734  44.718  11.676   7.673
  618POPC   NC311735  12.975  30.813   9.488
  618POPC   PO411736  12.454  31.253   9.616
  618POPC   GL111737  12.642  31.035   9.184
  618POPC   GL211738  12.996  31.113   9.084
  618POPC   C1A11739  12.787  30.694   8.822
  618POPC   D2A11740  13.059  30.485   8.440
  618POPC   C3A11741  13.004  30.604   7.994
  618POPC   C4A11742  12.597  30.583   7.796
  618POPC   C1B11743  12.844  31.191   8.680
  618POPC   C2B11744  12.736  30.913   8.340
  618POPC   C3B11745  12.737  31.065   7.941
  618POPC   C4B11746  12.909  31.444   7.810
  619POPC   NC311747  23.301  17.113   9.456
  619POPC   PO411748  23.988  17.045   9.585
  619POPC   GL111749  23.757  16.940   9.200
  619POPC   GL211750  23.538  16.677   9.188
  619POPC   C1A11751  23.854  16.673   8.796
  619POPC   D2A11752  23.689  16.466   8.411
  619POPC   C3A11753  23.806  16.727   8.096
  619POPC   C4A11754  24.160  16.742   7.900
  619POPC   C1B11755  23.403  16.940   8.835
  619POPC   C2B11756  23.415  16.959   8.400
  619POPC   C3B11757  23.290  16.721   8.044
  619POPC   C4B11758  23.483  16.392   7.887
  620POPC   NC311759  41.082   1.259   9.739
  620POPC   PO411760  40.630   0.889   9.660
  620POPC   GL111761  40.754   1.163   9.260
  620POPC   GL211762  41.125   1.234   9.205
  620POPC   C1A11763  40.673   1.258   8.788
  620POPC   D2A11764  40.496   1.077   8.396
  620POPC   C3A11765  40.625   1.254   8.022
  620POPC   C4A11766  40.988   1.405   7.792
  620POPC   C1B11767  41.121   1.019   8.807
  620POPC   C2B11768  40.964   0.928   8.380
  620POPC   C3B11769  41.090   0.926   7.925
  620POPC   C4B11770  41.047   0.992   7.461
  621POPC   NC311771  44.430  39.510   9.552
  621POPC   PO411772   0.087  39.346   9.708
  621POPC   GL111773  44.749  39.198   9.304
  621POPC   GL211774  44.595  39.440   9.095
  621POPC   C1A11775  44.809  39.107   8.800
  621POPC   D2A11776  44.997  39.136   8.375
  621POPC   C3A11777  44.779  39.117   8.005
  621POPC   C4A11778  44.966  39.256   7.605
  621POPC   C1B11779  44.367  39.337   8.768
  621POPC   C2B11780  44.502  39.403   8.377
  621POPC   C3B11781  44.327  39.385   7.998
  621POPC   C4B11782  44.473  39.345   7.615
  622POPC   NC311783  17.739   1.946   9.450
  622POPC   PO411784  17.146   2.030   9.721
  622POPC   GL111785  17.274   1.977   9.259
  622POPC   GL211786  17.256   1.615   9.301
  622POPC   C1A11787  17.508   2.053   8.824
  622POPC   D2A11788  17.691   1.922   8.400
  622POPC   C3A11789  17.615   2.060   7.956
  622POPC   C4A11790  17.954   2.266   7.647
  622POPC   C1B11791  17.231   1.626   8.848
  622POPC   C2B11792  17.188   1.806   8.432
  622POPC   C3B11793  17.182   1.651   8.017
  622POPC   C4B11794  17.526   1.572   7.763
  623POPC   NC311795  34.641  25.515   9.317
  623POPC   PO411796  34.439  24.893   9.492
  623POPC   GL111797  34.397  25.117   9.147
  623POPC   GL211798  34.749  25.060   9.041
  623POPC   C1A11799  34.411  25.294   8.735
  623POPC   D2A11800  34.508  25.143   8.338
  623POPC   C3A11801  34.451  25.427   8.027
  623POPC   C4A11802  34.433  25.261   7.638
  623POPC   C1B11803  35.000  25.244   8.698
  623POPC   C2B11804  34.948  25.398   8.280
  623POPC   C3B11805  34.910  25.274   7.851
  623POPC   C4B11806  34.838  25.479   7.450
  624POPC   NC311807  39.007  13.770   9.621
  624POPC   PO411808  39.418  13.262   9.481
  624POPC   GL111809  39.408  13.412   9.099
  624POPC   GL211810  39.179  13.670   9.158
  624POPC   C1A11811  39.370  13.328   8.694
  624POPC   D2A11812  39.441  13.555   8.349
  624POPC   C3A11813  39.417  13.306   8.022
  624POPC   C4A11814  39.350  13.450   7.629
  624POPC   C1B11815  39.140  13.762   8.768
  624POPC   C2B11816  38.952  13.667   8.375
  624POPC   C3B11817  39.118  13.760   7.980
  624POPC   C4B11818  38.871  13.676   7.632
  625POPC   NC311819  24.940  26.569   9.644
  625POPC   PO411820  25.194  25.963   9.610
  625POPC   GL111821  25.192  26.041   9.176
  625POPC   GL211822  25.449  26.302   9.116
  625POPC   C1A11823  25.392  25.874   8.777
  625POPC   D2A11824  25.431  25.990   8.341
  625POPC   C3A11825  25.237  25.782   7.988
  625POPC   C4A11826  25.334  25.916   7.556
  625POPC   C1B11827  25.124  26.324   8.753
  625POPC   C2B11828  24.941  26.198   8.328
  625POPC   C3B11829  25.043  26.279   7.878
  625POPC   C4B11830  25.033  26.303   7.395
  626POPC   NC311831  27.974  25.216   9.554
  626POPC   PO411832  27.313  25.237   9.582
  626POPC   GL111833  27.490  25.412   9.206
  626POPC   GL211834  27.825  25.437   9.131
  626POPC   C1A11835  27.388  25.414   8.787
  626POPC   D2A11836  27.098  25.503   8.479
  626POPC   C3A11837  27.326  25.466   8.098
  626POPC   C4A11838  27.159  25.293   7.696
  626POPC   C1B11839  27.764  25.069   8.842
  626POPC   C2B11840  27.779  24.918   8.401
  626POPC   C3B11841  27.860  25.128   8.007
  626POPC   C4B11842  27.652  25.440   7.692
  627POPC   NC311843  43.994  11.639   9.475
  627POPC   PO411844  44.003  10.997   9.559
  627POPC   GL111845  43.869  11.165   9.119
  627POPC   GL211846  43.919  11.507   8.995
  627POPC   C1A11847  43.502  11.230   8.832
  627POPC   D2A11848  43.469  11.197   8.361
  627POPC   C3A11849  43.807  10.944   8.121
  627POPC   C4A11850  43.967  10.975   7.687
  627POPC   C1B11851  43.937  11.254   8.609
  627POPC   C2B11852  43.914  11.427   8.244
  627POPC   C3B11853  44.102  11.414   7.886
  627POPC   C4B11854  44.189  11.557   7.483
  628POPC   NC311855   0.972  39.773   9.157
  628POPC   PO411856   1.381  40.170   9.567
  628POPC   GL111857   1.238  40.196   9.167
  628POPC   GL211858   1.439  39.927   9.071
  628POPC   C1A11859   1.107  40.282   8.757
  628POPC   D2A11860   1.228  40.376   8.347
  628POPC   C3A11861   1.073  40.106   8.025
  628POPC   C4A11862   1.113  40.200   7.613
  628POPC   C1B11863   1.590  39.809   8.700
  628POPC   C2B11864   1.508  39.952   8.291
  628POPC   C3B11865   1.613  39.766   7.938
  628POPC   C4B11866   1.280  39.723   7.696
  629POPC   NC311867  10.633  39.589   9.430
  629POPC   PO411868  10.216  39.063   9.275
  629POPC   GL111869  10.598  39.175   9.068
  629POPC   GL211870  10.781  39.508   8.953
  629POPC   C1A11871  10.510  39.192   8.641
  629POPC   D2A11872  10.214  39.101   8.325
  629POPC   C3A11873  10.441  39.181   7.943
  629POPC   C4A11874  10.238  39.133   7.558
  629POPC   C1B11875  10.405  39.688   8.761
  629POPC   C2B11876  10.318  39.599   8.351
  629POPC   C3B11877  10.442  39.714   7.978
  629POPC   C4B11878  10.834  39.540   7.840
  630POPC   NC311879  26.462   1.129   9.750
  630POPC   PO411880  26.043   1.535   9.475
  630POPC   GL111881  26.010   1.341   9.092
  630POPC   GL211882  26.040   1.019   9.154
  630POPC   C1A11883  25.782   1.256   8.674
  630POPC   D2A11884  25.748   1.553   8.287
  630POPC   C3A11885  25.737   1.406   7.834
  630POPC   C4A11886  26.083   1.464   7.519
  630POPC   C1B11887  26.267   1.067   8.733
  630POPC   C2B11888  26.205   0.837   8.364
  630POPC   C3B11889  26.001   0.954   8.002
  630POPC   C4B11890  26.181   0.920   7.614
  631POPC   NC311891  23.936  36.593   9.410
  631POPC   PO411892  23.633  37.278   9.455
  631POPC   GL111893  23.816  37.039   9.159
  631POPC   GL211894  23.526  36.784   9.145
  631POPC   C1A11895  24.002  36.876   8.785
  631POPC   D2A11896  24.130  36.736   8.381
  631POPC   C3A11897  24.136  37.013   8.007
  631POPC   C4A11898  24.044  36.817   7.624
  631POPC   C1B11899  23.517  37.024   8.744
  631POPC   C2B11900  23.749  37.084   8.349
  631POPC   C3B11901  23.629  36.999   7.916
  631POPC   C4B11902  23.287  37.110   7.695
  632POPC   NC311903   7.550  42.660   9.407
  632POPC   PO411904   7.249  42.097   9.516
  632POPC   GL111905   7.201  42.333   9.145
  632POPC   GL211906   7.549  42.233   9.095
  632POPC   C1A11907   7.319  42.413   8.694
  632POPC   D2A11908   7.432  42.171   8.359
  632POPC   C3A11909   7.240  42.236   7.963
  632POPC   C4A11910   7.362  42.584   7.697
  632POPC   C1B11911   7.764  42.051   8.759
  632POPC   C2B11912   7.954  42.120   8.339
  632POPC   C3B11913   7.756  42.290   7.992
  632POPC   C4B11914   7.617  42.091   7.653
  633POPC   NC311915  16.526   3.639   9.506
  633POPC   PO411916  17.245   3.644   9.489
  633POPC   GL111917  17.038   3.385   9.160
  633POPC   GL211918  16.698   3.424   9.083
  633POPC   C1A11919  17.026   3.189   8.752
  633POPC   D2A11920  16.838   3.103   8.365
  633POPC   C3A11921  16.811   3.347   8.004
  633POPC   C4A11922  17.136   3.318   7.741
  633POPC   C1B11923  16.646   3.540   8.658
  633POPC   C2B11924  16.552   3.713   8.271
  633POPC   C3B11925  16.409   3.628   7.831
  633POPC   C4B11926  16.381   3.719   7.364
  634POPC   NC311927  20.867  20.183   9.559
  634POPC   PO411928  20.519  20.799   9.592
  634POPC   GL111929  20.562  20.481   9.276
  634POPC   GL211930  20.322  20.216   9.266
  634POPC   C1A11931  20.789  20.376   8.910
  634POPC   D2A11932  20.748  20.539   8.493
  634POPC   C3A11933  20.743  20.354   8.116
  634POPC   C4A11934  20.728  20.608   7.786
  634POPC   C1B11935  20.291  20.316   8.813
  634POPC   C2B11936  20.265  20.344   8.346
  634POPC   C3B11937  20.262  20.397   7.875
  634POPC   C4B11938  20.455  20.316   7.438
  635POPC   NC311939  10.771  33.570   9.480
  635POPC   PO411940  10.162  33.699   9.513
  635POPC   GL111941  10.372  33.939   9.190
  635POPC   GL211942  10.729  33.837   9.062
  635POPC   C1A11943  10.388  34.061   8.758
  635POPC   D2A11944  10.625  33.948   8.363
  635POPC   C3A11945  10.352  33.937   8.013
  635POPC   C4A11946  10.258  33.810   7.629
  635POPC   C1B11947  10.980  33.568   8.778
  635POPC   C2B11948  10.865  33.462   8.347
  635POPC   C3B11949  10.761  33.617   7.932
  635POPC   C4B11950  11.079  33.745   7.644
  636POPC   NC311951   9.890  34.081   9.491
  636POPC   PO411952   9.441  33.548   9.702
  636POPC   GL111953   9.602  33.689   9.263
  636POPC   GL211954   9.433  34.000   9.174
  636POPC   C1A11955   9.866  33.865   8.873
  636POPC   D2A11956  10.045  33.901   8.422
  636POPC   C3A11957   9.862  33.779   7.993
  636POPC   C4A11958   9.815  33.540   7.606
  636POPC   C1B11959   9.498  34.184   8.747
  636POPC   C2B11960   9.536  34.024   8.334
  636POPC   C3B11961   9.347  33.720   8.055
  636POPC   C4B11962   9.401  33.829   7.641
  637POPC   NC311963   6.271  21.656   9.323
  637POPC   PO411964   6.033  21.018   9.375
  637POPC   GL111965   6.039  21.292   9.046
  637POPC   GL211966   6.374  21.238   9.049
  637POPC   C1A11967   5.741  21.447   8.749
  637POPC   D2A11968   5.657  21.221   8.372
  637POPC   C3A11969   5.657  21.310   7.963
  637POPC   C4A11970   5.955  21.336   7.638
  637POPC   C1B11971   6.390  21.142   8.669
  637POPC   C2B11972   6.147  21.421   8.454
  637POPC   C3B11973   6.149  21.471   8.071
  637POPC   C4B11974   6.345  21.097   7.900
  638POPC   NC311975  11.496  20.109   9.261
  638POPC   PO411976  11.660  19.606   9.814
  638POPC   GL111977  11.516  19.605   9.312
  638POPC   GL211978  11.156  19.623   9.112
  638POPC   C1A11979  11.569  19.652   8.805
  638POPC   D2A11980  11.373  19.829   8.389
  638POPC   C3A11981  11.458  19.681   7.959
  638POPC   C4A11982  11.592  19.917   7.589
  638POPC   C1B11983  11.034  19.941   8.762
  638POPC   C2B11984  10.836  20.022   8.341
  638POPC   C3B11985  10.981  19.941   7.923
  638POPC   C4B11986  11.122  20.111   7.530
  639POPC   NC311987  43.177  37.000   9.465
  639POPC   PO411988  42.928  36.335   9.412
  639POPC   GL111989  43.134  36.617   9.105
  639POPC   GL211990  42.968  36.928   9.024
  639POPC   C1A11991  43.362  36.817   8.755
  639POPC   D2A11992  43.118  36.986   8.426
  639POPC   C3A11993  43.240  36.943   8.012
  639POPC   C4A11994  43.335  36.649   7.663
  639POPC   C1B11995  42.698  37.122   8.754
  639POPC   C2B11996  42.752  37.330   8.386
  639POPC   C3B11997  42.750  37.082   8.023
  639POPC   C4B11998  42.927  36.983   7.617
  640POPC   NC311999  10.062   2.092   9.597
  640POPC   PO412000   9.541   1.682   9.556
  640POPC   GL112001   9.465   1.934   9.165
  640POPC   GL212002   9.796   2.060   9.121
  640POPC   C1A12003   9.535   1.854   8.708
  640POPC   D2A12004   9.733   1.929   8.308
  640POPC   C3A12005   9.675   1.707   7.938
  640POPC   C4A12006   9.792   2.030   7.699
  640POPC   C1B12007  10.043   2.028   8.720
  640POPC   C2B12008  10.242   1.824   8.323
  640POPC   C3B12009  10.191   1.759   7.885
  640POPC   C4B12010  10.267   2.050   7.558
  641POPC   NC312011  15.216  12.570   9.516
  641POPC   PO412012  14.747  13.026   9.393
  641POPC   GL112013  15.183  13.029   9.237
  641POPC   GL212014  15.175  13.295   9.022
  641POPC   C1A12015  15.331  12.830   8.847
  641POPC   D2A12016  15.103  12.767   8.436
  641POPC   C3A12017  15.343  12.886   8.058
  641POPC   C4A12018  15.258  12.711   7.651
  641POPC   C1B12019  14.869  13.146   8.744
  641POPC   C2B12020  14.836  13.209   8.313
  641POPC   C3B12021  14.858  13.005   7.939
  641POPC   C4B12022  15.115  13.201   7.654
  642POPC   NC312023   7.721  33.886   9.574
  642POPC   PO412024   7.085  34.099   9.568
  642POPC   GL112025   7.255  33.847   9.203
  642POPC   GL212026   7.554  33.586   9.215
  642POPC   C1A12027   7.324  34.021   8.787
  642POPC   D2A12028   7.208  34.145   8.394
  642POPC   C3A12029   7.457  33.938   8.062
  642POPC   C4A12030   7.351  33.801   7.656
  642POPC   C1B12031   7.746  33.753   8.888
  642POPC   C2B12032   7.711  33.677   8.471
  642POPC   C3B12033   7.724  33.491   8.086
  642POPC   C4B12034   7.855  33.719   7.739
  643POPC   NC312035  13.707  30.433   9.411
  643POPC   PO412036  13.390  30.979   9.396
  643POPC   GL112037  13.548  30.724   9.051
  643POPC   GL212038  13.234  30.579   9.074
  643POPC   C1A12039  13.539  30.443   8.667
  643POPC   D2A12040  13.532  30.271   8.218
  643POPC   C3A12041  13.521  30.580   7.868
  643POPC   C4A12042  13.467  30.549   7.400
  643POPC   C1B12043  13.248  30.875   8.701
  643POPC   C2B12044  13.425  30.839   8.308
  643POPC   C3B12045  13.280  31.045   7.935
  643POPC   C4B12046  13.138  30.950   7.541
  644POPC   NC312047  35.070  21.274   9.399
  644POPC   PO412048  35.600  21.657   9.542
  644POPC   GL112049  35.557  21.370   9.208
  644POPC   GL212050  35.307  21.625   9.091
  644POPC   C1A12051  35.404  21.199   8.803
  644POPC   D2A12052  35.043  21.336   8.545
  644POPC   C3A12053  35.041  21.220   8.126
  644POPC   C4A12054  35.157  21.352   7.729
  644POPC   C1B12055  34.899  21.704   8.863
  644POPC   C2B12056  34.760  21.772   8.425
  644POPC   C3B12057  35.007  21.749   8.038
  644POPC   C4B12058  34.925  21.752   7.560
  645POPC   NC312059  13.399  10.773   9.433
  645POPC   PO412060  13.858  10.233   9.440
  645POPC   GL112061  13.782  10.574   9.180
  645POPC   GL212062  13.447  10.448   9.040
  645POPC   C1A12063  13.735  10.814   8.806
  645POPC   D2A12064  14.018  10.796   8.453
  645POPC   C3A12065  13.825  10.775   8.037
  645POPC   C4A12066  13.806  10.671   7.577
  645POPC   C1B12067  13.772  10.295   8.746
  645POPC   C2B12068  13.809  10.360   8.317
  645POPC   C3B12069  13.823  10.254   7.914
  645POPC   C4B12070  13.587  10.136   7.595
  646POPC   NC312071  24.813   5.834   9.698
  646POPC   PO412072  24.236   6.171   9.649
  646POPC   GL112073  24.369   6.090   9.190
  646POPC   GL212074  24.746   6.020   9.211
  646POPC   C1A12075  24.363   5.844   8.800
  646POPC   D2A12076  24.419   5.672   8.375
  646POPC   C3A12077  24.336   5.978   8.030
  646POPC   C4A12078  24.305   5.859   7.574
  646POPC   C1B12079  24.874   6.224   8.857
  646POPC   C2B12080  24.697   6.107   8.480
  646POPC   C3B12081  24.820   5.900   8.120
  646POPC   C4B12082  24.769   5.982   7.703
  647POPC   NC312083  21.327  42.741   9.494
  647POPC   PO412084  21.358  42.022   9.443
  647POPC   GL112085  21.351  42.350   9.127
  647POPC   GL212086  21.569  42.662   9.054
  647POPC   C1A12087  21.449  42.284   8.710
  647POPC   D2A12088  21.693  42.071   8.432
  647POPC   C3A12089  21.557  42.228   8.084
  647POPC   C4A12090  21.643  42.028   7.762
  647POPC   C1B12091  21.288  42.772   8.706
  647POPC   C2B12092  21.311  42.700   8.250
  647POPC   C3B12093  21.167  42.497   7.862
  647POPC   C4B12094  20.877  42.511   7.521
  648POPC   NC312095   0.211  23.447   9.406
  648POPC   PO412096   0.668  22.940   9.526
  648POPC   GL112097   0.533  22.903   9.098
  648POPC   GL212098   0.259  23.075   9.083
  648POPC   C1A12099   0.342  22.707   8.727
  648POPC   D2A12100   0.456  22.485   8.343
  648POPC   C3A12101   0.175  22.651   8.055
  648POPC   C4A12102   0.432  22.916   7.848
  648POPC   C1B12103   0.280  23.299   8.732
  648POPC   C2B12104   0.340  23.134   8.346
  648POPC   C3B12105   0.444  23.379   8.018
  648POPC   C4B12106   0.200  23.366   7.699
  649POPC   NC312107  16.102  43.297   9.569
  649POPC   PO412108  15.641  43.312   9.138
  649POPC   GL112109  16.082  43.178   9.030
  649POPC   GL212110  16.194  42.885   9.153
  649POPC   C1A12111  16.240  43.111   8.633
  649POPC   D2A12112  16.065  43.093   8.216
  649POPC   C3A12113  15.945  43.421   7.952
  649POPC   C4A12114  15.668  43.361   7.665
  649POPC   C1B12115  16.314  42.621   8.777
  649POPC   C2B12116  16.248  42.631   8.302
  649POPC   C3B12117  16.047  42.680   7.862
  649POPC   C4B12118  16.208  42.764   7.411
  650POPC   NC312119  17.433  14.101   9.510
  650POPC   PO412120  17.708  13.437   9.462
  650POPC   GL112121  17.648  13.740   9.180
  650POPC   GL212122  17.321  13.696   9.149
  650POPC   C1A12123  17.712  13.721   8.772
  650POPC   D2A12124  17.434  13.657   8.422
  650POPC   C3A12125  17.551  13.766   8.013
  650POPC   C4A12126  17.592  13.533   7.614
  650POPC   C1B12127  17.282  13.991   8.835
  650POPC   C2B12128  17.215  14.138   8.417
  650POPC   C3B12129  17.125  14.047   7.991
  650POPC   C4B12130  17.189  13.832   7.598
  651POPC   NC312131  36.328  30.839   9.407
  651POPC   PO412132  35.799  30.406   9.505
  651POPC   GL112133  35.972  30.441   9.127
  651POPC   GL212134  36.329  30.467   9.060
  651POPC   C1A12135  35.899  30.533   8.718
  651POPC   D2A12136  35.921  30.821   8.405
  651POPC   C3A12137  35.797  30.572   8.073
  651POPC   C4A12138  35.470  30.569   7.736
  651POPC   C1B12139  36.348  30.797   8.754
  651POPC   C2B12140  36.437  30.825   8.310
  651POPC   C3B12141  36.176  31.020   8.002
  651POPC   C4B12142  35.889  30.872   7.679
  652POPC   NC312143   8.995  21.965   9.538
  652POPC   PO412144   8.796  22.617   9.378
  652POPC   GL112145   8.955  22.241   9.120
  652POPC   GL212146   9.212  21.962   9.072
  652POPC   C1A12147   8.847  22.041   8.744
  652POPC   D2A12148   8.738  22.205   8.391
  652POPC   C3A12149   8.702  21.931   8.064
  652POPC   C4A12150   8.742  22.137   7.689
  652POPC   C1B12151   9.394  21.917   8.688
  652POPC   C2B12152   9.166  21.888   8.333
  652POPC   C3B12153   9.204  22.032   7.898
  652POPC   C4B12154   9.346  22.430   7.703
  653POPC   NC312155  14.703  20.665   9.501
  653POPC   PO412156  14.039  20.893   9.460
  653POPC   GL112157  14.325  20.820   9.136
  653POPC   GL212158  14.658  20.975   9.107
  653POPC   C1A12159  14.233  20.783   8.702
  653POPC   D2A12160  14.076  20.612   8.295
  653POPC   C3A12161  14.265  20.728   7.918
  653POPC   C4A12162  14.248  20.721   7.470
  653POPC   C1B12163  14.708  20.619   8.812
  653POPC   C2B12164  14.611  20.651   8.360
  653POPC   C3B12165  14.620  20.368   8.040
  653POPC   C4B12166  14.434  20.304   7.684
  654POPC   NC312167  19.322  17.883   9.635
  654POPC   PO412168  18.843  17.416   9.526
  654POPC   GL112169  18.811  17.413   9.081
  654POPC   GL212170  18.737  17.756   9.078
  654POPC   C1A12171  19.138  17.353   8.739
  654POPC   D2A12172  19.294  17.618   8.386
  654POPC   C3A12173  19.171  17.412   8.008
  654POPC   C4A12174  19.271  17.510   7.617
  654POPC   C1B12175  18.871  17.765   8.670
  654POPC   C2B12176  18.778  17.631   8.288
  654POPC   C3B12177  18.820  17.747   7.890
  654POPC   C4B12178  18.673  17.708   7.509
  655POPC   NC312179  21.115  27.986   9.805
  655POPC   PO412180  20.558  28.352   9.646
  655POPC   GL112181  20.866  28.281   9.265
  655POPC   GL212182  20.982  28.599   9.066
  655POPC   C1A12183  20.835  27.982   8.902
  655POPC   D2A12184  20.553  28.026   8.520
  655POPC   C3A12185  20.724  28.058   8.089
  655POPC   C4A12186  20.452  28.108   7.734
  655POPC   C1B12187  20.691  28.472   8.759
  655POPC   C2B12188  20.538  28.554   8.335
  655POPC   C3B12189  20.490  28.807   7.949
  655POPC   C4B12190  20.688  28.544   7.641
  656POPC   NC312191  27.417  21.763   9.429
  656POPC   PO412192  27.376  22.490   9.489
  656POPC   GL112193  27.674  22.270   9.162
  656POPC   GL212194  27.814  21.916   9.130
  656POPC   C1A12195  27.817  22.286   8.730
  656POPC   D2A12196  27.823  22.054   8.323
  656POPC   C3A12197  27.572  22.269   7.983
  656POPC   C4A12198  27.648  22.194   7.557
  656POPC   C1B12199  27.452  21.941   8.826
  656POPC   C2B12200  27.309  22.070   8.450
  656POPC   C3B12201  27.378  21.812   8.105
  656POPC   C4B12202  27.301  21.820   7.660
  657POPC   NC312203  32.393  11.893   9.738
  657POPC   PO412204  31.743  11.827   9.466
  657POPC   GL112205  31.960  12.015   9.134
  657POPC   GL212206  32.257  12.159   9.297
  657POPC   C1A12207  31.957  12.296   8.782
  657POPC   D2A12208  32.263  12.434   8.474
  657POPC   C3A12209  32.053  12.236   8.128
  657POPC   C4A12210  32.035  12.360   7.684
  657POPC   C1B12211  32.402  12.072   8.885
  657POPC   C2B12212  32.246  11.918   8.530
  657POPC   C3B12213  32.451  11.831   8.158
  657POPC   C4B12214  32.311  11.958   7.788
  658POPC   NC312215  12.797  11.747   9.654
  658POPC   PO412216  13.131  12.321   9.497
  658POPC   GL112217  12.939  12.114   9.157
  658POPC   GL212218  12.925  11.737   9.172
  658POPC   C1A12219  12.863  12.258   8.731
  658POPC   D2A12220  12.663  12.235   8.337
  658POPC   C3A12221  12.937  12.220   7.994
  658POPC   C4A12222  12.982  12.309   7.575
  658POPC   C1B12223  12.638  11.808   8.852
  658POPC   C2B12224  12.677  11.697   8.430
  658POPC   C3B12225  12.617  11.808   8.031
  658POPC   C4B12226  12.947  11.789   7.740
  659POPC   NC312227   2.282  11.715   9.625
  659POPC   PO412228   1.895  11.198   9.552
  659POPC   GL112229   1.874  11.420   9.172
  659POPC   GL212230   2.224  11.516   9.143
  659POPC   C1A12231   1.670  11.352   8.767
  659POPC   D2A12232   1.888  11.221   8.387
  659POPC   C3A12233   1.783  11.359   8.003
  659POPC   C4A12234   1.837  11.137   7.654
  659POPC   C1B12235   2.284  11.314   8.711
  659POPC   C2B12236   2.403  11.246   8.239
  659POPC   C3B12237   2.311  11.235   7.777
  659POPC   C4B12238   2.223  10.973   7.381
  660POPC   NC312239  23.303  11.759   9.481
  660POPC   PO412240  22.843  12.171   9.663
  660POPC   GL112241  22.877  12.057   9.238
  660POPC   GL212242  22.741  12.381   9.159
  660POPC   C1A12243  23.095  11.898   8.855
  660POPC   D2A12244  23.189  12.039   8.439
  660POPC   C3A12245  22.923  11.907   8.081
  660POPC   C4A12246  23.038  12.010   7.646
  660POPC   C1B12247  22.841  12.334   8.722
  660POPC   C2B12248  22.641  12.283   8.297
  660POPC   C3B12249  22.786  12.395   7.863
  660POPC   C4B12250  22.686  12.271   7.395
  661POPC   NC312251  17.979  15.460   9.511
  661POPC   PO412252  18.479  14.898   9.400
  661POPC   GL112253  18.265  14.967   9.042
  661POPC   GL212254  18.200  15.304   9.071
  661POPC   C1A12255  18.070  15.007   8.656
  661POPC   D2A12256  18.057  15.265   8.307
  661POPC   C3A12257  18.272  15.217   7.898
  661POPC   C4A12258  18.345  15.023   7.510
  661POPC   C1B12259  17.931  15.507   8.770
  661POPC   C2B12260  17.734  15.633   8.378
  661POPC   C3B12261  17.950  15.593   7.939
  661POPC   C4B12262  17.970  15.367   7.490
  662POPC   NC312263  20.145  41.195   9.714
  662POPC   PO412264  19.698  40.706   9.464
  662POPC   GL112265  19.935  41.014   9.247
  662POPC   GL212266  19.637  41.189   9.145
  662POPC   C1A12267  20.099  40.911   8.837
  662POPC   D2A12268  19.990  41.063   8.412
  662POPC   C3A12269  20.000  40.715   8.156
  662POPC   C4A12270  20.055  40.691   7.753
  662POPC   C1B12271  19.604  40.944   8.750
  662POPC   C2B12272  19.539  40.736   8.361
  662POPC   C3B12273  19.560  40.830   7.942
  662POPC   C4B12274  19.854  41.143   7.838
  663POPC   NC312275  10.021   8.104   9.434
  663POPC   PO412276   9.374   8.425   9.469
  663POPC   GL112277   9.553   8.167   9.154
  663POPC   GL212278   9.796   8.432   9.124
  663POPC   C1A12279   9.581   7.895   8.782
  663POPC   D2A12280   9.828   7.885   8.390
  663POPC   C3A12281   9.758   8.078   7.952
  663POPC   C4A12282   9.604   8.062   7.469
  663POPC   C1B12283  10.002   8.222   8.771
  663POPC   C2B12284  10.049   8.354   8.344
  663POPC   C3B12285   9.989   8.530   7.936
  663POPC   C4B12286  10.040   8.308   7.562
  664POPC   NC312287  27.368  32.325   9.293
  664POPC   PO412288  27.880  31.952   9.672
  664POPC   GL112289  27.858  32.144   9.183
  664POPC   GL212290  27.843  32.484   9.197
  664POPC   C1A12291  27.602  32.125   8.722
  664POPC   D2A12292  27.734  31.991   8.310
  664POPC   C3A12293  27.472  32.050   7.940
  664POPC   C4A12294  27.192  32.113   7.560
  664POPC   C1B12295  27.760  32.604   8.810
  664POPC   C2B12296  27.873  32.486   8.404
  664POPC   C3B12297  27.800  32.435   7.971
  664POPC   C4B12298  27.537  32.638   7.691
  665POPC   NC312299  31.577  44.201   9.399
  665POPC   PO412300  31.407  43.552   9.440
  665POPC   GL112301  31.288  43.832   9.148
  665POPC   GL212302  31.082  44.095   9.283
  665POPC   C1A12303  31.510  43.883   8.761
  665POPC   D2A12304  31.640  43.558   8.480
  665POPC   C3A12305  31.532  43.726   8.110
  665POPC   C4A12306  31.404  43.629   7.745
  665POPC   C1B12307  31.092  44.171   8.824
  665POPC   C2B12308  31.010  43.878   8.494
  665POPC   C3B12309  31.016  43.874   8.054
  665POPC   C4B12310  31.231  44.095   7.729
  666POPC   NC312311   8.240  41.221   9.563
  666POPC   PO412312   8.091  40.531   9.524
  666POPC   GL112313   8.016  40.630   9.162
  666POPC   GL212314   7.932  40.979   9.229
  666POPC   C1A12315   7.854  40.567   8.775
  666POPC   D2A12316   7.822  40.720   8.380
  666POPC   C3A12317   8.083  40.514   8.116
  666POPC   C4A12318   7.999  40.438   7.692
  666POPC   C1B12319   8.204  40.961   8.849
  666POPC   C2B12320   8.300  40.938   8.425
  666POPC   C3B12321   8.106  41.019   8.002
  666POPC   C4B12322   8.376  41.099   7.634
  667POPC   NC312323  30.134  19.758   9.570
  667POPC   PO412324  30.587  20.198   9.410
  667POPC   GL112325  30.341  20.102   9.039
  667POPC   GL212326  30.052  19.895   9.058
  667POPC   C1A12327  30.270  20.000   8.590
  667POPC   D2A12328  29.956  19.880   8.319
  667POPC   C3A12329  29.822  20.198   8.073
  667POPC   C4A12330  30.048  19.994   7.772
  667POPC   C1B12331  29.733  20.079   8.733
  667POPC   C2B12332  29.443  19.940   8.340
  667POPC   C3B12333  29.512  19.832   7.879
  667POPC   C4B12334  29.732  19.761   7.439
  668POPC   NC312335   0.069  44.515   9.487
  668POPC   PO412336   0.559  44.975   9.448
  668POPC   GL112337   0.331  44.781   9.138
  668POPC   GL212338   0.009  44.967   9.203
  668POPC   C1A12339   0.352  44.468   8.797
  668POPC   D2A12340   0.545  44.337   8.415
  668POPC   C3A12341   0.376  44.596   8.074
  668POPC   C4A12342   0.458  44.689   7.637
  668POPC   C1B12343  44.991  44.843   8.780
  668POPC   C2B12344  44.983  44.575   8.418
  668POPC   C3B12345  44.896  44.799   8.040
  668POPC   C4B12346  44.951  44.598   7.716
  669POPC   NC312347  30.420   0.480   9.327
  669POPC   PO412348  31.038   0.424   9.515
  669POPC   GL112349  30.995   0.314   9.047
  669POPC   GL212350  30.752   0.592   8.950
  669POPC   C1A12351  30.959   0.311   8.549
  669POPC   D2A12352  30.657   0.607   8.338
  669POPC   C3A12353  30.751   0.567   7.906
  669POPC   C4A12354  30.908   0.154   7.894
  669POPC   C1B12355  30.499   0.270   8.739
  669POPC   C2B12356  30.216   0.207   8.437
  669POPC   C3B12357  30.422   0.153   8.086
  669POPC   C4B12358  30.224   0.103   7.737
  670POPC   NC312359  24.835   1.721   9.529
  670POPC   PO412360  25.479   1.949   9.478
  670POPC   GL112361  25.291   2.096   9.106
  670POPC   GL212362  25.640   2.289   9.116
  670POPC   C1A12363  25.089   1.900   8.739
  670POPC   D2A12364  25.255   1.678   8.372
  670POPC   C3A12365  25.236   1.863   7.973
  670POPC   C4A12366  25.466   1.822   7.587
  670POPC   C1B12367  25.459   2.444   8.760
  670POPC   C2B12368  25.390   2.186   8.408
  670POPC   C3B12369  25.587   2.237   8.018
  670POPC   C4B12370  25.233   2.354   7.801
  671POPC   NC312371  12.427  39.950   9.438
  671POPC   PO412372  11.856  40.035   9.693
  671POPC   GL112373  11.969  40.106   9.220
  671POPC   GL212374  12.293  40.187   8.989
  671POPC   C1A12375  11.931  39.903   8.811
  671POPC   D2A12376  12.109  40.161   8.474
  671POPC   C3A12377  12.186  40.010   8.051
  671POPC   C4A12378  12.060  40.200   7.644
  671POPC   C1B12379  12.424  39.812   8.731
  671POPC   C2B12380  12.575  39.606   8.366
  671POPC   C3B12381  12.603  39.692   7.915
  671POPC   C4B12382  12.303  39.766   7.580
  672POPC   NC312383   3.877  11.156   9.397
  672POPC   PO412384   3.392  11.547   9.312
  672POPC   GL112385   3.502  11.190   9.013
  672POPC   GL212386   3.823  11.312   8.927
  672POPC   C1A12387   3.644  11.025   8.566
  672POPC   D2A12388   3.730  11.087   8.120
  672POPC   C3A12389   3.324  11.215   7.887
  672POPC   C4A12390   3.114  10.940   7.586
  672POPC   C1B12391   3.598  11.656   8.715
  672POPC   C2B12392   3.332  11.660   8.379
  672POPC   C3B12393   3.646  11.598   8.091
  672POPC   C4B12394   3.750  11.387   7.693
  673POPC   NC312395  34.743  31.136   9.332
  673POPC   PO412396  34.581  31.795   9.572
  673POPC   GL112397  34.517  31.559   9.171
  673POPC   GL212398  34.185  31.533   9.080
  673POPC   C1A12399  34.506  31.360   8.728
  673POPC   D2A12400  34.675  31.344   8.298
  673POPC   C3A12401  34.946  31.137   8.035
  673POPC   C4A12402  34.672  31.263   7.697
  673POPC   C1B12403  34.121  31.739   8.694
  673POPC   C2B12404  34.259  31.604   8.329
  673POPC   C3B12405  34.218  31.331   7.953
  673POPC   C4B12406  34.181  31.315   7.481
  674POPC   NC312407  24.193  15.025   9.511
  674POPC   PO412408  24.562  15.502   9.271
  674POPC   GL112409  24.626  15.085   9.140
  674POPC   GL212410  24.419  15.186   8.876
  674POPC   C1A12411  24.749  14.833   8.760
  674POPC   D2A12412  24.460  14.938   8.362
  674POPC   C3A12413  24.644  15.099   7.968
  674POPC   C4A12414  24.821  15.516   7.816
  674POPC   C1B12415  24.062  15.487   8.851
  674POPC   C2B12416  23.933  15.555   8.456
  674POPC   C3B12417  24.145  15.342   8.123
  674POPC   C4B12418  24.293  15.375   7.705
  675POPC   NC312419   0.209  30.051   9.458
  675POPC   PO412420   0.302  29.398   9.551
  675POPC   GL112421   0.489  29.584   9.182
  675POPC   GL212422   0.652  29.910   9.227
  675POPC   C1A12423   0.485  29.756   8.747
  675POPC   D2A12424   0.612  29.735   8.307
  675POPC   C3A12425   0.310  30.000   8.091
  675POPC   C4A12426   0.043  29.961   7.732
  675POPC   C1B12427   0.721  30.189   8.865
  675POPC   C2B12428   0.667  30.248   8.429
  675POPC   C3B12429   0.773  30.253   7.991
  675POPC   C4B12430   0.584  30.015   7.657
  676POPC   NC312431  39.656  30.814   9.455
  676POPC   PO412432  39.102  30.402   9.552
  676POPC   GL112433  39.214  30.678   9.206
  676POPC   GL212434  38.961  30.906   9.105
  676POPC   C1A12435  39.382  30.821   8.793
  676POPC   D2A12436  39.483  30.618   8.397
  676POPC   C3A12437  39.250  30.722   8.032
  676POPC   C4A12438  39.203  30.882   7.620
  676POPC   C1B12439  38.883  30.949   8.682
  676POPC   C2B12440  38.936  31.043   8.265
  676POPC   C3B12441  38.770  30.935   7.855
  676POPC   C4B12442  38.758  30.932   7.365
  677POPC   NC312443  18.051  42.670   9.462
  677POPC   PO412444  18.433  43.280   9.413
  677POPC   GL112445  18.196  43.211   9.062
  677POPC   GL212446  18.070  42.876   8.992
  677POPC   C1A12447  18.387  43.088   8.659
  677POPC   D2A12448  18.206  42.772   8.387
  677POPC   C3A12449  18.111  43.006   8.023
  677POPC   C4A12450  18.509  43.273   7.899
  677POPC   C1B12451  17.884  43.168   8.651
  677POPC   C2B12452  18.098  43.424   8.322
  677POPC   C3B12453  18.035  43.483   7.856
  677POPC   C4B12454  17.816  43.127   7.599
  678POPC   NC312455   2.863  38.351   9.427
  678POPC   PO412456   2.271  38.818   9.556
  678POPC   GL112457   2.514  38.659   9.199
  678POPC   GL212458   2.401  38.295   9.159
  678POPC   C1A12459   2.808  38.714   8.812
  678POPC   D2A12460   2.689  38.654   8.367
  678POPC   C3A12461   2.939  38.559   7.978
  678POPC   C4A12462   2.683  38.682   7.619
  678POPC   C1B12463   2.649  38.220   8.751
  678POPC   C2B12464   2.818  38.174   8.319
  678POPC   C3B12465   2.596  38.213   7.894
  678POPC   C4B12466   2.756  38.204   7.444
  679POPC   NC312467   7.834   4.349   9.489
  679POPC   PO412468   7.250   4.239   9.712
  679POPC   GL112469   7.375   4.357   9.262
  679POPC   GL212470   7.491   4.668   9.250
  679POPC   C1A12471   7.344   4.172   8.837
  679POPC   D2A12472   7.254   3.990   8.450
  679POPC   C3A12473   7.468   4.142   8.065
  679POPC   C4A12474   7.307   4.345   7.728
  679POPC   C1B12475   7.696   4.545   8.864
  679POPC   C2B12476   7.741   4.412   8.422
  679POPC   C3B12477   7.731   4.589   7.990
  679POPC   C4B12478   7.808   4.515   7.552
  680POPC   NC312479  10.860  25.036   9.507
  680POPC   PO412480  10.354  25.496   9.635
  680POPC   GL112481  10.428  25.241   9.266
  680POPC   GL212482  10.727  25.371   9.121
  680POPC   C1A12483  10.302  25.052   8.851
  680POPC   D2A12484  10.207  25.111   8.394
  680POPC   C3A12485  10.527  25.101   8.087
  680POPC   C4A12486  10.572  24.973   7.646
  680POPC   C1B12487  10.667  25.344   8.672
  680POPC   C2B12488  10.654  25.576   8.313
  680POPC   C3B12489  10.340  25.573   7.988
  680POPC   C4B12490  10.234  25.372   7.623
  681POPC   NC312491  42.902  23.217   9.497
  681POPC   PO412492  43.317  22.672   9.308
  681POPC   GL112493  42.961  22.663   9.078
  681POPC   GL212494  42.989  23.015   9.042
  681POPC   C1A12495  42.771  22.695   8.665
  681POPC   D2A12496  42.891  22.920   8.280
  681POPC   C3A12497  42.940  22.671   7.887
  681POPC   C4A12498  42.981  22.749   7.442
  681POPC   C1B12499  43.238  22.946   8.687
  681POPC   C2B12500  43.393  23.134   8.285
  681POPC   C3B12501  43.182  23.135   7.881
  681POPC   C4B12502  43.265  23.228   7.445
  682POPC   NC312503   9.218   4.890   9.421
  682POPC   PO412504   8.773   5.397   9.582
  682POPC   GL112505   8.856   5.302   9.145
  682POPC   GL212506   9.169   5.448   9.127
  682POPC   C1A12507   8.998   5.032   8.764
  682POPC   D2A12508   8.724   4.782   8.458
  682POPC   C3A12509   8.787   4.927   8.027
  682POPC   C4A12510   9.238   5.022   7.946
  682POPC   C1B12511   9.224   5.540   8.673
  682POPC   C2B12512   9.286   5.433   8.223
  682POPC   C3B12513   9.218   5.458   7.714
  682POPC   C4B12514   9.231   5.616   7.245
  683POPC   NC312515  18.715  36.940   9.550
  683POPC   PO412516  19.322  36.833   9.255
  683POPC   GL112517  18.952  36.703   9.025
  683POPC   GL212518  18.860  37.016   9.029
  683POPC   C1A12519  18.876  36.813   8.574
  683POPC   D2A12520  19.233  36.837   8.285
  683POPC   C3A12521  19.182  36.690   7.857
  683POPC   C4A12522  19.248  36.683   7.427
  683POPC   C1B12523  19.130  37.274   8.744
  683POPC   C2B12524  19.308  37.364   8.326
  683POPC   C3B12525  19.204  37.193   7.919
  683POPC   C4B12526  18.774  37.022   7.743
  684POPC   NC312527  21.767  20.986   9.404
  684POPC   PO412528  21.221  20.535   9.507
  684POPC   GL112529  21.357  20.564   9.115
  684POPC   GL212530  21.663  20.424   8.983
  684POPC   C1A12531  21.141  20.716   8.767
  684POPC   D2A12532  21.270  20.560   8.401
  684POPC   C3A12533  21.222  20.599   8.002
  684POPC   C4A12534  21.630  20.635   7.812
  684POPC   C1B12535  21.269  20.205   8.772
  684POPC   C2B12536  21.126  20.084   8.327
  684POPC   C3B12537  21.178  20.131   7.850
  684POPC   C4B12538  20.998  20.332   7.464
  685POPC   NC312539   1.845  40.019   9.576
  685POPC   PO412540   2.253  39.542   9.379
  685POPC   GL112541   1.977  39.861   9.103
  685POPC   GL212542   1.833  40.230   9.114
  685POPC   C1A12543   2.127  40.092   8.739
  685POPC   D2A12544   1.987  39.945   8.384
  685POPC   C3A12545   2.003  40.089   7.974
  685POPC   C4A12546   2.020  40.251   7.547
  685POPC   C1B12547   1.636  40.323   8.703
  685POPC   C2B12548   1.732  40.406   8.256
  685POPC   C3B12549   1.559  40.260   7.819
  685POPC   C4B12550   1.557  40.283   7.331
  686POPC   NC312551  18.135  19.205   9.329
  686POPC   PO412552  18.798  19.017   9.324
  686POPC   GL112553  18.455  18.882   9.098
  686POPC   GL212554  18.062  18.748   9.122
  686POPC   C1A12555  18.476  18.977   8.676
  686POPC   D2A12556  18.434  18.876   8.265
  686POPC   C3A12557  18.274  19.270   8.091
  686POPC   C4A12558  18.447  19.508   7.772
  686POPC   C1B12559  17.967  18.786   8.662
  686POPC   C2B12560  17.941  18.880   8.189
  686POPC   C3B12561  18.199  18.911   7.756
  686POPC   C4B12562  18.102  18.890   7.290
  687POPC   NC312563  34.996  26.426   9.377
  687POPC   PO412564  34.457  25.920   9.454
  687POPC   GL112565  34.541  25.972   9.072
  687POPC   GL212566  34.900  25.933   9.114
  687POPC   C1A12567  34.345  26.018   8.691
  687POPC   D2A12568  34.392  26.298   8.353
  687POPC   C3A12569  34.425  26.133   7.961
  687POPC   C4A12570  34.393  25.787   7.663
  687POPC   C1B12571  34.789  25.721   8.707
  687POPC   C2B12572  34.630  25.804   8.315
  687POPC   C3B12573  34.833  25.787   7.922
  687POPC   C4B12574  34.852  26.149   7.671
  688POPC   NC312575  22.980   9.365   9.436
  688POPC   PO412576  22.965   9.990   9.526
  688POPC   GL112577  22.961   9.767   9.120
  688POPC   GL212578  23.293   9.590   9.077
  688POPC   C1A12579  22.705   9.792   8.739
  688POPC   D2A12580  22.817   9.795   8.306
  688POPC   C3A12581  22.622  10.103   8.044
  688POPC   C4A12582  22.597   9.790   7.770
  688POPC   C1B12583  23.215   9.733   8.658
  688POPC   C2B12584  23.253   9.520   8.266
  688POPC   C3B12585  23.072   9.567   7.870
  688POPC   C4B12586  23.274   9.678   7.490
  689POPC   NC312587   1.119  16.730   9.480
  689POPC   PO412588   1.682  16.986   9.145
  689POPC   GL112589   1.375  16.741   8.953
  689POPC   GL212590   1.012  16.831   8.957
  689POPC   C1A12591   1.290  16.825   8.516
  689POPC   D2A12592   1.091  16.948   8.126
  689POPC   C3A12593   1.352  16.756   7.793
  689POPC   C4A12594   1.275  16.522   7.392
  689POPC   C1B12595   0.933  16.484   8.641
  689POPC   C2B12596   1.087  16.432   8.193
  689POPC   C3B12597   0.876  16.572   7.787
  689POPC   C4B12598   0.785  16.389   7.369
  690POPC   NC312599   9.416  10.435   9.534
  690POPC   PO412600   8.792  10.680   9.642
  690POPC   GL112601   8.708  10.622   9.235
  690POPC   GL212602   9.015  10.465   9.206
  690POPC   C1A12603   8.677  10.407   8.830
  690POPC   D2A12604   8.829  10.303   8.421
  690POPC   C3A12605   8.697  10.436   8.017
  690POPC   C4A12606   8.779  10.704   7.670
  690POPC   C1B12607   9.198  10.350   8.808
  690POPC   C2B12608   9.357  10.327   8.371
  690POPC   C3B12609   9.246  10.367   7.929
  690POPC   C4B12610   9.507  10.435   7.546
  691POPC   NC312611  39.604  42.475   9.550
  691POPC   PO412612  40.188  42.066   9.493
  691POPC   GL112613  40.117  42.345   9.161
  691POPC   GL212614  39.841  42.589   9.140
  691POPC   C1A12615  40.070  42.319   8.744
  691POPC   D2A12616  40.255  42.293   8.400
  691POPC   C3A12617  39.998  42.156   8.111
  691POPC   C4A12618  40.045  42.420   7.763
  691POPC   C1B12619  39.638  42.578   8.774
  691POPC   C2B12620  39.776  42.545   8.348
  691POPC   C3B12621  39.586  42.613   7.956
  691POPC   C4B12622  39.671  42.682   7.546
  692POPC   NC312623  15.803  28.866   9.663
  692POPC   PO412624  16.157  29.398   9.557
  692POPC   GL112625  15.954  29.176   9.247
  692POPC   GL212626  16.053  28.835   9.197
  692POPC   C1A12627  15.745  29.281   8.895
  692POPC   D2A12628  15.699  29.361   8.452
  692POPC   C3A12629  16.003  29.178   8.168
  692POPC   C4A12630  15.840  29.213   7.779
  692POPC   C1B12631  16.032  28.881   8.744
  692POPC   C2B12632  15.728  28.819   8.398
  692POPC   C3B12633  15.727  28.747   7.947
  692POPC   C4B12634  15.907  28.743   7.536
  693POPC   NC312635  19.577  13.693  10.019
  693POPC   PO412636  20.070  13.832   9.586
  693POPC   GL112637  20.050  13.781   9.148
  693POPC   GL212638  20.169  13.444   9.074
  693POPC   C1A12639  19.819  13.976   8.793
  693POPC   D2A12640  19.641  13.932   8.431
  693POPC   C3A12641  19.881  13.809   8.051
  693POPC   C4A12642  19.723  13.863   7.632
  693POPC   C1B12643  19.821  13.470   8.805
  693POPC   C2B12644  19.715  13.434   8.378
  693POPC   C3B12645  19.721  13.321   7.956
  693POPC   C4B12646  20.118  13.409   7.734
  694POPC   NC312647   4.348  16.534   9.566
  694POPC   PO412648   4.239  17.191   9.348
  694POPC   GL112649   4.392  16.844   9.154
  694POPC   GL212650   4.109  16.634   9.087
  694POPC   C1A12651   4.562  16.794   8.757
  694POPC   D2A12652   4.355  17.023   8.421
  694POPC   C3A12653   4.270  16.739   8.093
  694POPC   C4A12654   4.574  16.608   7.810
  694POPC   C1B12655   3.942  16.915   8.743
  694POPC   C2B12656   3.857  17.122   8.311
  694POPC   C3B12657   3.964  17.092   7.856
  694POPC   C4B12658   4.362  17.044   7.686
  695POPC   NC312659  41.155  19.625   9.498
  695POPC   PO412660  41.799  19.798   9.334
  695POPC   GL112661  41.477  19.673   9.099
  695POPC   GL212662  41.282  19.972   9.130
  695POPC   C1A12663  41.548  19.496   8.671
  695POPC   D2A12664  41.675  19.785   8.354
  695POPC   C3A12665  41.728  19.863   7.917
  695POPC   C4A12666  41.605  19.647   7.552
  695POPC   C1B12667  41.402  20.017   8.732
  695POPC   C2B12668  41.402  20.218   8.320
  695POPC   C3B12669  41.239  20.072   7.919
  695POPC   C4B12670  41.279  20.043   7.437
  696POPC   NC312671  39.112   8.585   9.458
  696POPC   PO412672  39.100   7.920   9.407
  696POPC   GL112673  39.294   8.251   9.102
  696POPC   GL212674  39.699   8.229   9.083
  696POPC   C1A12675  39.037   8.550   8.774
  696POPC   D2A12676  38.869   8.562   8.308
  696POPC   C3A12677  39.115   8.231   8.048
  696POPC   C4A12678  39.028   8.030   7.632
  696POPC   C1B12679  39.577   8.569   8.797
  696POPC   C2B12680  39.401   8.574   8.368
  696POPC   C3B12681  39.612   8.463   7.959
  696POPC   C4B12682  39.465   8.324   7.577
  697POPC   NC312683   4.240  25.219   9.571
  697POPC   PO412684   4.178  25.852   9.380
  697POPC   GL112685   4.464  25.562   9.065
  697POPC   GL212686   4.460  25.148   9.101
  697POPC   C1A12687   4.433  25.402   8.648
  697POPC   D2A12688   4.306  25.125   8.349
  697POPC   C3A12689   4.383  25.311   7.941
  697POPC   C4A12690   4.159  25.350   7.544
  697POPC   C1B12691   4.746  25.028   8.774
  697POPC   C2B12692   4.831  25.125   8.334
  697POPC   C3B12693   4.689  24.894   7.937
  697POPC   C4B12694   4.580  25.078   7.505
  698POPC   NC312695   6.916  11.004   9.374
  698POPC   PO412696   6.552  11.546   9.558
  698POPC   GL112697   6.696  11.435   9.159
  698POPC   GL212698   6.383  11.429   9.053
  698POPC   C1A12699   6.770  11.331   8.707
  698POPC   D2A12700   7.012  11.351   8.330
  698POPC   C3A12701   6.868  11.140   8.011
  698POPC   C4A12702   6.975  11.263   7.659
  698POPC   C1B12703   6.257  11.461   8.641
  698POPC   C2B12704   6.338  11.360   8.203
  698POPC   C3B12705   6.263  11.626   7.883
  698POPC   C4B12706   6.292  11.955   7.669
  699POPC   NC312707  44.947  32.464   9.738
  699POPC   PO412708  44.520  32.038   9.320
  699POPC   GL112709  44.495  32.200   8.916
  699POPC   GL212710  44.851  32.172   8.778
  699POPC   C1A12711  44.421  32.179   8.481
  699POPC   D2A12712  44.648  32.361   8.128
  699POPC   C3A12713  44.552  32.091   7.785
  699POPC   C4A12714  44.482  31.888   7.374
  699POPC   C1B12715   0.026  32.565   8.657
  699POPC   C2B12716   0.088  32.798   8.264
  699POPC   C3B12717  44.986  32.651   7.867
  699POPC   C4B12718  44.841  32.408   7.519
  700POPC   NC312719   2.955  29.884   9.568
  700POPC   PO412720   2.367  30.241   9.309
  700POPC   GL112721   2.725  30.021   9.132
  700POPC   GL212722   3.107  30.084   9.146
  700POPC   C1A12723   2.802  29.795   8.781
  700POPC   D2A12724   2.657  29.544   8.494
  700POPC   C3A12725   2.724  29.759   8.147
  700POPC   C4A12726   2.488  29.748   7.826
  700POPC   C1B12727   3.091  30.220   8.788
  700POPC   C2B12728   2.922  30.171   8.416
  700POPC   C3B12729   3.071  30.140   8.045
  700POPC   C4B12730   2.853  30.086   7.724
  701POPC   NC312731  43.439   6.346   9.495
  701POPC   PO412732  43.933   6.722   9.599
  701POPC   GL112733  43.916   6.652   9.169
  701POPC   GL212734  43.816   7.010   9.091
  701POPC   C1A12735  44.059   6.738   8.744
  701POPC   D2A12736  43.809   6.836   8.397
  701POPC   C3A12737  43.897   6.643   8.003
  701POPC   C4A12738  43.998   6.552   7.585
  701POPC   C1B12739  43.480   7.124   8.790
  701POPC   C2B12740  43.334   7.102   8.378
  701POPC   C3B12741  43.469   6.907   8.016
  701POPC   C4B12742  43.689   6.997   7.646
  702POPC   NC312743  37.588  14.367   9.562
  702POPC   PO412744  37.394  14.854   9.147
  702POPC   GL112745  37.645  14.513   9.046
  702POPC   GL212746  37.394  14.248   9.104
  702POPC   C1A12747  37.831  14.393   8.637
  702POPC   D2A12748  37.686  14.247   8.221
  702POPC   C3A12749  37.855  14.437   7.829
  702POPC   C4A12750  37.871  14.423   7.358
  702POPC   C1B12751  37.398  14.116   8.693
  702POPC   C2B12752  37.175  14.286   8.343
  702POPC   C3B12753  37.307  14.531   7.997
  702POPC   C4B12754  37.396  14.334   7.624
  703POPC   NC312755  11.701  10.022   9.468
  703POPC   PO412756  11.039  10.064   9.718
  703POPC   GL112757  11.209   9.826   9.325
  703POPC   GL212758  11.183   9.464   9.246
  703POPC   C1A12759  11.179   9.806   8.856
  703POPC   D2A12760  11.149  10.010   8.446
  703POPC   C3A12761  11.231   9.744   8.086
  703POPC   C4A12762  11.080   9.922   7.722
  703POPC   C1B12763  10.959   9.325   8.861
  703POPC   C2B12764  10.924   9.441   8.428
  703POPC   C3B12765  10.739   9.558   8.032
  703POPC   C4B12766  10.825   9.518   7.576
  704POPC   NC312767  25.300   2.416   9.498
  704POPC   PO412768  25.156   3.116   9.652
  704POPC   GL112769  25.249   2.905   9.199
  704POPC   GL212770  25.600   2.787   9.209
  704POPC   C1A12771  25.148   2.863   8.709
  704POPC   D2A12772  25.263   2.666   8.294
  704POPC   C3A12773  25.423   2.835   7.917
  704POPC   C4A12774  25.238   2.794   7.505
  704POPC   C1B12775  25.645   2.964   8.788
  704POPC   C2B12776  25.565   3.093   8.364
  704POPC   C3B12777  25.708   3.297   7.985
  704POPC   C4B12778  25.580   3.383   7.582
  705POPC   NC312779  29.782  12.986   9.365
  705POPC   PO412780  29.685  13.635   9.614
  705POPC   GL112781  29.899  13.664   9.149
  705POPC   GL212782  30.248  13.572   8.913
  705POPC   C1A12783  29.890  13.874   8.736
  705POPC   D2A12784  30.091  13.661   8.390
  705POPC   C3A12785  29.862  13.629   8.002
  705POPC   C4A12786  29.836  13.815   7.637
  705POPC   C1B12787  30.327  13.168   8.649
  705POPC   C2B12788  30.260  12.992   8.251
  705POPC   C3B12789  30.260  13.319   7.972
  705POPC   C4B12790  30.347  13.787   7.962
  706POPC   NC312791  14.182  16.345   9.582
  706POPC   PO412792  14.188  17.018   9.470
  706POPC   GL112793  14.416  16.742   9.209
  706POPC   GL212794  14.202  16.492   9.112
  706POPC   C1A12795  14.424  16.789   8.748
  706POPC   D2A12796  14.242  17.028   8.405
  706POPC   C3A12797  14.426  16.919   7.961
  706POPC   C4A12798  14.438  16.676   7.529
  706POPC   C1B12799  14.004  16.298   8.813
  706POPC   C2B12800  14.143  16.485   8.417
  706POPC   C3B12801  14.257  16.445   7.985
  706POPC   C4B12802  14.056  16.293   7.613
  707POPC   NC312803  26.727  33.074   9.435
  707POPC   PO412804  27.368  32.786   9.467
  707POPC   GL112805  27.044  32.779   9.149
  707POPC   GL212806  26.695  32.614   9.204
  707POPC   C1A12807  26.957  33.078   8.821
  707POPC   D2A12808  27.043  32.930   8.417
  707POPC   C3A12809  26.900  33.194   8.082
  707POPC   C4A12810  26.661  33.167   7.734
  707POPC   C1B12811  26.636  32.689   8.760
  707POPC   C2B12812  26.547  32.830   8.327
  707POPC   C3B12813  26.668  32.696   7.936
  707POPC   C4B12814  26.541  32.743   7.491
  708POPC   NC312815  22.519   1.036  10.071
  708POPC   PO412816  21.985   1.053   9.625
  708POPC   GL112817  22.135   1.036   9.199
  708POPC   GL212818  22.340   1.352   9.112
  708POPC   C1A12819  21.922   1.249   8.856
  708POPC   D2A12820  21.788   1.396   8.482
  708POPC   C3A12821  22.102   1.359   8.180
  708POPC   C4A12822  22.017   1.418   7.780
  708POPC   C1B12823  22.415   1.306   8.677
  708POPC   C2B12824  22.575   1.511   8.350
  708POPC   C3B12825  22.602   1.441   7.923
  708POPC   C4B12826  22.415   1.094   7.756
  709POPC   NC312827  22.935  28.948   9.182
  709POPC   PO412828  23.138  28.367   9.470
  709POPC   GL112829  22.997  28.273   9.062
  709POPC   GL212830  22.726  28.459   9.138
  709POPC   C1A12831  23.039  28.150   8.603
  709POPC   D2A12832  23.068  27.959   8.171
  709POPC   C3A12833  23.007  28.310   7.915
  709POPC   C4A12834  23.376  28.521   7.828
  709POPC   C1B12835  22.640  28.574   8.704
  709POPC   C2B12836  22.769  28.638   8.272
  709POPC   C3B12837  22.584  28.607   7.863
  709POPC   C4B12838  22.716  28.445   7.481
  710POPC   NC312839  35.783   2.432   9.339
  710POPC   PO412840  35.321   1.854   9.511
  710POPC   GL112841  35.324   1.779   9.086
  710POPC   GL212842  35.203   2.136   8.972
  710POPC   C1A12843  35.408   1.788   8.668
  710POPC   D2A12844  35.468   2.165   8.476
  710POPC   C3A12845  35.439   2.169   8.086
  710POPC   C4A12846  35.483   1.790   7.908
  710POPC   C1B12847  34.972   2.064   8.599
  710POPC   C2B12848  35.070   1.817   8.235
  710POPC   C3B12849  35.001   1.779   7.781
  710POPC   C4B12850  34.873   1.798   7.342
  711POPC   NC312851  17.813  12.177   9.506
  711POPC   PO412852  17.106  11.960   9.519
  711POPC   GL112853  17.373  12.258   9.187
  711POPC   GL212854  17.717  12.133   9.018
  711POPC   C1A12855  17.467  12.466   8.772
  711POPC   D2A12856  17.797  12.305   8.485
  711POPC   C3A12857  17.590  12.029   8.164
  711POPC   C4A12858  17.285  12.130   7.790
  711POPC   C1B12859  17.631  11.852   8.670
  711POPC   C2B12860  17.808  11.594   8.364
  711POPC   C3B12861  17.963  11.678   7.964
  711POPC   C4B12862  17.805  12.004   7.658
  712POPC   NC312863  23.520  14.862   9.462
  712POPC   PO412864  23.866  15.444   9.576
  712POPC   GL112865  23.738  15.244   9.193
  712POPC   GL212866  23.958  14.975   9.053
  712POPC   C1A12867  23.588  15.247   8.775
  712POPC   D2A12868  23.436  15.468   8.418
  712POPC   C3A12869  23.641  15.446   8.043
  712POPC   C4A12870  23.703  15.139   7.781
  712POPC   C1B12871  24.013  15.036   8.612
  712POPC   C2B12872  23.828  14.962   8.247
  712POPC   C3B12873  24.107  14.881   7.896
  712POPC   C4B12874  23.940  14.859   7.439
  713POPC   NC312875  13.237   4.940   9.521
  713POPC   PO412876  12.629   4.779   9.491
  713POPC   GL112877  12.810   5.121   9.215
  713POPC   GL212878  13.019   5.398   9.329
  713POPC   C1A12879  13.024   5.091   8.834
  713POPC   D2A12880  12.839   4.966   8.452
  713POPC   C3A12881  12.782   5.209   8.110
  713POPC   C4A12882  12.789   4.883   7.783
  713POPC   C1B12883  13.168   5.555   8.940
  713POPC   C2B12884  13.158   5.433   8.462
  713POPC   C3B12885  13.243   5.479   7.993
  713POPC   C4B12886  12.944   5.343   7.654
  714POPC   NC312887  43.515  37.761  10.019
  714POPC   PO412888  43.036  37.733   9.547
  714POPC   GL112889  43.009  37.713   9.121
  714POPC   GL212890  42.891  37.421   9.102
  714POPC   C1A12891  43.022  37.840   8.691
  714POPC   D2A12892  42.897  37.845   8.265
  714POPC   C3A12893  43.257  37.939   8.022
  714POPC   C4A12894  43.639  37.869   7.821
  714POPC   C1B12895  43.212  37.338   8.798
  714POPC   C2B12896  43.295  37.470   8.377
  714POPC   C3B12897  43.097  37.446   7.991
  714POPC   C4B12898  43.242  37.558   7.625
  715POPC   NC312899  41.848  24.737   9.288
  715POPC   PO412900  42.178  24.269   9.634
  715POPC   GL112901  42.265  24.446   9.189
  715POPC   GL212902  42.039  24.458   8.917
  715POPC   C1A12903  42.567  24.503   8.846
  715POPC   D2A12904  42.567  24.271   8.446
  715POPC   C3A12905  42.263  24.258   8.122
  715POPC   C4A12906  42.336  24.257   7.708
  715POPC   C1B12907  42.204  24.832   8.714
  715POPC   C2B12908  42.388  24.756   8.313
  715POPC   C3B12909  42.209  24.731   7.898
  715POPC   C4B12910  42.265  24.666   7.451
  716POPC   NC312911  33.311   4.553   9.376
  716POPC   PO412912  32.930   4.115   9.764
  716POPC   GL112913  32.918   4.152   9.310
  716POPC   GL212914  32.872   4.472   9.138
  716POPC   C1A12915  32.971   4.027   8.883
  716POPC   D2A12916  32.925   4.215   8.486
  716POPC   C3A12917  32.918   4.054   8.056
  716POPC   C4A12918  32.898   4.295   7.677
  716POPC   C1B12919  33.078   4.663   8.774
  716POPC   C2B12920  33.213   4.605   8.359
  716POPC   C3B12921  33.027   4.702   7.976
  716POPC   C4B12922  33.235   4.675   7.580
  717POPC   NC312923  27.211  22.975   9.422
  717POPC   PO412924  26.586  22.749   9.649
  717POPC   GL112925  26.665  22.756   9.210
  717POPC   GL212926  26.829  23.049   9.082
  717POPC   C1A12927  26.817  22.652   8.781
  717POPC   D2A12928  26.808  22.969   8.440
  717POPC   C3A12929  26.756  22.758   8.057
  717POPC   C4A12930  26.496  22.736   7.668
  717POPC   C1B12931  27.192  23.018   8.777
  717POPC   C2B12932  27.325  23.070   8.348
  717POPC   C3B12933  27.047  23.203   8.028
  717POPC   C4B12934  26.905  23.037   7.663
  718POPC   NC312935  15.443  15.402   9.402
  718POPC   PO412936  14.850  15.273   9.381
  718POPC   GL112937  15.111  15.287   9.055
  718POPC   GL212938  15.255  14.951   9.150
  718POPC   C1A12939  15.263  15.327   8.655
  718POPC   D2A12940  14.911  15.370   8.369
  718POPC   C3A12941  14.984  15.396   7.944
  718POPC   C4A12942  15.346  15.446   7.697
  718POPC   C1B12943  14.974  14.883   8.790
  718POPC   C2B12944  15.162  14.909   8.389
  718POPC   C3B12945  15.316  15.022   8.017
  718POPC   C4B12946  15.098  14.990   7.635
  719POPC   NC312947  31.011  28.176   9.386
  719POPC   PO412948  30.318  28.366   9.445
  719POPC   GL112949  30.655  28.535   9.197
  719POPC   GL212950  30.633  28.229   9.030
  719POPC   C1A12951  30.944  28.583   8.815
  719POPC   D2A12952  31.042  28.664   8.355
  719POPC   C3A12953  30.946  28.282   8.124
  719POPC   C4A12954  30.839  28.240   7.706
  719POPC   C1B12955  30.334  28.481   8.785
  719POPC   C2B12956  30.261  28.292   8.423
  719POPC   C3B12957  30.422  28.352   8.032
  719POPC   C4B12958  30.337  28.206   7.652
  720POPC   NC312959  43.128  20.212   9.537
  720POPC   PO412960  43.554  19.719   9.729
  720POPC   GL112961  43.320  19.775   9.252
  720POPC   GL212962  43.108  19.464   9.158
  720POPC   C1A12963  43.054  19.869   8.835
  720POPC   D2A12964  42.957  20.148   8.452
  720POPC   C3A12965  43.016  20.029   8.008
  720POPC   C4A12966  43.088  19.784   7.631
  720POPC   C1B12967  43.349  19.467   8.777
  720POPC   C2B12968  43.145  19.629   8.377
  720POPC   C3B12969  43.153  19.427   7.984
  720POPC   C4B12970  43.386  19.356   7.623
  721POPC   NC312971  42.321  14.819   9.679
  721POPC   PO412972  42.314  15.443   9.549
  721POPC   GL112973  42.196  15.206   9.228
  721POPC   GL212974  42.521  15.015   9.218
  721POPC   C1A12975  42.083  15.332   8.817
  721POPC   D2A12976  42.362  15.376   8.454
  721POPC   C3A12977  42.217  15.242   8.058
  721POPC   C4A12978  42.326  15.408   7.663
  721POPC   C1B12979  42.680  14.837   8.825
  721POPC   C2B12980  42.637  14.889   8.383
  721POPC   C3B12981  42.549  14.840   7.954
  721POPC   C4B12982  42.326  14.923   7.662
  722POPC   NC312983   9.878  34.872   9.830
  722POPC   PO412984   9.493  35.193   9.375
  722POPC   GL112985   9.511  35.364   9.030
  722POPC   GL212986   9.872  35.325   9.015
  722POPC   C1A12987   9.539  35.305   8.614
  722POPC   D2A12988   9.890  35.306   8.344
  722POPC   C3A12989   9.663  35.344   7.972
  722POPC   C4A12990   9.836  35.208   7.603
  722POPC   C1B12991   9.993  35.643   8.747
  722POPC   C2B12992  10.183  35.742   8.359
  722POPC   C3B12993  10.090  35.651   7.960
  722POPC   C4B12994  10.076  35.960   7.694
  723POPC   NC312995   6.360  36.376   9.518
  723POPC   PO412996   6.451  35.737   9.585
  723POPC   GL112997   6.368  35.997   9.174
  723POPC   GL212998   6.644  36.284   9.123
  723POPC   C1A12999   6.401  36.130   8.714
  723POPC   D2A13000   6.660  36.063   8.359
  723POPC   C3A13001   6.333  36.008   8.098
  723POPC   C4A13002   6.222  36.174   7.707
  723POPC   C1B13003   6.847  36.419   8.736
  723POPC   C2B13004   6.659  36.585   8.376
  723POPC   C3B13005   6.568  36.458   7.947
  723POPC   C4B13006   6.750  36.099   7.794
  724POPC   NC313007  27.148  34.625   9.373
  724POPC   PO413008  27.776  34.707   9.561
  724POPC   GL113009  27.620  34.591   9.157
  724POPC   GL213010  27.484  34.251   9.217
  724POPC   C1A13011  27.539  34.725   8.723
  724POPC   D2A13012  27.687  34.793   8.307
  724POPC   C3A13013  27.435  34.903   7.938
  724POPC   C4A13014  27.505  34.794   7.501
  724POPC   C1B13015  27.262  34.293   8.804
  724POPC   C2B13016  27.478  34.305   8.381
  724POPC   C3B13017  27.504  34.401   7.932
  724POPC   C4B13018  27.817  34.335   7.625
  725POPC   NC313019  16.866  17.176   9.400
  725POPC   PO413020  16.531  17.768   9.400
  725POPC   GL113021  16.651  17.495   9.045
  725POPC   GL213022  16.414  17.268   9.170
  725POPC   C1A13023  16.995  17.442   8.692
  725POPC   D2A13024  17.206  17.699   8.314
  725POPC   C3A13025  16.969  17.722   7.915
  725POPC   C4A13026  16.556  17.896   7.841
  725POPC   C1B13027  16.418  17.108   8.775
  725POPC   C2B13028  16.630  17.208   8.390
  725POPC   C3B13029  16.573  17.379   8.000
  725POPC   C4B13030  16.510  17.148   7.657
  726POPC   NC313031   4.639  30.037   9.542
  726POPC   PO413032   4.305  29.540   9.688
  726POPC   GL113033   4.318  29.837   9.224
  726POPC   GL213034   4.040  30.050   9.250
  726POPC   C1A13035   4.455  29.682   8.755
  726POPC   D2A13036   4.620  29.576   8.387
  726POPC   C3A13037   4.472  29.843   8.067
  726POPC   C4A13038   4.616  29.891   7.662
  726POPC   C1B13039   4.132  30.047   8.803
  726POPC   C2B13040   4.030  29.862   8.386
  726POPC   C3B13041   3.972  30.046   7.966
  726POPC   C4B13042   4.178  30.148   7.570
  727POPC   NC313043  14.313  13.181   9.534
  727POPC   PO413044  14.582  13.865   9.456
  727POPC   GL113045  14.367  13.718   9.093
  727POPC   GL213046  14.465  13.398   9.080
  727POPC   C1A13047  14.175  13.933   8.727
  727POPC   D2A13048  13.925  14.021   8.337
  727POPC   C3A13049  14.153  13.934   7.966
  727POPC   C4A13050  14.275  13.557   7.741
  727POPC   C1B13051  14.552  13.548   8.655
  727POPC   C2B13052  14.520  13.620   8.217
  727POPC   C3B13053  14.765  13.504   7.881
  727POPC   C4B13054  14.686  13.452   7.455
  728POPC   NC313055  44.756  34.983   9.459
  728POPC   PO413056  44.398  34.454   9.497
  728POPC   GL113057  44.619  34.374   9.088
  728POPC   GL213058  44.998  34.355   9.081
  728POPC   C1A13059  44.537  34.466   8.648
  728POPC   D2A13060  44.446  34.815   8.438
  728POPC   C3A13061  44.782  34.851   8.177
  728POPC   C4A13062  44.658  34.785   7.784
  728POPC   C1B13063  44.877  34.074   8.743
  728POPC   C2B13064  44.674  34.059   8.351
  728POPC   C3B13065  44.697  34.320   7.988
  728POPC   C4B13066  44.905  34.363   7.579
  729POPC   NC313067  30.676  21.968   9.576
  729POPC   PO413068  30.772  22.621   9.549
  729POPC   GL113069  30.600  22.297   9.183
  729POPC   GL213070  30.519  21.907   9.107
  729POPC   C1A13071  30.670  22.313   8.722
  729POPC   D2A13072  31.006  22.347   8.406
  729POPC   C3A13073  30.932  22.168   8.021
  729POPC   C4A13074  30.666  22.211   7.674
  729POPC   C1B13075  30.431  21.721   8.711
  729POPC   C2B13076  30.586  21.929   8.341
  729POPC   C3B13077  30.591  21.769   7.913
  729POPC   C4B13078  30.389  21.809   7.490
  730POPC   NC313079  25.737  11.379   9.569
  730POPC   PO413080  25.073  11.322   9.525
  730POPC   GL113081  25.350  11.323   9.203
  730POPC   GL213082  25.341  11.078   9.015
  730POPC   C1A13083  25.407  11.555   8.804
  730POPC   D2A13084  25.519  11.541   8.382
  730POPC   C3A13085  25.290  11.465   8.019
  730POPC   C4A13086  25.352  11.307   7.625
  730POPC   C1B13087  25.003  11.259   8.744
  730POPC   C2B13088  24.886  11.409   8.330
  730POPC   C3B13089  24.838  11.223   7.895
  730POPC   C4B13090  24.766  11.342   7.448
  731POPC   NC313091  21.884  19.642   9.482
  731POPC   PO413092  22.053  20.246   9.498
  731POPC   GL113093  22.153  19.924   9.154
  731POPC   GL213094  22.324  19.608   9.224
  731POPC   C1A13095  22.154  19.722   8.744
  731POPC   D2A13096  22.070  19.901   8.358
  731POPC   C3A13097  21.998  19.733   7.988
  731POPC   C4A13098  22.153  19.932   7.650
  731POPC   C1B13099  22.548  19.445   8.900
  731POPC   C2B13100  22.659  19.604   8.509
  731POPC   C3B13101  22.447  19.552   8.127
  731POPC   C4B13102  22.301  19.413   7.713
  732POPC   NC313103  43.694   2.524   9.540
  732POPC   PO413104  44.366   2.681   9.534
  732POPC   GL113105  44.087   2.930   9.202
  732POPC   GL213106  43.733   2.895   9.151
  732POPC   C1A13107  43.976   2.797   8.733
  732POPC   D2A13108  43.775   2.889   8.352
  732POPC   C3A13109  44.003   2.928   7.955
  732POPC   C4A13110  43.798   2.770   7.644
  732POPC   C1B13111  43.583   2.513   8.835
  732POPC   C2B13112  43.746   2.320   8.446
  732POPC   C3B13113  43.724   2.433   8.018
  732POPC   C4B13114  43.419   2.449   7.674
  733POPC   NC313115  30.959  42.679   9.708
  733POPC   PO413116  31.621  42.534   9.571
  733POPC   GL113117  31.659  42.370   9.169
  733POPC   GL213118  31.606  42.702   9.014
  733POPC   C1A13119  31.812  42.306   8.747
  733POPC   D2A13120  31.797  42.574   8.373
  733POPC   C3A13121  31.571  42.407   8.014
  733POPC   C4A13122  31.677  42.368   7.567
  733POPC   C1B13123  31.358  42.547   8.654
  733POPC   C2B13124  31.123  42.742   8.308
  733POPC   C3B13125  31.108  42.583   7.888
  733POPC   C4B13126  31.194  42.214   7.639
  734POPC   NC313127  17.471  25.024   9.915
  734POPC   PO413128  17.455  25.536   9.546
  734POPC   GL113129  17.268  25.622   9.141
  734POPC   GL213130  17.415  25.300   9.085
  734POPC   C1A13131  17.254  25.552   8.674
  734POPC   D2A13132  17.599  25.516   8.363
  734POPC   C3A13133  17.565  25.329   7.929
  734POPC   C4A13134  17.838  25.357   7.549
  734POPC   C1B13135  17.614  25.150   8.719
  734POPC   C2B13136  17.653  24.962   8.294
  734POPC   C3B13137  17.592  24.818   7.862
  734POPC   C4B13138  17.180  24.706   7.694
  735POPC   NC313139  13.071   9.338   9.465
  735POPC   PO413140  12.974  10.024   9.475
  735POPC   GL113141  12.814   9.728   9.213
  735POPC   GL213142  12.521   9.604   9.309
  735POPC   C1A13143  12.935   9.692   8.772
  735POPC   D2A13144  13.005   9.926   8.428
  735POPC   C3A13145  12.942   9.704   8.071
  735POPC   C4A13146  12.885   9.856   7.687
  735POPC   C1B13147  12.443   9.722   8.875
  735POPC   C2B13148  12.537   9.679   8.416
  735POPC   C3B13149  12.471   9.881   7.998
  735POPC   C4B13150  12.371   9.782   7.598
  736POPC   NC313151   8.751  37.936   9.501
  736POPC   PO413152   8.106  37.575   9.516
  736POPC   GL113153   8.310  37.834   9.202
  736POPC   GL213154   7.994  37.780   9.047
  736POPC   C1A13155   8.416  37.720   8.752
  736POPC   D2A13156   8.189  37.740   8.378
  736POPC   C3A13157   8.432  37.678   8.029
  736POPC   C4A13158   8.375  37.684   7.574
  736POPC   C1B13159   7.688  38.012   8.804
  736POPC   C2B13160   7.838  38.121   8.409
  736POPC   C3B13161   8.007  38.128   7.988
  736POPC   C4B13162   7.709  38.198   7.633
  737POPC   NC313163   2.214  24.709   9.253
  737POPC   PO413164   1.780  24.285   9.495
  737POPC   GL113165   1.960  24.284   9.065
  737POPC   GL213166   2.237  24.359   8.897
  737POPC   C1A13167   1.817  24.285   8.623
  737POPC   D2A13168   1.901  24.372   8.175
  737POPC   C3A13169   1.658  24.485   7.837
  737POPC   C4A13170   1.633  24.206   7.461
  737POPC   C1B13171   2.144  24.678   8.583
  737POPC   C2B13172   2.357  24.581   8.215
  737POPC   C3B13173   2.304  24.594   7.832
  737POPC   C4B13174   2.080  24.408   7.603
  738POPC   NC313175   7.693  23.505   9.341
  738POPC   PO413176   7.171  23.793   9.636
  738POPC   GL113177   7.249  23.758   9.196
  738POPC   GL213178   6.883  23.745   9.144
  738POPC   C1A13179   7.493  23.827   8.768
  738POPC   D2A13180   7.586  23.462   8.488
  738POPC   C3A13181   7.811  23.429   8.093
  738POPC   C4A13182   7.842  23.551   7.649
  738POPC   C1B13183   7.052  23.541   8.759
  738POPC   C2B13184   7.175  23.721   8.338
  738POPC   C3B13185   7.143  23.479   7.956
  738POPC   C4B13186   7.262  23.511   7.534
  739POPC   NC313187  40.461   9.416   9.600
  739POPC   PO413188  40.661   8.793   9.611
  739POPC   GL113189  40.674   8.996   9.203
  739POPC   GL213190  40.691   9.325   9.164
  739POPC   C1A13191  40.861   8.946   8.788
  739POPC   D2A13192  40.832   8.670   8.429
  739POPC   C3A13193  40.902   8.917   8.068
  739POPC   C4A13194  40.738   8.753   7.709
  739POPC   C1B13195  40.782   9.474   8.781
  739POPC   C2B13196  40.930   9.333   8.416
  739POPC   C3B13197  40.768   9.433   8.047
  739POPC   C4B13198  40.823   9.314   7.668
  740POPC   NC313199  23.432  10.149   9.581
  740POPC   PO413200  23.880  10.648   9.328
  740POPC   GL113201  23.698  10.574   8.960
  740POPC   GL213202  23.471  10.356   9.129
  740POPC   C1A13203  23.831  10.365   8.597
  740POPC   D2A13204  24.022  10.068   8.327
  740POPC   C3A13205  23.899  10.214   7.912
  740POPC   C4A13206  23.863  10.392   7.459
  740POPC   C1B13207  23.306  10.290   8.765
  740POPC   C2B13208  23.375  10.586   8.436
  740POPC   C3B13209  23.365  10.822   8.062
  740POPC   C4B13210  23.508  10.524   7.798
  741POPC   NC313211   0.324  11.174   9.809
  741POPC   PO413212  44.818  11.570   9.643
  741POPC   GL113213   0.078  11.263   9.264
  741POPC   GL213214   0.459  11.242   9.217
  741POPC   C1A13215   0.280  11.147   8.767
  741POPC   D2A13216   0.524  11.028   8.353
  741POPC   C3A13217   0.382  11.292   7.953
  741POPC   C4A13218   0.229  11.729   7.783
  741POPC   C1B13219   0.762  11.024   8.886
  741POPC   C2B13220   0.983  10.788   8.580
  741POPC   C3B13221   1.008  10.877   8.116
  741POPC   C4B13222   0.868  11.196   7.815
  742POPC   NC313223  35.389  19.258   9.728
  742POPC   PO413224  34.944  18.964   9.318
  742POPC   GL113225  35.223  19.186   9.095
  742POPC   GL213226  35.560  19.137   9.192
  742POPC   C1A13227  35.197  19.032   8.680
  742POPC   D2A13228  34.971  19.035   8.310
  742POPC   C3A13229  35.229  18.975   7.984
  742POPC   C4A13230  35.342  19.150   7.643
  742POPC   C1B13231  35.692  18.943   8.787
  742POPC   C2B13232  35.533  18.790   8.369
  742POPC   C3B13233  35.710  18.780   7.948
  742POPC   C4B13234  35.783  18.930   7.520
  743POPC   NC313235  12.804  17.919   9.498
  743POPC   PO413236  12.255  18.206   9.201
  743POPC   GL113237  12.705  18.195   9.067
  743POPC   GL213238  13.109  18.104   9.111
  743POPC   C1A13239  12.856  18.299   8.694
  743POPC   D2A13240  12.735  18.453   8.333
  743POPC   C3A13241  12.753  18.299   7.930
  743POPC   C4A13242  12.519  18.517   7.579
  743POPC   C1B13243  13.128  17.874   8.725
  743POPC   C2B13244  13.069  18.025   8.306
  743POPC   C3B13245  13.040  17.861   7.906
  743POPC   C4B13246  13.260  17.860   7.522
  744POPC   NC313247  23.482   1.022   9.561
  744POPC   PO413248  23.606   1.637   9.561
  744POPC   GL113249  23.474   1.432   9.167
  744POPC   GL213250  23.273   1.130   9.116
  744POPC   C1A13251  23.471   1.378   8.699
  744POPC   D2A13252  23.792   1.098   8.524
  744POPC   C3A13253  23.786   1.049   8.093
  744POPC   C4A13254  23.802   1.356   7.734
  744POPC   C1B13255  23.295   0.891   8.760
  744POPC   C2B13256  23.304   0.961   8.362
  744POPC   C3B13257  23.332   0.830   7.998
  744POPC   C4B13258  23.540   0.910   7.660
  745POPC   NC313259   9.637  44.847   9.517
  745POPC   PO413260   9.544  44.161   9.630
  745POPC   GL113261   9.613  44.402   9.265
  745POPC   GL213262   9.893  44.289   9.096
  745POPC   C1A13263   9.587  44.651   8.871
  745POPC   D2A13264   9.425  44.603   8.416
  745POPC   C3A13265   9.687  44.666   8.046
  745POPC   C4A13266   9.717  44.931   7.676
  745POPC   C1B13267   9.871  44.319   8.630
  745POPC   C2B13268   9.971  44.203   8.213
  745POPC   C3B13269   9.876  44.292   7.762
  745POPC   C4B13270   9.872  44.545   7.380
  746POPC   NC313271  17.252  42.640   9.522
  746POPC   PO413272  17.791  43.049   9.387
  746POPC   GL113273  17.516  43.043   9.036
  746POPC   GL213274  17.184  42.916   9.097
  746POPC   C1A13275  17.349  43.231   8.679
  746POPC   D2A13276  17.531  43.469   8.375
  746POPC   C3A13277  17.584  43.227   8.048
  746POPC   C4A13278  17.250  43.215   7.762
  746POPC   C1B13279  17.199  42.750   8.680
  746POPC   C2B13280  17.116  42.957   8.300
  746POPC   C3B13281  17.095  42.748   7.942
  746POPC   C4B13282  17.490  42.764   7.757
  747POPC   NC313283   8.365  24.166   9.301
  747POPC   PO413284   8.031  24.772   9.348
  747POPC   GL113285   8.032  24.619   8.973
  747POPC   GL213286   7.916  24.282   9.055
  747POPC   C1A13287   8.354  24.546   8.696
  747POPC   D2A13288   8.397  24.178   8.465
  747POPC   C3A13289   8.377  24.228   8.039
  747POPC   C4A13290   8.272  24.561   7.783
  747POPC   C1B13291   7.911  24.245   8.627
  747POPC   C2B13292   8.028  24.537   8.301
  747POPC   C3B13293   7.961  24.880   8.036
  747POPC   C4B13294   7.754  24.544   7.829
  748POPC   NC313295  12.449  21.445   9.679
  748POPC   PO413296  13.127  21.279   9.596
  748POPC   GL113297  12.939  21.433   9.200
  748POPC   GL213298  12.648  21.704   9.171
  748POPC   C1A13299  13.069  21.252   8.803
  748POPC   D2A13300  12.853  21.312   8.420
  748POPC   C3A13301  13.051  21.268   8.032
  748POPC   C4A13302  13.000  21.428   7.620
  748POPC   C1B13303  12.447  21.745   8.766
  748POPC   C2B13304  12.379  21.517   8.356
  748POPC   C3B13305  12.531  21.307   7.967
  748POPC   C4B13306  12.520  21.550   7.590
  749POPC   NC313307   6.138  41.786   9.417
  749POPC   PO413308   5.560  41.511   9.519
  749POPC   GL113309   5.826  41.427   9.149
  749POPC   GL213310   6.172  41.304   9.198
  749POPC   C1A13311   5.744  41.511   8.714
  749POPC   D2A13312   5.798  41.789   8.370
  749POPC   C3A13313   5.569  41.605   8.082
  749POPC   C4A13314   5.636  41.353   7.721
  749POPC   C1B13315   6.236  41.577   8.819
  749POPC   C2B13316   6.215  41.414   8.420
  749POPC   C3B13317   6.060  41.486   8.019
  749POPC   C4B13318   6.152  41.469   7.590
  750POPC   NC313319  36.700  39.181   9.188
  750POPC   PO413320  37.303  39.120   9.526
  750POPC   GL113321  37.214  39.204   9.118
  750POPC   GL213322  37.259  39.543   9.164
  750POPC   C1A13323  37.115  39.150   8.678
  750POPC   D2A13324  37.021  38.971   8.301
  750POPC   C3A13325  36.726  39.225   8.061
  750POPC   C4A13326  36.779  39.413   7.683
  750POPC   C1B13327  37.457  39.508   8.775
  750POPC   C2B13328  37.496  39.325   8.369
  750POPC   C3B13329  37.237  39.313   8.007
  750POPC   C4B13330  37.276  39.492   7.631
  751POPC   NC313331  20.212  41.934   9.514
  751POPC   PO413332  19.750  41.488   9.595
  751POPC   GL113333  19.926  41.609   9.217
  751POPC   GL213334  19.618  41.738   9.064
  751POPC   C1A13335  19.966  41.414   8.816
  751POPC   D2A13336  19.857  41.561   8.399
  751POPC   C3A13337  20.161  41.522   8.060
  751POPC   C4A13338  20.100  41.525   7.616
  751POPC   C1B13339  19.439  41.439   8.743
  751POPC   C2B13340  19.446  41.250   8.328
  751POPC   C3B13341  19.548  41.514   7.985
  751POPC   C4B13342  19.587  41.532   7.539
  752POPC   NC313343  24.817  11.730   9.393
  752POPC   PO413344  24.351  12.196   9.596
  752POPC   GL113345  24.417  11.980   9.203
  752POPC   GL213346  24.724  12.175   9.123
  752POPC   C1A13347  24.235  11.915   8.800
  752POPC   D2A13348  24.103  12.062   8.409
  752POPC   C3A13349  24.230  11.928   8.058
  752POPC   C4A13350  24.341  12.202   7.724
  752POPC   C1B13351  24.771  11.903   8.774
  752POPC   C2B13352  24.607  11.862   8.390
  752POPC   C3B13353  24.745  11.961   7.984
  752POPC   C4B13354  24.829  12.316   7.724
  753POPC   NC313355  25.106  39.619   9.309
  753POPC   PO413356  24.890  39.001   9.331
  753POPC   GL113357  25.125  39.123   9.030
  753POPC   GL213358  25.438  39.044   9.179
  753POPC   C1A13359  25.090  39.219   8.613
  753POPC   D2A13360  25.331  39.316   8.246
  753POPC   C3A13361  25.143  39.364   7.845
  753POPC   C4A13362  25.283  39.451   7.421
  753POPC   C1B13363  25.599  39.165   8.774
  753POPC   C2B13364  25.737  38.935   8.413
  753POPC   C3B13365  25.663  39.018   7.982
  753POPC   C4B13366  25.651  39.430   7.764
  754POPC   NC313367  19.573  37.186   9.441
  754POPC   PO413368  19.630  36.596   9.843
  754POPC   GL113369  19.823  36.747   9.382
  754POPC   GL213370  20.083  36.970   9.291
  754POPC   C1A13371  19.990  36.676   8.896
  754POPC   D2A13372  20.066  36.497   8.472
  754POPC   C3A13373  20.230  36.766   8.129
  754POPC   C4A13374  20.062  36.846   7.701
  754POPC   C1B13375  20.151  37.165   8.839
  754POPC   C2B13376  19.973  37.162   8.405
  754POPC   C3B13377  19.705  36.993   8.065
  754POPC   C4B13378  19.593  37.058   7.630
  755POPC   NC313379   8.171  40.114   9.759
  755POPC   PO413380   8.584  39.673   9.376
  755POPC   GL113381   8.311  40.074   9.262
  755POPC   GL213382   7.966  40.074   9.286
  755POPC   C1A13383   8.311  40.316   8.865
  755POPC   D2A13384   8.274  40.086   8.452
  755POPC   C3A13385   8.459  40.180   8.027
  755POPC   C4A13386   8.333  40.072   7.605
  755POPC   C1B13387   7.875  40.048   8.844
  755POPC   C2B13388   7.774  40.197   8.414
  755POPC   C3B13389   7.955  40.000   8.034
  755POPC   C4B13390   7.763  39.623   7.840
  756POPC   NC313391  25.029  33.250   9.438
  756POPC   PO413392  25.521  32.853   9.253
  756POPC   GL113393  25.213  33.052   8.999
  756POPC   GL213394  25.149  33.445   8.988
  756POPC   C1A13395  25.167  33.149   8.585
  756POPC   D2A13396  24.927  33.389   8.311
  756POPC   C3A13397  24.898  33.119   7.966
  756POPC   C4A13398  25.207  32.827   7.862
  756POPC   C1B13399  25.601  33.368   8.849
  756POPC   C2B13400  25.737  33.218   8.446
  756POPC   C3B13401  25.413  33.206   8.143
  756POPC   C4B13402  25.348  33.287   7.731
  757POPC   NC313403   6.068  27.172   9.456
  757POPC   PO413404   5.789  26.519   9.648
  757POPC   GL113405   5.877  26.689   9.243
  757POPC   GL213406   5.689  26.991   9.187
  757POPC   C1A13407   5.940  26.705   8.789
  757POPC   D2A13408   5.610  26.685   8.467
  757POPC   C3A13409   5.767  26.693   8.055
  757POPC   C4A13410   6.061  26.567   7.721
  757POPC   C1B13411   5.843  27.191   8.776
  757POPC   C2B13412   5.982  27.290   8.354
  757POPC   C3B13413   6.024  27.112   7.943
  757POPC   C4B13414   5.707  27.077   7.657
  758POPC   NC313415  36.672  40.915   9.817
  758POPC   PO413416  37.060  40.863   9.292
  758POPC   GL113417  36.880  40.861   8.924
  758POPC   GL213418  36.558  41.066   9.000
  758POPC   C1A13419  36.978  40.631   8.553
  758POPC   D2A13420  37.261  40.444   8.254
  758POPC   C3A13421  36.926  40.331   7.954
  758POPC   C4A13422  36.779  40.543   7.576
  758POPC   C1B13423  36.523  40.873   8.578
  758POPC   C2B13424  36.686  40.806   8.136
  758POPC   C3B13425  36.823  41.030   7.748
  758POPC   C4B13426  36.763  41.018   7.318
  759POPC   NC313427  17.807  27.510   9.347
  759POPC   PO413428  18.436  27.488   9.758
  759POPC   GL113429  18.334  27.461   9.259
  759POPC   GL213430  18.108  27.718   9.015
  759POPC   C1A13431  18.447  27.426   8.827
  759POPC   D2A13432  18.477  27.735   8.471
  759POPC   C3A13433  18.307  27.588   8.142
  759POPC   C4A13434  18.425  27.444   7.751
  759POPC   C1B13435  17.987  27.665   8.599
  759POPC   C2B13436  17.847  27.825   8.186
  759POPC   C3B13437  18.005  27.712   7.769
  759POPC   C4B13438  18.015  27.844   7.346
  760POPC   NC313439  17.072  38.274   9.296
  760POPC   PO413440  17.171  38.920   9.468
  760POPC   GL113441  16.796  38.703   9.177
  760POPC   GL213442  16.609  38.345   9.117
  760POPC   C1A13443  16.734  38.660   8.742
  760POPC   D2A13444  16.870  38.735   8.348
  760POPC   C3A13445  16.596  38.670   8.015
  760POPC   C4A13446  16.893  38.726   7.714
  760POPC   C1B13447  16.745  38.141   8.726
  760POPC   C2B13448  16.716  38.233   8.291
  760POPC   C3B13449  16.865  38.237   7.883
  760POPC   C4B13450  16.515  38.252   7.656
  761POPC   NC313451  43.543  35.532   9.340
  761POPC   PO413452  42.863  35.237   9.603
  761POPC   GL113453  42.901  35.299   9.190
  761POPC   GL213454  43.199  35.242   9.132
  761POPC   C1A13455  42.882  35.427   8.779
  761POPC   D2A13456  42.716  35.171   8.513
  761POPC   C3A13457  42.690  35.151   8.093
  761POPC   C4A13458  42.884  35.353   7.771
  761POPC   C1B13459  43.375  35.320   8.709
  761POPC   C2B13460  43.167  35.349   8.293
  761POPC   C3B13461  43.375  35.390   7.887
  761POPC   C4B13462  43.347  35.146   7.530
  762POPC   NC313463  23.793   3.927   9.409
  762POPC   PO413464  23.431   4.307   9.833
  762POPC   GL113465  23.510   4.368   9.358
  762POPC   GL213466  23.878   4.456   9.246
  762POPC   C1A13467  23.499   4.367   8.889
  762POPC   D2A13468  23.723   4.174   8.526
  762POPC   C3A13469  23.557   4.170   8.089
  762POPC   C4A13470  23.531   4.515   7.801
  762POPC   C1B13471  23.971   4.580   8.795
  762POPC   C2B13472  23.845   4.639   8.335
  762POPC   C3B13473  24.028   4.453   7.928
  762POPC   C4B13474  24.101   4.515   7.429
  763POPC   NC313475  35.104   8.122   9.438
  763POPC   PO413476  35.823   8.428   9.350
  763POPC   GL113477  35.716   8.435   8.988
  763POPC   GL213478  35.417   8.252   9.065
  763POPC   C1A13479  35.608   8.294   8.611
  763POPC   D2A13480  35.413   7.918   8.501
  763POPC   C3A13481  35.391   8.068   8.094
  763POPC   C4A13482  35.593   8.161   7.699
  763POPC   C1B13483  35.046   8.165   8.787
  763POPC   C2B13484  34.946   8.066   8.360
  763POPC   C3B13485  34.924   7.837   7.986
  763POPC   C4B13486  35.081   8.112   7.676
  764POPC   NC313487  37.055  30.990   9.522
  764POPC   PO413488  36.624  30.505   9.529
  764POPC   GL113489  36.809  30.655   9.182
  764POPC   GL213490  36.753  30.968   9.099
  764POPC   C1A13491  36.965  30.587   8.795
  764POPC   D2A13492  37.029  30.721   8.390
  764POPC   C3A13493  36.822  30.516   8.089
  764POPC   C4A13494  36.958  30.578   7.685
  764POPC   C1B13495  36.765  31.047   8.665
  764POPC   C2B13496  36.785  31.188   8.232
  764POPC   C3B13497  36.719  30.999   7.891
  764POPC   C4B13498  36.475  30.690   7.756
  765POPC   NC313499  22.469  20.414   9.645
  765POPC   PO413500  22.197  20.999   9.569
  765POPC   GL113501  22.163  20.694   9.193
  765POPC   GL213502  22.378  20.386   9.141
  765POPC   C1A13503  22.022  20.718   8.748
  765POPC   D2A13504  21.787  20.739   8.355
  765POPC   C3A13505  22.066  20.857   8.048
  765POPC   C4A13506  22.000  20.954   7.635
  765POPC   C1B13507  22.168  20.250   8.738
  765POPC   C2B13508  22.142  20.393   8.294
  765POPC   C3B13509  22.129  20.409   7.829
  765POPC   C4B13510  22.474  20.304   7.543
  766POPC   NC313511  21.092   5.053   9.452
  766POPC   PO413512  21.771   5.321   9.458
  766POPC   GL113513  21.484   5.129   9.139
  766POPC   GL213514  21.683   4.848   9.098
  766POPC   C1A13515  21.341   5.027   8.690
  766POPC   D2A13516  21.275   4.696   8.335
  766POPC   C3A13517  21.353   4.863   7.925
  766POPC   C4A13518  21.053   5.032   7.644
  766POPC   C1B13519  21.854   5.186   8.810
  766POPC   C2B13520  21.717   5.359   8.422
  766POPC   C3B13521  21.771   5.147   8.015
  766POPC   C4B13522  21.576   5.187   7.562
  767POPC   NC313523  38.096  15.871   9.581
  767POPC   PO413524  38.836  15.928   9.729
  767POPC   GL113525  38.647  15.978   9.280
  767POPC   GL213526  38.430  15.735   9.200
  767POPC   C1A13527  38.695  16.038   8.808
  767POPC   D2A13528  38.497  16.091   8.417
  767POPC   C3A13529  38.709  16.186   8.028
  767POPC   C4A13530  38.550  16.148   7.613
  767POPC   C1B13531  38.267  15.723   8.807
  767POPC   C2B13532  38.372  15.577   8.429
  767POPC   C3B13533  38.362  15.786   8.024
  767POPC   C4B13534  38.063  15.696   7.730
  768POPC   NC313535  44.407  29.561   9.480
  768POPC   PO413536  44.725  30.193   9.446
  768POPC   GL113537  44.434  30.182   9.087
  768POPC   GL213538  44.298  29.855   9.091
  768POPC   C1A13539  44.478  30.057   8.636
  768POPC   D2A13540  44.914  30.048   8.444
  768POPC   C3A13541  44.853  30.296   8.074
  768POPC   C4A13542  44.528  30.195   7.756
  768POPC   C1B13543  44.697  29.682   8.910
  768POPC   C2B13544  44.666  29.587   8.481
  768POPC   C3B13545  44.575  29.843   8.127
  768POPC   C4B13546  44.558  29.697   7.714
  769POPC   NC313547   6.609  22.020   9.739
  769POPC   PO413548   6.047  22.054   9.447
  769POPC   GL113549   6.039  22.109   9.019
  769POPC   GL213550   5.794  22.369   9.063
  769POPC   C1A13551   6.037  21.921   8.597
  769POPC   D2A13552   5.738  21.733   8.297
  769POPC   C3A13553   5.779  21.807   7.859
  769POPC   C4A13554   5.861  22.200   7.673
  769POPC   C1B13555   5.603  22.631   8.790
  769POPC   C2B13556   5.846  22.403   8.513
  769POPC   C3B13557   5.834  22.378   8.130
  769POPC   C4B13558   5.584  22.645   7.886
  770POPC   NC313559  18.133  30.413   9.457
  770POPC   PO413560  18.042  31.096   9.617
  770POPC   GL113561  18.203  30.818   9.156
  770POPC   GL213562  18.064  30.547   8.974
  770POPC   C1A13563  18.540  30.510   8.834
  770POPC   D2A13564  18.565  30.227   8.434
  770POPC   C3A13565  18.498  30.433   8.025
  770POPC   C4A13566  18.255  30.817   7.933
  770POPC   C1B13567  18.128  30.652   8.570
  770POPC   C2B13568  18.038  30.421   8.242
  770POPC   C3B13569  18.010  30.336   7.835
  770POPC   C4B13570  17.782  30.668   7.667
  771POPC   NC313571  16.228  18.067   9.211
  771POPC   PO413572  16.602  18.582   9.436
  771POPC   GL113573  16.754  18.434   9.094
  771POPC   GL213574  17.101  18.480   9.113
  771POPC   C1A13575  16.550  18.492   8.707
  771POPC   D2A13576  16.452  18.250   8.359
  771POPC   C3A13577  16.616  18.433   8.018
  771POPC   C4A13578  16.517  18.313   7.573
  771POPC   C1B13579  17.061  18.313   8.682
  771POPC   C2B13580  17.166  18.252   8.217
  771POPC   C3B13581  16.997  18.233   7.773
  771POPC   C4B13582  17.031  18.428   7.321
  772POPC   NC313583  33.342  24.782   9.480
  772POPC   PO413584  32.956  24.220   9.606
  772POPC   GL113585  32.976  24.333   9.197
  772POPC   GL213586  33.311  24.286   9.072
  772POPC   C1A13587  32.856  24.598   8.824
  772POPC   D2A13588  33.181  24.651   8.563
  772POPC   C3A13589  33.194  24.579   8.128
  772POPC   C4A13590  33.332  24.635   7.740
  772POPC   C1B13591  33.025  24.122   8.757
  772POPC   C2B13592  32.891  24.260   8.396
  772POPC   C3B13593  32.950  24.154   7.993
  772POPC   C4B13594  32.825  24.510   7.731
  773POPC   NC313595  26.498  33.866   9.391
  773POPC   PO413596  27.035  33.419   9.478
  773POPC   GL113597  26.817  33.570   9.105
  773POPC   GL213598  26.957  33.881   9.045
  773POPC   C1A13599  26.534  33.781   8.758
  773POPC   D2A13600  26.435  33.869   8.316
  773POPC   C3A13601  26.779  33.717   8.146
  773POPC   C4A13602  26.990  33.648   7.814
  773POPC   C1B13603  27.213  33.741   8.691
  773POPC   C2B13604  27.313  33.826   8.260
  773POPC   C3B13605  27.084  34.131   8.048
  773POPC   C4B13606  26.920  34.134   7.652
  774POPC   NC313607  20.245  44.334   9.357
  774POPC   PO413608  20.805  43.909   9.436
  774POPC   GL113609  20.662  43.827   9.040
  774POPC   GL213610  20.411  44.042   8.942
  774POPC   C1A13611  20.792  43.824   8.623
  774POPC   D2A13612  20.589  43.991   8.272
  774POPC   C3A13613  20.767  43.792   7.922
  774POPC   C4A13614  20.846  43.864   7.489
  774POPC   C1B13615  20.270  43.709   8.621
  774POPC   C2B13616  20.160  43.683   8.148
  774POPC   C3B13617  20.308  43.771   7.711
  774POPC   C4B13618  20.410  43.638   7.267
  775POPC   NC313619  15.918  37.043   9.729
  775POPC   PO413620  16.420  36.656   9.563
  775POPC   GL113621  16.198  36.996   9.256
  775POPC   GL213622  15.836  37.134   9.223
  775POPC   C1A13623  16.168  37.188   8.817
  775POPC   D2A13624  15.947  37.152   8.404
  775POPC   C3A13625  16.161  37.016   7.998
  775POPC   C4A13626  16.225  37.124   7.516
  775POPC   C1B13627  15.787  36.861   8.901
  775POPC   C2B13628  15.720  36.704   8.498
  775POPC   C3B13629  15.651  36.869   8.090
  775POPC   C4B13630  15.776  36.918   7.675
  776POPC   NC313631   9.338  42.884   9.376
  776POPC   PO413632   8.702  42.843   9.722
  776POPC   GL113633   8.839  42.973   9.236
  776POPC   GL213634   9.007  43.269   9.127
  776POPC   C1A13635   8.734  42.980   8.790
  776POPC   D2A13636   8.617  42.859   8.362
  776POPC   C3A13637   8.760  43.151   8.035
  776POPC   C4A13638   8.996  43.024   7.696
  776POPC   C1B13639   9.236  43.145   8.742
  776POPC   C2B13640   9.160  42.992   8.326
  776POPC   C3B13641   9.418  42.931   7.944
  776POPC   C4B13642   9.449  43.070   7.460
  777POPC   NC313643  43.467   1.789   9.467
  777POPC   PO413644  43.980   2.136   9.526
  777POPC   GL113645  43.760   2.162   9.164
  777POPC   GL213646  43.992   2.446   9.123
  777POPC   C1A13647  43.796   1.904   8.776
  777POPC   D2A13648  43.895   1.768   8.337
  777POPC   C3A13649  43.671   1.927   7.942
  777POPC   C4A13650  43.747   2.108   7.496
  777POPC   C1B13651  44.146   2.285   8.784
  777POPC   C2B13652  44.290   2.118   8.440
  777POPC   C3B13653  44.144   2.121   8.042
  777POPC   C4B13654  44.143   2.347   7.695
  778POPC   NC313655  33.046  27.252   9.260
  778POPC   PO413656  33.073  26.653   9.464
  778POPC   GL113657  32.975  26.700   9.046
  778POPC   GL213658  33.291  26.814   9.037
  778POPC   C1A13659  32.771  26.527   8.674
  778POPC   D2A13660  32.589  26.479   8.266
  778POPC   C3A13661  32.903  26.616   7.969
  778POPC   C4A13662  33.050  26.468   7.599
  778POPC   C1B13663  33.235  26.987   8.675
  778POPC   C2B13664  33.287  26.819   8.299
  778POPC   C3B13665  33.305  26.931   7.902
  778POPC   C4B13666  33.186  27.254   7.636
  779POPC   NC313667  33.961   3.845   9.557
  779POPC   PO413668  33.504   3.394   9.644
  779POPC   GL113669  33.725   3.382   9.251
  779POPC   GL213670  33.683   3.681   9.164
  779POPC   C1A13671  33.736   3.340   8.771
  779POPC   D2A13672  33.642   3.581   8.389
  779POPC   C3A13673  33.762   3.469   7.964
  779POPC   C4A13674  33.966   3.253   7.631
  779POPC   C1B13675  33.818   3.856   8.785
  779POPC   C2B13676  33.944   4.036   8.404
  779POPC   C3B13677  33.964   3.934   7.990
  779POPC   C4B13678  33.741   3.870   7.607
  780POPC   NC313679   6.360  15.003   9.349
  780POPC   PO413680   5.736  15.192   9.097
  780POPC   GL113681   6.074  15.072   8.913
  780POPC   GL213682   6.288  15.326   8.906
  780POPC   C1A13683   6.135  14.991   8.492
  780POPC   D2A13684   5.797  15.026   8.237
  780POPC   C3A13685   6.011  15.023   7.851
  780POPC   C4A13686   5.871  15.010   7.450
  780POPC   C1B13687   6.007  15.479   8.545
  780POPC   C2B13688   5.908  15.501   8.090
  780POPC   C3B13689   5.687  15.413   7.716
  780POPC   C4B13690   5.696  15.439   7.231
  781POPC   NC313691  41.484  24.498   9.727
  781POPC   PO413692  41.255  24.118   9.302
  781POPC   GL113693  41.494  24.409   9.140
  781POPC   GL213694  41.775  24.226   9.303
  781POPC   C1A13695  41.593  24.584   8.724
  781POPC   D2A13696  41.915  24.548   8.392
  781POPC   C3A13697  41.718  24.564   7.993
  781POPC   C4A13698  41.774  24.744   7.568
  781POPC   C1B13699  41.743  24.048   8.871
  781POPC   C2B13700  41.605  24.147   8.453
  781POPC   C3B13701  41.760  24.056   8.065
  781POPC   C4B13702  41.822  24.209   7.650
  782POPC   NC313703   3.579   3.758   9.622
  782POPC   PO413704   3.317   3.185   9.562
  782POPC   GL113705   3.568   3.381   9.214
  782POPC   GL213706   3.410   3.692   9.106
  782POPC   C1A13707   3.601   3.345   8.743
  782POPC   D2A13708   3.860   3.201   8.392
  782POPC   C3A13709   3.715   3.344   8.010
  782POPC   C4A13710   3.323   3.184   7.813
  782POPC   C1B13711   3.316   3.773   8.642
  782POPC   C2B13712   3.316   3.597   8.216
  782POPC   C3B13713   3.170   3.666   7.776
  782POPC   C4B13714   3.266   3.710   7.319
  783POPC   NC313715  17.161   0.207   9.453
  783POPC   PO413716  17.669   0.653   9.600
  783POPC   GL113717  17.604   0.385   9.187
  783POPC   GL213718  17.357   0.542   9.110
  783POPC   C1A13719  17.462   0.310   8.688
  783POPC   D2A13720  17.259   0.324   8.242
  783POPC   C3A13721  17.510   0.243   7.873
  783POPC   C4A13722  17.836   0.021   7.643
  783POPC   C1B13723  17.198   0.750   8.763
  783POPC   C2B13724  17.256   0.816   8.373
  783POPC   C3B13725  17.114   0.740   7.975
  783POPC   C4B13726  17.189   0.687   7.533
  784POPC   NC313727  26.489  23.221   9.509
  784POPC   PO413728  25.830  22.956   9.504
  784POPC   GL113729  26.128  22.857   9.190
  784POPC   GL213730  25.907  22.539   9.184
  784POPC   C1A13731  26.389  23.005   8.818
  784POPC   D2A13732  26.365  23.236   8.420
  784POPC   C3A13733  26.425  23.143   7.992
  784POPC   C4A13734  26.035  23.104   7.764
  784POPC   C1B13735  25.821  22.686   8.804
  784POPC   C2B13736  26.019  22.848   8.481
  784POPC   C3B13737  26.097  22.736   8.094
  784POPC   C4B13738  26.032  22.536   7.746
  785POPC   NC313739  28.194  30.709   9.470
  785POPC   PO413740  28.801  30.895   9.207
  785POPC   GL113741  28.488  30.806   8.967
  785POPC   GL213742  28.318  30.473   9.021
  785POPC   C1A13743  28.552  30.932   8.548
  785POPC   D2A13744  28.432  30.660   8.257
  785POPC   C3A13745  28.327  30.779   7.907
  785POPC   C4A13746  28.254  30.513   7.603
  785POPC   C1B13747  28.599  30.388   8.693
  785POPC   C2B13748  28.663  30.205   8.280
  785POPC   C3B13749  28.685  30.379   7.876
  785POPC   C4B13750  28.626  30.154   7.512
  786POPC   NC313751  35.440  13.193   9.573
  786POPC   PO413752  35.418  12.553   9.488
  786POPC   GL113753  35.150  12.735   9.174
  786POPC   GL213754  35.253  13.071   9.129
  786POPC   C1A13755  35.057  12.861   8.722
  786POPC   D2A13756  34.981  12.755   8.310
  786POPC   C3A13757  35.184  12.661   7.939
  786POPC   C4A13758  35.373  12.795   7.552
  786POPC   C1B13759  35.421  13.229   8.771
  786POPC   C2B13760  35.249  13.216   8.368
  786POPC   C3B13761  35.428  13.119   7.996
  786POPC   C4B13762  35.787  13.126   7.742
  787POPC   NC313763   8.114  11.859   9.938
  787POPC   PO413764   8.437  12.324   9.607
  787POPC   GL113765   8.232  12.088   9.262
  787POPC   GL213766   7.869  12.071   9.210
  787POPC   C1A13767   8.243  11.849   8.879
  787POPC   D2A13768   8.294  12.009   8.468
  787POPC   C3A13769   8.104  11.939   8.066
  787POPC   C4A13770   8.255  11.889   7.695
  787POPC   C1B13771   7.958  12.259   8.794
  787POPC   C2B13772   7.995  12.426   8.394
  787POPC   C3B13773   8.208  12.423   8.000
  787POPC   C4B13774   7.967  12.311   7.625
  788POPC   NC313775  25.095  13.663   9.548
  788POPC   PO413776  24.786  14.141   9.252
  788POPC   GL113777  24.990  13.781   9.061
  788POPC   GL213778  25.341  13.677   9.106
  788POPC   C1A13779  24.994  13.414   8.805
  788POPC   D2A13780  25.089  13.426   8.373
  788POPC   C3A13781  24.874  13.158   8.085
  788POPC   C4A13782  25.060  13.369   7.762
  788POPC   C1B13783  25.369  13.751   8.690
  788POPC   C2B13784  25.581  13.814   8.313
  788POPC   C3B13785  25.392  13.801   7.891
  788POPC   C4B13786  25.512  13.989   7.486
  789POPC   NC313787   6.482  22.623   9.464
  789POPC   PO413788   6.911  22.062   9.409
  789POPC   GL113789   6.531  22.163   9.198
  789POPC   GL213790   6.708  22.407   9.071
  789POPC   C1A13791   6.525  22.122   8.717
  789POPC   D2A13792   6.856  22.141   8.354
  789POPC   C3A13793   6.678  22.083   7.924
  789POPC   C4A13794   6.363  22.370   7.733
  789POPC   C1B13795   6.807  22.575   8.685
  789POPC   C2B13796   7.024  22.640   8.298
  789POPC   C3B13797   6.809  22.578   7.916
  789POPC   C4B13798   6.824  22.588   7.454
  790POPC   NC313799  24.930   0.760   9.267
  790POPC   PO413800  24.421   0.374   9.587
  790POPC   GL113801  24.608   0.377   9.179
  790POPC   GL213802  24.449   0.695   9.151
  790POPC   C1A13803  24.543   0.392   8.711
  790POPC   D2A13804  24.366   0.309   8.291
  790POPC   C3A13805  24.668   0.341   8.002
  790POPC   C4A13806  24.780   0.192   7.648
  790POPC   C1B13807  24.275   0.837   8.789
  790POPC   C2B13808  24.160   0.753   8.386
  790POPC   C3B13809  24.348   0.804   8.001
  790POPC   C4B13810  24.075   0.917   7.684
  791POPC   NC313811   2.979   2.962   9.779
  791POPC   PO413812   2.614   2.423   9.596
  791POPC   GL113813   2.879   2.483   9.247
  791POPC   GL213814   2.952   2.175   9.155
  791POPC   C1A13815   3.054   2.598   8.838
  791POPC   D2A13816   2.909   2.804   8.459
  791POPC   C3A13817   3.088   2.787   8.043
  791POPC   C4A13818   2.956   2.697   7.596
  791POPC   C1B13819   2.784   2.139   8.771
  791POPC   C2B13820   2.544   2.412   8.545
  791POPC   C3B13821   2.608   2.503   8.145
  791POPC   C4B13822   2.497   2.804   7.845
  792POPC   NC313823  13.992  24.296   9.474
  792POPC   PO413824  14.648  24.361   9.253
  792POPC   GL113825  14.461  24.675   8.988
  792POPC   GL213826  14.174  24.689   9.176
  792POPC   C1A13827  14.381  24.632   8.538
  792POPC   D2A13828  14.483  24.218   8.314
  792POPC   C3A13829  14.779  24.296   7.948
  792POPC   C4A13830  14.647  24.513   7.557
  792POPC   C1B13831  13.983  24.478   8.833
  792POPC   C2B13832  13.915  24.482   8.378
  792POPC   C3B13833  14.202  24.541   8.025
  792POPC   C4B13834  14.302  24.189   7.815
  793POPC   NC313835  11.845  43.183   9.411
  793POPC   PO413836  12.495  42.978   9.482
  793POPC   GL113837  12.291  43.049   9.091
  793POPC   GL213838  12.054  42.829   9.117
  793POPC   C1A13839  12.105  43.186   8.696
  793POPC   D2A13840  11.742  43.335   8.441
  793POPC   C3A13841  11.817  43.389   7.977
  793POPC   C4A13842  12.191  43.341   7.697
  793POPC   C1B13843  12.139  42.668   8.723
  793POPC   C2B13844  11.923  42.821   8.363
  793POPC   C3B13845  12.004  42.915   7.947
  793POPC   C4B13846  12.208  42.646   7.676
  794POPC   NC313847  35.958   4.626   9.563
  794POPC   PO413848  36.400   4.306   9.566
  794POPC   GL113849  36.073   4.281   9.186
  794POPC   GL213850  35.838   4.556   9.075
  794POPC   C1A13851  35.977   4.203   8.719
  794POPC   D2A13852  36.176   4.255   8.291
  794POPC   C3A13853  35.980   4.068   7.907
  794POPC   C4A13854  36.194   4.157   7.499
  794POPC   C1B13855  35.868   4.705   8.656
  794POPC   C2B13856  35.998   4.746   8.235
  794POPC   C3B13857  36.027   4.564   7.836
  794POPC   C4B13858  36.126   4.651   7.401
  795POPC   NC313859  40.522  12.643   9.387
  795POPC   PO413860  39.985  12.949   9.571
  795POPC   GL113861  40.024  12.826   9.173
  795POPC   GL213862  39.678  12.684   9.094
  795POPC   C1A13863  40.282  12.971   8.817
  795POPC   D2A13864  40.322  13.130   8.394
  795POPC   C3A13865  40.003  13.048   8.077
  795POPC   C4A13866  40.214  12.978   7.671
  795POPC   C1B13867  39.750  12.999   8.777
  795POPC   C2B13868  39.572  12.968   8.385
  795POPC   C3B13869  39.675  12.636   8.123
  795POPC   C4B13870  39.804  12.686   7.726
  796POPC   NC313871   5.471   4.671   9.928
  796POPC   PO413872   6.044   4.990   9.530
  796POPC   GL113873   5.888   5.060   9.120
  796POPC   GL213874   5.582   5.287   9.134
  796POPC   C1A13875   6.022   4.941   8.693
  796POPC   D2A13876   6.299   4.992   8.327
  796POPC   C3A13877   6.004   4.854   8.016
  796POPC   C4A13878   5.639   4.888   7.730
  796POPC   C1B13879   5.807   5.425   8.776
  796POPC   C2B13880   5.913   5.317   8.367
  796POPC   C3B13881   5.777   5.331   7.970
  796POPC   C4B13882   5.498   5.447   7.646
  797POPC   NC313883  26.819   9.259   9.578
  797POPC   PO413884  26.346   8.767   9.426
  797POPC   GL113885  26.672   9.011   9.129
  797POPC   GL213886  27.037   9.213   9.133
  797POPC   C1A13887  26.610   9.006   8.670
  797POPC   D2A13888  26.576   8.789   8.267
  797POPC   C3A13889  26.535   9.066   7.916
  797POPC   C4A13890  26.482   9.134   7.487
  797POPC   C1B13891  27.150   9.001   8.798
  797POPC   C2B13892  27.061   8.902   8.393
  797POPC   C3B13893  27.057   9.009   7.989
  797POPC   C4B13894  26.935   8.896   7.572
  798POPC   NC313895  40.426  23.014   9.590
  798POPC   PO413896  39.712  22.939   9.487
  798POPC   GL113897  39.868  22.766   9.142
  798POPC   GL213898  39.562  22.626   9.076
  798POPC   C1A13899  40.059  22.999   8.805
  798POPC   D2A13900  40.271  23.165   8.443
  798POPC   C3A13901  40.154  22.953   8.084
  798POPC   C4A13902  40.204  23.050   7.692
  798POPC   C1B13903  39.535  22.963   8.768
  798POPC   C2B13904  39.740  23.123   8.392
  798POPC   C3B13905  39.735  23.220   7.953
  798POPC   C4B13906  39.711  22.882   7.657
  799POPC   NC313907  40.025  11.871   9.541
  799POPC   PO413908  40.588  12.159   9.465
  799POPC   GL113909  40.363  11.914   9.102
  799POPC   GL213910  39.981  11.995   9.046
  799POPC   C1A13911  40.289  11.974   8.632
  799POPC   D2A13912  39.985  12.212   8.361
  799POPC   C3A13913  39.851  12.183   7.932
  799POPC   C4A13914  40.024  11.921   7.646
  799POPC   C1B13915  40.070  12.418   8.851
  799POPC   C2B13916  40.073  12.687   8.461
  799POPC   C3B13917  40.213  12.591   8.035
  799POPC   C4B13918  40.234  12.418   7.629
  800POPC   NC313919  23.347  37.904   9.904
  800POPC   PO413920  23.701  37.914   9.366
  800POPC   GL113921  23.733  37.789   8.985
  800POPC   GL213922  24.061  37.897   8.946
  800POPC   C1A13923  23.484  37.911   8.664
  800POPC   D2A13924  23.447  38.158   8.337
  800POPC   C3A13925  23.580  37.989   7.974
  800POPC   C4A13926  23.419  37.600   7.822
  800POPC   C1B13927  23.967  37.909   8.505
  800POPC   C2B13928  23.724  37.606   8.304
  800POPC   C3B13929  23.866  37.440   7.958
  800POPC   C4B13930  23.886  37.746   7.655
  801POPC   NC313931   5.243  42.730   9.418
  801POPC   PO413932   5.077  43.361   9.584
  801POPC   GL113933   5.211  43.139   9.133
  801POPC   GL213934   4.955  42.834   9.022
  801POPC   C1A13935   5.209  43.093   8.650
  801POPC   D2A13936   4.933  43.153   8.282
  801POPC   C3A13937   5.237  43.064   7.976
  801POPC   C4A13938   5.254  42.866   7.572
  801POPC   C1B13939   4.762  42.800   8.616
  801POPC   C2B13940   4.665  42.719   8.202
  801POPC   C3B13941   4.782  42.897   7.815
  801POPC   C4B13942   4.774  42.929   7.354
  802POPC   NC313943   9.508  11.534   9.278
  802POPC   PO413944   9.603  10.909   9.524
  802POPC   GL113945   9.891  11.002   9.130
  802POPC   GL213946   9.960  11.330   9.105
  802POPC   C1A13947  10.024  11.082   8.690
  802POPC   D2A13948   9.780  11.314   8.410
  802POPC   C3A13949   9.924  11.234   8.020
  802POPC   C4A13950   9.677  11.275   7.660
  802POPC   C1B13951   9.890  11.678   8.788
  802POPC   C2B13952   9.927  11.866   8.422
  802POPC   C3B13953   9.684  11.742   8.097
  802POPC   C4B13954   9.807  11.778   7.720
  803POPC   NC313955   2.429  12.963   9.608
  803POPC   PO413956   1.860  12.737   9.435
  803POPC   GL113957   1.770  12.635   9.063
  803POPC   GL213958   1.574  12.327   9.084
  803POPC   C1A13959   1.978  12.809   8.691
  803POPC   D2A13960   1.900  13.107   8.355
  803POPC   C3A13961   1.986  12.944   7.973
  803POPC   C4A13962   2.023  12.576   7.761
  803POPC   C1B13963   1.580  12.462   8.637
  803POPC   C2B13964   1.792  12.561   8.253
  803POPC   C3B13965   1.581  12.376   7.888
  803POPC   C4B13966   1.487  12.517   7.465
  804POPC   NC313967  39.891  44.212   9.586
  804POPC   PO413968  40.214  43.599   9.498
  804POPC   GL113969  40.008  43.752   9.150
  804POPC   GL213970  40.012  44.110   9.109
  804POPC   C1A13971  40.170  43.762   8.742
  804POPC   D2A13972  40.346  43.958   8.428
  804POPC   C3A13973  40.127  44.016   8.046
  804POPC   C4A13974  40.381  44.214   7.719
  804POPC   C1B13975  39.971  44.225   8.696
  804POPC   C2B13976  39.754  44.309   8.334
  804POPC   C3B13977  39.588  44.360   7.949
  804POPC   C4B13978  39.673  44.173   7.539
  805POPC   NC313979  44.851  32.351   9.259
  805POPC   PO413980   0.450  32.332   9.578
  805POPC   GL113981   0.369  32.186   9.171
  805POPC   GL213982   0.619  32.465   9.094
  805POPC   C1A13983   0.377  32.165   8.707
  805POPC   D2A13984   0.278  32.324   8.287
  805POPC   C3A13985   0.108  32.124   7.950
  805POPC   C4A13986   0.396  31.862   7.769
  805POPC   C1B13987   0.498  32.726   8.746
  805POPC   C2B13988   0.620  32.695   8.312
  805POPC   C3B13989   0.600  32.510   7.872
  805POPC   C4B13990   0.789  32.501   7.428
  806POPC   NC313991  14.590  26.205   9.500
  806POPC   PO413992  14.111  25.722   9.352
  806POPC   GL113993  14.330  25.992   9.072
  806POPC   GL213994  14.683  25.926   9.100
  806POPC   C1A13995  14.190  26.119   8.649
  806POPC   D2A13996  14.264  25.892   8.265
  806POPC   C3A13997  14.129  26.122   7.906
  806POPC   C4A13998  14.306  26.397   7.577
  806POPC   C1B13999  14.682  26.151   8.715
  806POPC   C2B14000  14.585  26.294   8.323
  806POPC   C3B14001  14.630  26.110   7.924
  806POPC   C4B14002  14.455  25.723   7.807
  807POPC   NC314003  42.098  21.928   9.513
  807POPC   PO414004  42.714  22.013   9.758
  807POPC   GL114005  42.496  22.180   9.332
  807POPC   GL214006  42.336  22.440   9.239
  807POPC   C1A14007  42.385  22.085   8.865
  807POPC   D2A14008  42.271  21.941   8.428
  807POPC   C3A14009  42.500  22.160   8.135
  807POPC   C4A14010  42.426  22.201   7.729
  807POPC   C1B14011  42.175  22.544   8.781
  807POPC   C2B14012  42.118  22.482   8.321
  807POPC   C3B14013  42.123  22.573   7.865
  807POPC   C4B14014  42.058  22.600   7.370
  808POPC   NC314015   6.061   0.609   9.447
  808POPC   PO414016   5.470   0.371   9.595
  808POPC   GL114017   5.689   0.298   9.238
  808POPC   GL214018   5.634   0.636   9.138
  808POPC   C1A14019   5.908   0.274   8.857
  808POPC   D2A14020   5.731   0.353   8.476
  808POPC   C3A14021   5.899   0.172   8.134
  808POPC   C4A14022   5.816   0.276   7.767
  808POPC   C1B14023   5.753   0.799   8.732
  808POPC   C2B14024   5.966   0.794   8.318
  808POPC   C3B14025   5.809   0.804   7.881
  808POPC   C4B14026   5.825   1.067   7.510
  809POPC   NC314027  29.019  31.225   9.431
  809POPC   PO414028  29.340  30.615   9.460
  809POPC   GL114029  29.335  30.835   9.097
  809POPC   GL214030  29.442  31.179   9.109
  809POPC   C1A14031  29.212  30.678   8.692
  809POPC   D2A14032  28.943  30.620   8.344
  809POPC   C3A14033  29.109  30.675   7.942
  809POPC   C4A14034  29.446  30.650   7.680
  809POPC   C1B14035  29.356  31.163   8.682
  809POPC   C2B14036  29.133  31.121   8.290
  809POPC   C3B14037  28.761  31.048   8.022
  809POPC   C4B14038  28.713  30.880   7.598
  810POPC   NC314039  31.248  29.806   9.490
  810POPC   PO414040  31.744  30.318   9.481
  810POPC   GL114041  31.543  30.148   9.152
  810POPC   GL214042  31.623  29.833   9.139
  810POPC   C1A14043  31.403  30.107   8.729
  810POPC   D2A14044  31.276  30.312   8.359
  810POPC   C3A14045  31.269  29.994   8.041
  810POPC   C4A14046  31.507  30.120   7.689
  810POPC   C1B14047  31.711  29.569   8.798
  810POPC   C2B14048  31.559  29.705   8.389
  810POPC   C3B14049  31.639  29.575   7.962
  810POPC   C4B14050  32.051  29.520   7.742
  811POPC   NC314051  19.515  27.577   9.431
  811POPC   PO414052  20.087  27.882   9.685
  811POPC   GL114053  20.057  27.708   9.234
  811POPC   GL214054  19.946  27.348   9.179
  811POPC   C1A14055  19.894  27.706   8.800
  811POPC   D2A14056  19.705  27.893   8.417
  811POPC   C3A14057  19.836  27.731   8.039
  811POPC   C4A14058  19.999  27.885   7.652
  811POPC   C1B14059  19.696  27.232   8.812
  811POPC   C2B14060  19.705  27.377   8.419
  811POPC   C3B14061  19.651  27.261   8.020
  811POPC   C4B14062  19.684  27.486   7.614
  812POPC   NC314063   1.020  27.673   9.465
  812POPC   PO414064   1.702  27.988   9.400
  812POPC   GL114065   1.424  27.700   9.134
  812POPC   GL214066   1.576  27.385   9.062
  812POPC   C1A14067   1.191  27.607   8.753
  812POPC   D2A14068   1.250  27.815   8.350
  812POPC   C3A14069   1.059  27.782   7.935
  812POPC   C4A14070   1.205  27.990   7.563
  812POPC   C1B14071   1.411  27.130   8.707
  812POPC   C2B14072   1.260  27.282   8.281
  812POPC   C3B14073   1.343  27.337   7.823
  812POPC   C4B14074   1.703  27.168   7.579
  813POPC   NC314075   2.502  35.901   9.454
  813POPC   PO414076   3.004  36.336   9.518
  813POPC   GL114077   2.730  36.367   9.159
  813POPC   GL214078   2.775  36.016   9.036
  813POPC   C1A14079   2.843  36.404   8.725
  813POPC   D2A14080   3.015  36.190   8.370
  813POPC   C3A14081   2.888  36.351   7.981
  813POPC   C4A14082   2.616  36.510   7.685
  813POPC   C1B14083   2.614  35.950   8.615
  813POPC   C2B14084   2.637  35.859   8.181
  813POPC   C3B14085   2.619  35.974   7.744
  813POPC   C4B14086   2.591  35.884   7.302
  814POPC   NC314087  30.316  20.564   9.500
  814POPC   PO414088  30.855  20.914   9.635
  814POPC   GL114089  30.774  20.821   9.194
  814POPC   GL214090  30.521  20.593   9.056
  814POPC   C1A14091  30.849  20.831   8.749
  814POPC   D2A14092  30.980  20.780   8.334
  814POPC   C3A14093  30.786  20.708   7.915
  814POPC   C4A14094  31.002  20.891   7.530
  814POPC   C1B14095  30.645  20.361   8.727
  814POPC   C2B14096  30.520  20.529   8.373
  814POPC   C3B14097  30.341  20.305   8.064
  814POPC   C4B14098  30.468  20.293   7.630
  815POPC   NC314099  41.852   9.197   9.467
  815POPC   PO414100  41.536   8.626   9.463
  815POPC   GL114101  41.762   8.768   9.113
  815POPC   GL214102  41.908   9.101   8.977
  815POPC   C1A14103  41.532   8.788   8.736
  815POPC   D2A14104  41.273   8.949   8.439
  815POPC   C3A14105  41.441   8.987   8.052
  815POPC   C4A14106  41.237   9.034   7.694
  815POPC   C1B14107  41.818   9.189   8.547
  815POPC   C2B14108  41.869   9.270   8.099
  815POPC   C3B14109  41.698   9.277   7.680
  815POPC   C4B14110  41.755   9.434   7.271
  816POPC   NC314111  24.470  24.320   9.604
  816POPC   PO414112  24.140  24.844   9.458
  816POPC   GL114113  24.258  24.488   9.157
  816POPC   GL214114  24.602  24.296   9.123
  816POPC   C1A14115  24.162  24.266   8.767
  816POPC   D2A14116  24.181  24.409   8.325
  816POPC   C3A14117  24.401  24.269   7.919
  816POPC   C4A14118  24.348  24.498   7.525
  816POPC   C1B14119  24.620  24.493   8.735
  816POPC   C2B14120  24.725  24.341   8.354
  816POPC   C3B14121  24.907  24.369   7.972
  816POPC   C4B14122  24.799  24.751   7.720
  817POPC   NC314123  40.831  44.539   9.684
  817POPC   PO414124  40.750   0.128   9.819
  817POPC   GL114125  40.704  44.879   9.325
  817POPC   GL214126  40.811  44.491   9.189
  817POPC   C1A14127  40.656  44.807   8.832
  817POPC   D2A14128  40.472  44.928   8.374
  817POPC   C3A14129  40.537  44.725   7.941
  817POPC   C4A14130  40.420  44.821   7.502
  817POPC   C1B14131  41.068  44.466   8.784
  817POPC   C2B14132  41.207  44.561   8.348
  817POPC   C3B14133  40.969  44.481   7.965
  817POPC   C4B14134  40.912  44.662   7.527
  818POPC   NC314135  24.817  21.882   9.340
  818POPC   PO414136  24.156  21.880   9.446
  818POPC   GL114137  24.388  22.229   9.215
  818POPC   GL214138  24.298  22.044   8.965
  818POPC   C1A14139  24.645  22.408   8.826
  818POPC   D2A14140  24.945  22.360   8.434
  818POPC   C3A14141  24.725  22.291   8.003
  818POPC   C4A14142  24.656  22.255   7.522
  818POPC   C1B14143  24.176  21.831   8.607
  818POPC   C2B14144  24.354  21.978   8.204
  818POPC   C3B14145  24.381  21.897   7.747
  818POPC   C4B14146  24.342  21.867   7.263
  819POPC   NC314147  33.172   8.750   9.420
  819POPC   PO414148  32.552   8.974   9.355
  819POPC   GL114149  32.877   9.092   9.099
  819POPC   GL214150  33.229   9.196   9.101
  819POPC   C1A14151  32.899   9.215   8.693
  819POPC   D2A14152  33.035   9.001   8.337
  819POPC   C3A14153  32.938   9.148   7.959
  819POPC   C4A14154  32.955   8.892   7.665
  819POPC   C1B14155  33.261   8.856   8.792
  819POPC   C2B14156  33.351   8.599   8.437
  819POPC   C3B14157  33.307   8.701   7.990
  819POPC   C4B14158  33.408   9.097   7.730
  820POPC   NC314159  24.065  26.154   9.898
  820POPC   PO414160  23.608  25.658   9.650
  820POPC   GL114161  23.453  25.888   9.239
  820POPC   GL214162  23.645  26.198   9.194
  820POPC   C1A14163  23.535  25.922   8.763
  820POPC   D2A14164  23.915  25.750   8.499
  820POPC   C3A14165  23.853  25.718   8.045
  820POPC   C4A14166  23.503  25.974   7.877
  820POPC   C1B14167  23.974  26.206   8.849
  820POPC   C2B14168  23.969  26.278   8.403
  820POPC   C3B14169  23.914  26.287   7.951
  820POPC   C4B14170  23.753  26.566   7.631
  821POPC   NC314171   8.566  42.366   9.745
  821POPC   PO414172   7.968  42.263   9.391
  821POPC   GL114173   8.129  42.540   9.078
  821POPC   GL214174   8.457  42.539   8.849
  821POPC   C1A14175   7.978  42.499   8.682
  821POPC   D2A14176   8.148  42.642   8.327
  821POPC   C3A14177   8.256  42.418   7.969
  821POPC   C4A14178   8.040  42.435   7.591
  821POPC   C1B14179   8.452  42.149   8.607
  821POPC   C2B14180   8.403  41.888   8.236
  821POPC   C3B14181   8.607  42.047   7.925
  821POPC   C4B14182   8.441  42.072   7.529
  822POPC   NC314183  34.197  44.087   9.299
  822POPC   PO414184  33.700  43.658   9.467
  822POPC   GL114185  33.747  43.867   9.090
  822POPC   GL214186  33.569  44.198   9.005
  822POPC   C1A14187  33.632  43.793   8.673
  822POPC   D2A14188  33.375  44.069   8.409
  822POPC   C3A14189  33.530  44.147   8.002
  822POPC   C4A14190  33.649  43.889   7.671
  822POPC   C1B14191  33.961  44.163   8.712
  822POPC   C2B14192  34.104  44.072   8.305
  822POPC   C3B14193  34.224  44.305   7.966
  822POPC   C4B14194  33.960  44.279   7.650
  823POPC   NC314195  40.465   0.479   9.833
  823POPC   PO414196  39.893   0.471   9.435
  823POPC   GL114197  40.070   0.404   9.063
  823POPC   GL214198  39.791   0.381   8.871
  823POPC   C1A14199  40.257   0.218   8.732
  823POPC   D2A14200  40.036   0.269   8.364
  823POPC   C3A14201  40.109   0.460   8.003
  823POPC   C4A14202  39.780   0.317   7.707
  823POPC   C1B14203  40.075   0.700   8.673
  823POPC   C2B14204  40.054   0.872   8.312
  823POPC   C3B14205  40.180   0.965   7.926
  823POPC   C4B14206  40.039   0.765   7.592
  824POPC   NC314207   6.485  24.247   9.482
  824POPC   PO414208   6.810  24.710   9.763
  824POPC   GL114209   6.696  24.662   9.250
  824POPC   GL214210   6.755  24.338   9.045
  824POPC   C1A14211   6.627  24.770   8.776
  824POPC   D2A14212   6.612  24.875   8.317
  824POPC   C3A14213   6.646  24.675   7.924
  824POPC   C4A14214   6.850  24.394   7.656
  824POPC   C1B14215   6.380  24.341   8.713
  824POPC   C2B14216   6.330  24.372   8.252
  824POPC   C3B14217   6.443  24.147   7.854
  824POPC   C4B14218   6.425  24.306   7.408
  825POPC   NC314219  30.694  37.537   9.594
  825POPC   PO414220  31.099  37.271   9.103
  825POPC   GL114221  30.669  37.357   9.101
  825POPC   GL214222  30.622  37.705   9.122
  825POPC   C1A14223  30.522  37.392   8.702
  825POPC   D2A14224  30.864  37.457   8.395
  825POPC   C3A14225  30.753  37.618   7.999
  825POPC   C4A14226  30.902  37.652   7.606
  825POPC   C1B14227  30.462  37.892   8.742
  825POPC   C2B14228  30.719  37.980   8.371
  825POPC   C3B14229  30.925  38.116   7.989
  825POPC   C4B14230  30.648  38.093   7.686
  826POPC   NC314231  25.848  37.908   9.522
  826POPC   PO414232  25.995  37.248   9.461
  826POPC   GL114233  25.882  37.537   9.168
  826POPC   GL214234  26.026  37.874   9.051
  826POPC   C1A14235  25.724  37.580   8.792
  826POPC   D2A14236  25.899  37.810   8.479
  826POPC   C3A14237  25.988  37.576   8.095
  826POPC   C4A14238  25.826  37.567   7.688
  826POPC   C1B14239  26.236  37.560   8.791
  826POPC   C2B14240  26.398  37.646   8.400
  826POPC   C3B14241  26.410  37.884   8.044
  826POPC   C4B14242  26.314  37.678   7.710
  827POPC   NC314243   0.664   2.106   9.432
  827POPC   PO414244   1.206   1.689   9.593
  827POPC   GL114245   1.197   2.035   9.247
  827POPC   GL214246   1.455   1.907   9.061
  827POPC   C1A14247   1.207   2.282   8.789
  827POPC   D2A14248   1.393   2.259   8.323
  827POPC   C3A14249   1.079   2.127   7.976
  827POPC   C4A14250   0.965   2.320   7.557
  827POPC   C1B14251   1.674   2.030   8.700
  827POPC   C2B14252   1.713   1.866   8.309
  827POPC   C3B14253   1.511   1.829   7.950
  827POPC   C4B14254   1.395   1.994   7.574
  828POPC   NC314255  39.328  34.903   9.546
  828POPC   PO414256  39.483  34.184   9.613
  828POPC   GL114257  39.340  34.336   9.219
  828POPC   GL214258  39.359  34.673   9.109
  828POPC   C1A14259  39.150  34.312   8.819
  828POPC   D2A14260  38.961  34.448   8.416
  828POPC   C3A14261  39.129  34.613   8.038
  828POPC   C4A14262  39.299  34.418   7.695
  828POPC   C1B14263  38.996  34.794   8.823
  828POPC   C2B14264  38.919  34.970   8.408
  828POPC   C3B14265  38.777  34.994   7.982
  828POPC   C4B14266  39.070  34.983   7.629
  829POPC   NC314267  10.899  20.404   9.354
  829POPC   PO414268  10.307  20.620   9.441
  829POPC   GL114269  10.322  20.392   9.072
  829POPC   GL214270  10.593  20.590   8.999
  829POPC   C1A14271  10.289  20.451   8.620
  829POPC   D2A14272  10.405  20.307   8.252
  829POPC   C3A14273  10.424  20.512   7.856
  829POPC   C4A14274  10.473  20.704   7.399
  829POPC   C1B14275  10.823  20.435   8.677
  829POPC   C2B14276  10.823  20.595   8.278
  829POPC   C3B14277  10.924  20.443   7.889
  829POPC   C4B14278  10.954  20.578   7.473
  830POPC   NC314279   6.965  23.424   9.817
  830POPC   PO414280   6.466  23.759   9.528
  830POPC   GL114281   6.373  23.602   9.136
  830POPC   GL214282   6.401  23.922   9.003
  830POPC   C1A14283   6.492  23.507   8.716
  830POPC   D2A14284   6.729  23.469   8.341
  830POPC   C3A14285   6.601  23.608   7.952
  830POPC   C4A14286   6.699  23.390   7.570
  830POPC   C1B14287   6.743  23.959   8.685
  830POPC   C2B14288   6.823  24.107   8.267
  830POPC   C3B14289   6.955  23.949   7.873
  830POPC   C4B14290   6.697  23.874   7.473
  831POPC   NC314291  35.500  11.273   9.476
  831POPC   PO414292  35.051  11.748   9.496
  831POPC   GL114293  35.299  11.602   9.126
  831POPC   GL214294  35.655  11.469   9.046
  831POPC   C1A14295  35.253  11.384   8.728
  831POPC   D2A14296  35.340  11.095   8.376
  831POPC   C3A14297  35.005  10.987   8.126
  831POPC   C4A14298  35.098  11.151   7.746
  831POPC   C1B14299  35.750  11.210   8.686
  831POPC   C2B14300  35.804  11.284   8.228
  831POPC   C3B14301  35.780  11.364   7.788
  831POPC   C4B14302  35.420  11.456   7.513
  832POPC   NC314303  39.754  33.709   9.657
  832POPC   PO414304  40.172  34.163   9.479
  832POPC   GL114305  40.044  33.815   9.231
  832POPC   GL214306  39.729  33.984   9.189
  832POPC   C1A14307  40.081  33.573   8.834
  832POPC   D2A14308  40.015  33.733   8.414
  832POPC   C3A14309  40.083  33.520   8.028
  832POPC   C4A14310  40.161  33.565   7.596
  832POPC   C1B14311  39.493  33.911   8.810
  832POPC   C2B14312  39.605  34.027   8.398
  832POPC   C3B14313  39.803  33.997   8.002
  832POPC   C4B14314  39.641  34.058   7.597
  833POPC   NC314315  27.495  33.296   9.498
  833POPC   PO414316  27.853  32.730   9.668
  833POPC   GL114317  27.757  32.976   9.217
  833POPC   GL214318  27.942  33.275   9.139
  833POPC   C1A14319  27.466  33.026   8.841
  833POPC   D2A14320  27.568  32.880   8.415
  833POPC   C3A14321  27.363  32.972   8.028
  833POPC   C4A14322  27.412  33.375   7.865
  833POPC   C1B14323  27.961  33.076   8.740
  833POPC   C2B14324  28.082  32.956   8.356
  833POPC   C3B14325  27.870  32.945   7.980
  833POPC   C4B14326  27.811  33.086   7.568
  834POPC   NC314327  36.457  37.374   9.375
  834POPC   PO414328  35.948  37.788   9.488
  834POPC   GL114329  36.050  37.691   9.133
  834POPC   GL214330  35.973  37.345   9.161
  834POPC   C1A14331  36.017  37.850   8.745
  834POPC   D2A14332  36.118  37.721   8.374
  834POPC   C3A14333  36.079  37.898   7.976
  834POPC   C4A14334  36.173  37.753   7.543
  834POPC   C1B14335  36.171  37.351   8.763
  834POPC   C2B14336  36.023  37.217   8.362
  834POPC   C3B14337  36.212  37.405   7.995
  834POPC   C4B14338  36.301  37.224   7.657
  835POPC   NC314339  34.462   7.046   9.445
  835POPC   PO414340  34.624   7.692   9.602
  835POPC   GL114341  34.772   7.685   9.162
  835POPC   GL214342  34.449   7.621   9.015
  835POPC   C1A14343  34.802   7.700   8.681
  835POPC   D2A14344  34.662   7.469   8.318
  835POPC   C3A14345  34.405   7.554   7.960
  835POPC   C4A14346  34.667   7.358   7.719
  835POPC   C1B14347  34.337   7.299   8.719
  835POPC   C2B14348  34.345   7.062   8.325
  835POPC   C3B14349  34.236   7.062   7.879
  835POPC   C4B14350  34.186   7.115   7.434
  836POPC   NC314351   6.368   6.324   9.502
  836POPC   PO414352   5.782   6.644   9.607
  836POPC   GL114353   5.813   6.328   9.257
  836POPC   GL214354   6.117   6.233   9.076
  836POPC   C1A14355   5.690   6.334   8.814
  836POPC   D2A14356   5.608   6.268   8.391
  836POPC   C3A14357   5.756   6.542   8.089
  836POPC   C4A14358   5.564   6.471   7.688
  836POPC   C1B14359   6.068   6.670   8.913
  836POPC   C2B14360   6.077   6.764   8.462
  836POPC   C3B14361   6.290   6.548   8.108
  836POPC   C4B14362   6.081   6.531   7.693
  837POPC   NC314363  17.987  27.490   9.806
  837POPC   PO414364  17.483  27.786   9.555
  837POPC   GL114365  17.414  27.735   9.117
  837POPC   GL214366  17.483  27.417   8.965
  837POPC   C1A14367  17.160  27.823   8.792
  837POPC   D2A14368  17.288  27.934   8.397
  837POPC   C3A14369  17.373  27.659   8.090
  837POPC   C4A14370  17.529  27.812   7.709
  837POPC   C1B14371  17.506  27.495   8.566
  837POPC   C2B14372  17.785  27.336   8.269
  837POPC   C3B14373  17.987  27.223   7.947
  837POPC   C4B14374  17.649  27.337   7.737
  838POPC   NC314375   5.345  26.481   9.474
  838POPC   PO414376   4.988  27.093   9.483
  838POPC   GL114377   5.028  26.744   9.173
  838POPC   GL214378   5.385  26.645   8.986
  838POPC   C1A14379   4.908  26.676   8.777
  838POPC   D2A14380   5.105  26.815   8.435
  838POPC   C3A14381   4.878  26.824   8.087
  838POPC   C4A14382   5.026  26.725   7.704
  838POPC   C1B14383   5.357  27.059   8.818
  838POPC   C2B14384   5.481  27.173   8.398
  838POPC   C3B14385   5.362  27.000   8.025
  838POPC   C4B14386   5.154  27.219   7.731
  839POPC   NC314387  33.029  33.035   9.538
  839POPC   PO414388  33.520  32.652   9.211
  839POPC   GL114389  33.205  32.986   9.058
  839POPC   GL214390  32.803  32.993   9.089
  839POPC   C1A14391  33.080  33.122   8.667
  839POPC   D2A14392  33.226  33.184   8.276
  839POPC   C3A14393  33.175  32.809   8.037
  839POPC   C4A14394  33.225  32.969   7.646
  839POPC   C1B14395  32.640  33.319   8.804
  839POPC   C2B14396  32.675  33.353   8.332
  839POPC   C3B14397  32.772  33.102   7.950
  839POPC   C4B14398  32.797  33.163   7.481
  840POPC   NC314399   4.070   9.845   9.597
  840POPC   PO414400   4.675   9.626   9.375
  840POPC   GL114401   4.326   9.635   9.178
  840POPC   GL214402   4.321   9.985   9.177
  840POPC   C1A14403   4.216   9.537   8.761
  840POPC   D2A14404   4.111   9.722   8.364
  840POPC   C3A14405   4.256   9.544   7.989
  840POPC   C4A14406   4.135   9.359   7.612
  840POPC   C1B14407   4.404  10.024   8.755
  840POPC   C2B14408   4.397  10.297   8.408
  840POPC   C3B14409   4.466  10.301   8.003
  840POPC   C4B14410   4.715   9.984   7.826
  841POPC   NC314411  34.562  18.038   9.815
  841POPC   PO414412  35.060  18.319   9.513
  841POPC   GL114413  34.886  18.126   9.148
  841POPC   GL214414  34.558  18.173   9.299
  841POPC   C1A14415  34.866  18.245   8.707
  841POPC   D2A14416  34.791  18.568   8.414
  841POPC   C3A14417  34.605  18.383   8.046
  841POPC   C4A14418  34.724  18.413   7.628
  841POPC   C1B14419  34.418  18.087   8.905
  841POPC   C2B14420  34.393  18.039   8.483
  841POPC   C3B14421  34.406  17.919   8.070
  841POPC   C4B14422  34.220  18.101   7.719
  842POPC   NC314423  37.340  11.823   9.382
  842POPC   PO414424  38.019  12.068   9.289
  842POPC   GL114425  37.822  12.300   9.049
  842POPC   GL214426  37.541  12.153   9.064
  842POPC   C1A14427  37.802  12.436   8.712
  842POPC   D2A14428  37.960  12.191   8.403
  842POPC   C3A14429  37.980  12.325   8.020
  842POPC   C4A14430  38.043  12.048   7.694
  842POPC   C1B14431  37.368  12.142   8.714
  842POPC   C2B14432  37.485  11.965   8.352
  842POPC   C3B14433  37.534  12.058   7.947
  842POPC   C4B14434  37.334  11.781   7.634
  843POPC   NC314435  22.536  26.067   9.572
  843POPC   PO414436  22.005  26.389   9.384
  843POPC   GL114437  22.086  26.045   9.123
  843POPC   GL214438  22.432  25.930   9.096
  843POPC   C1A14439  21.945  26.075   8.698
  843POPC   D2A14440  22.127  26.206   8.329
  843POPC   C3A14441  22.146  26.089   7.925
  843POPC   C4A14442  21.834  25.961   7.624
  843POPC   C1B14443  22.487  26.106   8.684
  843POPC   C2B14444  22.611  26.018   8.260
  843POPC   C3B14445  22.592  25.801   7.853
  843POPC   C4B14446  22.331  25.831   7.466
  844POPC   NC314447  18.701  12.635   9.468
  844POPC   PO414448  19.379  12.581   9.443
  844POPC   GL114449  19.087  12.686   9.118
  844POPC   GL214450  18.899  12.986   9.107
  844POPC   C1A14451  18.978  12.650   8.698
  844POPC   D2A14452  19.215  12.723   8.353
  844POPC   C3A14453  19.209  12.453   8.011
  844POPC   C4A14454  19.303  12.631   7.648
  844POPC   C1B14455  19.198  13.105   8.754
  844POPC   C2B14456  19.232  13.261   8.322
  844POPC   C3B14457  19.244  13.062   7.920
  844POPC   C4B14458  19.277  13.098   7.457
  845POPC   NC314459  41.553  37.235   9.561
  845POPC   PO414460  41.650  36.564   9.543
  845POPC   GL114461  41.479  36.857   9.203
  845POPC   GL214462  41.737  37.144   9.090
  845POPC   C1A14463  41.554  36.815   8.751
  845POPC   D2A14464  41.764  37.033   8.423
  845POPC   C3A14465  41.956  36.765   8.138
  845POPC   C4A14466  41.944  36.938   7.757
  845POPC   C1B14467  41.977  37.370   8.761
  845POPC   C2B14468  41.911  37.547   8.382
  845POPC   C3B14469  41.771  37.391   7.987
  845POPC   C4B14470  41.972  37.425   7.607
  846POPC   NC314471  39.397   0.776   9.460
  846POPC   PO414472  38.967   0.312   9.769
  846POPC   GL114473  38.981   0.237   9.283
  846POPC   GL214474  39.314   0.335   9.166
  846POPC   C1A14475  38.970   0.234   8.795
  846POPC   D2A14476  39.330   0.164   8.442
  846POPC   C3A14477  39.278   0.294   7.996
  846POPC   C4A14478  39.065   0.160   7.619
  846POPC   C1B14479  39.350   0.593   8.772
  846POPC   C2B14480  39.625   0.596   8.402
  846POPC   C3B14481  39.653   0.720   7.974
  846POPC   C4B14482  39.396   0.617   7.576
  847POPC   NC314483  44.661  37.430   9.550
  847POPC   PO414484  44.419  38.057   9.405
  847POPC   GL114485  44.638  37.709   9.106
  847POPC   GL214486  44.762  37.327   9.057
  847POPC   C1A14487  44.656  37.642   8.683
  847POPC   D2A14488  44.830  37.719   8.311
  847POPC   C3A14489  44.600  37.563   7.947
  847POPC   C4A14490  44.717  37.724   7.548
  847POPC   C1B14491  44.855  37.203   8.569
  847POPC   C2B14492   0.118  37.322   8.190
  847POPC   C3B14493   0.072  37.418   7.737
  847POPC   C4B14494  44.942  37.410   7.239
  848POPC   NC314495  33.710  19.503   9.330
  848POPC   PO414496  33.947  18.896   9.355
  848POPC   GL114497  33.864  19.130   8.991
  848POPC   GL214498  34.053  18.908   8.783
  848POPC   C1A14499  33.805  19.235   8.507
  848POPC   D2A14500  33.827  18.854   8.283
  848POPC   C3A14501  33.800  18.859   7.840
  848POPC   C4A14502  33.764  19.111   7.499
  848POPC   C1B14503  34.244  19.365   8.773
  848POPC   C2B14504  34.224  19.503   8.341
  848POPC   C3B14505  34.051  19.294   7.977
  848POPC   C4B14506  34.260  19.096   7.631
  849POPC   NC314507  34.687  15.839   9.714
  849POPC   PO414508  35.320  15.830   9.678
  849POPC   GL114509  35.401  15.912   9.231
  849POPC   GL214510  35.265  16.255   9.281
  849POPC   C1A14511  35.337  15.922   8.779
  849POPC   D2A14512  35.102  15.690   8.473
  849POPC   C3A14513  35.302  15.578   8.108
  849POPC   C4A14514  35.490  15.803   7.751
  849POPC   C1B14515  35.529  16.387   8.944
  849POPC   C2B14516  35.573  16.318   8.497
  849POPC   C3B14517  35.398  16.076   8.185
  849POPC   C4B14518  35.277  16.263   7.779
  850POPC   NC314519  26.413  27.252   9.871
  850POPC   PO414520  26.656  27.739   9.475
  850POPC   GL114521  26.823  27.784   9.081
  850POPC   GL214522  26.800  27.439   9.038
  850POPC   C1A14523  26.972  27.686   8.645
  850POPC   D2A14524  26.953  27.345   8.369
  850POPC   C3A14525  26.917  27.502   7.962
  850POPC   C4A14526  26.814  27.554   7.543
  850POPC   C1B14527  26.527  27.397   8.686
  850POPC   C2B14528  26.381  27.598   8.303
  850POPC   C3B14529  26.426  27.477   7.891
  850POPC   C4B14530  26.496  27.154   7.628
  851POPC   NC314531  14.146   4.992   9.935
  851POPC   PO414532  13.688   4.871   9.497
  851POPC   GL114533  13.532   5.168   9.172
  851POPC   GL214534  13.821   5.326   9.197
  851POPC   C1A14535  13.567   5.313   8.745
  851POPC   D2A14536  13.609   5.241   8.308
  851POPC   C3A14537  13.283   4.998   8.131
  851POPC   C4A14538  13.298   4.982   7.693
  851POPC   C1B14539  14.008   5.086   8.832
  851POPC   C2B14540  14.077   4.925   8.382
  851POPC   C3B14541  13.898   4.975   7.951
  851POPC   C4B14542  13.913   5.216   7.577
  852POPC   NC314543  43.553  10.963   9.445
  852POPC   PO414544  43.193  11.516   9.530
  852POPC   GL114545  43.135  11.445   9.122
  852POPC   GL214546  43.130  11.088   9.149
  852POPC   C1A14547  43.022  11.380   8.699
  852POPC   D2A14548  43.079  11.608   8.351
  852POPC   C3A14549  43.081  11.422   7.951
  852POPC   C4A14550  42.779  11.099   7.814
  852POPC   C1B14551  43.145  10.876   8.732
  852POPC   C2B14552  43.021  10.984   8.294
  852POPC   C3B14553  43.293  10.953   7.907
  852POPC   C4B14554  43.587  11.306   7.825
  853POPC   NC314555  38.885  12.122   9.373
  853POPC   PO414556  39.596  12.033   9.476
  853POPC   GL114557  39.324  12.059   9.096
  853POPC   GL214558  39.194  12.398   9.052
  853POPC   C1A14559  39.181  11.850   8.708
  853POPC   D2A14560  39.341  11.705   8.313
  853POPC   C3A14561  39.280  12.019   7.964
  853POPC   C4A14562  39.382  12.415   7.745
  853POPC   C1B14563  38.874  12.276   8.751
  853POPC   C2B14564  38.876  12.125   8.340
  853POPC   C3B14565  38.914  12.380   7.985
  853POPC   C4B14566  38.912  12.289   7.567
  854POPC   NC314567  13.850  19.444   9.470
  854POPC   PO414568  13.353  19.031   9.429
  854POPC   GL114569  13.681  18.980   9.183
  854POPC   GL214570  13.675  19.273   9.038
  854POPC   C1A14571  13.659  18.846   8.771
  854POPC   D2A14572  13.441  19.034   8.442
  854POPC   C3A14573  13.523  18.819   8.090
  854POPC   C4A14574  13.603  18.902   7.714
  854POPC   C1B14575  13.887  19.282   8.673
  854POPC   C2B14576  13.945  19.004   8.384
  854POPC   C3B14577  13.862  19.199   8.050
  854POPC   C4B14578  14.044  19.150   7.662
  855POPC   NC314579  29.878   3.511   9.609
  855POPC   PO414580  30.058   4.066   9.237
  855POPC   GL114581  29.866   3.663   9.120
  855POPC   GL214582  30.060   3.346   9.165
  855POPC   C1A14583  29.732   3.514   8.740
  855POPC   D2A14584  30.046   3.511   8.435
  855POPC   C3A14585  30.037   3.766   8.068
  855POPC   C4A14586  29.668   3.629   7.876
  855POPC   C1B14587  30.073   3.136   8.788
  855POPC   C2B14588  30.243   2.994   8.396
  855POPC   C3B14589  30.264   3.275   8.057
  855POPC   C4B14590  30.061   3.373   7.683
  856POPC   NC314591   0.498  26.592   9.275
  856POPC   PO414592   0.176  26.950   9.698
  856POPC   GL114593   0.258  27.023   9.205
  856POPC   GL214594   0.585  27.078   9.105
  856POPC   C1A14595   0.275  27.188   8.722
  856POPC   D2A14596  44.975  27.233   8.405
  856POPC   C3A14597   0.052  27.042   7.997
  856POPC   C4A14598   0.240  26.970   7.551
  856POPC   C1B14599   0.576  26.802   8.706
  856POPC   C2B14600   0.512  26.950   8.313
  856POPC   C3B14601   0.401  26.685   7.998
  856POPC   C4B14602   0.647  26.634   7.708
  857POPC   NC314603  29.620  30.242   9.469
  857POPC   PO414604  30.214  30.096   9.228
  857POPC   GL114605  29.981  29.755   9.014
  857POPC   GL214606  29.607  29.792   9.040
  857POPC   C1A14607  29.873  29.846   8.577
  857POPC   D2A14608  30.043  30.249   8.403
  857POPC   C3A14609  30.189  30.068   8.040
  857POPC   C4A14610  29.926  29.669   7.966
  857POPC   C1B14611  29.568  30.192   8.817
  857POPC   C2B14612  29.489  30.332   8.413
  857POPC   C3B14613  29.643  30.083   8.112
  857POPC   C4B14614  29.811  30.140   7.718
  858POPC   NC314615  11.476   4.969   9.463
  858POPC   PO414616  11.092   5.564   9.434
  858POPC   GL114617  11.242   5.270   9.113
  858POPC   GL214618  11.627   5.277   9.073
  858POPC   C1A14619  11.261   4.963   8.775
  858POPC   D2A14620  11.318   4.653   8.449
  858POPC   C3A14621  11.383   4.846   8.041
  858POPC   C4A14622  11.077   5.104   7.819
  858POPC   C1B14623  11.442   5.449   8.677
  858POPC   C2B14624  11.280   5.303   8.292
  858POPC   C3B14625  11.471   5.409   7.913
  858POPC   C4B14626  11.399   5.365   7.476
  859POPC   NC314627  29.899  28.168   9.514
  859POPC   PO414628  29.806  28.773   9.511
  859POPC   GL114629  29.915  28.518   9.130
  859POPC   GL214630  30.082  28.144   9.053
  859POPC   C1A14631  29.816  28.618   8.722
  859POPC   D2A14632  29.992  28.714   8.343
  859POPC   C3A14633  29.809  28.618   8.010
  859POPC   C4A14634  30.109  28.658   7.691
  859POPC   C1B14635  29.793  27.972   8.767
  859POPC   C2B14636  29.757  28.208   8.391
  859POPC   C3B14637  29.963  28.133   8.023
  859POPC   C4B14638  29.813  28.243   7.645
  860POPC   NC314639  28.199   6.947   9.444
  860POPC   PO414640  28.746   6.611   9.578
  860POPC   GL114641  28.530   6.721   9.144
  860POPC   GL214642  28.534   6.995   9.068
  860POPC   C1A14643  28.314   6.561   8.758
  860POPC   D2A14644  28.498   6.281   8.474
  860POPC   C3A14645  28.378   6.414   8.062
  860POPC   C4A14646  28.617   6.642   7.772
  860POPC   C1B14647  28.257   7.068   8.736
  860POPC   C2B14648  28.358   7.045   8.305
  860POPC   C3B14649  28.104   6.869   7.998
  860POPC   C4B14650  28.019   6.565   7.693
  861POPC   NC314651  40.472  13.480   9.596
  861POPC   PO414652  41.091  13.777   9.377
  861POPC   GL114653  40.884  13.469   9.137
  861POPC   GL214654  40.555  13.581   9.107
  861POPC   C1A14655  40.777  13.419   8.697
  861POPC   D2A14656  40.972  13.613   8.330
  861POPC   C3A14657  40.846  13.436   7.933
  861POPC   C4A14658  41.004  13.588   7.554
  861POPC   C1B14659  40.522  13.915   8.741
  861POPC   C2B14660  40.693  14.090   8.363
  861POPC   C3B14661  40.754  13.954   7.941
  861POPC   C4B14662  40.526  13.741   7.620
  862POPC   NC314663  37.665   9.280   9.551
  862POPC   PO414664  37.791   9.912   9.480
  862POPC   GL114665  37.458   9.753   9.198
  862POPC   GL214666  37.649   9.526   9.089
  862POPC   C1A14667  37.302   9.703   8.764
  862POPC   D2A14668  37.541   9.564   8.426
  862POPC   C3A14669  37.460   9.660   8.022
  862POPC   C4A14670  37.646   9.494   7.653
  862POPC   C1B14671  37.835   9.838   8.788
  862POPC   C2B14672  38.015   9.793   8.366
  862POPC   C3B14673  37.911   9.841   7.905
  862POPC   C4B14674  38.023   9.822   7.457
  863POPC   NC314675  25.598   1.492   9.402
  863POPC   PO414676  25.209   0.989   9.545
  863POPC   GL114677  25.209   1.195   9.156
  863POPC   GL214678  25.540   1.068   9.108
  863POPC   C1A14679  25.083   1.346   8.722
  863POPC   D2A14680  24.884   1.343   8.273
  863POPC   C3A14681  25.189   1.358   7.908
  863POPC   C4A14682  25.304   1.354   7.456
  863POPC   C1B14683  25.321   0.899   8.753
  863POPC   C2B14684  25.233   0.975   8.334
  863POPC   C3B14685  25.473   0.960   7.976
  863POPC   C4B14686  25.299   0.874   7.602
  864POPC   NC314687  19.358   1.421   9.492
  864POPC   PO414688  18.752   1.262   9.518
  864POPC   GL114689  19.019   1.226   9.154
  864POPC   GL214690  19.175   1.555   9.049
  864POPC   C1A14691  18.992   1.121   8.727
  864POPC   D2A14692  19.289   0.926   8.428
  864POPC   C3A14693  19.423   1.129   8.049
  864POPC   C4A14694  19.330   0.902   7.685
  864POPC   C1B14695  19.289   1.518   8.612
  864POPC   C2B14696  19.023   1.378   8.259
  864POPC   C3B14697  19.013   1.329   7.806
  864POPC   C4B14698  18.861   1.390   7.391
  865POPC   NC314699  20.240  10.773   9.364
  865POPC   PO414700  20.169  10.117   9.659
  865POPC   GL114701  20.052  10.338   9.205
  865POPC   GL214702  19.857  10.685   9.058
  865POPC   C1A14703  20.106  10.393   8.727
  865POPC   D2A14704  19.835  10.505   8.364
  865POPC   C3A14705  19.916  10.445   7.909
  865POPC   C4A14706  19.705  10.116   7.621
  865POPC   C1B14707  19.995  10.903   8.646
  865POPC   C2B14708  19.973  10.948   8.154
  865POPC   C3B14709  19.629  10.903   7.836
  865POPC   C4B14710  19.668  10.847   7.362
  866POPC   NC314711  36.711   0.202   9.504
  866POPC   PO414712  37.044   0.773   9.569
  866POPC   GL114713  37.116   0.551   9.217
  866POPC   GL214714  37.167   0.230   9.314
  866POPC   C1A14715  36.890   0.461   8.861
  866POPC   D2A14716  36.782   0.649   8.494
  866POPC   C3A14717  37.065   0.614   8.168
  866POPC   C4A14718  36.901   0.697   7.782
  866POPC   C1B14719  37.197   0.051   8.912
  866POPC   C2B14720  37.187   0.212   8.493
  866POPC   C3B14721  37.058   0.068   8.101
  866POPC   C4B14722  37.036   0.234   7.700
  867POPC   NC314723  24.289  33.492   9.379
  867POPC   PO414724  24.642  34.075   9.475
  867POPC   GL114725  24.398  33.932   9.138
  867POPC   GL214726  24.621  33.658   9.016
  867POPC   C1A14727  24.231  33.950   8.708
  867POPC   D2A14728  24.510  33.902   8.321
  867POPC   C3A14729  24.370  33.926   7.906
  867POPC   C4A14730  24.344  33.860   7.459
  867POPC   C1B14731  24.465  33.502   8.626
  867POPC   C2B14732  24.440  33.402   8.168
  867POPC   C3B14733  24.615  33.499   7.803
  867POPC   C4B14734  24.925  33.442   7.515
  868POPC   NC314735  25.870  38.481   9.817
  868POPC   PO414736  26.272  38.116   9.580
  868POPC   GL114737  26.028  38.347   9.248
  868POPC   GL214738  25.694  38.274   9.172
  868POPC   C1A14739  25.992  38.304   8.762
  868POPC   D2A14740  26.257  38.164   8.440
  868POPC   C3A14741  26.201  38.402   8.071
  868POPC   C4A14742  25.823  38.536   7.829
  868POPC   C1B14743  25.562  38.060   8.836
  868POPC   C2B14744  25.532  38.209   8.444
  868POPC   C3B14745  25.653  38.008   8.085
  868POPC   C4B14746  25.965  38.037   7.815
  869POPC   NC314747  15.121  41.221   9.456
  869POPC   PO414748  15.367  41.876   9.431
  869POPC   GL114749  15.227  41.794   9.048
  869POPC   GL214750  15.153  41.432   9.011
  869POPC   C1A14751  15.329  41.683   8.623
  869POPC   D2A14752  15.167  41.674   8.201
  869POPC   C3A14753  15.457  41.576   7.918
  869POPC   C4A14754  15.357  41.446   7.492
  869POPC   C1B14755  15.034  41.273   8.599
  869POPC   C2B14756  15.313  41.201   8.270
  869POPC   C3B14757  15.058  41.264   7.880
  869POPC   C4B14758  14.754  41.021   7.699
  870POPC   NC314759  37.311  24.562   9.392
  870POPC   PO414760  36.804  24.129   9.537
  870POPC   GL114761  36.812  24.480   9.224
  870POPC   GL214762  37.048  24.241   9.087
  870POPC   C1A14763  37.003  24.636   8.803
  870POPC   D2A14764  37.063  24.321   8.488
  870POPC   C3A14765  36.854  24.552   8.168
  870POPC   C4A14766  36.863  24.485   7.758
  870POPC   C1B14767  36.694  24.063   8.832
  870POPC   C2B14768  36.576  24.199   8.408
  870POPC   C3B14769  36.812  24.068   8.022
  870POPC   C4B14770  36.896  23.996   7.560
  871POPC   NC314771  34.210   7.840   9.401
  871POPC   PO414772  33.572   7.557   9.607
  871POPC   GL114773  33.497   7.983   9.299
  871POPC   GL214774  33.819   8.014   9.116
  871POPC   C1A14775  33.472   8.304   8.917
  871POPC   D2A14776  33.774   8.264   8.580
  871POPC   C3A14777  33.662   8.296   8.138
  871POPC   C4A14778  33.690   8.169   7.712
  871POPC   C1B14779  34.020   7.775   8.784
  871POPC   C2B14780  34.115   7.617   8.394
  871POPC   C3B14781  33.991   7.868   8.071
  871POPC   C4B14782  34.160   7.992   7.770
  872POPC   NC314783  34.244  10.843   9.325
  872POPC   PO414784  34.544  10.382   9.732
  872POPC   GL114785  34.473  10.400   9.244
  872POPC   GL214786  34.450  10.137   9.024
  872POPC   C1A14787  34.456  10.576   8.762
  872POPC   D2A14788  34.664  10.476   8.334
  872POPC   C3A14789  34.611  10.694   7.935
  872POPC   C4A14790  34.364  10.584   7.582
  872POPC   C1B14791  34.850  10.242   8.767
  872POPC   C2B14792  35.060  10.017   8.414
  872POPC   C3B14793  35.100  10.175   7.977
  872POPC   C4B14794  34.772  10.288   7.664
  873POPC   NC314795  38.438  22.233   9.576
  873POPC   PO414796  38.209  21.672   9.286
  873POPC   GL114797  38.405  22.052   9.108
  873POPC   GL214798  38.772  22.109   9.201
  873POPC   C1A14799  38.269  22.378   8.823
  873POPC   D2A14800  38.081  22.555   8.421
  873POPC   C3A14801  38.111  22.297   8.050
  873POPC   C4A14802  38.177  21.908   7.829
  873POPC   C1B14803  38.782  22.202   8.777
  873POPC   C2B14804  38.528  22.256   8.400
  873POPC   C3B14805  38.654  22.066   8.013
  873POPC   C4B14806  38.630  21.830   7.616
  874POPC   NC314807   5.217  35.683   9.636
  874POPC   PO414808   4.640  35.881   9.424
  874POPC   GL114809   4.965  36.000   9.127
  874POPC   GL214810   5.303  36.154   9.187
  874POPC   C1A14811   4.927  35.913   8.703
  874POPC   D2A14812   4.957  35.765   8.287
  874POPC   C3A14813   4.946  36.109   7.987
  874POPC   C4A14814   4.984  36.053   7.545
  874POPC   C1B14815   5.416  35.984   8.774
  874POPC   C2B14816   5.361  36.094   8.312
  874POPC   C3B14817   5.397  35.930   7.829
  874POPC   C4B14818   5.585  35.868   7.355
  875POPC   NC314819  33.053  34.068   9.577
  875POPC   PO414820  32.645  33.526   9.469
  875POPC   GL114821  32.873  33.668   9.103
  875POPC   GL214822  33.199  33.708   9.246
  875POPC   C1A14823  32.849  33.764   8.640
  875POPC   D2A14824  32.612  34.055   8.367
  875POPC   C3A14825  32.634  33.855   7.955
  875POPC   C4A14826  32.936  33.558   7.767
  875POPC   C1B14827  33.313  33.825   8.817
  875POPC   C2B14828  33.331  33.690   8.375
  875POPC   C3B14829  33.233  33.911   7.978
  875POPC   C4B14830  33.370  34.003   7.539
  876POPC   NC314831   6.310  11.058   9.547
  876POPC   PO414832   5.715  11.453   9.459
  876POPC   GL114833   5.871  11.410   9.100
  876POPC   GL214834   6.007  11.075   9.132
  876POPC   C1A14835   5.733  11.462   8.714
  876POPC   D2A14836   5.851  11.255   8.366
  876POPC   C3A14837   5.796  11.487   8.031
  876POPC   C4A14838   5.913  11.320   7.681
  876POPC   C1B14839   5.775  10.957   8.787
  876POPC   C2B14840   5.808  10.689   8.446
  876POPC   C3B14841   5.968  10.844   8.080
  876POPC   C4B14842   5.583  11.024   7.914
  877POPC   NC314843  10.759   4.452   9.560
  877POPC   PO414844  10.101   4.167   9.573
  877POPC   GL114845  10.264   4.461   9.239
  877POPC   GL214846  10.461   4.224   9.164
  877POPC   C1A14847  10.493   4.608   8.840
  877POPC   D2A14848  10.755   4.460   8.487
  877POPC   C3A14849  10.624   4.518   8.081
  877POPC   C4A14850  10.401   4.387   7.722
  877POPC   C1B14851  10.400   4.134   8.706
  877POPC   C2B14852  10.521   4.002   8.309
  877POPC   C3B14853  10.529   3.928   7.857
  877POPC   C4B14854  10.787   3.770   7.527
  878POPC   NC314855  41.407  32.702   9.455
  878POPC   PO414856  41.607  33.347   9.528
  878POPC   GL114857  41.647  33.092   9.155
  878POPC   GL214858  41.734  32.756   9.028
  878POPC   C1A14859  41.504  33.081   8.723
  878POPC   D2A14860  41.503  32.939   8.309
  878POPC   C3A14861  41.751  33.253   8.106
  878POPC   C4A14862  41.740  33.379   7.700
  878POPC   C1B14863  41.321  32.627   8.808
  878POPC   C2B14864  41.196  32.529   8.374
  878POPC   C3B14865  41.184  32.673   7.950
  878POPC   C4B14866  41.394  33.009   7.769
  879POPC   NC314867  38.238  32.319   9.565
  879POPC   PO414868  38.821  31.920   9.491
  879POPC   GL114869  38.531  32.133   9.192
  879POPC   GL214870  38.163  32.009   9.170
  879POPC   C1A14871  38.575  32.374   8.819
  879POPC   D2A14872  38.594  32.196   8.445
  879POPC   C3A14873  38.806  32.325   8.138
  879POPC   C4A14874  38.593  32.390   7.756
  879POPC   C1B14875  38.087  32.396   8.913
  879POPC   C2B14876  38.182  32.510   8.484
  879POPC   C3B14877  38.206  32.274   8.107
  879POPC   C4B14878  38.087  32.433   7.724
  880POPC   NC314879   4.775  10.798   9.711
  880POPC   PO414880   4.395  10.211   9.640
  880POPC   GL114881   4.392  10.497   9.266
  880POPC   GL214882   4.677  10.689   9.201
  880POPC   C1A14883   4.343  10.566   8.836
  880POPC   D2A14884   4.027  10.656   8.532
  880POPC   C3A14885   4.203  10.783   8.163
  880POPC   C4A14886   4.125  10.663   7.746
  880POPC   C1B14887   4.787  10.815   8.753
  880POPC   C2B14888   4.703  10.693   8.312
  880POPC   C3B14889   4.642  10.760   7.855
  880POPC   C4B14890   4.695  10.793   7.417
  881POPC   NC314891  42.417  26.497   9.528
  881POPC   PO414892  42.218  25.779   9.531
  881POPC   GL114893  42.309  25.992   9.205
  881POPC   GL214894  42.121  26.277   9.153
  881POPC   C1A14895  42.218  25.856   8.807
  881POPC   D2A14896  42.193  26.014   8.429
  881POPC   C3A14897  42.180  25.733   8.111
  881POPC   C4A14898  42.227  25.886   7.704
  881POPC   C1B14899  42.470  26.309   8.836
  881POPC   C2B14900  42.641  26.315   8.404
  881POPC   C3B14901  42.449  26.242   8.004
  881POPC   C4B14902  42.215  26.383   7.636
  882POPC   NC314903  26.570  31.121   9.666
  882POPC   PO414904  26.868  30.445   9.534
  882POPC   GL114905  26.901  30.584   9.068
  882POPC   GL214906  27.075  30.894   8.931
  882POPC   C1A14907  26.905  30.520   8.617
  882POPC   D2A14908  26.967  30.231   8.285
  882POPC   C3A14909  26.877  30.509   8.009
  882POPC   C4A14910  26.591  30.796   7.879
  882POPC   C1B14911  26.657  30.969   8.759
  882POPC   C2B14912  26.647  30.930   8.360
  882POPC   C3B14913  27.010  30.993   8.130
  882POPC   C4B14914  27.102  30.879   7.736
  883POPC   NC314915   6.047   4.520   9.503
  883POPC   PO414916   5.650   4.248  10.034
  883POPC   GL114917   5.688   4.201   9.456
  883POPC   GL214918   6.050   4.059   9.247
  883POPC   C1A14919   5.685   4.196   8.941
  883POPC   D2A14920   5.756   4.468   8.537
  883POPC   C3A14921   5.718   4.377   8.054
  883POPC   C4A14922   5.704   4.373   7.569
  883POPC   C1B14923   6.175   4.236   8.781
  883POPC   C2B14924   6.238   4.481   8.365
  883POPC   C3B14925   6.227   4.374   7.907
  883POPC   C4B14926   5.996   4.020   7.778
  884POPC   NC314927  39.611  19.857   9.403
  884POPC   PO414928  38.992  20.116   9.364
  884POPC   GL114929  39.160  19.683   9.156
  884POPC   GL214930  39.485  19.545   9.031
  884POPC   C1A14931  38.975  19.574   8.756
  884POPC   D2A14932  38.844  19.938   8.466
  884POPC   C3A14933  39.099  20.062   8.102
  884POPC   C4A14934  38.994  19.883   7.725
  884POPC   C1B14935  39.396  19.837   8.687
  884POPC   C2B14936  39.279  19.621   8.323
  884POPC   C3B14937  39.366  19.593   7.911
  884POPC   C4B14938  39.496  19.938   7.656
  885POPC   NC314939  13.050  25.562   9.484
  885POPC   PO414940  12.785  24.988   9.429
  885POPC   GL114941  12.899  25.240   9.093
  885POPC   GL214942  12.681  25.500   9.135
  885POPC   C1A14943  12.930  25.264   8.640
  885POPC   D2A14944  13.108  25.356   8.234
  885POPC   C3A14945  12.881  25.218   7.920
  885POPC   C4A14946  13.001  25.084   7.532
  885POPC   C1B14947  12.614  25.700   8.751
  885POPC   C2B14948  12.737  25.688   8.357
  885POPC   C3B14949  12.610  25.660   7.935
  885POPC   C4B14950  12.730  25.521   7.528
  886POPC   NC314951   8.332  44.015   9.458
  886POPC   PO414952   8.340  43.368   9.369
  886POPC   GL114953   8.301  43.716   9.046
  886POPC   GL214954   8.521  44.032   8.994
  886POPC   C1A14955   8.293  43.721   8.607
  886POPC   D2A14956   8.019  43.836   8.289
  886POPC   C3A14957   8.182  43.792   7.904
  886POPC   C4A14958   8.270  43.826   7.445
  886POPC   C1B14959   8.384  44.235   8.629
  886POPC   C2B14960   8.483  44.168   8.185
  886POPC   C3B14961   8.335  44.246   7.767
  886POPC   C4B14962   8.527  44.305   7.337
  887POPC   NC314963  28.107  26.461   9.550
  887POPC   PO414964  28.390  27.072   9.442
  887POPC   GL114965  28.247  26.790   9.160
  887POPC   GL214966  28.556  26.631   9.123
  887POPC   C1A14967  28.182  26.822   8.723
  887POPC   D2A14968  28.036  27.143   8.424
  887POPC   C3A14969  28.204  27.058   8.027
  887POPC   C4A14970  28.090  26.619   8.029
  887POPC   C1B14971  28.714  26.805   8.739
  887POPC   C2B14972  28.516  26.765   8.332
  887POPC   C3B14973  28.636  26.664   7.921
  887POPC   C4B14974  28.552  26.956   7.630
  888POPC   NC314975  15.258  21.318   9.495
  888POPC   PO414976  14.989  21.890   9.627
  888POPC   GL114977  15.244  21.671   9.116
  888POPC   GL214978  15.287  21.272   8.999
  888POPC   C1A14979  15.137  21.617   8.675
  888POPC   D2A14980  15.412  21.346   8.454
  888POPC   C3A14981  15.329  21.389   8.030
  888POPC   C4A14982  14.942  21.352   7.772
  888POPC   C1B14983  15.607  20.924   9.001
  888POPC   C2B14984  15.722  20.734   8.613
  888POPC   C3B14985  15.510  20.902   8.219
  888POPC   C4B14986  15.292  20.957   7.787
  889POPC   NC314987  13.919   7.235   9.473
  889POPC   PO414988  13.353   7.645   9.575
  889POPC   GL114989  13.551   7.488   9.225
  889POPC   GL214990  13.755   7.753   9.219
  889POPC   C1A14991  13.583   7.235   8.841
  889POPC   D2A14992  13.525   7.383   8.425
  889POPC   C3A14993  13.810   7.310   8.113
  889POPC   C4A14994  13.738   7.237   7.702
  889POPC   C1B14995  13.728   7.726   8.761
  889POPC   C2B14996  13.892   7.786   8.341
  889POPC   C3B14997  13.749   7.795   7.916
  889POPC   C4B14998  13.584   7.692   7.527
  890POPC   NC314999  31.085   0.823   9.772
  890POPC   PO415000  30.639   1.285   9.453
  890POPC   GL115001  30.635   1.095   9.058
  890POPC   GL215002  30.327   0.920   9.055
  890POPC   C1A15003  30.876   1.136   8.652
  890POPC   D2A15004  31.010   1.361   8.287
  890POPC   C3A15005  31.034   1.055   7.984
  890POPC   C4A15006  30.684   1.034   7.701
  890POPC   C1B15007  30.375   1.054   8.626
  890POPC   C2B15008  30.559   1.100   8.219
  890POPC   C3B15009  30.387   1.367   7.935
  890POPC   C4B15010  30.167   1.093   7.727
  891POPC   NC315011  29.275   1.525   9.544
  891POPC   PO415012  29.067   0.912   9.539
  891POPC   GL115013  29.048   1.066   9.129
  891POPC   GL215014  29.348   1.258   9.127
  891POPC   C1A15015  29.188   1.075   8.690
  891POPC   D2A15016  29.074   1.351   8.408
  891POPC   C3A15017  28.943   1.149   8.051
  891POPC   C4A15018  29.014   1.325   7.675
  891POPC   C1B15019  29.413   1.550   8.796
  891POPC   C2B15020  29.571   1.483   8.387
  891POPC   C3B15021  29.424   1.359   8.001
  891POPC   C4B15022  29.387   1.669   7.691
  892POPC   NC315023  31.071   1.237   9.280
  892POPC   PO415024  31.377   1.505   9.776
  892POPC   GL115025  31.542   1.447   9.276
  892POPC   GL215026  31.308   1.636   9.111
  892POPC   C1A15027  31.588   1.101   8.866
  892POPC   D2A15028  31.370   1.027   8.404
  892POPC   C3A15029  31.595   0.909   8.029
  892POPC   C4A15030  31.881   1.185   7.825
  892POPC   C1B15031  31.285   1.464   8.706
  892POPC   C2B15032  31.601   1.471   8.394
  892POPC   C3B15033  31.471   1.424   7.998
  892POPC   C4B15034  31.127   1.525   7.781
  893POPC   NC315035  40.580  37.033   9.453
  893POPC   PO415036  39.920  36.872   9.523
  893POPC   GL115037  40.125  37.059   9.166
  893POPC   GL215038  40.305  36.807   9.081
  893POPC   C1A15039  40.124  37.085   8.675
  893POPC   D2A15040  40.191  36.830   8.256
  893POPC   C3A15041  40.199  37.062   7.877
  893POPC   C4A15042  39.932  37.345   7.680
  893POPC   C1B15043  40.136  36.581   8.722
  893POPC   C2B15044  40.016  36.349   8.338
  893POPC   C3B15045  39.933  36.421   7.891
  893POPC   C4B15046  39.987  36.656   7.499
  894POPC   NC315047  28.801  32.239   9.282
  894POPC   PO415048  29.385  32.363   9.563
  894POPC   GL115049  29.389  32.393   9.129
  894POPC   GL215050  29.242  32.102   9.091
  894POPC   C1A15051  29.141  32.494   8.740
  894POPC   D2A15052  29.002  32.649   8.324
  894POPC   C3A15053  29.366  32.504   8.072
  894POPC   C4A15054  29.383  32.356   7.669
  894POPC   C1B15055  29.018  31.980   8.740
  894POPC   C2B15056  29.107  32.147   8.356
  894POPC   C3B15057  29.152  32.003   7.979
  894POPC   C4B15058  28.965  32.074   7.623
  895POPC   NC315059  31.195  40.126   9.717
  895POPC   PO415060  31.803  40.054   9.519
  895POPC   GL115061  31.545  40.086   9.204
  895POPC   GL215062  31.336  40.390   9.273
  895POPC   C1A15063  31.719  40.006   8.801
  895POPC   D2A15064  31.919  40.084   8.429
  895POPC   C3A15065  31.779  39.863   8.053
  895POPC   C4A15066  31.585  39.885   7.649
  895POPC   C1B15067  31.463  40.450   8.812
  895POPC   C2B15068  31.601  40.502   8.349
  895POPC   C3B15069  31.550  40.345   7.913
  895POPC   C4B15070  31.150  40.101   7.797
  896POPC   NC315071   4.693  41.912   9.250
  896POPC   PO415072   5.156  42.275   9.546
  896POPC   GL115073   5.087  42.322   9.125
  896POPC   GL215074   5.176  42.011   9.101
  896POPC   C1A15075   5.186  42.482   8.715
  896POPC   D2A15076   5.161  42.685   8.327
  896POPC   C3A15077   5.116  42.506   7.946
  896POPC   C4A15078   5.550  42.585   7.894
  896POPC   C1B15079   5.094  41.977   8.692
  896POPC   C2B15080   5.354  42.128   8.344
  896POPC   C3B15081   5.413  42.074   7.918
  896POPC   C4B15082   5.159  42.120   7.561
  897POPC   NC315083  24.346  43.356   9.467
  897POPC   PO415084  24.901  42.979   9.534
  897POPC   GL115085  24.670  43.051   9.185
  897POPC   GL215086  24.803  43.417   9.170
  897POPC   C1A15087  24.408  42.886   8.831
  897POPC   D2A15088  24.628  42.912   8.443
  897POPC   C3A15089  24.530  42.968   8.037
  897POPC   C4A15090  24.191  42.883   7.781
  897POPC   C1B15091  24.650  43.322   8.753
  897POPC   C2B15092  24.802  43.383   8.325
  897POPC   C3B15093  24.907  43.306   7.897
  897POPC   C4B15094  24.685  43.478   7.568
  898POPC   NC315095  35.494  43.052   9.639
  898POPC   PO415096  35.366  43.672   9.503
  898POPC   GL115097  35.430  43.286   9.188
  898POPC   GL215098  35.451  42.869   9.176
  898POPC   C1A15099  35.261  43.151   8.793
  898POPC   D2A15100  34.974  43.239   8.449
  898POPC   C3A15101  35.195  43.294   8.067
  898POPC   C4A15102  35.389  43.174   7.701
  898POPC   C1B15103  35.682  42.771   8.845
  898POPC   C2B15104  35.584  42.942   8.445
  898POPC   C3B15105  35.567  42.786   8.031
  898POPC   C4B15106  35.536  42.701   7.626
  899POPC   NC315107  39.317  22.710   9.534
  899POPC   PO415108  39.046  23.279   9.564
  899POPC   GL115109  39.171  23.048   9.160
  899POPC   GL215110  39.051  22.671   9.105
  899POPC   C1A15111  39.016  23.039   8.724
  899POPC   D2A15112  38.938  22.923   8.296
  899POPC   C3A15113  39.276  23.016   7.973
  899POPC   C4A15114  39.197  23.087   7.548
  899POPC   C1B15115  39.196  22.579   8.706
  899POPC   C2B15116  39.352  22.631   8.291
  899POPC   C3B15117  39.049  22.588   7.908
  899POPC   C4B15118  39.274  22.579   7.539
  900POPC   NC315119  12.520  16.862  10.082
  900POPC   PO415120  13.059  16.646   9.718
  900POPC   GL115121  12.975  16.620   9.270
  900POPC   GL215122  12.631  16.663   9.235
  900POPC   C1A15123  12.978  16.534   8.823
  900POPC   D2A15124  12.875  16.726   8.407
  900POPC   C3A15125  13.111  16.643   8.025
  900POPC   C4A15126  12.915  16.902   7.725
  900POPC   C1B15127  12.566  16.840   8.819
  900POPC   C2B15128  12.378  16.915   8.422
  900POPC   C3B15129  12.498  16.820   8.019
  900POPC   C4B15130  12.675  16.437   7.861
  901POPC   NC315131  34.123  16.524   9.420
  901POPC   PO415132  33.440  16.784   9.469
  901POPC   GL115133  33.729  16.794   9.126
  901POPC   GL215134  33.963  17.036   9.160
  901POPC   C1A15135  33.799  16.745   8.673
  901POPC   D2A15136  33.495  16.650   8.314
  901POPC   C3A15137  33.637  16.384   7.953
  901POPC   C4A15138  33.743  16.384   7.495
  901POPC   C1B15139  34.236  17.062   8.799
  901POPC   C2B15140  34.255  16.922   8.374
  901POPC   C3B15141  33.926  16.790   8.099
  901POPC   C4B15142  33.810  16.862   7.682
  902POPC   NC315143  19.023   2.643   9.505
  902POPC   PO415144  19.750   2.905   9.466
  902POPC   GL115145  19.352   2.807   9.156
  902POPC   GL215146  18.959   2.898   9.100
  902POPC   C1A15147  19.291   2.919   8.723
  902POPC   D2A15148  19.422   3.237   8.462
  902POPC   C3A15149  19.199   3.110   8.123
  902POPC   C4A15150  19.155   2.677   7.958
  902POPC   C1B15151  18.682   2.786   8.771
  902POPC   C2B15152  18.842   2.786   8.371
  902POPC   C3B15153  18.665   2.783   7.974
  902POPC   C4B15154  18.804   2.876   7.554
  903POPC   NC315155  32.826  23.327   9.477
  903POPC   PO415156  33.333  22.865   9.636
  903POPC   GL115157  33.000  22.959   9.223
  903POPC   GL215158  32.754  22.741   9.137
  903POPC   C1A15159  32.971  23.054   8.775
  903POPC   D2A15160  33.267  23.260   8.489
  903POPC   C3A15161  33.194  23.260   8.042
  903POPC   C4A15162  33.107  23.169   7.619
  903POPC   C1B15163  32.924  22.527   8.771
  903POPC   C2B15164  33.205  22.684   8.453
  903POPC   C3B15165  33.155  22.745   8.021
  903POPC   C4B15166  33.258  22.492   7.711
  904POPC   NC315167   9.109  39.823   9.457
  904POPC   PO415168   8.617  40.109   9.720
  904POPC   GL115169   8.801  40.111   9.199
  904POPC   GL215170   9.032  40.336   9.048
  904POPC   C1A15171   8.742  40.066   8.731
  904POPC   D2A15172   8.956  39.858   8.386
  904POPC   C3A15173   8.948  39.985   7.959
  904POPC   C4A15174   8.811  40.288   7.648
  904POPC   C1B15175   9.239  39.938   8.827
  904POPC   C2B15176   9.465  39.834   8.448
  904POPC   C3B15177   9.417  39.725   8.006
  904POPC   C4B15178   9.238  39.755   7.578
  905POPC   NC315179  11.653  19.063   9.570
  905POPC   PO415180  10.988  19.005   9.542
  905POPC   GL115181  11.280  19.144   9.246
  905POPC   GL215182  11.451  18.832   9.187
  905POPC   C1A15183  11.321  19.206   8.809
  905POPC   D2A15184  11.236  19.335   8.373
  905POPC   C3A15185  11.253  19.093   7.989
  905POPC   C4A15186  11.180  19.109   7.513
  905POPC   C1B15187  11.359  18.692   8.826
  905POPC   C2B15188  11.394  18.818   8.415
  905POPC   C3B15189  11.320  18.561   8.085
  905POPC   C4B15190  11.220  18.646   7.689
  906POPC   NC315191  43.292  11.973   9.562
  906POPC   PO415192  43.195  12.649   9.559
  906POPC   GL115193  43.228  12.307   9.194
  906POPC   GL215194  43.005  12.404   8.959
  906POPC   C1A15195  43.176  11.961   8.830
  906POPC   D2A15196  43.286  12.072   8.401
  906POPC   C3A15197  43.074  11.961   7.990
  906POPC   C4A15198  43.342  11.821   7.650
  906POPC   C1B15199  42.971  12.443   8.518
  906POPC   C2B15200  43.136  12.472   8.121
  906POPC   C3B15201  43.181  12.359   7.694
  906POPC   C4B15202  43.193  12.181   7.278
  907POPC   NC315203  33.997   2.188   9.475
  907POPC   PO415204  33.433   1.895   9.384
  907POPC   GL115205  33.701   2.035   9.037
  907POPC   GL215206  33.801   2.413   9.047
  907POPC   C1A15207  33.676   1.778   8.649
  907POPC   D2A15208  33.722   1.852   8.240
  907POPC   C3A15209  33.667   1.539   7.955
  907POPC   C4A15210  33.572   1.658   7.550
  907POPC   C1B15211  33.681   2.439   8.607
  907POPC   C2B15212  33.444   2.271   8.249
  907POPC   C3B15213  33.626   2.164   7.827
  907POPC   C4B15214  33.738   2.416   7.428
  908POPC   NC315215  13.337  26.053   9.679
  908POPC   PO415216  12.649  25.852   9.536
  908POPC   GL115217  12.867  26.177   9.315
  908POPC   GL215218  12.933  25.932   9.099
  908POPC   C1A15219  12.948  26.383   8.898
  908POPC   D2A15220  12.921  26.152   8.524
  908POPC   C3A15221  13.176  26.264   8.178
  908POPC   C4A15222  12.936  26.252   7.798
  908POPC   C1B15223  13.128  25.718   8.794
  908POPC   C2B15224  13.268  25.798   8.412
  908POPC   C3B15225  13.090  25.801   8.014
  908POPC   C4B15226  13.220  25.567   7.716
  909POPC   NC315227  18.391  32.918   9.488
  909POPC   PO415228  18.262  33.573   9.375
  909POPC   GL115229  18.204  33.189   9.091
  909POPC   GL215230  18.506  33.032   8.993
  909POPC   C1A15231  18.041  33.022   8.676
  909POPC   D2A15232  17.849  32.928   8.233
  909POPC   C3A15233  17.914  33.247   7.919
  909POPC   C4A15234  18.058  33.596   7.626
  909POPC   C1B15235  18.422  33.403   8.681
  909POPC   C2B15236  18.381  33.535   8.235
  909POPC   C3B15237  18.400  33.284   7.869
  909POPC   C4B15238  18.246  32.835   7.847
  910POPC   NC315239  40.674  34.044   9.454
  910POPC   PO415240  40.631  33.427   9.534
  910POPC   GL115241  40.723  33.638   9.141
  910POPC   GL215242  41.013  33.514   8.948
  910POPC   C1A15243  40.574  33.804   8.741
  910POPC   D2A15244  40.500  33.578   8.346
  910POPC   C3A15245  40.565  33.690   7.896
  910POPC   C4A15246  40.699  33.424   7.537
  910POPC   C1B15247  41.084  33.825   8.624
  910POPC   C2B15248  40.920  33.874   8.198
  910POPC   C3B15249  41.029  33.910   7.725
  910POPC   C4B15250  41.283  34.109   7.347
  911POPC   NC315251  34.961  38.488   9.409
  911POPC   PO415252  35.511  38.286   9.527
  911POPC   GL115253  35.365  38.207   9.146
  911POPC   GL215254  35.570  37.924   9.083
  911POPC   C1A15255  35.220  38.442   8.792
  911POPC   D2A15256  35.454  38.685   8.519
  911POPC   C3A15257  35.324  38.533   8.153
  911POPC   C4A15258  35.404  38.492   7.718
  911POPC   C1B15259  35.682  38.235   8.742
  911POPC   C2B15260  35.823  38.170   8.358
  911POPC   C3B15261  35.630  38.130   7.986
  911POPC   C4B15262  35.788  38.100   7.571
  912POPC   NC315263  28.449   9.197   9.498
  912POPC   PO415264  27.824   8.845   9.610
  912POPC   GL115265  28.115   8.732   9.210
  912POPC   GL215266  28.505   8.758   9.142
  912POPC   C1A15267  28.198   8.957   8.798
  912POPC   D2A15268  28.284   8.835   8.380
  912POPC   C3A15269  28.277   9.109   8.012
  912POPC   C4A15270  27.976   8.970   7.689
  912POPC   C1B15271  28.734   9.007   8.786
  912POPC   C2B15272  28.776   8.934   8.322
  912POPC   C3B15273  28.575   8.713   7.960
  912POPC   C4B15274  28.473   8.921   7.567
  913POPC   NC315275  32.427   3.030   9.253
  913POPC   PO415276  32.303   2.400   9.336
  913POPC   GL115277  32.084   2.668   9.051
  913POPC   GL215278  31.989   3.068   9.009
  913POPC   C1A15279  32.167   2.668   8.619
  913POPC   D2A15280  32.086   2.483   8.227
  913POPC   C3A15281  32.179   2.690   7.864
  913POPC   C4A15282  32.556   2.610   7.689
  913POPC   C1B15283  32.240   3.170   8.654
  913POPC   C2B15284  32.151   3.047   8.259
  913POPC   C3B15285  32.412   3.221   7.993
  913POPC   C4B15286  32.513   3.097   7.599
  914POPC   NC315287  34.507   6.334   9.589
  914POPC   PO415288  34.909   6.907   9.464
  914POPC   GL115289  34.689   6.667   9.151
  914POPC   GL215290  34.346   6.601   9.189
  914POPC   C1A15291  34.536   6.804   8.742
  914POPC   D2A15292  34.736   6.712   8.364
  914POPC   C3A15293  34.734   6.941   7.999
  914POPC   C4A15294  34.641   6.889   7.560
  914POPC   C1B15295  34.205   6.420   8.821
  914POPC   C2B15296  34.344   6.374   8.432
  914POPC   C3B15297  34.310   6.595   8.097
  914POPC   C4B15298  34.391   6.488   7.740
  915POPC   NC315299  36.577  22.112   9.435
  915POPC   PO415300  35.959  22.277   9.286
  915POPC   GL115301  36.270  22.070   9.031
  915POPC   GL215302  36.406  22.393   8.964
  915POPC   C1A15303  36.186  21.948   8.614
  915POPC   D2A15304  36.203  22.312   8.336
  915POPC   C3A15305  35.899  22.256   8.023
  915POPC   C4A15306  35.896  21.850   7.812
  915POPC   C1B15307  36.657  22.141   8.663
  915POPC   C2B15308  36.595  21.914   8.265
  915POPC   C3B15309  36.373  22.037   7.906
  915POPC   C4B15310  36.317  22.473   7.833
  916POPC   NC315311  17.505  17.864   9.289
  916POPC   PO415312  17.325  17.195   9.460
  916POPC   GL115313  17.435  17.352   9.096
  916POPC   GL215314  17.774  17.406   9.151
  916POPC   C1A15315  17.505  17.525   8.697
  916POPC   D2A15316  17.533  17.300   8.308
  916POPC   C3A15317  17.547  17.555   7.936
  916POPC   C4A15318  17.428  17.964   7.884
  916POPC   C1B15319  17.961  17.323   8.726
  916POPC   C2B15320  18.065  17.257   8.292
  916POPC   C3B15321  17.811  17.090   7.948
  916POPC   C4B15322  17.511  17.199   7.592
  917POPC   NC315323  13.202  44.212   9.547
  917POPC   PO415324  13.603  44.594   9.562
  917POPC   GL115325  13.524  44.376   9.142
  917POPC   GL215326  13.159  44.346   9.061
  917POPC   C1A15327  13.653  44.265   8.700
  917POPC   D2A15328  13.871  44.526   8.395
  917POPC   C3A15329  13.833  44.435   7.975
  917POPC   C4A15330  14.062  44.601   7.608
  917POPC   C1B15331  13.249  44.573   8.702
  917POPC   C2B15332  13.374  44.473   8.293
  917POPC   C3B15333  13.448  44.720   7.912
  917POPC   C4B15334  13.259  44.576   7.522
  918POPC   NC315335  32.740   1.096   9.613
  918POPC   PO415336  33.343   0.953   9.386
  918POPC   GL115337  33.234   1.128   9.045
  918POPC   GL215338  32.915   1.259   9.134
  918POPC   C1A15339  33.164   1.284   8.671
  918POPC   D2A15340  32.930   1.196   8.331
  918POPC   C3A15341  33.220   1.283   8.056
  918POPC   C4A15342  33.189   1.384   7.675
  918POPC   C1B15343  32.670   1.357   8.761
  918POPC   C2B15344  32.596   1.592   8.351
  918POPC   C3B15345  32.749   1.498   7.953
  918POPC   C4B15346  32.820   1.050   7.783
  919POPC   NC315347   2.123  15.540   9.354
  919POPC   PO415348   1.629  16.053   9.388
  919POPC   GL115349   1.747  16.251   9.040
  919POPC   GL215350   2.111  16.153   9.072
  919POPC   C1A15351   1.838  16.099   8.635
  919POPC   D2A15352   2.132  16.212   8.333
  919POPC   C3A15353   1.907  16.031   8.032
  919POPC   C4A15354   1.837  15.711   7.743
  919POPC   C1B15355   2.289  15.872   8.745
  919POPC   C2B15356   2.309  15.696   8.319
  919POPC   C3B15357   2.329  15.794   7.875
  919POPC   C4B15358   2.414  15.684   7.453
  920POPC   NC315359  36.594  16.060   9.474
  920POPC   PO415360  37.223  15.793   9.448
  920POPC   GL115361  37.012  15.932   9.137
  920POPC   GL215362  36.715  15.702   9.123
  920POPC   C1A15363  37.111  16.173   8.768
  920POPC   D2A15364  37.103  15.993   8.346
  920POPC   C3A15365  37.245  16.179   7.985
  920POPC   C4A15366  37.197  16.009   7.605
  920POPC   C1B15367  36.778  15.787   8.685
  920POPC   C2B15368  36.606  16.050   8.349
  920POPC   C3B15369  36.762  15.998   7.909
  920POPC   C4B15370  36.728  15.883   7.470
  921POPC   NC315371  24.827  17.916   9.932
  921POPC   PO415372  25.192  17.435   9.602
  921POPC   GL115373  25.012  17.510   9.198
  921POPC   GL215374  25.110  17.832   9.119
  921POPC   C1A15375  25.186  17.484   8.747
  921POPC   D2A15376  25.211  17.705   8.349
  921POPC   C3A15377  25.267  17.550   7.935
  921POPC   C4A15378  25.329  17.105   7.780
  921POPC   C1B15379  24.857  17.888   8.744
  921POPC   C2B15380  24.712  17.771   8.382
  921POPC   C3B15381  24.839  17.888   7.974
  921POPC   C4B15382  24.996  17.816   7.569
  922POPC   NC315383  41.969  20.939   9.458
  922POPC   PO415384  42.260  20.281   9.506
  922POPC   GL115385  42.109  20.517   9.094
  922POPC   GL215386  41.819  20.780   9.023
  922POPC   C1A15387  42.305  20.477   8.684
  922POPC   D2A15388  42.441  20.205   8.353
  922POPC   C3A15389  42.660  20.423   8.051
  922POPC   C4A15390  42.489  20.565   7.669
  922POPC   C1B15391  42.083  20.931   8.694
  922POPC   C2B15392  42.379  20.952   8.391
  922POPC   C3B15393  42.232  20.724   8.079
  922POPC   C4B15394  41.993  20.765   7.724
  923POPC   NC315395  37.497  39.534   9.607
  923POPC   PO415396  38.007  39.208   9.592
  923POPC   GL115397  37.715  39.239   9.238
  923POPC   GL215398  37.797  39.525   9.145
  923POPC   C1A15399  37.615  39.025   8.835
  923POPC   D2A15400  37.479  38.755   8.479
  923POPC   C3A15401  37.703  38.902   8.120
  923POPC   C4A15402  37.642  39.146   7.764
  923POPC   C1B15403  37.956  39.438   8.749
  923POPC   C2B15404  37.933  39.641   8.358
  923POPC   C3B15405  37.982  39.526   7.924
  923POPC   C4B15406  37.763  39.572   7.548
  924POPC   NC315407  29.772  34.325   9.374
  924POPC   PO415408  30.131  34.821   9.464
  924POPC   GL115409  30.038  34.650   9.049
  924POPC   GL215410  30.038  34.265   8.949
  924POPC   C1A15411  29.883  34.693   8.625
  924POPC   D2A15412  30.022  34.549   8.257
  924POPC   C3A15413  29.926  34.703   7.850
  924POPC   C4A15414  29.747  34.828   7.459
  924POPC   C1B15415  29.655  34.221   8.684
  924POPC   C2B15416  29.497  34.229   8.279
  924POPC   C3B15417  29.784  34.211   7.959
  924POPC   C4B15418  29.711  34.338   7.587
  925POPC   NC315419  24.207   9.461   9.319
  925POPC   PO415420  23.702   9.708   9.618
  925POPC   GL115421  23.792   9.733   9.153
  925POPC   GL215422  24.119   9.915   9.060
  925POPC   C1A15423  23.682   9.916   8.746
  925POPC   D2A15424  23.478  10.058   8.342
  925POPC   C3A15425  23.491   9.884   7.927
  925POPC   C4A15426  23.714   9.910   7.522
  925POPC   C1B15427  24.114   9.641   8.689
  925POPC   C2B15428  24.306   9.619   8.283
  925POPC   C3B15429  24.123   9.742   7.922
  925POPC   C4B15430  24.075   9.563   7.505
  926POPC   NC315431  36.632   8.091   9.606
  926POPC   PO415432  37.335   8.211   9.501
  926POPC   GL115433  37.043   8.112   9.164
  926POPC   GL215434  36.760   8.324   9.171
  926POPC   C1A15435  36.986   8.165   8.715
  926POPC   D2A15436  37.041   8.237   8.307
  926POPC   C3A15437  36.831   8.014   8.031
  926POPC   C4A15438  36.934   8.041   7.648
  926POPC   C1B15439  36.546   8.425   8.779
  926POPC   C2B15440  36.650   8.675   8.449
  926POPC   C3B15441  36.639   8.478   8.096
  926POPC   C4B15442  36.572   8.413   7.685
  927POPC   NC315443  29.299  13.850   9.509
  927POPC   PO415444  29.253  13.197   9.676
  927POPC   GL115445  29.106  13.405   9.290
  927POPC   GL215446  29.461  13.357   9.195
  927POPC   C1A15447  28.927  13.365   8.837
  927POPC   D2A15448  29.026  13.590   8.447
  927POPC   C3A15449  28.977  13.501   8.000
  927POPC   C4A15450  28.990  13.850   7.707
  927POPC   C1B15451  29.416  13.629   8.848
  927POPC   C2B15452  29.544  13.677   8.420
  927POPC   C3B15453  29.394  13.821   8.043
  927POPC   C4B15454  29.422  13.533   7.732
  928POPC   NC315455  35.336  28.472   9.447
  928POPC   PO415456  35.091  27.840   9.690
  928POPC   GL115457  34.933  28.129   9.222
  928POPC   GL215458  34.998  28.460   9.060
  928POPC   C1A15459  35.058  28.111   8.710
  928POPC   D2A15460  35.458  28.106   8.491
  928POPC   C3A15461  35.512  28.262   8.080
  928POPC   C4A15462  35.374  28.204   7.668
  928POPC   C1B15463  35.368  28.507   8.802
  928POPC   C2B15464  35.380  28.652   8.385
  928POPC   C3B15465  35.287  28.735   7.958
  928POPC   C4B15466  35.593  28.747   7.650
  929POPC   NC315467   9.165  41.400   9.574
  929POPC   PO415468   8.773  41.986   9.542
  929POPC   GL115469   9.001  41.747   9.217
  929POPC   GL215470   8.877  41.392   9.171
  929POPC   C1A15471   8.910  41.700   8.775
  929POPC   D2A15472   8.888  41.912   8.381
  929POPC   C3A15473   8.938  41.667   8.016
  929POPC   C4A15474   8.891  41.790   7.584
  929POPC   C1B15475   9.029  41.183   8.818
  929POPC   C2B15476   8.865  41.020   8.444
  929POPC   C3B15477   9.047  41.146   8.064
  929POPC   C4B15478   8.863  41.295   7.679
  930POPC   NC315479  31.089  12.239   9.573
  930POPC   PO415480  30.460  12.094   9.553
  930POPC   GL115481  30.735  12.142   9.193
  930POPC   GL215482  30.816  11.867   9.008
  930POPC   C1A15483  30.543  12.214   8.779
  930POPC   D2A15484  30.414  12.109   8.361
  930POPC   C3A15485  30.696  12.177   8.045
  930POPC   C4A15486  30.663  12.225   7.628
  930POPC   C1B15487  30.838  11.847   8.565
  930POPC   C2B15488  30.669  11.687   8.211
  930POPC   C3B15489  30.688  11.716   7.795
  930POPC   C4B15490  31.094  11.949   7.761
  931POPC   NC315491  22.705  30.468   9.441
  931POPC   PO415492  22.135  30.003   9.536
  931POPC   GL115493  22.061  29.926   9.111
  931POPC   GL215494  21.855  29.627   9.076
  931POPC   C1A15495  22.114  30.145   8.691
  931POPC   D2A15496  21.950  30.070   8.270
  931POPC   C3A15497  22.182  29.980   7.887
  931POPC   C4A15498  22.158  30.140   7.457
  931POPC   C1B15499  22.081  29.636   8.676
  931POPC   C2B15500  22.095  29.548   8.221
  931POPC   C3B15501  22.322  29.467   7.832
  931POPC   C4B15502  22.313  29.297   7.405
  932POPC   NC315503  44.060  16.452   9.758
  932POPC   PO415504  44.518  16.949   9.568
  932POPC   GL115505  44.610  16.677   9.195
  932POPC   GL215506  44.908  16.509   9.118
  932POPC   C1A15507  44.550  16.544   8.749
  932POPC   D2A15508  44.570  16.833   8.390
  932POPC   C3A15509  44.522  16.697   7.956
  932POPC   C4A15510  44.866  16.520   7.780
  932POPC   C1B15511   0.019  16.749   8.773
  932POPC   C2B15512   0.071  16.663   8.341
  932POPC   C3B15513  44.954  16.944   8.032
  932POPC   C4B15514   0.107  16.984   7.637
  933POPC   NC315515  41.913   6.305   9.542
  933POPC   PO415516  42.236   6.940   9.394
  933POPC   GL115517  42.254   6.537   9.209
  933POPC   GL215518  42.578   6.341   9.301
  933POPC   C1A15519  42.205   6.591   8.774
  933POPC   D2A15520  42.454   6.748   8.451
  933POPC   C3A15521  42.288   6.717   8.046
  933POPC   C4A15522  42.156   6.509   7.670
  933POPC   C1B15523  42.687   6.544   8.907
  933POPC   C2B15524  42.859   6.388   8.515
  933POPC   C3B15525  42.704   6.397   8.104
  933POPC   C4B15526  42.691   6.247   7.703
  934POPC   NC315527  34.699  36.659   9.806
  934POPC   PO415528  34.481  37.177   9.457
  934POPC   GL115529  34.441  36.959   9.077
  934POPC   GL215530  34.175  36.703   9.142
  934POPC   C1A15531  34.401  37.037   8.624
  934POPC   D2A15532  34.308  37.109   8.178
  934POPC   C3A15533  34.653  37.005   7.907
  934POPC   C4A15534  35.005  36.808   7.694
  934POPC   C1B15535  34.411  36.520   8.766
  934POPC   C2B15536  34.497  36.553   8.311
  934POPC   C3B15537  34.264  36.642   7.930
  934POPC   C4B15538  34.108  36.854   7.574
  935POPC   NC315539   1.618  13.147   9.423
  935POPC   PO415540   1.255  12.682   9.635
  935POPC   GL115541   1.052  12.904   9.299
  935POPC   GL215542   1.325  12.908   9.093
  935POPC   C1A15543   0.877  12.989   8.873
  935POPC   D2A15544   0.998  12.834   8.501
  935POPC   C3A15545   0.928  12.955   8.075
  935POPC   C4A15546   0.988  12.795   7.627
  935POPC   C1B15547   1.489  12.956   8.683
  935POPC   C2B15548   1.426  12.903   8.240
  935POPC   C3B15549   1.464  12.896   7.808
  935POPC   C4B15550   1.778  12.939   7.497
  936POPC   NC315551   4.180  41.551   9.709
  936POPC   PO415552   4.614  41.474   9.197
  936POPC   GL115553   4.276  41.462   8.984
  936POPC   GL215554   4.207  41.796   9.005
  936POPC   C1A15555   4.204  41.401   8.552
  936POPC   D2A15556   4.427  41.398   8.171
  936POPC   C3A15557   4.249  41.221   7.794
  936POPC   C4A15558   4.150  41.118   7.339
  936POPC   C1B15559   4.418  41.876   8.621
  936POPC   C2B15560   4.178  41.839   8.255
  936POPC   C3B15561   4.243  41.810   7.840
  936POPC   C4B15562   4.253  41.618   7.447
  937POPC   NC315563  21.973   4.908   9.501
  937POPC   PO415564  22.548   5.210   9.505
  937POPC   GL115565  22.263   5.196   9.159
  937POPC   GL215566  22.246   4.874   9.078
  937POPC   C1A15567  22.371   5.226   8.738
  937POPC   D2A15568  22.181   5.115   8.386
  937POPC   C3A15569  22.432   5.170   8.051
  937POPC   C4A15570  22.298   4.980   7.710
  937POPC   C1B15571  22.023   4.706   8.742
  937POPC   C2B15572  21.769   4.826   8.428
  937POPC   C3B15573  21.966   4.675   8.068
  937POPC   C4B15574  21.824   4.762   7.684
  938POPC   NC315575  19.435  38.760   9.421
  938POPC   PO415576  20.073  38.558   9.464
  938POPC   GL115577  19.933  38.469   9.080
  938POPC   GL215578  19.625  38.402   9.139
  938POPC   C1A15579  19.888  38.475   8.669
  938POPC   D2A15580  20.120  38.648   8.357
  938POPC   C3A15581  19.914  38.432   8.063
  938POPC   C4A15582  20.028  38.444   7.655
  938POPC   C1B15583  19.424  38.293   8.804
  938POPC   C2B15584  19.541  38.196   8.416
  938POPC   C3B15585  19.385  38.314   8.059
  938POPC   C4B15586  19.524  38.486   7.706
  939POPC   NC315587  13.492  11.655   9.592
  939POPC   PO415588  13.770  11.043   9.465
  939POPC   GL115589  13.554  11.265   9.185
  939POPC   GL215590  13.782  11.503   9.144
  939POPC   C1A15591  13.452  11.298   8.752
  939POPC   D2A15592  13.583  11.068   8.395
  939POPC   C3A15593  13.556  11.241   8.017
  939POPC   C4A15594  13.860  11.169   7.744
  939POPC   C1B15595  13.753  11.732   8.773
  939POPC   C2B15596  13.680  11.621   8.350
  939POPC   C3B15597  13.889  11.640   7.934
  939POPC   C4B15598  13.738  11.614   7.515
  940POPC   NC315599  12.568  22.564   9.646
  940POPC   PO415600  12.955  23.242   9.512
  940POPC   GL115601  13.024  23.066   9.043
  940POPC   GL215602  13.251  22.792   8.978
  940POPC   C1A15603  12.807  22.777   8.706
  940POPC   D2A15604  12.605  22.923   8.368
  940POPC   C3A15605  12.686  22.754   8.009
  940POPC   C4A15606  12.497  22.903   7.664
  940POPC   C1B15607  13.333  22.558   8.648
  940POPC   C2B15608  13.122  22.596   8.302
  940POPC   C3B15609  13.178  22.608   7.900
  940POPC   C4B15610  13.040  22.829   7.600
  941POPC   NC315611  35.921  26.064   9.495
  941POPC   PO415612  36.572  25.715   9.407
  941POPC   GL115613  36.421  25.866   8.982
  941POPC   GL215614  36.161  26.125   9.062
  941POPC   C1A15615  36.091  25.801   8.668
  941POPC   D2A15616  35.829  25.698   8.343
  941POPC   C3A15617  36.005  25.876   7.988
  941POPC   C4A15618  36.424  25.908   7.860
  941POPC   C1B15619  36.202  26.304   8.689
  941POPC   C2B15620  36.353  26.152   8.338
  941POPC   C3B15621  36.430  26.395   8.021
  941POPC   C4B15622  36.140  26.489   7.727
  942POPC   NC315623   1.998  31.874   9.590
  942POPC   PO415624   1.817  31.235   9.574
  942POPC   GL115625   1.908  31.532   9.173
  942POPC   GL215626   2.110  31.335   8.950
  942POPC   C1A15627   1.930  31.670   8.652
  942POPC   D2A15628   2.135  31.548   8.227
  942POPC   C3A15629   1.951  31.696   7.822
  942POPC   C4A15630   1.733  31.747   7.421
  942POPC   C1B15631   1.612  31.320   8.832
  942POPC   C2B15632   1.429  31.328   8.442
  942POPC   C3B15633   1.646  31.347   8.081
  942POPC   C4B15634   1.537  31.350   7.674
  943POPC   NC315635  27.167   7.690   9.727
  943POPC   PO415636  26.816   7.167   9.440
  943POPC   GL115637  27.008   7.288   9.069
  943POPC   GL215638  27.320   7.095   9.090
  943POPC   C1A15639  26.777   7.371   8.679
  943POPC   D2A15640  26.428   7.159   8.459
  943POPC   C3A15641  26.565   7.213   8.054
  943POPC   C4A15642  26.711   7.106   7.660
  943POPC   C1B15643  27.293   7.217   8.632
  943POPC   C2B15644  27.181   7.582   8.392
  943POPC   C3B15645  26.997   7.541   8.000
  943POPC   C4B15646  27.201   7.334   7.658
  944POPC   NC315647  43.737  26.821   9.544
  944POPC   PO415648  44.305  26.544   9.420
  944POPC   GL115649  44.032  26.726   9.095
  944POPC   GL215650  43.941  27.059   9.151
  944POPC   C1A15651  44.043  26.927   8.683
  944POPC   D2A15652  44.186  27.038   8.308
  944POPC   C3A15653  43.935  26.812   8.038
  944POPC   C4A15654  43.984  26.655   7.655
  944POPC   C1B15655  43.647  27.246   8.821
  944POPC   C2B15656  43.640  27.059   8.383
  944POPC   C3B15657  43.659  27.232   7.976
  944POPC   C4B15658  43.779  27.146   7.517
  945POPC   NC315659   2.165  24.002   9.543
  945POPC   PO415660   1.708  23.506   9.458
  945POPC   GL115661   1.927  23.783   9.145
  945POPC   GL215662   2.311  23.866   9.087
  945POPC   C1A15663   1.951  23.789   8.705
  945POPC   D2A15664   1.864  23.503   8.364
  945POPC   C3A15665   1.946  23.741   7.987
  945POPC   C4A15666   1.745  23.694   7.612
  945POPC   C1B15667   2.507  23.989   8.713
  945POPC   C2B15668   2.270  24.080   8.380
  945POPC   C3B15669   2.315  24.101   7.953
  945POPC   C4B15670   2.205  23.922   7.548
  946POPC   NC315671  44.823  10.229   9.663
  946POPC   PO415672  44.994  10.897   9.644
  946POPC   GL115673  44.727  10.830   9.234
  946POPC   GL215674  44.368  10.762   9.294
  946POPC   C1A15675  44.597  10.506   8.904
  946POPC   D2A15676  44.784  10.332   8.488
  946POPC   C3A15677  44.566  10.366   8.090
  946POPC   C4A15678  44.434  10.193   7.689
  946POPC   C1B15679  44.285  10.901   8.855
  946POPC   C2B15680  44.553  10.840   8.489
  946POPC   C3B15681  44.421  10.885   8.070
  946POPC   C4B15682  44.583  10.700   7.714
  947POPC   NC315683  15.201  18.763   9.441
  947POPC   PO415684  14.957  19.411   9.611
  947POPC   GL115685  15.074  19.255   9.209
  947POPC   GL215686  14.793  19.107   9.044
  947POPC   C1A15687  15.326  19.121   8.842
  947POPC   D2A15688  15.376  19.303   8.436
  947POPC   C3A15689  15.359  19.035   8.090
  947POPC   C4A15690  15.060  19.130   7.792
  947POPC   C1B15691  14.900  19.383   8.707
  947POPC   C2B15692  14.856  19.329   8.256
  947POPC   C3B15693  14.784  18.894   8.127
  947POPC   C4B15694  14.677  18.825   7.698
  948POPC   NC315695  42.716   4.277   9.576
  948POPC   PO415696  43.287   4.634   9.439
  948POPC   GL115697  43.015   4.534   9.117
  948POPC   GL215698  42.904   4.190   9.082
  948POPC   C1A15699  43.061   4.555   8.680
  948POPC   D2A15700  42.923   4.543   8.254
  948POPC   C3A15701  43.184   4.464   7.921
  948POPC   C4A15702  43.356   4.100   7.697
  948POPC   C1B15703  42.976   4.061   8.652
  948POPC   C2B15704  43.070   4.033   8.211
  948POPC   C3B15705  42.836   4.100   7.837
  948POPC   C4B15706  42.861   3.889   7.448
  949POPC   NC315707  26.513  35.416   9.634
  949POPC   PO415708  26.954  35.035   9.306
  949POPC   GL115709  26.730  35.368   9.127
  949POPC   GL215710  27.042  35.435   8.911
  949POPC   C1A15711  26.601  35.653   8.783
  949POPC   D2A15712  26.793  35.751   8.379
  949POPC   C3A15713  26.561  35.716   7.979
  949POPC   C4A15714  26.735  35.509   7.612
  949POPC   C1B15715  27.128  35.052   8.661
  949POPC   C2B15716  27.025  35.007   8.241
  949POPC   C3B15717  27.058  35.363   7.997
  949POPC   C4B15718  27.173  35.223   7.619
  950POPC   NC315719  41.063  22.984   9.364
  950POPC   PO415720  40.595  22.578   9.616
  950POPC   GL115721  40.591  22.802   9.174
  950POPC   GL215722  40.868  22.811   8.914
  950POPC   C1A15723  40.555  23.191   8.882
  950POPC   D2A15724  40.802  23.091   8.486
  950POPC   C3A15725  40.642  23.134   8.075
  950POPC   C4A15726  40.607  23.354   7.714
  950POPC   C1B15727  40.481  22.727   8.683
  950POPC   C2B15728  40.392  22.552   8.292
  950POPC   C3B15729  40.589  22.654   7.897
  950POPC   C4B15730  40.629  22.866   7.487
  951POPC   NC315731  36.818  17.038   9.264
  951POPC   PO415732  36.794  16.454   9.600
  951POPC   GL115733  36.856  16.444   9.160
  951POPC   GL215734  36.633  16.227   8.993
  951POPC   C1A15735  36.875  16.623   8.746
  951POPC   D2A15736  37.127  16.510   8.380
  951POPC   C3A15737  37.060  16.672   7.981
  951POPC   C4A15738  37.219  17.003   7.722
  951POPC   C1B15739  36.382  16.379   8.678
  951POPC   C2B15740  36.601  16.576   8.319
  951POPC   C3B15741  36.585  16.488   7.910
  951POPC   C4B15742  36.477  16.661   7.494
  952POPC   NC315743  11.285  42.663   9.647
  952POPC   PO415744  11.161  43.341   9.746
  952POPC   GL115745  11.330  43.096   9.352
  952POPC   GL215746  11.114  42.811   9.203
  952POPC   C1A15747  11.499  42.974   8.908
  952POPC   D2A15748  11.286  42.967   8.514
  952POPC   C3A15749  11.498  43.012   8.136
  952POPC   C4A15750  11.385  43.094   7.753
  952POPC   C1B15751  10.996  43.166   8.928
  952POPC   C2B15752  10.826  43.216   8.486
  952POPC   C3B15753  10.930  43.168   8.033
  952POPC   C4B15754  11.093  43.518   7.759
  953POPC   NC315755   0.134  19.952   9.337
  953POPC   PO415756   0.805  19.800   9.349
  953POPC   GL115757   0.505  19.808   9.057
  953POPC   GL215758   0.466  19.488   9.029
  953POPC   C1A15759   0.320  19.846   8.642
  953POPC   D2A15760   0.505  19.821   8.230
  953POPC   C3A15761   0.260  20.056   7.976
  953POPC   C4A15762   0.158  20.066   7.552
  953POPC   C1B15763   0.785  19.644   8.690
  953POPC   C2B15764   0.938  19.506   8.323
  953POPC   C3B15765   0.714  19.418   7.985
  953POPC   C4B15766   0.575  19.763   7.693
  954POPC   NC315767  34.031  27.264   9.428
  954POPC   PO415768  33.400  27.597   9.436
  954POPC   GL115769  33.700  27.725   9.131
  954POPC   GL215770  34.032  27.596   9.043
  954POPC   C1A15771  33.780  27.897   8.729
  954POPC   D2A15772  33.946  27.598   8.489
  954POPC   C3A15773  33.924  27.708   8.095
  954POPC   C4A15774  33.869  27.633   7.684
  954POPC   C1B15775  34.209  27.267   8.770
  954POPC   C2B15776  34.119  27.114   8.363
  954POPC   C3B15777  34.054  27.201   7.932
  954POPC   C4B15778  34.168  27.263   7.470
  955POPC   NC315779  15.507  28.361   9.485
  955POPC   PO415780  14.954  28.165   9.222
  955POPC   GL115781  15.298  28.230   9.045
  955POPC   GL215782  15.168  28.595   8.994
  955POPC   C1A15783  15.432  28.265   8.672
  955POPC   D2A15784  15.273  28.575   8.421
  955POPC   C3A15785  15.270  28.487   7.994
  955POPC   C4A15786  15.389  28.149   7.744
  955POPC   C1B15787  14.882  28.844   8.675
  955POPC   C2B15788  14.890  28.803   8.190
  955POPC   C3B15789  14.802  28.561   7.786
  955POPC   C4B15790  14.827  28.755   7.352
  956POPC   NC315791  44.004  21.750   9.949
  956POPC   PO415792  43.679  22.196   9.572
  956POPC   GL115793  43.874  22.239   9.206
  956POPC   GL215794  44.167  22.422   9.263
  956POPC   C1A15795  43.880  22.219   8.777
  956POPC   D2A15796  43.657  22.285   8.411
  956POPC   C3A15797  43.752  22.035   8.078
  956POPC   C4A15798  43.770  22.225   7.700
  956POPC   C1B15799  44.268  22.557   8.851
  956POPC   C2B15800  44.122  22.575   8.434
  956POPC   C3B15801  44.141  22.391   8.047
  956POPC   C4B15802  44.342  22.356   7.658
  957POPC   NC315803   0.808  12.621   9.681
  957POPC   PO415804   0.358  13.093   9.562
  957POPC   GL115805   0.508  12.948   9.206
  957POPC   GL215806   0.645  12.620   9.158
  957POPC   C1A15807   0.373  12.891   8.799
  957POPC   D2A15808   0.364  13.191   8.504
  957POPC   C3A15809   0.432  13.054   8.132
  957POPC   C4A15810   0.543  13.057   7.732
  957POPC   C1B15811   0.654  12.462   8.724
  957POPC   C2B15812   0.590  12.592   8.288
  957POPC   C3B15813   0.607  12.544   7.836
  957POPC   C4B15814   0.713  12.405   7.402
  958POPC   NC315815  13.040   5.994   9.463
  958POPC   PO415816  12.604   5.631   9.538
  958POPC   GL115817  12.725   5.795   9.098
  958POPC   GL215818  12.871   6.139   9.007
  958POPC   C1A15819  12.834   5.791   8.635
  958POPC   D2A15820  13.057   5.880   8.248
  958POPC   C3A15821  12.854   5.786   7.867
  958POPC   C4A15822  13.030   5.777   7.432
  958POPC   C1B15823  12.559   6.245   8.700
  958POPC   C2B15824  12.614   6.132   8.274
  958POPC   C3B15825  12.887   6.278   7.965
  958POPC   C4B15826  12.813   6.584   7.690
  959POPC   NC315827  10.819   7.657   9.839
  959POPC   PO415828  10.494   8.038   9.384
  959POPC   GL115829  10.446   8.301   9.057
  959POPC   GL215830  10.824   8.315   9.032
  959POPC   C1A15831  10.493   8.361   8.630
  959POPC   D2A15832  10.543   8.474   8.243
  959POPC   C3A15833  10.406   8.215   7.941
  959POPC   C4A15834  10.769   8.165   7.761
  959POPC   C1B15835  10.735   7.944   8.745
  959POPC   C2B15836  10.835   7.890   8.334
  959POPC   C3B15837  10.761   7.694   7.963
  959POPC   C4B15838  10.507   7.719   7.594
  960POPC   NC315839  19.797  17.888   9.328
  960POPC   PO415840  19.826  17.221   9.519
  960POPC   GL115841  19.801  17.362   9.083
  960POPC   GL215842  20.068  17.607   8.993
  960POPC   C1A15843  19.736  17.452   8.644
  960POPC   D2A15844  19.920  17.436   8.248
  960POPC   C3A15845  19.661  17.645   7.948
  960POPC   C4A15846  19.659  17.812   7.506
  960POPC   C1B15847  20.306  17.375   8.683
  960POPC   C2B15848  20.348  17.118   8.320
  960POPC   C3B15849  20.159  17.140   7.907
  960POPC   C4B15850  19.991  17.385   7.559
  961POPC   NC315851   5.765  12.577   9.451
  961POPC   PO415852   6.220  13.035   9.546
  961POPC   GL115853   5.899  13.035   9.191
  961POPC   GL215854   5.534  12.977   9.220
  961POPC   C1A15855   5.883  12.779   8.809
  961POPC   D2A15856   5.905  12.866   8.355
  961POPC   C3A15857   5.738  12.579   8.045
  961POPC   C4A15858   5.909  12.788   7.692
  961POPC   C1B15859   5.382  12.902   8.816
  961POPC   C2B15860   5.411  12.839   8.391
  961POPC   C3B15861   5.428  12.961   7.970
  961POPC   C4B15862   5.432  12.916   7.528
  962POPC   NC315863  44.317   0.707   9.659
  962POPC   PO415864  44.822   0.303   9.576
  962POPC   GL115865  44.645   0.364   9.197
  962POPC   GL215866  44.595   0.709   9.222
  962POPC   C1A15867  44.793   0.349   8.780
  962POPC   D2A15868  44.605   0.467   8.385
  962POPC   C3A15869  44.838   0.371   8.013
  962POPC   C4A15870  44.849   0.522   7.597
  962POPC   C1B15871  44.531   0.814   8.805
  962POPC   C2B15872  44.427   0.946   8.417
  962POPC   C3B15873  44.449   0.801   8.013
  962POPC   C4B15874  44.340   0.529   7.737
  963POPC   NC315875   1.511  10.125   9.530
  963POPC   PO415876   0.963  10.541   9.515
  963POPC   GL115877   1.200  10.461   9.145
  963POPC   GL215878   0.936  10.245   9.063
  963POPC   C1A15879   1.490  10.461   8.756
  963POPC   D2A15880   1.355  10.498   8.313
  963POPC   C3A15881   1.588  10.431   7.931
  963POPC   C4A15882   1.349  10.540   7.571
  963POPC   C1B15883   1.042  10.228   8.640
  963POPC   C2B15884   0.850  10.409   8.289
  963POPC   C3B15885   0.934  10.440   7.864
  963POPC   C4B15886   0.909  10.287   7.451
  964POPC   NC315887   5.702  43.481   9.540
  964POPC   PO415888   5.714  42.772   9.478
  964POPC   GL115889   5.765  43.124   9.158
  964POPC   GL215890   6.053  43.371   9.166
  964POPC   C1A15891   5.718  43.212   8.699
  964POPC   D2A15892   5.756  43.380   8.254
  964POPC   C3A15893   5.732  43.088   7.877
  964POPC   C4A15894   5.704  43.031   7.419
  964POPC   C1B15895   6.227  43.231   8.788
  964POPC   C2B15896   6.155  43.095   8.384
  964POPC   C3B15897   6.204  43.248   7.959
  964POPC   C4B15898   6.037  43.430   7.564
  965POPC   NC315899   6.947  42.940   9.881
  965POPC   PO415900   7.389  43.071   9.276
  965POPC   GL115901   7.436  43.274   8.926
  965POPC   GL215902   7.077  43.282   8.934
  965POPC   C1A15903   7.630  43.036   8.589
  965POPC   D2A15904   7.633  42.656   8.328
  965POPC   C3A15905   7.788  42.792   7.926
  965POPC   C4A15906   7.499  43.101   7.854
  965POPC   C1B15907   7.121  42.889   8.697
  965POPC   C2B15908   7.098  42.700   8.292
  965POPC   C3B15909   7.016  42.915   7.901
  965POPC   C4B15910   7.145  43.034   7.493
  966POPC   NC315911   0.124   9.727   9.435
  966POPC   PO415912   0.746   9.629   9.574
  966POPC   GL115913   0.570   9.587   9.181
  966POPC   GL215914   0.536   9.917   9.126
  966POPC   C1A15915   0.410   9.611   8.722
  966POPC   D2A15916   0.117   9.870   8.426
  966POPC   C3A15917   0.228   9.874   7.973
  966POPC   C4A15918   0.329   9.918   7.549
  966POPC   C1B15919   0.567  10.087   8.725
  966POPC   C2B15920   0.612   9.975   8.289
  966POPC   C3B15921   0.747   9.950   7.853
  966POPC   C4B15922   0.841   9.537   7.689
  967POPC   NC315923  41.877  25.421   9.472
  967POPC   PO415924  41.444  24.872   9.464
  967POPC   GL115925  41.561  25.173   9.146
  967POPC   GL215926  41.240  25.350   9.072
  967POPC   C1A15927  41.714  25.104   8.725
  967POPC   D2A15928  41.550  24.915   8.333
  967POPC   C3A15929  41.714  25.078   7.950
  967POPC   C4A15930  41.450  25.255   7.690
  967POPC   C1B15931  41.505  25.586   8.795
  967POPC   C2B15932  41.770  25.721   8.473
  967POPC   C3B15933  41.666  25.742   8.029
  967POPC   C4B15934  41.890  25.527   7.724
  968POPC   NC315935  43.606  17.800   9.374
  968POPC   PO415936  44.019  17.260   9.477
  968POPC   GL115937  43.920  17.422   9.121
  968POPC   GL215938  44.181  17.663   9.188
  968POPC   C1A15939  44.077  17.327   8.704
  968POPC   D2A15940  44.135  17.573   8.345
  968POPC   C3A15941  43.923  17.426   7.978
  968POPC   C4A15942  44.027  17.135   7.665
  968POPC   C1B15943  43.970  17.822   8.813
  968POPC   C2B15944  43.777  17.970   8.460
  968POPC   C3B15945  43.951  17.954   8.058
  968POPC   C4B15946  43.706  17.846   7.738
  969POPC   NC315947  38.147  24.019   9.470
  969POPC   PO415948  38.735  23.751   9.626
  969POPC   GL115949  38.591  23.788   9.180
  969POPC   GL215950  38.245  23.793   9.039
  969POPC   C1A15951  38.619  23.815   8.709
  969POPC   D2A15952  38.824  23.944   8.331
  969POPC   C3A15953  38.618  23.755   7.974
  969POPC   C4A15954  38.534  23.817   7.528
  969POPC   C1B15955  38.084  23.486   8.752
  969POPC   C2B15956  38.234  23.439   8.364
  969POPC   C3B15957  38.146  23.570   7.977
  969POPC   C4B15958  38.061  23.637   7.555
  970POPC   NC315959  42.595  37.547   9.494
  970POPC   PO415960  41.894  37.526   9.416
  970POPC   GL115961  42.171  37.691   9.122
  970POPC   GL215962  42.371  37.399   9.072
  970POPC   C1A15963  42.105  37.906   8.732
  970POPC   D2A15964  42.067  38.096   8.290
  970POPC   C3A15965  42.109  37.801   7.952
  970POPC   C4A15966  42.345  37.793   7.578
  970POPC   C1B15967  42.552  37.646   8.768
  970POPC   C2B15968  42.411  37.705   8.352
  970POPC   C3B15969  42.579  37.561   7.959
  970POPC   C4B15970  42.746  37.474   7.541
  971POPC   NC315971  40.248  31.695   9.387
  971POPC   PO415972  40.030  31.075   9.379
  971POPC   GL115973  40.134  31.339   9.034
  971POPC   GL215974  39.887  31.617   9.055
  971POPC   C1A15975  40.194  31.542   8.634
  971POPC   D2A15976  40.231  31.352   8.240
  971POPC   C3A15977  40.358  31.592   7.860
  971POPC   C4A15978  40.337  31.391   7.426
  971POPC   C1B15979  39.705  31.411   8.719
  971POPC   C2B15980  39.694  31.625   8.345
  971POPC   C3B15981  39.767  31.461   7.990
  971POPC   C4B15982  39.919  31.588   7.626
  972POPC   NC315983  13.171  14.340   9.541
  972POPC   PO415984  12.514  14.373   9.574
  972POPC   GL115985  12.799  14.444   9.200
  972POPC   GL215986  13.135  14.648   9.132
  972POPC   C1A15987  12.674  14.453   8.773
  972POPC   D2A15988  12.831  14.675   8.408
  972POPC   C3A15989  12.707  14.480   8.036
  972POPC   C4A15990  12.901  14.534   7.652
  972POPC   C1B15991  13.156  14.318   8.817
  972POPC   C2B15992  12.961  14.191   8.399
  972POPC   C3B15993  13.060  14.147   7.973
  972POPC   C4B15994  13.148  14.103   7.555
  973POPC   NC315995  21.424   1.677   9.476
  973POPC   PO415996  21.146   2.282   9.724
  973POPC   GL115997  21.271   2.141   9.264
  973POPC   GL215998  21.138   1.824   9.084
  973POPC   C1A15999  21.382   2.178   8.814
  973POPC   D2A16000  21.255   2.278   8.397
  973POPC   C3A16001  21.418   2.045   8.054
  973POPC   C4A16002  21.621   2.220   7.694
  973POPC   C1B16003  21.357   1.663   8.693
  973POPC   C2B16004  21.310   1.411   8.292
  973POPC   C3B16005  21.203   1.566   7.871
  973POPC   C4B16006  21.583   1.720   7.662
  974POPC   NC316007  17.786  35.452   9.478
  974POPC   PO416008  18.183  35.117   9.740
  974POPC   GL116009  18.345  35.368   9.391
  974POPC   GL216010  18.413  35.071   9.196
  974POPC   C1A16011  18.342  35.545   8.944
  974POPC   D2A16012  18.441  35.525   8.472
  974POPC   C3A16013  18.188  35.700   8.116
  974POPC   C4A16014  18.237  35.619   7.675
  974POPC   C1B16015  18.598  35.110   8.771
  974POPC   C2B16016  18.771  35.118   8.325
  974POPC   C3B16017  18.703  35.016   7.856
  974POPC   C4B16018  18.457  35.060   7.463
  975POPC   NC316019  22.956  43.296   9.897
  975POPC   PO416020  22.682  43.088   9.338
  975POPC   GL116021  23.048  43.112   9.105
  975POPC   GL216022  23.213  43.448   9.124
  975POPC   C1A16023  23.016  43.158   8.668
  975POPC   D2A16024  23.181  43.363   8.320
  975POPC   C3A16025  23.264  43.062   8.017
  975POPC   C4A16026  22.904  42.818   7.893
  975POPC   C1B16027  22.913  43.628   8.802
  975POPC   C2B16028  22.816  43.729   8.409
  975POPC   C3B16029  22.808  43.587   8.025
  975POPC   C4B16030  22.965  43.334   7.702
  976POPC   NC316031  30.445  25.894   9.403
  976POPC   PO416032  31.000  26.259   9.543
  976POPC   GL116033  30.786  26.207   9.168
  976POPC   GL216034  30.827  25.842   9.077
  976POPC   C1A16035  30.943  26.242   8.768
  976POPC   D2A16036  30.955  25.955   8.433
  976POPC   C3A16037  31.013  26.167   8.035
  976POPC   C4A16038  30.743  26.182   7.674
  976POPC   C1B16039  30.497  25.942   8.750
  976POPC   C2B16040  30.233  26.020   8.375
  976POPC   C3B16041  30.281  26.207   7.929
  976POPC   C4B16042  30.296  26.164   7.413
  977POPC   NC316043   0.071  27.393   9.614
  977POPC   PO416044   0.564  27.792   9.467
  977POPC   GL116045   0.661  27.611   9.087
  977POPC   GL216046   0.324  27.545   9.077
  977POPC   C1A16047   0.651  27.622   8.646
  977POPC   D2A16048   0.665  27.850   8.269
  977POPC   C3A16049   0.482  27.614   7.934
  977POPC   C4A16050   0.590  27.174   7.859
  977POPC   C1B16051   0.131  27.674   8.699
  977POPC   C2B16052   0.162  27.810   8.316
  977POPC   C3B16053  44.966  27.590   8.025
  977POPC   C4B16054   0.021  27.415   7.652
  978POPC   NC316055  16.398   5.496   9.520
  978POPC   PO416056  15.813   5.524   9.510
  978POPC   GL116057  15.803   5.686   9.106
  978POPC   GL216058  16.150   5.577   9.064
  978POPC   C1A16059  15.840   5.553   8.663
  978POPC   D2A16060  15.950   5.814   8.310
  978POPC   C3A16061  15.864   5.685   7.864
  978POPC   C4A16062  16.041   5.702   7.416
  978POPC   C1B16063  16.143   5.956   8.796
  978POPC   C2B16064  16.241   6.224   8.429
  978POPC   C3B16065  16.117   6.160   7.970
  978POPC   C4B16066  16.272   6.144   7.533
  979POPC   NC316067   3.967  14.673   9.455
  979POPC   PO416068   4.555  14.318   9.564
  979POPC   GL116069   4.337  14.226   9.187
  979POPC   GL216070   4.360  14.579   9.129
  979POPC   C1A16071   4.234  14.170   8.734
  979POPC   D2A16072   4.013  14.320   8.363
  979POPC   C3A16073   4.271  14.279   8.010
  979POPC   C4A16074   4.297  14.412   7.573
  979POPC   C1B16075   4.669  14.426   8.827
  979POPC   C2B16076   4.641  14.280   8.385
  979POPC   C3B16077   4.695  14.518   7.987
  979POPC   C4B16078   4.795  14.476   7.554
  980POPC   NC316079  32.535  37.683   9.381
  980POPC   PO416080  31.990  37.412   9.759
  980POPC   GL116081  32.056  37.491   9.316
  980POPC   GL216082  32.044  37.845   9.208
  980POPC   C1A16083  32.144  37.331   8.900
  980POPC   D2A16084  32.006  37.326   8.493
  980POPC   C3A16085  32.244  37.387   8.135
  980POPC   C4A16086  32.445  37.358   7.750
  980POPC   C1B16087  32.114  37.842   8.754
  980POPC   C2B16088  32.216  37.863   8.316
  980POPC   C3B16089  32.333  37.848   7.873
  980POPC   C4B16090  32.518  37.997   7.466
  981POPC   NC316091  22.681  39.591   9.309
  981POPC   PO416092  23.166  39.163   9.543
  981POPC   GL116093  22.983  39.217   9.111
  981POPC   GL216094  22.622  39.081   9.078
  981POPC   C1A16095  23.141  39.431   8.711
  981POPC   D2A16096  23.361  39.321   8.314
  981POPC   C3A16097  23.232  39.530   7.903
  981POPC   C4A16098  22.927  39.443   7.538
  981POPC   C1B16099  22.655  39.289   8.713
  981POPC   C2B16100  22.640  39.461   8.357
  981POPC   C3B16101  22.817  39.260   8.027
  981POPC   C4B16102  22.781  38.981   7.681
  982POPC   NC316103  20.159  39.433   9.427
  982POPC   PO416104  19.426  39.267   9.387
  982POPC   GL116105  19.799  39.288   9.101
  982POPC   GL216106  20.060  38.992   9.151
  982POPC   C1A16107  19.941  39.471   8.685
  982POPC   D2A16108  19.651  39.573   8.319
  982POPC   C3A16109  19.756  39.429   7.893
  982POPC   C4A16110  19.693  39.229   7.473
  982POPC   C1B16111  19.891  38.968   8.718
  982POPC   C2B16112  19.909  39.117   8.285
  982POPC   C3B16113  20.015  38.912   7.904
  982POPC   C4B16114  20.150  39.033   7.511
  983POPC   NC316115   6.255   3.580   9.518
  983POPC   PO416116   5.656   3.713   9.392
  983POPC   GL116117   5.920   3.528   9.072
  983POPC   GL216118   6.293   3.418   9.043
  983POPC   C1A16119   5.965   3.751   8.700
  983POPC   D2A16120   5.969   4.014   8.336
  983POPC   C3A16121   5.643   3.844   8.080
  983POPC   C4A16122   5.631   3.682   7.668
  983POPC   C1B16123   6.249   3.157   8.662
  983POPC   C2B16124   6.528   3.081   8.285
  983POPC   C3B16125   6.424   3.246   7.862
  983POPC   C4B16126   6.063   3.521   7.889
  984POPC   NC316127  22.685  15.481   9.599
  984POPC   PO416128  23.256  15.215   9.596
  984POPC   GL116129  23.086  15.036   9.217
  984POPC   GL216130  22.807  15.283   9.141
  984POPC   C1A16131  23.109  15.097   8.777
  984POPC   D2A16132  22.985  15.234   8.394
  984POPC   C3A16133  23.253  15.093   8.044
  984POPC   C4A16134  23.105  15.040   7.624
  984POPC   C1B16135  22.579  15.080   8.776
  984POPC   C2B16136  22.503  15.084   8.326
  984POPC   C3B16137  22.752  15.240   7.942
  984POPC   C4B16138  22.876  15.506   7.585
  985POPC   NC316139   9.196  12.604   9.603
  985POPC   PO416140   8.747  12.990   9.522
  985POPC   GL116141   8.824  12.715   9.160
  985POPC   GL216142   9.178  12.567   9.110
  985POPC   C1A16143   8.859  12.753   8.710
  985POPC   D2A16144   9.135  12.920   8.383
  985POPC   C3A16145   8.964  12.961   7.966
  985POPC   C4A16146   8.955  13.126   7.558
  985POPC   C1B16147   9.064  12.295   8.807
  985POPC   C2B16148   9.126  12.399   8.420
  985POPC   C3B16149   9.246  12.547   8.045
  985POPC   C4B16150   9.047  12.557   7.668
  986POPC   NC316151  23.996  37.570   9.379
  986POPC   PO416152  24.617  37.455   9.434
  986POPC   GL116153  24.488  37.657   9.087
  986POPC   GL216154  24.256  37.401   8.993
  986POPC   C1A16155  24.453  37.770   8.640
  986POPC   D2A16156  24.685  37.964   8.288
  986POPC   C3A16157  24.727  37.735   7.865
  986POPC   C4A16158  24.666  37.784   7.417
  986POPC   C1B16159  23.946  37.391   8.725
  986POPC   C2B16160  24.193  37.360   8.387
  986POPC   C3B16161  24.293  37.650   8.102
  986POPC   C4B16162  24.308  37.494   7.665
  987POPC   NC316163  44.743   2.961   9.550
  987POPC   PO416164  44.810   2.425   9.144
  987POPC   GL116165  44.533   2.733   9.032
  987POPC   GL216166  44.558   3.112   9.114
  987POPC   C1A16167  44.436   2.663   8.610
  987POPC   D2A16168  44.178   2.581   8.284
  987POPC   C3A16169  44.444   2.634   7.964
  987POPC   C4A16170  44.867   2.662   7.922
  987POPC   C1B16171  44.655   3.106   8.687
  987POPC   C2B16172  44.826   2.922   8.367
  987POPC   C3B16173  44.659   3.099   8.029
  987POPC   C4B16174  44.444   3.071   7.677
  988POPC   NC316175  41.295   9.962   9.519
  988POPC   PO416176  40.658   9.833   9.661
  988POPC   GL116177  40.796   9.828   9.218
  988POPC   GL216178  41.098   9.656   9.140
  988POPC   C1A16179  40.706   9.995   8.801
  988POPC   D2A16180  40.758   9.821   8.389
  988POPC   C3A16181  40.801   9.945   7.962
  988POPC   C4A16182  40.593   9.866   7.561
  988POPC   C1B16183  41.179   9.799   8.703
  988POPC   C2B16184  41.253   9.913   8.279
  988POPC   C3B16185  41.285  10.072   7.892
  988POPC   C4B16186  41.086   9.909   7.483
  989POPC   NC316187  37.207  21.992   9.511
  989POPC   PO416188  36.775  22.501   9.563
  989POPC   GL116189  36.879  22.302   9.101
  989POPC   GL216190  36.917  21.955   9.098
  989POPC   C1A16191  37.103  22.394   8.726
  989POPC   D2A16192  37.061  22.597   8.326
  989POPC   C3A16193  36.850  22.326   8.010
  989POPC   C4A16194  37.060  22.234   7.632
  989POPC   C1B16195  37.095  21.812   8.743
  989POPC   C2B16196  37.076  22.029   8.372
  989POPC   C3B16197  37.081  21.846   7.989
  989POPC   C4B16198  36.775  21.829   7.688
  990POPC   NC316199  27.953  27.259   9.482
  990POPC   PO416200  28.201  27.963   9.540
  990POPC   GL116201  28.278  27.591   9.237
  990POPC   GL216202  28.633  27.523   9.151
  990POPC   C1A16203  28.304  27.326   8.830
  990POPC   D2A16204  28.531  27.290   8.436
  990POPC   C3A16205  28.362  27.595   8.123
  990POPC   C4A16206  28.185  27.657   7.684
  990POPC   C1B16207  28.504  27.823   8.814
  990POPC   C2B16208  28.638  28.047   8.429
  990POPC   C3B16209  28.604  28.066   7.982
  990POPC   C4B16210  28.575  27.938   7.508
  991POPC   NC316211   4.743  19.050   9.431
  991POPC   PO416212   4.100  19.307   9.337
  991POPC   GL116213   4.403  19.172   9.082
  991POPC   GL216214   4.351  18.844   9.136
  991POPC   C1A16215   4.557  19.137   8.678
  991POPC   D2A16216   4.353  19.172   8.243
  991POPC   C3A16217   4.513  18.907   7.884
  991POPC   C4A16218   4.394  18.807   7.440
  991POPC   C1B16219   4.110  18.955   8.727
  991POPC   C2B16220   3.866  18.995   8.423
  991POPC   C3B16221   3.990  18.785   8.095
  991POPC   C4B16222   3.968  18.829   7.705
  992POPC   NC316223  10.828  41.853   9.280
  992POPC   PO416224  10.857  41.286   9.687
  992POPC   GL116225  10.583  41.352   9.288
  992POPC   GL216226  10.264  41.524   9.159
  992POPC   C1A16227  10.508  41.188   8.866
  992POPC   D2A16228  10.330  41.312   8.465
  992POPC   C3A16229  10.509  41.254   8.040
  992POPC   C4A16230  10.341  41.357   7.620
  992POPC   C1B16231  10.380  41.712   8.778
  992POPC   C2B16232  10.277  41.809   8.345
  992POPC   C3B16233  10.435  41.794   7.940
  992POPC   C4B16234  10.592  41.827   7.531
  993POPC   NC316235  37.606  18.436   9.572
  993POPC   PO416236  37.357  17.757   9.389
  993POPC   GL116237  37.458  18.185   9.144
  993POPC   GL216238  37.833  18.357   9.135
  993POPC   C1A16239  37.640  18.188   8.731
  993POPC   D2A16240  37.845  18.392   8.400
  993POPC   C3A16241  37.729  18.322   7.997
  993POPC   C4A16242  37.566  18.447   7.630
  993POPC   C1B16243  37.979  18.681   8.830
  993POPC   C2B16244  38.188  18.743   8.454
  993POPC   C3B16245  38.091  18.732   8.019
  993POPC   C4B16246  38.067  18.469   7.621
  994POPC   NC316247  27.378  28.914   9.425
  994POPC   PO416248  27.465  29.645   9.468
  994POPC   GL116249  27.614  29.364   9.136
  994POPC   GL216250  27.987  29.289   9.134
  994POPC   C1A16251  27.456  29.143   8.766
  994POPC   D2A16252  27.615  29.147   8.356
  994POPC   C3A16253  27.426  28.981   7.979
  994POPC   C4A16254  27.321  29.200   7.645
  994POPC   C1B16255  27.945  28.965   8.799
  994POPC   C2B16256  27.969  28.795   8.378
  994POPC   C3B16257  27.937  29.052   7.974
  994POPC   C4B16258  27.822  28.782   7.639
  995POPC   NC316259  33.773  34.351   9.760
  995POPC   PO416260  33.176  34.515   9.638
  995POPC   GL116261  33.590  34.608   9.348
  995POPC   GL216262  33.831  34.370   9.242
  995POPC   C1A16263  33.744  34.734   8.896
  995POPC   D2A16264  33.843  34.600   8.444
  995POPC   C3A16265  33.724  34.748   8.009
  995POPC   C4A16266  34.059  34.991   7.794
  995POPC   C1B16267  34.015  34.271   8.830
  995POPC   C2B16268  34.138  34.194   8.377
  995POPC   C3B16269  34.088  34.384   7.942
  995POPC   C4B16270  33.758  34.407   7.605
  996POPC   NC316271  26.099  31.214   9.319
  996POPC   PO416272  26.533  31.648   9.515
  996POPC   GL116273  26.221  31.714   9.180
  996POPC   GL216274  25.852  31.680   9.273
  996POPC   C1A16275  26.058  31.548   8.774
  996POPC   D2A16276  26.080  31.482   8.353
  996POPC   C3A16277  26.267  31.751   8.090
  996POPC   C4A16278  26.292  31.439   7.776
  996POPC   C1B16279  25.583  31.654   8.920
  996POPC   C2B16280  25.623  31.683   8.472
  996POPC   C3B16281  25.582  31.649   8.046
  996POPC   C4B16282  25.820  31.641   7.691
  997POPC   NC316283  38.565  14.154   9.567
  997POPC   PO416284  38.432  13.426   9.510
  997POPC   GL116285  38.318  13.795   9.281
  997POPC   GL216286  38.659  13.815   9.197
  997POPC   C1A16287  38.167  13.848   8.860
  997POPC   D2A16288  38.278  13.451   8.602
  997POPC   C3A16289  38.489  13.424   8.203
  997POPC   C4A16290  38.190  13.432   7.866
  997POPC   C1B16291  38.647  13.752   8.793
  997POPC   C2B16292  38.526  13.928   8.420
  997POPC   C3B16293  38.616  13.897   8.017
  997POPC   C4B16294  38.361  13.864   7.666
  998POPC   NC316295  26.374  10.621   9.433
  998POPC   PO416296  26.893  10.258   9.656
  998POPC   GL116297  26.703  10.289   9.254
  998POPC   GL216298  26.888  10.600   9.208
  998POPC   C1A16299  26.665  10.463   8.788
  998POPC   D2A16300  26.982  10.569   8.430
  998POPC   C3A16301  26.774  10.724   8.056
  998POPC   C4A16302  26.680  10.507   7.671
  998POPC   C1B16303  27.096  10.237   8.951
  998POPC   C2B16304  27.372  10.185   8.588
  998POPC   C3B16305  27.241  10.178   8.158
  998POPC   C4B16306  27.291  10.026   7.740
  999POPC   NC316307  10.784  25.708   9.521
  999POPC   PO416308  10.428  26.302   9.565
  999POPC   GL116309  10.503  25.959   9.189
  999POPC   GL216310  10.520  26.201   8.985
  999POPC   C1A16311  10.803  25.828   8.808
  999POPC   D2A16312  10.924  26.057   8.410
  999POPC   C3A16313  10.659  26.019   8.058
  999POPC   C4A16314  10.688  25.809   7.673
  999POPC   C1B16315  10.416  26.059   8.568
  999POPC   C2B16316  10.393  26.392   8.274
  999POPC   C3B16317  10.609  26.606   7.951
  999POPC   C4B16318  10.734  26.726   7.509
 1000POPC   NC316319  21.709  40.047   9.516
 1000POPC   PO416320  22.424  39.831   9.609
 1000POPC   GL116321  22.349  40.007   9.191
 1000POPC   GL216322  22.044  40.181   9.150
 1000POPC   C1A16323  22.450  40.172   8.783
 1000POPC   D2A16324  22.374  39.924   8.426
 1000POPC   C3A16325  22.350  40.140   8.057
 1000POPC   C4A16326  22.562  40.229   7.693
 1000POPC   C1B16327  21.998  39.934   8.776
 1000POPC   C2B16328  21.768  39.956   8.373
 1000POPC   C3B16329  21.883  39.912   7.947
 1000POPC   C4B16330  22.035  39.710   7.594
 1001POPC   NC316331   5.924  34.130   9.526
 1001POPC   PO416332   5.617  33.557   9.406
 1001POPC   GL116333   5.803  33.859   9.117
 1001POPC   GL216334   5.652  34.210   9.112
 1001POPC   C1A16335   5.999  33.852   8.742
 1001POPC   D2A16336   5.854  33.694   8.338
 1001POPC   C3A16337   6.011  33.862   7.917
 1001POPC   C4A16338   6.060  33.894   7.440
 1001POPC   C1B16339   5.394  34.237   8.790
 1001POPC   C2B16340   5.671  34.170   8.490
 1001POPC   C3B16341   5.637  34.114   8.105
 1001POPC   C4B16342   5.546  34.028   7.675
 1002POPC   NC316343  25.665  18.531   9.911
 1002POPC   PO416344  25.081  18.252   9.697
 1002POPC   GL116345  25.160  18.345   9.215
 1002POPC   GL216346  25.154  18.655   9.014
 1002POPC   C1A16347  25.249  18.199   8.771
 1002POPC   D2A16348  25.051  18.180   8.345
 1002POPC   C3A16349  25.316  18.072   7.996
 1002POPC   C4A16350  25.477  17.972   7.598
 1002POPC   C1B16351  25.144  18.646   8.565
 1002POPC   C2B16352  25.403  18.557   8.246
 1002POPC   C3B16353  25.520  18.515   7.841
 1002POPC   C4B16354  25.283  18.637   7.541
 1003POPC   NC316355  37.427  27.148   9.896
 1003POPC   PO416356  37.794  27.509   9.408
 1003POPC   GL116357  37.693  27.480   9.000
 1003POPC   GL216358  37.633  27.171   8.912
 1003POPC   C1A16359  37.725  27.599   8.578
 1003POPC   D2A16360  37.977  27.523   8.212
 1003POPC   C3A16361  37.803  27.812   7.915
 1003POPC   C4A16362  37.398  27.715   7.673
 1003POPC   C1B16363  37.286  27.285   8.683
 1003POPC   C2B16364  37.227  27.557   8.365
 1003POPC   C3B16365  37.489  27.422   8.062
 1003POPC   C4B16366  37.439  27.190   7.696
 1004POPC   NC316367   0.873   1.448   9.794
 1004POPC   PO416368   1.364   1.123   9.432
 1004POPC   GL116369   1.221   1.455   9.113
 1004POPC   GL216370   0.887   1.623   9.188
 1004POPC   C1A16371   1.104   1.312   8.690
 1004POPC   D2A16372   1.436   1.006   8.501
 1004POPC   C3A16373   1.434   0.961   8.046
 1004POPC   C4A16374   1.013   1.025   7.877
 1004POPC   C1B16375   0.991   1.821   8.815
 1004POPC   C2B16376   1.224   1.786   8.455
 1004POPC   C3B16377   1.224   1.450   8.170
 1004POPC   C4B16378   1.142   1.504   7.742
 1005POPC   NC316379  27.920  29.752   9.368
 1005POPC   PO416380  27.514  30.338   9.407
 1005POPC   GL116381  27.826  30.214   9.143
 1005POPC   GL216382  27.690  29.880   8.956
 1005POPC   C1A16383  27.810  30.326   8.755
 1005POPC   D2A16384  27.707  30.022   8.437
 1005POPC   C3A16385  27.685  30.185   8.040
 1005POPC   C4A16386  27.571  30.019   7.655
 1005POPC   C1B16387  27.835  29.529   8.666
 1005POPC   C2B16388  27.893  29.576   8.188
 1005POPC   C3B16389  27.684  29.532   7.787
 1005POPC   C4B16390  27.487  29.600   7.343
 1006POPC   NC316391  17.809  37.147   9.558
 1006POPC   PO416392  17.385  36.705   9.701
 1006POPC   GL116393  17.551  36.803   9.291
 1006POPC   GL216394  17.895  36.717   9.236
 1006POPC   C1A16395  17.503  37.000   8.879
 1006POPC   D2A16396  17.564  36.813   8.463
 1006POPC   C3A16397  17.629  37.037   8.087
 1006POPC   C4A16398  17.495  36.993   7.684
 1006POPC   C1B16399  17.974  36.792   8.784
 1006POPC   C2B16400  18.086  36.740   8.318
 1006POPC   C3B16401  17.891  36.627   7.912
 1006POPC   C4B16402  17.862  36.761   7.448
 1007POPC   NC316403  24.874  37.839   9.446
 1007POPC   PO416404  25.217  37.296   9.513
 1007POPC   GL116405  25.370  37.410   9.140
 1007POPC   GL216406  25.421  37.778   9.233
 1007POPC   C1A16407  25.309  37.338   8.690
 1007POPC   D2A16408  25.570  37.441   8.331
 1007POPC   C3A16409  25.427  37.553   7.977
 1007POPC   C4A16410  25.085  37.382   7.916
 1007POPC   C1B16411  25.137  37.777   8.861
 1007POPC   C2B16412  25.201  37.801   8.416
 1007POPC   C3B16413  25.143  37.960   8.011
 1007POPC   C4B16414  25.007  38.104   7.623
 1008POPC   NC316415  23.132  24.621   9.481
 1008POPC   PO416416  22.665  24.088   9.474
 1008POPC   GL116417  22.948  24.257   9.135
 1008POPC   GL216418  22.881  24.621   9.042
 1008POPC   C1A16419  22.799  24.263   8.690
 1008POPC   D2A16420  22.618  24.509   8.361
 1008POPC   C3A16421  22.846  24.438   7.959
 1008POPC   C4A16422  23.075  24.591   7.587
 1008POPC   C1B16423  23.124  24.794   8.717
 1008POPC   C2B16424  23.317  24.667   8.369
 1008POPC   C3B16425  23.232  24.811   8.011
 1008POPC   C4B16426  23.430  24.961   7.708
 1009POPC   NC316427   3.275  37.479   9.382
 1009POPC   PO416428   2.690  37.899   9.375
 1009POPC   GL116429   2.709  37.458   9.189
 1009POPC   GL216430   2.391  37.331   9.059
 1009POPC   C1A16431   2.805  37.318   8.766
 1009POPC   D2A16432   2.920  37.224   8.345
 1009POPC   C3A16433   2.672  37.328   7.975
 1009POPC   C4A16434   3.020  37.371   7.691
 1009POPC   C1B16435   2.400  37.636   8.730
 1009POPC   C2B16436   2.672  37.677   8.378
 1009POPC   C3B16437   2.882  37.789   8.003
 1009POPC   C4B16438   2.678  37.738   7.650
 1010POPC   NC316439   6.149  40.246   9.640
 1010POPC   PO416440   6.224  39.701   9.265
 1010POPC   GL116441   6.084  40.030   9.085
 1010POPC   GL216442   6.325  40.279   9.147
 1010POPC   C1A16443   6.026  39.922   8.652
 1010POPC   D2A16444   5.806  39.973   8.293
 1010POPC   C3A16445   5.905  39.816   7.902
 1010POPC   C4A16446   5.782  40.041   7.553
 1010POPC   C1B16447   6.163  40.396   8.755
 1010POPC   C2B16448   6.240  40.278   8.342
 1010POPC   C3B16449   6.016  40.309   7.959
 1010POPC   C4B16450   6.198  40.334   7.541
 1011POPC   NC316451  38.088  40.348   9.546
 1011POPC   PO416452  38.484  40.890   9.621
 1011POPC   GL116453  38.444  40.653   9.266
 1011POPC   GL216454  38.429  40.974   9.080
 1011POPC   C1A16455  38.503  40.509   8.847
 1011POPC   D2A16456  38.312  40.737   8.499
 1011POPC   C3A16457  38.173  40.584   8.104
 1011POPC   C4A16458  38.346  40.762   7.751
 1011POPC   C1B16459  38.750  40.935   8.717
 1011POPC   C2B16460  38.942  40.951   8.307
 1011POPC   C3B16461  38.842  41.109   7.892
 1011POPC   C4B16462  38.737  40.938   7.463
 1012POPC   NC316463  20.517   1.745   9.388
 1012POPC   PO416464  20.167   1.271   9.141
 1012POPC   GL116465  20.568   1.196   8.963
 1012POPC   GL216466  20.818   1.427   9.091
 1012POPC   C1A16467  20.575   1.038   8.540
 1012POPC   D2A16468  20.295   1.233   8.240
 1012POPC   C3A16469  20.344   1.154   7.825
 1012POPC   C4A16470  20.736   1.089   7.633
 1012POPC   C1B16471  20.908   1.418   8.636
 1012POPC   C2B16472  20.802   1.350   8.192
 1012POPC   C3B16473  20.653   1.557   7.838
 1012POPC   C4B16474  20.831   1.604   7.432
 1013POPC   NC316475  17.722  16.991   9.571
 1013POPC   PO416476  17.376  16.453   9.365
 1013POPC   GL116477  17.465  16.820   9.142
 1013POPC   GL216478  17.166  16.864   9.113
 1013POPC   C1A16479  17.519  16.997   8.727
 1013POPC   D2A16480  17.594  16.781   8.313
 1013POPC   C3A16481  17.350  16.851   7.906
 1013POPC   C4A16482  17.312  16.712   7.434
 1013POPC   C1B16483  17.232  16.568   8.740
 1013POPC   C2B16484  17.128  16.463   8.328
 1013POPC   C3B16485  17.421  16.385   8.038
 1013POPC   C4B16486  17.539  16.293   7.621
 1014POPC   NC316487  43.802  31.255   9.876
 1014POPC   PO416488  43.863  30.673   9.612
 1014POPC   GL116489  43.752  30.639   9.192
 1014POPC   GL216490  43.937  30.344   9.097
 1014POPC   C1A16491  43.922  30.914   8.851
 1014POPC   D2A16492  43.789  30.948   8.430
 1014POPC   C3A16493  44.000  30.931   8.067
 1014POPC   C4A16494  43.875  30.840   7.664
 1014POPC   C1B16495  43.817  30.440   8.665
 1014POPC   C2B16496  43.924  30.454   8.210
 1014POPC   C3B16497  44.002  30.328   7.763
 1014POPC   C4B16498  43.996  30.480   7.334
 1015POPC   NC316499  13.817  22.074   9.682
 1015POPC   PO416500  13.201  22.276   9.595
 1015POPC   GL116501  13.458  22.318   9.216
 1015POPC   GL216502  13.748  22.513   9.303
 1015POPC   C1A16503  13.441  22.080   8.800
 1015POPC   D2A16504  13.618  21.984   8.397
 1015POPC   C3A16505  13.386  22.173   8.075
 1015POPC   C4A16506  13.403  22.203   7.616
 1015POPC   C1B16507  13.805  22.408   8.866
 1015POPC   C2B16508  13.880  22.425   8.442
 1015POPC   C3B16509  13.838  22.446   7.997
 1015POPC   C4B16510  13.894  22.338   7.528
 1016POPC   NC316511  13.321   6.564   9.410
 1016POPC   PO416512  12.692   6.404   9.399
 1016POPC   GL116513  12.873   6.718   9.124
 1016POPC   GL216514  13.212   6.863   9.027
 1016POPC   C1A16515  12.765   6.811   8.709
 1016POPC   D2A16516  12.858   6.678   8.300
 1016POPC   C3A16517  12.499   6.617   8.077
 1016POPC   C4A16518  12.329   6.768   7.709
 1016POPC   C1B16519  13.184   6.481   8.753
 1016POPC   C2B16520  13.252   6.348   8.325
 1016POPC   C3B16521  13.330   6.505   7.900
 1016POPC   C4B16522  13.261   6.757   7.537
 1017POPC   NC316523  43.366  24.810   9.347
 1017POPC   PO416524  43.167  25.469   9.481
 1017POPC   GL116525  43.093  25.213   9.140
 1017POPC   GL216526  42.905  24.880   9.117
 1017POPC   C1A16527  43.201  25.347   8.770
 1017POPC   D2A16528  43.029  25.482   8.393
 1017POPC   C3A16529  43.176  25.584   7.975
 1017POPC   C4A16530  43.310  25.316   7.650
 1017POPC   C1B16531  42.632  25.129   8.831
 1017POPC   C2B16532  42.579  25.231   8.379
 1017POPC   C3B16533  42.680  25.030   7.976
 1017POPC   C4B16534  42.813  25.102   7.566
 1018POPC   NC316535  11.517  24.115   9.425
 1018POPC   PO416536  11.098  24.642   9.407
 1018POPC   GL116537  11.203  24.409   9.079
 1018POPC   GL216538  11.212  24.069   8.970
 1018POPC   C1A16539  11.282  24.531   8.695
 1018POPC   D2A16540  11.151  24.766   8.345
 1018POPC   C3A16541  11.227  24.589   7.929
 1018POPC   C4A16542  10.940  24.629   7.602
 1018POPC   C1B16543  11.646  24.155   8.786
 1018POPC   C2B16544  11.801  24.044   8.395
 1018POPC   C3B16545  11.534  24.144   8.055
 1018POPC   C4B16546  11.627  24.324   7.667
 1019POPC   NC316547  27.357  11.868   9.388
 1019POPC   PO416548  27.704  12.470   9.459
 1019POPC   GL116549  27.387  12.356   9.100
 1019POPC   GL216550  27.333  11.997   8.912
 1019POPC   C1A16551  27.260  12.438   8.684
 1019POPC   D2A16552  27.478  12.337   8.309
 1019POPC   C3A16553  27.287  12.214   7.923
 1019POPC   C4A16554  27.348  12.323   7.516
 1019POPC   C1B16555  27.693  12.180   8.744
 1019POPC   C2B16556  28.019  12.363   8.523
 1019POPC   C3B16557  27.922  12.117   8.198
 1019POPC   C4B16558  27.770  12.172   7.789
 1020POPC   NC316559  12.011  38.307   9.405
 1020POPC   PO416560  12.589  38.780   9.462
 1020POPC   GL116561  12.350  38.569   9.110
 1020POPC   GL216562  12.376  38.204   9.027
 1020POPC   C1A16563  12.467  38.551   8.661
 1020POPC   D2A16564  12.577  38.275   8.338
 1020POPC   C3A16565  12.237  38.292   8.054
 1020POPC   C4A16566  12.178  38.575   7.717
 1020POPC   C1B16567  12.103  38.180   8.646
 1020POPC   C2B16568  11.927  37.954   8.300
 1020POPC   C3B16569  11.796  38.066   7.884
 1020POPC   C4B16570  12.053  38.158   7.496
 1021POPC   NC316571  30.071  43.051   9.438
 1021POPC   PO416572  29.675  42.750   9.070
 1021POPC   GL116573  29.776  43.251   9.049
 1021POPC   GL216574  30.106  43.448   9.125
 1021POPC   C1A16575  29.854  43.462   8.640
 1021POPC   D2A16576  29.808  43.162   8.316
 1021POPC   C3A16577  29.612  43.194   7.906
 1021POPC   C4A16578  29.595  42.943   7.508
 1021POPC   C1B16579  30.238  43.169   8.787
 1021POPC   C2B16580  30.293  43.334   8.365
 1021POPC   C3B16581  30.128  43.304   7.952
 1021POPC   C4B16582  30.067  43.143   7.542
 1022POPC   NC316583  41.838  44.879   9.384
 1022POPC   PO416584  41.307  44.520   9.645
 1022POPC   GL116585  41.372  44.556   9.224
 1022POPC   GL216586  41.189  44.843   9.139
 1022POPC   C1A16587  41.561  44.609   8.826
 1022POPC   D2A16588  41.804  44.809   8.528
 1022POPC   C3A16589  41.682  44.713   8.141
 1022POPC   C4A16590  41.789  44.875   7.752
 1022POPC   C1B16591  41.190  44.971   8.682
 1022POPC   C2B16592  41.345   0.066   8.261
 1022POPC   C3B16593  41.253  44.936   7.848
 1022POPC   C4B16594  41.400  44.553   7.741
 1023POPC   NC316595  10.141  12.881   9.424
 1023POPC   PO416596   9.640  12.558   9.697
 1023POPC   GL116597   9.728  12.564   9.215
 1023POPC   GL216598   9.874  12.845   8.995
 1023POPC   C1A16599   9.555  12.513   8.765
 1023POPC   D2A16600   9.608  12.714   8.382
 1023POPC   C3A16601   9.750  12.656   7.971
 1023POPC   C4A16602   9.450  12.851   7.673
 1023POPC   C1B16603   9.744  13.124   8.650
 1023POPC   C2B16604   9.850  13.146   8.216
 1023POPC   C3B16605   9.839  13.159   7.765
 1023POPC   C4B16606  10.067  13.338   7.413
 1024POPC   NC316607  21.107  13.904   9.351
 1024POPC   PO416608  21.487  14.541   9.478
 1024POPC   GL116609  21.463  14.244   9.193
 1024POPC   GL216610  21.149  14.340   9.105
 1024POPC   C1A16611  21.570  14.275   8.774
 1024POPC   D2A16612  21.593  14.561   8.409
 1024POPC   C3A16613  21.512  14.384   8.004
 1024POPC   C4A16614  21.405  14.520   7.585
 1024POPC   C1B16615  21.101  14.097   8.716
 1024POPC   C2B16616  21.109  14.301   8.318
 1024POPC   C3B16617  21.016  14.493   7.901
 1024POPC   C4B16618  21.005  14.256   7.456
 1025POPC   NC316619  22.879  31.413   9.493
 1025POPC   PO416620  23.245  31.994   9.557
 1025POPC   GL116621  23.192  31.702   9.212
 1025POPC   GL216622  23.362  31.393   9.187
 1025POPC   C1A16623  23.300  31.682   8.787
 1025POPC   D2A16624  23.103  31.609   8.381
 1025POPC   C3A16625  23.130  31.705   7.927
 1025POPC   C4A16626  22.709  31.811   7.838
 1025POPC   C1B16627  23.063  31.213   8.854
 1025POPC   C2B16628  22.813  31.166   8.467
 1025POPC   C3B16629  22.977  31.231   8.066
 1025POPC   C4B16630  22.840  31.316   7.670
 1026POPC   NC316631  12.150  17.434   9.903
 1026POPC   PO416632  11.667  17.741   9.605
 1026POPC   GL116633  12.041  17.676   9.204
 1026POPC   GL216634  12.426  17.730   9.147
 1026POPC   C1A16635  12.105  17.769   8.719
 1026POPC   D2A16636  12.050  17.870   8.244
 1026POPC   C3A16637  11.988  17.526   7.926
 1026POPC   C4A16638  12.118  17.139   7.677
 1026POPC   C1B16639  12.614  17.836   8.705
 1026POPC   C2B16640  12.582  17.894   8.247
 1026POPC   C3B16641  12.402  17.868   7.840
 1026POPC   C4B16642  12.249  17.611   7.493
 1027POPC   NC316643  31.815   1.331   9.704
 1027POPC   PO416644  32.343   0.884   9.678
 1027POPC   GL116645  32.345   1.087   9.254
 1027POPC   GL216646  32.029   1.280   9.227
 1027POPC   C1A16647  32.245   1.089   8.797
 1027POPC   D2A16648  32.508   0.935   8.461
 1027POPC   C3A16649  32.395   1.163   8.121
 1027POPC   C4A16650  32.359   1.226   7.701
 1027POPC   C1B16651  31.896   1.523   8.849
 1027POPC   C2B16652  32.103   1.547   8.431
 1027POPC   C3B16653  32.162   1.620   7.981
 1027POPC   C4B16654  31.833   1.718   7.697
 1028POPC   NC316655   2.870  22.499   9.320
 1028POPC   PO416656   2.608  22.903   9.762
 1028POPC   GL116657   2.678  22.953   9.222
 1028POPC   GL216658   3.000  23.051   9.145
 1028POPC   C1A16659   2.552  23.035   8.791
 1028POPC   D2A16660   2.640  22.850   8.393
 1028POPC   C3A16661   2.589  23.117   8.022
 1028POPC   C4A16662   2.508  22.758   7.813
 1028POPC   C1B16663   3.015  22.835   8.753
 1028POPC   C2B16664   3.146  22.965   8.350
 1028POPC   C3B16665   3.068  22.987   7.934
 1028POPC   C4B16666   3.011  22.939   7.496
 1029POPC   NC316667  32.245  26.043   9.657
 1029POPC   PO416668  32.636  25.833   9.164
 1029POPC   GL116669  32.399  26.134   9.013
 1029POPC   GL216670  32.064  26.173   9.194
 1029POPC   C1A16671  32.389  26.102   8.565
 1029POPC   D2A16672  32.262  25.801   8.229
 1029POPC   C3A16673  32.474  25.878   7.883
 1029POPC   C4A16674  32.592  26.263   7.746
 1029POPC   C1B16675  32.021  26.378   8.791
 1029POPC   C2B16676  31.909  26.162   8.410
 1029POPC   C3B16677  31.992  26.349   8.078
 1029POPC   C4B16678  32.068  26.155   7.758
 1030POPC   NC316679  42.539  27.478   9.377
 1030POPC   PO416680  41.897  27.520   9.403
 1030POPC   GL116681  42.139  27.624   9.081
 1030POPC   GL216682  41.944  27.577   8.800
 1030POPC   C1A16683  42.443  27.688   8.749
 1030POPC   D2A16684  42.350  27.496   8.367
 1030POPC   C3A16685  42.360  27.739   7.997
 1030POPC   C4A16686  42.469  28.008   7.683
 1030POPC   C1B16687  42.203  27.193   8.783
 1030POPC   C2B16688  42.169  27.007   8.388
 1030POPC   C3B16689  42.264  27.182   7.975
 1030POPC   C4B16690  41.989  27.473   7.770
 1031POPC   NC316691  41.191  36.407   9.442
 1031POPC   PO416692  41.039  37.107   9.481
 1031POPC   GL116693  40.942  36.815   9.144
 1031POPC   GL216694  40.821  37.124   8.977
 1031POPC   C1A16695  40.685  36.683   8.777
 1031POPC   D2A16696  40.616  36.994   8.471
 1031POPC   C3A16697  40.705  36.808   8.082
 1031POPC   C4A16698  40.426  36.612   7.807
 1031POPC   C1B16699  41.095  36.989   8.643
 1031POPC   C2B16700  41.212  36.899   8.207
 1031POPC   C3B16701  41.145  36.876   7.734
 1031POPC   C4B16702  41.208  36.811   7.249
 1032POPC   NC316703  32.142  37.015   9.531
 1032POPC   PO416704  32.604  36.563   9.536
 1032POPC   GL116705  32.348  36.690   9.174
 1032POPC   GL216706  32.014  36.647   9.132
 1032POPC   C1A16707  32.361  36.834   8.747
 1032POPC   D2A16708  32.404  36.603   8.352
 1032POPC   C3A16709  32.379  36.906   8.040
 1032POPC   C4A16710  32.539  36.857   7.636
 1032POPC   C1B16711  31.890  36.612   8.730
 1032POPC   C2B16712  31.923  36.811   8.356
 1032POPC   C3B16713  31.835  37.087   8.058
 1032POPC   C4B16714  32.030  37.022   7.674
 1033POPC   NC316715   6.105  25.099   9.491
 1033POPC   PO416716   5.317  25.012   9.440
 1033POPC   GL116717   5.637  25.187   9.124
 1033POPC   GL216718   5.995  25.358   9.088
 1033POPC   C1A16719   5.732  25.239   8.675
 1033POPC   D2A16720   5.646  25.065   8.288
 1033POPC   C3A16721   5.738  25.368   7.973
 1033POPC   C4A16722   5.537  25.759   7.867
 1033POPC   C1B16723   6.156  25.006   8.845
 1033POPC   C2B16724   6.130  24.937   8.423
 1033POPC   C3B16725   6.150  25.052   7.980
 1033POPC   C4B16726   5.916  25.081   7.567
 1034POPC   NC316727   6.249  42.690   9.484
 1034POPC   PO416728   6.550  43.218   9.799
 1034POPC   GL116729   6.499  43.150   9.314
 1034POPC   GL216730   6.582  43.455   9.060
 1034POPC   C1A16731   6.650  42.957   8.920
 1034POPC   D2A16732   6.683  43.117   8.507
 1034POPC   C3A16733   6.550  42.848   8.170
 1034POPC   C4A16734   6.521  42.894   7.721
 1034POPC   C1B16735   6.833  43.614   8.686
 1034POPC   C2B16736   7.008  43.464   8.303
 1034POPC   C3B16737   6.702  43.306   8.007
 1034POPC   C4B16738   6.557  43.410   7.581
 1035POPC   NC316739   5.306  44.963   9.337
 1035POPC   PO416740   5.937  44.714   9.580
 1035POPC   GL116741   6.058  44.607   9.191
 1035POPC   GL216742   5.739  44.786   9.064
 1035POPC   C1A16743   6.206  44.816   8.845
 1035POPC   D2A16744   5.875  44.850   8.546
 1035POPC   C3A16745   5.926  44.654   8.144
 1035POPC   C4A16746   5.886  44.779   7.729
 1035POPC   C1B16747   5.449  44.528   8.797
 1035POPC   C2B16748   5.500  44.433   8.355
 1035POPC   C3B16749   5.448  44.573   7.902
 1035POPC   C4B16750   5.537  44.573   7.409
 1036POPC   NC316751  20.554  29.747   9.561
 1036POPC   PO416752  20.451  30.485   9.485
 1036POPC   GL116753  20.572  30.108   9.166
 1036POPC   GL216754  20.841  29.775   9.155
 1036POPC   C1A16755  20.664  30.018   8.734
 1036POPC   D2A16756  20.579  30.154   8.319
 1036POPC   C3A16757  20.664  30.170   7.912
 1036POPC   C4A16758  20.368  29.910   7.770
 1036POPC   C1B16759  20.646  29.515   8.833
 1036POPC   C2B16760  20.465  29.609   8.437
 1036POPC   C3B16761  20.739  29.695   8.094
 1036POPC   C4B16762  20.712  29.519   7.710
 1037POPC   NC316763  26.281  13.863   9.302
 1037POPC   PO416764  26.894  13.706   9.556
 1037POPC   GL116765  26.887  13.523   9.164
 1037POPC   GL216766  26.534  13.473   9.075
 1037POPC   C1A16767  26.886  13.661   8.754
 1037POPC   D2A16768  27.065  13.522   8.393
 1037POPC   C3A16769  26.867  13.731   8.069
 1037POPC   C4A16770  26.869  13.539   7.694
 1037POPC   C1B16771  26.371  13.627   8.679
 1037POPC   C2B16772  26.370  13.718   8.227
 1037POPC   C3B16773  26.356  13.532   7.832
 1037POPC   C4B16774  26.480  13.711   7.414
 1038POPC   NC316775  32.688  42.954   9.705
 1038POPC   PO416776  32.195  43.353   9.580
 1038POPC   GL116777  32.400  43.308   9.216
 1038POPC   GL216778  32.381  42.969   9.237
 1038POPC   C1A16779  32.444  43.448   8.817
 1038POPC   D2A16780  32.406  43.254   8.396
 1038POPC   C3A16781  32.370  43.443   7.983
 1038POPC   C4A16782  32.248  43.204   7.609
 1038POPC   C1B16783  32.408  42.924   8.779
 1038POPC   C2B16784  32.632  42.787   8.383
 1038POPC   C3B16785  32.454  42.892   7.983
 1038POPC   C4B16786  32.392  42.723   7.564
 1039POPC   NC316787   2.731  16.859   9.660
 1039POPC   PO416788   3.070  16.340   9.385
 1039POPC   GL116789   3.043  16.743   9.209
 1039POPC   GL216790   2.677  16.706   9.176
 1039POPC   C1A16791   3.050  16.917   8.783
 1039POPC   D2A16792   3.009  16.657   8.418
 1039POPC   C3A16793   3.044  16.798   8.016
 1039POPC   C4A16794   2.883  16.661   7.627
 1039POPC   C1B16795   2.565  16.648   8.758
 1039POPC   C2B16796   2.551  16.908   8.385
 1039POPC   C3B16797   2.540  16.700   8.004
 1039POPC   C4B16798   2.369  16.314   7.866
 1040POPC   NC316799  25.937   2.051   9.509
 1040POPC   PO416800  26.514   1.962   9.502
 1040POPC   GL116801  26.255   1.833   9.136
 1040POPC   GL216802  26.131   2.152   9.043
 1040POPC   C1A16803  25.965   1.759   8.788
 1040POPC   D2A16804  25.888   2.089   8.496
 1040POPC   C3A16805  26.152   1.991   8.159
 1040POPC   C4A16806  25.948   1.893   7.784
 1040POPC   C1B16807  26.361   2.243   8.644
 1040POPC   C2B16808  26.254   2.482   8.280
 1040POPC   C3B16809  26.068   2.405   7.854
 1040POPC   C4B16810  26.189   2.503   7.421
 1041POPC   NC316811  20.923  32.435   9.283
 1041POPC   PO416812  20.417  32.370   9.686
 1041POPC   GL116813  20.434  32.233   9.203
 1041POPC   GL216814  20.576  31.861   9.179
 1041POPC   C1A16815  20.407  32.455   8.747
 1041POPC   D2A16816  20.354  32.643   8.306
 1041POPC   C3A16817  20.698  32.538   8.028
 1041POPC   C4A16818  20.752  32.380   7.620
 1041POPC   C1B16819  20.651  31.981   8.773
 1041POPC   C2B16820  20.701  32.175   8.375
 1041POPC   C3B16821  20.718  31.983   7.952
 1041POPC   C4B16822  20.797  31.897   7.493
 1042POPC   NC316823  28.872  10.909   9.429
 1042POPC   PO416824  29.169  11.621   9.437
 1042POPC   GL116825  29.112  11.295   9.153
 1042POPC   GL216826  28.724  11.303   9.100
 1042POPC   C1A16827  29.403  11.154   8.794
 1042POPC   D2A16828  29.542  10.958   8.392
 1042POPC   C3A16829  29.359  10.929   7.964
 1042POPC   C4A16830  29.364  11.288   7.652
 1042POPC   C1B16831  28.904  11.192   8.712
 1042POPC   C2B16832  29.130  11.258   8.350
 1042POPC   C3B16833  28.933  11.185   8.011
 1042POPC   C4B16834  28.868  11.320   7.612
 1043POPC   NC316835   1.256  33.615   9.628
 1043POPC   PO416836   0.849  34.009   9.779
 1043POPC   GL116837   1.057  33.872   9.265
 1043POPC   GL216838   1.450  33.946   9.250
 1043POPC   C1A16839   1.173  34.095   8.859
 1043POPC   D2A16840   1.216  34.261   8.488
 1043POPC   C3A16841   1.006  34.008   8.247
 1043POPC   C4A16842   1.225  34.109   7.872
 1043POPC   C1B16843   1.392  33.635   8.896
 1043POPC   C2B16844   1.206  33.539   8.480
 1043POPC   C3B16845   1.278  33.642   8.069
 1043POPC   C4B16846   1.515  33.577   7.755
 1044POPC   NC316847  28.499   2.824   9.495
 1044POPC   PO416848  27.866   3.127   9.564
 1044POPC   GL116849  28.101   2.920   9.191
 1044POPC   GL216850  28.253   2.546   9.169
 1044POPC   C1A16851  28.328   2.941   8.803
 1044POPC   D2A16852  28.165   2.919   8.373
 1044POPC   C3A16853  28.509   2.998   8.114
 1044POPC   C4A16854  28.608   2.776   7.757
 1044POPC   C1B16855  28.557   2.475   8.829
 1044POPC   C2B16856  28.585   2.604   8.412
 1044POPC   C3B16857  28.291   2.523   8.079
 1044POPC   C4B16858  28.325   2.358   7.692
 1045POPC   NC316859  39.836  34.480   9.550
 1045POPC   PO416860  40.129  35.131   9.724
 1045POPC   GL116861  40.209  34.738   9.325
 1045POPC   GL216862  39.906  34.590   9.085
 1045POPC   C1A16863  40.262  34.792   8.837
 1045POPC   D2A16864  40.119  34.441   8.548
 1045POPC   C3A16865  40.231  34.475   8.113
 1045POPC   C4A16866  40.041  34.688   7.801
 1045POPC   C1B16867  39.663  34.395   8.804
 1045POPC   C2B16868  39.468  34.503   8.440
 1045POPC   C3B16869  39.646  34.512   8.057
 1045POPC   C4B16870  39.561  34.834   7.744
 1046POPC   NC316871  36.626  38.251   9.550
 1046POPC   PO416872  36.872  37.561   9.501
 1046POPC   GL116873  36.905  37.796   9.121
 1046POPC   GL216874  36.557  37.759   9.028
 1046POPC   C1A16875  37.107  37.764   8.702
 1046POPC   D2A16876  36.977  37.538   8.320
 1046POPC   C3A16877  37.072  37.605   7.888
 1046POPC   C4A16878  37.176  37.995   7.808
 1046POPC   C1B16879  36.586  37.805   8.592
 1046POPC   C2B16880  36.568  37.796   8.143
 1046POPC   C3B16881  36.625  37.826   7.743
 1046POPC   C4B16882  36.687  37.511   7.504
 1047POPC   NC316883  42.515  32.150   9.425
 1047POPC   PO416884  41.950  32.608   9.472
 1047POPC   GL116885  42.124  32.386   9.125
 1047POPC   GL216886  42.486  32.452   9.017
 1047POPC   C1A16887  42.163  32.085   8.815
 1047POPC   D2A16888  42.402  32.082   8.446
 1047POPC   C3A16889  42.214  32.115   8.047
 1047POPC   C4A16890  42.159  32.416   7.752
 1047POPC   C1B16891  42.249  32.560   8.659
 1047POPC   C2B16892  42.379  32.591   8.251
 1047POPC   C3B16893  42.659  32.350   8.077
 1047POPC   C4B16894  42.681  32.260   7.667
 1048POPC   NC316895  21.297  25.399   9.544
 1048POPC   PO416896  21.826  24.985   9.558
 1048POPC   GL116897  21.720  25.298   9.223
 1048POPC   GL216898  21.684  25.683   9.287
 1048POPC   C1A16899  21.489  25.248   8.841
 1048POPC   D2A16900  21.512  25.081   8.416
 1048POPC   C3A16901  21.365  25.266   8.061
 1048POPC   C4A16902  21.515  25.023   7.735
 1048POPC   C1B16903  21.552  25.752   8.864
 1048POPC   C2B16904  21.482  25.617   8.456
 1048POPC   C3B16905  21.669  25.741   8.089
 1048POPC   C4B16906  21.640  25.516   7.724
 1049POPC   NC316907  28.855  26.896   9.458
 1049POPC   PO416908  28.876  26.261   9.273
 1049POPC   GL116909  29.091  26.597   9.076
 1049POPC   GL216910  29.196  26.975   9.099
 1049POPC   C1A16911  29.234  26.609   8.692
 1049POPC   D2A16912  29.001  26.638   8.320
 1049POPC   C3A16913  29.159  26.784   7.920
 1049POPC   C4A16914  29.020  26.717   7.506
 1049POPC   C1B16915  29.032  27.225   8.805
 1049POPC   C2B16916  29.054  27.150   8.388
 1049POPC   C3B16917  28.823  27.146   8.032
 1049POPC   C4B16918  28.992  27.202   7.620
 1050POPC   NC316919  31.212  11.384   9.595
 1050POPC   PO416920  31.627  10.961   9.455
 1050POPC   GL116921  31.378  11.123   9.169
 1050POPC   GL216922  31.476  11.478   9.162
 1050POPC   C1A16923  31.511  11.146   8.759
 1050POPC   D2A16924  31.838  11.127   8.436
 1050POPC   C3A16925  31.672  11.016   8.026
 1050POPC   C4A16926  31.360  11.146   7.712
 1050POPC   C1B16927  31.786  11.586   8.817
 1050POPC   C2B16928  31.760  11.663   8.372
 1050POPC   C3B16929  31.565  11.535   7.990
 1050POPC   C4B16930  31.571  11.696   7.597
 1051POPC   NC316931  13.206  42.537   9.585
 1051POPC   PO416932  13.267  41.874   9.583
 1051POPC   GL116933  13.529  42.158   9.234
 1051POPC   GL216934  13.376  42.462   9.135
 1051POPC   C1A16935  13.760  42.345   8.838
 1051POPC   D2A16936  13.979  42.370   8.453
 1051POPC   C3A16937  13.791  42.270   8.061
 1051POPC   C4A16938  13.663  42.387   7.664
 1051POPC   C1B16939  13.362  42.643   8.778
 1051POPC   C2B16940  13.458  42.467   8.402
 1051POPC   C3B16941  13.444  42.694   8.025
 1051POPC   C4B16942  13.216  42.661   7.662
 1052POPC   NC316943   6.549  12.638   9.445
 1052POPC   PO416944   6.727  13.278   9.422
 1052POPC   GL116945   6.683  13.034   9.118
 1052POPC   GL216946   6.375  12.955   9.043
 1052POPC   C1A16947   6.844  12.840   8.783
 1052POPC   D2A16948   6.928  12.931   8.384
 1052POPC   C3A16949   6.864  12.622   8.081
 1052POPC   C4A16950   6.980  12.623   7.676
 1052POPC   C1B16951   6.356  12.830   8.616
 1052POPC   C2B16952   6.395  12.804   8.171
 1052POPC   C3B16953   6.492  12.830   7.731
 1052POPC   C4B16954   6.333  13.084   7.360
 1053POPC   NC316955  26.583   9.909   9.627
 1053POPC   PO416956  27.212   9.642   9.565
 1053POPC   GL116957  26.923   9.801   9.253
 1053POPC   GL216958  26.666   9.559   9.197
 1053POPC   C1A16959  26.668   9.948   8.886
 1053POPC   D2A16960  26.862  10.075   8.511
 1053POPC   C3A16961  26.706  10.190   8.114
 1053POPC   C4A16962  26.780  10.007   7.729
 1053POPC   C1B16963  26.809   9.466   8.749
 1053POPC   C2B16964  26.738   9.361   8.287
 1053POPC   C3B16965  26.482   9.583   7.909
 1053POPC   C4B16966  26.554   9.665   7.436
 1054POPC   NC316967  10.981  22.692   9.615
 1054POPC   PO416968  11.372  23.113   9.896
 1054POPC   GL116969  11.256  23.118   9.427
 1054POPC   GL216970  11.373  22.800   9.265
 1054POPC   C1A16971  11.143  23.136   8.959
 1054POPC   D2A16972  11.338  23.154   8.517
 1054POPC   C3A16973  11.209  23.283   8.090
 1054POPC   C4A16974  11.016  23.221   7.671
 1054POPC   C1B16975  11.368  22.707   8.804
 1054POPC   C2B16976  11.165  22.672   8.395
 1054POPC   C3B16977  11.197  22.788   7.959
 1054POPC   C4B16978  11.098  22.549   7.608
 1055POPC   NC316979   8.307  22.356   9.451
 1055POPC   PO416980   8.555  21.711   9.558
 1055POPC   GL116981   8.487  21.976   9.154
 1055POPC   GL216982   8.085  22.038   9.115
 1055POPC   C1A16983   8.426  22.322   8.807
 1055POPC   D2A16984   8.290  22.495   8.407
 1055POPC   C3A16985   8.426  22.374   8.010
 1055POPC   C4A16986   8.498  22.564   7.593
 1055POPC   C1B16987   8.221  21.859   8.727
 1055POPC   C2B16988   8.264  21.970   8.322
 1055POPC   C3B16989   8.192  21.930   7.901
 1055POPC   C4B16990   8.392  21.725   7.626
 1056POPC   NC316991   7.213  21.316   9.368
 1056POPC   PO416992   6.592  21.400   9.525
 1056POPC   GL116993   6.823  21.428   9.101
 1056POPC   GL216994   6.729  21.721   9.069
 1056POPC   C1A16995   6.931  21.274   8.662
 1056POPC   D2A16996   6.699  21.229   8.260
 1056POPC   C3A16997   6.633  21.543   7.923
 1056POPC   C4A16998   6.473  21.413   7.514
 1056POPC   C1B16999   6.569  21.618   8.685
 1056POPC   C2B17000   6.473  21.800   8.327
 1056POPC   C3B17001   6.194  22.003   8.083
 1056POPC   C4B17002   6.263  21.854   7.664
 1057POPC   NC317003   4.028  10.514   9.617
 1057POPC   PO417004   3.489  10.891   9.465
 1057POPC   GL117005   3.712  10.589   9.233
 1057POPC   GL217006   3.898  10.798   9.016
 1057POPC   C1A17007   3.958  10.288   8.977
 1057POPC   D2A17008   3.936  10.142   8.566
 1057POPC   C3A17009   3.946  10.319   8.142
 1057POPC   C4A17010   3.663  10.333   7.795
 1057POPC   C1B17011   3.585  10.548   8.753
 1057POPC   C2B17012   3.480  10.457   8.338
 1057POPC   C3B17013   3.395  10.719   7.984
 1057POPC   C4B17014   3.658  10.850   7.627
 1058POPC   NC317015  28.654   1.141   9.565
 1058POPC   PO417016  28.047   1.533   9.586
 1058POPC   GL117017  28.258   1.303   9.222
 1058POPC   GL217018  28.514   1.044   9.082
 1058POPC   C1A17019  28.260   1.384   8.761
 1058POPC   D2A17020  28.196   1.040   8.430
 1058POPC   C3A17021  28.134   1.108   7.971
 1058POPC   C4A17022  27.992   1.453   7.703
 1058POPC   C1B17023  28.669   1.104   8.630
 1058POPC   C2B17024  28.541   1.391   8.251
 1058POPC   C3B17025  28.526   1.432   7.755
 1058POPC   C4B17026  28.750   1.512   7.301
 1059POPC   NC317027  18.896  38.001   9.492
 1059POPC   PO417028  18.990  37.333   9.484
 1059POPC   GL117029  19.034  37.648   9.115
 1059POPC   GL217030  19.245  37.940   9.118
 1059POPC   C1A17031  18.823  37.696   8.713
 1059POPC   D2A17032  18.525  37.516   8.432
 1059POPC   C3A17033  18.813  37.450   8.132
 1059POPC   C4A17034  18.900  37.529   7.724
 1059POPC   C1B17035  19.310  37.808   8.685
 1059POPC   C2B17036  19.111  37.890   8.288
 1059POPC   C3B17037  19.246  37.861   7.860
 1059POPC   C4B17038  19.336  38.051   7.471
 1060POPC   NC317039   1.525  37.661   9.543
 1060POPC   PO417040   0.871  37.441   9.490
 1060POPC   GL117041   1.125  37.631   9.144
 1060POPC   GL217042   1.482  37.817   9.074
 1060POPC   C1A17043   1.233  37.529   8.745
 1060POPC   D2A17044   1.434  37.556   8.354
 1060POPC   C3A17045   1.289  37.436   7.964
 1060POPC   C4A17046   1.359  37.670   7.614
 1060POPC   C1B17047   1.419  38.001   8.656
 1060POPC   C2B17048   1.232  38.138   8.246
 1060POPC   C3B17049   1.445  38.130   7.831
 1060POPC   C4B17050   1.515  38.093   7.348
 1061POPC   NC317051  44.441  17.441   9.594
 1061POPC   PO417052   0.178  17.315   9.508
 1061POPC   GL117053  44.824  17.200   9.242
 1061POPC   GL217054  44.709  17.532   9.152
 1061POPC   C1A17055  44.614  17.119   8.836
 1061POPC   D2A17056  44.627  17.352   8.432
 1061POPC   C3A17057  44.395  17.212   8.082
 1061POPC   C4A17058  44.622  17.216   7.740
 1061POPC   C1B17059  44.482  17.680   8.790
 1061POPC   C2B17060  44.528  17.880   8.392
 1061POPC   C3B17061  44.590  17.697   8.009
 1061POPC   C4B17062  44.271  17.672   7.726
 1062POPC   NC317063  40.055   0.025   9.396
 1062POPC   PO417064  40.333  44.357   9.490
 1062POPC   GL117065  40.237  44.603   9.148
 1062POPC   GL217066  39.870  44.600   9.140
 1062POPC   C1A17067  40.177  44.689   8.713
 1062POPC   D2A17068  40.256  44.451   8.320
 1062POPC   C3A17069  40.049  44.563   7.957
 1062POPC   C4A17070  40.105  44.975   7.867
 1062POPC   C1B17071  39.670  44.637   8.754
 1062POPC   C2B17072  39.810  44.816   8.375
 1062POPC   C3B17073  39.627  44.921   8.023
 1062POPC   C4B17074  39.658  44.744   7.636
 1063POPC   NC317075  37.276  40.506   9.527
 1063POPC   PO417076  37.670  39.960   9.566
 1063POPC   GL117077  37.875  40.028   9.185
 1063POPC   GL217078  37.723  40.333   9.153
 1063POPC   C1A17079  37.744  39.934   8.753
 1063POPC   D2A17080  37.406  39.862   8.420
 1063POPC   C3A17081  37.535  39.742   8.009
 1063POPC   C4A17082  37.464  39.983   7.633
 1063POPC   C1B17083  38.027  40.371   8.840
 1063POPC   C2B17084  38.071  40.184   8.432
 1063POPC   C3B17085  37.746  40.183   8.162
 1063POPC   C4B17086  37.807  40.320   7.788
 1064POPC   NC317087  24.793  25.715   9.604
 1064POPC   PO417088  24.495  26.353   9.719
 1064POPC   GL117089  24.717  26.239   9.311
 1064POPC   GL217090  24.633  25.902   9.169
 1064POPC   C1A17091  24.613  26.295   8.858
 1064POPC   D2A17092  24.402  25.942   8.626
 1064POPC   C3A17093  24.301  25.938   8.172
 1064POPC   C4A17094  24.275  26.009   7.715
 1064POPC   C1B17095  24.886  25.859   8.813
 1064POPC   C2B17096  24.860  25.704   8.419
 1064POPC   C3B17097  24.715  25.677   8.017
 1064POPC   C4B17098  24.836  25.868   7.660
 1065POPC   NC317099  27.487  32.453   9.783
 1065POPC   PO417100  26.937  32.204   9.456
 1065POPC   GL117101  26.767  32.071   9.082
 1065POPC   GL217102  27.002  32.297   8.935
 1065POPC   C1A17103  26.614  32.171   8.664
 1065POPC   D2A17104  26.837  32.396   8.376
 1065POPC   C3A17105  26.731  32.174   8.048
 1065POPC   C4A17106  26.716  32.268   7.649
 1065POPC   C1B17107  27.255  32.543   8.683
 1065POPC   C2B17108  27.370  32.441   8.275
 1065POPC   C3B17109  27.128  32.470   7.925
 1065POPC   C4B17110  27.043  32.749   7.564
 1066POPC   NC317111  23.285  40.917   9.353
 1066POPC   PO417112  23.803  40.509   9.453
 1066POPC   GL117113  23.752  40.819   9.155
 1066POPC   GL217114  23.905  41.132   9.116
 1066POPC   C1A17115  23.780  40.841   8.730
 1066POPC   D2A17116  23.847  40.563   8.416
 1066POPC   C3A17117  23.735  40.784   8.051
 1066POPC   C4A17118  23.571  40.615   7.694
 1066POPC   C1B17119  23.998  41.309   8.726
 1066POPC   C2B17120  24.135  41.273   8.290
 1066POPC   C3B17121  23.854  41.290   7.935
 1066POPC   C4B17122  23.677  41.085   7.565
 1067POPC   NC317123  33.499  30.098   9.550
 1067POPC   PO417124  34.114  30.175   9.524
 1067POPC   GL117125  33.886  29.956   9.186
 1067POPC   GL217126  33.825  29.599   9.211
 1067POPC   C1A17127  33.822  29.815   8.754
 1067POPC   D2A17128  33.999  30.020   8.440
 1067POPC   C3A17129  33.788  29.927   8.093
 1067POPC   C4A17130  33.660  30.111   7.710
 1067POPC   C1B17131  34.151  29.456   8.920
 1067POPC   C2B17132  34.233  29.519   8.484
 1067POPC   C3B17133  34.085  29.495   8.046
 1067POPC   C4B17134  33.856  29.602   7.689
 1068POPC   NC317135  38.950  29.200   9.726
 1068POPC   PO417136  39.301  28.735   9.593
 1068POPC   GL117137  39.153  28.962   9.153
 1068POPC   GL217138  39.077  29.299   9.228
 1068POPC   C1A17139  39.350  28.925   8.747
 1068POPC   D2A17140  39.474  28.652   8.361
 1068POPC   C3A17141  39.328  28.820   7.959
 1068POPC   C4A17142  39.348  29.113   7.628
 1068POPC   C1B17143  38.933  29.466   8.833
 1068POPC   C2B17144  38.879  29.341   8.419
 1068POPC   C3B17145  38.990  29.217   8.005
 1068POPC   C4B17146  38.779  29.252   7.624
 1069POPC   NC317147  19.293  35.493   9.330
 1069POPC   PO417148  19.060  34.933   9.677
 1069POPC   GL117149  18.982  35.030   9.210
 1069POPC   GL217150  18.827  35.358   9.171
 1069POPC   C1A17151  19.107  35.140   8.735
 1069POPC   D2A17152  19.358  35.250   8.351
 1069POPC   C3A17153  19.194  35.396   7.944
 1069POPC   C4A17154  19.095  35.169   7.573
 1069POPC   C1B17155  18.837  35.569   8.787
 1069POPC   C2B17156  18.951  35.599   8.354
 1069POPC   C3B17157  18.684  35.523   7.998
 1069POPC   C4B17158  18.720  35.496   7.580
 1070POPC   NC317159  42.867  39.536   9.363
 1070POPC   PO417160  43.312  40.111   9.526
 1070POPC   GL117161  43.120  40.184   9.120
 1070POPC   GL217162  42.769  40.043   9.097
 1070POPC   C1A17163  43.000  40.307   8.684
 1070POPC   D2A17164  42.839  40.178   8.280
 1070POPC   C3A17165  43.184  40.172   7.979
 1070POPC   C4A17166  43.477  39.807   7.830
 1070POPC   C1B17167  43.003  39.795   8.753
 1070POPC   C2B17168  43.176  39.769   8.321
 1070POPC   C3B17169  42.993  39.707   7.913
 1070POPC   C4B17170  43.011  39.408   7.599
 1071POPC   NC317171  11.381   8.993   9.453
 1071POPC   PO417172  11.115   8.385   9.514
 1071POPC   GL117173  11.238   8.613   9.150
 1071POPC   GL217174  11.609   8.717   9.089
 1071POPC   C1A17175  11.183   8.842   8.771
 1071POPC   D2A17176  11.235   8.768   8.322
 1071POPC   C3A17177  11.183   9.149   8.078
 1071POPC   C4A17178  11.327   9.339   7.698
 1071POPC   C1B17179  11.636   9.066   8.768
 1071POPC   C2B17180  11.675   9.031   8.332
 1071POPC   C3B17181  11.620   8.918   7.911
 1071POPC   C4B17182  11.768   9.085   7.526
 1072POPC   NC317183  33.532  41.509   9.787
 1072POPC   PO417184  34.093  41.444   9.339
 1072POPC   GL117185  34.021  41.600   8.949
 1072POPC   GL217186  33.681  41.520   8.804
 1072POPC   C1A17187  34.064  41.664   8.504
 1072POPC   D2A17188  34.009  41.736   8.117
 1072POPC   C3A17189  33.812  41.413   7.919
 1072POPC   C4A17190  33.596  41.234   7.600
 1072POPC   C1B17191  33.563  41.577   8.408
 1072POPC   C2B17192  33.553  41.952   8.206
 1072POPC   C3B17193  33.695  41.978   7.802
 1072POPC   C4B17194  33.881  41.686   7.496
 1073POPC   NC317195  17.429   4.068   9.475
 1073POPC   PO417196  17.815   3.341   9.458
 1073POPC   GL117197  17.566   3.419   9.102
 1073POPC   GL217198  17.449   3.734   9.052
 1073POPC   C1A17199  17.517   3.384   8.682
 1073POPC   D2A17200  17.807   3.274   8.391
 1073POPC   C3A17201  17.530   3.353   8.062
 1073POPC   C4A17202  17.632   3.262   7.643
 1073POPC   C1B17203  17.135   3.699   8.774
 1073POPC   C2B17204  17.065   3.615   8.364
 1073POPC   C3B17205  17.109   3.775   7.962
 1073POPC   C4B17206  17.455   3.730   7.727
 1074POPC   NC317207   1.231  37.170   9.357
 1074POPC   PO417208   1.364  36.568   9.509
 1074POPC   GL117209   1.528  36.803   9.124
 1074POPC   GL217210   1.538  36.442   9.052
 1074POPC   C1A17211   1.520  37.104   8.733
 1074POPC   D2A17212   1.127  37.148   8.430
 1074POPC   C3A17213   1.067  36.980   8.013
 1074POPC   C4A17214   1.432  36.927   7.764
 1074POPC   C1B17215   1.377  36.625   8.685
 1074POPC   C2B17216   1.549  36.763   8.320
 1074POPC   C3B17217   1.504  36.485   7.972
 1074POPC   C4B17218   1.073  36.517   7.763
 1075POPC   NC317219   8.495  35.498   9.465
 1075POPC   PO417220   8.045  35.100   9.569
 1075POPC   GL117221   8.189  35.169   9.185
 1075POPC   GL217222   8.416  34.922   9.100
 1075POPC   C1A17223   8.163  35.492   8.865
 1075POPC   D2A17224   8.023  35.533   8.445
 1075POPC   C3A17225   8.277  35.447   8.075
 1075POPC   C4A17226   8.465  35.742   7.766
 1075POPC   C1B17227   8.199  35.013   8.695
 1075POPC   C2B17228   8.020  35.049   8.278
 1075POPC   C3B17229   7.910  35.148   7.858
 1075POPC   C4B17230   8.285  35.224   7.615
 1076POPC   NC317231  38.955  20.605   9.501
 1076POPC   PO417232  39.602  20.728   9.702
 1076POPC   GL117233  39.418  20.770   9.282
 1076POPC   GL217234  39.690  20.569   9.183
 1076POPC   C1A17235  39.221  20.611   8.888
 1076POPC   D2A17236  39.025  20.447   8.502
 1076POPC   C3A17237  39.194  20.587   8.083
 1076POPC   C4A17238  39.252  20.438   7.668
 1076POPC   C1B17239  39.669  20.816   8.785
 1076POPC   C2B17240  39.445  20.919   8.379
 1076POPC   C3B17241  39.629  20.878   7.908
 1076POPC   C4B17242  39.546  20.824   7.430
 1077POPC   NC317243  11.255  11.657   9.368
 1077POPC   PO417244  11.550  11.162   9.576
 1077POPC   GL117245  11.283  11.169   9.223
 1077POPC   GL217246  11.532  11.340   9.089
 1077POPC   C1A17247  11.020  11.012   8.886
 1077POPC   D2A17248  11.092  10.985   8.439
 1077POPC   C3A17249  11.003  11.308   8.148
 1077POPC   C4A17250  10.988  11.153   7.759
 1077POPC   C1B17251  11.308  11.418   8.725
 1077POPC   C2B17252  11.473  11.391   8.338
 1077POPC   C3B17253  11.441  11.091   8.012
 1077POPC   C4B17254  11.434  11.319   7.636
 1078POPC   NC317255  27.795  31.501   9.780
 1078POPC   PO417256  27.474  31.874   9.314
 1078POPC   GL117257  27.443  31.451   9.144
 1078POPC   GL217258  27.769  31.334   9.083
 1078POPC   C1A17259  27.385  31.275   8.718
 1078POPC   D2A17260  27.159  31.441   8.341
 1078POPC   C3A17261  27.352  31.368   7.909
 1078POPC   C4A17262  27.480  31.690   7.569
 1078POPC   C1B17263  27.776  31.622   8.738
 1078POPC   C2B17264  27.695  31.467   8.326
 1078POPC   C3B17265  27.811  31.627   7.945
 1078POPC   C4B17266  28.021  31.707   7.567
 1079POPC   NC317267  14.185  19.825   9.777
 1079POPC   PO417268  14.499  20.261   9.423
 1079POPC   GL117269  14.378  19.849   9.267
 1079POPC   GL217270  14.636  19.579   9.153
 1079POPC   C1A17271  14.223  19.907   8.850
 1079POPC   D2A17272  14.326  20.217   8.509
 1079POPC   C3A17273  14.231  20.050   8.091
 1079POPC   C4A17274  14.094  19.937   7.653
 1079POPC   C1B17275  14.728  19.857   8.814
 1079POPC   C2B17276  14.569  19.786   8.403
 1079POPC   C3B17277  14.665  19.812   7.995
 1079POPC   C4B17278  14.954  19.633   7.772
 1080POPC   NC317279   3.451  17.491   9.916
 1080POPC   PO417280   3.280  17.316   9.328
 1080POPC   GL117281   3.472  17.692   9.202
 1080POPC   GL217282   3.223  17.921   9.071
 1080POPC   C1A17283   3.693  17.708   8.812
 1080POPC   D2A17284   3.602  17.557   8.377
 1080POPC   C3A17285   3.797  17.564   7.974
 1080POPC   C4A17286   3.667  17.450   7.543
 1080POPC   C1B17287   3.210  17.705   8.672
 1080POPC   C2B17288   3.097  17.688   8.251
 1080POPC   C3B17289   3.266  17.519   7.895
 1080POPC   C4B17290   3.165  17.573   7.472
 1081POPC   NC317291   0.790   4.057   9.356
 1081POPC   PO417292   0.462   3.493   9.469
 1081POPC   GL117293   0.557   3.353   9.057
 1081POPC   GL217294   0.369   3.618   8.993
 1081POPC   C1A17295   0.785   3.558   8.706
 1081POPC   D2A17296   0.616   3.692   8.336
 1081POPC   C3A17297   0.676   3.463   7.989
 1081POPC   C4A17298   0.438   3.332   7.689
 1081POPC   C1B17299   0.036   3.763   8.793
 1081POPC   C2B17300   0.085   3.897   8.357
 1081POPC   C3B17301   0.252   3.765   7.946
 1081POPC   C4B17302   0.188   3.964   7.543
 1082POPC   NC317303  39.048  23.598   9.906
 1082POPC   PO417304  39.399  23.868   9.445
 1082POPC   GL117305  39.101  23.678   9.183
 1082POPC   GL217306  39.027  23.975   8.953
 1082POPC   C1A17307  39.078  23.522   8.767
 1082POPC   D2A17308  39.256  23.348   8.366
 1082POPC   C3A17309  39.023  23.443   7.945
 1082POPC   C4A17310  38.939  23.519   7.502
 1082POPC   C1B17311  39.325  23.928   8.591
 1082POPC   C2B17312  39.286  23.818   8.152
 1082POPC   C3B17313  39.412  23.726   7.714
 1082POPC   C4B17314  39.533  24.090   7.488
 1083POPC   NC317315  18.857  42.509   9.335
 1083POPC   PO417316  19.161  41.902   9.339
 1083POPC   GL117317  19.139  42.222   9.038
 1083POPC   GL217318  19.325  42.518   9.090
 1083POPC   C1A17319  19.134  42.417   8.632
 1083POPC   D2A17320  19.005  42.198   8.297
 1083POPC   C3A17321  19.134  42.368   7.944
 1083POPC   C4A17322  18.879  42.529   7.643
 1083POPC   C1B17323  19.391  42.847   8.818
 1083POPC   C2B17324  19.553  42.720   8.444
 1083POPC   C3B17325  19.502  42.816   8.017
 1083POPC   C4B17326  19.351  42.708   7.638
 1084POPC   NC317327  14.187  36.008   9.840
 1084POPC   PO417328  14.673  36.263   9.691
 1084POPC   GL117329  14.358  36.239   9.350
 1084POPC   GL217330  14.463  36.552   9.189
 1084POPC   C1A17331  14.207  36.171   8.905
 1084POPC   D2A17332  14.425  36.113   8.485
 1084POPC   C3A17333  14.381  36.161   8.024
 1084POPC   C4A17334  14.696  36.346   7.743
 1084POPC   C1B17335  14.149  36.672   8.882
 1084POPC   C2B17336  14.131  36.561   8.464
 1084POPC   C3B17337  14.448  36.640   8.147
 1084POPC   C4B17338  14.301  36.670   7.734
 1085POPC   NC317339  13.291  27.777   9.400
 1085POPC   PO417340  12.683  27.837   9.523
 1085POPC   GL117341  12.844  27.620   9.146
 1085POPC   GL217342  13.046  27.302   9.199
 1085POPC   C1A17343  12.798  27.517   8.701
 1085POPC   D2A17344  13.062  27.524   8.351
 1085POPC   C3A17345  12.909  27.550   7.953
 1085POPC   C4A17346  12.533  27.614   7.754
 1085POPC   C1B17347  13.285  27.404   8.815
 1085POPC   C2B17348  13.352  27.146   8.446
 1085POPC   C3B17349  13.391  27.335   7.995
 1085POPC   C4B17350  13.340  27.290   7.513
 1086POPC   NC317351   1.490  28.538   9.494
 1086POPC   PO417352   1.013  28.121   9.600
 1086POPC   GL117353   1.040  28.407   9.207
 1086POPC   GL217354   1.348  28.217   9.097
 1086POPC   C1A17355   1.230  28.578   8.780
 1086POPC   D2A17356   1.467  28.286   8.497
 1086POPC   C3A17357   1.354  28.370   8.060
 1086POPC   C4A17358   1.311  28.507   7.618
 1086POPC   C1B17359   1.022  28.094   8.779
 1086POPC   C2B17360   0.960  28.243   8.347
 1086POPC   C3B17361   0.871  28.305   7.879
 1086POPC   C4B17362   0.851  28.364   7.419
 1087POPC   NC317363   7.587  10.619   9.438
 1087POPC   PO417364   6.916  10.665   9.686
 1087POPC   GL117365   6.941  10.508   9.218
 1087POPC   GL217366   7.221  10.667   9.028
 1087POPC   C1A17367   7.036  10.191   8.865
 1087POPC   D2A17368   7.196  10.082   8.426
 1087POPC   C3A17369   7.211  10.390   8.028
 1087POPC   C4A17370   7.166  10.785   7.760
 1087POPC   C1B17371   7.613  10.684   8.750
 1087POPC   C2B17372   7.846  10.685   8.350
 1087POPC   C3B17373   7.676  10.635   7.923
 1087POPC   C4B17374   7.604  10.224   7.703
 1088POPC   NC317375  17.598  19.773   9.572
 1088POPC   PO417376  17.111  19.298   9.610
 1088POPC   GL117377  17.191  19.574   9.238
 1088POPC   GL217378  17.183  19.939   9.162
 1088POPC   C1A17379  17.473  19.620   8.863
 1088POPC   D2A17380  17.422  19.536   8.392
 1088POPC   C3A17381  17.189  19.708   8.025
 1088POPC   C4A17382  17.412  19.978   7.729
 1088POPC   C1B17383  17.248  20.039   8.695
 1088POPC   C2B17384  17.415  20.113   8.257
 1088POPC   C3B17385  17.626  20.385   7.924
 1088POPC   C4B17386  17.461  20.547   7.516
 1089POPC   NC317387  31.115  32.168   9.476
 1089POPC   PO417388  31.771  32.403   9.472
 1089POPC   GL117389  31.454  32.291   9.113
 1089POPC   GL217390  31.263  31.958   9.041
 1089POPC   C1A17391  31.171  32.413   8.769
 1089POPC   D2A17392  31.195  32.641   8.417
 1089POPC   C3A17393  31.617  32.550   8.233
 1089POPC   C4A17394  31.748  32.262   7.888
 1089POPC   C1B17395  31.094  31.921   8.618
 1089POPC   C2B17396  31.251  32.140   8.237
 1089POPC   C3B17397  31.087  32.142   7.806
 1089POPC   C4B17398  31.056  31.983   7.355
 1090POPC   NC317399  36.520  43.896   9.645
 1090POPC   PO417400  37.240  43.929   9.620
 1090POPC   GL117401  37.012  43.842   9.264
 1090POPC   GL217402  36.738  44.105   9.223
 1090POPC   C1A17403  37.146  43.676   8.865
 1090POPC   D2A17404  36.856  43.767   8.543
 1090POPC   C3A17405  36.872  43.711   8.128
 1090POPC   C4A17406  36.990  43.824   7.748
 1090POPC   C1B17407  36.514  44.011   8.844
 1090POPC   C2B17408  36.398  43.987   8.402
 1090POPC   C3B17409  36.661  44.193   8.114
 1090POPC   C4B17410  36.700  44.254   7.683
 1091POPC   NC317411   2.730  27.339   9.518
 1091POPC   PO417412   2.618  26.690   9.793
 1091POPC   GL117413   2.836  26.864   9.324
 1091POPC   GL217414   3.093  27.077   9.300
 1091POPC   C1A17415   2.783  26.872   8.801
 1091POPC   D2A17416   2.429  26.799   8.446
 1091POPC   C3A17417   2.443  26.887   7.991
 1091POPC   C4A17418   2.826  26.770   7.784
 1091POPC   C1B17419   3.210  27.159   8.892
 1091POPC   C2B17420   2.999  27.248   8.538
 1091POPC   C3B17421   2.930  26.911   8.277
 1091POPC   C4B17422   3.244  26.937   7.979
 1092POPC   NC317423   4.887  39.281   9.402
 1092POPC   PO417424   5.312  39.747   9.288
 1092POPC   GL117425   5.231  39.390   9.031
 1092POPC   GL217426   5.305  39.047   9.164
 1092POPC   C1A17427   4.968  39.151   8.744
 1092POPC   D2A17428   4.727  39.065   8.399
 1092POPC   C3A17429   4.902  39.149   8.028
 1092POPC   C4A17430   4.966  38.991   7.640
 1092POPC   C1B17431   5.481  39.083   8.727
 1092POPC   C2B17432   5.350  39.113   8.266
 1092POPC   C3B17433   5.428  39.094   7.798
 1092POPC   C4B17434   5.391  38.820   7.402
 1093POPC   NC317435  22.499  11.854   9.564
 1093POPC   PO417436  21.999  12.355   9.532
 1093POPC   GL117437  22.240  12.216   9.187
 1093POPC   GL217438  22.123  11.891   9.198
 1093POPC   C1A17439  22.333  12.381   8.751
 1093POPC   D2A17440  22.085  12.433   8.363
 1093POPC   C3A17441  22.130  12.050   8.129
 1093POPC   C4A17442  22.408  12.067   7.782
 1093POPC   C1B17443  21.989  12.006   8.740
 1093POPC   C2B17444  21.650  12.108   8.411
 1093POPC   C3B17445  21.604  12.068   7.956
 1093POPC   C4B17446  21.912  11.914   7.664
 1094POPC   NC317447  42.474  43.598   9.552
 1094POPC   PO417448  42.841  44.257   9.583
 1094POPC   GL117449  42.682  44.095   9.196
 1094POPC   GL217450  42.335  43.969   9.175
 1094POPC   C1A17451  42.641  43.914   8.785
 1094POPC   D2A17452  42.593  43.631   8.452
 1094POPC   C3A17453  42.565  43.861   8.079
 1094POPC   C4A17454  42.425  43.734   7.672
 1094POPC   C1B17455  42.152  43.745   8.817
 1094POPC   C2B17456  42.001  43.780   8.391
 1094POPC   C3B17457  41.993  43.802   7.956
 1094POPC   C4B17458  41.958  43.948   7.554
 1095POPC   NC317459  13.042  23.713   9.510
 1095POPC   PO417460  13.657  23.946   9.410
 1095POPC   GL117461  13.591  23.720   9.065
 1095POPC   GL217462  13.238  23.690   9.054
 1095POPC   C1A17463  13.522  23.857   8.653
 1095POPC   D2A17464  13.560  24.115   8.311
 1095POPC   C3A17465  13.582  23.862   7.966
 1095POPC   C4A17466  13.885  23.934   7.706
 1095POPC   C1B17467  13.069  23.607   8.667
 1095POPC   C2B17468  13.234  23.568   8.276
 1095POPC   C3B17469  13.125  23.641   7.871
 1095POPC   C4B17470  13.372  23.601   7.519
 1096POPC   NC317471   2.959  34.160   9.321
 1096POPC   PO417472   3.337  34.502   9.742
 1096POPC   GL117473   3.342  34.565   9.273
 1096POPC   GL217474   3.448  34.246   9.148
 1096POPC   C1A17475   3.448  34.764   8.842
 1096POPC   D2A17476   3.720  34.737   8.451
 1096POPC   C3A17477   3.589  34.722   7.998
 1096POPC   C4A17478   3.670  34.287   7.830
 1096POPC   C1B17479   3.577  34.267   8.706
 1096POPC   C2B17480   3.387  34.340   8.291
 1096POPC   C3B17481   3.169  34.237   7.910
 1096POPC   C4B17482   3.139  34.256   7.465
 1097POPC   NC317483  34.208  15.608   9.357
 1097POPC   PO417484  34.436  16.227   9.645
 1097POPC   GL117485  34.585  15.943   9.224
 1097POPC   GL217486  34.908  15.948   9.070
 1097POPC   C1A17487  34.499  15.987   8.768
 1097POPC   D2A17488  34.623  15.833   8.380
 1097POPC   C3A17489  34.429  16.013   8.048
 1097POPC   C4A17490  34.444  16.150   7.620
 1097POPC   C1B17491  34.948  16.241   8.668
 1097POPC   C2B17492  34.918  16.248   8.194
 1097POPC   C3B17493  34.902  15.936   7.863
 1097POPC   C4B17494  34.944  15.920   7.415
 1098POPC   NC317495   8.400   7.407   9.433
 1098POPC   PO417496   8.998   7.088   9.255
 1098POPC   GL117497   8.688   7.423   9.011
 1098POPC   GL217498   8.438   7.766   9.090
 1098POPC   C1A17499   8.272   7.410   8.774
 1098POPC   D2A17500   8.127   7.168   8.409
 1098POPC   C3A17501   7.952   7.272   8.016
 1098POPC   C4A17502   7.953   7.509   7.643
 1098POPC   C1B17503   8.576   7.849   8.712
 1098POPC   C2B17504   8.313   7.809   8.388
 1098POPC   C3B17505   8.327   7.635   7.992
 1098POPC   C4B17506   8.367   7.760   7.577
 1099POPC   NC317507  44.434  40.213   9.506
 1099POPC   PO417508  44.829  39.726   9.427
 1099POPC   GL117509  44.768  40.022   9.153
 1099POPC   GL217510  44.443  40.055   9.020
 1099POPC   C1A17511  44.858  40.271   8.831
 1099POPC   D2A17512  44.521  40.178   8.509
 1099POPC   C3A17513  44.639  40.114   8.098
 1099POPC   C4A17514  44.454  40.209   7.705
 1099POPC   C1B17515  44.702  39.758   8.724
 1099POPC   C2B17516  44.945  39.651   8.356
 1099POPC   C3B17517  44.780  39.626   7.951
 1099POPC   C4B17518  44.716  39.792   7.562
 1100POPC   NC317519   5.129  19.056   9.840
 1100POPC   PO417520   5.570  18.923   9.412
 1100POPC   GL117521   5.212  19.177   9.186
 1100POPC   GL217522   4.897  19.367   9.083
 1100POPC   C1A17523   5.141  19.161   8.701
 1100POPC   D2A17524   4.893  18.872   8.449
 1100POPC   C3A17525   4.971  18.801   8.069
 1100POPC   C4A17526   5.082  18.993   7.710
 1100POPC   C1B17527   4.754  19.589   8.710
 1100POPC   C2B17528   4.837  19.385   8.302
 1100POPC   C3B17529   4.744  19.378   7.859
 1100POPC   C4B17530   4.947  19.413   7.458
 1101POPC   NC317531  37.241  15.298   9.444
 1101POPC   PO417532  36.602  14.884   9.494
 1101POPC   GL117533  36.653  15.198   9.213
 1101POPC   GL217534  36.934  15.072   9.075
 1101POPC   C1A17535  36.586  15.306   8.779
 1101POPC   D2A17536  36.550  15.149   8.360
 1101POPC   C3A17537  36.711  15.470   8.095
 1101POPC   C4A17538  36.893  15.482   7.710
 1101POPC   C1B17539  37.090  15.381   8.792
 1101POPC   C2B17540  37.116  15.310   8.362
 1101POPC   C3B17541  37.134  15.095   7.972
 1101POPC   C4B17542  37.308  15.211   7.597
 1102POPC   NC317543  27.324  25.848   9.441
 1102POPC   PO417544  27.966  25.994   9.591
 1102POPC   GL117545  27.775  26.196   9.222
 1102POPC   GL217546  27.655  25.910   9.074
 1102POPC   C1A17547  27.715  26.300   8.760
 1102POPC   D2A17548  27.830  26.116   8.335
 1102POPC   C3A17549  27.527  25.952   8.047
 1102POPC   C4A17550  27.519  26.081   7.626
 1102POPC   C1B17551  27.818  25.750   8.726
 1102POPC   C2B17552  27.757  25.448   8.429
 1102POPC   C3B17553  27.926  25.617   8.098
 1102POPC   C4B17554  27.970  25.896   7.782
 1103POPC   NC317555  37.360  41.159   9.459
 1103POPC   PO417556  37.723  40.609   9.599
 1103POPC   GL117557  37.917  40.823   9.274
 1103POPC   GL217558  37.568  40.811   9.160
 1103POPC   C1A17559  37.947  40.888   8.829
 1103POPC   D2A17560  37.798  40.618   8.453
 1103POPC   C3A17561  37.703  40.755   8.032
 1103POPC   C4A17562  37.845  40.778   7.584
 1103POPC   C1B17563  37.432  40.719   8.779
 1103POPC   C2B17564  37.400  40.948   8.412
 1103POPC   C3B17565  37.229  40.903   8.004
 1103POPC   C4B17566  37.340  40.515   7.722
 1104POPC   NC317567  30.449  30.409   9.481
 1104POPC   PO417568  30.919  30.873   9.522
 1104POPC   GL117569  30.749  30.734   9.180
 1104POPC   GL217570  30.404  30.817   9.193
 1104POPC   C1A17571  30.771  30.805   8.761
 1104POPC   D2A17572  30.671  30.607   8.388
 1104POPC   C3A17573  30.774  30.782   7.983
 1104POPC   C4A17574  30.806  30.698   7.532
 1104POPC   C1B17575  30.255  30.643   8.820
 1104POPC   C2B17576  30.164  30.756   8.413
 1104POPC   C3B17577  30.307  30.580   8.015
 1104POPC   C4B17578  30.424  30.362   7.616
 1105POPC   NC317579  12.871  41.746   9.773
 1105POPC   PO417580  12.459  41.320   9.385
 1105POPC   GL117581  12.711  41.263   9.049
 1105POPC   GL217582  12.968  41.530   8.952
 1105POPC   C1A17583  12.586  41.458   8.657
 1105POPC   D2A17584  12.927  41.601   8.429
 1105POPC   C3A17585  12.891  41.492   8.050
 1105POPC   C4A17586  12.655  41.725   7.816
 1105POPC   C1B17587  13.356  41.512   8.679
 1105POPC   C2B17588  13.435  41.498   8.280
 1105POPC   C3B17589  13.330  41.741   7.974
 1105POPC   C4B17590  13.124  41.685   7.600
 1106POPC   NC317591  36.530   0.936   9.550
 1106POPC   PO417592  36.899   1.510   9.510
 1106POPC   GL117593  37.040   1.141   9.220
 1106POPC   GL217594  36.758   0.910   9.110
 1106POPC   C1A17595  37.153   0.925   8.791
 1106POPC   D2A17596  37.349   1.007   8.355
 1106POPC   C3A17597  37.145   1.140   7.954
 1106POPC   C4A17598  36.927   1.490   7.666
 1106POPC   C1B17599  36.553   1.047   8.740
 1106POPC   C2B17600  36.699   1.130   8.317
 1106POPC   C3B17601  36.656   1.113   7.885
 1106POPC   C4B17602  36.859   1.049   7.438
 1107POPC   NC317603  34.505  19.566   9.596
 1107POPC   PO417604  34.969  20.059   9.395
 1107POPC   GL117605  34.763  19.795   9.183
 1107POPC   GL217606  34.411  19.828   9.163
 1107POPC   C1A17607  34.715  19.615   8.803
 1107POPC   D2A17608  34.721  19.469   8.423
 1107POPC   C3A17609  34.666  19.770   8.129
 1107POPC   C4A17610  34.732  19.706   7.711
 1107POPC   C1B17611  34.269  19.894   8.721
 1107POPC   C2B17612  34.078  19.971   8.289
 1107POPC   C3B17613  34.229  19.780   7.859
 1107POPC   C4B17614  34.427  20.033   7.478
 1108POPC   NC317615  19.050  32.294   9.425
 1108POPC   PO417616  18.613  31.779   9.332
 1108POPC   GL117617  18.859  32.077   9.001
 1108POPC   GL217618  18.834  32.483   8.996
 1108POPC   C1A17619  19.005  32.221   8.563
 1108POPC   D2A17620  18.904  32.631   8.317
 1108POPC   C3A17621  18.862  32.530   7.886
 1108POPC   C4A17622  19.063  32.121   7.919
 1108POPC   C1B17623  19.218  32.623   8.767
 1108POPC   C2B17624  19.417  32.546   8.353
 1108POPC   C3B17625  19.381  32.538   7.894
 1108POPC   C4B17626  19.445  32.611   7.415
 1109POPC   NC317627   9.655  37.250   9.633
 1109POPC   PO417628   9.816  37.861   9.449
 1109POPC   GL117629   9.790  37.486   9.190
 1109POPC   GL217630  10.091  37.298   9.309
 1109POPC   C1A17631   9.682  37.508   8.739
 1109POPC   D2A17632   9.602  37.939   8.521
 1109POPC   C3A17633   9.523  37.941   8.078
 1109POPC   C4A17634   9.644  37.704   7.730
 1109POPC   C1B17635  10.198  37.448   8.887
 1109POPC   C2B17636  10.103  37.367   8.467
 1109POPC   C3B17637  10.071  37.447   8.031
 1109POPC   C4B17638   9.884  37.270   7.677
 1110POPC   NC317639  42.772  39.142   9.819
 1110POPC   PO417640  43.280  39.332   9.504
 1110POPC   GL117641  43.248  39.150   9.122
 1110POPC   GL217642  42.898  39.092   9.050
 1110POPC   C1A17643  43.252  39.317   8.708
 1110POPC   D2A17644  43.041  39.262   8.321
 1110POPC   C3A17645  43.324  39.321   8.008
 1110POPC   C4A17646  43.401  39.092   7.660
 1110POPC   C1B17647  43.076  38.830   8.680
 1110POPC   C2B17648  42.909  38.771   8.248
 1110POPC   C3B17649  42.908  39.004   7.862
 1110POPC   C4B17650  43.009  38.921   7.388
 1111POPC   NC317651  17.595  30.938   9.608
 1111POPC   PO417652  17.686  30.423   9.263
 1111POPC   GL117653  17.557  30.486   8.893
 1111POPC   GL217654  17.342  30.225   8.879
 1111POPC   C1A17655  17.618  30.695   8.487
 1111POPC   D2A17656  17.320  30.789   8.153
 1111POPC   C3A17657  17.394  30.978   7.768
 1111POPC   C4A17658  17.339  30.819   7.364
 1111POPC   C1B17659  17.607  30.186   8.485
 1111POPC   C2B17660  17.553  30.351   8.077
 1111POPC   C3B17661  17.351  30.425   7.708
 1111POPC   C4B17662  17.541  30.347   7.310
 1112POPC   NC317663  33.199   9.537   9.496
 1112POPC   PO417664  33.545   9.016   9.467
 1112POPC   GL117665  33.800   8.973   9.121
 1112POPC   GL217666  34.073   9.199   9.068
 1112POPC   C1A17667  33.753   8.751   8.758
 1112POPC   D2A17668  33.865   8.724   8.350
 1112POPC   C3A17669  33.774   8.871   7.976
 1112POPC   C4A17670  33.703   8.702   7.564
 1112POPC   C1B17671  34.176   9.042   8.667
 1112POPC   C2B17672  34.078   9.172   8.261
 1112POPC   C3B17673  34.255   8.991   7.901
 1112POPC   C4B17674  34.181   8.855   7.466
 1113POPC   NC317675   0.393  20.880   9.477
 1113POPC   PO417676  44.992  20.374   9.442
 1113POPC   GL117677   0.299  20.396   9.132
 1113POPC   GL217678   0.617  20.292   9.237
 1113POPC   C1A17679   0.449  20.669   8.842
 1113POPC   D2A17680   0.365  20.896   8.469
 1113POPC   C3A17681   0.540  20.737   8.091
 1113POPC   C4A17682   0.365  20.525   7.719
 1113POPC   C1B17683   0.683  20.195   8.785
 1113POPC   C2B17684   0.544  20.309   8.363
 1113POPC   C3B17685   0.718  20.237   7.912
 1113POPC   C4B17686   0.644  20.217   7.428
 1114POPC   NC317687  22.856  32.078   9.827
 1114POPC   PO417688  22.832  32.712   9.703
 1114POPC   GL117689  23.031  32.407   9.348
 1114POPC   GL217690  23.226  32.575   9.161
 1114POPC   C1A17691  22.963  32.094   8.971
 1114POPC   D2A17692  23.153  32.102   8.549
 1114POPC   C3A17693  22.998  32.148   8.135
 1114POPC   C4A17694  23.082  32.176   7.680
 1114POPC   C1B17695  22.886  32.560   8.819
 1114POPC   C2B17696  22.658  32.397   8.424
 1114POPC   C3B17697  22.548  32.320   7.954
 1114POPC   C4B17698  22.611  32.191   7.486
 1115POPC   NC317699  21.514   3.384   9.424
 1115POPC   PO417700  21.034   3.774   9.477
 1115POPC   GL117701  21.115   3.435   9.118
 1115POPC   GL217702  21.350   3.599   8.998
 1115POPC   C1A17703  21.110   3.267   8.680
 1115POPC   D2A17704  21.216   3.533   8.330
 1115POPC   C3A17705  21.030   3.514   7.937
 1115POPC   C4A17706  21.363   3.565   7.640
 1115POPC   C1B17707  21.602   3.536   8.659
 1115POPC   C2B17708  21.816   3.788   8.393
 1115POPC   C3B17709  21.790   3.679   7.983
 1115POPC   C4B17710  21.724   3.924   7.684
 1116POPC   NC317711  36.405  44.848   9.928
 1116POPC   PO417712  36.181  44.234   9.645
 1116POPC   GL117713  36.203  44.257   9.181
 1116POPC   GL217714  35.919  44.443   9.065
 1116POPC   C1A17715  36.338  44.483   8.747
 1116POPC   D2A17716  36.240  44.902   8.505
 1116POPC   C3A17717  36.261  44.948   8.023
 1116POPC   C4A17718  36.284  44.562   7.736
 1116POPC   C1B17719  35.845  44.599   8.663
 1116POPC   C2B17720  35.961  44.584   8.218
 1116POPC   C3B17721  35.774  44.506   7.815
 1116POPC   C4B17722  35.893  44.482   7.379
 1117POPC   NC317723  13.849  14.694   9.580
 1117POPC   PO417724  13.605  14.078   9.465
 1117POPC   GL117725  13.650  14.373   9.141
 1117POPC   GL217726  13.989  14.439   9.168
 1117POPC   C1A17727  13.647  14.279   8.682
 1117POPC   D2A17728  13.365  14.472   8.355
 1117POPC   C3A17729  13.451  14.462   7.926
 1117POPC   C4A17730  13.610  14.069   7.800
 1117POPC   C1B17731  14.018  14.640   8.785
 1117POPC   C2B17732  13.855  14.640   8.363
 1117POPC   C3B17733  13.955  14.438   7.971
 1117POPC   C4B17734  14.106  14.736   7.639
 1118POPC   NC317735  36.226  33.996   9.720
 1118POPC   PO417736  35.823  33.515   9.607
 1118POPC   GL117737  36.216  33.687   9.311
 1118POPC   GL217738  36.281  34.052   9.212
 1118POPC   C1A17739  36.280  33.677   8.833
 1118POPC   D2A17740  35.986  33.777   8.451
 1118POPC   C3A17741  36.103  33.692   7.993
 1118POPC   C4A17742  36.376  33.396   7.727
 1118POPC   C1B17743  36.064  34.149   8.825
 1118POPC   C2B17744  36.272  34.223   8.439
 1118POPC   C3B17745  36.330  34.132   8.000
 1118POPC   C4B17746  36.416  34.210   7.612
 1119POPC   NC317747  11.419  23.562   9.840
 1119POPC   PO417748  11.038  23.889   9.422
 1119POPC   GL117749  11.200  23.593   9.173
 1119POPC   GL217750  11.504  23.574   9.310
 1119POPC   C1A17751  11.171  23.590   8.744
 1119POPC   D2A17752  11.316  23.864   8.478
 1119POPC   C3A17753  11.098  23.782   8.107
 1119POPC   C4A17754  11.301  23.831   7.725
 1119POPC   C1B17755  11.644  23.644   8.884
 1119POPC   C2B17756  11.744  23.514   8.507
 1119POPC   C3B17757  11.608  23.625   8.114
 1119POPC   C4B17758  11.578  23.406   7.730
 1120POPC   NC317759  38.846  16.410   9.438
 1120POPC   PO417760  38.319  16.695   9.351
 1120POPC   GL117761  38.638  16.818   9.093
 1120POPC   GL217762  38.685  16.504   8.969
 1120POPC   C1A17763  38.556  16.931   8.717
 1120POPC   D2A17764  38.501  16.646   8.441
 1120POPC   C3A17765  38.524  16.891   8.107
 1120POPC   C4A17766  38.513  16.625   7.791
 1120POPC   C1B17767  38.276  16.329   8.823
 1120POPC   C2B17768  38.057  16.341   8.436
 1120POPC   C3B17769  38.154  16.285   7.988
 1120POPC   C4B17770  38.072  16.509   7.578
 1121POPC   NC317771  20.217  16.136   9.403
 1121POPC   PO417772  19.561  16.176   9.435
 1121POPC   GL117773  19.833  15.885   9.165
 1121POPC   GL217774  19.652  15.611   8.998
 1121POPC   C1A17775  20.180  15.677   8.853
 1121POPC   D2A17776  20.289  15.559   8.384
 1121POPC   C3A17777  20.040  15.765   8.044
 1121POPC   C4A17778  19.999  16.178   7.855
 1121POPC   C1B17779  19.799  15.998   8.691
 1121POPC   C2B17780  19.847  16.308   8.364
 1121POPC   C3B17781  19.538  16.209   8.049
 1121POPC   C4B17782  19.566  15.976   7.663
 1122POPC   NC317783  21.820  43.316   9.835
 1122POPC   PO417784  21.228  43.346   9.501
 1122POPC   GL117785  21.275  43.133   9.102
 1122POPC   GL217786  21.523  43.340   9.002
 1122POPC   C1A17787  21.171  43.286   8.638
 1122POPC   D2A17788  21.057  43.531   8.264
 1122POPC   C3A17789  21.062  43.317   7.867
 1122POPC   C4A17790  21.326  42.967   7.805
 1122POPC   C1B17791  21.667  43.125   8.620
 1122POPC   C2B17792  21.671  43.119   8.160
 1122POPC   C3B17793  21.593  43.401   7.775
 1122POPC   C4B17794  21.751  43.513   7.337
 1123POPC   NC317795   6.445   7.954   9.459
 1123POPC   PO417796   6.900   8.451   9.553
 1123POPC   GL117797   6.676   8.287   9.156
 1123POPC   GL217798   6.638   7.915   9.002
 1123POPC   C1A17799   6.458   8.358   8.773
 1123POPC   D2A17800   6.245   8.244   8.375
 1123POPC   C3A17801   6.507   8.103   8.084
 1123POPC   C4A17802   6.648   8.101   7.691
 1123POPC   C1B17803   6.379   7.609   8.775
 1123POPC   C2B17804   6.076   7.632   8.448
 1123POPC   C3B17805   6.084   7.820   8.090
 1123POPC   C4B17806   6.298   7.761   7.739
 1124POPC   NC317807  39.861  13.327   9.347
 1124POPC   PO417808  40.262  13.906   9.507
 1124POPC   GL117809  40.082  13.746   9.136
 1124POPC   GL217810  39.728  13.808   9.176
 1124POPC   C1A17811  40.230  13.505   8.734
 1124POPC   D2A17812  40.465  13.617   8.319
 1124POPC   C3A17813  40.299  13.435   7.951
 1124POPC   C4A17814  39.850  13.476   7.831
 1124POPC   C1B17815  39.748  13.652   8.754
 1124POPC   C2B17816  39.937  13.666   8.335
 1124POPC   C3B17817  39.712  13.933   8.055
 1124POPC   C4B17818  39.516  13.945   7.665
 1125POPC   NC317819  12.002  12.307   9.503
 1125POPC   PO417820  12.335  11.722   9.582
 1125POPC   GL117821  12.303  12.004   9.197
 1125POPC   GL217822  11.958  12.039   9.091
 1125POPC   C1A17823  12.285  12.187   8.748
 1125POPC   D2A17824  12.235  11.962   8.385
 1125POPC   C3A17825  12.195  12.085   7.959
 1125POPC   C4A17826  12.003  11.810   7.633
 1125POPC   C1B17827  11.756  12.327   8.871
 1125POPC   C2B17828  11.835  12.291   8.465
 1125POPC   C3B17829  11.613  12.251   8.119
 1125POPC   C4B17830  11.772  12.254   7.754
 1126POPC   NC317831  27.482   6.776   9.473
 1126POPC   PO417832  28.124   6.457   9.370
 1126POPC   GL117833  27.750   6.604   9.079
 1126POPC   GL217834  27.364   6.441   9.116
 1126POPC   C1A17835  27.622   6.599   8.662
 1126POPC   D2A17836  27.374   6.758   8.349
 1126POPC   C3A17837  27.590   6.794   7.953
 1126POPC   C4A17838  27.524   6.860   7.537
 1126POPC   C1B17839  27.399   6.154   8.796
 1126POPC   C2B17840  27.552   6.147   8.406
 1126POPC   C3B17841  27.422   6.325   8.046
 1126POPC   C4B17842  27.548   6.376   7.653
 1127POPC   NC317843  22.424   6.298   9.463
 1127POPC   PO417844  22.396   7.080   9.432
 1127POPC   GL117845  22.200   6.791   9.091
 1127POPC   GL217846  22.253   6.407   9.008
 1127POPC   C1A17847  22.155   6.741   8.629
 1127POPC   D2A17848  22.447   6.772   8.292
 1127POPC   C3A17849  22.390   6.914   7.881
 1127POPC   C4A17850  21.954   7.021   7.937
 1127POPC   C1B17851  22.004   6.170   8.706
 1127POPC   C2B17852  21.912   6.377   8.303
 1127POPC   C3B17853  22.099   6.504   7.944
 1127POPC   C4B17854  22.263   6.262   7.633
 1128POPC   NC317855   9.213  42.179   9.475
 1128POPC   PO417856   8.622  42.532   9.318
 1128POPC   GL117857   8.981  42.488   9.133
 1128POPC   GL217858   8.847  42.185   9.001
 1128POPC   C1A17859   9.145  42.631   8.756
 1128POPC   D2A17860   8.961  42.436   8.402
 1128POPC   C3A17861   8.971  42.609   8.003
 1128POPC   C4A17862   8.840  42.381   7.628
 1128POPC   C1B17863   9.187  42.118   8.754
 1128POPC   C2B17864   9.368  42.074   8.344
 1128POPC   C3B17865   9.181  42.131   7.962
 1128POPC   C4B17866   9.277  42.102   7.550
 1129POPC   NC317867  18.973   3.683   9.510
 1129POPC   PO417868  19.249   4.370   9.552
 1129POPC   GL117869  19.022   4.276   9.220
 1129POPC   GL217870  19.199   3.981   9.135
 1129POPC   C1A17871  19.001   4.564   8.909
 1129POPC   D2A17872  19.054   4.566   8.486
 1129POPC   C3A17873  18.858   4.409   8.139
 1129POPC   C4A17874  18.850   4.663   7.781
 1129POPC   C1B17875  19.096   4.100   8.691
 1129POPC   C2B17876  19.320   4.200   8.275
 1129POPC   C3B17877  19.176   4.065   7.897
 1129POPC   C4B17878  18.763   4.019   7.773
 1130POPC   NC317879  31.087  22.743   9.231
 1130POPC   PO417880  31.578  23.041   9.612
 1130POPC   GL117881  31.703  22.969   9.159
 1130POPC   GL217882  31.734  22.617   9.051
 1130POPC   C1A17883  31.884  23.013   8.749
 1130POPC   D2A17884  31.696  23.090   8.339
 1130POPC   C3A17885  31.690  22.822   8.007
 1130POPC   C4A17886  31.812  22.876   7.607
 1130POPC   C1B17887  31.458  22.737   8.701
 1130POPC   C2B17888  31.262  22.793   8.319
 1130POPC   C3B17889  31.225  22.603   7.932
 1130POPC   C4B17890  31.413  22.513   7.541
 1131POPC   NC317891  18.891  43.352   9.457
 1131POPC   PO417892  19.247  42.721   9.523
 1131POPC   GL117893  18.998  42.953   9.158
 1131POPC   GL217894  18.612  42.894   9.115
 1131POPC   C1A17895  18.920  43.073   8.725
 1131POPC   D2A17896  19.150  43.029   8.338
 1131POPC   C3A17897  18.984  42.998   7.914
 1131POPC   C4A17898  19.102  43.132   7.508
 1131POPC   C1B17899  18.647  42.646   8.728
 1131POPC   C2B17900  18.769  42.686   8.288
 1131POPC   C3B17901  18.520  42.745   7.910
 1131POPC   C4B17902  18.614  42.910   7.466
 1132POPC   NC317903   1.185  13.936   9.584
 1132POPC   PO417904   0.694  14.070   9.191
 1132POPC   GL117905   1.096  13.817   9.092
 1132POPC   GL217906   1.133  13.440   9.228
 1132POPC   C1A17907   1.298  13.846   8.685
 1132POPC   D2A17908   1.033  13.611   8.369
 1132POPC   C3A17909   1.100  13.770   7.968
 1132POPC   C4A17910   1.455  13.820   7.747
 1132POPC   C1B17911   1.218  13.364   8.806
 1132POPC   C2B17912   1.508  13.425   8.446
 1132POPC   C3B17913   1.456  13.373   8.006
 1132POPC   C4B17914   1.073  13.309   7.757
 1133POPC   NC317915  32.964   6.291   9.517
 1133POPC   PO417916  33.498   6.718   9.566
 1133POPC   GL117917  33.248   6.628   9.248
 1133POPC   GL217918  33.388   6.338   9.120
 1133POPC   C1A17919  33.001   6.626   8.856
 1133POPC   D2A17920  32.948   6.509   8.408
 1133POPC   C3A17921  32.894   6.869   8.126
 1133POPC   C4A17922  32.873   6.991   7.708
 1133POPC   C1B17923  33.497   6.767   8.840
 1133POPC   C2B17924  33.436   6.890   8.447
 1133POPC   C3B17925  33.353   6.640   8.120
 1133POPC   C4B17926  33.379   6.735   7.710
 1134POPC   NC317927  42.627  18.802   9.432
 1134POPC   PO417928  42.213  19.282   9.517
 1134POPC   GL117929  42.278  19.055   9.140
 1134POPC   GL217930  42.148  18.759   9.121
 1134POPC   C1A17931  42.350  19.167   8.708
 1134POPC   D2A17932  42.135  19.222   8.325
 1134POPC   C3A17933  42.260  19.072   7.897
 1134POPC   C4A17934  42.346  19.298   7.452
 1134POPC   C1B17935  42.481  18.679   8.793
 1134POPC   C2B17936  42.466  18.806   8.340
 1134POPC   C3B17937  42.698  18.817   7.955
 1134POPC   C4B17938  42.608  18.880   7.552
 1135POPC   NC317939   8.767  43.294   9.607
 1135POPC   PO417940   8.862  43.993   9.620
 1135POPC   GL117941   8.780  43.703   9.289
 1135POPC   GL217942   9.067  43.813   9.119
 1135POPC   C1A17943   8.754  43.586   8.818
 1135POPC   D2A17944   8.999  43.823   8.508
 1135POPC   C3A17945   8.911  43.823   8.096
 1135POPC   C4A17946   8.664  43.869   7.747
 1135POPC   C1B17947   9.334  43.636   8.827
 1135POPC   C2B17948   9.439  43.571   8.389
 1135POPC   C3B17949   9.256  43.416   8.023
 1135POPC   C4B17950   9.001  43.513   7.677
 1136POPC   NC317951  12.795  20.999   9.447
 1136POPC   PO417952  12.720  20.337   9.354
 1136POPC   GL117953  12.903  20.677   9.088
 1136POPC   GL217954  13.207  20.920   9.166
 1136POPC   C1A17955  12.734  20.863   8.722
 1136POPC   D2A17956  12.638  20.565   8.404
 1136POPC   C3A17957  12.752  20.513   7.952
 1136POPC   C4A17958  12.596  20.203   7.665
 1136POPC   C1B17959  13.247  20.735   8.735
 1136POPC   C2B17960  13.074  20.834   8.336
 1136POPC   C3B17961  13.201  20.764   7.945
 1136POPC   C4B17962  12.940  20.921   7.663
 1137POPC   NC317963  12.704  38.306   9.439
 1137POPC   PO417964  13.286  38.560   9.354
 1137POPC   GL117965  13.135  38.464   9.004
 1137POPC   GL217966  12.847  38.598   9.050
 1137POPC   C1A17967  13.162  38.476   8.554
 1137POPC   D2A17968  13.319  38.780   8.256
 1137POPC   C3A17969  13.102  38.726   7.859
 1137POPC   C4A17970  12.804  38.423   7.870
 1137POPC   C1B17971  12.863  38.860   8.729
 1137POPC   C2B17972  12.808  38.775   8.321
 1137POPC   C3B17973  12.486  38.726   8.094
 1137POPC   C4B17974  12.609  38.838   7.681
 1138POPC   NC317975   9.708  40.600   9.369
 1138POPC   PO417976   9.611  41.235   9.538
 1138POPC   GL117977   9.740  41.053   9.149
 1138POPC   GL217978  10.064  40.986   9.104
 1138POPC   C1A17979   9.663  40.853   8.760
 1138POPC   D2A17980   9.592  40.798   8.336
 1138POPC   C3A17981   9.860  40.520   8.105
 1138POPC   C4A17982   9.784  40.539   7.699
 1138POPC   C1B17983  10.175  40.836   8.689
 1138POPC   C2B17984  10.125  40.915   8.243
 1138POPC   C3B17985   9.833  41.013   7.908
 1138POPC   C4B17986   9.951  41.034   7.489
 1139POPC   NC317987  38.748  19.685   9.454
 1139POPC   PO417988  38.069  19.767   9.523
 1139POPC   GL117989  38.370  19.978   9.234
 1139POPC   GL217990  38.481  20.333   9.293
 1139POPC   C1A17991  38.492  19.799   8.831
 1139POPC   D2A17992  38.295  19.665   8.452
 1139POPC   C3A17993  38.603  19.598   8.138
 1139POPC   C4A17994  38.505  19.669   7.733
 1139POPC   C1B17995  38.577  20.308   8.834
 1139POPC   C2B17996  38.374  20.166   8.448
 1139POPC   C3B17997  38.292  20.124   7.995
 1139POPC   C4B17998  38.576  20.158   7.635
 1140POPC   NC317999  39.699  26.657   9.451
 1140POPC   PO418000  40.330  26.776   9.431
 1140POPC   GL118001  40.138  26.993   9.148
 1140POPC   GL218002  40.428  27.105   9.006
 1140POPC   C1A18003  40.011  26.885   8.742
 1140POPC   D2A18004  40.065  27.024   8.330
 1140POPC   C3A18005  39.937  26.771   7.972
 1140POPC   C4A18006  39.763  26.977   7.609
 1140POPC   C1B18007  40.499  26.698   8.804
 1140POPC   C2B18008  40.363  26.628   8.404
 1140POPC   C3B18009  40.440  26.842   8.023
 1140POPC   C4B18010  40.279  26.908   7.571
 1141POPC   NC318011   1.023  44.977   9.405
 1141POPC   PO418012   1.432  44.545   9.679
 1141POPC   GL118013   1.484  44.581   9.211
 1141POPC   GL218014   1.201  44.398   9.094
 1141POPC   C1A18015   1.359  44.827   8.808
 1141POPC   D2A18016   1.232  44.927   8.354
 1141POPC   C3A18017   1.378  44.627   8.012
 1141POPC   C4A18018   1.432  44.621   7.563
 1141POPC   C1B18019   0.860  44.619   8.818
 1141POPC   C2B18020   0.731  44.831   8.413
 1141POPC   C3B18021   0.862  44.741   7.970
 1141POPC   C4B18022   0.993  44.325   7.752
 1142POPC   NC318023  24.608  28.963   9.516
 1142POPC   PO418024  24.329  29.527   9.635
 1142POPC   GL118025  24.457  29.326   9.188
 1142POPC   GL218026  24.353  29.011   9.092
 1142POPC   C1A18027  24.479  29.370   8.749
 1142POPC   D2A18028  24.442  29.084   8.401
 1142POPC   C3A18029  24.551  29.399   8.146
 1142POPC   C4A18030  24.527  29.479   7.739
 1142POPC   C1B18031  24.680  28.901   8.808
 1142POPC   C2B18032  24.954  28.889   8.440
 1142POPC   C3B18033  24.818  28.968   8.046
 1142POPC   C4B18034  24.423  28.982   7.846
 1143POPC   NC318035  21.857   7.121   9.427
 1143POPC   PO418036  21.361   6.657   9.392
 1143POPC   GL118037  21.702   6.675   9.151
 1143POPC   GL218038  21.651   6.996   8.988
 1143POPC   C1A18039  21.692   6.552   8.738
 1143POPC   D2A18040  21.459   6.267   8.497
 1143POPC   C3A18041  21.473   6.314   8.026
 1143POPC   C4A18042  21.638   6.665   7.780
 1143POPC   C1B18043  21.282   6.840   8.760
 1143POPC   C2B18044  21.306   6.730   8.324
 1143POPC   C3B18045  21.161   6.747   7.900
 1143POPC   C4B18046  21.240   6.977   7.494
 1144POPC   NC318047  32.885  29.422   9.556
 1144POPC   PO418048  33.084  29.989   9.690
 1144POPC   GL118049  33.050  29.833   9.264
 1144POPC   GL218050  33.317  29.619   9.164
 1144POPC   C1A18051  32.947  29.728   8.815
 1144POPC   D2A18052  32.887  29.970   8.424
 1144POPC   C3A18053  32.857  29.761   8.028
 1144POPC   C4A18054  32.950  30.009   7.666
 1144POPC   C1B18055  33.385  30.032   8.909
 1144POPC   C2B18056  33.479  30.135   8.473
 1144POPC   C3B18057  33.291  30.049   8.068
 1144POPC   C4B18058  33.380  29.621   7.933
 1145POPC   NC318059   0.120  12.673   9.418
 1145POPC   PO418060  44.415  12.803   9.599
 1145POPC   GL118061  44.656  12.891   9.165
 1145POPC   GL218062  44.525  13.137   9.007
 1145POPC   C1A18063  44.516  12.776   8.663
 1145POPC   D2A18064  44.593  13.072   8.295
 1145POPC   C3A18065  44.573  12.842   7.902
 1145POPC   C4A18066  44.347  12.457   7.754
 1145POPC   C1B18067  44.898  13.077   8.727
 1145POPC   C2B18068   0.050  12.780   8.386
 1145POPC   C3B18069   0.113  12.711   7.933
 1145POPC   C4B18070   0.007  13.050   7.657
 1146POPC   NC318071   3.091  32.060   9.648
 1146POPC   PO418072   2.410  32.087   9.694
 1146POPC   GL118073   2.720  32.099   9.301
 1146POPC   GL218074   2.772  32.459   9.188
 1146POPC   C1A18075   2.843  32.073   8.845
 1146POPC   D2A18076   2.712  32.273   8.470
 1146POPC   C3A18077   2.823  32.158   8.061
 1146POPC   C4A18078   2.679  32.250   7.650
 1146POPC   C1B18079   2.922  32.618   8.793
 1146POPC   C2B18080   3.071  32.671   8.380
 1146POPC   C3B18081   2.904  32.689   7.970
 1146POPC   C4B18082   3.010  32.591   7.524
 1147POPC   NC318083  41.929  37.990   9.465
 1147POPC   PO418084  41.423  37.634   9.754
 1147POPC   GL118085  41.425  37.694   9.279
 1147POPC   GL218086  41.275  37.397   9.144
 1147POPC   C1A18087  41.610  37.706   8.860
 1147POPC   D2A18088  41.640  38.003   8.545
 1147POPC   C3A18089  41.582  37.847   8.140
 1147POPC   C4A18090  41.684  37.898   7.700
 1147POPC   C1B18091  41.150  37.501   8.747
 1147POPC   C2B18092  41.373  37.390   8.377
 1147POPC   C3B18093  41.263  37.347   7.953
 1147POPC   C4B18094  41.231  37.714   7.772
 1148POPC   NC318095  44.109  24.266   9.394
 1148POPC   PO418096  43.816  24.907   9.435
 1148POPC   GL118097  43.849  24.712   9.087
 1148POPC   GL218098  44.198  24.729   9.016
 1148POPC   C1A18099  43.781  24.551   8.694
 1148POPC   D2A18100  43.899  24.391   8.293
 1148POPC   C3A18101  43.651  24.497   7.945
 1148POPC   C4A18102  43.701  24.891   7.736
 1148POPC   C1B18103  44.311  24.384   8.724
 1148POPC   C2B18104  44.309  24.112   8.347
 1148POPC   C3B18105  44.161  24.173   7.905
 1148POPC   C4B18106  44.035  24.493   7.613
 1149POPC   NC318107  22.244   5.562   9.500
 1149POPC   PO418108  21.963   6.180   9.387
 1149POPC   GL118109  22.178   5.882   9.113
 1149POPC   GL218110  22.502   5.654   9.044
 1149POPC   C1A18111  22.083   5.655   8.747
 1149POPC   D2A18112  22.340   5.630   8.404
 1149POPC   C3A18113  22.080   5.545   8.089
 1149POPC   C4A18114  22.028   5.420   7.687
 1149POPC   C1B18115  22.510   6.018   8.749
 1149POPC   C2B18116  22.401   6.287   8.434
 1149POPC   C3B18117  22.272   6.046   8.097
 1149POPC   C4B18118  22.435   5.760   7.784
 1150POPC   NC318119  34.568  37.594   9.624
 1150POPC   PO418120  34.630  38.174   9.390
 1150POPC   GL118121  34.502  37.782   9.140
 1150POPC   GL218122  34.691  37.490   9.132
 1150POPC   C1A18123  34.311  37.541   8.806
 1150POPC   D2A18124  34.527  37.706   8.484
 1150POPC   C3A18125  34.438  37.595   8.084
 1150POPC   C4A18126  34.149  37.782   7.868
 1150POPC   C1B18127  34.841  37.333   8.758
 1150POPC   C2B18128  34.788  37.291   8.342
 1150POPC   C3B18129  34.939  37.662   8.166
 1150POPC   C4B18130  34.868  37.712   7.755
 1151POPC   NC318131   7.114   4.668   9.709
 1151POPC   PO418132   6.480   4.334   9.484
 1151POPC   GL118133   6.529   4.437   9.078
 1151POPC   GL218134   6.240   4.672   9.056
 1151POPC   C1A18135   6.738   4.256   8.741
 1151POPC   D2A18136   6.596   4.110   8.372
 1151POPC   C3A18137   6.909   4.072   8.063
 1151POPC   C4A18138   6.776   4.214   7.682
 1151POPC   C1B18139   6.518   4.881   8.791
 1151POPC   C2B18140   6.712   4.700   8.468
 1151POPC   C3B18141   6.674   4.555   8.076
 1151POPC   C4B18142   6.921   4.703   7.777
 1152POPC   NC318143   3.417  36.576   9.475
 1152POPC   PO418144   3.649  37.174   9.235
 1152POPC   GL118145   3.569  36.795   9.021
 1152POPC   GL218146   3.287  36.517   8.992
 1152POPC   C1A18147   3.519  36.824   8.583
 1152POPC   D2A18148   3.255  36.712   8.262
 1152POPC   C3A18149   3.316  37.105   8.052
 1152POPC   C4A18150   3.524  37.186   7.711
 1152POPC   C1B18151   3.665  36.381   8.740
 1152POPC   C2B18152   3.868  36.511   8.362
 1152POPC   C3B18153   3.681  36.657   7.986
 1152POPC   C4B18154   3.769  36.716   7.585
 1153POPC   NC318155  15.607  19.594   9.592
 1153POPC   PO418156  16.227  19.963   9.560
 1153POPC   GL118157  16.002  20.063   9.176
 1153POPC   GL218158  15.801  19.763   9.149
 1153POPC   C1A18159  16.035  19.921   8.719
 1153POPC   D2A18160  16.234  19.864   8.300
 1153POPC   C3A18161  15.931  19.861   7.969
 1153POPC   C4A18162  15.823  20.071   7.601
 1153POPC   C1B18163  15.689  19.514   8.793
 1153POPC   C2B18164  15.804  19.572   8.367
 1153POPC   C3B18165  15.736  19.388   7.953
 1153POPC   C4B18166  15.740  19.578   7.568
 1154POPC   NC318167  20.376  42.710   9.395
 1154POPC   PO418168  20.535  42.063   9.217
 1154POPC   GL118169  20.567  42.434   8.984
 1154POPC   GL218170  20.913  42.377   8.849
 1154POPC   C1A18171  20.560  42.585   8.553
 1154POPC   D2A18172  20.876  42.433   8.282
 1154POPC   C3A18173  20.625  42.367   7.943
 1154POPC   C4A18174  20.165  42.439   7.944
 1154POPC   C1B18175  20.649  42.072   8.576
 1154POPC   C2B18176  20.583  41.880   8.165
 1154POPC   C3B18177  20.326  41.966   7.783
 1154POPC   C4B18178  20.348  41.905   7.306
 1155POPC   NC318179  27.612  24.482   9.413
 1155POPC   PO418180  27.989  23.884   9.419
 1155POPC   GL118181  27.729  24.088   9.049
 1155POPC   GL218182  27.412  24.302   8.984
 1155POPC   C1A18183  27.725  24.255   8.604
 1155POPC   D2A18184  27.971  24.438   8.289
 1155POPC   C3A18185  27.858  24.257   7.932
 1155POPC   C4A18186  27.427  24.179   7.887
 1155POPC   C1B18187  27.376  24.742   8.776
 1155POPC   C2B18188  27.280  25.029   8.413
 1155POPC   C3B18189  27.382  24.964   8.003
 1155POPC   C4B18190  27.636  24.690   7.837
 1156POPC   NC318191   8.713   0.224   9.583
 1156POPC   PO418192   8.691   0.887   9.524
 1156POPC   GL118193   8.952   0.519   9.259
 1156POPC   GL218194   8.913   0.121   9.139
 1156POPC   C1A18195   9.132   0.463   8.848
 1156POPC   D2A18196   8.862   0.579   8.515
 1156POPC   C3A18197   9.063   0.476   8.149
 1156POPC   C4A18198   9.313   0.529   7.812
 1156POPC   C1B18199   8.737   0.099   8.740
 1156POPC   C2B18200   8.714   0.137   8.287
 1156POPC   C3B18201   8.883   0.100   7.848
 1156POPC   C4B18202   8.700   0.089   7.448
 1157POPC   NC318203  19.979  35.627   9.337
 1157POPC   PO418204  19.548  35.113   9.219
 1157POPC   GL118205  19.902  35.249   9.008
 1157POPC   GL218206  20.134  34.999   8.971
 1157POPC   C1A18207  19.874  35.412   8.619
 1157POPC   D2A18208  19.692  35.630   8.296
 1157POPC   C3A18209  19.744  35.384   7.931
 1157POPC   C4A18210  19.527  35.026   7.820
 1157POPC   C1B18211  19.829  34.893   8.660
 1157POPC   C2B18212  19.788  34.972   8.275
 1157POPC   C3B18213  20.042  34.965   7.954
 1157POPC   C4B18214  19.959  35.064   7.543
 1158POPC   NC318215  19.422  20.291   9.228
 1158POPC   PO418216  18.878  20.439   9.656
 1158POPC   GL118217  18.969  20.531   9.236
 1158POPC   GL218218  18.936  20.209   9.119
 1158POPC   C1A18219  19.130  20.643   8.796
 1158POPC   D2A18220  19.418  20.602   8.447
 1158POPC   C3A18221  19.153  20.709   8.124
 1158POPC   C4A18222  19.160  20.591   7.723
 1158POPC   C1B18223  18.699  20.377   8.788
 1158POPC   C2B18224  18.654  20.562   8.364
 1158POPC   C3B18225  18.696  20.499   7.910
 1158POPC   C4B18226  18.738  20.528   7.447
 1159POPC   NC318227  24.255  30.782   9.567
 1159POPC   PO418228  24.903  30.516   9.379
 1159POPC   GL118229  24.537  30.626   9.122
 1159POPC   GL218230  24.330  30.944   9.094
 1159POPC   C1A18231  24.401  30.483   8.715
 1159POPC   D2A18232  24.198  30.621   8.357
 1159POPC   C3A18233  24.390  30.495   8.010
 1159POPC   C4A18234  24.545  30.670   7.663
 1159POPC   C1B18235  24.590  30.955   8.722
 1159POPC   C2B18236  24.689  30.841   8.286
 1159POPC   C3B18237  24.693  31.114   7.898
 1159POPC   C4B18238  24.637  31.109   7.426
 1160POPC   NC318239  41.091  33.443   9.453
 1160POPC   PO418240  40.884  32.781   9.541
 1160POPC   GL118241  40.791  33.076   9.192
 1160POPC   GL218242  41.137  33.035   9.108
 1160POPC   C1A18243  40.563  33.280   8.822
 1160POPC   D2A18244  40.531  33.082   8.421
 1160POPC   C3A18245  40.564  33.185   7.987
 1160POPC   C4A18246  40.713  32.820   7.767
 1160POPC   C1B18247  41.002  33.049   8.671
 1160POPC   C2B18248  41.008  33.064   8.228
 1160POPC   C3B18249  41.034  33.400   7.940
 1160POPC   C4B18250  41.220  33.453   7.557
 1161POPC   NC318251  28.785  31.630   9.730
 1161POPC   PO418252  29.364  31.396   9.698
 1161POPC   GL118253  29.339  31.640   9.302
 1161POPC   GL218254  28.977  31.683   9.196
 1161POPC   C1A18255  29.371  31.642   8.845
 1161POPC   D2A18256  29.174  31.640   8.397
 1161POPC   C3A18257  29.334  31.526   7.977
 1161POPC   C4A18258  29.229  31.161   7.771
 1161POPC   C1B18259  28.904  31.429   8.798
 1161POPC   C2B18260  28.694  31.410   8.385
 1161POPC   C3B18261  28.833  31.579   7.978
 1161POPC   C4B18262  28.819  31.391   7.563
 1162POPC   NC318263  43.060  21.682   9.627
 1162POPC   PO418264  42.867  20.992   9.830
 1162POPC   GL118265  42.927  21.108   9.356
 1162POPC   GL218266  43.275  21.208   9.327
 1162POPC   C1A18267  42.883  21.270   8.891
 1162POPC   D2A18268  42.951  21.606   8.557
 1162POPC   C3A18269  42.932  21.433   8.127
 1162POPC   C4A18270  42.979  21.576   7.739
 1162POPC   C1B18271  43.392  21.169   8.868
 1162POPC   C2B18272  43.337  21.303   8.412
 1162POPC   C3B18273  43.420  21.372   7.951
 1162POPC   C4B18274  43.710  21.179   7.662
 1163POPC   NC318275  29.031  32.647   9.670
 1163POPC   PO418276  29.174  33.261   9.457
 1163POPC   GL118277  29.030  33.068   9.095
 1163POPC   GL218278  28.986  32.725   9.156
 1163POPC   C1A18279  29.169  33.021   8.664
 1163POPC   D2A18280  29.369  33.004   8.258
 1163POPC   C3A18281  29.164  33.306   8.006
 1163POPC   C4A18282  29.303  33.491   7.640
 1163POPC   C1B18283  28.722  32.809   8.780
 1163POPC   C2B18284  28.654  33.092   8.396
 1163POPC   C3B18285  28.714  33.001   7.963
 1163POPC   C4B18286  29.101  32.853   7.793
 1164POPC   NC318287  19.263  44.276   9.364
 1164POPC   PO418288  19.310  43.561   9.484
 1164POPC   GL118289  19.083  43.788   9.176
 1164POPC   GL218290  19.116  43.468   9.005
 1164POPC   C1A18291  18.976  43.939   8.749
 1164POPC   D2A18292  19.242  43.944   8.368
 1164POPC   C3A18293  19.187  44.045   7.902
 1164POPC   C4A18294  18.881  44.117   7.574
 1164POPC   C1B18295  19.187  43.485   8.578
 1164POPC   C2B18296  18.908  43.517   8.245
 1164POPC   C3B18297  19.000  43.547   7.833
 1164POPC   C4B18298  19.153  43.702   7.440
 1165POPC   NC318299  38.916  11.123   9.293
 1165POPC   PO418300  38.328  11.189   9.614
 1165POPC   GL118301  38.199  11.441   9.256
 1165POPC   GL218302  38.466  11.282   9.107
 1165POPC   C1A18303  38.068  11.369   8.809
 1165POPC   D2A18304  38.200  11.066   8.492
 1165POPC   C3A18305  38.345  11.345   8.168
 1165POPC   C4A18306  38.286  11.598   7.779
 1165POPC   C1B18307  38.585  11.359   8.690
 1165POPC   C2B18308  38.733  11.056   8.390
 1165POPC   C3B18309  38.676  10.933   7.983
 1165POPC   C4B18310  38.399  11.108   7.713
 1166POPC   NC318311   4.061  21.703   9.630
 1166POPC   PO418312   4.440  21.119   9.563
 1166POPC   GL118313   4.197  21.323   9.296
 1166POPC   GL218314   3.853  21.257   9.386
 1166POPC   C1A18315   4.190  21.536   8.924
 1166POPC   D2A18316   4.139  21.733   8.528
 1166POPC   C3A18317   4.335  21.544   8.195
 1166POPC   C4A18318   4.360  21.354   7.815
 1166POPC   C1B18319   3.876  21.115   8.947
 1166POPC   C2B18320   4.028  21.224   8.531
 1166POPC   C3B18321   4.046  21.113   8.115
 1166POPC   C4B18322   4.190  20.848   7.782
 1167POPC   NC318323  34.537  42.871   9.576
 1167POPC   PO418324  34.691  42.223   9.530
 1167POPC   GL118325  34.538  42.431   9.184
 1167POPC   GL218326  34.241  42.313   9.197
 1167POPC   C1A18327  34.630  42.296   8.759
 1167POPC   D2A18328  34.564  42.024   8.393
 1167POPC   C3A18329  34.718  42.155   7.971
 1167POPC   C4A18330  34.570  42.367   7.590
 1167POPC   C1B18331  34.204  42.059   8.821
 1167POPC   C2B18332  34.066  42.165   8.383
 1167POPC   C3B18333  34.185  42.207   7.926
 1167POPC   C4B18334  34.143  42.131   7.442
 1168POPC   NC318335  16.410  20.403   9.452
 1168POPC   PO418336  15.891  20.822   9.615
 1168POPC   GL118337  16.015  20.636   9.198
 1168POPC   GL218338  16.122  20.908   8.981
 1168POPC   C1A18339  16.145  20.421   8.793
 1168POPC   D2A18340  15.932  20.317   8.389
 1168POPC   C3A18341  16.064  20.360   7.937
 1168POPC   C4A18342  16.172  20.657   7.605
 1168POPC   C1B18343  16.213  20.875   8.543
 1168POPC   C2B18344  16.030  20.821   8.148
 1168POPC   C3B18345  15.745  20.743   7.812
 1168POPC   C4B18346  15.689  20.949   7.416
 1169POPC   NC318347   5.865  32.483   9.483
 1169POPC   PO418348   6.083  31.926   9.255
 1169POPC   GL118349   5.973  32.234   8.982
 1169POPC   GL218350   5.613  32.176   9.022
 1169POPC   C1A18351   6.178  32.322   8.567
 1169POPC   D2A18352   6.145  32.322   8.101
 1169POPC   C3A18353   5.718  32.386   7.904
 1169POPC   C4A18354   5.775  32.506   7.461
 1169POPC   C1B18355   5.671  32.191   8.552
 1169POPC   C2B18356   5.843  31.930   8.206
 1169POPC   C3B18357   5.952  31.993   7.746
 1169POPC   C4B18358   5.606  32.045   7.430
 1170POPC   NC318359  37.174   8.620   9.312
 1170POPC   PO418360  36.594   8.976   9.306
 1170POPC   GL118361  36.952   9.010   9.013
 1170POPC   GL218362  36.935   8.711   8.887
 1170POPC   C1A18363  36.989   9.084   8.548
 1170POPC   D2A18364  36.619   9.195   8.323
 1170POPC   C3A18365  36.706   8.977   7.965
 1170POPC   C4A18366  37.093   9.029   7.760
 1170POPC   C1B18367  37.233   8.619   8.598
 1170POPC   C2B18368  37.123   8.723   8.179
 1170POPC   C3B18369  37.046   8.529   7.802
 1170POPC   C4B18370  36.926   8.665   7.384
 1171POPC   NC318371  31.014   4.978   9.700
 1171POPC   PO418372  30.520   5.236   9.377
 1171POPC   GL118373  30.531   5.012   9.004
 1171POPC   GL218374  30.641   5.302   8.879
 1171POPC   C1A18375  30.717   4.914   8.555
 1171POPC   D2A18376  30.795   4.799   8.087
 1171POPC   C3A18377  30.556   5.092   7.783
 1171POPC   C4A18378  30.305   5.433   7.856
 1171POPC   C1B18379  31.040   5.329   8.682
 1171POPC   C2B18380  31.063   5.195   8.264
 1171POPC   C3B18381  31.044   5.219   7.843
 1171POPC   C4B18382  30.801   5.533   7.726
 1172POPC   NC318383  14.131   4.726   9.378
 1172POPC   PO418384  14.247   5.343   9.641
 1172POPC   GL118385  14.323   5.344   9.192
 1172POPC   GL218386  14.476   5.026   9.166
 1172POPC   C1A18387  14.458   5.335   8.761
 1172POPC   D2A18388  14.596   5.148   8.375
 1172POPC   C3A18389  14.392   5.233   7.978
 1172POPC   C4A18390  14.651   5.281   7.573
 1172POPC   C1B18391  14.426   4.815   8.759
 1172POPC   C2B18392  14.531   4.657   8.338
 1172POPC   C3B18393  14.329   4.704   7.961
 1172POPC   C4B18394  14.314   4.918   7.578
 1173POPC   NC318395  20.099   2.598   9.532
 1173POPC   PO418396  19.428   2.482   9.636
 1173POPC   GL118397  19.741   2.495   9.193
 1173POPC   GL218398  20.046   2.809   9.085
 1173POPC   C1A18399  19.709   2.636   8.771
 1173POPC   D2A18400  19.906   2.856   8.441
 1173POPC   C3A18401  19.701   2.967   8.099
 1173POPC   C4A18402  19.605   2.751   7.763
 1173POPC   C1B18403  20.245   2.610   8.766
 1173POPC   C2B18404  20.378   2.620   8.369
 1173POPC   C3B18405  20.212   2.701   8.012
 1173POPC   C4B18406  19.989   2.425   7.839
 1174POPC   NC318407  42.679  41.410   9.435
 1174POPC   PO418408  42.017  41.504   9.409
 1174POPC   GL118409  42.319  41.534   9.084
 1174POPC   GL218410  42.122  41.282   8.978
 1174POPC   C1A18411  42.516  41.679   8.686
 1174POPC   D2A18412  42.281  41.578   8.284
 1174POPC   C3A18413  42.415  41.704   7.849
 1174POPC   C4A18414  42.556  41.471   7.460
 1174POPC   C1B18415  41.923  41.547   8.703
 1174POPC   C2B18416  41.743  41.544   8.304
 1174POPC   C3B18417  41.919  41.598   7.878
 1174POPC   C4B18418  42.093  41.329   7.550
 1175POPC   NC318419  20.180  32.999   9.301
 1175POPC   PO418420  19.652  32.788   9.573
 1175POPC   GL118421  19.681  32.903   9.169
 1175POPC   GL218422  19.837  33.196   9.001
 1175POPC   C1A18423  19.712  32.754   8.776
 1175POPC   D2A18424  19.713  32.999   8.437
 1175POPC   C3A18425  19.780  32.815   8.075
 1175POPC   C4A18426  19.671  32.993   7.678
 1175POPC   C1B18427  20.151  33.023   8.674
 1175POPC   C2B18428  20.170  33.235   8.296
 1175POPC   C3B18429  20.098  33.149   7.888
 1175POPC   C4B18430  20.290  32.734   7.775
 1176POPC   NC318431   6.732   5.562   9.484
 1176POPC   PO418432   6.832   6.250   9.445
 1176POPC   GL118433   6.837   5.915   9.130
 1176POPC   GL218434   6.599   5.689   9.016
 1176POPC   C1A18435   6.958   5.815   8.690
 1176POPC   D2A18436   7.043   6.054   8.318
 1176POPC   C3A18437   6.953   5.827   7.943
 1176POPC   C4A18438   6.797   5.835   7.533
 1176POPC   C1B18439   6.510   6.048   8.748
 1176POPC   C2B18440   6.545   6.113   8.295
 1176POPC   C3B18441   6.460   5.892   7.920
 1176POPC   C4B18442   6.376   6.127   7.568
 1177POPC   NC318443   3.462  26.942   9.627
 1177POPC   PO418444   3.540  26.356   9.452
 1177POPC   GL118445   3.642  26.647   9.147
 1177POPC   GL218446   3.296  26.666   9.100
 1177POPC   C1A18447   3.640  26.887   8.739
 1177POPC   D2A18448   3.514  27.160   8.371
 1177POPC   C3A18449   3.750  27.013   8.002
 1177POPC   C4A18450   3.632  26.665   7.758
 1177POPC   C1B18451   3.211  26.590   8.687
 1177POPC   C2B18452   3.406  26.593   8.306
 1177POPC   C3B18453   3.220  26.429   7.939
 1177POPC   C4B18454   3.272  26.251   7.546
 1178POPC   NC318455  10.656  42.544   9.496
 1178POPC   PO418456  10.402  41.904   9.466
 1178POPC   GL118457  10.486  42.197   9.102
 1178POPC   GL218458  10.826  42.335   9.047
 1178POPC   C1A18459  10.340  42.207   8.665
 1178POPC   D2A18460   9.990  42.226   8.354
 1178POPC   C3A18461  10.132  42.338   7.969
 1178POPC   C4A18462  10.499  42.320   7.724
 1178POPC   C1B18463  10.851  42.062   8.669
 1178POPC   C2B18464  10.708  42.126   8.250
 1178POPC   C3B18465  10.946  42.150   7.885
 1178POPC   C4B18466  11.101  41.869   7.581
 1179POPC   NC318467  42.719  17.846   9.522
 1179POPC   PO418468  43.033  17.246   9.644
 1179POPC   GL118469  43.019  17.401   9.241
 1179POPC   GL218470  43.351  17.402   9.167
 1179POPC   C1A18471  42.945  17.532   8.820
 1179POPC   D2A18472  43.102  17.398   8.430
 1179POPC   C3A18473  42.908  17.503   8.053
 1179POPC   C4A18474  43.054  17.636   7.665
 1179POPC   C1B18475  43.494  17.586   8.779
 1179POPC   C2B18476  43.629  17.463   8.403
 1179POPC   C3B18477  43.421  17.526   8.029
 1179POPC   C4B18478  43.488  17.359   7.641
 1180POPC   NC318479  32.801  41.992   9.559
 1180POPC   PO418480  33.210  42.550   9.348
 1180POPC   GL118481  33.085  42.363   8.958
 1180POPC   GL218482  32.812  42.131   9.071
 1180POPC   C1A18483  33.130  42.634   8.590
 1180POPC   D2A18484  33.286  42.628   8.153
 1180POPC   C3A18485  32.940  42.676   7.920
 1180POPC   C4A18486  32.645  42.355   7.838
 1180POPC   C1B18487  32.748  41.972   8.662
 1180POPC   C2B18488  32.980  42.222   8.321
 1180POPC   C3B18489  33.141  42.106   7.943
 1180POPC   C4B18490  32.850  41.910   7.714
 1181POPC   NC318491   1.105  20.183   9.389
 1181POPC   PO418492   0.857  20.876   9.453
 1181POPC   GL118493   1.076  20.878   9.081
 1181POPC   GL218494   1.027  20.527   9.018
 1181POPC   C1A18495   1.367  20.797   8.728
 1181POPC   D2A18496   1.507  20.556   8.388
 1181POPC   C3A18497   1.364  20.841   8.095
 1181POPC   C4A18498   1.315  20.912   7.673
 1181POPC   C1B18499   0.896  20.630   8.614
 1181POPC   C2B18500   1.012  20.513   8.236
 1181POPC   C3B18501   1.187  20.431   7.841
 1181POPC   C4B18502   0.858  20.685   7.688
 1182POPC   NC318503  26.485  32.109   9.542
 1182POPC   PO418504  25.982  32.497   9.503
 1182POPC   GL118505  26.021  32.191   9.199
 1182POPC   GL218506  26.310  32.291   9.059
 1182POPC   C1A18507  25.915  32.043   8.782
 1182POPC   D2A18508  25.790  32.240   8.384
 1182POPC   C3A18509  25.886  32.092   7.969
 1182POPC   C4A18510  25.856  32.248   7.532
 1182POPC   C1B18511  26.192  32.460   8.640
 1182POPC   C2B18512  26.294  32.371   8.220
 1182POPC   C3B18513  26.255  32.428   7.781
 1182POPC   C4B18514  26.332  32.342   7.305
 1183POPC   NC318515   4.976   9.291   9.344
 1183POPC   PO418516   5.315   9.823   9.575
 1183POPC   GL118517   5.146   9.779   9.147
 1183POPC   GL218518   4.849  10.000   9.044
 1183POPC   C1A18519   5.279   9.875   8.717
 1183POPC   D2A18520   5.365   9.764   8.279
 1183POPC   C3A18521   5.272   9.983   7.917
 1183POPC   C4A18522   5.084   9.661   7.694
 1183POPC   C1B18523   4.800   9.664   8.737
 1183POPC   C2B18524   4.598   9.500   8.384
 1183POPC   C3B18525   4.774   9.393   7.990
 1183POPC   C4B18526   4.609   9.512   7.602
 1184POPC   NC318527   9.363   2.364   9.399
 1184POPC   PO418528   9.293   3.065   9.406
 1184POPC   GL118529   8.993   2.749   9.232
 1184POPC   GL218530   8.598   2.822   9.147
 1184POPC   C1A18531   9.001   2.703   8.814
 1184POPC   D2A18532   9.284   2.790   8.527
 1184POPC   C3A18533   9.190   2.858   8.113
 1184POPC   C4A18534   9.205   2.614   7.748
 1184POPC   C1B18535   8.517   2.663   8.711
 1184POPC   C2B18536   8.774   2.673   8.320
 1184POPC   C3B18537   8.755   2.836   7.854
 1184POPC   C4B18538   8.790   2.571   7.438
 1185POPC   NC318539   4.562  26.896   9.456
 1185POPC   PO418540   3.915  26.789   9.608
 1185POPC   GL118541   4.140  26.839   9.184
 1185POPC   GL218542   4.150  26.563   8.994
 1185POPC   C1A18543   4.422  26.933   8.783
 1185POPC   D2A18544   4.236  26.867   8.365
 1185POPC   C3A18545   4.269  27.122   7.989
 1185POPC   C4A18546   4.577  27.012   7.711
 1185POPC   C1B18547   3.904  26.434   8.626
 1185POPC   C2B18548   3.904  26.514   8.186
 1185POPC   C3B18549   4.149  26.632   7.838
 1185POPC   C4B18550   4.088  26.585   7.402
 1186POPC   NC318551  26.562   1.512   9.409
 1186POPC   PO418552  26.757   0.837   9.523
 1186POPC   GL118553  26.843   1.133   9.208
 1186POPC   GL218554  26.533   1.087   9.139
 1186POPC   C1A18555  26.795   1.305   8.771
 1186POPC   D2A18556  26.655   1.103   8.386
 1186POPC   C3A18557  26.947   1.148   8.014
 1186POPC   C4A18558  27.024   1.531   7.746
 1186POPC   C1B18559  26.766   0.786   8.818
 1186POPC   C2B18560  26.836   0.644   8.347
 1186POPC   C3B18561  26.554   0.803   7.980
 1186POPC   C4B18562  26.473   1.262   7.840
 1187POPC   NC318563   9.958  22.163   9.723
 1187POPC   PO418564   9.412  22.210   9.438
 1187POPC   GL118565   9.634  22.320   9.088
 1187POPC   GL218566   9.994  22.215   9.158
 1187POPC   C1A18567   9.798  22.236   8.683
 1187POPC   D2A18568  10.061  22.113   8.370
 1187POPC   C3A18569   9.710  21.996   8.110
 1187POPC   C4A18570   9.819  22.330   7.841
 1187POPC   C1B18571  10.131  21.875   8.840
 1187POPC   C2B18572  10.065  21.616   8.433
 1187POPC   C3B18573  10.153  21.746   8.008
 1187POPC   C4B18574   9.937  21.858   7.656
 1188POPC   NC318575   8.287  34.709   9.543
 1188POPC   PO418576   8.057  34.074   9.335
 1188POPC   GL118577   8.186  34.406   9.156
 1188POPC   GL218578   8.555  34.411   9.109
 1188POPC   C1A18579   8.205  34.515   8.779
 1188POPC   D2A18580   8.039  34.583   8.446
 1188POPC   C3A18581   8.278  34.600   8.119
 1188POPC   C4A18582   8.140  34.709   7.746
 1188POPC   C1B18583   8.659  34.724   8.712
 1188POPC   C2B18584   8.569  35.002   8.330
 1188POPC   C3B18585   8.623  34.914   7.882
 1188POPC   C4B18586   8.643  34.491   7.710
 1189POPC   NC318587  44.748  33.262   9.577
 1189POPC   PO418588  44.478  32.548   9.661
 1189POPC   GL118589  44.452  32.856   9.307
 1189POPC   GL218590  44.688  33.102   9.123
 1189POPC   C1A18591  44.378  32.846   8.845
 1189POPC   D2A18592  44.603  32.758   8.471
 1189POPC   C3A18593  44.408  32.866   8.101
 1189POPC   C4A18594  44.476  32.718   7.695
 1189POPC   C1B18595  44.936  33.060   8.760
 1189POPC   C2B18596  44.802  33.211   8.354
 1189POPC   C3B18597  44.770  33.157   7.908
 1189POPC   C4B18598  44.925  33.429   7.591
 1190POPC   NC318599  21.500   6.189   9.360
 1190POPC   PO418600  20.954   5.891   9.534
 1190POPC   GL118601  21.110   5.569   9.207
 1190POPC   GL218602  21.477   5.650   9.161
 1190POPC   C1A18603  21.180   5.535   8.738
 1190POPC   D2A18604  21.204   5.844   8.387
 1190POPC   C3A18605  21.268   5.813   7.963
 1190POPC   C4A18606  21.343   5.397   7.958
 1190POPC   C1B18607  21.597   5.842   8.761
 1190POPC   C2B18608  21.771   5.879   8.343
 1190POPC   C3B18609  21.804   5.927   7.908
 1190POPC   C4B18610  21.622   5.698   7.571
 1191POPC   NC318611  26.881   6.148   9.543
 1191POPC   PO418612  26.691   5.460   9.460
 1191POPC   GL118613  26.875   5.708   9.107
 1191POPC   GL218614  26.790   6.016   9.062
 1191POPC   C1A18615  27.035   5.803   8.678
 1191POPC   D2A18616  26.677   5.991   8.478
 1191POPC   C3A18617  26.625   5.842   8.086
 1191POPC   C4A18618  26.894   5.760   7.781
 1191POPC   C1B18619  26.898   6.313   8.819
 1191POPC   C2B18620  27.065   6.343   8.414
 1191POPC   C3B18621  26.923   6.245   7.984
 1191POPC   C4B18622  27.010   6.186   7.513
 1192POPC   NC318623  18.325  11.523   9.485
 1192POPC   PO418624  18.493  12.218   9.513
 1192POPC   GL118625  18.213  12.280   9.199
 1192POPC   GL218626  18.172  11.931   9.163
 1192POPC   C1A18627  18.229  12.236   8.761
 1192POPC   D2A18628  18.183  11.966   8.410
 1192POPC   C3A18629  18.089  12.156   8.057
 1192POPC   C4A18630  18.315  12.057   7.679
 1192POPC   C1B18631  18.113  11.660   8.809
 1192POPC   C2B18632  18.339  11.488   8.429
 1192POPC   C3B18633  18.479  11.621   7.999
 1192POPC   C4B18634  18.334  11.572   7.548
 1193POPC   NC318635   6.716  23.294   9.364
 1193POPC   PO418636   6.918  22.626   9.580
 1193POPC   GL118637   6.849  22.879   9.125
 1193POPC   GL218638   6.494  22.907   9.048
 1193POPC   C1A18639   6.756  23.085   8.688
 1193POPC   D2A18640   6.591  22.946   8.294
 1193POPC   C3A18641   6.828  23.090   7.965
 1193POPC   C4A18642   7.072  23.048   7.560
 1193POPC   C1B18643   6.239  23.043   8.686
 1193POPC   C2B18644   6.193  23.287   8.316
 1193POPC   C3B18645   6.294  23.222   7.894
 1193POPC   C4B18646   6.478  22.900   7.663
 1194POPC   NC318647  27.546  42.404   9.674
 1194POPC   PO418648  27.227  42.640   9.263
 1194POPC   GL118649  27.549  42.534   9.022
 1194POPC   GL218650  27.655  42.197   9.027
 1194POPC   C1A18651  27.629  42.482   8.589
 1194POPC   D2A18652  27.661  42.265   8.209
 1194POPC   C3A18653  27.719  42.454   7.778
 1194POPC   C4A18654  27.845  42.497   7.328
 1194POPC   C1B18655  27.802  41.972   8.646
 1194POPC   C2B18656  27.854  41.802   8.244
 1194POPC   C3B18657  27.684  41.903   7.829
 1194POPC   C4B18658  27.484  42.104   7.478
 1195POPC   NC318659  42.751   9.320   9.292
 1195POPC   PO418660  43.160   8.918   9.684
 1195POPC   GL118661  43.286   8.812   9.255
 1195POPC   GL218662  43.174   9.091   9.053
 1195POPC   C1A18663  43.465   8.725   8.841
 1195POPC   D2A18664  43.308   8.918   8.472
 1195POPC   C3A18665  43.477   8.814   8.099
 1195POPC   C4A18666  43.282   8.849   7.722
 1195POPC   C1B18667  42.871   9.042   8.724
 1195POPC   C2B18668  42.754   9.234   8.368
 1195POPC   C3B18669  42.872   8.986   8.046
 1195POPC   C4B18670  42.758   9.015   7.659
 1196POPC   NC318671  10.404  11.977   9.290
 1196POPC   PO418672  10.506  12.616   9.553
 1196POPC   GL118673  10.526  12.477   9.138
 1196POPC   GL218674  10.817  12.273   9.135
 1196POPC   C1A18675  10.474  12.255   8.711
 1196POPC   D2A18676  10.567  11.899   8.449
 1196POPC   C3A18677  10.534  12.048   8.032
 1196POPC   C4A18678  10.357  11.939   7.598
 1196POPC   C1B18679  10.894  12.530   8.770
 1196POPC   C2B18680  10.898  12.324   8.372
 1196POPC   C3B18681  10.827  12.457   7.965
 1196POPC   C4B18682  10.785  12.208   7.612
 1197POPC   NC318683   0.125  16.833   9.465
 1197POPC   PO418684   0.761  16.537   9.276
 1197POPC   GL118685   0.460  16.743   9.045
 1197POPC   GL218686   0.441  17.099   9.118
 1197POPC   C1A18687   0.505  16.809   8.609
 1197POPC   D2A18688   0.569  16.510   8.257
 1197POPC   C3A18689   0.370  16.608   7.863
 1197POPC   C4A18690   0.255  16.452   7.453
 1197POPC   C1B18691   0.132  17.263   8.840
 1197POPC   C2B18692   0.124  17.186   8.440
 1197POPC   C3B18693   0.438  17.041   8.149
 1197POPC   C4B18694   0.586  17.143   7.758
 1198POPC   NC318695  30.187   4.858   9.381
 1198POPC   PO418696  29.558   4.932   9.210
 1198POPC   GL118697  29.917   5.024   8.986
 1198POPC   GL218698  30.091   5.300   9.093
 1198POPC   C1A18699  30.197   5.098   8.641
 1198POPC   D2A18700  30.325   5.054   8.239
 1198POPC   C3A18701  29.999   5.039   7.945
 1198POPC   C4A18702  30.109   5.054   7.522
 1198POPC   C1B18703  29.805   5.454   8.747
 1198POPC   C2B18704  29.755   5.266   8.361
 1198POPC   C3B18705  29.700   5.463   7.985
 1198POPC   C4B18706  29.676   5.308   7.572
 1199POPC   NC318707   2.824  23.270   9.555
 1199POPC   PO418708   2.620  23.912   9.516
 1199POPC   GL118709   2.844  23.734   9.182
 1199POPC   GL218710   2.624  23.450   9.114
 1199POPC   C1A18711   2.905  23.642   8.747
 1199POPC   D2A18712   2.806  23.342   8.456
 1199POPC   C3A18713   2.887  23.546   8.080
 1199POPC   C4A18714   3.013  23.439   7.671
 1199POPC   C1B18715   2.387  23.507   8.726
 1199POPC   C2B18716   2.364  23.559   8.284
 1199POPC   C3B18717   2.430  23.588   7.856
 1199POPC   C4B18718   2.587  23.548   7.454
 1200POPC   NC318719   4.422  32.856   9.528
 1200POPC   PO418720   3.816  32.899   9.308
 1200POPC   GL118721   4.078  32.694   9.020
 1200POPC   GL218722   4.434  32.658   9.078
 1200POPC   C1A18723   4.288  32.854   8.623
 1200POPC   D2A18724   4.311  33.257   8.422
 1200POPC   C3A18725   4.171  33.178   8.035
 1200POPC   C4A18726   4.117  32.972   7.655
 1200POPC   C1B18727   4.694  32.569   8.770
 1200POPC   C2B18728   4.798  32.692   8.388
 1200POPC   C3B18729   4.640  32.964   8.139
 1200POPC   C4B18730   4.616  32.756   7.799
 1201POPC   NC318731   3.277  12.673   9.579
 1201POPC   PO418732   3.478  13.282   9.416
 1201POPC   GL118733   3.304  13.102   9.091
 1201POPC   GL218734   3.410  12.770   9.100
 1201POPC   C1A18735   3.458  13.068   8.669
 1201POPC   D2A18736   3.710  12.986   8.299
 1201POPC   C3A18737   3.538  13.068   7.898
 1201POPC   C4A18738   3.600  12.818   7.537
 1201POPC   C1B18739   3.677  12.586   8.778
 1201POPC   C2B18740   3.873  12.504   8.385
 1201POPC   C3B18741   3.632  12.537   8.002
 1201POPC   C4B18742   3.325  12.402   7.687
 1202POPC   NC318743   0.757  16.108   9.460
 1202POPC   PO418744   0.131  16.358   9.537
 1202POPC   GL118745   0.352  16.242   9.157
 1202POPC   GL218746   0.441  15.897   9.067
 1202POPC   C1A18747   0.376  16.302   8.724
 1202POPC   D2A18748   0.303  15.978   8.437
 1202POPC   C3A18749   0.265  16.127   8.017
 1202POPC   C4A18750   0.522  16.077   7.662
 1202POPC   C1B18751   0.108  15.640   8.840
 1202POPC   C2B18752  44.987  15.541   8.425
 1202POPC   C3B18753   0.265  15.587   8.096
 1202POPC   C4B18754   0.211  15.683   7.699
 1203POPC   NC318755  21.880  10.407   9.864
 1203POPC   PO418756  22.378  10.696   9.563
 1203POPC   GL118757  22.174  10.499   9.223
 1203POPC   GL218758  21.832  10.563   9.224
 1203POPC   C1A18759  22.050  10.277   8.841
 1203POPC   D2A18760  22.291  10.153   8.463
 1203POPC   C3A18761  22.153  10.328   8.060
 1203POPC   C4A18762  22.283  10.303   7.613
 1203POPC   C1B18763  21.958  10.798   8.829
 1203POPC   C2B18764  22.051  10.718   8.406
 1203POPC   C3B18765  21.930  10.794   7.981
 1203POPC   C4B18766  21.786  10.453   7.703
 1204POPC   NC318767  41.161   6.964   9.533
 1204POPC   PO418768  41.452   6.370   9.558
 1204POPC   GL118769  41.681   6.627   9.210
 1204POPC   GL218770  41.746   6.986   9.260
 1204POPC   C1A18771  41.703   6.599   8.745
 1204POPC   D2A18772  41.934   6.471   8.344
 1204POPC   C3A18773  41.731   6.599   7.946
 1204POPC   C4A18774  41.323   6.739   7.742
 1204POPC   C1B18775  41.780   7.106   8.834
 1204POPC   C2B18776  41.852   6.982   8.409
 1204POPC   C3B18777  41.600   7.090   8.031
 1204POPC   C4B18778  41.730   7.001   7.608
 1205POPC   NC318779  32.538  15.998   9.727
 1205POPC   PO418780  33.233  15.935   9.749
 1205POPC   GL118781  33.110  16.011   9.304
 1205POPC   GL218782  32.799  15.968   9.165
 1205POPC   C1A18783  33.127  16.228   8.872
 1205POPC   D2A18784  33.223  16.137   8.446
 1205POPC   C3A18785  33.133  16.314   8.067
 1205POPC   C4A18786  32.928  16.064   7.794
 1205POPC   C1B18787  32.846  15.821   8.706
 1205POPC   C2B18788  32.715  15.973   8.269
 1205POPC   C3B18789  32.573  15.732   7.888
 1205POPC   C4B18790  32.639  15.831   7.416
 1206POPC   NC318791  30.341  37.040   9.340
 1206POPC   PO418792  29.723  36.897   9.646
 1206POPC   GL118793  29.882  36.823   9.205
 1206POPC   GL218794  29.854  37.203   9.237
 1206POPC   C1A18795  29.819  36.658   8.711
 1206POPC   D2A18796  30.062  36.605   8.300
 1206POPC   C3A18797  30.097  36.931   7.996
 1206POPC   C4A18798  29.874  36.838   7.663
 1206POPC   C1B18799  29.697  37.129   8.839
 1206POPC   C2B18800  29.854  37.092   8.426
 1206POPC   C3B18801  29.578  37.075   8.081
 1206POPC   C4B18802  29.570  37.237   7.648
 1207POPC   NC318803  39.111  38.301   9.700
 1207POPC   PO418804  39.528  38.752   9.413
 1207POPC   GL118805  39.304  38.543   9.131
 1207POPC   GL218806  39.245  38.206   9.190
 1207POPC   C1A18807  39.366  38.455   8.728
 1207POPC   D2A18808  39.506  38.236   8.394
 1207POPC   C3A18809  39.560  38.596   8.130
 1207POPC   C4A18810  39.313  38.626   7.766
 1207POPC   C1B18811  39.112  38.014   8.831
 1207POPC   C2B18812  38.997  38.205   8.458
 1207POPC   C3B18813  39.132  38.186   8.033
 1207POPC   C4B18814  38.979  38.192   7.614
 1208POPC   NC318815  23.589  30.925   9.339
 1208POPC   PO418816  23.946  30.450   9.661
 1208POPC   GL118817  24.028  30.531   9.190
 1208POPC   GL218818  24.101  30.245   9.035
 1208POPC   C1A18819  23.953  30.770   8.779
 1208POPC   D2A18820  23.851  31.013   8.364
 1208POPC   C3A18821  23.570  30.854   8.048
 1208POPC   C4A18822  23.639  30.904   7.606
 1208POPC   C1B18823  23.929  30.227   8.642
 1208POPC   C2B18824  23.750  30.376   8.256
 1208POPC   C3B18825  23.904  30.520   7.855
 1208POPC   C4B18826  24.068  30.525   7.458
 1209POPC   NC318827  21.133  43.679   9.205
 1209POPC   PO418828  21.742  43.947   9.454
 1209POPC   GL118829  21.535  43.933   9.048
 1209POPC   GL218830  21.231  44.178   9.110
 1209POPC   C1A18831  21.545  43.679   8.626
 1209POPC   D2A18832  21.776  43.629   8.225
 1209POPC   C3A18833  21.618  43.926   7.936
 1209POPC   C4A18834  21.254  43.784   7.770
 1209POPC   C1B18835  21.237  44.087   8.656
 1209POPC   C2B18836  21.155  44.031   8.226
 1209POPC   C3B18837  21.216  44.286   7.860
 1209POPC   C4B18838  21.382  44.187   7.457
 1210POPC   NC318839   3.919  26.201   9.245
 1210POPC   PO418840   4.539  26.399   9.439
 1210POPC   GL118841   4.617  26.356   9.045
 1210POPC   GL218842   4.379  26.089   8.979
 1210POPC   C1A18843   4.468  26.431   8.607
 1210POPC   D2A18844   4.255  26.131   8.344
 1210POPC   C3A18845   4.457  25.907   8.008
 1210POPC   C4A18846   4.295  26.119   7.654
 1210POPC   C1B18847   4.125  25.798   8.717
 1210POPC   C2B18848   4.129  25.618   8.285
 1210POPC   C3B18849   3.976  25.729   7.871
 1210POPC   C4B18850   3.988  25.796   7.417
 1211POPC   NC318851  38.242  27.626   9.473
 1211POPC   PO418852  38.908  27.778   9.472
 1211POPC   GL118853  38.625  27.718   9.103
 1211POPC   GL218854  38.258  27.657   8.990
 1211POPC   C1A18855  38.658  27.489   8.719
 1211POPC   D2A18856  38.471  27.485   8.341
 1211POPC   C3A18857  38.744  27.553   8.003
 1211POPC   C4A18858  38.753  27.821   7.634
 1211POPC   C1B18859  38.292  27.904   8.669
 1211POPC   C2B18860  38.226  27.988   8.267
 1211POPC   C3B18861  38.311  27.780   7.913
 1211POPC   C4B18862  38.214  27.967   7.577
 1212POPC   NC318863  17.058  20.629   9.307
 1212POPC   PO418864  16.501  20.887   9.328
 1212POPC   GL118865  16.604  20.562   9.013
 1212POPC   GL218866  16.894  20.322   8.923
 1212POPC   C1A18867  16.624  20.571   8.591
 1212POPC   D2A18868  16.423  20.381   8.287
 1212POPC   C3A18869  16.568  20.545   7.934
 1212POPC   C4A18870  16.600  20.398   7.556
 1212POPC   C1B18871  17.161  20.548   8.656
 1212POPC   C2B18872  17.279  20.610   8.256
 1212POPC   C3B18873  17.104  20.493   7.903
 1212POPC   C4B18874  16.960  20.747   7.549
 1213POPC   NC318875  18.766  13.509   9.464
 1213POPC   PO418876  19.497  13.416   9.653
 1213POPC   GL118877  19.448  13.406   9.161
 1213POPC   GL218878  19.101  13.464   9.108
 1213POPC   C1A18879  19.345  13.611   8.714
 1213POPC   D2A18880  19.108  13.842   8.405
 1213POPC   C3A18881  19.339  13.815   8.022
 1213POPC   C4A18882  19.324  13.539   7.681
 1213POPC   C1B18883  18.765  13.396   8.799
 1213POPC   C2B18884  18.524  13.421   8.446
 1213POPC   C3B18885  18.788  13.519   8.115
 1213POPC   C4B18886  18.856  13.346   7.738
 1214POPC   NC318887  35.011  29.416   9.389
 1214POPC   PO418888  35.401  28.894   9.637
 1214POPC   GL118889  35.239  28.929   9.160
 1214POPC   GL218890  35.077  29.267   8.929
 1214POPC   C1A18891  35.462  28.996   8.750
 1214POPC   D2A18892  35.756  29.284   8.575
 1214POPC   C3A18893  35.623  29.421   8.180
 1214POPC   C4A18894  35.455  29.221   7.821
 1214POPC   C1B18895  35.247  29.414   8.560
 1214POPC   C2B18896  35.081  29.243   8.182
 1214POPC   C3B18897  35.023  29.485   7.805
 1214POPC   C4B18898  35.392  29.744   7.710
 1215POPC   NC318899  20.899  38.133   9.540
 1215POPC   PO418900  20.982  37.407   9.457
 1215POPC   GL118901  20.741  37.553   9.124
 1215POPC   GL218902  20.726  37.883   9.140
 1215POPC   C1A18903  20.409  37.617   8.812
 1215POPC   D2A18904  20.230  37.623   8.399
 1215POPC   C3A18905  20.519  37.649   8.093
 1215POPC   C4A18906  20.474  37.643   7.661
 1215POPC   C1B18907  20.658  38.064   8.756
 1215POPC   C2B18908  20.825  38.002   8.366
 1215POPC   C3B18909  20.731  38.083   7.975
 1215POPC   C4B18910  20.886  37.966   7.609
 1216POPC   NC318911  32.889  30.417   9.652
 1216POPC   PO418912  32.902  31.077   9.528
 1216POPC   GL118913  32.883  30.877   9.167
 1216POPC   GL218914  33.183  30.785   9.076
 1216POPC   C1A18915  32.731  30.714   8.769
 1216POPC   D2A18916  32.701  30.489   8.396
 1216POPC   C3A18917  32.775  30.695   8.008
 1216POPC   C4A18918  33.080  30.495   7.748
 1216POPC   C1B18919  33.287  30.558   8.702
 1216POPC   C2B18920  33.288  30.544   8.233
 1216POPC   C3B18921  33.527  30.684   7.886
 1216POPC   C4B18922  33.337  30.872   7.501
 1217POPC   NC318923  30.219   7.880   9.395
 1217POPC   PO418924  29.729   8.279   9.675
 1217POPC   GL118925  29.726   8.136   9.217
 1217POPC   GL218926  29.993   8.020   8.979
 1217POPC   C1A18927  29.653   8.330   8.809
 1217POPC   D2A18928  29.845   8.092   8.471
 1217POPC   C3A18929  29.784   8.144   8.026
 1217POPC   C4A18930  29.745   8.192   7.585
 1217POPC   C1B18931  30.309   7.988   8.662
 1217POPC   C2B18932  30.220   7.876   8.201
 1217POPC   C3B18933  30.245   7.975   7.777
 1217POPC   C4B18934  30.314   8.281   7.473
 1218POPC   NC318935  35.080   7.349   9.427
 1218POPC   PO418936  35.485   7.908   9.557
 1218POPC   GL118937  35.302   7.750   9.113
 1218POPC   GL218938  35.637   7.766   8.987
 1218POPC   C1A18939  35.186   7.387   8.768
 1218POPC   D2A18940  35.075   7.159   8.366
 1218POPC   C3A18941  35.123   7.368   7.981
 1218POPC   C4A18942  35.424   7.672   7.777
 1218POPC   C1B18943  35.667   7.478   8.655
 1218POPC   C2B18944  35.609   7.497   8.241
 1218POPC   C3B18945  35.614   7.226   7.912
 1218POPC   C4B18946  35.773   7.315   7.483
 1219POPC   NC318947  30.374  31.783   9.360
 1219POPC   PO418948  29.833  31.482   9.413
 1219POPC   GL118949  29.833  31.522   9.046
 1219POPC   GL218950  30.158  31.491   9.013
 1219POPC   C1A18951  29.819  31.644   8.636
 1219POPC   D2A18952  29.640  31.401   8.341
 1219POPC   C3A18953  29.848  31.503   7.974
 1219POPC   C4A18954  29.866  31.564   7.541
 1219POPC   C1B18955  30.324  31.649   8.660
 1219POPC   C2B18956  30.172  31.791   8.259
 1219POPC   C3B18957  30.307  31.720   7.882
 1219POPC   C4B18958  30.376  31.496   7.513
 1220POPC   NC318959  14.399  18.170   9.549
 1220POPC   PO418960  14.778  18.650   9.267
 1220POPC   GL118961  14.493  18.327   9.065
 1220POPC   GL218962  14.190  18.077   9.090
 1220POPC   C1A18963  14.435  18.210   8.664
 1220POPC   D2A18964  14.646  18.199   8.332
 1220POPC   C3A18965  14.523  18.445   8.019
 1220POPC   C4A18966  14.636  18.296   7.634
 1220POPC   C1B18967  13.986  17.973   8.683
 1220POPC   C2B18968  14.126  18.100   8.253
 1220POPC   C3B18969  14.179  18.148   7.809
 1220POPC   C4B18970  14.165  18.211   7.361
 1221POPC   NC318971  11.713  22.026   9.472
 1221POPC   PO418972  12.381  21.937   9.651
 1221POPC   GL118973  12.430  22.193   9.272
 1221POPC   GL218974  12.076  22.278   9.186
 1221POPC   C1A18975  12.442  22.304   8.834
 1221POPC   D2A18976  12.235  22.109   8.474
 1221POPC   C3A18977  12.313  22.254   8.051
 1221POPC   C4A18978  12.377  22.034   7.672
 1221POPC   C1B18979  11.743  22.369   8.873
 1221POPC   C2B18980  11.547  22.286   8.466
 1221POPC   C3B18981  11.824  22.128   8.146
 1221POPC   C4B18982  11.862  22.041   7.710
 1222POPC   NC318983  20.560   4.143   9.480
 1222POPC   PO418984  20.830   4.742   9.249
 1222POPC   GL118985  20.650   4.393   9.057
 1222POPC   GL218986  20.943   4.148   9.143
 1222POPC   C1A18987  20.500   4.055   8.768
 1222POPC   D2A18988  20.302   3.932   8.365
 1222POPC   C3A18989  20.487   4.240   8.090
 1222POPC   C4A18990  20.560   4.420   7.689
 1222POPC   C1B18991  21.044   4.301   8.769
 1222POPC   C2B18992  20.846   4.398   8.424
 1222POPC   C3B18993  20.995   4.338   8.030
 1222POPC   C4B18994  21.066   4.529   7.674
 1223POPC   NC318995   1.189  39.482   9.573
 1223POPC   PO418996   1.568  38.820   9.472
 1223POPC   GL118997   1.265  39.093   9.224
 1223POPC   GL218998   0.972  38.940   9.081
 1223POPC   C1A18999   1.248  39.289   8.786
 1223POPC   D2A19000   1.260  39.526   8.383
 1223POPC   C3A19001   1.400  39.318   8.013
 1223POPC   C4A19002   1.362  39.013   7.744
 1223POPC   C1B19003   0.805  38.970   8.679
 1223POPC   C2B19004   1.035  39.070   8.314
 1223POPC   C3B19005   0.876  39.061   7.930
 1223POPC   C4B19006   0.909  39.488   7.956
 1224POPC   NC319007  43.811   1.189   9.566
 1224POPC   PO419008  43.300   1.503   9.156
 1224POPC   GL119009  43.695   1.281   9.018
 1224POPC   GL219010  43.931   1.005   9.123
 1224POPC   C1A19011  44.000   1.344   8.689
 1224POPC   D2A19012  44.110   1.289   8.260
 1224POPC   C3A19013  43.875   1.457   7.920
 1224POPC   C4A19014  44.082   1.775   7.662
 1224POPC   C1B19015  44.007   0.823   8.739
 1224POPC   C2B19016  43.834   0.769   8.347
 1224POPC   C3B19017  43.930   0.907   7.955
 1224POPC   C4B19018  44.028   0.868   7.534
 1225POPC   NC319019   7.118   6.621   9.380
 1225POPC   PO419020   6.509   6.832   9.606
 1225POPC   GL119021   6.650   6.800   9.202
 1225POPC   GL219022   6.592   6.468   9.054
 1225POPC   C1A19023   6.888   6.863   8.825
 1225POPC   D2A19024   7.054   6.530   8.555
 1225POPC   C3A19025   7.018   6.550   8.099
 1225POPC   C4A19026   6.796   6.296   7.813
 1225POPC   C1B19027   6.509   6.553   8.634
 1225POPC   C2B19028   6.667   6.834   8.348
 1225POPC   C3B19029   6.626   6.895   7.921
 1225POPC   C4B19030   6.538   6.665   7.547
 1226POPC   NC319031  42.847  13.508   9.561
 1226POPC   PO419032  43.079  14.100   9.524
 1226POPC   GL119033  42.950  13.773   9.136
 1226POPC   GL219034  42.794  13.438   9.060
 1226POPC   C1A19035  43.128  13.842   8.702
 1226POPC   D2A19036  43.328  13.869   8.326
 1226POPC   C3A19037  43.045  13.777   8.007
 1226POPC   C4A19038  43.015  14.045   7.697
 1226POPC   C1B19039  43.141  13.351   8.805
 1226POPC   C2B19040  43.085  13.396   8.359
 1226POPC   C3B19041  43.318  13.332   7.972
 1226POPC   C4B19042  43.243  13.539   7.559
 1227POPC   NC319043  34.036  37.179   9.357
 1227POPC   PO419044  33.461  36.871   9.450
 1227POPC   GL119045  33.647  36.785   9.096
 1227POPC   GL219046  33.449  37.059   8.962
 1227POPC   C1A19047  33.915  36.913   8.767
 1227POPC   D2A19048  34.011  36.755   8.377
 1227POPC   C3A19049  33.802  36.868   7.986
 1227POPC   C4A19050  33.621  36.669   7.617
 1227POPC   C1B19051  33.439  36.780   8.606
 1227POPC   C2B19052  33.371  36.994   8.222
 1227POPC   C3B19053  33.353  37.052   7.776
 1227POPC   C4B19054  33.325  37.005   7.300
 1228POPC   NC319055  35.796  43.997   9.516
 1228POPC   PO419056  36.268  43.504   9.583
 1228POPC   GL119057  36.274  43.723   9.190
 1228POPC   GL219058  35.943  43.791   9.095
 1228POPC   C1A19059  36.217  43.615   8.730
 1228POPC   D2A19060  35.955  43.703   8.398
 1228POPC   C3A19061  36.114  43.613   8.002
 1228POPC   C4A19062  36.419  43.866   7.837
 1228POPC   C1B19063  35.948  44.069   8.753
 1228POPC   C2B19064  35.706  44.146   8.399
 1228POPC   C3B19065  35.973  44.101   8.060
 1228POPC   C4B19066  35.908  43.995   7.669
 1229POPC   NC319067  39.808  27.808   9.532
 1229POPC   PO419068  40.446  27.606   9.590
 1229POPC   GL119069  40.208  27.549   9.158
 1229POPC   GL219070  39.904  27.757   9.044
 1229POPC   C1A19071  40.148  27.399   8.695
 1229POPC   D2A19072  40.338  27.427   8.261
 1229POPC   C3A19073  40.123  27.292   7.897
 1229POPC   C4A19074  40.093  27.538   7.539
 1229POPC   C1B19075  39.843  27.793   8.609
 1229POPC   C2B19076  39.797  27.481   8.297
 1229POPC   C3B19077  39.697  27.592   7.905
 1229POPC   C4B19078  39.835  27.952   7.628
 1230POPC   NC319079  32.810  42.717   9.223
 1230POPC   PO419080  32.841  43.360   9.487
 1230POPC   GL119081  32.899  43.201   9.102
 1230POPC   GL219082  33.199  43.023   9.117
 1230POPC   C1A19083  32.866  43.205   8.672
 1230POPC   D2A19084  32.822  43.519   8.356
 1230POPC   C3A19085  32.849  43.221   8.061
 1230POPC   C4A19086  32.790  43.088   7.649
 1230POPC   C1B19087  33.362  43.258   8.771
 1230POPC   C2B19088  33.296  43.083   8.370
 1230POPC   C3B19089  33.341  43.124   7.927
 1230POPC   C4B19090  33.465  43.366   7.553
 1231POPC   NC319091   9.295  43.771   9.574
 1231POPC   PO419092   9.902  43.476   9.535
 1231POPC   GL119093   9.839  43.688   9.110
 1231POPC   GL219094   9.578  43.894   9.178
 1231POPC   C1A19095   9.798  43.824   8.700
 1231POPC   D2A19096   9.948  43.645   8.323
 1231POPC   C3A19097   9.778  43.819   7.958
 1231POPC   C4A19098   9.977  43.805   7.549
 1231POPC   C1B19099   9.426  44.150   8.852
 1231POPC   C2B19100   9.465  44.092   8.411
 1231POPC   C3B19101   9.423  44.224   8.008
 1231POPC   C4B19102   9.287  43.924   7.760
 1232POPC   NC319103  17.430  19.282   9.952
 1232POPC   PO419104  17.827  18.924   9.546
 1232POPC   GL119105  17.509  18.774   9.277
 1232POPC   GL219106  17.363  19.098   9.155
 1232POPC   C1A19107  17.449  18.726   8.829
 1232POPC   D2A19108  17.522  19.049   8.525
 1232POPC   C3A19109  17.451  18.998   8.086
 1232POPC   C4A19110  17.696  18.904   7.735
 1232POPC   C1B19111  17.130  19.274   8.785
 1232POPC   C2B19112  17.028  19.216   8.326
 1232POPC   C3B19113  17.011  19.220   7.889
 1232POPC   C4B19114  17.388  19.346   7.678
 1233POPC   NC319115  24.595   4.162   9.516
 1233POPC   PO419116  24.198   4.769   9.557
 1233POPC   GL119117  24.374   4.677   9.148
 1233POPC   GL219118  24.549   4.367   9.067
 1233POPC   C1A19119  24.479   4.672   8.697
 1233POPC   D2A19120  24.324   4.380   8.415
 1233POPC   C3A19121  24.597   4.467   8.104
 1233POPC   C4A19122  24.465   4.662   7.757
 1233POPC   C1B19123  24.367   4.021   8.841
 1233POPC   C2B19124  24.404   3.859   8.426
 1233POPC   C3B19125  24.396   4.000   8.019
 1233POPC   C4B19126  24.625   4.167   7.677
 1234POPC   NC319127  36.166   6.515   9.588
 1234POPC   PO419128  35.745   6.982   9.823
 1234POPC   GL119129  35.913   6.924   9.405
 1234POPC   GL219130  35.722   6.734   9.189
 1234POPC   C1A19131  36.154   6.814   8.974
 1234POPC   D2A19132  35.977   6.682   8.537
 1234POPC   C3A19133  36.231   6.678   8.145
 1234POPC   C4A19134  36.145   6.548   7.709
 1234POPC   C1B19135  35.640   6.965   8.802
 1234POPC   C2B19136  35.577   6.994   8.390
 1234POPC   C3B19137  35.725   6.729   8.061
 1234POPC   C4B19138  35.634   6.803   7.639
 1235POPC   NC319139  36.097  27.045   9.415
 1235POPC   PO419140  36.262  26.444   9.548
 1235POPC   GL119141  35.945  26.559   9.241
 1235POPC   GL219142  36.214  26.718   9.046
 1235POPC   C1A19143  35.805  26.608   8.795
 1235POPC   D2A19144  36.032  26.702   8.389
 1235POPC   C3A19145  35.752  26.721   8.016
 1235POPC   C4A19146  35.775  26.795   7.562
 1235POPC   C1B19147  36.448  27.040   8.795
 1235POPC   C2B19148  36.313  27.176   8.357
 1235POPC   C3B19149  36.139  27.028   7.967
 1235POPC   C4B19150  36.255  27.002   7.570
 1236POPC   NC319151  31.490   3.219   9.545
 1236POPC   PO419152  31.958   2.711   9.656
 1236POPC   GL119153  31.647   2.813   9.267
 1236POPC   GL219154  31.304   2.737   9.155
 1236POPC   C1A19155  31.664   2.738   8.756
 1236POPC   D2A19156  31.484   2.844   8.341
 1236POPC   C3A19157  31.646   2.905   7.911
 1236POPC   C4A19158  31.801   2.711   7.492
 1236POPC   C1B19159  31.074   2.818   8.768
 1236POPC   C2B19160  31.004   2.671   8.354
 1236POPC   C3B19161  31.152   2.666   7.927
 1236POPC   C4B19162  31.029   2.490   7.497
 1237POPC   NC319163  29.763  32.626   9.439
 1237POPC   PO419164  29.864  33.288   9.401
 1237POPC   GL119165  29.892  32.965   9.095
 1237POPC   GL219166  29.528  32.882   9.028
 1237POPC   C1A19167  29.942  32.779   8.690
 1237POPC   D2A19168  29.996  32.946   8.332
 1237POPC   C3A19169  29.837  32.761   7.981
 1237POPC   C4A19170  30.125  32.924   7.679
 1237POPC   C1B19171  29.650  33.200   8.705
 1237POPC   C2B19172  29.734  33.360   8.293
 1237POPC   C3B19173  29.671  33.225   7.853
 1237POPC   C4B19174  29.697  33.273   7.371
 1238POPC   NC319175  27.164   0.551   9.552
 1238POPC   PO419176  27.712   0.085   9.566
 1238POPC   GL119177  27.607   0.202   9.175
 1238POPC   GL219178  27.335   0.331   9.078
 1238POPC   C1A19179  27.709   0.265   8.747
 1238POPC   D2A19180  27.748  44.966   8.453
 1238POPC   C3A19181  27.833   0.129   8.031
 1238POPC   C4A19182  27.806   0.555   7.823
 1238POPC   C1B19183  27.372   0.670   8.723
 1238POPC   C2B19184  27.557   0.774   8.296
 1238POPC   C3B19185  27.332   0.761   7.903
 1238POPC   C4B19186  27.348   0.731   7.453
 1239POPC   NC319187  36.700  10.157   9.579
 1239POPC   PO419188  37.101  10.632   9.413
 1239POPC   GL119189  37.044  10.382   9.047
 1239POPC   GL219190  36.688  10.308   9.089
 1239POPC   C1A19191  36.845  10.479   8.618
 1239POPC   D2A19192  36.548  10.679   8.331
 1239POPC   C3A19193  36.796  10.777   7.954
 1239POPC   C4A19194  37.108  10.480   7.817
 1239POPC   C1B19195  36.415  10.196   8.745
 1239POPC   C2B19196  36.559  10.101   8.354
 1239POPC   C3B19197  36.691  10.279   8.054
 1239POPC   C4B19198  36.652  10.260   7.674
 1240POPC   NC319199  28.066   7.674   9.488
 1240POPC   PO419200  28.646   7.306   9.454
 1240POPC   GL119201  28.618   7.486   9.078
 1240POPC   GL219202  28.266   7.415   9.114
 1240POPC   C1A19203  28.674   7.328   8.663
 1240POPC   D2A19204  28.595   7.603   8.333
 1240POPC   C3A19205  28.533   7.522   7.889
 1240POPC   C4A19206  28.340   7.165   7.674
 1240POPC   C1B19207  28.251   7.600   8.739
 1240POPC   C2B19208  28.111   7.464   8.405
 1240POPC   C3B19209  28.058   7.423   8.026
 1240POPC   C4B19210  27.966   7.769   7.750
 1241POPC   NC319211   7.278  35.985   9.498
 1241POPC   PO419212   6.822  35.820   9.085
 1241POPC   GL119213   7.146  36.092   9.023
 1241POPC   GL219214   7.129  36.436   9.199
 1241POPC   C1A19215   7.536  35.973   8.827
 1241POPC   D2A19216   7.580  35.799   8.411
 1241POPC   C3A19217   7.644  36.113   8.109
 1241POPC   C4A19218   7.508  36.148   7.707
 1241POPC   C1B19219   7.371  36.480   8.806
 1241POPC   C2B19220   7.256  36.230   8.453
 1241POPC   C3B19221   7.158  36.336   8.031
 1241POPC   C4B19222   7.415  36.650   7.806
 1242POPC   NC319223  32.824  26.275   9.304
 1242POPC   PO419224  32.761  25.723   9.661
 1242POPC   GL119225  33.123  25.890   9.191
 1242POPC   GL219226  33.301  26.252   9.137
 1242POPC   C1A19227  33.004  26.048   8.701
 1242POPC   D2A19228  32.793  26.000   8.269
 1242POPC   C3A19229  33.040  25.997   7.867
 1242POPC   C4A19230  33.145  25.981   7.406
 1242POPC   C1B19231  33.321  26.432   8.703
 1242POPC   C2B19232  33.188  26.328   8.284
 1242POPC   C3B19233  33.432  26.436   7.932
 1242POPC   C4B19234  33.523  26.311   7.516
 1243POPC   NC319235  18.583  20.063   9.521
 1243POPC   PO419236  18.023  19.656   9.409
 1243POPC   GL119237  18.477  19.613   9.208
 1243POPC   GL219238  18.539  19.915   9.019
 1243POPC   C1A19239  18.671  19.489   8.776
 1243POPC   D2A19240  18.622  19.582   8.314
 1243POPC   C3A19241  18.232  19.802   8.124
 1243POPC   C4A19242  18.053  19.848   7.691
 1243POPC   C1B19243  18.437  20.002   8.570
 1243POPC   C2B19244  18.658  20.071   8.178
 1243POPC   C3B19245  18.558  20.016   7.743
 1243POPC   C4B19246  18.313  20.201   7.389
 1244POPC   NC319247  24.367  34.441   9.385
 1244POPC   PO419248  24.823  34.992   9.519
 1244POPC   GL119249  24.661  34.762   9.145
 1244POPC   GL219250  24.804  34.407   9.129
 1244POPC   C1A19251  24.429  34.592   8.748
 1244POPC   D2A19252  24.080  34.653   8.445
 1244POPC   C3A19253  24.070  34.541   7.988
 1244POPC   C4A19254  24.263  34.745   7.628
 1244POPC   C1B19255  24.691  34.156   8.788
 1244POPC   C2B19256  24.779  34.328   8.412
 1244POPC   C3B19257  24.863  34.341   7.987
 1244POPC   C4B19258  24.562  34.351   7.678
 1245POPC   NC319259  30.774   9.361   9.379
 1245POPC   PO419260  30.565   8.731   9.640
 1245POPC   GL119261  30.564   8.767   9.185
 1245POPC   GL219262  30.339   9.057   9.198
 1245POPC   C1A19263  30.813   8.881   8.777
 1245POPC   D2A19264  30.954   8.696   8.356
 1245POPC   C3A19265  30.888   8.950   7.993
 1245POPC   C4A19266  30.843   9.144   7.572
 1245POPC   C1B19267  30.300   8.961   8.766
 1245POPC   C2B19268  30.441   8.815   8.365
 1245POPC   C3B19269  30.387   9.010   7.959
 1245POPC   C4B19270  30.255   9.079   7.542
 1246POPC   NC319271   4.869  13.056   9.464
 1246POPC   PO419272   5.300  12.547   9.432
 1246POPC   GL119273   5.041  12.720   9.131
 1246POPC   GL219274   4.789  12.550   8.982
 1246POPC   C1A19275   4.870  12.996   8.803
 1246POPC   D2A19276   4.701  12.766   8.470
 1246POPC   C3A19277   4.953  12.885   8.144
 1246POPC   C4A19278   4.984  13.077   7.749
 1246POPC   C1B19279   5.111  12.499   8.642
 1246POPC   C2B19280   5.261  12.382   8.222
 1246POPC   C3B19281   5.247  12.507   7.786
 1246POPC   C4B19282   5.391  12.425   7.349
 1247POPC   NC319283  21.782  32.939   9.378
 1247POPC   PO419284  21.121  33.256   9.570
 1247POPC   GL119285  21.253  33.003   9.215
 1247POPC   GL219286  21.506  33.176   9.001
 1247POPC   C1A19287  21.212  32.828   8.793
 1247POPC   D2A19288  21.432  32.992   8.440
 1247POPC   C3A19289  21.315  32.908   8.042
 1247POPC   C4A19290  21.309  33.054   7.607
 1247POPC   C1B19291  21.843  33.011   8.721
 1247POPC   C2B19292  21.890  33.155   8.292
 1247POPC   C3B19293  21.624  33.308   7.927
 1247POPC   C4B19294  21.704  33.336   7.460
 1248POPC   NC319295  31.552  34.021   9.425
 1248POPC   PO419296  31.572  33.318   9.498
 1248POPC   GL119297  31.338  33.648   9.161
 1248POPC   GL219298  31.111  34.009   9.120
 1248POPC   C1A19299  31.396  33.871   8.742
 1248POPC   D2A19300  31.737  33.907   8.465
 1248POPC   C3A19301  31.680  33.853   8.028
 1248POPC   C4A19302  31.629  33.575   7.674
 1248POPC   C1B19303  31.088  34.297   8.771
 1248POPC   C2B19304  31.046  34.130   8.379
 1248POPC   C3B19305  31.170  33.905   8.083
 1248POPC   C4B19306  31.283  33.949   7.703
 1249POPC   NC319307  43.629   9.009   9.656
 1249POPC   PO419308  44.263   9.196   9.764
 1249POPC   GL119309  44.013   9.070   9.318
 1249POPC   GL219310  43.679   9.165   9.178
 1249POPC   C1A19311  44.027   8.959   8.852
 1249POPC   D2A19312  43.860   8.768   8.454
 1249POPC   C3A19313  43.991   8.872   8.028
 1249POPC   C4A19314  43.925   8.936   7.586
 1249POPC   C1B19315  43.619   9.228   8.739
 1249POPC   C2B19316  43.727   9.243   8.312
 1249POPC   C3B19317  43.647   9.251   7.873
 1249POPC   C4B19318  43.753   9.489   7.513
 1250POPC   NC319319  13.213  16.178   9.403
 1250POPC   PO419320  12.775  15.813   9.749
 1250POPC   GL119321  12.842  15.860   9.243
 1250POPC   GL219322  12.779  16.166   9.125
 1250POPC   C1A19323  13.106  16.009   8.790
 1250POPC   D2A19324  13.144  16.286   8.412
 1250POPC   C3A19325  12.988  16.070   8.051
 1250POPC   C4A19326  13.189  15.771   7.748
 1250POPC   C1B19327  12.632  15.846   8.774
 1250POPC   C2B19328  12.672  15.754   8.319
 1250POPC   C3B19329  12.521  15.929   7.907
 1250POPC   C4B19330  12.778  16.014   7.550
 1251POPC   NC319331  20.652  19.220   9.718
 1251POPC   PO419332  20.498  19.864   9.637
 1251POPC   GL119333  20.533  19.717   9.253
 1251POPC   GL219334  20.235  19.527   9.129
 1251POPC   C1A19335  20.792  19.865   8.916
 1251POPC   D2A19336  20.649  20.038   8.535
 1251POPC   C3A19337  20.695  19.831   8.161
 1251POPC   C4A19338  20.686  19.994   7.753
 1251POPC   C1B19339  20.281  19.822   8.827
 1251POPC   C2B19340  20.165  19.842   8.402
 1251POPC   C3B19341  20.202  19.896   7.966
 1251POPC   C4B19342  20.017  20.033   7.570
 1252POPC   NC319343  21.631  19.119   9.541
 1252POPC   PO419344  20.999  19.010   9.496
 1252POPC   GL119345  21.323  19.201   9.133
 1252POPC   GL219346  21.694  19.357   9.113
 1252POPC   C1A19347  21.558  18.972   8.774
 1252POPC   D2A19348  21.383  18.757   8.372
 1252POPC   C3A19349  21.410  18.913   7.949
 1252POPC   C4A19350  21.195  19.239   7.718
 1252POPC   C1B19351  21.661  19.476   8.727
 1252POPC   C2B19352  21.484  19.277   8.356
 1252POPC   C3B19353  21.633  19.373   7.967
 1252POPC   C4B19354  21.822  19.209   7.629
 1253POPC   NC319355  22.458  29.747   9.789
 1253POPC   PO419356  23.027  30.061   9.597
 1253POPC   GL119357  22.912  29.932   9.209
 1253POPC   GL219358  22.575  29.999   9.270
 1253POPC   C1A19359  23.032  29.839   8.773
 1253POPC   D2A19360  23.035  29.664   8.356
 1253POPC   C3A19361  23.228  29.859   7.981
 1253POPC   C4A19362  23.045  29.907   7.566
 1253POPC   C1B19363  22.521  29.862   8.850
 1253POPC   C2B19364  22.488  29.889   8.382
 1253POPC   C3B19365  22.683  29.871   7.951
 1253POPC   C4B19366  22.633  30.214   7.625
 1254POPC   NC319367  19.623   2.042   9.674
 1254POPC   PO419368  20.328   2.112   9.657
 1254POPC   GL119369  20.018   2.031   9.279
 1254POPC   GL219370  19.631   2.013   9.174
 1254POPC   C1A19371  19.974   2.182   8.846
 1254POPC   D2A19372  19.920   2.337   8.410
 1254POPC   C3A19373  19.962   2.005   8.127
 1254POPC   C4A19374  19.888   1.957   7.698
 1254POPC   C1B19375  19.475   2.180   8.781
 1254POPC   C2B19376  19.389   2.461   8.412
 1254POPC   C3B19377  19.518   2.302   8.023
 1254POPC   C4B19378  19.319   2.171   7.662
 1255POPC   NC319379  10.366   3.782   9.626
 1255POPC   PO419380  10.965   3.975   9.573
 1255POPC   GL119381  10.705   3.792   9.237
 1255POPC   GL219382  10.590   3.445   9.293
 1255POPC   C1A19383  10.318   3.719   8.961
 1255POPC   D2A19384  10.290   3.515   8.552
 1255POPC   C3A19385  10.215   3.627   8.118
 1255POPC   C4A19386  10.297   3.500   7.669
 1255POPC   C1B19387  10.768   3.477   8.845
 1255POPC   C2B19388  10.789   3.567   8.396
 1255POPC   C3B19389  10.717   3.455   7.957
 1255POPC   C4B19390  10.812   3.265   7.538
 1256POPC   NC319391  16.935   0.815   9.879
 1256POPC   PO419392  16.709   0.301   9.563
 1256POPC   GL119393  16.802   0.171   9.107
 1256POPC   GL219394  16.850   0.484   9.085
 1256POPC   C1A19395  16.939   0.304   8.642
 1256POPC   D2A19396  16.765   0.155   8.240
 1256POPC   C3A19397  16.751   0.393   7.829
 1256POPC   C4A19398  16.351   0.567   7.675
 1256POPC   C1B19399  16.684   0.746   8.806
 1256POPC   C2B19400  16.763   0.891   8.448
 1256POPC   C3B19401  16.603   0.812   8.068
 1256POPC   C4B19402  16.755   0.931   7.662
 1257POPC   NC319403  31.782  17.704   9.648
 1257POPC   PO419404  31.174  17.810   9.616
 1257POPC   GL119405  31.460  17.698   9.219
 1257POPC   GL219406  31.772  17.487   9.190
 1257POPC   C1A19407  31.576  17.686   8.735
 1257POPC   D2A19408  31.513  17.455   8.319
 1257POPC   C3A19409  31.593  17.690   7.916
 1257POPC   C4A19410  31.365  17.952   7.621
 1257POPC   C1B19411  31.827  17.242   8.803
 1257POPC   C2B19412  31.962  17.176   8.362
 1257POPC   C3B19413  31.785  17.233   7.931
 1257POPC   C4B19414  31.657  17.187   7.488
 1258POPC   NC319415  11.589   8.233   9.566
 1258POPC   PO419416  11.216   7.616   9.597
 1258POPC   GL119417  11.220   7.974   9.223
 1258POPC   GL219418  11.508   8.181   9.087
 1258POPC   C1A19419  11.248   7.918   8.750
 1258POPC   D2A19420  11.452   7.635   8.448
 1258POPC   C3A19421  11.268   7.737   8.072
 1258POPC   C4A19422  11.249   8.009   7.724
 1258POPC   C1B19423  11.426   8.395   8.725
 1258POPC   C2B19424  11.012   8.365   8.546
 1258POPC   C3B19425  11.091   8.283   8.139
 1258POPC   C4B19426  11.352   8.493   7.853
 1259POPC   NC319427   3.509  42.943   9.526
 1259POPC   PO419428   3.531  42.230   9.523
 1259POPC   GL119429   3.480  42.438   9.178
 1259POPC   GL219430   3.813  42.563   9.174
 1259POPC   C1A19431   3.515  42.361   8.760
 1259POPC   D2A19432   3.277  42.279   8.400
 1259POPC   C3A19433   3.402  42.395   8.018
 1259POPC   C4A19434   3.508  42.268   7.655
 1259POPC   C1B19435   3.805  42.776   8.781
 1259POPC   C2B19436   3.685  42.662   8.368
 1259POPC   C3B19437   3.769  42.746   7.948
 1259POPC   C4B19438   3.923  42.554   7.592
 1260POPC   NC319439  14.768  27.892   9.533
 1260POPC   PO419440  14.428  27.334   9.439
 1260POPC   GL119441  14.638  27.315   9.065
 1260POPC   GL219442  14.623  26.978   9.040
 1260POPC   C1A19443  14.835  27.442   8.678
 1260POPC   D2A19444  14.941  27.450   8.226
 1260POPC   C3A19445  14.581  27.563   7.934
 1260POPC   C4A19446  14.233  27.762   7.693
 1260POPC   C1B19447  14.283  27.108   8.733
 1260POPC   C2B19448  14.224  27.327   8.329
 1260POPC   C3B19449  14.174  27.232   7.887
 1260POPC   C4B19450  14.425  27.262   7.502
 1261POPC   NC319451  14.095  13.972   9.435
 1261POPC   PO419452  14.360  14.557   9.564
 1261POPC   GL119453  14.516  14.573   9.172
 1261POPC   GL219454  14.445  14.232   9.125
 1261POPC   C1A19455  14.536  14.566   8.757
 1261POPC   D2A19456  14.315  14.386   8.420
 1261POPC   C3A19457  14.403  14.635   8.069
 1261POPC   C4A19458  14.557  14.537   7.674
 1261POPC   C1B19459  14.698  14.047   8.843
 1261POPC   C2B19460  14.690  14.028   8.443
 1261POPC   C3B19461  14.657  14.184   8.053
 1261POPC   C4B19462  14.608  13.964   7.705
 1262POPC   NC319463   4.775  22.320   9.622
 1262POPC   PO419464   5.396  22.607   9.491
 1262POPC   GL119465   5.138  22.851   9.182
 1262POPC   GL219466   4.818  22.750   9.116
 1262POPC   C1A19467   5.172  23.174   8.856
 1262POPC   D2A19468   5.281  23.272   8.447
 1262POPC   C3A19469   5.251  22.921   8.190
 1262POPC   C4A19470   5.257  23.025   7.766
 1262POPC   C1B19471   5.059  22.687   8.704
 1262POPC   C2B19472   4.890  22.533   8.314
 1262POPC   C3B19473   4.912  22.605   7.876
 1262POPC   C4B19474   4.758  22.558   7.425
 1263POPC   NC319475  15.668  14.055   9.555
 1263POPC   PO419476  16.210  14.421   9.573
 1263POPC   GL119477  16.089  14.363   9.166
 1263POPC   GL219478  15.769  14.452   9.083
 1263POPC   C1A19479  16.175  14.144   8.810
 1263POPC   D2A19480  16.405  14.186   8.464
 1263POPC   C3A19481  16.201  14.018   8.068
 1263POPC   C4A19482  16.240  14.229   7.689
 1263POPC   C1B19483  15.909  14.578   8.696
 1263POPC   C2B19484  15.945  14.381   8.310
 1263POPC   C3B19485  15.791  14.313   7.895
 1263POPC   C4B19486  15.807  14.550   7.505
 1264POPC   NC319487  29.502  22.922   9.393
 1264POPC   PO419488  29.138  23.429   9.446
 1264POPC   GL119489  29.256  23.256   9.066
 1264POPC   GL219490  29.128  22.915   9.036
 1264POPC   C1A19491  29.315  23.167   8.630
 1264POPC   D2A19492  29.184  22.916   8.283
 1264POPC   C3A19493  29.188  23.159   7.922
 1264POPC   C4A19494  29.151  23.312   7.523
 1264POPC   C1B19495  29.089  22.598   8.712
 1264POPC   C2B19496  29.257  22.398   8.333
 1264POPC   C3B19497  29.368  22.553   7.929
 1264POPC   C4B19498  29.072  22.735   7.667
 1265POPC   NC319499  32.012  39.655   9.386
 1265POPC   PO419500  32.526  40.086   9.485
 1265POPC   GL119501  32.414  39.895   9.116
 1265POPC   GL219502  32.137  40.110   9.076
 1265POPC   C1A19503  32.299  39.818   8.677
 1265POPC   D2A19504  32.221  39.652   8.273
 1265POPC   C3A19505  32.276  39.854   7.915
 1265POPC   C4A19506  32.047  39.667   7.627
 1265POPC   C1B19507  32.461  40.294   8.758
 1265POPC   C2B19508  32.393  40.211   8.310
 1265POPC   C3B19509  32.077  40.300   8.004
 1265POPC   C4B19510  32.264  40.329   7.655
 1266POPC   NC319511  43.741  33.483   9.461
 1266POPC   PO419512  43.851  34.135   9.532
 1266POPC   GL119513  43.984  33.880   9.195
 1266POPC   GL219514  44.146  34.172   9.102
 1266POPC   C1A19515  43.870  33.785   8.772
 1266POPC   D2A19516  43.665  33.872   8.368
 1266POPC   C3A19517  43.866  33.654   8.030
 1266POPC   C4A19518  43.695  33.369   7.763
 1266POPC   C1B19519  44.289  34.049   8.715
 1266POPC   C2B19520  44.178  33.943   8.313
 1266POPC   C3B19521  44.292  33.972   7.899
 1266POPC   C4B19522  44.260  34.181   7.494
 1267POPC   NC319523  11.397  16.142   9.579
 1267POPC   PO419524  10.898  16.019   9.369
 1267POPC   GL119525  11.287  15.926   9.114
 1267POPC   GL219526  11.502  16.214   9.060
 1267POPC   C1A19527  11.516  15.813   8.716
 1267POPC   D2A19528  11.681  15.991   8.303
 1267POPC   C3A19529  11.506  15.835   7.895
 1267POPC   C4A19530  11.560  15.726   7.441
 1267POPC   C1B19531  11.378  16.296   8.612
 1267POPC   C2B19532  11.287  16.285   8.139
 1267POPC   C3B19533  10.955  16.237   7.833
 1267POPC   C4B19534  10.712  16.136   7.465
 1268POPC   NC319535  30.358  27.486   9.568
 1268POPC   PO419536  30.959  27.752   9.581
 1268POPC   GL119537  30.807  27.743   9.141
 1268POPC   GL219538  30.423  27.743   9.119
 1268POPC   C1A19539  30.762  27.852   8.684
 1268POPC   D2A19540  30.691  27.660   8.243
 1268POPC   C3A19541  30.849  27.745   7.800
 1268POPC   C4A19542  31.065  27.662   7.376
 1268POPC   C1B19543  30.489  27.418   8.788
 1268POPC   C2B19544  30.366  27.284   8.376
 1268POPC   C3B19545  30.425  27.345   7.947
 1268POPC   C4B19546  30.302  27.752   7.848
 1269POPC   NC319547   3.300  39.903   9.457
 1269POPC   PO419548   3.935  39.951   9.671
 1269POPC   GL119549   3.799  40.155   9.243
 1269POPC   GL219550   3.438  40.266   9.132
 1269POPC   C1A19551   3.812  40.145   8.776
 1269POPC   D2A19552   3.784  40.376   8.400
 1269POPC   C3A19553   3.844  40.163   8.047
 1269POPC   C4A19554   3.619  39.906   7.766
 1269POPC   C1B19555   3.310  40.024   8.752
 1269POPC   C2B19556   3.420  39.949   8.297
 1269POPC   C3B19557   3.147  39.979   7.921
 1269POPC   C4B19558   3.150  40.066   7.444
 1270POPC   NC319559   5.032   8.483   9.855
 1270POPC   PO419560   5.365   8.976   9.458
 1270POPC   GL119561   5.383   9.310   9.060
 1270POPC   GL219562   5.169   9.023   8.939
 1270POPC   C1A19563   5.234   9.355   8.585
 1270POPC   D2A19564   5.107   8.949   8.362
 1270POPC   C3A19565   5.012   8.906   7.907
 1270POPC   C4A19566   4.988   9.168   7.517
 1270POPC   C1B19567   4.763   9.121   8.697
 1270POPC   C2B19568   4.605   8.995   8.259
 1270POPC   C3B19569   4.510   8.991   7.796
 1270POPC   C4B19570   4.739   8.701   7.483
 1271POPC   NC319571   5.492  13.838   9.437
 1271POPC   PO419572   4.923  13.522   9.493
 1271POPC   GL119573   5.046  13.766   9.156
 1271POPC   GL219574   4.861  14.100   9.171
 1271POPC   C1A19575   5.330  13.589   8.835
 1271POPC   D2A19576   5.192  13.277   8.520
 1271POPC   C3A19577   5.094  13.391   8.127
 1271POPC   C4A19578   4.793  13.532   7.809
 1271POPC   C1B19579   5.010  14.042   8.704
 1271POPC   C2B19580   5.277  13.799   8.383
 1271POPC   C3B19581   5.174  13.877   7.973
 1271POPC   C4B19582   4.787  14.041   7.801
 1272POPC   NC319583   8.770  21.283   9.683
 1272POPC   PO419584   9.311  21.611   9.539
 1272POPC   GL119585   8.974  21.539   9.253
 1272POPC   GL219586   8.974  21.210   9.203
 1272POPC   C1A19587   9.029  21.577   8.807
 1272POPC   D2A19588   8.790  21.535   8.441
 1272POPC   C3A19589   9.011  21.518   8.051
 1272POPC   C4A19590   8.911  21.670   7.676
 1272POPC   C1B19591   8.932  21.100   8.792
 1272POPC   C2B19592   9.128  21.123   8.382
 1272POPC   C3B19593   9.030  21.028   7.985
 1272POPC   C4B19594   9.118  21.215   7.630
 1273POPC   NC319595  29.598   6.240   9.366
 1273POPC   PO419596  29.776   5.560   9.412
 1273POPC   GL119597  29.970   5.824   9.079
 1273POPC   GL219598  29.951   6.184   8.962
 1273POPC   C1A19599  30.277   5.649   8.783
 1273POPC   D2A19600  30.195   5.547   8.355
 1273POPC   C3A19601  30.137   5.868   8.036
 1273POPC   C4A19602  29.948   5.737   7.644
 1273POPC   C1B19603  29.951   5.966   8.580
 1273POPC   C2B19604  29.700   5.890   8.259
 1273POPC   C3B19605  29.682   6.098   7.878
 1273POPC   C4B19606  29.686   6.145   7.425
 1274POPC   NC319607  44.333   6.496   9.552
 1274POPC   PO419608  44.925   6.732   9.500
 1274POPC   GL119609  44.601   6.604   9.119
 1274POPC   GL219610  44.310   6.337   9.056
 1274POPC   C1A19611  44.542   6.604   8.647
 1274POPC   D2A19612  44.293   6.462   8.267
 1274POPC   C3A19613  44.368   6.774   7.902
 1274POPC   C4A19614  44.686   7.061   7.737
 1274POPC   C1B19615  44.429   6.114   8.660
 1274POPC   C2B19616  44.755   6.222   8.341
 1274POPC   C3B19617  44.756   6.457   7.965
 1274POPC   C4B19618  44.493   6.352   7.609
 1275POPC   NC319619  12.540  10.185   9.493
 1275POPC   PO419620  13.003  10.581   9.323
 1275POPC   GL119621  12.697  10.448   9.067
 1275POPC   GL219622  12.766  10.148   8.917
 1275POPC   C1A19623  12.548  10.605   8.693
 1275POPC   D2A19624  12.797  10.685   8.323
 1275POPC   C3A19625  12.970  10.335   8.108
 1275POPC   C4A19626  12.993  10.334   7.665
 1275POPC   C1B19627  13.070  10.386   8.657
 1275POPC   C2B19628  13.351  10.597   8.343
 1275POPC   C3B19629  13.390  10.567   7.878
 1275POPC   C4B19630  13.127  10.796   7.558
 1276POPC   NC319631  29.326  20.144   9.768
 1276POPC   PO419632  29.133  20.799   9.573
 1276POPC   GL119633  29.250  20.796   9.151
 1276POPC   GL219634  29.483  21.090   9.144
 1276POPC   C1A19635  29.212  20.578   8.727
 1276POPC   D2A19636  29.509  20.439   8.407
 1276POPC   C3A19637  29.309  20.332   8.005
 1276POPC   C4A19638  28.920  20.177   7.817
 1276POPC   C1B19639  29.225  21.097   8.755
 1276POPC   C2B19640  28.904  20.896   8.469
 1276POPC   C3B19641  28.904  20.713   8.053
 1276POPC   C4B19642  29.080  20.988   7.743
 1277POPC   NC319643  32.639   4.454   9.912
 1277POPC   PO419644  32.137   4.166   9.763
 1277POPC   GL119645  32.395   4.368   9.320
 1277POPC   GL219646  32.208   4.606   9.049
 1277POPC   C1A19647  32.499   4.228   8.870
 1277POPC   D2A19648  32.472   4.441   8.441
 1277POPC   C3A19649  32.451   4.255   8.029
 1277POPC   C4A19650  32.419   4.124   7.601
 1277POPC   C1B19651  32.032   4.352   8.692
 1277POPC   C2B19652  32.104   4.067   8.355
 1277POPC   C3B19653  31.982   3.980   7.924
 1277POPC   C4B19654  31.928   4.108   7.494
 1278POPC   NC319655  12.479  33.549   9.564
 1278POPC   PO419656  11.959  33.929   9.422
 1278POPC   GL119657  12.026  33.797   9.055
 1278POPC   GL219658  12.371  33.800   9.079
 1278POPC   C1A19659  11.912  33.848   8.631
 1278POPC   D2A19660  11.964  33.726   8.232
 1278POPC   C3A19661  11.897  34.028   7.934
 1278POPC   C4A19662  12.010  33.860   7.550
 1278POPC   C1B19663  12.320  34.133   8.736
 1278POPC   C2B19664  12.269  34.135   8.290
 1278POPC   C3B19665  12.378  33.854   7.926
 1278POPC   C4B19666  12.389  33.473   7.639
 1279POPC   NC319667   5.564  37.598   9.574
 1279POPC   PO419668   4.909  37.683   9.687
 1279POPC   GL119669   4.962  37.483   9.287
 1279POPC   GL219670   5.174  37.711   9.204
 1279POPC   C1A19671   5.053  37.368   8.841
 1279POPC   D2A19672   5.161  37.619   8.445
 1279POPC   C3A19673   5.303  37.429   8.041
 1279POPC   C4A19674   5.293  37.552   7.609
 1279POPC   C1B19675   5.188  38.012   8.867
 1279POPC   C2B19676   5.238  38.157   8.455
 1279POPC   C3B19677   5.315  37.973   8.071
 1279POPC   C4B19678   5.141  38.034   7.668
 1280POPC   NC319679  38.583  29.381   9.376
 1280POPC   PO419680  38.119  29.009   9.523
 1280POPC   GL119681  38.310  29.053   9.141
 1280POPC   GL219682  38.179  29.396   9.005
 1280POPC   C1A19683  38.522  29.130   8.751
 1280POPC   D2A19684  38.474  28.846   8.420
 1280POPC   C3A19685  38.496  29.077   8.059
 1280POPC   C4A19686  38.363  28.917   7.696
 1280POPC   C1B19687  38.436  29.623   8.655
 1280POPC   C2B19688  38.508  29.580   8.184
 1280POPC   C3B19689  38.335  29.470   7.743
 1280POPC   C4B19690  38.440  29.454   7.291
 1281POPC   NC319691  41.929  39.208   9.478
 1281POPC   PO419692  41.323  38.917   9.375
 1281POPC   GL119693  41.641  39.050   9.093
 1281POPC   GL219694  41.652  39.404   9.040
 1281POPC   C1A19695  41.722  39.084   8.668
 1281POPC   D2A19696  41.491  38.977   8.336
 1281POPC   C3A19697  41.769  39.030   8.013
 1281POPC   C4A19698  41.767  39.484   7.896
 1281POPC   C1B19699  41.355  39.500   8.683
 1281POPC   C2B19700  41.338  39.474   8.204
 1281POPC   C3B19701  41.346  39.211   7.832
 1281POPC   C4B19702  41.218  39.281   7.393
 1282POPC   NC319703   0.938  35.365   9.419
 1282POPC   PO419704   1.602  35.406   9.380
 1282POPC   GL119705   1.297  35.398   9.056
 1282POPC   GL219706   1.032  35.660   8.991
 1282POPC   C1A19707   1.377  35.211   8.666
 1282POPC   D2A19708   1.214  35.247   8.283
 1282POPC   C3A19709   1.279  35.093   7.928
 1282POPC   C4A19710   1.475  35.359   7.614
 1282POPC   C1B19711   0.869  35.357   8.683
 1282POPC   C2B19712   0.759  35.050   8.361
 1282POPC   C3B19713   0.761  35.255   7.957
 1282POPC   C4B19714   0.969  35.243   7.565
 1283POPC   NC319715  35.029  27.468   9.393
 1283POPC   PO419716  34.362  27.594   9.527
 1283POPC   GL119717  34.532  27.737   9.120
 1283POPC   GL219718  34.848  27.669   8.954
 1283POPC   C1A19719  34.433  27.723   8.659
 1283POPC   D2A19720  34.402  27.525   8.262
 1283POPC   C3A19721  34.360  27.599   7.834
 1283POPC   C4A19722  34.620  27.537   7.498
 1283POPC   C1B19723  34.706  27.261   8.756
 1283POPC   C2B19724  34.761  27.175   8.294
 1283POPC   C3B19725  34.856  27.474   7.942
 1283POPC   C4B19726  35.115  27.480   7.529
 1284POPC   NC319727   0.155  39.898   9.703
 1284POPC   PO419728   0.739  40.137   9.380
 1284POPC   GL119729   0.565  40.139   9.019
 1284POPC   GL219730   0.276  39.958   9.188
 1284POPC   C1A19731   0.598  40.144   8.583
 1284POPC   D2A19732   0.467  39.773   8.341
 1284POPC   C3A19733   0.587  39.856   7.945
 1284POPC   C4A19734   0.588  40.190   7.706
 1284POPC   C1B19735   0.189  39.886   8.767
 1284POPC   C2B19736   0.091  40.134   8.404
 1284POPC   C3B19737   0.121  40.010   7.991
 1284POPC   C4B19738  44.964  40.223   7.674
 1285POPC   NC319739  37.410  22.571   9.743
 1285POPC   PO419740  37.599  21.970   9.760
 1285POPC   GL119741  37.723  22.163   9.319
 1285POPC   GL219742  37.474  21.975   9.093
 1285POPC   C1A19743  37.767  22.318   8.874
 1285POPC   D2A19744  37.559  22.523   8.538
 1285POPC   C3A19745  37.452  22.292   8.134
 1285POPC   C4A19746  37.661  22.361   7.738
 1285POPC   C1B19747  37.632  21.811   8.728
 1285POPC   C2B19748  37.461  21.728   8.331
 1285POPC   C3B19749  37.658  21.815   7.966
 1285POPC   C4B19750  37.461  21.896   7.620
 1286POPC   NC319751  17.238  29.862   9.695
 1286POPC   PO419752  17.803  30.129   9.697
 1286POPC   GL119753  17.561  29.941   9.294
 1286POPC   GL219754  17.271  29.774   9.199
 1286POPC   C1A19755  17.662  29.845   8.852
 1286POPC   D2A19756  17.610  29.646   8.451
 1286POPC   C3A19757  17.579  29.854   8.065
 1286POPC   C4A19758  17.518  29.935   7.633
 1286POPC   C1B19759  17.159  29.755   8.769
 1286POPC   C2B19760  17.091  29.661   8.348
 1286POPC   C3B19761  17.080  29.798   7.929
 1286POPC   C4B19762  17.028  29.978   7.518
 1287POPC   NC319763  35.193  17.865   9.471
 1287POPC   PO419764  35.707  17.441   9.440
 1287POPC   GL119765  35.471  17.692   9.084
 1287POPC   GL219766  35.131  17.590   9.049
 1287POPC   C1A19767  35.286  17.888   8.684
 1287POPC   D2A19768  35.339  17.589   8.322
 1287POPC   C3A19769  35.443  17.773   7.923
 1287POPC   C4A19770  35.877  17.845   7.731
 1287POPC   C1B19771  35.035  17.307   8.657
 1287POPC   C2B19772  34.932  17.284   8.199
 1287POPC   C3B19773  35.162  17.302   7.793
 1287POPC   C4B19774  35.119  17.259   7.312
 1288POPC   NC319775  20.139  28.294   9.445
 1288POPC   PO419776  19.436  28.165   9.336
 1288POPC   GL119777  19.778  28.127   9.070
 1288POPC   GL219778  19.540  28.147   8.827
 1288POPC   C1A19779  20.059  28.176   8.682
 1288POPC   D2A19780  20.141  28.100   8.232
 1288POPC   C3A19781  20.141  28.448   8.008
 1288POPC   C4A19782  20.170  28.520   7.607
 1288POPC   C1B19783  19.405  28.492   8.593
 1288POPC   C2B19784  19.701  28.449   8.284
 1288POPC   C3B19785  19.700  28.212   7.924
 1288POPC   C4B19786  19.689  28.348   7.511
 1289POPC   NC319787  23.976  18.641   9.364
 1289POPC   PO419788  23.447  18.268   9.519
 1289POPC   GL119789  23.590  18.372   9.087
 1289POPC   GL219790  23.916  18.238   9.032
 1289POPC   C1A19791  23.600  18.310   8.619
 1289POPC   D2A19792  23.458  18.625   8.329
 1289POPC   C3A19793  23.663  18.633   7.941
 1289POPC   C4A19794  23.672  18.512   7.505
 1289POPC   C1B19795  24.081  18.486   8.678
 1289POPC   C2B19796  23.964  18.387   8.257
 1289POPC   C3B19797  23.967  18.215   7.840
 1289POPC   C4B19798  24.149  18.345   7.437
 1290POPC   NC319799  27.563   2.754   9.607
 1290POPC   PO419800  27.989   2.191   9.543
 1290POPC   GL119801  27.751   2.513   9.187
 1290POPC   GL219802  27.588   2.895   9.129
 1290POPC   C1A19803  27.857   2.713   8.753
 1290POPC   D2A19804  27.645   2.652   8.366
 1290POPC   C3A19805  27.772   2.627   7.960
 1290POPC   C4A19806  27.461   2.602   7.638
 1290POPC   C1B19807  27.283   2.952   8.780
 1290POPC   C2B19808  27.180   2.859   8.323
 1290POPC   C3B19809  27.317   3.020   7.915
 1290POPC   C4B19810  27.122   2.976   7.487
 1291POPC   NC319811  31.499   0.345   9.427
 1291POPC   PO419812  31.401   1.011   9.500
 1291POPC   GL119813  31.270   0.746   9.162
 1291POPC   GL219814  31.541   0.511   8.974
 1291POPC   C1A19815  31.183   0.723   8.738
 1291POPC   D2A19816  31.499   0.533   8.446
 1291POPC   C3A19817  31.272   0.485   8.092
 1291POPC   C4A19818  31.262   0.679   7.709
 1291POPC   C1B19819  31.401   0.134   8.739
 1291POPC   C2B19820  31.433   0.005   8.287
 1291POPC   C3B19821  31.402   0.067   7.817
 1291POPC   C4B19822  31.106  44.905   7.475
 1292POPC   NC319823  16.988  12.482   9.468
 1292POPC   PO419824  16.780  13.180   9.491
 1292POPC   GL119825  16.823  12.917   9.173
 1292POPC   GL219826  17.180  12.836   9.131
 1292POPC   C1A19827  16.821  13.051   8.745
 1292POPC   D2A19828  16.725  13.249   8.351
 1292POPC   C3A19829  16.893  13.010   7.988
 1292POPC   C4A19830  16.804  12.955   7.510
 1292POPC   C1B19831  16.972  12.557   8.836
 1292POPC   C2B19832  16.959  12.617   8.417
 1292POPC   C3B19833  16.948  12.487   8.005
 1292POPC   C4B19834  16.589  12.610   7.822
 1293POPC   NC319835  19.834  18.794   9.381
 1293POPC   PO419836  19.669  18.197   9.673
 1293POPC   GL119837  19.769  18.356   9.154
 1293POPC   GL219838  20.054  18.246   9.039
 1293POPC   C1A19839  19.738  18.127   8.682
 1293POPC   D2A19840  19.947  17.958   8.294
 1293POPC   C3A19841  19.801  18.137   7.881
 1293POPC   C4A19842  19.442  18.330   7.618
 1293POPC   C1B19843  20.338  18.517   8.762
 1293POPC   C2B19844  20.263  18.760   8.408
 1293POPC   C3B19845  20.227  18.610   8.018
 1293POPC   C4B19846  20.124  18.453   7.665
 1294POPC   NC319847  34.287  24.446   9.521
 1294POPC   PO419848  33.661  24.467   9.632
 1294POPC   GL119849  33.797  24.413   9.204
 1294POPC   GL219850  34.010  24.125   9.227
 1294POPC   C1A19851  33.666  24.587   8.783
 1294POPC   D2A19852  33.604  24.837   8.390
 1294POPC   C3A19853  33.753  24.640   8.038
 1294POPC   C4A19854  33.821  24.790   7.640
 1294POPC   C1B19855  34.119  24.289   8.818
 1294POPC   C2B19856  33.941  24.343   8.418
 1294POPC   C3B19857  34.049  24.185   8.034
 1294POPC   C4B19858  34.035  24.326   7.664
 1295POPC   NC319859  32.258  27.079   9.481
 1295POPC   PO419860  32.122  26.491   9.611
 1295POPC   GL119861  32.075  26.684   9.208
 1295POPC   GL219862  32.434  26.634   9.137
 1295POPC   C1A19863  31.933  26.892   8.819
 1295POPC   D2A19864  32.126  26.773   8.415
 1295POPC   C3A19865  31.953  26.851   8.007
 1295POPC   C4A19866  32.119  26.650   7.609
 1295POPC   C1B19867  32.458  26.950   8.812
 1295POPC   C2B19868  32.597  26.995   8.383
 1295POPC   C3B19869  32.474  26.876   7.962
 1295POPC   C4B19870  32.680  27.156   7.673
 1296POPC   NC319871   3.995   4.334   9.569
 1296POPC   PO419872   3.417   4.178   9.620
 1296POPC   GL119873   3.666   4.109   9.250
 1296POPC   GL219874   3.672   4.435   9.147
 1296POPC   C1A19875   3.754   3.972   8.818
 1296POPC   D2A19876   3.733   4.077   8.354
 1296POPC   C3A19877   3.567   3.952   7.925
 1296POPC   C4A19878   3.256   4.148   7.611
 1296POPC   C1B19879   3.547   4.454   8.701
 1296POPC   C2B19880   3.605   4.571   8.251
 1296POPC   C3B19881   3.641   4.451   7.794
 1296POPC   C4B19882   3.538   4.516   7.338
 1297POPC   NC319883  34.504  40.178   9.399
 1297POPC   PO419884  35.098  40.263   9.728
 1297POPC   GL119885  34.975  40.198   9.213
 1297POPC   GL219886  34.907  39.864   8.981
 1297POPC   C1A19887  34.781  40.337   8.801
 1297POPC   D2A19888  34.695  40.157   8.405
 1297POPC   C3A19889  34.825  40.272   7.986
 1297POPC   C4A19890  34.738  40.133   7.525
 1297POPC   C1B19891  34.463  39.823   8.785
 1297POPC   C2B19892  34.218  39.970   8.418
 1297POPC   C3B19893  34.404  39.992   8.003
 1297POPC   C4B19894  34.217  39.980   7.627
 1298POPC   NC319895   5.781   8.699   9.387
 1298POPC   PO419896   6.098   9.202   9.536
 1298POPC   GL119897   6.168   9.008   9.139
 1298POPC   GL219898   5.827   9.087   9.105
 1298POPC   C1A19899   6.060   8.696   8.788
 1298POPC   D2A19900   5.939   8.651   8.337
 1298POPC   C3A19901   5.983   8.970   8.012
 1298POPC   C4A19902   6.049   8.960   7.561
 1298POPC   C1B19903   5.651   9.014   8.733
 1298POPC   C2B19904   5.595   9.068   8.337
 1298POPC   C3B19905   5.336   9.276   8.020
 1298POPC   C4B19906   5.495   9.137   7.628
 1299POPC   NC319907  28.835  12.965   9.559
 1299POPC   PO419908  29.497  12.611   9.451
 1299POPC   GL119909  29.423  12.740   9.044
 1299POPC   GL219910  29.137  12.939   9.106
 1299POPC   C1A19911  29.135  12.685   8.667
 1299POPC   D2A19912  28.942  12.839   8.291
 1299POPC   C3A19913  28.982  12.595   7.915
 1299POPC   C4A19914  29.097  12.711   7.482
 1299POPC   C1B19915  29.369  13.132   8.726
 1299POPC   C2B19916  29.314  13.211   8.283
 1299POPC   C3B19917  29.260  13.058   7.881
 1299POPC   C4B19918  29.410  13.111   7.451
 1300POPC   NC319919  18.400  35.902   9.517
 1300POPC   PO419920  18.719  36.491   9.444
 1300POPC   GL119921  18.455  36.271   9.162
 1300POPC   GL219922  18.596  35.985   9.036
 1300POPC   C1A19923  18.058  36.248   8.939
 1300POPC   D2A19924  17.890  36.318   8.529
 1300POPC   C3A19925  18.145  36.237   8.156
 1300POPC   C4A19926  18.006  36.065   7.774
 1300POPC   C1B19927  18.422  36.028   8.629
 1300POPC   C2B19928  18.600  35.970   8.227
 1300POPC   C3B19929  18.537  36.070   7.796
 1300POPC   C4B19930  18.787  36.415   7.552
 1301POPC   NC319931   9.919   1.423   9.517
 1301POPC   PO419932   9.484   1.083   9.321
 1301POPC   GL119933   9.703   1.223   8.975
 1301POPC   GL219934   9.762   1.546   9.040
 1301POPC   C1A19935   9.694   1.106   8.518
 1301POPC   D2A19936   9.659   0.988   8.069
 1301POPC   C3A19937   9.432   1.250   7.770
 1301POPC   C4A19938   9.535   1.326   7.334
 1301POPC   C1B19939   9.935   1.538   8.616
 1301POPC   C2B19940  10.002   1.372   8.179
 1301POPC   C3B19941   9.964   1.338   7.700
 1301POPC   C4B19942   9.949   1.661   7.365
 1302POPC   NC319943  28.262  28.830   9.549
 1302POPC   PO419944  28.321  29.539   9.543
 1302POPC   GL119945  28.505  29.226   9.224
 1302POPC   GL219946  28.389  28.904   9.072
 1302POPC   C1A19947  28.375  29.330   8.779
 1302POPC   D2A19948  28.201  29.235   8.415
 1302POPC   C3A19949  28.415  29.308   8.056
 1302POPC   C4A19950  28.192  29.425   7.698
 1302POPC   C1B19951  28.450  28.809   8.642
 1302POPC   C2B19952  28.422  28.505   8.309
 1302POPC   C3B19953  28.260  28.673   7.972
 1302POPC   C4B19954  28.415  28.956   7.682
 1303POPC   NC319955  35.711  16.971   9.381
 1303POPC   PO419956  35.051  16.689   9.507
 1303POPC   GL119957  35.283  16.770   9.152
 1303POPC   GL219958  35.245  17.108   9.126
 1303POPC   C1A19959  35.326  16.802   8.697
 1303POPC   D2A19960  35.362  17.037   8.314
 1303POPC   C3A19961  35.318  16.749   7.978
 1303POPC   C4A19962  35.164  16.832   7.570
 1303POPC   C1B19963  35.522  17.269   8.800
 1303POPC   C2B19964  35.813  17.171   8.493
 1303POPC   C3B19965  35.824  16.929   8.086
 1303POPC   C4B19966  35.612  17.060   7.697
 1304POPC   NC319967  12.244  34.306   9.378
 1304POPC   PO419968  11.733  34.687   9.521
 1304POPC   GL119969  11.869  34.836   9.145
 1304POPC   GL219970  12.237  34.848   9.211
 1304POPC   C1A19971  11.722  34.700   8.713
 1304POPC   D2A19972  11.816  34.364   8.413
 1304POPC   C3A19973  12.030  34.510   8.037
 1304POPC   C4A19974  11.937  34.426   7.619
 1304POPC   C1B19975  12.207  34.646   8.800
 1304POPC   C2B19976  12.371  34.642   8.409
 1304POPC   C3B19977  12.519  34.630   8.013
 1304POPC   C4B19978  12.441  34.332   7.721
 1305POPC   NC319979  40.328  26.360   9.619
 1305POPC   PO419980  40.474  25.729   9.420
 1305POPC   GL119981  40.699  26.068   9.270
 1305POPC   GL219982  40.459  26.277   9.119
 1305POPC   C1A19983  40.870  26.135   8.865
 1305POPC   D2A19984  40.689  26.252   8.459
 1305POPC   C3A19985  40.712  26.047   8.041
 1305POPC   C4A19986  40.871  26.094   7.612
 1305POPC   C1B19987  40.403  25.955   8.794
 1305POPC   C2B19988  40.277  25.926   8.352
 1305POPC   C3B19989  40.355  25.639   7.998
 1305POPC   C4B19990  40.635  25.654   7.698
 1306POPC   NC319991  37.735  24.929   9.509
 1306POPC   PO419992  37.653  24.235   9.480
 1306POPC   GL119993  37.801  24.521   9.158
 1306POPC   GL219994  37.576  24.815   9.034
 1306POPC   C1A19995  37.981  24.334   8.789
 1306POPC   D2A19996  37.928  24.477   8.388
 1306POPC   C3A19997  37.587  24.298   8.187
 1306POPC   C4A19998  37.671  24.534   7.834
 1306POPC   C1B19999  37.496  24.530   8.693
 1306POPC   C2B20000  37.324  24.715   8.301
 1306POPC   C3B20001  37.237  24.832   7.881
 1306POPC   C4B20002  37.338  24.675   7.463
 1307POPC   NC320003  10.416  36.347   9.392
 1307POPC   PO420004  10.875  35.804   9.447
 1307POPC   GL120005  10.690  35.988   9.092
 1307POPC   GL220006  10.665  36.345   8.960
 1307POPC   C1A20007  10.407  35.976   8.757
 1307POPC   D2A20008  10.591  36.217   8.426
 1307POPC   C3A20009  10.418  36.105   8.044
 1307POPC   C4A20010  10.567  36.243   7.641
 1307POPC   C1B20011  10.275  36.480   8.745
 1307POPC   C2B20012  10.194  36.495   8.300
 1307POPC   C3B20013  10.315  36.579   7.884
 1307POPC   C4B20014  10.119  36.377   7.453
 1308POPC   NC320015   7.126  36.889   9.470
 1308POPC   PO420016   7.578  36.357   9.460
 1308POPC   GL120017   7.558  36.740   9.210
 1308POPC   GL220018   7.877  36.788   9.180
 1308POPC   C1A20019   7.591  36.968   8.789
 1308POPC   D2A20020   7.345  37.247   8.497
 1308POPC   C3A20021   7.311  37.143   8.058
 1308POPC   C4A20022   7.022  37.182   7.708
 1308POPC   C1B20023   7.919  36.521   8.815
 1308POPC   C2B20024   7.718  36.533   8.415
 1308POPC   C3B20025   7.793  36.840   8.091
 1308POPC   C4B20026   7.709  37.075   7.741
 1309POPC   NC320027  16.195  16.466   9.612
 1309POPC   PO420028  15.864  16.982   9.901
 1309POPC   GL120029  15.906  16.810   9.377
 1309POPC   GL220030  16.147  16.843   9.117
 1309POPC   C1A20031  15.765  16.637   8.923
 1309POPC   D2A20032  15.721  16.596   8.474
 1309POPC   C3A20033  15.678  16.833   8.082
 1309POPC   C4A20034  15.882  16.715   7.688
 1309POPC   C1B20035  16.216  16.628   8.683
 1309POPC   C2B20036  16.165  16.613   8.202
 1309POPC   C3B20037  16.381  16.714   7.833
 1309POPC   C4B20038  16.314  16.784   7.382
 1310POPC   NC320039  22.844  41.229   9.728
 1310POPC   PO420040  23.168  41.782   9.523
 1310POPC   GL120041  22.942  41.601   9.168
 1310POPC   GL220042  22.721  41.308   9.243
 1310POPC   C1A20043  23.035  41.647   8.720
 1310POPC   D2A20044  23.307  41.617   8.360
 1310POPC   C3A20045  23.058  41.610   8.038
 1310POPC   C4A20046  22.984  41.827   7.684
 1310POPC   C1B20047  22.889  41.162   8.858
 1310POPC   C2B20048  23.048  41.179   8.452
 1310POPC   C3B20049  22.871  41.127   8.049
 1310POPC   C4B20050  22.925  41.338   7.637
 1311POPC   NC320051  38.113  26.363   9.242
 1311POPC   PO420052  38.764  26.158   9.483
 1311POPC   GL120053  38.507  26.068   9.088
 1311POPC   GL220054  38.253  25.798   9.044
 1311POPC   C1A20055  38.648  26.265   8.674
 1311POPC   D2A20056  38.844  26.304   8.246
 1311POPC   C3A20057  38.682  26.042   7.920
 1311POPC   C4A20058  38.291  26.215   7.752
 1311POPC   C1B20059  38.361  25.829   8.625
 1311POPC   C2B20060  38.243  26.010   8.249
 1311POPC   C3B20061  38.169  25.762   7.913
 1311POPC   C4B20062  38.147  25.719   7.495
 1312POPC   NC320063  30.042  14.717   9.375
 1312POPC   PO420064  30.375  14.158   9.113
 1312POPC   GL120065  30.131  14.499   8.900
 1312POPC   GL220066  29.753  14.537   8.993
 1312POPC   C1A20067  29.913  14.443   8.502
 1312POPC   D2A20068  29.859  14.119   8.164
 1312POPC   C3A20069  29.852  14.311   7.740
 1312POPC   C4A20070  29.867  14.223   7.271
 1312POPC   C1B20071  29.626  14.846   8.693
 1312POPC   C2B20072  29.809  14.933   8.290
 1312POPC   C3B20073  29.934  14.793   7.873
 1312POPC   C4B20074  29.775  14.732   7.431
 1313POPC   NC320075  11.753  10.790   9.376
 1313POPC   PO420076  12.298  10.530   9.679
 1313POPC   GL120077  12.101  10.418   9.252
 1313POPC   GL220078  12.257  10.184   9.045
 1313POPC   C1A20079  11.914  10.484   8.805
 1313POPC   D2A20080  12.058  10.500   8.356
 1313POPC   C3A20081  11.722  10.637   8.079
 1313POPC   C4A20082  11.825  10.895   7.729
 1313POPC   C1B20083  12.209  10.098   8.647
 1313POPC   C2B20084  12.532  10.204   8.377
 1313POPC   C3B20085  12.486  10.399   7.965
 1313POPC   C4B20086  12.266  10.620   7.651
 1314POPC   NC320087   6.335  44.950   9.486
 1314POPC   PO420088   6.993  44.751   9.429
 1314POPC   GL120089   6.716  44.884   9.127
 1314POPC   GL220090   6.590  44.534   9.083
 1314POPC   C1A20091   6.716  44.894   8.676
 1314POPC   D2A20092   6.376  44.818   8.373
 1314POPC   C3A20093   6.378   0.026   8.031
 1314POPC   C4A20094   6.743  44.950   7.840
 1314POPC   C1B20095   6.597  44.401   8.639
 1314POPC   C2B20096   6.815  44.486   8.227
 1314POPC   C3B20097   6.618  44.277   7.870
 1314POPC   C4B20098   6.135  44.249   7.876
 1315POPC   NC320099  36.583  26.174   9.355
 1315POPC   PO420100  37.137  25.992   9.718
 1315POPC   GL120101  37.124  26.105   9.288
 1315POPC   GL220102  37.251  25.787   9.216
 1315POPC   C1A20103  36.972  26.068   8.845
 1315POPC   D2A20104  36.871  26.284   8.467
 1315POPC   C3A20105  36.832  26.071   8.118
 1315POPC   C4A20106  36.895  26.054   7.703
 1315POPC   C1B20107  37.348  25.690   8.803
 1315POPC   C2B20108  37.156  25.791   8.418
 1315POPC   C3B20109  37.260  25.809   7.991
 1315POPC   C4B20110  37.419  25.812   7.587
 1316POPC   NC320111   3.491  35.902   9.603
 1316POPC   PO420112   3.845  36.481   9.337
 1316POPC   GL120113   3.594  36.114   9.162
 1316POPC   GL220114   3.757  35.740   9.200
 1316POPC   C1A20115   3.318  36.017   8.782
 1316POPC   D2A20116   3.533  36.087   8.364
 1316POPC   C3A20117   3.376  36.220   7.992
 1316POPC   C4A20118   3.501  36.296   7.600
 1316POPC   C1B20119   3.813  35.841   8.774
 1316POPC   C2B20120   3.726  35.623   8.395
 1316POPC   C3B20121   3.592  35.726   8.001
 1316POPC   C4B20122   3.783  35.812   7.638
 1317POPC   NC320123  36.230  15.260   9.529
 1317POPC   PO420124  35.613  15.015   9.428
 1317POPC   GL120125  35.968  15.120   9.118
 1317POPC   GL220126  36.202  15.442   9.072
 1317POPC   C1A20127  36.145  15.053   8.714
 1317POPC   D2A20128  36.003  15.226   8.337
 1317POPC   C3A20129  36.245  15.272   7.946
 1317POPC   C4A20130  36.582  15.058   7.735
 1317POPC   C1B20131  35.888  15.510   8.788
 1317POPC   C2B20132  35.668  15.660   8.454
 1317POPC   C3B20133  35.832  15.618   8.068
 1317POPC   C4B20134  35.827  15.413   7.683
 1318POPC   NC320135  21.581  26.363   9.536
 1318POPC   PO420136  21.177  25.860   9.569
 1318POPC   GL120137  21.240  26.127   9.200
 1318POPC   GL220138  21.593  26.195   9.077
 1318POPC   C1A20139  21.205  26.135   8.752
 1318POPC   D2A20140  21.504  26.126   8.434
 1318POPC   C3A20141  21.274  26.085   8.095
 1318POPC   C4A20142  21.324  25.912   7.706
 1318POPC   C1B20143  21.567  26.504   8.779
 1318POPC   C2B20144  21.780  26.554   8.394
 1318POPC   C3B20145  21.708  26.362   7.986
 1318POPC   C4B20146  21.352  26.417   7.703
 1319POPC   NC320147  30.405  29.683   9.342
 1319POPC   PO420148  30.928  30.159   9.492
 1319POPC   GL120149  31.029  30.024   9.090
 1319POPC   GL220150  31.099  30.385   9.038
 1319POPC   C1A20151  30.749  29.770   8.805
 1319POPC   D2A20152  30.404  29.771   8.522
 1319POPC   C3A20153  30.577  29.741   8.124
 1319POPC   C4A20154  30.390  29.678   7.747
 1319POPC   C1B20155  30.724  30.300   8.809
 1319POPC   C2B20156  30.799  30.110   8.424
 1319POPC   C3B20157  30.711  30.237   8.033
 1319POPC   C4B20158  30.811  30.009   7.708
 1320POPC   NC320159  35.902   7.970   9.381
 1320POPC   PO420160  36.368   8.461   9.542
 1320POPC   GL120161  36.262   8.235   9.158
 1320POPC   GL220162  36.390   7.944   9.168
 1320POPC   C1A20163  36.091   8.173   8.750
 1320POPC   D2A20164  35.916   7.961   8.392
 1320POPC   C3A20165  35.917   8.254   8.080
 1320POPC   C4A20166  36.097   8.274   7.676
 1320POPC   C1B20167  36.556   7.915   8.800
 1320POPC   C2B20168  36.458   8.091   8.391
 1320POPC   C3B20169  36.323   7.944   7.989
 1320POPC   C4B20170  36.461   7.881   7.570
 1321POPC   NC320171  15.165  30.031   9.866
 1321POPC   PO420172  14.880  29.508   9.468
 1321POPC   GL120173  14.997  29.741   9.129
 1321POPC   GL220174  15.331  29.903   9.105
 1321POPC   C1A20175  14.883  29.905   8.739
 1321POPC   D2A20176  14.790  29.763   8.351
 1321POPC   C3A20177  14.961  29.993   8.057
 1321POPC   C4A20178  15.326  29.965   7.803
 1321POPC   C1B20179  15.357  30.111   8.658
 1321POPC   C2B20180  15.386  30.283   8.210
 1321POPC   C3B20181  15.547  30.416   7.780
 1321POPC   C4B20182  15.578  30.362   7.310
 1322POPC   NC320183  24.934  20.918   9.333
 1322POPC   PO420184  25.461  21.360   9.505
 1322POPC   GL120185  25.331  21.485   9.131
 1322POPC   GL220186  25.553  21.224   9.002
 1322POPC   C1A20187  25.168  21.423   8.717
 1322POPC   D2A20188  25.368  21.581   8.369
 1322POPC   C3A20189  25.168  21.507   8.005
 1322POPC   C4A20190  24.899  21.206   7.797
 1322POPC   C1B20191  25.743  21.265   8.594
 1322POPC   C2B20192  25.735  21.257   8.146
 1322POPC   C3B20193  25.486  21.195   7.769
 1322POPC   C4B20194  25.518  21.227   7.313
 1323POPC   NC320195  42.332  38.676   9.601
 1323POPC   PO420196  42.456  38.009   9.431
 1323POPC   GL120197  42.455  38.278   9.091
 1323POPC   GL220198  42.111  38.302   9.084
 1323POPC   C1A20199  42.346  38.354   8.646
 1323POPC   D2A20200  42.493  38.479   8.266
 1323POPC   C3A20201  42.394  38.241   7.882
 1323POPC   C4A20202  42.540  38.234   7.430
 1323POPC   C1B20203  42.022  38.699   8.856
 1323POPC   C2B20204  42.098  38.820   8.431
 1323POPC   C3B20205  42.021  38.579   8.059
 1323POPC   C4B20206  42.038  38.694   7.644
 1324POPC   NC320207  24.229  26.719   9.520
 1324POPC   PO420208  24.798  27.038   9.513
 1324POPC   GL120209  24.575  27.056   9.112
 1324POPC   GL220210  24.243  26.927   9.039
 1324POPC   C1A20211  24.727  27.027   8.708
 1324POPC   D2A20212  24.871  26.692   8.462
 1324POPC   C3A20213  24.853  26.738   8.011
 1324POPC   C4A20214  24.624  27.037   7.802
 1324POPC   C1B20215  24.330  26.699   8.664
 1324POPC   C2B20216  24.467  26.392   8.384
 1324POPC   C3B20217  24.501  26.374   7.989
 1324POPC   C4B20218  24.220  26.688   7.845
 1325POPC   NC320219  34.465   5.599   9.386
 1325POPC   PO420220  34.898   6.069   9.561
 1325POPC   GL120221  34.790   5.932   9.133
 1325POPC   GL220222  34.462   6.084   9.106
 1325POPC   C1A20223  34.666   5.781   8.682
 1325POPC   D2A20224  34.735   5.485   8.302
 1325POPC   C3A20225  34.765   5.634   7.876
 1325POPC   C4A20226  34.597   6.010   7.758
 1325POPC   C1B20227  34.713   6.309   8.774
 1325POPC   C2B20228  34.881   6.214   8.340
 1325POPC   C3B20229  34.867   6.432   7.930
 1325POPC   C4B20230  34.790   6.371   7.453
 1326POPC   NC320231  35.874  23.439   9.559
 1326POPC   PO420232  36.175  24.034   9.498
 1326POPC   GL120233  36.112  23.687   9.185
 1326POPC   GL220234  35.748  23.652   9.117
 1326POPC   C1A20235  36.309  23.603   8.795
 1326POPC   D2A20236  36.252  23.812   8.419
 1326POPC   C3A20237  36.177  23.712   8.004
 1326POPC   C4A20238  36.431  23.877   7.720
 1326POPC   C1B20239  35.885  23.935   8.798
 1326POPC   C2B20240  35.751  23.861   8.404
 1326POPC   C3B20241  35.758  24.053   8.011
 1326POPC   C4B20242  35.765  23.789   7.667
 1327POPC   NC320243  11.900  11.513   9.536
 1327POPC   PO420244  12.175  10.927   9.238
 1327POPC   GL120245  12.290  11.361   9.132
 1327POPC   GL220246  11.991  11.547   9.048
 1327POPC   C1A20247  12.303  11.471   8.685
 1327POPC   D2A20248  12.202  11.472   8.268
 1327POPC   C3A20249  12.286  11.130   7.975
 1327POPC   C4A20250  12.368  11.474   7.704
 1327POPC   C1B20251  11.842  11.237   8.713
 1327POPC   C2B20252  11.875  11.083   8.289
 1327POPC   C3B20253  11.855  11.371   7.904
 1327POPC   C4B20254  11.907  11.348   7.456
 1328POPC   NC320255  29.621  35.972   9.450
 1328POPC   PO420256  30.171  36.263   9.471
 1328POPC   GL120257  30.030  35.982   9.130
 1328POPC   GL220258  29.913  36.314   9.043
 1328POPC   C1A20259  29.794  35.961   8.721
 1328POPC   D2A20260  29.743  36.205   8.348
 1328POPC   C3A20261  29.843  36.063   7.925
 1328POPC   C4A20262  29.650  36.300   7.597
 1328POPC   C1B20263  30.199  36.241   8.683
 1328POPC   C2B20264  30.220  35.963   8.347
 1328POPC   C3B20265  30.344  36.174   8.013
 1328POPC   C4B20266  30.168  36.433   7.706
 1329POPC   NC320267  31.873   4.838   9.397
 1329POPC   PO420268  32.327   5.446   9.477
 1329POPC   GL120269  32.389   5.129   9.163
 1329POPC   GL220270  32.579   4.860   9.289
 1329POPC   C1A20271  32.123   5.080   8.818
 1329POPC   D2A20272  32.008   5.359   8.482
 1329POPC   C3A20273  32.125   5.257   8.056
 1329POPC   C4A20274  31.942   4.991   7.710
 1329POPC   C1B20275  32.582   4.793   8.805
 1329POPC   C2B20276  32.375   4.940   8.409
 1329POPC   C3B20277  32.260   4.742   8.036
 1329POPC   C4B20278  32.572   4.657   7.743
 1330POPC   NC320279   9.754   3.113   9.444
 1330POPC   PO420280   9.822   2.468   9.465
 1330POPC   GL120281   9.649   2.558   9.036
 1330POPC   GL220282   9.499   2.892   8.980
 1330POPC   C1A20283   9.719   2.529   8.602
 1330POPC   D2A20284   9.695   2.809   8.239
 1330POPC   C3A20285   9.671   2.534   7.913
 1330POPC   C4A20286   9.959   2.510   7.601
 1330POPC   C1B20287   9.417   3.262   8.674
 1330POPC   C2B20288   9.422   3.303   8.192
 1330POPC   C3B20289   9.518   3.038   7.785
 1330POPC   C4B20290   9.573   2.828   7.391
 1331POPC   NC320291  37.485  26.360   9.630
 1331POPC   PO420292  38.031  25.970   9.466
 1331POPC   GL120293  37.754  25.888   9.138
 1331POPC   GL220294  37.608  26.187   9.088
 1331POPC   C1A20295  37.834  25.861   8.698
 1331POPC   D2A20296  37.693  25.724   8.275
 1331POPC   C3A20297  37.738  26.058   7.967
 1331POPC   C4A20298  37.814  26.250   7.578
 1331POPC   C1B20299  37.429  26.199   8.652
 1331POPC   C2B20300  37.316  26.257   8.208
 1331POPC   C3B20301  37.327  26.312   7.740
 1331POPC   C4B20302  37.387  26.222   7.287
 1332POPC   NC320303   7.701  41.865   9.438
 1332POPC   PO420304   7.814  41.270   9.762
 1332POPC   GL120305   7.510  41.361   9.310
 1332POPC   GL220306   7.177  41.580   9.237
 1332POPC   C1A20307   7.520  41.601   8.850
 1332POPC   D2A20308   7.682  41.687   8.419
 1332POPC   C3A20309   7.470  41.744   8.032
 1332POPC   C4A20310   7.227  41.774   7.667
 1332POPC   C1B20311   7.087  41.368   8.793
 1332POPC   C2B20312   7.142  41.286   8.310
 1332POPC   C3B20313   7.082  41.332   7.851
 1332POPC   C4B20314   7.171  41.355   7.382
 1333POPC   NC320315  44.267  32.121   9.691
 1333POPC   PO420316  43.582  32.236   9.606
 1333POPC   GL120317  43.866  32.196   9.268
 1333POPC   GL220318  44.160  32.408   9.263
 1333POPC   C1A20319  43.987  31.995   8.870
 1333POPC   D2A20320  43.867  32.161   8.459
 1333POPC   C3A20321  43.930  31.953   8.083
 1333POPC   C4A20322  44.060  32.079   7.670
 1333POPC   C1B20323  44.012  32.487   8.860
 1333POPC   C2B20324  44.129  32.601   8.466
 1333POPC   C3B20325  44.135  32.427   8.070
 1333POPC   C4B20326  43.977  32.554   7.704
 1334POPC   NC320327  21.497  44.384   9.657
 1334POPC   PO420328  20.949  44.786   9.484
 1334POPC   GL120329  21.194  44.705   9.142
 1334POPC   GL220330  21.540  44.622   9.195
 1334POPC   C1A20331  21.207  44.599   8.692
 1334POPC   D2A20332  21.442  44.479   8.318
 1334POPC   C3A20333  21.363  44.778   7.995
 1334POPC   C4A20334  20.978  44.750   7.778
 1334POPC   C1B20335  21.571  44.925   8.840
 1334POPC   C2B20336  21.730  44.955   8.402
 1334POPC   C3B20337  21.909  44.639   8.115
 1334POPC   C4B20338  21.697  44.441   7.786
 1335POPC   NC320339   8.432  10.974   9.597
 1335POPC   PO420340   8.157  11.620   9.531
 1335POPC   GL120341   8.335  11.360   9.183
 1335POPC   GL220342   8.623  11.120   9.138
 1335POPC   C1A20343   8.415  11.389   8.745
 1335POPC   D2A20344   8.577  11.537   8.368
 1335POPC   C3A20345   8.323  11.457   8.016
 1335POPC   C4A20346   8.071  11.420   7.672
 1335POPC   C1B20347   8.531  10.892   8.789
 1335POPC   C2B20348   8.549  10.739   8.421
 1335POPC   C3B20349   8.502  10.966   8.089
 1335POPC   C4B20350   8.397  11.034   7.705
 1336POPC   NC320351  25.080  34.178   9.594
 1336POPC   PO420352  25.408  33.568   9.497
 1336POPC   GL120353  25.389  33.874   9.138
 1336POPC   GL220354  25.039  33.947   9.131
 1336POPC   C1A20355  25.605  33.865   8.730
 1336POPC   D2A20356  25.395  33.624   8.434
 1336POPC   C3A20357  25.482  33.721   8.015
 1336POPC   C4A20358  25.620  33.687   7.608
 1336POPC   C1B20359  25.184  34.143   8.746
 1336POPC   C2B20360  25.208  34.087   8.301
 1336POPC   C3B20361  24.971  33.825   8.034
 1336POPC   C4B20362  24.823  33.924   7.652
 1337POPC   NC320363  30.274  23.680   9.509
 1337POPC   PO420364  30.899  23.713   9.693
 1337POPC   GL120365  30.870  23.605   9.231
 1337POPC   GL220366  30.532  23.476   9.145
 1337POPC   C1A20367  30.941  23.493   8.793
 1337POPC   D2A20368  30.895  23.750   8.445
 1337POPC   C3A20369  31.136  23.742   8.086
 1337POPC   C4A20370  31.047  24.108   7.871
 1337POPC   C1B20371  30.467  23.727   8.802
 1337POPC   C2B20372  30.432  23.958   8.434
 1337POPC   C3B20373  30.597  23.838   8.028
 1337POPC   C4B20374  30.457  23.557   7.745
 1338POPC   NC320375   2.440  19.744   9.640
 1338POPC   PO420376   3.020  20.236   9.622
 1338POPC   GL120377   2.789  19.946   9.295
 1338POPC   GL220378   3.004  19.743   9.052
 1338POPC   C1A20379   2.593  19.973   8.853
 1338POPC   D2A20380   2.744  19.781   8.428
 1338POPC   C3A20381   2.602  19.940   7.989
 1338POPC   C4A20382   2.615  19.837   7.502
 1338POPC   C1B20383   3.055  20.088   8.685
 1338POPC   C2B20384   3.096  20.101   8.199
 1338POPC   C3B20385   3.058  19.830   7.791
 1338POPC   C4B20386   3.075  19.942   7.323
 1339POPC   NC320387  25.948  34.615   9.761
 1339POPC   PO420388  25.829  34.287   9.190
 1339POPC   GL120389  25.997  34.525   8.865
 1339POPC   GL220390  26.131  34.859   8.963
 1339POPC   C1A20391  25.861  34.476   8.454
 1339POPC   D2A20392  25.694  34.169   8.208
 1339POPC   C3A20393  25.775  34.304   7.814
 1339POPC   C4A20394  25.794  34.666   7.589
 1339POPC   C1B20395  26.253  34.799   8.514
 1339POPC   C2B20396  26.395  34.412   8.292
 1339POPC   C3B20397  26.324  34.496   7.852
 1339POPC   C4B20398  26.185  34.934   7.824
 1340POPC   NC320399  36.072  42.240   9.719
 1340POPC   PO420400  36.556  42.574   9.353
 1340POPC   GL120401  36.152  42.637   9.105
 1340POPC   GL220402  35.880  42.349   9.201
 1340POPC   C1A20403  36.144  42.755   8.626
 1340POPC   D2A20404  36.164  42.854   8.138
 1340POPC   C3A20405  36.005  42.506   7.868
 1340POPC   C4A20406  36.199  42.125   7.660
 1340POPC   C1B20407  35.632  42.204   8.831
 1340POPC   C2B20408  35.775  42.029   8.424
 1340POPC   C3B20409  35.781  42.010   7.982
 1340POPC   C4B20410  35.555  42.212   7.719
 1341POPC   NC320411   4.199  30.974   9.523
 1341POPC   PO420412   4.777  30.473   9.537
 1341POPC   GL120413   4.434  30.396   9.216
 1341POPC   GL220414   4.324  30.720   9.108
 1341POPC   C1A20415   4.485  30.414   8.749
 1341POPC   D2A20416   4.199  30.371   8.402
 1341POPC   C3A20417   4.344  30.422   7.996
 1341POPC   C4A20418   4.110  30.627   7.682
 1341POPC   C1B20419   4.190  30.984   8.755
 1341POPC   C2B20420   3.996  30.997   8.357
 1341POPC   C3B20421   3.970  31.095   7.941
 1341POPC   C4B20422   4.366  31.048   7.739
 1342POPC   NC320423  32.593  15.158   9.347
 1342POPC   PO420424  31.985  15.024   9.679
 1342POPC   GL120425  32.163  14.909   9.219
 1342POPC   GL220426  32.181  15.236   9.074
 1342POPC   C1A20427  32.382  14.872   8.779
 1342POPC   D2A20428  32.369  15.018   8.331
 1342POPC   C3A20429  32.203  15.304   8.030
 1342POPC   C4A20430  32.304  15.010   7.739
 1342POPC   C1B20431  32.248  15.374   8.674
 1342POPC   C2B20432  32.566  15.492   8.345
 1342POPC   C3B20433  32.710  15.259   7.979
 1342POPC   C4B20434  32.564  15.363   7.537
 1343POPC   NC320435  15.729  38.962   9.469
 1343POPC   PO420436  16.340  38.576   9.481
 1343POPC   GL120437  16.259  38.687   9.042
 1343POPC   GL220438  16.024  38.449   9.040
 1343POPC   C1A20439  16.301  38.409   8.636
 1343POPC   D2A20440  16.212  38.123   8.294
 1343POPC   C3A20441  16.117  38.382   7.941
 1343POPC   C4A20442  15.820  38.602   7.676
 1343POPC   C1B20443  15.776  38.620   8.754
 1343POPC   C2B20444  15.841  38.476   8.358
 1343POPC   C3B20445  15.570  38.412   8.054
 1343POPC   C4B20446  15.485  38.880   7.922
 1344POPC   NC320447  29.691  13.220   9.818
 1344POPC   PO420448  30.156  12.779   9.577
 1344POPC   GL120449  29.930  12.607   9.106
 1344POPC   GL220450  29.919  12.940   8.898
 1344POPC   C1A20451  29.741  12.533   8.663
 1344POPC   D2A20452  30.042  12.478   8.299
 1344POPC   C3A20453  29.936  12.660   7.919
 1344POPC   C4A20454  29.512  12.628   7.780
 1344POPC   C1B20455  29.833  13.335   8.715
 1344POPC   C2B20456  29.815  13.231   8.303
 1344POPC   C3B20457  29.764  13.138   7.871
 1344POPC   C4B20458  29.870  13.331   7.504
 1345POPC   NC320459  43.923  19.493   9.885
 1345POPC   PO420460  44.303  19.814   9.501
 1345POPC   GL120461  44.156  19.937   9.108
 1345POPC   GL220462  43.829  19.835   9.188
 1345POPC   C1A20463  44.074  19.877   8.651
 1345POPC   D2A20464  43.959  20.136   8.255
 1345POPC   C3A20465  44.014  19.909   7.880
 1345POPC   C4A20466  44.363  19.598   7.779
 1345POPC   C1B20467  43.597  19.923   8.830
 1345POPC   C2B20468  43.624  19.769   8.397
 1345POPC   C3B20469  43.504  19.805   7.956
 1345POPC   C4B20470  43.596  19.829   7.500
 1346POPC   NC320471   0.469  33.749   9.636
 1346POPC   PO420472   0.760  34.262   9.313
 1346POPC   GL120473   0.524  33.915   9.135
 1346POPC   GL220474   0.654  33.561   9.205
 1346POPC   C1A20475   0.381  33.929   8.697
 1346POPC   D2A20476   0.356  34.053   8.242
 1346POPC   C3A20477   0.200  33.754   7.928
 1346POPC   C4A20478   0.435  33.532   7.617
 1346POPC   C1B20479   0.846  33.683   8.821
 1346POPC   C2B20480   0.664  33.593   8.421
 1346POPC   C3B20481   0.751  33.596   8.004
 1346POPC   C4B20482   0.961  33.764   7.632
 1347POPC   NC320483   7.728   0.391   9.548
 1347POPC   PO420484   7.123   0.742   9.428
 1347POPC   GL120485   7.481   0.684   9.157
 1347POPC   GL220486   7.558   0.312   9.076
 1347POPC   C1A20487   7.550   0.639   8.708
 1347POPC   D2A20488   7.481   0.401   8.356
 1347POPC   C3A20489   7.578   0.641   7.990
 1347POPC   C4A20490   7.425   0.502   7.622
 1347POPC   C1B20491   7.244   0.179   8.766
 1347POPC   C2B20492   7.200  44.943   8.373
 1347POPC   C3B20493   7.210   0.164   7.972
 1347POPC   C4B20494   7.130   0.113   7.535
 1348POPC   NC320495  22.038   0.596   9.511
 1348POPC   PO420496  21.933  44.940   9.390
 1348POPC   GL120497  21.867   0.267   9.127
 1348POPC   GL220498  22.171   0.458   9.023
 1348POPC   C1A20499  21.752   0.383   8.721
 1348POPC   D2A20500  22.076   0.487   8.451
 1348POPC   C3A20501  21.935   0.522   8.070
 1348POPC   C4A20502  21.711   0.269   7.790
 1348POPC   C1B20503  22.286   0.823   8.759
 1348POPC   C2B20504  22.327   0.899   8.279
 1348POPC   C3B20505  22.406   0.619   7.892
 1348POPC   C4B20506  22.542   0.689   7.428
 1349POPC   NC320507   0.928  19.359   9.473
 1349POPC   PO420508   1.352  19.815   9.561
 1349POPC   GL120509   1.244  19.617   9.167
 1349POPC   GL220510   1.178  19.908   8.979
 1349POPC   C1A20511   1.254  19.458   8.741
 1349POPC   D2A20512   1.403  19.714   8.403
 1349POPC   C3A20513   1.378  19.501   8.021
 1349POPC   C4A20514   1.446  19.709   7.628
 1349POPC   C1B20515   1.185  20.182   8.640
 1349POPC   C2B20516   0.970  20.016   8.318
 1349POPC   C3B20517   1.029  19.848   7.920
 1349POPC   C4B20518   1.100  20.042   7.513
 1350POPC   NC320519  21.109   9.192   9.527
 1350POPC   PO420520  21.782   9.332   9.463
 1350POPC   GL120521  21.597   9.158   9.069
 1350POPC   GL220522  21.335   8.966   9.130
 1350POPC   C1A20523  21.602   8.913   8.677
 1350POPC   D2A20524  21.798   8.668   8.348
 1350POPC   C3A20525  21.674   8.894   8.001
 1350POPC   C4A20526  21.365   9.145   7.823
 1350POPC   C1B20527  21.129   9.097   8.772
 1350POPC   C2B20528  21.105   9.205   8.299
 1350POPC   C3B20529  20.893   8.981   7.918
 1350POPC   C4B20530  20.600   9.027   7.561
 1351POPC   NC320531  27.479   9.304   9.408
 1351POPC   PO420532  28.048   9.506   9.646
 1351POPC   GL120533  27.784   9.715   9.269
 1351POPC   GL220534  27.564   9.531   8.992
 1351POPC   C1A20535  27.842   9.924   8.847
 1351POPC   D2A20536  27.656   9.712   8.511
 1351POPC   C3A20537  27.582   9.796   8.096
 1351POPC   C4A20538  27.424   9.531   7.748
 1351POPC   C1B20539  27.237   9.747   8.839
 1351POPC   C2B20540  27.157   9.687   8.419
 1351POPC   C3B20541  27.027   9.698   8.033
 1351POPC   C4B20542  26.917   9.409   7.721
 1352POPC   NC320543  32.348   6.665   9.503
 1352POPC   PO420544  31.750   6.263   9.471
 1352POPC   GL120545  32.042   6.344   9.122
 1352POPC   GL220546  32.086   6.694   9.077
 1352POPC   C1A20547  32.280   6.430   8.692
 1352POPC   D2A20548  32.464   6.740   8.412
 1352POPC   C3A20549  32.375   6.719   7.965
 1352POPC   C4A20550  32.199   6.435   7.675
 1352POPC   C1B20551  32.016   6.882   8.685
 1352POPC   C2B20552  32.062   7.037   8.260
 1352POPC   C3B20553  31.875   6.927   7.862
 1352POPC   C4B20554  32.046   6.962   7.454
 1353POPC   NC320555  11.422  31.150   9.585
 1353POPC   PO420556  11.074  31.611   9.456
 1353POPC   GL120557  11.430  31.522   9.173
 1353POPC   GL220558  11.499  31.192   9.062
 1353POPC   C1A20559  11.589  31.641   8.785
 1353POPC   D2A20560  11.565  31.368   8.412
 1353POPC   C3A20561  11.433  31.537   8.009
 1353POPC   C4A20562  11.017  31.701   7.896
 1353POPC   C1B20563  11.173  31.341   8.763
 1353POPC   C2B20564  11.044  31.422   8.331
 1353POPC   C3B20565  11.082  31.183   7.907
 1353POPC   C4B20566  11.188  30.937   7.506
 1354POPC   NC320567   2.369  28.810   9.884
 1354POPC   PO420568   2.631  29.363   9.487
 1354POPC   GL120569   2.677  29.390   9.066
 1354POPC   GL220570   3.026  29.526   9.145
 1354POPC   C1A20571   2.602  29.077   8.711
 1354POPC   D2A20572   2.406  29.085   8.294
 1354POPC   C3A20573   2.569  29.094   7.861
 1354POPC   C4A20574   2.592  29.391   7.507
 1354POPC   C1B20575   3.067  29.287   8.731
 1354POPC   C2B20576   2.958  29.186   8.280
 1354POPC   C3B20577   2.976  29.412   7.875
 1354POPC   C4B20578   3.091  29.306   7.447
 1355POPC   NC320579  20.559  31.556   9.590
 1355POPC   PO420580  20.972  30.966   9.323
 1355POPC   GL120581  20.733  31.329   9.176
 1355POPC   GL220582  20.392  31.355   9.153
 1355POPC   C1A20583  20.689  31.453   8.741
 1355POPC   D2A20584  20.770  31.676   8.374
 1355POPC   C3A20585  20.979  31.543   8.015
 1355POPC   C4A20586  20.645  31.357   7.778
 1355POPC   C1B20587  20.184  31.523   8.814
 1355POPC   C2B20588  20.052  31.529   8.394
 1355POPC   C3B20589  20.325  31.625   8.068
 1355POPC   C4B20590  20.338  31.762   7.670
 1356POPC   NC320591  28.639  11.710   9.412
 1356POPC   PO420592  28.390  11.071   9.432
 1356POPC   GL120593  28.200  11.180   9.070
 1356POPC   GL220594  28.184  11.505   9.006
 1356POPC   C1A20595  28.404  11.186   8.678
 1356POPC   D2A20596  28.598  10.922   8.387
 1356POPC   C3A20597  28.465  10.964   7.964
 1356POPC   C4A20598  28.403  11.196   7.600
 1356POPC   C1B20599  28.550  11.663   8.757
 1356POPC   C2B20600  28.665  11.493   8.361
 1356POPC   C3B20601  28.587  11.543   7.962
 1356POPC   C4B20602  28.520  11.691   7.542
 1357POPC   NC320603  41.668  15.011   9.387
 1357POPC   PO420604  41.550  15.643   9.413
 1357POPC   GL120605  41.403  15.327   9.052
 1357POPC   GL220606  41.244  14.933   9.125
 1357POPC   C1A20607  41.600  15.092   8.754
 1357POPC   D2A20608  41.813  15.156   8.405
 1357POPC   C3A20609  41.527  15.307   8.112
 1357POPC   C4A20610  41.763  15.095   7.814
 1357POPC   C1B20611  41.054  14.987   8.729
 1357POPC   C2B20612  40.920  14.863   8.313
 1357POPC   C3B20613  41.164  14.884   7.945
 1357POPC   C4B20614  41.443  14.715   7.643
 1358POPC   NC320615  38.278  44.269   9.621
 1358POPC   PO420616  38.547  44.927   9.470
 1358POPC   GL120617  38.434  44.773   9.083
 1358POPC   GL220618  38.360  44.524   9.190
 1358POPC   C1A20619  38.651  44.823   8.715
 1358POPC   D2A20620  38.810  44.716   8.311
 1358POPC   C3A20621  38.441  44.752   8.036
 1358POPC   C4A20622  38.230  44.921   7.661
 1358POPC   C1B20623  38.417  44.359   8.770
 1358POPC   C2B20624  38.269  44.244   8.385
 1358POPC   C3B20625  38.193  44.301   7.966
 1358POPC   C4B20626  38.350  44.447   7.573
 1359POPC   NC320627  24.067  20.422   9.390
 1359POPC   PO420628  24.651  20.648   9.620
 1359POPC   GL120629  24.483  20.773   9.167
 1359POPC   GL220630  24.213  20.717   8.983
 1359POPC   C1A20631  24.630  20.779   8.701
 1359POPC   D2A20632  24.619  20.516   8.333
 1359POPC   C3A20633  24.857  20.404   7.981
 1359POPC   C4A20634  24.781  20.590   7.578
 1359POPC   C1B20635  24.336  20.329   8.750
 1359POPC   C2B20636  24.258  20.159   8.315
 1359POPC   C3B20637  24.344  20.379   7.885
 1359POPC   C4B20638  24.179  20.309   7.445
 1360POPC   NC320639  42.158  34.718   9.473
 1360POPC   PO420640  42.743  34.356   9.393
 1360POPC   GL120641  42.517  34.619   9.108
 1360POPC   GL220642  42.494  34.985   9.148
 1360POPC   C1A20643  42.261  34.579   8.778
 1360POPC   D2A20644  42.505  34.457   8.431
 1360POPC   C3A20645  42.267  34.441   8.093
 1360POPC   C4A20646  42.464  34.543   7.710
 1360POPC   C1B20647  42.305  35.097   8.785
 1360POPC   C2B20648  42.303  34.912   8.381
 1360POPC   C3B20649  42.201  34.920   7.988
 1360POPC   C4B20650  41.957  34.653   7.740
 1361POPC   NC320651  35.849  41.419   9.524
 1361POPC   PO420652  36.176  41.821   9.889
 1361POPC   GL120653  36.118  41.819   9.365
 1361POPC   GL220654  36.238  41.469   9.188
 1361POPC   C1A20655  35.913  41.742   8.899
 1361POPC   D2A20656  35.873  41.532   8.480
 1361POPC   C3A20657  36.113  41.646   8.115
 1361POPC   C4A20658  36.036  41.653   7.679
 1361POPC   C1B20659  36.140  41.229   8.778
 1361POPC   C2B20660  36.234  41.187   8.322
 1361POPC   C3B20661  36.470  41.301   7.975
 1361POPC   C4B20662  36.532  41.692   7.754
 1362POPC   NC320663  40.641  29.277   9.562
 1362POPC   PO420664  40.693  28.668   9.514
 1362POPC   GL120665  40.783  29.018   9.162
 1362POPC   GL220666  40.453  29.165   9.084
 1362POPC   C1A20667  41.079  29.191   8.817
 1362POPC   D2A20668  41.294  28.969   8.466
 1362POPC   C3A20669  41.026  29.008   8.089
 1362POPC   C4A20670  40.695  29.095   7.802
 1362POPC   C1B20671  40.625  28.966   8.690
 1362POPC   C2B20672  40.499  29.074   8.285
 1362POPC   C3B20673  40.202  29.169   7.945
 1362POPC   C4B20674  40.275  29.015   7.485
 1363POPC   NC320675  28.613   4.596   9.566
 1363POPC   PO420676  28.496   3.984   9.715
 1363POPC   GL120677  28.631   4.193   9.250
 1363POPC   GL220678  28.391   4.462   9.121
 1363POPC   C1A20679  28.756   4.356   8.790
 1363POPC   D2A20680  28.568   4.297   8.375
 1363POPC   C3A20681  28.503   4.484   7.992
 1363POPC   C4A20682  28.477   4.245   7.600
 1363POPC   C1B20683  28.185   4.277   8.738
 1363POPC   C2B20684  28.133   4.055   8.324
 1363POPC   C3B20685  28.073   4.183   7.915
 1363POPC   C4B20686  27.981   4.242   7.455
 1364POPC   NC320687   4.902  14.631   9.590
 1364POPC   PO420688   5.524  14.322   9.488
 1364POPC   GL120689   5.255  14.466   9.168
 1364POPC   GL220690   5.348  14.157   9.047
 1364POPC   C1A20691   5.182  14.563   8.716
 1364POPC   D2A20692   5.269  14.741   8.291
 1364POPC   C3A20693   5.189  14.468   7.944
 1364POPC   C4A20694   5.289  14.533   7.541
 1364POPC   C1B20695   5.526  14.130   8.704
 1364POPC   C2B20696   5.465  14.267   8.334
 1364POPC   C3B20697   5.592  14.176   7.973
 1364POPC   C4B20698   5.464  14.076   7.593
 1365POPC   NC320699  26.078  24.109   9.460
 1365POPC   PO420700  25.773  24.743   9.530
 1365POPC   GL120701  25.906  24.489   9.170
 1365POPC   GL220702  25.697  24.212   9.093
 1365POPC   C1A20703  26.125  24.617   8.791
 1365POPC   D2A20704  26.185  24.817   8.379
 1365POPC   C3A20705  26.135  24.569   8.036
 1365POPC   C4A20706  26.154  24.347   7.637
 1365POPC   C1B20707  26.058  24.097   8.797
 1365POPC   C2B20708  26.317  24.277   8.446
 1365POPC   C3B20709  26.359  24.120   8.054
 1365POPC   C4B20710  25.950  23.971   7.897
 1366POPC   NC320711  14.227  26.918   9.367
 1366POPC   PO420712  14.800  26.636   9.458
 1366POPC   GL120713  14.767  26.478   9.070
 1366POPC   GL220714  14.421  26.491   9.077
 1366POPC   C1A20715  14.635  26.673   8.648
 1366POPC   D2A20716  14.664  27.056   8.391
 1366POPC   C3A20717  14.620  27.034   7.977
 1366POPC   C4A20718  14.586  26.614   7.946
 1366POPC   C1B20719  14.152  26.607   8.735
 1366POPC   C2B20720  14.211  26.775   8.322
 1366POPC   C3B20721  14.055  26.686   7.922
 1366POPC   C4B20722  14.102  26.881   7.512
 1367POPC   NC320723  30.599   6.284   9.510
 1367POPC   PO420724  30.470   6.907   9.754
 1367POPC   GL120725  30.624   6.811   9.277
 1367POPC   GL220726  30.431   6.542   9.114
 1367POPC   C1A20727  30.760   6.746   8.782
 1367POPC   D2A20728  30.986   6.740   8.363
 1367POPC   C3A20729  30.773   6.841   7.973
 1367POPC   C4A20730  30.355   6.757   7.786
 1367POPC   C1B20731  30.349   6.417   8.700
 1367POPC   C2B20732  30.465   6.495   8.276
 1367POPC   C3B20733  30.117   6.386   8.033
 1367POPC   C4B20734  30.126   6.233   7.645
 1368POPC   NC320735   7.274  22.689   9.311
 1368POPC   PO420736   7.830  22.399   9.509
 1368POPC   GL120737   7.585  22.237   9.125
 1368POPC   GL220738   7.211  22.265   9.057
 1368POPC   C1A20739   7.637  21.952   8.797
 1368POPC   D2A20740   7.870  22.218   8.551
 1368POPC   C3A20741   7.836  22.214   8.136
 1368POPC   C4A20742   7.665  21.890   7.886
 1368POPC   C1B20743   7.280  22.304   8.650
 1368POPC   C2B20744   7.387  22.031   8.331
 1368POPC   C3B20745   7.331  22.289   7.998
 1368POPC   C4B20746   7.267  22.623   7.710
 1369POPC   NC320747  36.707  21.188   9.488
 1369POPC   PO420748  37.314  21.550   9.370
 1369POPC   GL120749  37.107  21.251   9.106
 1369POPC   GL220750  36.834  21.458   9.082
 1369POPC   C1A20751  36.924  21.146   8.697
 1369POPC   D2A20752  36.978  21.434   8.350
 1369POPC   C3A20753  37.041  21.211   7.952
 1369POPC   C4A20754  37.126  21.482   7.629
 1369POPC   C1B20755  36.589  21.636   8.773
 1369POPC   C2B20756  36.446  21.447   8.402
 1369POPC   C3B20757  36.588  21.468   7.989
 1369POPC   C4B20758  36.646  21.330   7.588
 1370POPC   NC320759   0.803  14.414   9.474
 1370POPC   PO420760   1.428  14.424   9.543
 1370POPC   GL120761   1.294  14.722   9.172
 1370POPC   GL220762   0.938  14.684   9.062
 1370POPC   C1A20763   1.283  14.771   8.692
 1370POPC   D2A20764   1.570  14.700   8.307
 1370POPC   C3A20765   1.460  14.767   7.876
 1370POPC   C4A20766   1.481  14.502   7.520
 1370POPC   C1B20767   1.178  14.317   8.881
 1370POPC   C2B20768   1.216  14.313   8.435
 1370POPC   C3B20769   1.272  14.299   8.003
 1370POPC   C4B20770   1.075  14.185   7.639
 1371POPC   NC320771  32.573  24.535   9.407
 1371POPC   PO420772  32.046  24.156   9.578
 1371POPC   GL120773  32.127  24.547   9.179
 1371POPC   GL220774  32.392  24.818   9.039
 1371POPC   C1A20775  32.123  24.524   8.720
 1371POPC   D2A20776  32.399  24.428   8.386
 1371POPC   C3A20777  32.277  24.557   7.971
 1371POPC   C4A20778  32.359  24.361   7.595
 1371POPC   C1B20779  32.481  24.886   8.596
 1371POPC   C2B20780  32.695  24.807   8.173
 1371POPC   C3B20781  32.539  24.932   7.737
 1371POPC   C4B20782  32.584  24.721   7.308
 1372POPC   NC320783  22.506  33.261   9.372
 1372POPC   PO420784  22.170  32.623   9.361
 1372POPC   GL120785  22.224  32.965   9.058
 1372POPC   GL220786  22.434  32.754   8.926
 1372POPC   C1A20787  22.296  33.237   8.654
 1372POPC   D2A20788  22.392  33.178   8.177
 1372POPC   C3A20789  22.111  33.230   7.835
 1372POPC   C4A20790  22.202  33.242   7.392
 1372POPC   C1B20791  22.197  32.570   8.637
 1372POPC   C2B20792  22.258  32.694   8.225
 1372POPC   C3B20793  22.355  32.786   7.813
 1372POPC   C4B20794  22.606  33.120   7.706
 1373POPC   NC320795  24.369  28.279   9.495
 1373POPC   PO420796  24.949  28.655   9.533
 1373POPC   GL120797  24.621  28.567   9.181
 1373POPC   GL220798  24.680  28.216   9.061
 1373POPC   C1A20799  24.262  28.578   8.862
 1373POPC   D2A20800  24.058  28.476   8.486
 1373POPC   C3A20801  24.307  28.626   8.190
 1373POPC   C4A20802  24.410  28.463   7.797
 1373POPC   C1B20803  24.376  28.108   8.702
 1373POPC   C2B20804  24.408  28.101   8.239
 1373POPC   C3B20805  24.678  28.031   7.865
 1373POPC   C4B20806  24.828  28.048   7.436
 1374POPC   NC320807  37.686  31.762   9.590
 1374POPC   PO420808  37.581  32.444   9.484
 1374POPC   GL120809  37.606  32.360   9.042
 1374POPC   GL220810  37.624  32.025   9.100
 1374POPC   C1A20811  37.683  32.387   8.555
 1374POPC   D2A20812  37.799  32.609   8.117
 1374POPC   C3A20813  37.603  32.561   7.680
 1374POPC   C4A20814  37.373  32.157   7.555
 1374POPC   C1B20815  37.894  31.936   8.739
 1374POPC   C2B20816  37.794  31.742   8.351
 1374POPC   C3B20817  37.584  31.921   8.008
 1374POPC   C4B20818  37.849  31.991   7.673
 1375POPC   NC320819   6.541   4.784   9.444
 1375POPC   PO420820   7.019   5.204   9.588
 1375POPC   GL120821   6.698   5.173   9.177
 1375POPC   GL220822   6.358   5.257   9.199
 1375POPC   C1A20823   6.822   5.298   8.756
 1375POPC   D2A20824   6.760   5.449   8.349
 1375POPC   C3A20825   6.735   5.102   8.069
 1375POPC   C4A20826   6.450   4.933   7.789
 1375POPC   C1B20827   6.310   5.383   8.746
 1375POPC   C2B20828   6.293   5.645   8.360
 1375POPC   C3B20829   6.300   5.399   7.988
 1375POPC   C4B20830   6.531   5.398   7.612
 1376POPC   NC320831  36.891  37.126   9.702
 1376POPC   PO420832  37.452  36.767   9.683
 1376POPC   GL120833  37.144  36.824   9.284
 1376POPC   GL220834  36.870  37.111   9.196
 1376POPC   C1A20835  36.981  36.809   8.817
 1376POPC   D2A20836  36.906  37.001   8.411
 1376POPC   C3A20837  36.863  36.748   8.035
 1376POPC   C4A20838  37.142  36.649   7.711
 1376POPC   C1B20839  36.785  37.338   8.790
 1376POPC   C2B20840  36.526  37.328   8.398
 1376POPC   C3B20841  36.708  37.261   7.978
 1376POPC   C4B20842  36.767  37.018   7.599
 1377POPC   NC320843  35.743   1.549   9.486
 1377POPC   PO420844  36.104   2.078   9.300
 1377POPC   GL120845  35.856   1.835   9.013
 1377POPC   GL220846  35.697   2.125   8.940
 1377POPC   C1A20847  35.897   1.804   8.539
 1377POPC   D2A20848  36.272   1.854   8.286
 1377POPC   C3A20849  36.337   1.643   7.891
 1377POPC   C4A20850  36.209   1.788   7.475
 1377POPC   C1B20851  35.918   2.338   8.638
 1377POPC   C2B20852  35.942   2.239   8.214
 1377POPC   C3B20853  35.938   2.001   7.866
 1377POPC   C4B20854  35.766   2.035   7.459
 1378POPC   NC320855  14.467  29.620   9.274
 1378POPC   PO420856  14.022  30.093   9.421
 1378POPC   GL120857  14.045  29.901   8.989
 1378POPC   GL220858  14.386  29.993   8.940
 1378POPC   C1A20859  14.104  30.121   8.526
 1378POPC   D2A20860  14.484  30.190   8.272
 1378POPC   C3A20861  14.508  30.089   7.830
 1378POPC   C4A20862  14.215  30.056   7.505
 1378POPC   C1B20863  14.363  29.685   8.610
 1378POPC   C2B20864  14.320  29.730   8.174
 1378POPC   C3B20865  14.621  29.582   7.876
 1378POPC   C4B20866  14.925  29.753   7.583
 1379POPC   NC320867  13.670  43.120   9.639
 1379POPC   PO420868  13.671  42.475   9.585
 1379POPC   GL120869  13.775  42.778   9.250
 1379POPC   GL220870  13.510  43.026   9.136
 1379POPC   C1A20871  13.880  42.878   8.817
 1379POPC   D2A20872  13.643  42.938   8.446
 1379POPC   C3A20873  13.904  42.920   8.100
 1379POPC   C4A20874  13.805  42.883   7.676
 1379POPC   C1B20875  13.568  43.334   8.756
 1379POPC   C2B20876  13.802  43.420   8.321
 1379POPC   C3B20877  13.682  43.351   7.852
 1379POPC   C4B20878  13.458  43.607   7.497
 1380POPC   NC320879  39.554  12.811   9.571
 1380POPC   PO420880  38.942  12.567   9.481
 1380POPC   GL120881  39.156  12.880   9.227
 1380POPC   GL220882  38.965  13.174   9.166
 1380POPC   C1A20883  39.234  12.855   8.793
 1380POPC   D2A20884  39.072  12.640   8.421
 1380POPC   C3A20885  39.205  12.813   8.034
 1380POPC   C4A20886  39.318  12.941   7.656
 1380POPC   C1B20887  38.867  13.284   8.749
 1380POPC   C2B20888  39.019  13.166   8.349
 1380POPC   C3B20889  38.923  13.256   7.906
 1380POPC   C4B20890  38.952  13.222   7.428
 1381POPC   NC320891  24.233  31.691   9.676
 1381POPC   PO420892  24.808  31.424   9.535
 1381POPC   GL120893  24.679  31.319   9.123
 1381POPC   GL220894  24.328  31.474   9.098
 1381POPC   C1A20895  24.616  31.468   8.690
 1381POPC   D2A20896  24.575  31.807   8.447
 1381POPC   C3A20897  24.595  31.615   8.067
 1381POPC   C4A20898  24.301  31.461   7.805
 1381POPC   C1B20899  24.150  31.257   8.722
 1381POPC   C2B20900  24.329  31.194   8.314
 1381POPC   C3B20901  24.206  30.959   7.963
 1381POPC   C4B20902  24.143  31.033   7.544
 1382POPC   NC320903  10.160  25.933   9.561
 1382POPC   PO420904   9.485  25.975   9.514
 1382POPC   GL120905   9.638  25.863   9.088
 1382POPC   GL220906   9.991  25.992   9.013
 1382POPC   C1A20907   9.508  25.708   8.682
 1382POPC   D2A20908   9.321  25.851   8.273
 1382POPC   C3A20909   9.599  26.091   8.093
 1382POPC   C4A20910   9.802  26.190   7.733
 1382POPC   C1B20911   9.894  26.033   8.543
 1382POPC   C2B20912  10.114  26.001   8.123
 1382POPC   C3B20913  10.309  26.217   7.751
 1382POPC   C4B20914  10.095  26.365   7.353
 1383POPC   NC320915   4.154  12.359   9.527
 1383POPC   PO420916   4.527  11.925   9.553
 1383POPC   GL120917   4.240  11.977   9.174
 1383POPC   GL220918   4.383  12.276   9.092
 1383POPC   C1A20919   4.348  11.979   8.704
 1383POPC   D2A20920   4.456  11.750   8.351
 1383POPC   C3A20921   4.507  11.976   7.949
 1383POPC   C4A20922   4.519  11.936   7.501
 1383POPC   C1B20923   4.338  12.482   8.714
 1383POPC   C2B20924   4.339  12.314   8.312
 1383POPC   C3B20925   4.244  12.429   7.913
 1383POPC   C4B20926   3.947  12.433   7.610
 1384POPC   NC320927   2.518  27.335  10.060
 1384POPC   PO420928   2.528  27.759   9.534
 1384POPC   GL120929   2.577  27.653   9.130
 1384POPC   GL220930   2.726  27.334   9.019
 1384POPC   C1A20931   2.514  27.788   8.756
 1384POPC   D2A20932   2.772  27.707   8.454
 1384POPC   C3A20933   2.632  27.783   8.063
 1384POPC   C4A20934   2.849  27.770   7.670
 1384POPC   C1B20935   2.474  27.275   8.684
 1384POPC   C2B20936   2.551  27.293   8.277
 1384POPC   C3B20937   2.920  27.363   8.028
 1384POPC   C4B20938   2.618  27.322   7.746
 1385POPC   NC320939  21.053  32.778   9.737
 1385POPC   PO420940  20.603  32.830   9.267
 1385POPC   GL120941  20.799  33.121   8.993
 1385POPC   GL220942  21.057  33.460   9.070
 1385POPC   C1A20943  20.557  33.339   8.689
 1385POPC   D2A20944  20.624  33.454   8.281
 1385POPC   C3A20945  20.580  33.087   7.998
 1385POPC   C4A20946  20.826  32.890   7.695
 1385POPC   C1B20947  21.078  33.331   8.650
 1385POPC   C2B20948  20.943  33.072   8.351
 1385POPC   C3B20949  21.024  33.315   7.971
 1385POPC   C4B20950  20.838  33.365   7.543
 1386POPC   NC320951  31.191  10.723   9.532
 1386POPC   PO420952  31.656  10.345   9.934
 1386POPC   GL120953  31.574  10.419   9.372
 1386POPC   GL220954  31.309  10.451   9.149
 1386POPC   C1A20955  31.686  10.647   8.896
 1386POPC   D2A20956  31.488  10.743   8.461
 1386POPC   C3A20957  31.550  10.509   8.094
 1386POPC   C4A20958  31.708  10.540   7.669
 1386POPC   C1B20959  31.142  10.759   8.864
 1386POPC   C2B20960  31.010  10.954   8.488
 1386POPC   C3B20961  31.106  10.877   8.064
 1386POPC   C4B20962  31.199  10.673   7.662
 1387POPC   NC320963  11.293  35.883   9.262
 1387POPC   PO420964  11.576  35.545   9.732
 1387POPC   GL120965  11.507  35.417   9.261
 1387POPC   GL220966  11.144  35.377   9.201
 1387POPC   C1A20967  11.538  35.547   8.793
 1387POPC   D2A20968  11.339  35.698   8.417
 1387POPC   C3A20969  11.396  35.439   8.059
 1387POPC   C4A20970  11.378  35.081   7.785
 1387POPC   C1B20971  11.006  35.464   8.780
 1387POPC   C2B20972  10.989  35.305   8.356
 1387POPC   C3B20973  10.926  35.294   7.888
 1387POPC   C4B20974  11.115  35.655   7.657
 1388POPC   NC320975  16.288  39.616   9.392
 1388POPC   PO420976  15.808  40.116   9.601
 1388POPC   GL120977  15.878  40.230   9.164
 1388POPC   GL220978  16.001  39.905   9.097
 1388POPC   C1A20979  15.830  40.194   8.699
 1388POPC   D2A20980  15.837  39.995   8.302
 1388POPC   C3A20981  15.760  40.199   7.908
 1388POPC   C4A20982  15.811  40.250   7.448
 1388POPC   C1B20983  16.333  40.025   8.836
 1388POPC   C2B20984  16.365  40.002   8.405
 1388POPC   C3B20985  16.334  40.022   7.957
 1388POPC   C4B20986  16.213  39.935   7.510
 1389POPC   NC320987   3.335  39.138   9.503
 1389POPC   PO420988   3.630  39.658   9.231
 1389POPC   GL120989   3.632  39.229   9.064
 1389POPC   GL220990   3.391  38.936   9.056
 1389POPC   C1A20991   3.554  39.288   8.638
 1389POPC   D2A20992   3.642  39.430   8.225
 1389POPC   C3A20993   3.279  39.416   8.034
 1389POPC   C4A20994   3.274  39.542   7.649
 1389POPC   C1B20995   3.580  38.782   8.722
 1389POPC   C2B20996   3.682  38.899   8.331
 1389POPC   C3B20997   3.424  38.785   8.022
 1389POPC   C4B20998   3.532  39.057   7.729
 1390POPC   NC320999  40.997  35.607   9.342
 1390POPC   PO421000  40.709  36.259   9.482
 1390POPC   GL121001  40.864  36.044   9.125
 1390POPC   GL221002  41.205  36.028   9.056
 1390POPC   C1A21003  40.836  35.829   8.728
 1390POPC   D2A21004  40.598  35.811   8.357
 1390POPC   C3A21005  40.805  35.902   7.990
 1390POPC   C4A21006  40.602  35.921   7.595
 1390POPC   C1B21007  41.048  36.312   8.724
 1390POPC   C2B21008  41.061  36.401   8.283
 1390POPC   C3B21009  40.907  36.386   7.866
 1390POPC   C4B21010  40.817  36.538   7.463
 1391POPC   NC321011   2.293  34.860   9.366
 1391POPC   PO421012   1.737  34.429   9.543
 1391POPC   GL121013   1.991  34.453   9.196
 1391POPC   GL221014   1.843  34.758   9.117
 1391POPC   C1A21015   2.153  34.451   8.787
 1391POPC   D2A21016   2.178  34.711   8.421
 1391POPC   C3A21017   2.036  34.544   8.029
 1391POPC   C4A21018   2.186  34.526   7.620
 1391POPC   C1B21019   1.736  34.816   8.699
 1391POPC   C2B21020   1.714  34.933   8.255
 1391POPC   C3B21021   1.707  34.883   7.812
 1391POPC   C4B21022   1.816  34.807   7.407
 1392POPC   NC321023  36.654  12.229   9.443
 1392POPC   PO421024  37.342  12.349   9.478
 1392POPC   GL121025  37.055  12.333   9.137
 1392POPC   GL221026  36.985  12.012   9.070
 1392POPC   C1A21027  36.860  12.325   8.716
 1392POPC   D2A21028  37.057  12.272   8.324
 1392POPC   C3A21029  37.029  11.982   8.007
 1392POPC   C4A21030  36.915  12.066   7.589
 1392POPC   C1B21031  36.666  11.822   8.763
 1392POPC   C2B21032  36.682  11.777   8.310
 1392POPC   C3B21033  36.633  11.701   7.830
 1392POPC   C4B21034  36.651  11.723   7.337
 1393POPC   NC321035  28.051  35.005   9.806
 1393POPC   PO421036  28.322  34.496   9.428
 1393POPC   GL121037  28.324  34.377   9.033
 1393POPC   GL221038  27.999  34.275   9.038
 1393POPC   C1A21039  28.536  34.438   8.660
 1393POPC   D2A21040  28.415  34.624   8.312
 1393POPC   C3A21041  28.403  34.508   7.887
 1393POPC   C4A21042  28.477  34.720   7.503
 1393POPC   C1B21043  27.981  34.393   8.600
 1393POPC   C2B21044  27.974  34.398   8.151
 1393POPC   C3B21045  27.936  34.754   7.858
 1393POPC   C4B21046  28.000  34.785   7.427
 1394POPC   NC321047   2.951  41.558   9.425
 1394POPC   PO421048   2.287  41.375   9.514
 1394POPC   GL121049   2.502  41.503   9.161
 1394POPC   GL221050   2.564  41.855   9.057
 1394POPC   C1A21051   2.683  41.423   8.780
 1394POPC   D2A21052   2.636  41.702   8.442
 1394POPC   C3A21053   2.755  41.612   8.036
 1394POPC   C4A21054   2.578  41.869   7.742
 1394POPC   C1B21055   2.978  41.846   8.812
 1394POPC   C2B21056   3.211  41.767   8.418
 1394POPC   C3B21057   3.229  41.889   7.980
 1394POPC   C4B21058   3.344  41.808   7.518
 1395POPC   NC321059  20.684  33.400   9.389
 1395POPC   PO421060  20.928  34.090   9.504
 1395POPC   GL121061  20.709  33.923   9.158
 1395POPC   GL221062  20.373  34.053   9.207
 1395POPC   C1A21063  20.757  33.801   8.731
 1395POPC   D2A21064  20.999  33.797   8.364
 1395POPC   C3A21065  20.801  33.796   7.956
 1395POPC   C4A21066  20.428  33.548   7.817
 1395POPC   C1B21067  20.270  33.997   8.779
 1395POPC   C2B21068  20.246  33.766   8.411
 1395POPC   C3B21069  20.231  33.958   8.031
 1395POPC   C4B21070  20.478  34.184   7.799
 1396POPC   NC321071   3.823  29.462   9.479
 1396POPC   PO421072   3.418  29.977   9.541
 1396POPC   GL121073   3.511  29.756   9.161
 1396POPC   GL221074   3.802  29.684   8.961
 1396POPC   C1A21075   3.307  29.736   8.779
 1396POPC   D2A21076   3.173  29.667   8.373
 1396POPC   C3A21077   3.435  29.762   8.033
 1396POPC   C4A21078   3.322  29.725   7.635
 1396POPC   C1B21079   3.646  30.088   8.694
 1396POPC   C2B21080   3.526  30.196   8.277
 1396POPC   C3B21081   3.519  30.233   7.814
 1396POPC   C4B21082   3.712  30.342   7.441
 1397POPC   NC321083  22.677  27.000   9.901
 1397POPC   PO421084  23.126  26.938   9.391
 1397POPC   GL121085  22.961  26.626   9.121
 1397POPC   GL221086  23.147  26.315   9.082
 1397POPC   C1A21087  22.846  26.701   8.713
 1397POPC   D2A21088  22.755  26.989   8.386
 1397POPC   C3A21089  22.822  26.796   7.997
 1397POPC   C4A21090  22.904  27.070   7.667
 1397POPC   C1B21091  23.390  26.415   8.692
 1397POPC   C2B21092  23.491  26.400   8.236
 1397POPC   C3B21093  23.287  26.579   7.868
 1397POPC   C4B21094  22.936  26.590   7.516
 1398POPC   NC321095  39.738  15.167   9.720
 1398POPC   PO421096  40.329  15.351   9.491
 1398POPC   GL121097  40.031  15.156   9.194
 1398POPC   GL221098  39.828  15.359   8.994
 1398POPC   C1A21099  40.031  14.978   8.754
 1398POPC   D2A21100  39.807  14.895   8.362
 1398POPC   C3A21101  40.039  15.049   8.020
 1398POPC   C4A21102  40.074  14.829   7.661
 1398POPC   C1B21103  40.158  15.459   8.663
 1398POPC   C2B21104  40.078  15.529   8.249
 1398POPC   C3B21105  40.166  15.566   7.845
 1398POPC   C4B21106  40.463  15.344   7.616
 1399POPC   NC321107  25.372   3.541   9.625
 1399POPC   PO421108  24.765   3.671   9.574
 1399POPC   GL121109  25.004   3.664   9.191
 1399POPC   GL221110  25.278   3.412   9.134
 1399POPC   C1A21111  25.221   3.868   8.870
 1399POPC   D2A21112  25.566   3.781   8.607
 1399POPC   C3A21113  25.394   3.580   8.243
 1399POPC   C4A21114  25.310   3.710   7.836
 1399POPC   C1B21115  25.201   3.368   8.676
 1399POPC   C2B21116  25.069   3.159   8.255
 1399POPC   C3B21117  25.114   3.229   7.798
 1399POPC   C4B21118  25.135   3.291   7.332
 1400POPC   NC321119   8.604  11.807   9.481
 1400POPC   PO421120   9.270  11.851   9.497
 1400POPC   GL121121   9.002  11.954   9.170
 1400POPC   GL221122   8.792  12.218   9.242
 1400POPC   C1A21123   8.776  11.852   8.785
 1400POPC   D2A21124   8.784  12.019   8.351
 1400POPC   C3A21125   9.113  12.045   8.021
 1400POPC   C4A21126   9.155  12.096   7.535
 1400POPC   C1B21127   8.524  12.315   8.877
 1400POPC   C2B21128   8.520  12.474   8.446
 1400POPC   C3B21129   8.738  12.443   8.070
 1400POPC   C4B21130   8.691  12.147   7.733
 1401POPC   NC321131   1.116   4.623   9.590
 1401POPC   PO421132   1.260   4.085   9.362
 1401POPC   GL121133   1.078   4.201   8.984
 1401POPC   GL221134   0.982   4.524   9.094
 1401POPC   C1A21135   0.948   4.083   8.592
 1401POPC   D2A21136   1.169   4.239   8.297
 1401POPC   C3A21137   1.108   4.384   7.909
 1401POPC   C4A21138   1.445   4.499   7.649
 1401POPC   C1B21139   1.151   4.610   8.677
 1401POPC   C2B21140   1.149   4.754   8.255
 1401POPC   C3B21141   1.122   4.889   7.810
 1401POPC   C4B21142   0.969   4.618   7.454
 1402POPC   NC321143  33.768   6.281   9.529
 1402POPC   PO421144  34.173   6.749   9.671
 1402POPC   GL121145  33.929   6.876   9.295
 1402POPC   GL221146  33.835   6.564   9.127
 1402POPC   C1A21147  34.013   6.918   8.827
 1402POPC   D2A21148  33.937   6.684   8.460
 1402POPC   C3A21149  33.828   6.778   8.042
 1402POPC   C4A21150  33.934   6.668   7.635
 1402POPC   C1B21151  33.695   6.314   8.702
 1402POPC   C2B21152  33.852   6.215   8.262
 1402POPC   C3B21153  33.638   6.299   7.854
 1402POPC   C4B21154  33.434   6.335   7.431
 1403POPC   NC321155  39.436  39.219   9.471
 1403POPC   PO421156  38.905  38.768   9.581
 1403POPC   GL121157  39.059  38.984   9.223
 1403POPC   GL221158  38.912  39.303   9.074
 1403POPC   C1A21159  39.258  38.977   8.831
 1403POPC   D2A21160  39.330  39.267   8.515
 1403POPC   C3A21161  39.387  39.100   8.128
 1403POPC   C4A21162  39.400  39.342   7.773
 1403POPC   C1B21163  38.822  39.175   8.615
 1403POPC   C2B21164  38.872  39.198   8.142
 1403POPC   C3B21165  38.936  39.138   7.675
 1403POPC   C4B21166  38.911  39.072   7.193
 1404POPC   NC321167  35.532  27.641   9.743
 1404POPC   PO421168  35.287  27.785   9.188
 1404POPC   GL121169  35.444  27.441   9.060
 1404POPC   GL221170  35.200  27.241   8.983
 1404POPC   C1A21171  35.622  27.461   8.678
 1404POPC   D2A21172  35.501  27.638   8.307
 1404POPC   C3A21173  35.353  27.424   7.976
 1404POPC   C4A21174  35.520  27.726   7.693
 1404POPC   C1B21175  35.137  27.416   8.588
 1404POPC   C2B21176  34.910  27.720   8.402
 1404POPC   C3B21177  35.110  27.925   8.066
 1404POPC   C4B21178  34.947  27.930   7.653
 1405POPC   NC321179  25.585  37.008   9.485
 1405POPC   PO421180  25.010  36.536   9.451
 1405POPC   GL121181  25.182  36.784   9.161
 1405POPC   GL221182  25.522  36.611   9.180
 1405POPC   C1A21183  25.024  36.904   8.750
 1405POPC   D2A21184  25.072  37.096   8.331
 1405POPC   C3A21185  24.979  36.874   7.977
 1405POPC   C4A21186  25.138  36.953   7.605
 1405POPC   C1B21187  25.559  36.916   8.838
 1405POPC   C2B21188  25.538  36.946   8.406
 1405POPC   C3B21189  25.487  37.046   7.976
 1405POPC   C4B21190  25.670  36.781   7.670
 1406POPC   NC321191  34.618  11.616   9.427
 1406POPC   PO421192  34.100  12.061   9.497
 1406POPC   GL121193  34.426  12.041   9.157
 1406POPC   GL221194  34.773  12.057   9.168
 1406POPC   C1A21195  34.539  12.110   8.723
 1406POPC   D2A21196  34.415  12.227   8.302
 1406POPC   C3A21197  34.736  12.404   8.021
 1406POPC   C4A21198  34.887  12.179   7.679
 1406POPC   C1B21199  34.987  11.855   8.827
 1406POPC   C2B21200  34.769  11.711   8.478
 1406POPC   C3B21201  34.812  11.844   8.063
 1406POPC   C4B21202  34.934  11.622   7.697
 1407POPC   NC321203  14.571  12.588   9.312
 1407POPC   PO421204  14.002  12.812   9.478
 1407POPC   GL121205  14.131  13.013   9.103
 1407POPC   GL221206  14.430  12.904   8.951
 1407POPC   C1A21207  14.114  13.252   8.738
 1407POPC   D2A21208  14.380  13.061   8.459
 1407POPC   C3A21209  14.365  13.166   8.050
 1407POPC   C4A21210  14.427  13.052   7.637
 1407POPC   C1B21211  14.063  12.705   8.726
 1407POPC   C2B21212  14.089  12.647   8.327
 1407POPC   C3B21213  14.399  12.654   8.010
 1407POPC   C4B21214  14.238  12.556   7.623
 1408POPC   NC321215  38.359  11.916   9.541
 1408POPC   PO421216  38.929  11.653   9.291
 1408POPC   GL121217  38.564  11.786   9.053
 1408POPC   GL221218  38.471  12.110   9.062
 1408POPC   C1A21219  38.337  11.820   8.648
 1408POPC   D2A21220  38.326  11.895   8.197
 1408POPC   C3A21221  38.640  11.959   7.881
 1408POPC   C4A21222  38.523  11.997   7.433
 1408POPC   C1B21223  38.364  12.347   8.690
 1408POPC   C2B21224  38.453  12.404   8.241
 1408POPC   C3B21225  38.429  12.436   7.782
 1408POPC   C4B21226  38.524  12.519   7.347
 1409POPC   NC321227   2.006  35.614   9.288
 1409POPC   PO421228   2.006  36.257   9.540
 1409POPC   GL121229   2.005  36.263   9.133
 1409POPC   GL221230   2.239  36.035   9.022
 1409POPC   C1A21231   1.813  36.168   8.742
 1409POPC   D2A21232   1.847  36.329   8.345
 1409POPC   C3A21233   1.694  36.017   8.073
 1409POPC   C4A21234   1.812  36.147   7.674
 1409POPC   C1B21235   2.327  36.364   8.723
 1409POPC   C2B21236   2.428  36.363   8.285
 1409POPC   C3B21237   2.186  36.396   7.918
 1409POPC   C4B21238   2.254  36.228   7.469
 1410POPC   NC321239  35.904  35.652   9.518
 1410POPC   PO421240  36.507  35.363   9.351
 1410POPC   GL121241  36.228  35.606   9.136
 1410POPC   GL221242  36.471  35.854   9.118
 1410POPC   C1A21243  36.010  35.463   8.788
 1410POPC   D2A21244  36.083  35.106   8.504
 1410POPC   C3A21245  35.874  35.064   8.114
 1410POPC   C4A21246  35.910  35.129   7.668
 1410POPC   C1B21247  36.530  35.583   8.735
 1410POPC   C2B21248  36.290  35.590   8.368
 1410POPC   C3B21249  36.176  35.501   7.948
 1410POPC   C4B21250  36.388  35.694   7.610
 1411POPC   NC321251  24.029  23.229   9.446
 1411POPC   PO421252  24.396  23.877   9.450
 1411POPC   GL121253  24.483  23.724   9.068
 1411POPC   GL221254  24.498  23.376   9.201
 1411POPC   C1A21255  24.783  23.687   8.741
 1411POPC   D2A21256  24.881  23.486   8.383
 1411POPC   C3A21257  24.700  23.668   8.057
 1411POPC   C4A21258  24.839  23.854   7.698
 1411POPC   C1B21259  24.282  23.316   8.819
 1411POPC   C2B21260  24.351  23.480   8.427
 1411POPC   C3B21261  24.295  23.322   8.012
 1411POPC   C4B21262  24.390  23.575   7.670
 1412POPC   NC321263  39.221  14.574   9.885
 1412POPC   PO421264  38.989  14.157   9.359
 1412POPC   GL121265  39.369  14.174   9.187
 1412POPC   GL221266  39.437  14.501   9.166
 1412POPC   C1A21267  39.506  14.116   8.778
 1412POPC   D2A21268  39.268  14.067   8.394
 1412POPC   C3A21269  39.293  14.261   8.042
 1412POPC   C4A21270  39.470  14.465   7.722
 1412POPC   C1B21271  39.238  14.570   8.751
 1412POPC   C2B21272  39.309  14.727   8.347
 1412POPC   C3B21273  39.100  14.724   7.968
 1412POPC   C4B21274  39.109  14.745   7.530
 1413POPC   NC321275  37.730  19.993   9.716
 1413POPC   PO421276  37.378  19.576   9.423
 1413POPC   GL121277  37.633  19.898   9.203
 1413POPC   GL221278  37.873  20.204   9.259
 1413POPC   C1A21279  37.540  19.860   8.779
 1413POPC   D2A21280  37.239  19.877   8.451
 1413POPC   C3A21281  37.426  19.697   8.108
 1413POPC   C4A21282  37.380  19.859   7.710
 1413POPC   C1B21283  38.032  20.053   8.853
 1413POPC   C2B21284  37.882  20.012   8.433
 1413POPC   C3B21285  37.935  19.769   8.076
 1413POPC   C4B21286  37.917  19.903   7.687
 1414POPC   NC321287  21.504  29.955   9.585
 1414POPC   PO421288  20.888  30.135   9.571
 1414POPC   GL121289  21.199  30.132   9.188
 1414POPC   GL221290  21.376  29.845   9.111
 1414POPC   C1A21291  21.178  30.163   8.733
 1414POPC   D2A21292  21.436  30.184   8.346
 1414POPC   C3A21293  21.203  30.071   7.995
 1414POPC   C4A21294  21.194  29.744   7.714
 1414POPC   C1B21295  21.640  29.948   8.771
 1414POPC   C2B21296  21.630  29.695   8.419
 1414POPC   C3B21297  21.660  29.734   7.979
 1414POPC   C4B21298  21.695  30.042   7.691
 1415POPC   NC321299  21.655  40.882   9.487
 1415POPC   PO421300  21.047  41.190   9.467
 1415POPC   GL121301  21.212  40.731   9.228
 1415POPC   GL221302  21.583  40.498   9.177
 1415POPC   C1A21303  21.309  40.649   8.781
 1415POPC   D2A21304  21.453  40.922   8.456
 1415POPC   C3A21305  21.408  40.796   8.027
 1415POPC   C4A21306  21.649  41.012   7.709
 1415POPC   C1B21307  21.714  40.354   8.766
 1415POPC   C2B21308  21.563  40.422   8.352
 1415POPC   C3B21309  21.490  40.242   7.962
 1415POPC   C4B21310  21.523  40.498   7.613
 1416POPC   NC321311  22.335   3.068   9.312
 1416POPC   PO421312  22.095   2.521   9.539
 1416POPC   GL121313  22.168   2.617   9.131
 1416POPC   GL221314  21.897   2.858   9.144
 1416POPC   C1A21315  22.202   2.798   8.714
 1416POPC   D2A21316  22.427   3.024   8.391
 1416POPC   C3A21317  22.227   2.839   8.061
 1416POPC   C4A21318  22.392   2.751   7.684
 1416POPC   C1B21319  21.741   2.548   8.863
 1416POPC   C2B21320  21.696   2.532   8.427
 1416POPC   C3B21321  21.702   2.741   8.031
 1416POPC   C4B21322  21.908   2.638   7.651
 1417POPC   NC321323  24.310  19.183   9.519
 1417POPC   PO421324  24.927  19.243   9.484
 1417POPC   GL121325  24.610  19.119   9.121
 1417POPC   GL221326  24.260  19.319   9.050
 1417POPC   C1A21327  24.452  18.857   8.729
 1417POPC   D2A21328  24.287  18.809   8.268
 1417POPC   C3A21329  24.569  18.879   7.893
 1417POPC   C4A21330  24.602  19.067   7.477
 1417POPC   C1B21331  24.488  19.380   8.695
 1417POPC   C2B21332  24.513  19.569   8.339
 1417POPC   C3B21333  24.402  19.318   8.051
 1417POPC   C4B21334  24.235  19.322   7.681
 1418POPC   NC321335  32.449  12.851   9.456
 1418POPC   PO421336  31.828  12.620   9.585
 1418POPC   GL121337  32.011  12.624   9.166
 1418POPC   GL221338  32.368  12.585   9.026
 1418POPC   C1A21339  31.973  12.812   8.741
 1418POPC   D2A21340  32.245  12.962   8.416
 1418POPC   C3A21341  32.135  12.741   8.043
 1418POPC   C4A21342  31.932  12.845   7.658
 1418POPC   C1B21343  32.641  12.867   8.774
 1418POPC   C2B21344  32.710  12.750   8.349
 1418POPC   C3B21345  32.605  12.909   7.985
 1418POPC   C4B21346  32.435  12.872   7.617
 1419POPC   NC321347  32.158  33.521   9.475
 1419POPC   PO421348  32.201  32.839   9.346
 1419POPC   GL121349  32.251  33.177   9.102
 1419POPC   GL221350  31.903  33.276   9.097
 1419POPC   C1A21351  32.174  33.167   8.671
 1419POPC   D2A21352  31.991  32.918   8.368
 1419POPC   C3A21353  32.244  33.025   8.017
 1419POPC   C4A21354  32.384  32.920   7.605
 1419POPC   C1B21355  31.734  33.412   8.716
 1419POPC   C2B21356  31.883  33.431   8.314
 1419POPC   C3B21357  31.768  33.204   7.977
 1419POPC   C4B21358  31.972  33.203   7.600
 1420POPC   NC321359   2.475  15.168   9.820
 1420POPC   PO421360   2.468  15.308   9.140
 1420POPC   GL121361   2.856  15.245   8.907
 1420POPC   GL221362   3.079  14.989   9.001
 1420POPC   C1A21363   2.820  14.993   8.548
 1420POPC   D2A21364   2.476  15.088   8.248
 1420POPC   C3A21365   2.608  15.294   7.834
 1420POPC   C4A21366   2.880  15.482   7.503
 1420POPC   C1B21367   3.167  14.645   8.755
 1420POPC   C2B21368   3.102  14.610   8.323
 1420POPC   C3B21369   2.937  14.944   8.046
 1420POPC   C4B21370   3.062  15.034   7.612
 1421POPC   NC321371  21.729  36.209   9.909
 1421POPC   PO421372  21.312  36.531   9.456
 1421POPC   GL121373  21.510  36.837   9.179
 1421POPC   GL221374  21.252  37.100   9.084
 1421POPC   C1A21375  21.493  36.827   8.730
 1421POPC   D2A21376  21.363  36.640   8.355
 1421POPC   C3A21377  21.540  36.890   7.994
 1421POPC   C4A21378  21.484  36.865   7.571
 1421POPC   C1B21379  21.005  36.802   8.780
 1421POPC   C2B21380  20.936  36.923   8.346
 1421POPC   C3B21381  21.047  36.813   7.938
 1421POPC   C4B21382  20.998  36.966   7.540
 1422POPC   NC321383  39.528  29.098   9.435
 1422POPC   PO421384  40.191  29.189   9.551
 1422POPC   GL121385  39.947  29.328   9.224
 1422POPC   GL221386  39.941  29.006   9.103
 1422POPC   C1A21387  39.737  29.385   8.812
 1422POPC   D2A21388  39.680  29.128   8.414
 1422POPC   C3A21389  39.620  29.300   8.007
 1422POPC   C4A21390  39.840  29.289   7.597
 1422POPC   C1B21391  40.114  29.031   8.693
 1422POPC   C2B21392  40.048  28.792   8.314
 1422POPC   C3B21393  39.841  28.808   7.918
 1422POPC   C4B21394  39.810  28.803   7.474
 1423POPC   NC321395  10.819  26.532   9.512
 1423POPC   PO421396  11.373  26.687   9.737
 1423POPC   GL121397  11.289  26.796   9.313
 1423POPC   GL221398  11.247  26.481   9.196
 1423POPC   C1A21399  11.219  26.851   8.836
 1423POPC   D2A21400  11.084  27.043   8.428
 1423POPC   C3A21401  11.290  27.032   8.002
 1423POPC   C4A21402  11.242  26.861   7.567
 1423POPC   C1B21403  11.054  26.367   8.797
 1423POPC   C2B21404  11.202  26.530   8.401
 1423POPC   C3B21405  11.119  26.544   7.967
 1423POPC   C4B21406  10.898  26.289   7.681
 1424POPC   NC321407  25.627  17.592   9.570
 1424POPC   PO421408  26.181  17.580   9.644
 1424POPC   GL121409  26.235  17.549   9.173
 1424POPC   GL221410  26.469  17.795   9.084
 1424POPC   C1A21411  26.011  17.461   8.739
 1424POPC   D2A21412  25.715  17.555   8.371
 1424POPC   C3A21413  25.749  17.402   7.940
 1424POPC   C4A21414  25.895  17.594   7.578
 1424POPC   C1B21415  26.321  17.855   8.647
 1424POPC   C2B21416  26.235  17.713   8.200
 1424POPC   C3B21417  26.350  17.749   7.741
 1424POPC   C4B21418  26.458  18.100   7.452
 1425POPC   NC321419  43.503   7.341   9.415
 1425POPC   PO421420  44.089   7.688   9.397
 1425POPC   GL121421  43.837   7.527   9.063
 1425POPC   GL221422  43.483   7.611   8.991
 1425POPC   C1A21423  43.924   7.354   8.690
 1425POPC   D2A21424  43.773   7.342   8.308
 1425POPC   C3A21425  44.012   7.147   8.015
 1425POPC   C4A21426  44.197   7.189   7.619
 1425POPC   C1B21427  43.652   7.815   8.643
 1425POPC   C2B21428  43.898   7.869   8.283
 1425POPC   C3B21429  43.869   7.631   7.884
 1425POPC   C4B21430  43.920   7.571   7.442
 1426POPC   NC321431  11.361   6.905   9.417
 1426POPC   PO421432  10.835   6.471   9.397
 1426POPC   GL121433  10.952   6.760   9.051
 1426POPC   GL221434  11.310   6.913   8.935
 1426POPC   C1A21435  10.976   6.844   8.588
 1426POPC   D2A21436  11.392   6.775   8.359
 1426POPC   C3A21437  11.317   6.788   7.941
 1426POPC   C4A21438  10.874   6.833   7.939
 1426POPC   C1B21439  11.524   6.567   8.814
 1426POPC   C2B21440  11.731   6.413   8.466
 1426POPC   C3B21441  11.654   6.315   8.063
 1426POPC   C4B21442  11.481   6.321   7.675
 1427POPC   NC321443  35.186   2.468   9.895
 1427POPC   PO421444  35.550   2.826   9.450
 1427POPC   GL121445  35.323   2.641   9.128
 1427POPC   GL221446  35.007   2.521   9.230
 1427POPC   C1A21447  35.443   2.611   8.708
 1427POPC   D2A21448  35.632   2.633   8.268
 1427POPC   C3A21449  35.691   2.517   7.796
 1427POPC   C4A21450  35.564   2.882   7.512
 1427POPC   C1B21451  34.916   2.559   8.785
 1427POPC   C2B21452  35.101   2.516   8.354
 1427POPC   C3B21453  35.239   2.663   7.931
 1427POPC   C4B21454  35.129   2.636   7.462
 1428POPC   NC321455  18.529  41.098   9.920
 1428POPC   PO421456  18.188  40.662   9.481
 1428POPC   GL121457  18.349  40.643   9.083
 1428POPC   GL221458  18.025  40.756   9.011
 1428POPC   C1A21459  18.601  40.677   8.736
 1428POPC   D2A21460  18.583  40.941   8.359
 1428POPC   C3A21461  18.307  40.725   8.099
 1428POPC   C4A21462  18.448  40.672   7.710
 1428POPC   C1B21463  18.171  40.991   8.691
 1428POPC   C2B21464  17.924  40.950   8.347
 1428POPC   C3B21465  17.853  40.928   7.928
 1428POPC   C4B21466  18.077  41.006   7.603
 1429POPC   NC321467  35.367  14.662   9.602
 1429POPC   PO421468  35.236  14.018   9.500
 1429POPC   GL121469  35.334  14.353   9.195
 1429POPC   GL221470  35.038  14.557   9.134
 1429POPC   C1A21471  35.444  14.632   8.833
 1429POPC   D2A21472  35.499  14.487   8.413
 1429POPC   C3A21473  35.382  14.675   8.014
 1429POPC   C4A21474  35.672  14.495   7.708
 1429POPC   C1B21475  35.108  14.232   8.747
 1429POPC   C2B21476  35.117  14.178   8.271
 1429POPC   C3B21477  35.244  14.214   7.833
 1429POPC   C4B21478  34.981  14.259   7.486
 1430POPC   NC321479  41.987  18.137   9.419
 1430POPC   PO421480  42.650  18.342   9.547
 1430POPC   GL121481  42.414  18.337   9.188
 1430POPC   GL221482  42.417  17.999   9.142
 1430POPC   C1A21483  42.183  18.252   8.764
 1430POPC   D2A21484  42.190  17.962   8.384
 1430POPC   C3A21485  42.152  18.168   7.968
 1430POPC   C4A21486  42.249  18.570   7.794
 1430POPC   C1B21487  42.687  18.144   8.814
 1430POPC   C2B21488  42.612  18.331   8.427
 1430POPC   C3B21489  42.659  18.298   7.995
 1430POPC   C4B21490  42.741  18.041   7.641
 1431POPC   NC321491  21.597  20.251   9.473
 1431POPC   PO421492  21.446  19.562   9.536
 1431POPC   GL121493  21.322  19.738   9.135
 1431POPC   GL221494  21.626  19.889   9.112
 1431POPC   C1A21495  21.234  19.711   8.675
 1431POPC   D2A21496  21.519  19.769   8.300
 1431POPC   C3A21497  21.201  19.656   8.008
 1431POPC   C4A21498  21.075  19.706   7.570
 1431POPC   C1B21499  21.724  19.982   8.737
 1431POPC   C2B21500  21.670  20.246   8.421
 1431POPC   C3B21501  21.695  20.155   7.991
 1431POPC   C4B21502  21.591  19.805   7.698
 1432POPC   NC321503   5.093  38.104   9.546
 1432POPC   PO421504   5.045  38.822   9.556
 1432POPC   GL121505   4.881  38.511   9.282
 1432POPC   GL221506   4.844  38.800   9.083
 1432POPC   C1A21507   4.785  38.348   8.852
 1432POPC   D2A21508   4.878  38.548   8.449
 1432POPC   C3A21509   4.872  38.284   8.077
 1432POPC   C4A21510   4.918  38.484   7.688
 1432POPC   C1B21511   5.203  38.647   8.846
 1432POPC   C2B21512   5.432  38.640   8.462
 1432POPC   C3B21513   5.245  38.656   8.062
 1432POPC   C4B21514   5.438  38.449   7.750
 1433POPC   NC321515   4.495  28.079   9.524
 1433POPC   PO421516   3.834  28.132   9.653
 1433POPC   GL121517   4.048  28.259   9.249
 1433POPC   GL221518   4.301  28.162   9.074
 1433POPC   C1A21519   3.947  28.420   8.818
 1433POPC   D2A21520   4.155  28.473   8.419
 1433POPC   C3A21521   4.112  28.526   7.961
 1433POPC   C4A21522   4.466  28.310   7.827
 1433POPC   C1B21523   4.076  27.921   8.756
 1433POPC   C2B21524   4.162  27.961   8.357
 1433POPC   C3B21525   3.975  28.031   8.004
 1433POPC   C4B21526   4.137  28.015   7.576
 1434POPC   NC321527  23.421  15.641   9.663
 1434POPC   PO421528  23.916  16.190   9.601
 1434POPC   GL121529  23.817  16.131   9.200
 1434POPC   GL221530  23.719  15.801   9.252
 1434POPC   C1A21531  23.906  16.157   8.775
 1434POPC   D2A21532  24.097  16.035   8.404
 1434POPC   C3A21533  24.003  16.170   7.982
 1434POPC   C4A21534  23.943  15.769   7.773
 1434POPC   C1B21535  23.608  15.745   8.856
 1434POPC   C2B21536  23.465  15.979   8.541
 1434POPC   C3B21537  23.572  15.942   8.151
 1434POPC   C4B21538  23.425  15.923   7.760
 1435POPC   NC321539  44.147  35.794   9.541
 1435POPC   PO421540  44.653  35.420   9.512
 1435POPC   GL121541  44.697  35.401   9.119
 1435POPC   GL221542  44.439  35.655   9.115
 1435POPC   C1A21543  44.602  35.172   8.771
 1435POPC   D2A21544  44.625  35.325   8.356
 1435POPC   C3A21545  44.758  35.287   7.900
 1435POPC   C4A21546  44.661  35.154   7.440
 1435POPC   C1B21547  44.368  35.633   8.747
 1435POPC   C2B21548  44.419  35.806   8.389
 1435POPC   C3B21549  44.362  35.614   8.021
 1435POPC   C4B21550  44.447  35.589   7.626
 1436POPC   NC321551  10.336  12.707   9.971
 1436POPC   PO421552  10.423  13.235   9.578
 1436POPC   GL121553  10.526  13.041   9.159
 1436POPC   GL221554  10.839  12.950   9.065
 1436POPC   C1A21555  10.383  12.791   8.776
 1436POPC   D2A21556  10.504  12.648   8.361
 1436POPC   C3A21557  10.229  12.836   8.064
 1436POPC   C4A21558  10.314  12.964   7.653
 1436POPC   C1B21559  10.634  13.228   8.711
 1436POPC   C2B21560  10.581  13.148   8.279
 1436POPC   C3B21561  10.737  12.960   7.938
 1436POPC   C4B21562  11.115  12.831   7.765
 1437POPC   NC321563  31.707  25.204   9.582
 1437POPC   PO421564  31.080  25.379   9.449
 1437POPC   GL121565  31.284  25.264   9.113
 1437POPC   GL221566  31.592  25.418   9.146
 1437POPC   C1A21567  31.328  25.110   8.715
 1437POPC   D2A21568  31.602  25.142   8.362
 1437POPC   C3A21569  31.454  25.296   8.011
 1437POPC   C4A21570  31.446  25.456   7.619
 1437POPC   C1B21571  31.694  25.474   8.750
 1437POPC   C2B21572  31.798  25.623   8.351
 1437POPC   C3B21573  31.870  25.607   7.899
 1437POPC   C4B21574  31.967  25.754   7.451
 1438POPC   NC321575  26.440   0.512   9.377
 1438POPC   PO421576  26.923   0.175   9.703
 1438POPC   GL121577  26.862   0.293   9.204
 1438POPC   GL221578  26.560   0.230   8.991
 1438POPC   C1A21579  26.989   0.301   8.726
 1438POPC   D2A21580  27.297   0.309   8.368
 1438POPC   C3A21581  27.016   0.298   8.026
 1438POPC   C4A21582  26.898   0.587   7.683
 1438POPC   C1B21583  26.473   0.420   8.617
 1438POPC   C2B21584  26.531   0.211   8.243
 1438POPC   C3B21585  26.579   0.210   7.800
 1438POPC   C4B21586  26.651   0.162   7.366
 1439POPC   NC321587  22.698  16.319   9.527
 1439POPC   PO421588  22.076  16.085   9.422
 1439POPC   GL121589  22.216  15.887   9.097
 1439POPC   GL221590  22.475  15.738   9.230
 1439POPC   C1A21591  22.143  15.844   8.687
 1439POPC   D2A21592  22.088  16.112   8.370
 1439POPC   C3A21593  22.174  16.034   7.959
 1439POPC   C4A21594  22.536  16.240   7.822
 1439POPC   C1B21595  22.575  15.597   8.816
 1439POPC   C2B21596  22.527  15.595   8.382
 1439POPC   C3B21597  22.635  15.757   7.992
 1439POPC   C4B21598  22.460  15.771   7.567
 1440POPC   NC321599   8.291   0.817   9.235
 1440POPC   PO421600   8.148   0.155   9.467
 1440POPC   GL121601   8.135   0.210   9.058
 1440POPC   GL221602   8.465   0.369   9.064
 1440POPC   C1A21603   7.895   0.273   8.688
 1440POPC   D2A21604   7.963   0.599   8.333
 1440POPC   C3A21605   8.057   0.480   7.880
 1440POPC   C4A21606   7.992   0.130   7.549
 1440POPC   C1B21607   8.368   0.407   8.603
 1440POPC   C2B21608   8.195   0.123   8.280
 1440POPC   C3B21609   8.377   0.106   7.890
 1440POPC   C4B21610   8.611   0.525   7.824
 1441POPC   NC321611  10.678  31.842   9.479
 1441POPC   PO421612  11.205  32.321   9.484
 1441POPC   GL121613  11.299  32.437   9.097
 1441POPC   GL221614  11.661  32.457   9.179
 1441POPC   C1A21615  11.152  32.243   8.713
 1441POPC   D2A21616  11.357  31.878   8.406
 1441POPC   C3A21617  11.385  32.035   7.971
 1441POPC   C4A21618  11.109  32.328   7.796
 1441POPC   C1B21619  11.634  32.206   8.774
 1441POPC   C2B21620  11.448  32.367   8.344
 1441POPC   C3B21621  11.610  32.485   7.959
 1441POPC   C4B21622  11.545  32.597   7.572
 1442POPC   NC321623  32.195  16.802   9.643
 1442POPC   PO421624  31.877  16.272   9.360
 1442POPC   GL121625  32.085  16.661   9.142
 1442POPC   GL221626  32.425  16.791   9.190
 1442POPC   C1A21627  32.280  16.722   8.704
 1442POPC   D2A21628  32.470  16.435   8.378
 1442POPC   C3A21629  32.193  16.486   8.035
 1442POPC   C4A21630  32.070  16.848   7.792
 1442POPC   C1B21631  32.727  17.050   8.990
 1442POPC   C2B21632  32.733  17.025   8.534
 1442POPC   C3B21633  32.442  16.933   8.205
 1442POPC   C4B21634  32.554  17.037   7.777
 1443POPC   NC321635  28.109  34.888   9.292
 1443POPC   PO421636  28.395  35.348   9.775
 1443POPC   GL121637  28.371  35.379   9.294
 1443POPC   GL221638  28.638  35.185   9.115
 1443POPC   C1A21639  28.233  35.437   8.836
 1443POPC   D2A21640  28.498  35.413   8.438
 1443POPC   C3A21641  28.246  35.493   8.051
 1443POPC   C4A21642  28.123  35.671   7.654
 1443POPC   C1B21643  28.426  34.963   8.739
 1443POPC   C2B21644  28.141  35.046   8.385
 1443POPC   C3B21645  28.348  35.010   7.981
 1443POPC   C4B21646  28.336  35.209   7.581
 1444POPC   NC321647  18.219  28.510   9.406
 1444POPC   PO421648  18.144  27.844   9.508
 1444POPC   GL121649  18.394  28.085   9.195
 1444POPC   GL221650  18.093  28.248   8.997
 1444POPC   C1A21651  18.533  28.147   8.775
 1444POPC   D2A21652  18.183  28.145   8.506
 1444POPC   C3A21653  18.258  28.106   8.092
 1444POPC   C4A21654  18.423  28.401   7.830
 1444POPC   C1B21655  17.838  28.595   8.773
 1444POPC   C2B21656  17.967  28.821   8.386
 1444POPC   C3B21657  17.954  28.553   8.005
 1444POPC   C4B21658  17.911  28.193   7.725
 1445POPC   NC321659  42.861  34.812   9.441
 1445POPC   PO421660  43.468  34.736   9.677
 1445POPC   GL121661  43.306  34.746   9.216
 1445POPC   GL221662  43.143  34.504   9.120
 1445POPC   C1A21663  43.080  34.893   8.793
 1445POPC   D2A21664  42.953  34.752   8.365
 1445POPC   C3A21665  43.161  34.903   7.984
 1445POPC   C4A21666  42.881  34.844   7.653
 1445POPC   C1B21667  42.910  34.398   8.752
 1445POPC   C2B21668  42.963  34.220   8.331
 1445POPC   C3B21669  43.058  34.372   7.918
 1445POPC   C4B21670  42.891  34.312   7.520
 1446POPC   NC321671  25.562  32.411   9.329
 1446POPC   PO421672  25.067  31.971   9.384
 1446POPC   GL121673  25.305  32.071   9.065
 1446POPC   GL221674  25.225  32.458   8.968
 1446POPC   C1A21675  25.398  32.080   8.687
 1446POPC   D2A21676  25.239  32.324   8.432
 1446POPC   C3A21677  25.374  32.117   8.103
 1446POPC   C4A21678  25.431  32.045   7.696
 1446POPC   C1B21679  24.926  32.696   8.745
 1446POPC   C2B21680  24.971  32.748   8.316
 1446POPC   C3B21681  24.985  32.419   7.993
 1446POPC   C4B21682  25.085  32.422   7.547
 1447POPC   NC321683  24.730  12.408   9.778
 1447POPC   PO421684  24.436  12.892   9.423
 1447POPC   GL121685  24.157  12.814   9.131
 1447POPC   GL221686  24.295  12.469   9.104
 1447POPC   C1A21687  24.275  12.814   8.728
 1447POPC   D2A21688  24.559  12.867   8.420
 1447POPC   C3A21689  24.298  13.060   8.140
 1447POPC   C4A21690  24.281  13.098   7.725
 1447POPC   C1B21691  24.489  12.344   8.675
 1447POPC   C2B21692  24.499  12.380   8.213
 1447POPC   C3B21693  24.617  12.722   7.918
 1447POPC   C4B21694  24.491  12.682   7.493
 1448POPC   NC321695  22.215  21.881   9.394
 1448POPC   PO421696  22.073  22.574   9.628
 1448POPC   GL121697  22.292  22.402   9.229
 1448POPC   GL221698  22.053  22.200   9.029
 1448POPC   C1A21699  22.369  22.458   8.750
 1448POPC   D2A21700  22.036  22.419   8.423
 1448POPC   C3A21701  22.203  22.303   8.013
 1448POPC   C4A21702  22.633  22.284   7.861
 1448POPC   C1B21703  22.335  21.950   8.735
 1448POPC   C2B21704  22.523  21.852   8.320
 1448POPC   C3B21705  22.389  21.810   7.901
 1448POPC   C4B21706  22.639  21.873   7.535
 1449POPC   NC321707  40.048  18.958   9.408
 1449POPC   PO421708  39.949  19.564   9.290
 1449POPC   GL121709  39.965  19.260   9.022
 1449POPC   GL221710  40.315  19.316   9.057
 1449POPC   C1A21711  40.088  18.873   8.778
 1449POPC   D2A21712  39.962  18.744   8.383
 1449POPC   C3A21713  39.978  19.049   8.065
 1449POPC   C4A21714  40.135  18.933   7.664
 1449POPC   C1B21715  40.303  19.308   8.636
 1449POPC   C2B21716  40.489  18.929   8.444
 1449POPC   C3B21717  40.478  19.009   8.039
 1449POPC   C4B21718  40.334  19.470   8.038
 1450POPC   NC321719  26.398  12.353   9.736
 1450POPC   PO421720  25.973  11.797   9.506
 1450POPC   GL121721  26.150  12.008   9.158
 1450POPC   GL221722  26.284  11.744   8.978
 1450POPC   C1A21723  26.171  12.139   8.701
 1450POPC   D2A21724  26.198  12.409   8.359
 1450POPC   C3A21725  25.939  12.265   8.061
 1450POPC   C4A21726  25.970  11.985   7.729
 1450POPC   C1B21727  26.461  11.715   8.580
 1450POPC   C2B21728  26.452  11.878   8.153
 1450POPC   C3B21729  26.318  11.633   7.773
 1450POPC   C4B21730  26.175  11.746   7.308
 1451POPC   NC321731  20.442  39.683  10.030
 1451POPC   PO421732  20.548  39.193   9.555
 1451POPC   GL121733  20.587  39.017   9.149
 1451POPC   GL221734  20.783  39.245   9.005
 1451POPC   C1A21735  20.410  38.999   8.742
 1451POPC   D2A21736  20.401  39.211   8.371
 1451POPC   C3A21737  20.534  38.956   8.040
 1451POPC   C4A21738  20.781  39.029   7.672
 1451POPC   C1B21739  20.520  39.518   8.772
 1451POPC   C2B21740  20.671  39.692   8.387
 1451POPC   C3B21741  20.684  39.458   8.018
 1451POPC   C4B21742  20.268  39.359   7.882
 1452POPC   NC321743  20.857  44.446   9.784
 1452POPC   PO421744  20.272  44.709   9.650
 1452POPC   GL121745  20.532  44.710   9.225
 1452POPC   GL221746  20.746  44.395   9.184
 1452POPC   C1A21747  20.475  44.697   8.792
 1452POPC   D2A21748  20.361  44.547   8.380
 1452POPC   C3A21749  20.536  44.751   8.027
 1452POPC   C4A21750  20.488  44.691   7.581
 1452POPC   C1B21751  20.785  44.317   8.720
 1452POPC   C2B21752  20.871  44.445   8.272
 1452POPC   C3B21753  20.716  44.299   7.837
 1452POPC   C4B21754  20.910  44.387   7.406
 1453POPC   NC321755  24.985  15.413   9.426
 1453POPC   PO421756  25.327  14.850   9.399
 1453POPC   GL121757  25.385  14.964   9.004
 1453POPC   GL221758  25.104  15.187   8.972
 1453POPC   C1A21759  25.240  14.867   8.596
 1453POPC   D2A21760  24.957  14.812   8.264
 1453POPC   C3A21761  25.253  14.838   7.937
 1453POPC   C4A21762  25.241  14.961   7.527
 1453POPC   C1B21763  24.901  15.273   8.561
 1453POPC   C2B21764  25.156  15.280   8.179
 1453POPC   C3B21765  25.338  15.404   7.782
 1453POPC   C4B21766  25.566  15.335   7.379
 1454POPC   NC321767   7.604  24.980   9.291
 1454POPC   PO421768   7.148  25.504   9.510
 1454POPC   GL121769   7.276  25.355   9.132
 1454POPC   GL221770   7.037  25.592   9.027
 1454POPC   C1A21771   7.452  25.236   8.702
 1454POPC   D2A21772   7.357  25.313   8.273
 1454POPC   C3A21773   7.563  25.172   7.899
 1454POPC   C4A21774   7.450  24.876   7.598
 1454POPC   C1B21775   7.119  25.651   8.594
 1454POPC   C2B21776   7.097  25.724   8.144
 1454POPC   C3B21777   7.094  25.454   7.848
 1454POPC   C4B21778   7.253  25.349   7.466
 1455POPC   NC321779  22.763   7.003   9.721
 1455POPC   PO421780  23.254   7.420   9.397
 1455POPC   GL121781  22.946   7.579   9.090
 1455POPC   GL221782  22.649   7.342   9.028
 1455POPC   C1A21783  23.035   7.503   8.644
 1455POPC   D2A21784  23.206   7.100   8.427
 1455POPC   C3A21785  23.303   7.144   7.980
 1455POPC   C4A21786  23.168   7.513   7.759
 1455POPC   C1B21787  22.703   7.125   8.585
 1455POPC   C2B21788  22.821   7.359   8.176
 1455POPC   C3B21789  22.711   7.300   7.736
 1455POPC   C4B21790  22.594   7.092   7.342
 1456POPC   NC321791  40.409  35.178   9.352
 1456POPC   PO421792  39.770  34.949   9.417
 1456POPC   GL121793  39.977  35.147   9.090
 1456POPC   GL221794  40.091  35.490   9.108
 1456POPC   C1A21795  39.952  35.190   8.663
 1456POPC   D2A21796  39.941  34.876   8.355
 1456POPC   C3A21797  40.196  35.070   8.081
 1456POPC   C4A21798  39.991  35.336   7.786
 1456POPC   C1B21799  40.212  35.652   8.698
 1456POPC   C2B21800  40.147  35.554   8.275
 1456POPC   C3B21801  40.410  35.581   7.914
 1456POPC   C4B21802  40.375  35.493   7.476
 1457POPC   NC321803  18.616  33.892   9.480
 1457POPC   PO421804  19.251  33.641   9.511
 1457POPC   GL121805  19.100  33.643   9.117
 1457POPC   GL221806  18.721  33.569   9.091
 1457POPC   C1A21807  19.349  33.635   8.759
 1457POPC   D2A21808  19.278  33.545   8.374
 1457POPC   C3A21809  19.338  33.806   8.021
 1457POPC   C4A21810  19.380  33.489   7.739
 1457POPC   C1B21811  18.854  33.743   8.675
 1457POPC   C2B21812  18.864  33.838   8.240
 1457POPC   C3B21813  18.776  33.629   7.859
 1457POPC   C4B21814  18.522  33.548   7.445
 1458POPC   NC321815  24.874  17.089   9.524
 1458POPC   PO421816  24.510  17.745   9.618
 1458POPC   GL121817  24.369  17.507   9.224
 1458POPC   GL221818  24.526  17.751   9.076
 1458POPC   C1A21819  24.209  17.540   8.738
 1458POPC   D2A21820  24.363  17.424   8.336
 1458POPC   C3A21821  24.374  17.700   7.947
 1458POPC   C4A21822  24.522  17.609   7.498
 1458POPC   C1B21823  24.682  17.398   8.827
 1458POPC   C2B21824  24.830  17.233   8.454
 1458POPC   C3B21825  24.794  17.373   8.049
 1458POPC   C4B21826  24.893  17.324   7.650
 1459POPC   NC321827  27.911  44.660   9.425
 1459POPC   PO421828  28.520  44.584   9.550
 1459POPC   GL121829  28.604  44.612   9.129
 1459POPC   GL221830  28.241  44.564   9.053
 1459POPC   C1A21831  28.579  44.751   8.682
 1459POPC   D2A21832  28.342  44.658   8.288
 1459POPC   C3A21833  28.532  44.690   7.906
 1459POPC   C4A21834  28.483  44.917   7.473
 1459POPC   C1B21835  28.030  44.520   8.652
 1459POPC   C2B21836  28.035  44.215   8.300
 1459POPC   C3B21837  28.106  44.330   7.868
 1459POPC   C4B21838  28.067  44.742   7.729
 1460POPC   NC321839   8.070  38.711   9.491
 1460POPC   PO421840   8.655  38.367   9.344
 1460POPC   GL121841   8.357  38.505   9.111
 1460POPC   GL221842   8.066  38.288   9.197
 1460POPC   C1A21843   8.306  38.674   8.709
 1460POPC   D2A21844   8.321  38.900   8.317
 1460POPC   C3A21845   8.317  38.604   7.997
 1460POPC   C4A21846   8.034  38.576   7.681
 1460POPC   C1B21847   8.183  38.168   8.788
 1460POPC   C2B21848   8.342  38.269   8.417
 1460POPC   C3B21849   8.651  38.133   8.210
 1460POPC   C4B21850   8.508  38.120   7.821
 1461POPC   NC321851  35.411  26.665   9.731
 1461POPC   PO421852  35.691  27.265   9.516
 1461POPC   GL121853  35.639  26.976   9.135
 1461POPC   GL221854  35.429  26.700   9.209
 1461POPC   C1A21855  35.460  26.956   8.686
 1461POPC   D2A21856  35.259  27.018   8.291
 1461POPC   C3A21857  35.061  26.985   7.884
 1461POPC   C4A21858  35.343  27.045   7.552
 1461POPC   C1B21859  35.301  26.495   8.834
 1461POPC   C2B21860  35.405  26.487   8.444
 1461POPC   C3B21861  35.287  26.547   8.067
 1461POPC   C4B21862  35.245  26.530   7.661
 1462POPC   NC321863  26.608  13.341   9.570
 1462POPC   PO421864  26.724  12.640   9.559
 1462POPC   GL121865  26.927  12.691   9.156
 1462POPC   GL221866  26.740  12.996   9.133
 1462POPC   C1A21867  26.820  12.669   8.729
 1462POPC   D2A21868  26.506  12.798   8.476
 1462POPC   C3A21869  26.591  12.654   8.082
 1462POPC   C4A21870  26.974  12.657   7.824
 1462POPC   C1B21871  26.770  13.176   8.720
 1462POPC   C2B21872  26.614  13.272   8.301
 1462POPC   C3B21873  26.674  13.109   7.875
 1462POPC   C4B21874  26.495  13.195   7.477
 1463POPC   NC321875  14.084  36.622   9.527
 1463POPC   PO421876  14.651  36.955   9.489
 1463POPC   GL121877  14.526  37.050   9.069
 1463POPC   GL221878  14.186  37.148   9.056
 1463POPC   C1A21879  14.518  36.929   8.648
 1463POPC   D2A21880  14.245  37.055   8.349
 1463POPC   C3A21881  14.426  37.137   7.946
 1463POPC   C4A21882  14.764  36.867   7.785
 1463POPC   C1B21883  14.013  37.356   8.699
 1463POPC   C2B21884  14.126  37.532   8.269
 1463POPC   C3B21885  13.946  37.421   7.874
 1463POPC   C4B21886  14.076  37.184   7.507
 1464POPC   NC321887  43.369  30.794   9.609
 1464POPC   PO421888  42.652  30.935   9.561
 1464POPC   GL121889  42.893  30.794   9.219
 1464POPC   GL221890  43.195  30.587   9.175
 1464POPC   C1A21891  42.778  30.509   8.845
 1464POPC   D2A21892  42.751  30.269   8.460
 1464POPC   C3A21893  42.699  30.493   8.073
 1464POPC   C4A21894  43.059  30.556   7.863
 1464POPC   C1B21895  43.166  30.864   8.804
 1464POPC   C2B21896  43.282  30.903   8.385
 1464POPC   C3B21897  43.493  30.778   8.024
 1464POPC   C4B21898  43.240  30.987   7.734
 1465POPC   NC321899  37.061  20.256   9.566
 1465POPC   PO421900  37.082  20.893   9.481
 1465POPC   GL121901  36.963  20.596   9.185
 1465POPC   GL221902  36.632  20.441   9.229
 1465POPC   C1A21903  37.094  20.574   8.763
 1465POPC   D2A21904  37.162  20.800   8.362
 1465POPC   C3A21905  36.963  20.673   7.977
 1465POPC   C4A21906  36.882  20.852   7.564
 1465POPC   C1B21907  36.599  20.761   8.888
 1465POPC   C2B21908  36.645  20.758   8.463
 1465POPC   C3B21909  36.484  20.562   8.119
 1465POPC   C4B21910  36.558  20.452   7.729
 1466POPC   NC321911  27.067  33.859   9.582
 1466POPC   PO421912  27.729  33.709   9.601
 1466POPC   GL121913  27.800  33.757   9.186
 1466POPC   GL221914  27.440  33.747   9.152
 1466POPC   C1A21915  27.693  33.510   8.783
 1466POPC   D2A21916  27.506  33.376   8.417
 1466POPC   C3A21917  27.822  33.446   8.137
 1466POPC   C4A21918  27.896  33.566   7.716
 1466POPC   C1B21919  27.662  34.005   8.783
 1466POPC   C2B21920  27.838  33.897   8.406
 1466POPC   C3B21921  27.754  33.961   8.001
 1466POPC   C4B21922  27.436  33.888   7.735
 1467POPC   NC321923  26.036   6.451   9.982
 1467POPC   PO421924  25.814   6.778   9.465
 1467POPC   GL121925  26.072   6.739   9.151
 1467POPC   GL221926  26.083   6.419   9.173
 1467POPC   C1A21927  25.976   6.617   8.725
 1467POPC   D2A21928  26.134   6.727   8.359
 1467POPC   C3A21929  25.997   6.611   7.970
 1467POPC   C4A21930  26.223   6.832   7.640
 1467POPC   C1B21931  26.327   6.245   8.815
 1467POPC   C2B21932  26.189   6.169   8.376
 1467POPC   C3B21933  26.304   6.203   7.939
 1467POPC   C4B21934  26.160   6.342   7.541
 1468POPC   NC321935  39.376  33.139   9.678
 1468POPC   PO421936  39.397  32.520   9.474
 1468POPC   GL121937  39.417  32.918   9.203
 1468POPC   GL221938  39.177  33.215   9.183
 1468POPC   C1A21939  39.393  33.001   8.763
 1468POPC   D2A21940  39.120  33.025   8.405
 1468POPC   C3A21941  39.310  32.884   8.027
 1468POPC   C4A21942  39.505  32.859   7.639
 1468POPC   C1B21943  39.138  33.463   8.751
 1468POPC   C2B21944  39.041  33.505   8.265
 1468POPC   C3B21945  39.127  33.442   7.805
 1468POPC   C4B21946  38.944  33.577   7.342
 1469POPC   NC321947  35.224  39.877   9.518
 1469POPC   PO421948  35.744  39.421   9.541
 1469POPC   GL121949  35.474  39.568   9.182
 1469POPC   GL221950  35.180  39.336   9.141
 1469POPC   C1A21951  35.321  39.622   8.752
 1469POPC   D2A21952  35.258  39.321   8.424
 1469POPC   C3A21953  35.448  39.479   8.062
 1469POPC   C4A21954  35.455  39.398   7.636
 1469POPC   C1B21955  35.115  38.979   8.815
 1469POPC   C2B21956  34.963  38.900   8.376
 1469POPC   C3B21957  35.112  38.932   7.941
 1469POPC   C4B21958  34.962  38.712   7.586
 1470POPC   NC321959  13.653  41.644   9.546
 1470POPC   PO421960  12.981  41.390   9.490
 1470POPC   GL121961  13.360  41.372   9.225
 1470POPC   GL221962  13.407  41.689   9.127
 1470POPC   C1A21963  13.758  41.345   8.961
 1470POPC   D2A21964  13.881  41.456   8.555
 1470POPC   C3A21965  13.841  41.196   8.189
 1470POPC   C4A21966  13.671  41.379   7.815
 1470POPC   C1B21967  13.717  41.844   8.866
 1470POPC   C2B21968  13.668  41.944   8.456
 1470POPC   C3B21969  13.851  41.765   8.106
 1470POPC   C4B21970  13.725  41.888   7.697
 1471POPC   NC321971  32.018  38.704   9.285
 1471POPC   PO421972  32.452  38.149   9.306
 1471POPC   GL121973  32.284  38.344   8.985
 1471POPC   GL221974  31.947  38.301   8.953
 1471POPC   C1A21975  32.481  38.481   8.644
 1471POPC   D2A21976  32.412  38.603   8.265
 1471POPC   C3A21977  32.119  38.322   8.096
 1471POPC   C4A21978  32.113  38.266   7.683
 1471POPC   C1B21979  31.953  38.502   8.563
 1471POPC   C2B21980  31.950  38.798   8.229
 1471POPC   C3B21981  32.141  38.773   7.842
 1471POPC   C4B21982  32.004  38.681   7.409
 1472POPC   NC321983  20.420  12.393   9.462
 1472POPC   PO421984  21.109  12.366   9.371
 1472POPC   GL121985  20.831  12.054   9.203
 1472POPC   GL221986  20.678  12.285   9.029
 1472POPC   C1A21987  20.634  11.776   8.872
 1472POPC   D2A21988  20.482  11.730   8.455
 1472POPC   C3A21989  20.547  12.021   8.134
 1472POPC   C4A21990  20.594  11.850   7.733
 1472POPC   C1B21991  20.433  12.210   8.673
 1472POPC   C2B21992  20.108  12.244   8.374
 1472POPC   C3B21993  20.185  12.439   7.975
 1472POPC   C4B21994  20.595  12.410   7.765
 1473POPC   NC321995  34.183  38.106   9.357
 1473POPC   PO421996  34.615  38.776   9.507
 1473POPC   GL121997  34.499  38.610   9.121
 1473POPC   GL221998  34.742  38.422   8.963
 1473POPC   C1A21999  34.568  38.837   8.730
 1473POPC   D2A22000  34.434  38.706   8.322
 1473POPC   C3A22001  34.712  38.578   8.017
 1473POPC   C4A22002  34.487  38.592   7.646
 1473POPC   C1B22003  34.490  38.180   8.731
 1473POPC   C2B22004  34.666  38.170   8.336
 1473POPC   C3B22005  34.570  38.083   7.943
 1473POPC   C4B22006  34.782  38.192   7.577
 1474POPC   NC322007  22.373  44.792   9.389
 1474POPC   PO422008  21.920  44.520   9.733
 1474POPC   GL122009  22.023  44.448   9.203
 1474POPC   GL222010  22.054  44.734   8.957
 1474POPC   C1A22011  22.278  44.318   8.798
 1474POPC   D2A22012  22.356  44.620   8.434
 1474POPC   C3A22013  22.411  44.497   7.997
 1474POPC   C4A22014  22.185  44.459   7.624
 1474POPC   C1B22015  22.179   0.045   8.664
 1474POPC   C2B22016  22.207   0.067   8.182
 1474POPC   C3B22017  22.112  44.946   7.746
 1474POPC   C4B22018  21.819   0.000   7.373
 1475POPC   NC322019   1.862  30.783   9.631
 1475POPC   PO422020   2.385  31.149   9.348
 1475POPC   GL122021   1.992  30.907   9.171
 1475POPC   GL222022   1.933  30.540   9.188
 1475POPC   C1A22023   1.812  30.871   8.800
 1475POPC   D2A22024   1.932  31.144   8.489
 1475POPC   C3A22025   1.982  30.944   8.143
 1475POPC   C4A22026   1.915  31.010   7.737
 1475POPC   C1B22027   2.098  30.463   8.764
 1475POPC   C2B22028   2.020  30.431   8.325
 1475POPC   C3B22029   1.798  30.510   7.957
 1475POPC   C4B22030   2.003  30.534   7.601
 1476POPC   NC322031  23.505  26.144   9.739
 1476POPC   PO422032  22.964  25.952   9.423
 1476POPC   GL122033  22.962  25.846   9.020
 1476POPC   GL222034  23.117  25.548   8.984
 1476POPC   C1A22035  22.998  26.076   8.632
 1476POPC   D2A22036  22.987  26.398   8.317
 1476POPC   C3A22037  22.912  26.238   7.910
 1476POPC   C4A22038  22.533  26.398   7.770
 1476POPC   C1B22039  23.143  25.598   8.546
 1476POPC   C2B22040  23.062  25.758   8.121
 1476POPC   C3B22041  23.070  25.776   7.667
 1476POPC   C4B22042  23.398  25.779   7.350
 1477POPC   NC322043   2.524   1.368   9.512
 1477POPC   PO422044   3.139   0.930   9.447
 1477POPC   GL122045   2.890   1.140   9.114
 1477POPC   GL222046   2.575   1.266   9.036
 1477POPC   C1A22047   2.907   1.265   8.677
 1477POPC   D2A22048   3.120   1.398   8.347
 1477POPC   C3A22049   3.012   1.178   8.004
 1477POPC   C4A22050   3.065   1.014   7.632
 1477POPC   C1B22051   2.476   0.971   8.732
 1477POPC   C2B22052   2.431   1.069   8.333
 1477POPC   C3B22053   2.533   1.306   7.996
 1477POPC   C4B22054   2.538   0.951   7.726
 1478POPC   NC322055   6.460  13.415   9.777
 1478POPC   PO422056   5.948  13.769   9.424
 1478POPC   GL122057   5.882  13.643   8.989
 1478POPC   GL222058   6.099  13.379   8.838
 1478POPC   C1A22059   5.804  13.724   8.542
 1478POPC   D2A22060   5.992  13.665   8.130
 1478POPC   C3A22061   5.660  13.692   7.855
 1478POPC   C4A22062   5.392  13.400   7.716
 1478POPC   C1B22063   5.718  13.247   8.668
 1478POPC   C2B22064   5.619  13.332   8.252
 1478POPC   C3B22065   5.862  13.232   7.891
 1478POPC   C4B22066   5.825  13.219   7.412
 1479POPC   NC322067  38.440  39.022   9.529
 1479POPC   PO422068  38.455  39.632   9.357
 1479POPC   GL122069  38.396  39.386   9.015
 1479POPC   GL222070  38.172  39.113   9.090
 1479POPC   C1A22071  38.432  39.496   8.576
 1479POPC   D2A22072  38.341  39.295   8.219
 1479POPC   C3A22073  38.496  39.452   7.826
 1479POPC   C4A22074  38.253  39.562   7.450
 1479POPC   C1B22075  38.274  38.994   8.654
 1479POPC   C2B22076  38.544  38.816   8.320
 1479POPC   C3B22077  38.488  38.919   7.910
 1479POPC   C4B22078  38.122  39.055   7.799
 1480POPC   NC322079  34.759  16.991   9.687
 1480POPC   PO422080  34.712  17.640   9.621
 1480POPC   GL122081  34.607  17.676   9.186
 1480POPC   GL222082  34.682  17.350   9.043
 1480POPC   C1A22083  34.313  17.578   8.825
 1480POPC   D2A22084  34.522  17.359   8.499
 1480POPC   C3A22085  34.423  17.402   8.082
 1480POPC   C4A22086  34.250  17.574   7.711
 1480POPC   C1B22087  34.780  17.741   8.729
 1480POPC   C2B22088  34.879  17.841   8.313
 1480POPC   C3B22089  34.837  17.696   7.886
 1480POPC   C4B22090  34.651  17.914   7.552
 1481POPC   NC322091  21.531   8.064   9.364
 1481POPC   PO422092  21.182   8.671   9.528
 1481POPC   GL122093  21.328   8.463   9.142
 1481POPC   GL222094  21.084   8.211   9.092
 1481POPC   C1A22095  21.560   8.393   8.744
 1481POPC   D2A22096  21.417   8.259   8.334
 1481POPC   C3A22097  21.567   8.380   7.918
 1481POPC   C4A22098  21.328   8.262   7.522
 1481POPC   C1B22099  21.098   8.054   8.664
 1481POPC   C2B22100  21.025   7.961   8.211
 1481POPC   C3B22101  21.039   7.909   7.760
 1481POPC   C4B22102  20.811   8.183   7.486
 1482POPC   NC322103  26.899   3.616   9.564
 1482POPC   PO422104  26.444   3.158   9.429
 1482POPC   GL122105  26.614   3.514   9.156
 1482POPC   GL222106  27.008   3.524   9.072
 1482POPC   C1A22107  26.639   3.711   8.755
 1482POPC   D2A22108  26.491   3.545   8.375
 1482POPC   C3A22109  26.602   3.694   7.976
 1482POPC   C4A22110  26.515   3.533   7.569
 1482POPC   C1B22111  27.155   3.805   8.726
 1482POPC   C2B22112  26.965   3.838   8.319
 1482POPC   C3B22113  27.089   3.877   7.896
 1482POPC   C4B22114  27.224   3.876   7.468
 1483POPC   NC322115  31.142  25.820   9.534
 1483POPC   PO422116  31.787  25.947   9.679
 1483POPC   GL122117  31.599  25.928   9.269
 1483POPC   GL222118  31.298  26.093   9.136
 1483POPC   C1A22119  31.699  25.983   8.844
 1483POPC   D2A22120  31.416  26.119   8.538
 1483POPC   C3A22121  31.469  25.942   8.138
 1483POPC   C4A22122  31.593  26.002   7.745
 1483POPC   C1B22123  31.254  25.727   8.850
 1483POPC   C2B22124  31.284  25.563   8.443
 1483POPC   C3B22125  31.076  25.623   8.049
 1483POPC   C4B22126  31.110  25.823   7.662
 1484POPC   NC322127  35.119  23.032   9.403
 1484POPC   PO422128  35.541  22.607   9.597
 1484POPC   GL122129  35.450  22.709   9.136
 1484POPC   GL222130  35.239  22.983   8.937
 1484POPC   C1A22131  35.640  22.842   8.724
 1484POPC   D2A22132  35.494  23.131   8.402
 1484POPC   C3A22133  35.474  22.983   7.994
 1484POPC   C4A22134  35.481  22.901   7.565
 1484POPC   C1B22135  34.932  23.237   8.760
 1484POPC   C2B22136  34.796  23.407   8.370
 1484POPC   C3B22137  35.043  23.253   8.052
 1484POPC   C4B22138  35.006  23.046   7.653
 1485POPC   NC322139  44.358  33.989   9.537
 1485POPC   PO422140  44.995  33.661   9.616
 1485POPC   GL122141  44.804  33.614   9.204
 1485POPC   GL222142  44.557  33.844   9.098
 1485POPC   C1A22143  44.846  33.562   8.770
 1485POPC   D2A22144   0.048  33.657   8.410
 1485POPC   C3A22145  44.738  33.644   8.074
 1485POPC   C4A22146  44.742  33.894   7.710
 1485POPC   C1B22147  44.347  33.550   8.812
 1485POPC   C2B22148  44.317  33.447   8.349
 1485POPC   C3B22149  44.313  33.461   7.866
 1485POPC   C4B22150  44.368  33.694   7.449
 1486POPC   NC322151  11.837  18.099   9.381
 1486POPC   PO422152  11.928  18.701   9.498
 1486POPC   GL122153  11.907  18.597   9.053
 1486POPC   GL222154  11.866  18.241   8.897
 1486POPC   C1A22155  12.186  18.624   8.691
 1486POPC   D2A22156  12.305  18.241   8.536
 1486POPC   C3A22157  12.292  18.300   8.117
 1486POPC   C4A22158  12.074  18.276   7.754
 1486POPC   C1B22159  11.724  18.441   8.572
 1486POPC   C2B22160  11.791  18.343   8.184
 1486POPC   C3B22161  11.604  18.130   7.873
 1486POPC   C4B22162  11.570  18.332   7.510
 1487POPC   NC322163   5.048  17.103   9.620
 1487POPC   PO422164   4.911  17.687   9.771
 1487POPC   GL122165   4.974  17.495   9.296
 1487POPC   GL222166   4.745  17.220   9.212
 1487POPC   C1A22167   5.051  17.674   8.852
 1487POPC   D2A22168   5.180  17.476   8.494
 1487POPC   C3A22169   5.237  17.655   8.129
 1487POPC   C4A22170   5.127  17.694   7.752
 1487POPC   C1B22171   4.673  17.304   8.776
 1487POPC   C2B22172   4.693  17.388   8.343
 1487POPC   C3B22173   4.918  17.247   7.989
 1487POPC   C4B22174   5.320  17.215   7.787
 1488POPC   NC322175   1.453  25.992   9.384
 1488POPC   PO422176   0.902  26.391   9.414
 1488POPC   GL122177   1.038  26.123   9.105
 1488POPC   GL222178   1.074  25.776   9.104
 1488POPC   C1A22179   1.296  26.067   8.730
 1488POPC   D2A22180   1.578  26.114   8.392
 1488POPC   C3A22181   1.515  25.820   8.060
 1488POPC   C4A22182   1.466  25.846   7.628
 1488POPC   C1B22183   1.142  25.581   8.732
 1488POPC   C2B22184   1.073  25.774   8.340
 1488POPC   C3B22185   1.021  25.874   7.897
 1488POPC   C4B22186   0.977  25.748   7.458
 1489POPC   NC322187  42.493  21.496   9.396
 1489POPC   PO422188  42.383  20.902   9.247
 1489POPC   GL122189  42.206  21.280   9.021
 1489POPC   GL222190  42.135  21.667   9.071
 1489POPC   C1A22191  42.000  21.472   8.616
 1489POPC   D2A22192  41.994  21.551   8.162
 1489POPC   C3A22193  42.204  21.231   7.896
 1489POPC   C4A22194  42.620  21.031   7.849
 1489POPC   C1B22195  42.473  21.584   8.736
 1489POPC   C2B22196  42.466  21.463   8.306
 1489POPC   C3B22197  42.467  21.685   7.890
 1489POPC   C4B22198  42.605  21.819   7.462
 1490POPC   NC322199  33.443  20.025   9.569
 1490POPC   PO422200  34.055  19.686   9.558
 1490POPC   GL122201  33.911  19.909   9.118
 1490POPC   GL222202  33.525  19.896   9.071
 1490POPC   C1A22203  33.800  20.114   8.701
 1490POPC   D2A22204  33.532  19.973   8.359
 1490POPC   C3A22205  33.713  19.914   7.926
 1490POPC   C4A22206  33.962  20.136   7.626
 1490POPC   C1B22207  33.483  19.589   8.739
 1490POPC   C2B22208  33.212  19.541   8.405
 1490POPC   C3B22209  33.216  19.739   8.023
 1490POPC   C4B22210  33.386  19.624   7.625
 1491POPC   NC322211  43.783  28.512   9.514
 1491POPC   PO422212  43.887  27.929   9.572
 1491POPC   GL122213  43.840  28.209   9.127
 1491POPC   GL222214  44.069  28.527   9.089
 1491POPC   C1A22215  43.999  28.244   8.681
 1491POPC   D2A22216  44.079  28.472   8.282
 1491POPC   C3A22217  43.893  28.266   7.924
 1491POPC   C4A22218  43.834  28.022   7.538
 1491POPC   C1B22219  43.665  28.596   8.834
 1491POPC   C2B22220  43.552  28.467   8.421
 1491POPC   C3B22221  43.590  28.659   8.018
 1491POPC   C4B22222  43.754  28.849   7.631
 1492POPC   NC322223   4.049  20.736   9.493
 1492POPC   PO422224   4.396  20.153   9.540
 1492POPC   GL122225   4.362  20.418   9.170
 1492POPC   GL222226   4.456  20.783   9.183
 1492POPC   C1A22227   4.131  20.574   8.808
 1492POPC   D2A22228   4.054  20.675   8.366
 1492POPC   C3A22229   4.401  20.511   8.127
 1492POPC   C4A22230   4.559  20.491   7.702
 1492POPC   C1B22231   4.453  20.993   8.753
 1492POPC   C2B22232   4.515  20.997   8.269
 1492POPC   C3B22233   4.688  20.991   7.828
 1492POPC   C4B22234   4.702  20.865   7.376
 1493POPC   NC322235   7.904   9.862   9.219
 1493POPC   PO422236   8.463   9.721   9.416
 1493POPC   GL122237   8.305   9.607   8.992
 1493POPC   GL222238   7.982   9.425   8.924
 1493POPC   C1A22239   8.148   9.816   8.611
 1493POPC   D2A22240   8.033   9.667   8.212
 1493POPC   C3A22241   8.317   9.729   7.870
 1493POPC   C4A22242   8.373  10.156   7.723
 1493POPC   C1B22243   8.255   9.301   8.565
 1493POPC   C2B22244   8.205   9.203   8.115
 1493POPC   C3B22245   7.939   9.397   7.775
 1493POPC   C4B22246   8.099   9.673   7.413
 1494POPC   NC322247  14.599  29.223   9.704
 1494POPC   PO422248  14.268  28.713   9.434
 1494POPC   GL122249  14.280  29.040   9.147
 1494POPC   GL222250  14.627  29.152   9.145
 1494POPC   C1A22251  14.369  29.068   8.706
 1494POPC   D2A22252  14.418  28.776   8.376
 1494POPC   C3A22253  14.458  28.912   7.937
 1494POPC   C4A22254  14.094  29.008   7.721
 1494POPC   C1B22255  14.792  29.367   8.736
 1494POPC   C2B22256  14.629  29.271   8.313
 1494POPC   C3B22257  14.175  29.260   8.163
 1494POPC   C4B22258  14.108  29.518   7.758
 1495POPC   NC322259  43.935  34.587   9.558
 1495POPC   PO422260  43.648  35.087   9.306
 1495POPC   GL122261  43.810  34.725   9.101
 1495POPC   GL222262  43.666  34.372   9.109
 1495POPC   C1A22263  44.049  34.556   8.792
 1495POPC   D2A22264  43.913  34.366   8.427
 1495POPC   C3A22265  44.206  34.444   8.110
 1495POPC   C4A22266  44.103  34.605   7.715
 1495POPC   C1B22267  43.491  34.575   8.732
 1495POPC   C2B22268  43.413  34.557   8.289
 1495POPC   C3B22269  43.598  34.507   7.897
 1495POPC   C4B22270  43.823  34.144   7.871
 1496POPC   NC322271  12.674  36.640   9.480
 1496POPC   PO422272  13.237  37.048   9.540
 1496POPC   GL122273  12.952  36.989   9.222
 1496POPC   GL222274  13.080  36.666   9.165
 1496POPC   C1A22275  12.738  37.132   8.854
 1496POPC   D2A22276  12.778  36.951   8.430
 1496POPC   C3A22277  12.587  37.042   8.028
 1496POPC   C4A22278  12.873  37.118   7.679
 1496POPC   C1B22279  12.785  36.605   8.819
 1496POPC   C2B22280  12.878  36.456   8.400
 1496POPC   C3B22281  12.918  36.659   8.023
 1496POPC   C4B22282  12.698  36.634   7.636
 1497POPC   NC322283   3.853  41.979   9.326
 1497POPC   PO422284   3.769  41.350   9.554
 1497POPC   GL122285   3.491  41.500   9.211
 1497POPC   GL222286   3.405  41.867   9.106
 1497POPC   C1A22287   3.461  41.436   8.766
 1497POPC   D2A22288   3.687  41.500   8.351
 1497POPC   C3A22289   3.382  41.391   8.026
 1497POPC   C4A22290   3.348  41.308   7.589
 1497POPC   C1B22291   3.680  41.891   8.710
 1497POPC   C2B22292   3.760  42.129   8.342
 1497POPC   C3B22293   3.737  41.917   7.967
 1497POPC   C4B22294   3.825  41.508   7.805
 1498POPC   NC322295  31.930   5.836   9.391
 1498POPC   PO422296  32.552   6.272   9.284
 1498POPC   GL122297  32.334   5.904   9.086
 1498POPC   GL222298  32.106   5.560   9.019
 1498POPC   C1A22299  32.080   5.970   8.735
 1498POPC   D2A22300  32.206   5.810   8.373
 1498POPC   C3A22301  32.121   6.067   8.058
 1498POPC   C4A22302  32.175   5.876   7.700
 1498POPC   C1B22303  32.456   5.488   8.780
 1498POPC   C2B22304  32.567   5.415   8.381
 1498POPC   C3B22305  32.508   5.613   7.990
 1498POPC   C4B22306  32.651   5.721   7.589
 1499POPC   NC322307   2.805  18.719   9.389
 1499POPC   PO422308   3.013  18.077   9.519
 1499POPC   GL122309   2.810  18.237   9.145
 1499POPC   GL222310   3.088  18.452   9.044
 1499POPC   C1A22311   2.564  18.354   8.756
 1499POPC   D2A22312   2.557  18.377   8.294
 1499POPC   C3A22313   2.829  18.599   7.991
 1499POPC   C4A22314   2.851  18.408   7.582
 1499POPC   C1B22315   3.071  18.213   8.657
 1499POPC   C2B22316   3.076  18.203   8.203
 1499POPC   C3B22317   3.060  17.989   7.800
 1499POPC   C4B22318   3.151  18.046   7.343
 1500POPC   NC322319   7.812   1.944   9.519
 1500POPC   PO422320   7.205   2.114   9.707
 1500POPC   GL122321   7.310   1.927   9.277
 1500POPC   GL222322   7.607   1.774   9.105
 1500POPC   C1A22323   7.167   1.836   8.837
 1500POPC   D2A22324   7.417   1.675   8.502
 1500POPC   C3A22325   7.203   1.597   8.101
 1500POPC   C4A22326   7.207   1.914   7.798
 1500POPC   C1B22327   7.753   2.062   8.801
 1500POPC   C2B22328   7.828   2.013   8.371
 1500POPC   C3B22329   7.662   1.817   8.050
 1500POPC   C4B22330   7.707   1.846   7.682
 1501POPC   NC322331   9.147  10.989   9.673
 1501POPC   PO422332   8.714  11.365   9.573
 1501POPC   GL122333   8.990  11.446   9.219
 1501POPC   GL222334   9.193  11.135   9.187
 1501POPC   C1A22335   8.960  11.351   8.753
 1501POPC   D2A22336   9.263  11.209   8.409
 1501POPC   C3A22337   9.300  11.409   7.983
 1501POPC   C4A22338   9.003  11.648   7.706
 1501POPC   C1B22339   9.025  10.860   8.904
 1501POPC   C2B22340   9.082  10.741   8.509
 1501POPC   C3B22341   8.999  10.842   8.119
 1501POPC   C4B22342   8.878  11.177   7.827
 1502POPC   NC322343  42.758  10.541   9.598
 1502POPC   PO422344  43.445  10.523   9.535
 1502POPC   GL122345  43.346  10.594   9.137
 1502POPC   GL222346  42.990  10.592   9.143
 1502POPC   C1A22347  43.423  10.403   8.766
 1502POPC   D2A22348  43.255  10.524   8.372
 1502POPC   C3A22349  43.162  10.228   8.088
 1502POPC   C4A22350  43.176  10.303   7.661
 1502POPC   C1B22351  42.909  10.369   8.766
 1502POPC   C2B22352  42.737  10.387   8.343
 1502POPC   C3B22353  42.863  10.621   7.986
 1502POPC   C4B22354  42.734  10.627   7.590
 1503POPC   NC322355   8.854   3.225   9.417
 1503POPC   PO422356   9.176   3.797   9.492
 1503POPC   GL122357   8.913   3.690   9.187
 1503POPC   GL222358   8.595   3.862   9.261
 1503POPC   C1A22359   8.915   3.424   8.809
 1503POPC   D2A22360   8.917   3.146   8.479
 1503POPC   C3A22361   8.871   3.324   8.076
 1503POPC   C4A22362   9.145   3.384   7.745
 1503POPC   C1B22363   8.608   3.861   8.821
 1503POPC   C2B22364   8.603   3.619   8.448
 1503POPC   C3B22365   8.714   3.840   8.108
 1503POPC   C4B22366   8.731   3.729   7.719
 1504POPC   NC322367   3.691  13.715   9.382
 1504POPC   PO422368   3.054  13.867   9.425
 1504POPC   GL122369   3.280  13.631   9.068
 1504POPC   GL222370   3.637  13.466   8.950
 1504POPC   C1A22371   3.287  13.663   8.621
 1504POPC   D2A22372   3.548  13.482   8.327
 1504POPC   C3A22373   3.485  13.696   7.964
 1504POPC   C4A22374   3.399  13.477   7.578
 1504POPC   C1B22375   3.817  13.781   8.669
 1504POPC   C2B22376   3.932  13.837   8.215
 1504POPC   C3B22377   3.847  14.103   7.851
 1504POPC   C4B22378   3.947  14.118   7.363
 1505POPC   NC322379   2.475  39.239   9.644
 1505POPC   PO422380   3.046  39.506   9.558
 1505POPC   GL122381   2.760  39.336   9.250
 1505POPC   GL222382   2.891  39.017   9.241
 1505POPC   C1A22383   2.496  39.120   8.924
 1505POPC   D2A22384   2.629  39.136   8.505
 1505POPC   C3A22385   2.803  39.485   8.272
 1505POPC   C4A22386   2.528  39.456   7.918
 1505POPC   C1B22387   3.041  39.201   8.836
 1505POPC   C2B22388   3.151  39.032   8.436
 1505POPC   C3B22389   2.925  39.040   8.065
 1505POPC   C4B22390   2.882  39.200   7.677
 1506POPC   NC322391  18.636  17.026   9.419
 1506POPC   PO422392  18.992  16.482   9.447
 1506POPC   GL122393  19.123  16.444   9.061
 1506POPC   GL222394  19.197  16.795   9.006
 1506POPC   C1A22395  19.026  16.462   8.648
 1506POPC   D2A22396  19.030  16.906   8.498
 1506POPC   C3A22397  19.006  16.911   8.064
 1506POPC   C4A22398  18.996  16.586   7.744
 1506POPC   C1B22399  19.505  16.988   8.740
 1506POPC   C2B22400  19.471  17.145   8.309
 1506POPC   C3B22401  19.603  17.154   7.861
 1506POPC   C4B22402  19.262  16.989   7.583
 1507POPC   NC322403  38.544   0.399   9.546
 1507POPC   PO422404  38.967   0.815   9.282
 1507POPC   GL122405  38.661   0.585   9.040
 1507POPC   GL222406  38.517   0.263   9.068
 1507POPC   C1A22407  38.541   0.492   8.609
 1507POPC   D2A22408  38.557   0.159   8.322
 1507POPC   C3A22409  38.615   0.232   7.855
 1507POPC   C4A22410  38.591   0.166   7.390
 1507POPC   C1B22411  38.218   0.132   8.789
 1507POPC   C2B22412  38.047   0.305   8.441
 1507POPC   C3B22413  38.129   0.238   8.042
 1507POPC   C4B22414  38.183   0.465   7.652
 1508POPC   NC322415   1.516  19.370   9.563
 1508POPC   PO422416   1.038  18.833   9.445
 1508POPC   GL122417   1.195  19.065   9.101
 1508POPC   GL222418   1.556  18.991   9.154
 1508POPC   C1A22419   1.155  18.957   8.647
 1508POPC   D2A22420   0.860  19.019   8.300
 1508POPC   C3A22421   1.100  19.076   7.982
 1508POPC   C4A22422   1.198  18.691   7.834
 1508POPC   C1B22423   1.653  18.871   8.730
 1508POPC   C2B22424   1.572  19.099   8.354
 1508POPC   C3B22425   1.596  19.001   7.940
 1508POPC   C4B22426   1.451  19.202   7.579
 1509POPC   NC322427   9.484  21.093   9.538
 1509POPC   PO422428   9.530  20.426   9.376
 1509POPC   GL122429   9.780  20.720   9.187
 1509POPC   GL222430   9.484  20.844   9.020
 1509POPC   C1A22431   9.922  20.762   8.765
 1509POPC   D2A22432   9.889  20.605   8.315
 1509POPC   C3A22433   9.991  20.743   7.875
 1509POPC   C4A22434  10.064  20.424   7.498
 1509POPC   C1B22435   9.536  20.435   8.733
 1509POPC   C2B22436   9.405  20.363   8.302
 1509POPC   C3B22437   9.566  20.470   7.918
 1509POPC   C4B22438   9.521  20.889   7.737
 1510POPC   NC322439   7.780  37.908   9.501
 1510POPC   PO422440   7.343  37.329   9.481
 1510POPC   GL122441   7.172  37.491   9.101
 1510POPC   GL222442   7.378  37.796   9.173
 1510POPC   C1A22443   7.218  37.734   8.684
 1510POPC   D2A22444   7.327  38.066   8.399
 1510POPC   C3A22445   7.523  37.917   8.055
 1510POPC   C4A22446   7.310  37.599   7.786
 1510POPC   C1B22447   7.615  37.502   8.885
 1510POPC   C2B22448   7.703  37.608   8.471
 1510POPC   C3B22449   7.723  37.464   8.068
 1510POPC   C4B22450   7.856  37.692   7.700
 1511POPC   NC322451  14.946  42.200   9.355
 1511POPC   PO422452  15.098  42.792   9.587
 1511POPC   GL122453  15.149  42.647   9.168
 1511POPC   GL222454  15.409  42.353   9.170
 1511POPC   C1A22455  15.006  42.518   8.749
 1511POPC   D2A22456  14.929  42.548   8.307
 1511POPC   C3A22457  15.241  42.501   8.003
 1511POPC   C4A22458  14.933  42.535   7.693
 1511POPC   C1B22459  15.444  42.176   8.748
 1511POPC   C2B22460  15.128  42.114   8.433
 1511POPC   C3B22461  14.935  42.098   8.016
 1511POPC   C4B22462  15.294  42.029   7.761
 1512POPC   NC322463  12.592  23.054   9.315
 1512POPC   PO422464  12.564  23.732   9.563
 1512POPC   GL122465  12.687  23.873   9.164
 1512POPC   GL222466  12.752  23.515   9.104
 1512POPC   C1A22467  12.634  23.843   8.718
 1512POPC   D2A22468  12.854  23.944   8.317
 1512POPC   C3A22469  12.658  23.852   7.921
 1512POPC   C4A22470  12.801  23.774   7.484
 1512POPC   C1B22471  12.659  23.306   8.715
 1512POPC   C2B22472  12.711  23.439   8.288
 1512POPC   C3B22473  12.702  23.339   7.846
 1512POPC   C4B22474  12.983  23.297   7.478
 1513POPC   NC322475  23.664  31.756   9.425
 1513POPC   PO422476  24.143  31.234   9.514
 1513POPC   GL122477  23.862  31.289   9.139
 1513POPC   GL222478  23.815  31.600   8.966
 1513POPC   C1A22479  23.594  31.224   8.751
 1513POPC   D2A22480  23.610  31.523   8.418
 1513POPC   C3A22481  23.484  31.366   8.055
 1513POPC   C4A22482  23.834  31.290   7.882
 1513POPC   C1B22483  24.114  31.758   8.672
 1513POPC   C2B22484  24.099  31.642   8.263
 1513POPC   C3B22485  23.933  31.831   7.922
 1513POPC   C4B22486  23.994  31.883   7.516
 1514POPC   NC322487  16.179  18.843   9.388
 1514POPC   PO422488  15.511  19.148   9.477
 1514POPC   GL122489  15.755  19.026   9.144
 1514POPC   GL222490  16.030  19.258   9.085
 1514POPC   C1A22491  15.824  18.898   8.737
 1514POPC   D2A22492  15.841  19.071   8.343
 1514POPC   C3A22493  15.862  18.904   7.928
 1514POPC   C4A22494  15.533  18.931   7.600
 1514POPC   C1B22495  16.178  19.416   8.696
 1514POPC   C2B22496  16.279  19.335   8.277
 1514POPC   C3B22497  16.243  19.467   7.862
 1514POPC   C4B22498  16.056  19.210   7.545
 1515POPC   NC322499  11.655  37.490   9.292
 1515POPC   PO422500  10.989  37.621   9.411
 1515POPC   GL122501  11.146  37.528   9.047
 1515POPC   GL222502  11.368  37.800   9.012
 1515POPC   C1A22503  11.081  37.647   8.610
 1515POPC   D2A22504  10.949  37.408   8.240
 1515POPC   C3A22505  11.169  37.542   7.895
 1515POPC   C4A22506  11.478  37.474   7.588
 1515POPC   C1B22507  11.524  37.996   8.650
 1515POPC   C2B22508  11.404  37.916   8.222
 1515POPC   C3B22509  11.254  38.073   7.825
 1515POPC   C4B22510  11.452  37.965   7.450
 1516POPC   NC322511  23.677   7.180   9.378
 1516POPC   PO422512  23.834   7.845   9.345
 1516POPC   GL122513  24.030   7.586   9.050
 1516POPC   GL222514  24.163   7.281   9.203
 1516POPC   C1A22515  23.799   7.504   8.663
 1516POPC   D2A22516  23.693   7.253   8.294
 1516POPC   C3A22517  23.699   7.484   7.893
 1516POPC   C4A22518  23.627   7.654   7.474
 1516POPC   C1B22519  24.082   7.102   8.803
 1516POPC   C2B22520  24.186   7.306   8.384
 1516POPC   C3B22521  24.152   7.223   7.928
 1516POPC   C4B22522  24.149   7.504   7.580
 1517POPC   NC322523   5.436  11.801   9.331
 1517POPC   PO422524   5.909  12.146   9.338
 1517POPC   GL122525   5.703  12.119   8.992
 1517POPC   GL222526   5.499  12.424   8.974
 1517POPC   C1A22527   5.954  11.924   8.688
 1517POPC   D2A22528   6.180  11.877   8.328
 1517POPC   C3A22529   5.914  12.002   8.010
 1517POPC   C4A22530   5.818  11.805   7.605
 1517POPC   C1B22531   5.681  12.377   8.544
 1517POPC   C2B22532   6.104  12.387   8.339
 1517POPC   C3B22533   6.198  12.410   7.886
 1517POPC   C4B22534   5.829  12.306   7.590
 1518POPC   NC322535  26.494   2.703   9.523
 1518POPC   PO422536  27.168   2.499   9.548
 1518POPC   GL122537  26.924   2.578   9.160
 1518POPC   GL222538  26.788   2.917   9.133
 1518POPC   C1A22539  26.897   2.630   8.703
 1518POPC   D2A22540  26.765   2.546   8.280
 1518POPC   C3A22541  26.940   2.673   7.866
 1518POPC   C4A22542  26.679   2.717   7.465
 1518POPC   C1B22543  26.761   3.184   8.784
 1518POPC   C2B22544  26.952   3.307   8.428
 1518POPC   C3B22545  26.841   3.216   7.998
 1518POPC   C4B22546  26.993   3.434   7.664
 1519POPC   NC322547  11.204  38.092   9.405
 1519POPC   PO422548  11.660  38.628   9.458
 1519POPC   GL122549  11.367  38.564   9.155
 1519POPC   GL222550  11.557  38.284   9.073
 1519POPC   C1A22551  11.203  38.453   8.735
 1519POPC   D2A22552  11.068  38.669   8.370
 1519POPC   C3A22553  11.238  38.583   7.980
 1519POPC   C4A22554  11.160  38.708   7.574
 1519POPC   C1B22555  11.728  38.515   8.766
 1519POPC   C2B22556  11.655  38.403   8.351
 1519POPC   C3B22557  11.748  38.578   7.984
 1519POPC   C4B22558  11.629  38.452   7.585
 1520POPC   NC322559  42.849  31.364   9.593
 1520POPC   PO422560  42.209  31.787   9.442
 1520POPC   GL122561  42.297  31.548   9.080
 1520POPC   GL222562  42.642  31.455   9.132
 1520POPC   C1A22563  42.272  31.292   8.688
 1520POPC   D2A22564  42.385  31.103   8.289
 1520POPC   C3A22565  42.357  31.346   7.906
 1520POPC   C4A22566  42.024  31.431   7.606
 1520POPC   C1B22567  42.634  31.701   8.743
 1520POPC   C2B22568  42.544  31.601   8.329
 1520POPC   C3B22569  42.636  31.822   7.964
 1520POPC   C4B22570  42.553  31.760   7.562
 1521POPC   NC322571   4.600  29.435   9.336
 1521POPC   PO422572   4.977  29.036   9.681
 1521POPC   GL122573   4.875  28.967   9.265
 1521POPC   GL222574   4.994  29.279   9.075
 1521POPC   C1A22575   4.899  28.863   8.823
 1521POPC   D2A22576   4.896  29.129   8.398
 1521POPC   C3A22577   5.092  28.919   8.042
 1521POPC   C4A22578   5.342  28.743   7.687
 1521POPC   C1B22579   5.146  29.530   8.726
 1521POPC   C2B22580   5.095  29.722   8.322
 1521POPC   C3B22581   4.930  29.513   7.971
 1521POPC   C4B22582   5.244  29.320   7.751
 1522POPC   NC322583  36.410  25.254   9.383
 1522POPC   PO422584  35.810  25.593   9.464
 1522POPC   GL122585  36.055  25.524   9.105
 1522POPC   GL222586  36.019  25.194   9.081
 1522POPC   C1A22587  36.337  25.377   8.746
 1522POPC   D2A22588  36.476  25.239   8.365
 1522POPC   C3A22589  36.290  25.463   8.060
 1522POPC   C4A22590  36.115  25.510   7.639
 1522POPC   C1B22591  35.835  25.193   8.713
 1522POPC   C2B22592  35.956  25.193   8.333
 1522POPC   C3B22593  35.796  25.322   7.979
 1522POPC   C4B22594  35.814  25.086   7.645
 1523POPC   NC322595  41.866  32.141   9.492
 1523POPC   PO422596  41.242  32.267   9.443
 1523POPC   GL122597  41.375  32.032   9.133
 1523POPC   GL222598  41.614  32.262   9.065
 1523POPC   C1A22599  41.479  31.887   8.714
 1523POPC   D2A22600  41.325  32.022   8.310
 1523POPC   C3A22601  41.539  32.082   7.929
 1523POPC   C4A22602  41.460  32.155   7.464
 1523POPC   C1B22603  41.721  32.331   8.658
 1523POPC   C2B22604  41.897  32.444   8.299
 1523POPC   C3B22605  41.904  32.763   8.016
 1523POPC   C4B22606  41.645  32.547   7.766
 1524POPC   NC322607  31.032   5.400   9.333
 1524POPC   PO422608  31.417   4.826   9.543
 1524POPC   GL122609  31.366   5.017   9.169
 1524POPC   GL222610  31.024   4.946   9.109
 1524POPC   C1A22611  31.590   5.177   8.802
 1524POPC   D2A22612  31.505   5.363   8.411
 1524POPC   C3A22613  31.603   5.162   8.071
 1524POPC   C4A22614  31.516   5.289   7.677
 1524POPC   C1B22615  31.207   4.837   8.693
 1524POPC   C2B22616  31.325   4.751   8.250
 1524POPC   C3B22617  31.338   4.813   7.786
 1524POPC   C4B22618  31.254   4.944   7.364
 1525POPC   NC322619  33.356  12.604   9.547
 1525POPC   PO422620  32.871  13.068   9.554
 1525POPC   GL122621  33.131  13.070   9.203
 1525POPC   GL222622  33.055  12.737   9.132
 1525POPC   C1A22623  33.314  13.054   8.788
 1525POPC   D2A22624  33.271  13.291   8.415
 1525POPC   C3A22625  33.080  13.061   8.108
 1525POPC   C4A22626  32.989  13.072   7.690
 1525POPC   C1B22627  33.220  12.538   8.767
 1525POPC   C2B22628  33.192  12.610   8.327
 1525POPC   C3B22629  33.007  12.579   7.912
 1525POPC   C4B22630  33.317  12.671   7.601
 1526POPC   NC322631  35.943  24.415   9.352
 1526POPC   PO422632  35.419  24.713   9.405
 1526POPC   GL122633  35.385  24.422   9.073
 1526POPC   GL222634  35.029  24.272   9.083
 1526POPC   C1A22635  35.628  24.418   8.683
 1526POPC   D2A22636  35.738  24.723   8.374
 1526POPC   C3A22637  35.508  24.566   8.030
 1526POPC   C4A22638  35.615  24.435   7.630
 1526POPC   C1B22639  35.075  24.431   8.654
 1526POPC   C2B22640  34.913  24.450   8.228
 1526POPC   C3B22641  34.908  24.748   7.900
 1526POPC   C4B22642  35.146  24.576   7.619
 1527POPC   NC322643  21.366  12.458   9.779
 1527POPC   PO422644  21.349  11.773   9.679
 1527POPC   GL122645  21.333  11.906   9.236
 1527POPC   GL222646  21.625  11.943   9.083
 1527POPC   C1A22647  21.191  12.047   8.820
 1527POPC   D2A22648  20.899  12.053   8.513
 1527POPC   C3A22649  21.118  12.072   8.133
 1527POPC   C4A22650  21.090  12.063   7.698
 1527POPC   C1B22651  21.578  11.691   8.717
 1527POPC   C2B22652  21.494  11.594   8.281
 1527POPC   C3B22653  21.316  11.632   7.867
 1527POPC   C4B22654  21.494  11.761   7.447
 1528POPC   NC322655  33.471   7.163   9.385
 1528POPC   PO422656  32.834   7.479   9.470
 1528POPC   GL122657  33.131   7.526   9.151
 1528POPC   GL222658  33.039   7.855   9.092
 1528POPC   C1A22659  33.253   7.311   8.754
 1528POPC   D2A22660  33.385   7.396   8.327
 1528POPC   C3A22661  33.333   7.153   7.981
 1528POPC   C4A22662  33.270   7.191   7.508
 1528POPC   C1B22663  32.947   7.743   8.664
 1528POPC   C2B22664  32.903   7.545   8.264
 1528POPC   C3B22665  33.025   7.527   7.836
 1528POPC   C4B22666  32.794   7.472   7.480
 1529POPC   NC322667  17.865  41.062   9.577
 1529POPC   PO422668  17.342  40.586   9.524
 1529POPC   GL122669  17.523  40.816   9.179
 1529POPC   GL222670  17.247  41.000   9.014
 1529POPC   C1A22671  17.599  40.754   8.723
 1529POPC   D2A22672  17.380  41.025   8.413
 1529POPC   C3A22673  17.359  40.851   7.990
 1529POPC   C4A22674  17.599  40.495   7.754
 1529POPC   C1B22675  17.098  40.662   8.697
 1529POPC   C2B22676  17.152  40.442   8.280
 1529POPC   C3B22677  17.101  40.448   7.833
 1529POPC   C4B22678  17.226  40.757   7.495
 1530POPC   NC322679  23.753  24.905   9.226
 1530POPC   PO422680  23.518  24.260   9.418
 1530POPC   GL122681  23.727  24.413   9.068
 1530POPC   GL222682  23.416  24.580   9.036
 1530POPC   C1A22683  23.765  24.584   8.640
 1530POPC   D2A22684  23.681  24.302   8.317
 1530POPC   C3A22685  23.883  24.360   7.902
 1530POPC   C4A22686  23.877  24.704   7.607
 1530POPC   C1B22687  23.308  24.281   8.721
 1530POPC   C2B22688  23.160  24.183   8.290
 1530POPC   C3B22689  23.371  24.334   7.908
 1530POPC   C4B22690  23.556  24.333   7.473
 1531POPC   NC322691  16.239  29.829   9.695
 1531POPC   PO422692  15.547  29.837   9.674
 1531POPC   GL122693  15.791  29.686   9.253
 1531POPC   GL222694  16.150  29.678   9.132
 1531POPC   C1A22695  15.754  29.771   8.784
 1531POPC   D2A22696  15.756  29.925   8.353
 1531POPC   C3A22697  15.734  29.697   7.963
 1531POPC   C4A22698  15.792  29.969   7.570
 1531POPC   C1B22699  16.190  29.460   8.714
 1531POPC   C2B22700  16.197  29.640   8.287
 1531POPC   C3B22701  16.166  30.018   8.008
 1531POPC   C4B22702  16.072  30.365   7.708
 1532POPC   NC322703  24.861  10.156   9.619
 1532POPC   PO422704  24.672   9.436   9.457
 1532POPC   GL122705  24.615   9.658   9.077
 1532POPC   GL222706  24.679  10.014   9.120
 1532POPC   C1A22707  24.603   9.474   8.675
 1532POPC   D2A22708  24.849   9.517   8.335
 1532POPC   C3A22709  24.709   9.318   7.973
 1532POPC   C4A22710  24.570   9.631   7.697
 1532POPC   C1B22711  24.499   9.993   8.690
 1532POPC   C2B22712  24.582  10.037   8.264
 1532POPC   C3B22713  24.528  10.124   7.838
 1532POPC   C4B22714  24.228  10.071   7.563
 1533POPC   NC322715  13.124   7.277   9.410
 1533POPC   PO422716  12.636   7.698   9.621
 1533POPC   GL122717  12.778   7.615   9.166
 1533POPC   GL222718  12.753   7.238   9.050
 1533POPC   C1A22719  12.735   7.595   8.698
 1533POPC   D2A22720  12.695   7.226   8.373
 1533POPC   C3A22721  12.501   7.364   7.993
 1533POPC   C4A22722  12.631   7.691   7.742
 1533POPC   C1B22723  13.087   7.209   8.702
 1533POPC   C2B22724  13.299   6.925   8.404
 1533POPC   C3B22725  13.244   7.036   7.968
 1533POPC   C4B22726  12.859   7.099   7.710
 1534POPC   NC322727  40.688  14.010   9.340
 1534POPC   PO422728  40.967  14.615   9.474
 1534POPC   GL122729  40.725  14.679   9.100
 1534POPC   GL222730  40.428  14.488   9.240
 1534POPC   C1A22731  40.789  14.518   8.692
 1534POPC   D2A22732  41.136  14.365   8.453
 1534POPC   C3A22733  40.995  14.397   8.066
 1534POPC   C4A22734  40.837  14.528   7.708
 1534POPC   C1B22735  40.282  14.535   8.820
 1534POPC   C2B22736  40.272  14.648   8.373
 1534POPC   C3B22737  40.454  14.423   8.027
 1534POPC   C4B22738  40.405  14.251   7.609
 1535POPC   NC322739   1.220  43.312   9.511
 1535POPC   PO422740   0.735  43.295   9.142
 1535POPC   GL122741   1.142  43.100   9.049
 1535POPC   GL222742   1.509  43.097   9.132
 1535POPC   C1A22743   1.293  42.936   8.705
 1535POPC   D2A22744   1.102  42.746   8.379
 1535POPC   C3A22745   1.146  42.977   8.010
 1535POPC   C4A22746   1.223  42.848   7.596
 1535POPC   C1B22747   1.536  43.425   8.870
 1535POPC   C2B22748   1.576  43.334   8.474
 1535POPC   C3B22749   1.481  43.437   8.076
 1535POPC   C4B22750   1.463  43.257   7.720
 1536POPC   NC322751  20.474  37.272   9.452
 1536POPC   PO422752  20.457  36.564   9.368
 1536POPC   GL122753  20.496  36.823   9.033
 1536POPC   GL222754  20.759  37.012   9.150
 1536POPC   C1A22755  20.521  36.740   8.607
 1536POPC   D2A22756  20.825  36.428   8.425
 1536POPC   C3A22757  20.702  36.463   8.021
 1536POPC   C4A22758  20.552  36.745   7.701
 1536POPC   C1B22759  20.700  37.211   8.744
 1536POPC   C2B22760  20.509  37.190   8.336
 1536POPC   C3B22761  20.695  37.206   7.891
 1536POPC   C4B22762  20.584  37.220   7.407
 1537POPC   NC322763  15.113   4.548   9.322
 1537POPC   PO422764  15.254   5.156   9.584
 1537POPC   GL122765  15.321   5.029   9.156
 1537POPC   GL222766  14.973   4.977   9.102
 1537POPC   C1A22767  15.238   5.120   8.689
 1537POPC   D2A22768  15.096   5.321   8.329
 1537POPC   C3A22769  15.228   5.118   7.967
 1537POPC   C4A22770  15.120   5.040   7.536
 1537POPC   C1B22771  14.909   4.743   8.724
 1537POPC   C2B22772  15.016   4.771   8.304
 1537POPC   C3B22773  14.794   4.874   7.904
 1537POPC   C4B22774  14.782   4.673   7.474
 1538POPC   NC322775   3.750  17.270   9.389
 1538POPC   PO422776   3.856  16.528   9.543
 1538POPC   GL122777   3.610  16.497   9.159
 1538POPC   GL222778   3.550  16.880   9.112
 1538POPC   C1A22779   3.383  16.539   8.789
 1538POPC   D2A22780   3.517  16.746   8.437
 1538POPC   C3A22781   3.477  16.479   8.107
 1538POPC   C4A22782   3.399  16.561   7.697
 1538POPC   C1B22783   3.491  17.185   8.730
 1538POPC   C2B22784   3.263  17.177   8.325
 1538POPC   C3B22785   3.477  17.047   7.943
 1538POPC   C4B22786   3.591  16.964   7.489
 1539POPC   NC322787  43.644  40.435   9.403
 1539POPC   PO422788  44.248  40.582   9.695
 1539POPC   GL122789  44.142  40.663   9.232
 1539POPC   GL222790  44.288  40.989   9.087
 1539POPC   C1A22791  43.856  40.728   8.835
 1539POPC   D2A22792  43.759  40.942   8.395
 1539POPC   C3A22793  43.593  40.713   8.030
 1539POPC   C4A22794  43.735  40.648   7.591
 1539POPC   C1B22795  44.221  41.022   8.658
 1539POPC   C2B22796  44.231  40.658   8.365
 1539POPC   C3B22797  44.108  40.642   7.942
 1539POPC   C4B22798  43.910  41.055   7.826
 1540POPC   NC322799  12.233   4.556   9.398
 1540POPC   PO422800  11.942   3.918   9.538
 1540POPC   GL122801  11.887   4.175   9.140
 1540POPC   GL222802  11.747   4.517   9.154
 1540POPC   C1A22803  12.063   4.354   8.741
 1540POPC   D2A22804  12.284   4.638   8.455
 1540POPC   C3A22805  12.236   4.427   8.059
 1540POPC   C4A22806  11.870   4.198   7.941
 1540POPC   C1B22807  11.740   4.743   8.735
 1540POPC   C2B22808  11.805   4.631   8.267
 1540POPC   C3B22809  11.853   4.695   7.808
 1540POPC   C4B22810  11.765   4.562   7.360
 1541POPC   NC322811   5.608  42.345   9.636
 1541POPC   PO422812   6.256  42.221   9.520
 1541POPC   GL122813   5.917  42.310   9.223
 1541POPC   GL222814   5.694  41.990   9.203
 1541POPC   C1A22815   5.710  42.521   8.826
 1541POPC   D2A22816   5.692  42.775   8.397
 1541POPC   C3A22817   6.032  42.711   8.063
 1541POPC   C4A22818   5.978  42.651   7.616
 1541POPC   C1B22819   5.961  42.031   8.802
 1541POPC   C2B22820   5.961  42.290   8.403
 1541POPC   C3B22821   5.934  42.205   7.951
 1541POPC   C4B22822   5.831  41.850   7.706
 1542POPC   NC322823  32.449   0.433   9.727
 1542POPC   PO422824  31.917   0.165   9.360
 1542POPC   GL122825  32.190   0.542   9.254
 1542POPC   GL222826  31.973   0.763   9.077
 1542POPC   C1A22827  32.439   0.603   8.848
 1542POPC   D2A22828  32.371   0.428   8.380
 1542POPC   C3A22829  32.411   0.660   7.963
 1542POPC   C4A22830  32.126   0.767   7.607
 1542POPC   C1B22831  31.984   0.386   8.766
 1542POPC   C2B22832  31.926   0.173   8.396
 1542POPC   C3B22833  31.964   0.386   8.032
 1542POPC   C4B22834  31.717   0.459   7.713
 1543POPC   NC322835   6.714  40.328   9.471
 1543POPC   PO422836   7.167  40.831   9.442
 1543POPC   GL122837   6.954  40.885   9.030
 1543POPC   GL222838   6.654  40.682   9.071
 1543POPC   C1A22839   6.965  40.899   8.608
 1543POPC   D2A22840   6.700  41.012   8.281
 1543POPC   C3A22841   6.852  40.880   7.896
 1543POPC   C4A22842   6.800  41.046   7.467
 1543POPC   C1B22843   6.460  40.777   8.681
 1543POPC   C2B22844   6.225  40.787   8.285
 1543POPC   C3B22845   6.428  40.601   7.913
 1543POPC   C4B22846   6.662  40.574   7.513
 1544POPC   NC322847  35.348  25.624   9.466
 1544POPC   PO422848  35.403  26.257   9.515
 1544POPC   GL122849  35.402  26.072   9.127
 1544POPC   GL222850  35.687  25.882   9.055
 1544POPC   C1A22851  35.217  26.006   8.716
 1544POPC   D2A22852  35.387  25.942   8.326
 1544POPC   C3A22853  35.265  26.060   7.932
 1544POPC   C4A22854  35.320  26.070   7.464
 1544POPC   C1B22855  35.708  26.129   8.684
 1544POPC   C2B22856  35.816  26.255   8.252
 1544POPC   C3B22857  35.698  26.259   7.783
 1544POPC   C4B22858  35.762  26.357   7.324
 1545POPC   NC322859  29.415  43.786   9.543
 1545POPC   PO422860  28.805  44.044   9.596
 1545POPC   GL122861  28.969  44.078   9.167
 1545POPC   GL222862  29.326  43.957   9.058
 1545POPC   C1A22863  28.922  43.918   8.746
 1545POPC   D2A22864  29.177  43.976   8.396
 1545POPC   C3A22865  28.997  44.000   8.013
 1545POPC   C4A22866  29.115  44.159   7.620
 1545POPC   C1B22867  29.401  43.663   8.740
 1545POPC   C2B22868  29.456  43.551   8.296
 1545POPC   C3B22869  29.378  43.679   7.877
 1545POPC   C4B22870  29.353  43.416   7.491
 1546POPC   NC322871  36.324  32.442   9.466
 1546POPC   PO422872  35.870  31.916   9.351
 1546POPC   GL122873  36.074  32.182   9.110
 1546POPC   GL222874  36.384  32.000   9.183
 1546POPC   C1A22875  36.235  32.415   8.743
 1546POPC   D2A22876  36.013  32.447   8.324
 1546POPC   C3A22877  36.136  32.428   7.885
 1546POPC   C4A22878  36.571  32.425   7.748
 1546POPC   C1B22879  36.334  31.918   8.774
 1546POPC   C2B22880  36.476  32.096   8.409
 1546POPC   C3B22881  36.407  32.008   7.987
 1546POPC   C4B22882  36.076  31.875   7.750
 1547POPC   NC322883   5.457  15.433   9.371
 1547POPC   PO422884   5.465  16.064   9.503
 1547POPC   GL122885   5.190  15.915   9.166
 1547POPC   GL222886   4.870  15.972   9.264
 1547POPC   C1A22887   5.045  16.000   8.722
 1547POPC   D2A22888   5.078  15.946   8.239
 1547POPC   C3A22889   5.491  15.840   7.996
 1547POPC   C4A22890   5.572  15.869   7.518
 1547POPC   C1B22891   4.623  15.792   8.935
 1547POPC   C2B22892   4.650  15.752   8.490
 1547POPC   C3B22893   4.798  15.530   8.109
 1547POPC   C4B22894   4.725  15.701   7.709
 1548POPC   NC322895  42.611  17.121   9.492
 1548POPC   PO422896  42.181  17.703   9.485
 1548POPC   GL122897  42.213  17.385   9.177
 1548POPC   GL222898  42.533  17.487   9.140
 1548POPC   C1A22899  42.353  17.176   8.775
 1548POPC   D2A22900  42.536  17.331   8.366
 1548POPC   C3A22901  42.344  17.306   7.955
 1548POPC   C4A22902  42.042  17.662   7.829
 1548POPC   C1B22903  42.455  17.687   8.749
 1548POPC   C2B22904  42.708  17.826   8.401
 1548POPC   C3B22905  42.509  17.794   8.002
 1548POPC   C4B22906  42.536  17.579   7.582
 1549POPC   NC322907  36.273  13.052   9.816
 1549POPC   PO422908  36.402  12.627   9.280
 1549POPC   GL122909  36.029  12.898   9.053
 1549POPC   GL222910  35.732  12.893   9.253
 1549POPC   C1A22911  35.908  13.106   8.659
 1549POPC   D2A22912  36.002  13.162   8.216
 1549POPC   C3A22913  36.179  12.849   7.945
 1549POPC   C4A22914  36.284  12.938   7.516
 1549POPC   C1B22915  35.560  12.729   8.859
 1549POPC   C2B22916  35.507  12.774   8.414
 1549POPC   C3B22917  35.691  12.663   8.016
 1549POPC   C4B22918  35.862  12.638   7.608
 1550POPC   NC322919  38.948  40.089   9.507
 1550POPC   PO422920  39.365  39.646   9.713
 1550POPC   GL122921  39.200  39.698   9.270
 1550POPC   GL222922  39.271  40.025   9.118
 1550POPC   C1A22923  39.174  39.674   8.799
 1550POPC   D2A22924  39.442  39.793   8.447
 1550POPC   C3A22925  39.197  39.647   8.116
 1550POPC   C4A22926  39.124  39.750   7.683
 1550POPC   C1B22927  39.462  40.218   8.774
 1550POPC   C2B22928  39.265  40.283   8.381
 1550POPC   C3B22929  39.078  40.146   8.057
 1550POPC   C4B22930  39.465  40.075   7.880
 1551POPC   NC322931  14.013  28.413   9.671
 1551POPC   PO422932  13.375  28.252   9.495
 1551POPC   GL122933  13.473  28.503   9.124
 1551POPC   GL222934  13.851  28.508   9.131
 1551POPC   C1A22935  13.596  28.365   8.703
 1551POPC   D2A22936  13.742  28.113   8.370
 1551POPC   C3A22937  13.636  28.305   8.002
 1551POPC   C4A22938  13.487  28.242   7.596
 1551POPC   C1B22939  13.957  28.760   8.774
 1551POPC   C2B22940  13.884  28.662   8.382
 1551POPC   C3B22941  13.738  28.808   8.009
 1551POPC   C4B22942  13.709  28.690   7.613
 1552POPC   NC322943  41.410   1.907   9.453
 1552POPC   PO422944  41.767   2.414   9.416
 1552POPC   GL122945  41.817   1.978   9.141
 1552POPC   GL222946  41.476   1.852   8.957
 1552POPC   C1A22947  41.905   1.700   8.742
 1552POPC   D2A22948  41.752   1.624   8.267
 1552POPC   C3A22949  41.749   2.001   7.949
 1552POPC   C4A22950  41.705   2.461   7.821
 1552POPC   C1B22951  41.110   1.572   8.795
 1552POPC   C2B22952  41.118   1.437   8.336
 1552POPC   C3B22953  41.315   1.724   7.997
 1552POPC   C4B22954  41.377   1.805   7.538
 1553POPC   NC322955  26.473  34.698   9.362
 1553POPC   PO422956  26.906  34.241   9.403
 1553POPC   GL122957  26.751  34.339   9.025
 1553POPC   GL222958  26.531  34.552   8.868
 1553POPC   C1A22959  26.799  34.197   8.603
 1553POPC   D2A22960  26.997  34.519   8.398
 1553POPC   C3A22961  26.814  34.587   8.013
 1553POPC   C4A22962  27.082  34.618   7.714
 1553POPC   C1B22963  26.629  34.993   8.774
 1553POPC   C2B22964  26.637  35.262   8.441
 1553POPC   C3B22965  26.573  35.201   8.011
 1553POPC   C4B22966  26.702  34.969   7.651
 1554POPC   NC322967  24.893  30.964   9.487
 1554POPC   PO422968  25.303  30.609   9.838
 1554POPC   GL122969  25.329  30.787   9.319
 1554POPC   GL222970  25.021  30.861   9.021
 1554POPC   C1A22971  25.469  30.660   8.906
 1554POPC   D2A22972  25.283  30.513   8.517
 1554POPC   C3A22973  25.560  30.568   8.167
 1554POPC   C4A22974  25.482  30.637   7.742
 1554POPC   C1B22975  25.099  31.053   8.614
 1554POPC   C2B22976  25.201  30.936   8.203
 1554POPC   C3B22977  25.006  30.681   7.910
 1554POPC   C4B22978  25.104  30.995   7.614
 1555POPC   NC322979  37.009   1.166   9.802
 1555POPC   PO422980  37.558   1.246   9.517
 1555POPC   GL122981  37.552   1.223   9.085
 1555POPC   GL222982  37.906   1.318   9.027
 1555POPC   C1A22983  37.678   0.944   8.744
 1555POPC   D2A22984  37.876   0.967   8.330
 1555POPC   C3A22985  37.656   1.083   7.940
 1555POPC   C4A22986  37.780   1.362   7.622
 1555POPC   C1B22987  37.842   1.418   8.592
 1555POPC   C2B22988  37.602   1.493   8.227
 1555POPC   C3B22989  37.392   1.583   7.843
 1555POPC   C4B22990  37.376   1.551   7.367
 1556POPC   NC322991  36.401  13.123   9.288
 1556POPC   PO422992  35.873  13.282   9.705
 1556POPC   GL122993  35.826  13.408   9.240
 1556POPC   GL222994  36.109  13.609   9.182
 1556POPC   C1A22995  35.788  13.603   8.789
 1556POPC   D2A22996  35.653  13.500   8.371
 1556POPC   C3A22997  35.848  13.588   7.957
 1556POPC   C4A22998  36.124  13.805   7.642
 1556POPC   C1B22999  36.276  13.482   8.760
 1556POPC   C2B23000  36.151  13.633   8.396
 1556POPC   C3B23001  36.359  13.676   8.069
 1556POPC   C4B23002  36.298  13.348   7.800
 1557POPC   NC323003  32.363   9.433   9.377
 1557POPC   PO423004  31.887   9.977   9.385
 1557POPC   GL123005  32.139   9.798   9.061
 1557POPC   GL223006  32.478   9.924   9.128
 1557POPC   C1A23007  32.190   9.547   8.669
 1557POPC   D2A23008  31.910   9.517   8.298
 1557POPC   C3A23009  32.034   9.802   7.981
 1557POPC   C4A23010  32.266   9.677   7.591
 1557POPC   C1B23011  32.420  10.015   8.678
 1557POPC   C2B23012  32.465   9.861   8.266
 1557POPC   C3B23013  32.459  10.072   7.869
 1557POPC   C4B23014  32.695  10.180   7.495
 1558POPC   NC323015  24.034  29.219   9.431
 1558POPC   PO423016  23.302  29.116   9.419
 1558POPC   GL123017  23.549  29.090   9.067
 1558POPC   GL223018  23.837  28.868   9.096
 1558POPC   C1A23019  23.546  28.950   8.636
 1558POPC   D2A23020  23.857  28.935   8.290
 1558POPC   C3A23021  23.653  28.991   7.900
 1558POPC   C4A23022  23.608  28.806   7.481
 1558POPC   C1B23023  24.012  29.115   8.753
 1558POPC   C2B23024  24.053  29.403   8.422
 1558POPC   C3B23025  24.073  29.341   7.980
 1558POPC   C4B23026  24.044  29.650   7.653
 1559POPC   NC323027  43.347  15.400   9.808
 1559POPC   PO423028  43.988  15.279   9.572
 1559POPC   GL123029  43.899  15.188   9.104
 1559POPC   GL223030  44.052  14.881   8.969
 1559POPC   C1A23031  43.908  15.231   8.626
 1559POPC   D2A23032  43.565  15.216   8.312
 1559POPC   C3A23033  43.711  15.258   7.900
 1559POPC   C4A23034  44.133  15.479   7.836
 1559POPC   C1B23035  44.397  14.708   8.775
 1559POPC   C2B23036  44.355  14.966   8.456
 1559POPC   C3B23037  44.097  15.087   8.163
 1559POPC   C4B23038  43.997  14.828   7.793
 1560POPC   NC323039  20.192  17.066   9.772
 1560POPC   PO423040  20.384  17.560   9.388
 1560POPC   GL123041  20.780  17.563   9.168
 1560POPC   GL223042  20.714  17.255   9.093
 1560POPC   C1A23043  20.753  17.652   8.709
 1560POPC   D2A23044  20.463  17.699   8.323
 1560POPC   C3A23045  20.683  17.679   7.958
 1560POPC   C4A23046  20.487  17.513   7.588
 1560POPC   C1B23047  20.858  17.131   8.705
 1560POPC   C2B23048  20.810  17.313   8.296
 1560POPC   C3B23049  20.676  17.159   7.874
 1560POPC   C4B23050  20.806  17.179   7.386
 1561POPC   NC323051  35.360  20.241   9.544
 1561POPC   PO423052  35.091  20.813   9.370
 1561POPC   GL123053  35.460  20.752   9.094
 1561POPC   GL223054  35.709  20.510   9.265
 1561POPC   C1A23055  35.402  20.658   8.622
 1561POPC   D2A23056  35.290  20.271   8.369
 1561POPC   C3A23057  35.141  20.456   8.029
 1561POPC   C4A23058  35.307  20.858   7.890
 1561POPC   C1B23059  35.711  20.346   8.872
 1561POPC   C2B23060  35.791  20.333   8.444
 1561POPC   C3B23061  35.654  20.486   8.030
 1561POPC   C4B23062  35.464  20.237   7.689
 1562POPC   NC323063   1.860  41.202   9.530
 1562POPC   PO423064   1.733  41.801   9.466
 1562POPC   GL123065   1.986  41.678   9.113
 1562POPC   GL223066   2.003  41.355   9.077
 1562POPC   C1A23067   2.205  41.669   8.730
 1562POPC   D2A23068   2.099  41.640   8.319
 1562POPC   C3A23069   2.092  41.716   7.907
 1562POPC   C4A23070   1.881  41.519   7.560
 1562POPC   C1B23071   2.261  41.105   8.836
 1562POPC   C2B23072   2.354  41.220   8.438
 1562POPC   C3B23073   2.353  41.236   8.014
 1562POPC   C4B23074   2.188  40.989   7.675
 1563POPC   NC323075  30.265  33.489   9.500
 1563POPC   PO423076  30.921  33.738   9.478
 1563POPC   GL123077  30.636  33.651   9.181
 1563POPC   GL223078  30.458  33.967   9.150
 1563POPC   C1A23079  30.666  33.459   8.789
 1563POPC   D2A23080  30.887  33.626   8.454
 1563POPC   C3A23081  30.736  33.537   8.076
 1563POPC   C4A23082  30.918  33.607   7.704
 1563POPC   C1B23083  30.670  33.982   8.758
 1563POPC   C2B23084  30.536  33.967   8.306
 1563POPC   C3B23085  30.721  34.045   7.900
 1563POPC   C4B23086  31.005  34.401   7.794
 1564POPC   NC323087   4.625  43.392   9.462
 1564POPC   PO423088   4.190  42.933   9.790
 1564POPC   GL123089   4.119  42.965   9.309
 1564POPC   GL223090   4.444  42.914   9.184
 1564POPC   C1A23091   4.109  43.185   8.873
 1564POPC   D2A23092   4.412  43.251   8.511
 1564POPC   C3A23093   4.255  43.249   8.065
 1564POPC   C4A23094   4.495  43.284   7.652
 1564POPC   C1B23095   4.308  42.711   8.798
 1564POPC   C2B23096   4.182  42.804   8.352
 1564POPC   C3B23097   4.278  42.776   7.880
 1564POPC   C4B23098   4.032  43.052   7.597
 1565POPC   NC323099   8.166  19.861   9.547
 1565POPC   PO423100   8.565  20.348   9.316
 1565POPC   GL123101   8.268  20.077   9.067
 1565POPC   GL223102   8.278  19.730   9.064
 1565POPC   C1A23103   8.176  19.940   8.608
 1565POPC   D2A23104   8.496  19.851   8.311
 1565POPC   C3A23105   8.460  19.924   7.907
 1565POPC   C4A23106   8.595  19.579   7.721
 1565POPC   C1B23107   7.819  19.740   8.903
 1565POPC   C2B23108   7.689  19.681   8.438
 1565POPC   C3B23109   7.930  19.638   8.049
 1565POPC   C4B23110   8.084  19.687   7.635
 1566POPC   NC323111  28.037  23.402   9.520
 1566POPC   PO423112  28.506  23.744   9.663
 1566POPC   GL123113  28.377  23.626   9.210
 1566POPC   GL223114  28.019  23.534   9.047
 1566POPC   C1A23115  28.448  23.700   8.783
 1566POPC   D2A23116  28.718  23.908   8.474
 1566POPC   C3A23117  28.574  23.738   8.097
 1566POPC   C4A23118  28.472  23.427   7.799
 1566POPC   C1B23119  27.901  23.758   8.690
 1566POPC   C2B23120  27.979  23.892   8.277
 1566POPC   C3B23121  28.107  23.820   7.858
 1566POPC   C4B23122  27.856  23.991   7.496
 1567POPC   NC323123  24.503  27.420   9.462
 1567POPC   PO423124  24.039  27.936   9.499
 1567POPC   GL123125  24.344  27.823   9.161
 1567POPC   GL223126  24.271  27.478   9.030
 1567POPC   C1A23127  24.664  27.718   8.825
 1567POPC   D2A23128  24.684  27.485   8.459
 1567POPC   C3A23129  24.479  27.585   8.074
 1567POPC   C4A23130  24.694  27.538   7.678
 1567POPC   C1B23131  24.271  27.253   8.655
 1567POPC   C2B23132  24.416  27.051   8.280
 1567POPC   C3B23133  24.171  27.190   7.939
 1567POPC   C4B23134  24.170  27.384   7.518
 1568POPC   NC323135  19.294  40.478   9.483
 1568POPC   PO423136  18.720  40.774   9.652
 1568POPC   GL123137  18.868  40.745   9.215
 1568POPC   GL223138  19.061  40.499   9.016
 1568POPC   C1A23139  19.140  40.981   8.925
 1568POPC   D2A23140  19.069  40.772   8.537
 1568POPC   C3A23141  19.077  40.915   8.116
 1568POPC   C4A23142  18.903  40.903   7.694
 1568POPC   C1B23143  19.365  40.359   8.677
 1568POPC   C2B23144  19.275  40.329   8.214
 1568POPC   C3B23145  19.199  40.486   7.793
 1568POPC   C4B23146  19.175  40.637   7.338
 1569POPC   NC323147   1.320  17.655   9.465
 1569POPC   PO423148   1.471  17.015   9.613
 1569POPC   GL123149   1.263  17.242   9.178
 1569POPC   GL223150   1.471  17.578   9.003
 1569POPC   C1A23151   1.182  17.302   8.714
 1569POPC   D2A23152   1.355  17.664   8.474
 1569POPC   C3A23153   1.320  17.631   8.059
 1569POPC   C4A23154   1.316  17.273   7.799
 1569POPC   C1B23155   1.117  17.870   8.850
 1569POPC   C2B23156   0.952  18.002   8.432
 1569POPC   C3B23157   1.063  18.120   8.005
 1569POPC   C4B23158   1.174  17.888   7.653
 1570POPC   NC323159  14.595  21.999   9.430
 1570POPC   PO423160  14.132  22.403   9.671
 1570POPC   GL123161  14.178  22.241   9.243
 1570POPC   GL223162  13.897  22.016   9.176
 1570POPC   C1A23163  14.278  22.238   8.802
 1570POPC   D2A23164  14.394  22.350   8.381
 1570POPC   C3A23165  14.450  22.091   8.045
 1570POPC   C4A23166  14.727  22.078   7.709
 1570POPC   C1B23167  13.935  21.847   8.779
 1570POPC   C2B23168  14.121  21.889   8.377
 1570POPC   C3B23169  13.961  21.958   7.944
 1570POPC   C4B23170  14.242  21.975   7.593
 1571POPC   NC323171  38.808  38.472   9.253
 1571POPC   PO423172  38.183  38.670   9.374
 1571POPC   GL123173  38.380  38.637   9.014
 1571POPC   GL223174  38.620  38.880   9.003
 1571POPC   C1A23175  38.398  38.423   8.632
 1571POPC   D2A23176  38.524  38.224   8.258
 1571POPC   C3A23177  38.359  38.397   7.902
 1571POPC   C4A23178  38.472  38.214   7.542
 1571POPC   C1B23179  38.882  38.670   8.674
 1571POPC   C2B23180  39.075  38.703   8.295
 1571POPC   C3B23181  38.843  38.578   7.951
 1571POPC   C4B23182  38.729  38.667   7.541
 1572POPC   NC323183  21.986  13.915   9.428
 1572POPC   PO423184  22.285  13.309   9.621
 1572POPC   GL123185  22.378  13.576   9.240
 1572POPC   GL223186  22.499  13.946   9.198
 1572POPC   C1A23187  22.162  13.547   8.837
 1572POPC   D2A23188  21.998  13.711   8.446
 1572POPC   C3A23189  22.189  13.539   8.081
 1572POPC   C4A23190  22.003  13.406   7.710
 1572POPC   C1B23191  22.326  14.031   8.745
 1572POPC   C2B23192  22.417  13.965   8.265
 1572POPC   C3B23193  22.301  13.951   7.768
 1572POPC   C4B23194  22.525  14.084   7.354
 1573POPC   NC323195  19.224  28.582   9.304
 1573POPC   PO423196  18.639  28.401   9.565
 1573POPC   GL123197  18.869  28.256   9.148
 1573POPC   GL223198  18.717  28.598   9.098
 1573POPC   C1A23199  19.053  28.113   8.683
 1573POPC   D2A23200  19.285  28.124   8.243
 1573POPC   C3A23201  19.272  28.500   7.964
 1573POPC   C4A23202  18.884  28.640   7.781
 1573POPC   C1B23203  18.826  28.567   8.696
 1573POPC   C2B23204  18.912  28.485   8.322
 1573POPC   C3B23205  18.764  28.118   8.173
 1573POPC   C4B23206  18.960  28.037   7.812
 1574POPC   NC323207  34.756  20.497   9.333
 1574POPC   PO423208  34.325  20.868   9.640
 1574POPC   GL123209  34.326  20.742   9.192
 1574POPC   GL223210  34.266  20.351   9.168
 1574POPC   C1A23211  34.545  20.895   8.796
 1574POPC   D2A23212  34.900  20.832   8.486
 1574POPC   C3A23213  34.724  20.774   8.067
 1574POPC   C4A23214  34.495  20.628   7.699
 1574POPC   C1B23215  34.447  20.387   8.757
 1574POPC   C2B23216  34.283  20.471   8.360
 1574POPC   C3B23217  34.338  20.261   7.978
 1574POPC   C4B23218  34.749  20.214   7.819
 1575POPC   NC323219   8.037   3.788   9.539
 1575POPC   PO423220   8.371   3.205   9.448
 1575POPC   GL123221   8.236   3.522   9.146
 1575POPC   GL223222   7.865   3.528   9.126
 1575POPC   C1A23223   8.163   3.651   8.726
 1575POPC   D2A23224   8.102   3.472   8.345
 1575POPC   C3A23225   8.340   3.511   7.978
 1575POPC   C4A23226   8.307   3.416   7.521
 1575POPC   C1B23227   7.669   3.754   8.764
 1575POPC   C2B23228   7.774   3.873   8.370
 1575POPC   C3B23229   7.783   3.670   7.965
 1575POPC   C4B23230   7.818   3.512   7.519
 1576POPC   NC323231  42.350   3.769   9.535
 1576POPC   PO423232  41.899   3.353   9.484
 1576POPC   GL123233  42.140   3.527   9.117
 1576POPC   GL223234  42.503   3.574   9.096
 1576POPC   C1A23235  42.215   3.588   8.654
 1576POPC   D2A23236  42.406   3.387   8.311
 1576POPC   C3A23237  42.231   3.312   7.879
 1576POPC   C4A23238  42.432   3.467   7.505
 1576POPC   C1B23239  42.719   3.603   8.729
 1576POPC   C2B23240  42.615   3.844   8.346
 1576POPC   C3B23241  42.438   3.771   7.965
 1576POPC   C4B23242  42.381   3.955   7.596
 1577POPC   NC323243   0.746  37.949   9.489
 1577POPC   PO423244   0.089  37.623   9.472
 1577POPC   GL123245   0.261  37.454   9.103
 1577POPC   GL223246   0.569  37.631   9.114
 1577POPC   C1A23247   0.250  37.487   8.688
 1577POPC   D2A23248   0.416  37.767   8.465
 1577POPC   C3A23249   0.461  37.760   8.041
 1577POPC   C4A23250   0.143  37.917   7.810
 1577POPC   C1B23251   0.828  37.855   8.792
 1577POPC   C2B23252   0.946  37.730   8.362
 1577POPC   C3B23253   0.966  37.847   7.921
 1577POPC   C4B23254   0.854  37.558   7.625
 1578POPC   NC323255   3.291  10.469   9.532
 1578POPC   PO423256   2.741  10.801   9.453
 1578POPC   GL123257   2.887  10.792   9.053
 1578POPC   GL223258   3.229  10.750   9.052
 1578POPC   C1A23259   2.679  10.688   8.679
 1578POPC   D2A23260   2.345  10.775   8.419
 1578POPC   C3A23261   2.337  10.456   8.091
 1578POPC   C4A23262   2.479  10.311   7.654
 1578POPC   C1B23263   3.163  10.827   8.590
 1578POPC   C2B23264   2.899  10.736   8.197
 1578POPC   C3B23265   2.975  10.491   7.804
 1578POPC   C4B23266   3.306  10.489   7.451
 1579POPC   NC323267  25.737  33.939   9.479
 1579POPC   PO423268  26.323  34.290   9.526
 1579POPC   GL123269  26.280  34.137   9.046
 1579POPC   GL223270  26.077  33.817   9.077
 1579POPC   C1A23271  26.082  34.044   8.625
 1579POPC   D2A23272  25.916  33.723   8.317
 1579POPC   C3A23273  25.987  33.859   7.894
 1579POPC   C4A23274  26.115  33.736   7.441
 1579POPC   C1B23275  26.108  33.492   8.728
 1579POPC   C2B23276  26.261  33.333   8.285
 1579POPC   C3B23277  26.365  33.535   7.888
 1579POPC   C4B23278  26.463  33.979   7.775
 1580POPC   NC323279   2.827  44.821   9.472
 1580POPC   PO423280   2.262  44.571   9.582
 1580POPC   GL123281   2.457  44.661   9.081
 1580POPC   GL223282   2.805  44.588   9.036
 1580POPC   C1A23283   2.637  44.879   8.682
 1580POPC   D2A23284   2.962  44.752   8.406
 1580POPC   C3A23285   2.919  44.863   7.974
 1580POPC   C4A23286   2.739  44.616   7.679
 1580POPC   C1B23287   3.179  44.427   8.806
 1580POPC   C2B23288   3.176  44.238   8.446
 1580POPC   C3B23289   3.001  44.378   8.067
 1580POPC   C4B23290   3.156  44.349   7.669
 1581POPC   NC323291   2.617  40.631   9.399
 1581POPC   PO423292   3.102  41.130   9.305
 1581POPC   GL123293   2.788  40.945   9.027
 1581POPC   GL223294   2.870  40.563   8.950
 1581POPC   C1A23295   2.760  40.939   8.590
 1581POPC   D2A23296   2.547  40.781   8.247
 1581POPC   C3A23297   2.720  40.776   7.854
 1581POPC   C4A23298   2.818  41.052   7.542
 1581POPC   C1B23299   2.468  40.527   8.711
 1581POPC   C2B23300   2.268  40.373   8.328
 1581POPC   C3B23301   2.295  40.498   7.892
 1581POPC   C4B23302   2.422  40.580   7.446
 1582POPC   NC323303   5.586  22.179   9.471
 1582POPC   PO423304   4.963  21.958   9.414
 1582POPC   GL123305   4.941  22.258   9.129
 1582POPC   GL223306   5.264  22.353   9.076
 1582POPC   C1A23307   4.937  22.190   8.702
 1582POPC   D2A23308   5.015  21.856   8.428
 1582POPC   C3A23309   4.922  22.073   8.062
 1582POPC   C4A23310   4.964  22.148   7.644
 1582POPC   C1B23311   5.444  22.145   8.719
 1582POPC   C2B23312   5.353  22.297   8.304
 1582POPC   C3B23313   5.404  22.162   7.875
 1582POPC   C4B23314   5.445  22.032   7.411
 1583POPC   NC323315  27.328  10.119   9.613
 1583POPC   PO423316  27.628  10.763   9.476
 1583POPC   GL123317  27.408  10.538   9.210
 1583POPC   GL223318  27.550  10.206   9.157
 1583POPC   C1A23319  27.308  10.684   8.812
 1583POPC   D2A23320  27.583  10.828   8.506
 1583POPC   C3A23321  27.478  10.675   8.126
 1583POPC   C4A23322  27.190  10.545   7.800
 1583POPC   C1B23323  27.771  10.442   8.829
 1583POPC   C2B23324  28.064  10.301   8.511
 1583POPC   C3B23325  28.027  10.196   8.090
 1583POPC   C4B23326  27.685  10.303   7.847
 1584POPC   NC323327  38.900  40.920   9.434
 1584POPC   PO423328  39.318  40.369   9.471
 1584POPC   GL123329  39.124  40.568   9.124
 1584POPC   GL223330  39.308  40.914   9.110
 1584POPC   C1A23331  39.187  40.663   8.690
 1584POPC   D2A23332  39.553  40.718   8.400
 1584POPC   C3A23333  39.404  40.629   7.981
 1584POPC   C4A23334  38.944  40.613   7.882
 1584POPC   C1B23335  39.298  41.150   8.695
 1584POPC   C2B23336  39.376  41.215   8.277
 1584POPC   C3B23337  39.360  41.174   7.841
 1584POPC   C4B23338  39.234  40.852   7.543
 1585POPC   NC323339  21.458  34.692   9.346
 1585POPC   PO423340  20.948  35.088   9.562
 1585POPC   GL123341  21.006  34.844   9.168
 1585POPC   GL223342  21.022  34.456   9.128
 1585POPC   C1A23343  21.103  34.794   8.748
 1585POPC   D2A23344  21.166  34.565   8.393
 1585POPC   C3A23345  21.134  34.799   8.035
 1585POPC   C4A23346  21.307  34.665   7.690
 1585POPC   C1B23347  21.099  34.198   8.756
 1585POPC   C2B23348  21.393  34.115   8.399
 1585POPC   C3B23349  21.437  34.242   7.974
 1585POPC   C4B23350  21.145  34.063   7.654
 1586POPC   NC323351   2.734  36.710   9.588
 1586POPC   PO423352   3.338  37.042   9.646
 1586POPC   GL123353   3.117  36.976   9.205
 1586POPC   GL223354   2.756  36.915   9.127
 1586POPC   C1A23355   3.037  36.874   8.723
 1586POPC   D2A23356   2.757  36.743   8.357
 1586POPC   C3A23357   2.888  36.870   7.927
 1586POPC   C4A23358   3.230  36.717   7.719
 1586POPC   C1B23359   2.482  36.899   8.772
 1586POPC   C2B23360   2.417  37.145   8.400
 1586POPC   C3B23361   2.400  36.885   8.027
 1586POPC   C4B23362   2.413  36.996   7.640
 1587POPC   NC323363  20.191  15.149   9.561
 1587POPC   PO423364  20.874  15.228   9.512
 1587POPC   GL123365  20.747  15.122   9.124
 1587POPC   GL223366  20.408  15.219   9.120
 1587POPC   C1A23367  20.832  15.030   8.720
 1587POPC   D2A23368  20.962  15.277   8.354
 1587POPC   C3A23369  20.868  15.054   7.983
 1587POPC   C4A23370  20.769  15.214   7.589
 1587POPC   C1B23371  20.333  15.177   8.722
 1587POPC   C2B23372  20.494  15.084   8.330
 1587POPC   C3B23373  20.369  15.216   7.966
 1587POPC   C4B23374  20.259  15.482   7.677
 1588POPC   NC323375   5.417  44.992   9.876
 1588POPC   PO423376   4.964  44.722   9.543
 1588POPC   GL123377   4.962  44.682   9.089
 1588POPC   GL223378   4.958  44.992   8.882
 1588POPC   C1A23379   4.879  44.508   8.691
 1588POPC   D2A23380   5.038  44.685   8.354
 1588POPC   C3A23381   4.821  44.627   7.995
 1588POPC   C4A23382   5.038  44.668   7.623
 1588POPC   C1B23383   5.382   0.011   8.689
 1588POPC   C2B23384   5.458  44.955   8.269
 1588POPC   C3B23385   5.178   0.033   7.949
 1588POPC   C4B23386   5.425   0.008   7.597
 1589POPC   NC323387   8.614  40.484   9.468
 1589POPC   PO423388   8.779  41.085   9.574
 1589POPC   GL123389   8.896  40.849   9.187
 1589POPC   GL223390   9.269  40.804   9.139
 1589POPC   C1A23391   8.668  40.710   8.817
 1589POPC   D2A23392   8.577  40.498   8.431
 1589POPC   C3A23393   8.561  40.730   8.041
 1589POPC   C4A23394   8.851  40.793   7.757
 1589POPC   C1B23395   9.168  40.679   8.692
 1589POPC   C2B23396   9.064  40.613   8.223
 1589POPC   C3B23397   9.342  40.724   7.889
 1589POPC   C4B23398   9.335  41.067   7.609
 1590POPC   NC323399  42.912   1.580   9.398
 1590POPC   PO423400  43.260   2.225   9.514
 1590POPC   GL123401  43.228   2.106   9.099
 1590POPC   GL223402  42.928   1.905   8.998
 1590POPC   C1A23403  43.321   2.056   8.675
 1590POPC   D2A23404  43.207   1.850   8.296
 1590POPC   C3A23405  43.192   2.080   7.944
 1590POPC   C4A23406  43.258   1.973   7.574
 1590POPC   C1B23407  42.877   1.631   8.623
 1590POPC   C2B23408  42.738   1.589   8.172
 1590POPC   C3B23409  42.836   1.711   7.725
 1590POPC   C4B23410  42.620   1.590   7.299
 1591POPC   NC323411  31.277   4.379   9.501
 1591POPC   PO423412  31.901   4.351   9.327
 1591POPC   GL123413  31.569   4.205   9.030
 1591POPC   GL223414  31.241   4.031   9.130
 1591POPC   C1A23415  31.534   4.439   8.636
 1591POPC   D2A23416  31.795   4.485   8.241
 1591POPC   C3A23417  31.635   4.399   7.822
 1591POPC   C4A23418  31.628   4.596   7.404
 1591POPC   C1B23419  31.160   4.095   8.691
 1591POPC   C2B23420  31.292   4.192   8.264
 1591POPC   C3B23421  31.097   4.399   7.950
 1591POPC   C4B23422  31.142   4.384   7.532
 1592POPC   NC323423  42.065   8.313   9.505
 1592POPC   PO423424  42.749   8.221   9.591
 1592POPC   GL123425  42.516   8.305   9.162
 1592POPC   GL223426  42.200   8.487   9.060
 1592POPC   C1A23427  42.541   8.146   8.708
 1592POPC   D2A23428  42.712   8.139   8.270
 1592POPC   C3A23429  42.491   8.213   7.925
 1592POPC   C4A23430  42.156   7.989   7.813
 1592POPC   C1B23431  42.031   8.689   8.684
 1592POPC   C2B23432  41.808   8.682   8.273
 1592POPC   C3B23433  41.987   8.510   7.866
 1592POPC   C4B23434  42.001   8.422   7.417
 1593POPC   NC323435  12.767  26.971   9.674
 1593POPC   PO423436  13.214  26.480   9.568
 1593POPC   GL123437  13.021  26.764   9.257
 1593POPC   GL223438  12.670  26.661   9.208
 1593POPC   C1A23439  12.937  26.922   8.823
 1593POPC   D2A23440  12.699  26.629   8.507
 1593POPC   C3A23441  12.860  26.669   8.103
 1593POPC   C4A23442  13.032  27.006   7.888
 1593POPC   C1B23443  12.444  26.867   8.878
 1593POPC   C2B23444  12.521  27.118   8.492
 1593POPC   C3B23445  12.533  27.111   8.026
 1593POPC   C4B23446  12.555  26.792   7.691
 1594POPC   NC323447  30.601  11.674   9.443
 1594POPC   PO423448  30.874  11.068   9.580
 1594POPC   GL123449  30.854  11.092   9.137
 1594POPC   GL223450  30.944  11.407   9.151
 1594POPC   C1A23451  30.698  11.295   8.717
 1594POPC   D2A23452  30.407  11.311   8.375
 1594POPC   C3A23453  30.658  11.151   8.078
 1594POPC   C4A23454  30.764  11.171   7.672
 1594POPC   C1B23455  31.160  11.518   8.784
 1594POPC   C2B23456  31.266  11.386   8.376
 1594POPC   C3B23457  31.071  11.452   7.989
 1594POPC   C4B23458  31.089  11.522   7.527
 1595POPC   NC323459  32.464  21.845   9.571
 1595POPC   PO423460  32.421  22.526   9.451
 1595POPC   GL123461  32.201  22.397   9.107
 1595POPC   GL223462  32.228  22.023   9.129
 1595POPC   C1A23463  32.032  22.344   8.680
 1595POPC   D2A23464  32.152  21.962   8.415
 1595POPC   C3A23465  32.081  22.049   7.969
 1595POPC   C4A23466  32.295  22.311   7.665
 1595POPC   C1B23467  32.563  21.746   8.933
 1595POPC   C2B23468  32.646  21.722   8.499
 1595POPC   C3B23469  32.777  21.764   8.062
 1595POPC   C4B23470  32.474  21.835   7.723
 1596POPC   NC323471  43.260   5.116   9.542
 1596POPC   PO423472  42.647   5.358   9.697
 1596POPC   GL123473  42.856   5.309   9.235
 1596POPC   GL223474  43.205   5.468   9.193
 1596POPC   C1A23475  43.090   5.067   8.848
 1596POPC   D2A23476  43.330   4.900   8.424
 1596POPC   C3A23477  43.150   4.968   8.017
 1596POPC   C4A23478  42.890   5.308   7.849
 1596POPC   C1B23479  43.325   5.529   8.787
 1596POPC   C2B23480  43.129   5.390   8.409
 1596POPC   C3B23481  43.325   5.450   8.043
 1596POPC   C4B23482  43.345   5.250   7.626
 1597POPC   NC323483   9.750  14.401   9.682
 1597POPC   PO423484   9.205  14.132   9.404
 1597POPC   GL123485   9.603  14.304   9.176
 1597POPC   GL223486   9.955  14.188   9.229
 1597POPC   C1A23487   9.767  14.331   8.721
 1597POPC   D2A23488   9.867  14.243   8.263
 1597POPC   C3A23489   9.846  14.508   7.862
 1597POPC   C4A23490   9.992  14.471   7.428
 1597POPC   C1B23491   9.988  13.881   8.871
 1597POPC   C2B23492   9.813  13.755   8.459
 1597POPC   C3B23493   9.942  13.788   8.023
 1597POPC   C4B23494   9.772  14.030   7.660
 1598POPC   NC323495  26.488   6.839   9.566
 1598POPC   PO423496  27.105   6.551   9.583
 1598POPC   GL123497  26.908   6.680   9.211
 1598POPC   GL223498  26.597   6.482   9.218
 1598POPC   C1A23499  27.064   6.780   8.784
 1598POPC   D2A23500  26.883   6.945   8.410
 1598POPC   C3A23501  27.065   6.989   8.020
 1598POPC   C4A23502  27.093   6.670   7.725
 1598POPC   C1B23503  26.526   6.720   8.833
 1598POPC   C2B23504  26.586   6.522   8.434
 1598POPC   C3B23505  26.577   6.683   8.023
 1598POPC   C4B23506  26.624   6.481   7.643
 1599POPC   NC323507  31.269  35.031   9.347
 1599POPC   PO423508  31.700  35.475   9.596
 1599POPC   GL123509  31.568  35.438   9.137
 1599POPC   GL223510  31.233  35.457   9.061
 1599POPC   C1A23511  31.635  35.176   8.784
 1599POPC   D2A23512  31.449  35.100   8.378
 1599POPC   C3A23513  31.674  35.240   8.083
 1599POPC   C4A23514  31.634  35.439   7.729
 1599POPC   C1B23515  31.099  35.258   8.702
 1599POPC   C2B23516  30.960  35.256   8.268
 1599POPC   C3B23517  31.160  35.269   7.869
 1599POPC   C4B23518  31.231  35.363   7.430
 1600POPC   NC323519  31.963  23.743   9.390
 1600POPC   PO423520  32.453  24.136   9.160
 1600POPC   GL123521  32.325  23.699   9.000
 1600POPC   GL223522  32.053  23.402   9.035
 1600POPC   C1A23523  32.350  23.652   8.562
 1600POPC   D2A23524  32.650  23.836   8.294
 1600POPC   C3A23525  32.413  24.058   8.029
 1600POPC   C4A23526  32.118  23.809   7.809
 1600POPC   C1B23527  31.848  23.571   8.691
 1600POPC   C2B23528  31.933  23.530   8.248
 1600POPC   C3B23529  31.829  23.356   7.850
 1600POPC   C4B23530  31.820  23.600   7.444
 1601POPC   NC323531  17.552   1.101   9.555
 1601POPC   PO423532  17.042   0.763   9.436
 1601POPC   GL123533  17.336   1.048   9.131
 1601POPC   GL223534  17.725   0.927   9.127
 1601POPC   C1A23535  17.516   1.189   8.740
 1601POPC   D2A23536  17.581   1.421   8.360
 1601POPC   C3A23537  17.431   1.172   8.058
 1601POPC   C4A23538  17.233   1.158   7.688
 1601POPC   C1B23539  17.751   0.719   8.757
 1601POPC   C2B23540  17.752   0.816   8.326
 1601POPC   C3B23541  17.625   0.742   7.876
 1601POPC   C4B23542  17.643   0.930   7.443
 1602POPC   NC323543  27.065  27.511   9.472
 1602POPC   PO423544  27.652  27.738   9.558
 1602POPC   GL123545  27.563  27.508   9.224
 1602POPC   GL223546  27.324  27.715   9.064
 1602POPC   C1A23547  27.793  27.440   8.839
 1602POPC   D2A23548  27.917  27.628   8.440
 1602POPC   C3A23549  27.860  27.460   8.034
 1602POPC   C4A23550  27.653  27.829   7.838
 1602POPC   C1B23551  27.276  27.299   8.860
 1602POPC   C2B23552  27.469  27.272   8.477
 1602POPC   C3B23553  27.384  27.530   8.156
 1602POPC   C4B23554  27.342  27.285   7.793
 1603POPC   NC323555  10.383  13.727   9.665
 1603POPC   PO423556  11.005  13.710   9.518
 1603POPC   GL123557  10.721  13.563   9.131
 1603POPC   GL223558  10.348  13.539   9.187
 1603POPC   C1A23559  10.491  13.754   8.764
 1603POPC   D2A23560  10.293  13.981   8.430
 1603POPC   C3A23561  10.456  13.831   8.023
 1603POPC   C4A23562  10.253  13.795   7.593
 1603POPC   C1B23563  10.157  13.366   8.827
 1603POPC   C2B23564  10.220  13.470   8.395
 1603POPC   C3B23565  10.249  13.372   7.963
 1603POPC   C4B23566  10.572  13.412   7.695
 1604POPC   NC323567   5.745   7.871   9.512
 1604POPC   PO423568   6.158   8.393   9.426
 1604POPC   GL123569   6.041   8.121   9.164
 1604POPC   GL223570   5.753   8.322   9.019
 1604POPC   C1A23571   6.068   8.016   8.776
 1604POPC   D2A23572   5.742   8.039   8.447
 1604POPC   C3A23573   5.800   8.236   8.053
 1604POPC   C4A23574   6.125   8.257   7.774
 1604POPC   C1B23575   5.545   8.519   8.625
 1604POPC   C2B23576   5.457   8.620   8.155
 1604POPC   C3B23577   5.681   8.644   7.757
 1604POPC   C4B23578   5.609   8.357   7.436
 1605POPC   NC323579   0.223  19.244   9.447
 1605POPC   PO423580   0.712  19.086   9.772
 1605POPC   GL123581   0.638  19.044   9.225
 1605POPC   GL223582   0.334  18.930   9.045
 1605POPC   C1A23583   0.694  19.117   8.771
 1605POPC   D2A23584   0.444  18.815   8.503
 1605POPC   C3A23585   0.387  18.938   8.063
 1605POPC   C4A23586   0.090  18.897   7.720
 1605POPC   C1B23587   0.167  19.192   8.734
 1605POPC   C2B23588   0.361  19.366   8.395
 1605POPC   C3B23589   0.222  19.454   7.971
 1605POPC   C4B23590   0.388  19.305   7.579
 1606POPC   NC323591  36.184  31.559   9.368
 1606POPC   PO423592  35.921  30.942   9.234
 1606POPC   GL123593  36.018  31.256   8.991
 1606POPC   GL223594  36.354  31.257   8.976
 1606POPC   C1A23595  36.032  31.537   8.667
 1606POPC   D2A23596  36.062  31.825   8.342
 1606POPC   C3A23597  35.996  31.506   8.078
 1606POPC   C4A23598  35.884  31.372   7.684
 1606POPC   C1B23599  36.571  31.499   8.662
 1606POPC   C2B23600  36.497  31.591   8.241
 1606POPC   C3B23601  36.438  31.485   7.813
 1606POPC   C4B23602  36.346  31.157   7.550
 1607POPC   NC323603   5.161  18.093   9.528
 1607POPC   PO423604   4.788  18.676   9.697
 1607POPC   GL123605   4.879  18.470   9.276
 1607POPC   GL223606   5.160  18.653   9.148
 1607POPC   C1A23607   4.885  18.250   8.813
 1607POPC   D2A23608   4.858  18.379   8.362
 1607POPC   C3A23609   4.994  18.158   7.982
 1607POPC   C4A23610   4.804  18.033   7.576
 1607POPC   C1B23611   5.237  18.598   8.694
 1607POPC   C2B23612   5.397  18.557   8.255
 1607POPC   C3B23613   5.298  18.521   7.808
 1607POPC   C4B23614   5.398  18.565   7.375
 1608POPC   NC323615  20.744  26.103   9.587
 1608POPC   PO423616  20.199  25.773   9.472
 1608POPC   GL123617  20.375  26.158   9.241
 1608POPC   GL223618  20.300  26.488   9.106
 1608POPC   C1A23619  20.723  26.235   8.950
 1608POPC   D2A23620  20.725  26.030   8.561
 1608POPC   C3A23621  20.764  26.249   8.194
 1608POPC   C4A23622  20.879  26.162   7.770
 1608POPC   C1B23623  20.263  26.292   8.714
 1608POPC   C2B23624  20.121  26.460   8.321
 1608POPC   C3B23625  20.321  26.396   7.924
 1608POPC   C4B23626  20.400  25.989   7.764
 1609POPC   NC323627  11.379   5.964   9.492
 1609POPC   PO423628  11.207   6.626   9.742
 1609POPC   GL123629  11.378   6.422   9.279
 1609POPC   GL223630  11.166   6.252   9.127
 1609POPC   C1A23631  11.509   6.074   8.849
 1609POPC   D2A23632  11.597   5.909   8.438
 1609POPC   C3A23633  11.368   5.909   8.049
 1609POPC   C4A23634  11.361   5.837   7.647
 1609POPC   C1B23635  11.074   6.363   8.744
 1609POPC   C2B23636  11.237   6.284   8.382
 1609POPC   C3B23637  11.087   6.328   7.985
 1609POPC   C4B23638  10.893   6.050   7.717
 1610POPC   NC323639  16.723  18.151   9.567
 1610POPC   PO423640  17.393  18.269   9.475
 1610POPC   GL123641  17.612  18.307   9.070
 1610POPC   GL223642  17.950  18.275   8.962
 1610POPC   C1A23643  17.563  18.224   8.638
 1610POPC   D2A23644  17.609  18.541   8.387
 1610POPC   C3A23645  17.685  18.433   8.044
 1610POPC   C4A23646  17.419  18.471   7.749
 1610POPC   C1B23647  17.932  17.874   8.713
 1610POPC   C2B23648  17.761  17.794   8.330
 1610POPC   C3B23649  17.943  17.930   7.956
 1610POPC   C4B23650  17.817  18.172   7.640
 1611POPC   NC323651  31.729  32.875   9.381
 1611POPC   PO423652  31.015  32.687   9.415
 1611POPC   GL123653  31.304  32.787   9.099
 1611POPC   GL223654  31.386  33.128   9.062
 1611POPC   C1A23655  31.584  32.796   8.729
 1611POPC   D2A23656  31.498  33.062   8.392
 1611POPC   C3A23657  31.352  32.900   7.993
 1611POPC   C4A23658  31.591  32.838   7.595
 1611POPC   C1B23659  31.233  33.389   8.745
 1611POPC   C2B23660  31.380  33.544   8.359
 1611POPC   C3B23661  31.272  33.402   7.997
 1611POPC   C4B23662  31.219  33.202   7.600
 1612POPC   NC323663  13.141  40.955   9.437
 1612POPC   PO423664  13.843  40.884   9.455
 1612POPC   GL123665  13.553  40.914   9.105
 1612POPC   GL223666  13.389  40.638   8.970
 1612POPC   C1A23667  13.642  40.945   8.647
 1612POPC   D2A23668  13.792  40.541   8.500
 1612POPC   C3A23669  13.768  40.493   8.062
 1612POPC   C4A23670  13.785  40.853   7.775
 1612POPC   C1B23671  13.164  41.063   8.810
 1612POPC   C2B23672  13.104  41.109   8.369
 1612POPC   C3B23673  13.351  40.897   8.051
 1612POPC   C4B23674  13.371  40.565   7.734
 1613POPC   NC323675   1.344  26.627   9.428
 1613POPC   PO423676   1.314  27.299   9.492
 1613POPC   GL123677   1.071  27.237   9.108
 1613POPC   GL223678   1.035  26.836   9.033
 1613POPC   C1A23679   0.900  27.186   8.683
 1613POPC   D2A23680   1.006  26.841   8.425
 1613POPC   C3A23681   0.987  26.870   8.007
 1613POPC   C4A23682   1.364  26.831   7.808
 1613POPC   C1B23683   0.958  26.455   8.737
 1613POPC   C2B23684   1.068  26.304   8.289
 1613POPC   C3B23685   1.094  26.375   7.816
 1613POPC   C4B23686   1.040  26.598   7.406
 1614POPC   NC323687  29.555   7.817   9.628
 1614POPC   PO423688  29.634   7.174   9.376
 1614POPC   GL123689  29.888   7.523   9.157
 1614POPC   GL223690  30.227   7.482   9.022
 1614POPC   C1A23691  29.901   7.632   8.687
 1614POPC   D2A23692  30.061   7.412   8.358
 1614POPC   C3A23693  29.784   7.430   8.040
 1614POPC   C4A23694  29.856   7.497   7.625
 1614POPC   C1B23695  30.416   7.165   8.720
 1614POPC   C2B23696  30.386   7.032   8.264
 1614POPC   C3B23697  30.251   7.269   7.856
 1614POPC   C4B23698  30.275   7.407   7.345
 1615POPC   NC323699  28.304   9.903   9.625
 1615POPC   PO423700  28.801   9.580   9.500
 1615POPC   GL123701  28.584   9.827   9.189
 1615POPC   GL223702  28.283   9.621   9.191
 1615POPC   C1A23703  28.373   9.983   8.806
 1615POPC   D2A23704  28.158   9.784   8.450
 1615POPC   C3A23705  28.311   9.756   8.049
 1615POPC   C4A23706  28.398  10.007   7.689
 1615POPC   C1B23707  28.496   9.463   8.846
 1615POPC   C2B23708  28.449   9.326   8.459
 1615POPC   C3B23709  28.690   9.414   8.122
 1615POPC   C4B23710  28.773   9.681   7.787
 1616POPC   NC323711  17.907  43.528   9.419
 1616POPC   PO423712  17.870  44.276   9.188
 1616POPC   GL123713  18.169  43.913   9.127
 1616POPC   GL223714  18.571  43.992   9.107
 1616POPC   C1A23715  18.318  43.640   8.809
 1616POPC   D2A23716  18.542  43.817   8.487
 1616POPC   C3A23717  18.355  43.835   8.106
 1616POPC   C4A23718  18.533  43.770   7.730
 1616POPC   C1B23719  18.461  44.263   8.755
 1616POPC   C2B23720  18.124  44.257   8.462
 1616POPC   C3B23721  18.342  44.351   8.126
 1616POPC   C4B23722  18.431  44.278   7.729
 1617POPC   NC323723  24.995  14.513   9.442
 1617POPC   PO423724  25.579  14.240   9.587
 1617POPC   GL123725  25.315  14.201   9.156
 1617POPC   GL223726  25.099  14.487   8.956
 1617POPC   C1A23727  25.445  14.241   8.706
 1617POPC   D2A23728  25.258  14.416   8.338
 1617POPC   C3A23729  25.359  14.306   7.927
 1617POPC   C4A23730  25.364  14.473   7.505
 1617POPC   C1B23731  24.965  14.122   8.662
 1617POPC   C2B23732  25.078  13.944   8.297
 1617POPC   C3B23733  24.881  14.136   7.972
 1617POPC   C4B23734  25.017  14.101   7.583
 1618POPC   NC323735   6.812  16.556   9.406
 1618POPC   PO423736   6.280  16.457   9.407
 1618POPC   GL123737   6.440  16.674   9.032
 1618POPC   GL223738   6.725  16.917   9.030
 1618POPC   C1A23739   6.574  16.569   8.606
 1618POPC   D2A23740   6.560  16.296   8.234
 1618POPC   C3A23741   6.549  16.479   7.844
 1618POPC   C4A23742   6.799  16.484   7.447
 1618POPC   C1B23743   6.773  17.034   8.571
 1618POPC   C2B23744   6.736  16.851   8.145
 1618POPC   C3B23745   6.706  16.928   7.688
 1618POPC   C4B23746   6.951  17.194   7.408
 1619POPC   NC323747  40.481  33.023   9.657
 1619POPC   PO423748  39.825  33.247   9.683
 1619POPC   GL123749  39.913  33.036   9.284
 1619POPC   GL223750  40.258  32.920   9.215
 1619POPC   C1A23751  39.893  33.079   8.839
 1619POPC   D2A23752  40.043  33.192   8.442
 1619POPC   C3A23753  39.764  33.133   8.094
 1619POPC   C4A23754  39.931  33.117   7.704
 1619POPC   C1B23755  40.336  32.829   8.812
 1619POPC   C2B23756  40.201  32.671   8.442
 1619POPC   C3B23757  40.203  32.852   8.064
 1619POPC   C4B23758  40.212  32.699   7.660
 1620POPC   NC323759   5.899   5.441   9.490
 1620POPC   PO423760   6.375   5.853   9.454
 1620POPC   GL123761   6.098   5.715   9.114
 1620POPC   GL223762   5.745   5.816   9.151
 1620POPC   C1A23763   6.035   5.882   8.719
 1620POPC   D2A23764   6.094   6.241   8.477
 1620POPC   C3A23765   6.027   6.117   8.025
 1620POPC   C4A23766   5.991   5.738   7.754
 1620POPC   C1B23767   5.540   5.853   8.723
 1620POPC   C2B23768   5.723   5.788   8.283
 1620POPC   C3B23769   5.552   5.975   7.875
 1620POPC   C4B23770   5.396   5.994   7.435
 1621POPC   NC323771  36.416  42.973   9.540
 1621POPC   PO423772  35.732  42.660   9.576
 1621POPC   GL123773  35.900  43.061   9.290
 1621POPC   GL223774  36.215  43.191   9.134
 1621POPC   C1A23775  35.811  43.273   8.850
 1621POPC   D2A23776  36.007  43.220   8.452
 1621POPC   C3A23777  35.778  43.245   8.065
 1621POPC   C4A23778  35.898  43.054   7.695
 1621POPC   C1B23779  36.433  43.165   8.739
 1621POPC   C2B23780  36.486  43.412   8.319
 1621POPC   C3B23781  36.558  43.370   7.842
 1621POPC   C4B23782  36.607  43.318   7.372
 1622POPC   NC323783  22.275  23.865   9.625
 1622POPC   PO423784  22.023  23.336   9.291
 1622POPC   GL123785  22.261  23.520   9.016
 1622POPC   GL223786  22.107  23.848   9.105
 1622POPC   C1A23787  22.226  23.350   8.630
 1622POPC   D2A23788  21.945  23.312   8.269
 1622POPC   C3A23789  22.174  23.311   7.873
 1622POPC   C4A23790  22.217  23.522   7.459
 1622POPC   C1B23791  22.038  23.813   8.647
 1622POPC   C2B23792  22.216  23.741   8.222
 1622POPC   C3B23793  22.113  23.888   7.813
 1622POPC   C4B23794  22.232  24.057   7.409
 1623POPC   NC323795  29.601   4.049   9.346
 1623POPC   PO423796  29.861   4.594   9.633
 1623POPC   GL123797  29.836   4.512   9.152
 1623POPC   GL223798  29.717   4.229   8.900
 1623POPC   C1A23799  29.994   4.601   8.733
 1623POPC   D2A23800  29.895   4.766   8.369
 1623POPC   C3A23801  29.942   4.455   8.076
 1623POPC   C4A23802  29.845   4.623   7.702
 1623POPC   C1B23803  29.905   4.012   8.566
 1623POPC   C2B23804  29.591   3.824   8.348
 1623POPC   C3B23805  29.362   4.017   8.065
 1623POPC   C4B23806  29.702   4.122   7.782
 1624POPC   NC323807   9.903  23.986   9.396
 1624POPC   PO423808   9.505  23.501   9.508
 1624POPC   GL123809   9.657  23.637   9.131
 1624POPC   GL223810  10.038  23.572   9.114
 1624POPC   C1A23811   9.473  23.912   8.815
 1624POPC   D2A23812   9.358  23.806   8.397
 1624POPC   C3A23813   9.724  23.813   8.167
 1624POPC   C4A23814   9.679  23.728   7.761
 1624POPC   C1B23815   9.876  23.234   8.869
 1624POPC   C2B23816   9.847  23.140   8.461
 1624POPC   C3B23817   9.818  23.320   8.079
 1624POPC   C4B23818   9.816  23.258   7.654
 1625POPC   NC323819  13.692  15.487   9.431
 1625POPC   PO423820  13.400  14.836   9.561
 1625POPC   GL123821  13.409  15.097   9.213
 1625POPC   GL223822  13.674  14.896   9.126
 1625POPC   C1A23823  13.494  15.298   8.812
 1625POPC   D2A23824  13.712  15.402   8.428
 1625POPC   C3A23825  13.679  15.139   8.030
 1625POPC   C4A23826  13.540  15.377   7.702
 1625POPC   C1B23827  13.498  14.764   8.778
 1625POPC   C2B23828  13.422  14.966   8.417
 1625POPC   C3B23829  13.173  14.883   8.074
 1625POPC   C4B23830  13.283  14.883   7.666
 1626POPC   NC323831  36.490  14.329   9.567
 1626POPC   PO423832  35.903  14.180   9.617
 1626POPC   GL123833  36.032  14.135   9.160
 1626POPC   GL223834  36.409  14.042   9.141
 1626POPC   C1A23835  36.046  14.434   8.782
 1626POPC   D2A23836  36.303  14.627   8.446
 1626POPC   C3A23837  36.091  14.575   8.051
 1626POPC   C4A23838  36.117  14.803   7.688
 1626POPC   C1B23839  36.296  13.998   8.714
 1626POPC   C2B23840  36.252  14.131   8.273
 1626POPC   C3B23841  36.381  14.187   7.829
 1626POPC   C4B23842  36.489  14.054   7.367
 1627POPC   NC323843  11.390  28.821   9.900
 1627POPC   PO423844  11.705  29.200   9.585
 1627POPC   GL123845  11.748  29.250   9.125
 1627POPC   GL223846  11.910  28.954   9.140
 1627POPC   C1A23847  11.515  29.241   8.688
 1627POPC   D2A23848  11.455  28.970   8.289
 1627POPC   C3A23849  11.297  29.129   7.870
 1627POPC   C4A23850  10.950  29.232   7.532
 1627POPC   C1B23851  11.828  28.849   8.723
 1627POPC   C2B23852  11.960  28.866   8.324
 1627POPC   C3B23853  11.806  28.939   7.899
 1627POPC   C4B23854  11.622  28.914   7.494
 1628POPC   NC323855   8.491   2.012   9.420
 1628POPC   PO423856   7.976   1.529   9.451
 1628POPC   GL123857   8.126   1.883   9.103
 1628POPC   GL223858   8.317   2.217   8.990
 1628POPC   C1A23859   8.415   1.797   8.744
 1628POPC   D2A23860   8.387   1.720   8.310
 1628POPC   C3A23861   8.183   1.959   7.979
 1628POPC   C4A23862   8.189   1.795   7.577
 1628POPC   C1B23863   8.205   2.268   8.586
 1628POPC   C2B23864   8.390   2.373   8.212
 1628POPC   C3B23865   8.366   2.510   7.793
 1628POPC   C4B23866   8.480   2.190   7.580
 1629POPC   NC323867  33.659  42.498   9.484
 1629POPC   PO423868  33.762  41.858   9.591
 1629POPC   GL123869  33.820  42.016   9.164
 1629POPC   GL223870  33.768  42.382   9.013
 1629POPC   C1A23871  33.719  42.001   8.714
 1629POPC   D2A23872  33.573  42.363   8.500
 1629POPC   C3A23873  33.750  42.434   8.073
 1629POPC   C4A23874  33.816  42.454   7.639
 1629POPC   C1B23875  34.099  42.574   8.732
 1629POPC   C2B23876  34.256  42.618   8.277
 1629POPC   C3B23877  34.247  42.715   7.820
 1629POPC   C4B23878  34.181  42.676   7.376
 1630POPC   NC323879  19.767  43.494   9.519
 1630POPC   PO423880  19.842  44.162   9.521
 1630POPC   GL123881  19.625  43.895   9.226
 1630POPC   GL223882  19.913  43.688   9.066
 1630POPC   C1A23883  19.475  43.823   8.831
 1630POPC   D2A23884  19.744  43.708   8.495
 1630POPC   C3A23885  19.600  43.735   8.086
 1630POPC   C4A23886  19.805  43.770   7.711
 1630POPC   C1B23887  19.931  44.060   8.814
 1630POPC   C2B23888  20.070  44.126   8.430
 1630POPC   C3B23889  19.922  44.145   8.037
 1630POPC   C4B23890  20.184  44.312   7.773
 1631POPC   NC323891   1.423  32.903   9.380
 1631POPC   PO423892   0.925  33.297   9.560
 1631POPC   GL123893   1.084  33.255   9.162
 1631POPC   GL223894   0.987  32.895   9.099
 1631POPC   C1A23895   1.310  33.131   8.772
 1631POPC   D2A23896   1.519  32.985   8.409
 1631POPC   C3A23897   1.328  33.150   8.056
 1631POPC   C4A23898   1.077  33.291   7.726
 1631POPC   C1B23899   1.005  32.712   8.677
 1631POPC   C2B23900   1.216  32.597   8.279
 1631POPC   C3B23901   1.505  32.702   7.946
 1631POPC   C4B23902   1.107  32.768   7.753
 1632POPC   NC323903  19.667  14.011   9.428
 1632POPC   PO423904  20.040  14.679   9.571
 1632POPC   GL123905  19.837  14.583   9.202
 1632POPC   GL223906  20.018  14.301   9.156
 1632POPC   C1A23907  19.591  14.475   8.849
 1632POPC   D2A23908  19.772  14.483   8.454
 1632POPC   C3A23909  19.634  14.264   8.071
 1632POPC   C4A23910  19.569  14.380   7.672
 1632POPC   C1B23911  20.222  14.259   8.772
 1632POPC   C2B23912  20.138  14.203   8.319
 1632POPC   C3B23913  20.099  14.244   7.876
 1632POPC   C4B23914  20.231  13.892   7.628
 1633POPC   NC323915  34.190  12.431   9.756
 1633POPC   PO423916  33.583  12.222   9.401
 1633POPC   GL123917  33.666  12.136   9.019
 1633POPC   GL223918  33.952  11.914   9.030
 1633POPC   C1A23919  33.580  11.824   8.704
 1633POPC   D2A23920  33.786  11.650   8.359
 1633POPC   C3A23921  33.603  11.747   7.967
 1633POPC   C4A23922  33.810  11.856   7.554
 1633POPC   C1B23923  34.015  12.132   8.649
 1633POPC   C2B23924  33.791  12.161   8.298
 1633POPC   C3B23925  34.037  12.011   7.975
 1633POPC   C4B23926  34.373  12.178   7.780
 1634POPC   NC323927  19.630  13.006   9.455
 1634POPC   PO423928  20.057  12.576   9.662
 1634POPC   GL123929  19.840  12.635   9.184
 1634POPC   GL223930  19.883  12.994   8.984
 1634POPC   C1A23931  19.523  12.703   8.817
 1634POPC   D2A23932  19.659  12.941   8.469
 1634POPC   C3A23933  19.653  12.761   8.056
 1634POPC   C4A23934  19.744  12.902   7.645
 1634POPC   C1B23935  20.139  13.142   8.598
 1634POPC   C2B23936  20.115  13.011   8.148
 1634POPC   C3B23937  20.267  12.902   7.727
 1634POPC   C4B23938  20.191  13.087   7.334
 1635POPC   NC323939  21.537   0.971   9.737
 1635POPC   PO423940  21.054   1.413   9.580
 1635POPC   GL123941  21.302   1.254   9.202
 1635POPC   GL223942  21.338   0.895   9.255
 1635POPC   C1A23943  21.339   1.131   8.749
 1635POPC   D2A23944  21.081   0.929   8.409
 1635POPC   C3A23945  21.159   1.034   7.960
 1635POPC   C4A23946  21.524   1.217   7.721
 1635POPC   C1B23947  21.692   0.814   8.987
 1635POPC   C2B23948  21.746   0.867   8.543
 1635POPC   C3B23949  21.704   1.007   8.140
 1635POPC   C4B23950  21.940   0.923   7.765
 1636POPC   NC323951   5.909  30.905   9.448
 1636POPC   PO423952   5.366  31.268   9.390
 1636POPC   GL123953   5.504  30.967   9.077
 1636POPC   GL223954   5.840  30.977   8.938
 1636POPC   C1A23955   5.461  30.735   8.659
 1636POPC   D2A23956   5.609  30.599   8.245
 1636POPC   C3A23957   5.837  30.879   7.950
 1636POPC   C4A23958   5.857  30.715   7.514
 1636POPC   C1B23959   5.934  30.915   8.492
 1636POPC   C2B23960   6.131  30.570   8.222
 1636POPC   C3B23961   6.263  30.562   7.783
 1636POPC   C4B23962   6.380  30.777   7.375
 1637POPC   NC323963  22.510  22.712   9.663
 1637POPC   PO423964  22.174  23.276   9.790
 1637POPC   GL123965  22.219  22.902   9.298
 1637POPC   GL223966  22.518  22.871   9.177
 1637POPC   C1A23967  22.043  22.827   8.865
 1637POPC   D2A23968  22.192  22.896   8.409
 1637POPC   C3A23969  21.987  22.812   8.004
 1637POPC   C4A23970  21.833  23.020   7.610
 1637POPC   C1B23971  22.531  22.931   8.786
 1637POPC   C2B23972  22.657  22.720   8.386
 1637POPC   C3B23973  22.502  22.890   7.994
 1637POPC   C4B23974  22.681  22.753   7.652
 1638POPC   NC323975   5.123  16.350   9.588
 1638POPC   PO423976   4.714  16.800   9.698
 1638POPC   GL123977   4.882  16.717   9.276
 1638POPC   GL223978   5.057  16.437   9.096
 1638POPC   C1A23979   5.057  16.934   8.930
 1638POPC   D2A23980   5.002  17.010   8.514
 1638POPC   C3A23981   4.802  16.797   8.231
 1638POPC   C4A23982   5.067  16.756   7.874
 1638POPC   C1B23983   4.984  16.507   8.652
 1638POPC   C2B23984   5.196  16.454   8.266
 1638POPC   C3B23985   5.273  16.282   7.851
 1638POPC   C4B23986   5.419  16.347   7.445
 1639POPC   NC323987  23.977  30.012   9.460
 1639POPC   PO423988  23.533  30.490   9.241
 1639POPC   GL123989  23.463  30.078   8.996
 1639POPC   GL223990  23.409  29.712   9.114
 1639POPC   C1A23991  23.489  29.942   8.541
 1639POPC   D2A23992  23.856  29.845   8.276
 1639POPC   C3A23993  23.791  30.014   7.887
 1639POPC   C4A23994  23.473  30.226   7.687
 1639POPC   C1B23995  23.621  29.491   8.748
 1639POPC   C2B23996  23.535  29.382   8.327
 1639POPC   C3B23997  23.615  29.524   7.921
 1639POPC   C4B23998  23.529  29.710   7.537
 1640POPC   NC323999  32.229   8.632   9.259
 1640POPC   PO424000  31.980   8.000   9.472
 1640POPC   GL124001  32.201   8.112   9.127
 1640POPC   GL224002  32.560   8.098   9.174
 1640POPC   C1A24003  32.014   8.085   8.724
 1640POPC   D2A24004  31.923   8.212   8.328
 1640POPC   C3A24005  32.100   7.981   7.996
 1640POPC   C4A24006  32.005   8.124   7.618
 1640POPC   C1B24007  32.498   8.285   8.746
 1640POPC   C2B24008  32.323   8.547   8.421
 1640POPC   C3B24009  32.249   8.457   7.975
 1640POPC   C4B24010  32.500   8.196   7.673
 1641POPC   NC324011  43.138  19.518   9.662
 1641POPC   PO424012  43.118  18.862   9.454
 1641POPC   GL124013  43.109  18.945   9.061
 1641POPC   GL224014  42.784  19.058   9.019
 1641POPC   C1A24015  43.361  18.936   8.711
 1641POPC   D2A24016  43.341  19.155   8.374
 1641POPC   C3A24017  43.368  18.953   8.023
 1641POPC   C4A24018  43.125  18.934   7.685
 1641POPC   C1B24019  42.848  19.340   8.695
 1641POPC   C2B24020  42.758  19.231   8.271
 1641POPC   C3B24021  42.679  19.358   7.834
 1641POPC   C4B24022  42.894  19.301   7.430
 1642POPC   NC324023  40.019  14.262   9.665
 1642POPC   PO424024  39.623  14.714   9.682
 1642POPC   GL124025  39.908  14.642   9.257
 1642POPC   GL224026  39.933  14.282   9.168
 1642POPC   C1A24027  39.766  14.561   8.782
 1642POPC   D2A24028  39.701  14.363   8.371
 1642POPC   C3A24029  39.936  14.423   7.985
 1642POPC   C4A24030  39.902  14.357   7.530
 1642POPC   C1B24031  40.020  14.092   8.773
 1642POPC   C2B24032  40.178  14.129   8.378
 1642POPC   C3B24033  40.225  13.950   7.989
 1642POPC   C4B24034  40.030  13.883   7.595
 1643POPC   NC324035  34.037  43.360   9.462
 1643POPC   PO424036  34.082  42.734   9.484
 1643POPC   GL124037  33.770  42.893   9.186
 1643POPC   GL224038  33.650  43.230   9.185
 1643POPC   C1A24039  33.592  42.810   8.792
 1643POPC   D2A24040  33.775  42.831   8.393
 1643POPC   C3A24041  34.025  43.079   8.106
 1643POPC   C4A24042  33.802  42.961   7.730
 1643POPC   C1B24043  33.906  43.226   8.816
 1643POPC   C2B24044  33.759  43.353   8.437
 1643POPC   C3B24045  33.794  43.655   8.125
 1643POPC   C4B24046  33.915  43.443   7.739
 1644POPC   NC324047  25.185  27.294   9.427
 1644POPC   PO424048  25.390  26.691   9.535
 1644POPC   GL124049  25.306  26.816   9.128
 1644POPC   GL224050  25.468  27.116   9.041
 1644POPC   C1A24051  25.488  26.703   8.728
 1644POPC   D2A24052  25.340  26.539   8.327
 1644POPC   C3A24053  25.363  26.814   7.980
 1644POPC   C4A24054  25.383  26.583   7.626
 1644POPC   C1B24055  25.217  27.171   8.671
 1644POPC   C2B24056  25.006  27.155   8.257
 1644POPC   C3B24057  25.107  27.246   7.838
 1644POPC   C4B24058  25.500  27.412   7.704
 1645POPC   NC324059  40.388  10.085   9.373
 1645POPC   PO424060  39.925  10.522   9.750
 1645POPC   GL124061  40.041  10.491   9.317
 1645POPC   GL224062  39.713  10.533   9.168
 1645POPC   C1A24063  40.102  10.553   8.872
 1645POPC   D2A24064  40.046  10.356   8.466
 1645POPC   C3A24065  40.113  10.604   8.085
 1645POPC   C4A24066  39.815  10.731   7.785
 1645POPC   C1B24067  39.607  10.507   8.763
 1645POPC   C2B24068  39.545  10.468   8.340
 1645POPC   C3B24069  39.734  10.243   8.012
 1645POPC   C4B24070  39.555  10.321   7.633
 1646POPC   NC324071  33.145   2.258   9.382
 1646POPC   PO424072  32.896   1.659   9.486
 1646POPC   GL124073  32.993   1.813   9.104
 1646POPC   GL224074  33.301   1.665   8.958
 1646POPC   C1A24075  32.894   1.814   8.679
 1646POPC   D2A24076  33.231   1.694   8.385
 1646POPC   C3A24077  33.247   1.828   7.974
 1646POPC   C4A24078  32.970   1.860   7.649
 1646POPC   C1B24079  33.295   2.096   8.730
 1646POPC   C2B24080  32.959   2.370   8.553
 1646POPC   C3B24081  32.828   2.456   8.126
 1646POPC   C4B24082  33.119   2.316   7.835
 1647POPC   NC324083   4.814  19.960   9.647
 1647POPC   PO424084   5.351  19.494   9.785
 1647POPC   GL124085   5.248  19.661   9.349
 1647POPC   GL224086   5.111  19.965   9.252
 1647POPC   C1A24087   5.242  19.658   8.862
 1647POPC   D2A24088   5.109  19.826   8.435
 1647POPC   C3A24089   5.167  19.681   7.991
 1647POPC   C4A24090   5.311  19.852   7.580
 1647POPC   C1B24091   5.141  20.167   8.854
 1647POPC   C2B24092   4.903  20.282   8.479
 1647POPC   C3B24093   5.003  20.200   8.051
 1647POPC   C4B24094   4.872  20.088   7.676
 1648POPC   NC324095  34.905   1.954   9.343
 1648POPC   PO424096  34.303   1.819   9.490
 1648POPC   GL124097  34.454   1.902   9.089
 1648POPC   GL224098  34.233   2.126   9.030
 1648POPC   C1A24099  34.509   1.823   8.645
 1648POPC   D2A24100  34.573   1.649   8.230
 1648POPC   C3A24101  34.575   2.011   7.951
 1648POPC   C4A24102  34.934   2.248   7.973
 1648POPC   C1B24103  34.067   2.099   8.633
 1648POPC   C2B24104  34.129   2.183   8.208
 1648POPC   C3B24105  34.127   2.234   7.762
 1648POPC   C4B24106  34.246   2.407   7.349
 1649POPC   NC324107  44.300  12.556   9.220
 1649POPC   PO424108  43.825  12.065   9.559
 1649POPC   GL124109  43.830  12.343   9.181
 1649POPC   GL224110  44.064  12.088   9.106
 1649POPC   C1A24111  43.942  12.361   8.696
 1649POPC   D2A24112  43.793  12.072   8.358
 1649POPC   C3A24113  43.564  12.192   7.980
 1649POPC   C4A24114  43.848  12.366   7.718
 1649POPC   C1B24115  43.682  11.952   8.886
 1649POPC   C2B24116  43.557  11.664   8.569
 1649POPC   C3B24117  43.520  11.704   8.118
 1649POPC   C4B24118  43.841  11.823   7.794
 1650POPC   NC324119  39.897  37.348   9.568
 1650POPC   PO424120  39.955  37.970   9.364
 1650POPC   GL124121  40.145  37.773   9.048
 1650POPC   GL224122  39.957  37.525   9.113
 1650POPC   C1A24123  40.021  37.612   8.637
 1650POPC   D2A24124  39.821  37.826   8.354
 1650POPC   C3A24125  39.951  37.777   7.951
 1650POPC   C4A24126  40.327  37.648   7.782
 1650POPC   C1B24127  39.707  37.260   8.912
 1650POPC   C2B24128  39.608  37.311   8.527
 1650POPC   C3B24129  39.743  37.339   8.151
 1650POPC   C4B24130  39.457  37.327   7.816
 1651POPC   NC324131  30.903   2.439   9.338
 1651POPC   PO424132  31.056   3.070   9.450
 1651POPC   GL124133  30.742   2.895   9.164
 1651POPC   GL224134  30.400   2.715   9.177
 1651POPC   C1A24135  30.576   3.037   8.798
 1651POPC   D2A24136  30.699   3.236   8.453
 1651POPC   C3A24137  30.691   2.979   8.088
 1651POPC   C4A24138  30.810   2.952   7.670
 1651POPC   C1B24139  30.565   2.522   8.776
 1651POPC   C2B24140  30.504   2.541   8.312
 1651POPC   C3B24141  30.626   2.498   7.853
 1651POPC   C4B24142  30.558   2.584   7.379
 1652POPC   NC324143  15.675  13.302   9.828
 1652POPC   PO424144  16.155  13.426   9.487
 1652POPC   GL124145  16.097  13.684   9.110
 1652POPC   GL224146  15.812  13.926   9.100
 1652POPC   C1A24147  15.919  13.673   8.690
 1652POPC   D2A24148  15.744  13.478   8.352
 1652POPC   C3A24149  16.006  13.531   8.044
 1652POPC   C4A24150  16.075  13.358   7.690
 1652POPC   C1B24151  15.668  14.127   8.723
 1652POPC   C2B24152  15.535  13.959   8.366
 1652POPC   C3B24153  15.590  13.841   7.984
 1652POPC   C4B24154  15.865  13.843   7.665
 1653POPC   NC324155   7.601  26.550   9.492
 1653POPC   PO424156   7.370  27.076   9.508
 1653POPC   GL124157   7.461  26.877   9.103
 1653POPC   GL224158   7.801  26.695   9.043
 1653POPC   C1A24159   7.443  26.743   8.646
 1653POPC   D2A24160   7.219  26.625   8.250
 1653POPC   C3A24161   7.417  26.756   7.887
 1653POPC   C4A24162   7.513  27.204   7.885
 1653POPC   C1B24163   7.966  26.765   8.608
 1653POPC   C2B24164   7.831  26.880   8.196
 1653POPC   C3B24165   7.923  26.910   7.756
 1653POPC   C4B24166   7.702  26.703   7.412
 1654POPC   NC324167  32.888  20.736   9.517
 1654POPC   PO424168  32.142  20.661   9.650
 1654POPC   GL124169  32.057  20.621   9.211
 1654POPC   GL224170  31.983  20.964   9.085
 1654POPC   C1A24171  32.207  20.367   8.833
 1654POPC   D2A24172  32.582  20.379   8.588
 1654POPC   C3A24173  32.458  20.302   8.192
 1654POPC   C4A24174  32.370  20.418   7.782
 1654POPC   C1B24175  31.856  20.702   8.738
 1654POPC   C2B24176  31.886  20.424   8.363
 1654POPC   C3B24177  31.886  20.562   7.913
 1654POPC   C4B24178  31.882  20.674   7.454
 1655POPC   NC324179  24.830  44.157   9.358
 1655POPC   PO424180  24.176  43.813   9.491
 1655POPC   GL124181  24.373  43.753   9.101
 1655POPC   GL224182  24.587  43.988   8.968
 1655POPC   C1A24183  24.292  43.680   8.665
 1655POPC   D2A24184  24.298  43.329   8.367
 1655POPC   C3A24185  24.324  43.431   7.932
 1655POPC   C4A24186  23.946  43.488   7.706
 1655POPC   C1B24187  24.865  43.767   8.743
 1655POPC   C2B24188  24.677  43.869   8.376
 1655POPC   C3B24189  24.730  43.791   7.977
 1655POPC   C4B24190  24.699  43.992   7.610
 1656POPC   NC324191  40.871  24.678   9.494
 1656POPC   PO424192  40.947  24.087   9.748
 1656POPC   GL124193  40.784  24.271   9.224
 1656POPC   GL224194  40.640  24.623   9.045
 1656POPC   C1A24195  40.772  24.194   8.781
 1656POPC   D2A24196  40.687  24.427   8.390
 1656POPC   C3A24197  40.764  24.282   7.983
 1656POPC   C4A24198  40.805  24.628   7.642
 1656POPC   C1B24199  41.066  24.607   8.873
 1656POPC   C2B24200  41.176  24.388   8.512
 1656POPC   C3B24201  41.196  24.540   8.115
 1656POPC   C4B24202  41.292  24.766   7.762
 1657POPC   NC324203  14.859  13.494   9.378
 1657POPC   PO424204  15.435  13.679   9.709
 1657POPC   GL124205  15.398  13.683   9.276
 1657POPC   GL224206  15.643  13.435   9.243
 1657POPC   C1A24207  15.386  13.709   8.813
 1657POPC   D2A24208  15.045  13.655   8.505
 1657POPC   C3A24209  15.064  13.860   8.100
 1657POPC   C4A24210  15.214  13.704   7.687
 1657POPC   C1B24211  15.637  13.259   8.820
 1657POPC   C2B24212  15.330  13.221   8.503
 1657POPC   C3B24213  15.283  13.395   8.105
 1657POPC   C4B24214  15.582  13.357   7.778
 1658POPC   NC324215  39.567  16.532   9.300
 1658POPC   PO424216  38.987  16.883   9.476
 1658POPC   GL124217  39.148  16.757   9.095
 1658POPC   GL224218  39.376  17.022   9.054
 1658POPC   C1A24219  39.038  16.684   8.663
 1658POPC   D2A24220  38.977  16.956   8.326
 1658POPC   C3A24221  39.068  16.807   7.917
 1658POPC   C4A24222  38.980  16.458   7.663
 1658POPC   C1B24223  39.453  17.000   8.627
 1658POPC   C2B24224  39.436  16.718   8.296
 1658POPC   C3B24225  39.573  16.670   7.889
 1658POPC   C4B24226  39.545  16.725   7.461
 1659POPC   NC324227  21.471  37.337   9.487
 1659POPC   PO424228  21.345  37.998   9.587
 1659POPC   GL124229  21.567  37.810   9.242
 1659POPC   GL224230  21.281  37.631   9.112
 1659POPC   C1A24231  21.575  37.879   8.784
 1659POPC   D2A24232  21.345  37.895   8.384
 1659POPC   C3A24233  21.562  37.746   8.025
 1659POPC   C4A24234  21.616  37.865   7.603
 1659POPC   C1B24235  21.038  37.707   8.754
 1659POPC   C2B24236  20.937  37.500   8.372
 1659POPC   C3B24237  21.037  37.638   7.969
 1659POPC   C4B24238  20.996  37.476   7.555
 1660POPC   NC324239  35.506  37.827   9.594
 1660POPC   PO424240  35.053  37.372   9.648
 1660POPC   GL124241  35.195  37.538   9.238
 1660POPC   GL224242  35.026  37.853   9.247
 1660POPC   C1A24243  35.301  37.616   8.784
 1660POPC   D2A24244  35.584  37.732   8.449
 1660POPC   C3A24245  35.447  37.673   8.016
 1660POPC   C4A24246  35.756  37.519   7.743
 1660POPC   C1B24247  34.940  37.959   8.803
 1660POPC   C2B24248  35.185  38.068   8.419
 1660POPC   C3B24249  35.099  38.118   7.981
 1660POPC   C4B24250  35.295  37.994   7.609
 1661POPC   NC324251  42.107  12.236   9.433
 1661POPC   PO424252  42.827  12.054   9.452
 1661POPC   GL124253  42.509  12.081   9.142
 1661POPC   GL224254  42.235  11.804   9.167
 1661POPC   C1A24255  42.455  12.102   8.696
 1661POPC   D2A24256  42.655  12.109   8.282
 1661POPC   C3A24257  42.385  12.071   7.931
 1661POPC   C4A24258  42.394  11.877   7.542
 1661POPC   C1B24259  42.020  11.775   8.754
 1661POPC   C2B24260  42.197  11.765   8.319
 1661POPC   C3B24261  42.086  11.624   7.883
 1661POPC   C4B24262  41.981  11.645   7.392
 1662POPC   NC324263   1.747  42.869   9.514
 1662POPC   PO424264   2.339  43.212   9.746
 1662POPC   GL124265   2.113  43.226   9.313
 1662POPC   GL224266   2.069  42.918   9.115
 1662POPC   C1A24267   2.044  43.356   8.864
 1662POPC   D2A24268   2.195  43.180   8.474
 1662POPC   C3A24269   1.929  43.192   8.125
 1662POPC   C4A24270   1.955  43.234   7.692
 1662POPC   C1B24271   1.814  42.941   8.722
 1662POPC   C2B24272   1.595  42.850   8.298
 1662POPC   C3B24273   1.661  42.810   7.887
 1662POPC   C4B24274   2.051  42.726   7.726
 1663POPC   NC324275  24.479  38.850   9.181
 1663POPC   PO424276  24.639  38.247   9.459
 1663POPC   GL124277  24.423  38.247   9.082
 1663POPC   GL224278  24.689  38.443   8.955
 1663POPC   C1A24279  24.309  38.296   8.630
 1663POPC   D2A24280  24.526  38.528   8.291
 1663POPC   C3A24281  24.628  38.303   7.915
 1663POPC   C4A24282  24.325  38.014   7.735
 1663POPC   C1B24283  24.860  38.751   8.655
 1663POPC   C2B24284  24.771  38.993   8.266
 1663POPC   C3B24285  24.648  38.825   7.871
 1663POPC   C4B24286  24.478  38.968   7.499
 1664POPC   NC324287  32.814  11.025   9.510
 1664POPC   PO424288  33.401  11.446   9.424
 1664POPC   GL124289  33.219  11.301   9.088
 1664POPC   GL224290  32.853  11.272   9.081
 1664POPC   C1A24291  33.129  11.427   8.693
 1664POPC   D2A24292  33.248  11.641   8.345
 1664POPC   C3A24293  33.197  11.383   8.046
 1664POPC   C4A24294  33.009  11.480   7.740
 1664POPC   C1B24295  32.682  11.031   8.738
 1664POPC   C2B24296  32.858  10.829   8.374
 1664POPC   C3B24297  32.883  10.972   7.952
 1664POPC   C4B24298  32.776  11.094   7.539
 1665POPC   NC324299  28.843   3.706   9.174
 1665POPC   PO424300  29.414   3.629   9.541
 1665POPC   GL124301  29.345   3.616   9.090
 1665POPC   GL224302  29.142   3.299   9.030
 1665POPC   C1A24303  29.230   3.605   8.631
 1665POPC   D2A24304  29.328   3.380   8.247
 1665POPC   C3A24305  29.164   3.584   7.886
 1665POPC   C4A24306  29.307   3.852   7.580
 1665POPC   C1B24307  28.853   3.264   8.649
 1665POPC   C2B24308  28.795   3.413   8.206
 1665POPC   C3B24309  28.808   3.250   7.772
 1665POPC   C4B24310  28.834   3.043   7.393
 1666POPC   NC324311  41.816  19.032   9.468
 1666POPC   PO424312  41.156  19.163   9.536
 1666POPC   GL124313  41.441  19.153   9.149
 1666POPC   GL224314  41.830  19.315   9.069
 1666POPC   C1A24315  41.309  19.015   8.770
 1666POPC   D2A24316  41.198  19.234   8.412
 1666POPC   C3A24317  41.275  19.007   8.043
 1666POPC   C4A24318  41.360  19.173   7.683
 1666POPC   C1B24319  41.835  18.978   8.773
 1666POPC   C2B24320  41.665  19.002   8.378
 1666POPC   C3B24321  41.723  19.300   8.035
 1666POPC   C4B24322  41.869  19.221   7.622
 1667POPC   NC324323  29.718  31.933   9.535
 1667POPC   PO424324  30.077  32.425   9.186
 1667POPC   GL124325  30.039  32.019   9.054
 1667POPC   GL224326  29.727  32.007   9.036
 1667POPC   C1A24327  30.058  32.095   8.631
 1667POPC   D2A24328  29.887  32.359   8.328
 1667POPC   C3A24329  30.046  32.238   7.944
 1667POPC   C4A24330  29.881  32.430   7.590
 1667POPC   C1B24331  29.533  32.105   8.655
 1667POPC   C2B24332  29.599  31.922   8.252
 1667POPC   C3B24333  29.646  31.943   7.820
 1667POPC   C4B24334  29.632  31.995   7.396
 1668POPC   NC324335  40.221  28.705   9.549
 1668POPC   PO424336  39.770  28.283   9.505
 1668POPC   GL124337  39.924  28.510   9.178
 1668POPC   GL224338  40.077  28.256   9.062
 1668POPC   C1A24339  39.805  28.600   8.753
 1668POPC   D2A24340  39.974  28.271   8.465
 1668POPC   C3A24341  40.060  28.346   8.045
 1668POPC   C4A24342  40.105  28.406   7.627
 1668POPC   C1B24343  40.319  27.980   8.867
 1668POPC   C2B24344  40.358  27.891   8.461
 1668POPC   C3B24345  40.126  27.846   8.083
 1668POPC   C4B24346  40.337  27.966   7.721
 1669POPC   NC324347  38.651   9.144   9.463
 1669POPC   PO424348  38.016   8.941   9.563
 1669POPC   GL124349  38.303   8.915   9.181
 1669POPC   GL224350  38.297   9.224   9.073
 1669POPC   C1A24351  38.595   8.879   8.841
 1669POPC   D2A24352  38.360   9.076   8.573
 1669POPC   C3A24353  38.378   9.004   8.165
 1669POPC   C4A24354  38.610   8.894   7.848
 1669POPC   C1B24355  37.967   9.345   8.742
 1669POPC   C2B24356  37.941   9.269   8.320
 1669POPC   C3B24357  38.072   9.344   7.921
 1669POPC   C4B24358  38.107   8.955   7.741
 1670POPC   NC324359  10.804   6.897   9.553
 1670POPC   PO424360  10.196   6.655   9.589
 1670POPC   GL124361  10.425   6.723   9.193
 1670POPC   GL224362  10.390   6.380   9.069
 1670POPC   C1A24363  10.466   6.739   8.717
 1670POPC   D2A24364  10.245   6.484   8.374
 1670POPC   C3A24365  10.111   6.679   7.998
 1670POPC   C4A24366  10.371   6.859   7.719
 1670POPC   C1B24367  10.589   6.245   8.692
 1670POPC   C2B24368  10.749   6.460   8.339
 1670POPC   C3B24369  10.572   6.418   7.940
 1670POPC   C4B24370  10.342   6.368   7.588
 1671POPC   NC324371  42.671  20.676   9.517
 1671POPC   PO424372  43.321  20.629   9.578
 1671POPC   GL124373  43.139  20.644   9.220
 1671POPC   GL224374  42.888  20.366   9.115
 1671POPC   C1A24375  43.040  20.787   8.843
 1671POPC   D2A24376  42.840  20.683   8.471
 1671POPC   C3A24377  43.029  20.874   8.117
 1671POPC   C4A24378  43.027  20.622   7.771
 1671POPC   C1B24379  43.262  20.321   8.847
 1671POPC   C2B24380  43.498  20.288   8.484
 1671POPC   C3B24381  43.390  20.393   8.087
 1671POPC   C4B24382  43.353  20.233   7.682
 1672POPC   NC324383  36.106  19.341   9.518
 1672POPC   PO424384  35.686  18.854   9.599
 1672POPC   GL124385  36.040  18.941   9.196
 1672POPC   GL224386  36.247  19.258   9.069
 1672POPC   C1A24387  36.212  18.910   8.732
 1672POPC   D2A24388  36.035  18.833   8.343
 1672POPC   C3A24389  36.165  19.088   7.993
 1672POPC   C4A24390  36.304  19.025   7.556
 1672POPC   C1B24391  35.997  19.391   8.767
 1672POPC   C2B24392  35.840  19.283   8.388
 1672POPC   C3B24393  35.693  19.295   7.997
 1672POPC   C4B24394  35.954  19.392   7.632
 1673POPC   NC324395  12.260  20.470   9.439
 1673POPC   PO424396  12.154  21.079   9.713
 1673POPC   GL124397  12.054  20.910   9.245
 1673POPC   GL224398  11.829  20.587   9.171
 1673POPC   C1A24399  12.210  20.752   8.825
 1673POPC   D2A24400  12.120  20.571   8.421
 1673POPC   C3A24401  12.298  20.742   8.059
 1673POPC   C4A24402  12.258  20.595   7.673
 1673POPC   C1B24403  11.902  20.290   8.796
 1673POPC   C2B24404  11.761  20.217   8.356
 1673POPC   C3B24405  11.850  20.457   7.958
 1673POPC   C4B24406  11.872  20.346   7.486
 1674POPC   NC324407  23.259  23.867   9.449
 1674POPC   PO424408  22.907  23.357   9.495
 1674POPC   GL124409  22.844  23.709   9.190
 1674POPC   GL224410  22.600  23.896   9.020
 1674POPC   C1A24411  23.060  23.825   8.796
 1674POPC   D2A24412  22.986  23.624   8.406
 1674POPC   C3A24413  23.088  23.744   8.005
 1674POPC   C4A24414  23.099  23.568   7.599
 1674POPC   C1B24415  22.549  23.797   8.615
 1674POPC   C2B24416  22.663  24.002   8.242
 1674POPC   C3B24417  22.617  23.935   7.826
 1674POPC   C4B24418  22.672  23.765   7.440
 1675POPC   NC324419  39.544  43.281   9.481
 1675POPC   PO424420  39.135  42.635   9.506
 1675POPC   GL124421  39.359  42.856   9.209
 1675POPC   GL224422  39.135  43.186   9.166
 1675POPC   C1A24423  39.279  42.914   8.777
 1675POPC   D2A24424  39.370  43.056   8.405
 1675POPC   C3A24425  38.989  43.064   8.213
 1675POPC   C4A24426  38.982  42.967   7.806
 1675POPC   C1B24427  39.271  43.453   8.771
 1675POPC   C2B24428  39.271  43.554   8.302
 1675POPC   C3B24429  39.372  43.295   7.946
 1675POPC   C4B24430  39.627  43.204   7.616
 1676POPC   NC324431  38.376  28.617   9.455
 1676POPC   PO424432  38.117  28.036   9.300
 1676POPC   GL124433  38.444  28.241   9.084
 1676POPC   GL224434  38.457  28.586   8.945
 1676POPC   C1A24435  38.746  28.133   8.798
 1676POPC   D2A24436  38.745  27.903   8.403
 1676POPC   C3A24437  38.677  28.157   8.020
 1676POPC   C4A24438  38.514  28.408   7.658
 1676POPC   C1B24439  38.836  28.757   8.798
 1676POPC   C2B24440  38.989  28.843   8.391
 1676POPC   C3B24441  38.815  28.681   8.028
 1676POPC   C4B24442  38.899  28.786   7.643
 1677POPC   NC324443  17.059  27.640   9.466
 1677POPC   PO424444  16.716  27.150   9.633
 1677POPC   GL124445  16.669  27.428   9.255
 1677POPC   GL224446  16.567  27.223   9.063
 1677POPC   C1A24447  16.648  27.673   8.834
 1677POPC   D2A24448  16.479  27.536   8.428
 1677POPC   C3A24449  16.566  27.752   8.043
 1677POPC   C4A24450  16.954  27.939   7.906
 1677POPC   C1B24451  16.989  27.298   8.865
 1677POPC   C2B24452  16.987  27.484   8.457
 1677POPC   C3B24453  16.832  27.315   8.087
 1677POPC   C4B24454  17.130  27.322   7.812
 1678POPC   NC324455  35.745  12.241   9.532
 1678POPC   PO424456  36.310  12.148   9.743
 1678POPC   GL124457  36.169  12.168   9.272
 1678POPC   GL224458  35.940  12.409   9.104
 1678POPC   C1A24459  36.272  12.135   8.822
 1678POPC   D2A24460  36.206  12.055   8.376
 1678POPC   C3A24461  36.477  12.156   8.023
 1678POPC   C4A24462  36.373  12.085   7.587
 1678POPC   C1B24463  35.784  12.284   8.688
 1678POPC   C2B24464  35.709  12.134   8.257
 1678POPC   C3B24465  35.965  12.226   7.886
 1678POPC   C4B24466  35.885  12.161   7.428
 1679POPC   NC324467  44.769  28.633   9.398
 1679POPC   PO424468  44.466  28.016   9.329
 1679POPC   GL124469  44.575  28.306   9.034
 1679POPC   GL224470  44.932  28.440   8.956
 1679POPC   C1A24471  44.485  28.456   8.637
 1679POPC   D2A24472  44.750  28.530   8.290
 1679POPC   C3A24473  44.526  28.406   7.924
 1679POPC   C4A24474  44.255  28.334   7.576
 1679POPC   C1B24475  44.875  28.112   8.656
 1679POPC   C2B24476  44.697  28.002   8.254
 1679POPC   C3B24477  44.885  28.048   7.849
 1679POPC   C4B24478  44.719  28.105   7.464
 1680POPC   NC324479   2.264  10.781   9.479
 1680POPC   PO424480   1.907  10.258   9.350
 1680POPC   GL124481   1.917  10.679   9.123
 1680POPC   GL224482   2.274  10.803   8.968
 1680POPC   C1A24483   1.833  10.872   8.748
 1680POPC   D2A24484   1.820  10.709   8.356
 1680POPC   C3A24485   2.035  10.871   8.030
 1680POPC   C4A24486   2.047  10.621   7.691
 1680POPC   C1B24487   2.088  10.428   8.698
 1680POPC   C2B24488   1.907  10.215   8.299
 1680POPC   C3B24489   2.014  10.126   7.847
 1680POPC   C4B24490   2.154   9.966   7.412
 1681POPC   NC324491  41.939  41.040   9.442
 1681POPC   PO424492  42.576  40.755   9.481
 1681POPC   GL124493  42.389  40.879   9.104
 1681POPC   GL224494  42.656  41.097   9.035
 1681POPC   C1A24495  42.272  40.711   8.687
 1681POPC   D2A24496  42.175  40.912   8.285
 1681POPC   C3A24497  42.194  40.658   7.888
 1681POPC   C4A24498  41.947  40.401   7.561
 1681POPC   C1B24499  42.475  41.177   8.657
 1681POPC   C2B24500  42.624  41.182   8.295
 1681POPC   C3B24501  42.435  41.187   7.920
 1681POPC   C4B24502  42.552  40.922   7.636
 1682POPC   NC324503  14.697   3.906   9.457
 1682POPC   PO424504  14.656   4.622   9.523
 1682POPC   GL124505  14.624   4.484   9.119
 1682POPC   GL224506  14.362   4.233   9.155
 1682POPC   C1A24507  14.609   4.322   8.708
 1682POPC   D2A24508  14.719   4.173   8.285
 1682POPC   C3A24509  14.443   4.209   7.923
 1682POPC   C4A24510  14.337   4.423   7.523
 1682POPC   C1B24511  14.112   4.419   8.784
 1682POPC   C2B24512  14.125   4.375   8.323
 1682POPC   C3B24513  13.955   4.360   7.892
 1682POPC   C4B24514  13.735   4.093   7.599
 1683POPC   NC324515  40.796  27.879   9.400
 1683POPC   PO424516  41.192  27.279   9.489
 1683POPC   GL124517  40.869  27.431   9.184
 1683POPC   GL224518  41.048  27.676   8.988
 1683POPC   C1A24519  40.611  27.551   8.806
 1683POPC   D2A24520  40.820  27.601   8.426
 1683POPC   C3A24521  40.673  27.698   8.004
 1683POPC   C4A24522  40.728  27.669   7.550
 1683POPC   C1B24523  41.159  27.927   8.622
 1683POPC   C2B24524  41.304  27.999   8.235
 1683POPC   C3B24525  41.091  27.947   7.869
 1683POPC   C4B24526  41.189  27.868   7.457
 1684POPC   NC324527  31.047  36.662   9.428
 1684POPC   PO424528  31.720  36.807   9.554
 1684POPC   GL124529  31.524  36.831   9.152
 1684POPC   GL224530  31.750  37.102   9.136
 1684POPC   C1A24531  31.233  36.733   8.787
 1684POPC   D2A24532  31.061  36.672   8.343
 1684POPC   C3A24533  31.351  36.768   8.028
 1684POPC   C4A24534  31.285  36.664   7.584
 1684POPC   C1B24535  31.626  37.066   8.714
 1684POPC   C2B24536  31.274  37.127   8.432
 1684POPC   C3B24537  31.321  37.280   8.026
 1684POPC   C4B24538  31.526  37.095   7.667
 1685POPC   NC324539   2.342   2.020   9.458
 1685POPC   PO424540   3.018   1.791   9.498
 1685POPC   GL124541   2.908   1.659   9.114
 1685POPC   GL224542   2.606   1.783   9.097
 1685POPC   C1A24543   3.103   1.719   8.743
 1685POPC   D2A24544   3.100   1.920   8.345
 1685POPC   C3A24545   2.899   1.703   7.993
 1685POPC   C4A24546   2.903   1.871   7.601
 1685POPC   C1B24547   2.575   1.653   8.685
 1685POPC   C2B24548   2.572   1.903   8.340
 1685POPC   C3B24549   2.453   1.990   7.925
 1685POPC   C4B24550   2.653   2.295   7.694
 1686POPC   NC324551   9.263  22.632   9.336
 1686POPC   PO424552   9.022  23.161   9.570
 1686POPC   GL124553   9.009  22.994   9.097
 1686POPC   GL224554   8.906  22.692   8.893
 1686POPC   C1A24555   8.920  23.160   8.710
 1686POPC   D2A24556   8.961  22.861   8.393
 1686POPC   C3A24557   8.894  23.101   8.027
 1686POPC   C4A24558   8.980  23.304   7.646
 1686POPC   C1B24559   9.246  22.417   8.709
 1686POPC   C2B24560   9.291  22.361   8.273
 1686POPC   C3B24561   8.940  22.491   8.006
 1686POPC   C4B24562   8.958  22.765   7.650
 1687POPC   NC324563  32.216  41.288   9.451
 1687POPC   PO424564  32.327  41.924   9.498
 1687POPC   GL124565  32.475  41.733   9.145
 1687POPC   GL224566  32.124  41.642   9.087
 1687POPC   C1A24567  32.470  41.537   8.741
 1687POPC   D2A24568  32.292  41.632   8.345
 1687POPC   C3A24569  32.408  41.867   7.984
 1687POPC   C4A24570  32.413  41.658   7.595
 1687POPC   C1B24571  31.844  41.660   8.741
 1687POPC   C2B24572  31.786  41.560   8.312
 1687POPC   C3B24573  31.977  41.558   7.920
 1687POPC   C4B24574  31.787  41.358   7.582
 1688POPC   NC324575  24.156   8.078   9.593
 1688POPC   PO424576  24.873   8.458   9.527
 1688POPC   GL124577  24.626   8.423   9.177
 1688POPC   GL224578  24.495   8.124   9.210
 1688POPC   C1A24579  24.363   8.388   8.772
 1688POPC   D2A24580  24.326   8.107   8.407
 1688POPC   C3A24581  24.382   8.252   8.021
 1688POPC   C4A24582  24.101   8.482   7.763
 1688POPC   C1B24583  24.419   7.857   8.845
 1688POPC   C2B24584  24.543   7.652   8.448
 1688POPC   C3B24585  24.321   7.698   8.056
 1688POPC   C4B24586  24.450   7.893   7.639
 1689POPC   NC324587  42.465  36.496   9.455
 1689POPC   PO424588  42.723  37.089   9.466
 1689POPC   GL124589  42.446  36.911   9.165
 1689POPC   GL224590  42.580  36.631   8.989
 1689POPC   C1A24591  42.199  36.910   8.787
 1689POPC   D2A24592  42.396  36.914   8.392
 1689POPC   C3A24593  42.244  37.207   8.100
 1689POPC   C4A24594  42.392  37.156   7.673
 1689POPC   C1B24595  42.883  36.575   8.646
 1689POPC   C2B24596  42.843  36.600   8.204
 1689POPC   C3B24597  42.465  36.664   7.943
 1689POPC   C4B24598  42.461  36.674   7.514
 1690POPC   NC324599   4.448  36.307   9.498
 1690POPC   PO424600   3.933  36.005   9.679
 1690POPC   GL124601   4.122  36.085   9.177
 1690POPC   GL224602   4.461  36.117   9.042
 1690POPC   C1A24603   4.141  36.241   8.709
 1690POPC   D2A24604   4.067  36.018   8.358
 1690POPC   C3A24605   3.901  36.175   7.978
 1690POPC   C4A24606   4.027  36.285   7.579
 1690POPC   C1B24607   4.642  36.343   8.758
 1690POPC   C2B24608   4.581  36.103   8.388
 1690POPC   C3B24609   4.428  36.191   8.012
 1690POPC   C4B24610   4.536  36.330   7.622
 1691POPC   NC324611  21.582  12.387   9.321
 1691POPC   PO424612  21.070  12.795   9.691
 1691POPC   GL124613  21.287  12.830   9.198
 1691POPC   GL224614  21.193  12.605   8.947
 1691POPC   C1A24615  21.572  12.951   8.857
 1691POPC   D2A24616  21.652  12.947   8.398
 1691POPC   C3A24617  21.536  12.609   8.101
 1691POPC   C4A24618  21.482  12.752   7.649
 1691POPC   C1B24619  21.064  12.992   8.723
 1691POPC   C2B24620  21.119  12.902   8.296
 1691POPC   C3B24621  21.178  13.063   7.898
 1691POPC   C4B24622  21.169  13.159   7.442
 1692POPC   NC324623  31.180  38.239   9.570
 1692POPC   PO424624  31.573  38.617   9.368
 1692POPC   GL124625  31.431  38.374   9.065
 1692POPC   GL224626  31.574  38.090   9.219
 1692POPC   C1A24627  31.421  38.443   8.592
 1692POPC   D2A24628  31.371  38.359   8.135
 1692POPC   C3A24629  31.649  38.600   7.859
 1692POPC   C4A24630  31.537  38.903   7.518
 1692POPC   C1B24631  31.569  37.999   8.763
 1692POPC   C2B24632  31.737  38.070   8.353
 1692POPC   C3B24633  31.702  38.065   7.875
 1692POPC   C4B24634  31.652  38.310   7.452
 1693POPC   NC324635   3.312  19.235   9.542
 1693POPC   PO424636   2.639  19.313   9.557
 1693POPC   GL124637   2.868  19.238   9.206
 1693POPC   GL224638   2.593  19.071   9.062
 1693POPC   C1A24639   2.957  19.256   8.754
 1693POPC   D2A24640   2.758  19.277   8.331
 1693POPC   C3A24641   2.979  19.111   7.992
 1693POPC   C4A24642   2.943  18.943   7.593
 1693POPC   C1B24643   2.556  18.923   8.658
 1693POPC   C2B24644   2.421  18.860   8.229
 1693POPC   C3B24645   2.454  19.014   7.823
 1693POPC   C4B24646   2.514  19.209   7.465
 1694POPC   NC324647  20.483  27.869   9.960
 1694POPC   PO424648  20.989  27.450   9.665
 1694POPC   GL124649  20.967  27.584   9.250
 1694POPC   GL224650  20.615  27.583   9.211
 1694POPC   C1A24651  20.966  27.443   8.832
 1694POPC   D2A24652  20.913  27.681   8.465
 1694POPC   C3A24653  20.887  27.502   8.069
 1694POPC   C4A24654  20.750  27.677   7.704
 1694POPC   C1B24655  20.421  27.618   8.809
 1694POPC   C2B24656  20.214  27.606   8.413
 1694POPC   C3B24657  20.351  27.669   8.016
 1694POPC   C4B24658  20.312  27.411   7.662
 1695POPC   NC324659  17.947   0.267   9.572
 1695POPC   PO424660  18.416   0.747   9.556
 1695POPC   GL124661  18.427   0.615   9.186
 1695POPC   GL224662  18.091   0.548   9.150
 1695POPC   C1A24663  18.542   0.435   8.819
 1695POPC   D2A24664  18.386   0.166   8.536
 1695POPC   C3A24665  18.577   0.258   8.181
 1695POPC   C4A24666  18.512   0.560   7.866
 1695POPC   C1B24667  17.971   0.244   8.839
 1695POPC   C2B24668  17.886   0.315   8.407
 1695POPC   C3B24669  18.070   0.304   8.019
 1695POPC   C4B24670  18.015   0.518   7.633
 1696POPC   NC324671  28.137   4.214   9.510
 1696POPC   PO424672  27.544   4.344   9.721
 1696POPC   GL124673  27.555   4.449   9.265
 1696POPC   GL224674  27.884   4.468   9.140
 1696POPC   C1A24675  27.474   4.256   8.869
 1696POPC   D2A24676  27.673   4.213   8.493
 1696POPC   C3A24677  27.487   4.005   8.183
 1696POPC   C4A24678  27.576   4.063   7.782
 1696POPC   C1B24679  27.809   4.659   8.727
 1696POPC   C2B24680  27.947   4.591   8.295
 1696POPC   C3B24681  27.668   4.495   8.031
 1696POPC   C4B24682  27.484   4.678   7.693
 1697POPC   NC324683   4.673  11.521   9.741
 1697POPC   PO424684   4.280  10.956   9.542
 1697POPC   GL124685   4.321  11.099   9.128
 1697POPC   GL224686   4.359  11.458   9.239
 1697POPC   C1A24687   4.330  11.045   8.676
 1697POPC   D2A24688   4.620  11.203   8.385
 1697POPC   C3A24689   4.431  11.217   8.000
 1697POPC   C4A24690   4.342  11.109   7.597
 1697POPC   C1B24691   4.244  11.517   8.800
 1697POPC   C2B24692   4.070  11.406   8.377
 1697POPC   C3B24693   4.131  11.623   7.955
 1697POPC   C4B24694   4.161  11.587   7.492
 1698POPC   NC324695  32.725  31.483   9.382
 1698POPC   PO424696  32.135  31.217   9.284
 1698POPC   GL124697  32.160  31.593   9.032
 1698POPC   GL224698  32.018  31.474   8.742
 1698POPC   C1A24699  32.330  31.862   8.680
 1698POPC   D2A24700  32.398  31.599   8.318
 1698POPC   C3A24701  32.117  31.523   7.998
 1698POPC   C4A24702  32.402  31.641   7.665
 1698POPC   C1B24703  32.451  31.271   8.714
 1698POPC   C2B24704  32.544  30.998   8.368
 1698POPC   C3B24705  32.447  31.134   7.937
 1698POPC   C4B24706  32.135  31.223   7.579
 1699POPC   NC324707  42.842  28.266   9.284
 1699POPC   PO424708  43.394  28.276   9.663
 1699POPC   GL124709  43.351  28.365   9.225
 1699POPC   GL224710  43.354  28.000   9.178
 1699POPC   C1A24711  43.153  28.585   8.831
 1699POPC   D2A24712  42.922  28.433   8.466
 1699POPC   C3A24713  43.146  28.398   8.097
 1699POPC   C4A24714  43.107  28.670   7.761
 1699POPC   C1B24715  43.357  28.128   8.764
 1699POPC   C2B24716  43.161  27.969   8.411
 1699POPC   C3B24717  42.855  27.936   8.091
 1699POPC   C4B24718  42.930  27.806   7.682
 1700POPC   NC324719   4.756  37.166   9.627
 1700POPC   PO424720   5.493  37.090   9.570
 1700POPC   GL124721   5.206  36.995   9.222
 1700POPC   GL224722   5.062  36.643   9.164
 1700POPC   C1A24723   5.355  36.903   8.812
 1700POPC   D2A24724   5.251  37.097   8.445
 1700POPC   C3A24725   5.196  36.893   8.068
 1700POPC   C4A24726   5.203  37.021   7.657
 1700POPC   C1B24727   5.142  36.426   8.767
 1700POPC   C2B24728   4.956  36.480   8.365
 1700POPC   C3B24729   4.794  36.593   7.968
 1700POPC   C4B24730   5.096  36.529   7.650
 1701POPC   NC324731  12.907  37.434   9.494
 1701POPC   PO424732  12.387  37.942   9.461
 1701POPC   GL124733  12.696  37.789   9.168
 1701POPC   GL224734  12.962  37.990   9.162
 1701POPC   C1A24735  12.973  37.624   8.816
 1701POPC   D2A24736  12.791  37.459   8.453
 1701POPC   C3A24737  12.895  37.468   8.038
 1701POPC   C4A24738  12.658  37.582   7.676
 1701POPC   C1B24739  12.824  38.134   8.774
 1701POPC   C2B24740  12.999  37.969   8.408
 1701POPC   C3B24741  12.875  37.957   8.016
 1701POPC   C4B24742  13.098  38.064   7.673
 1702POPC   NC324743  41.170  26.806   9.578
 1702POPC   PO424744  41.886  26.568   9.512
 1702POPC   GL124745  41.692  26.611   9.124
 1702POPC   GL224746  41.338  26.577   9.160
 1702POPC   C1A24747  41.535  26.576   8.692
 1702POPC   D2A24748  41.698  26.756   8.336
 1702POPC   C3A24749  41.577  26.537   7.972
 1702POPC   C4A24750  41.319  26.537   7.653
 1702POPC   C1B24751  41.358  26.983   8.930
 1702POPC   C2B24752  41.273  27.027   8.491
 1702POPC   C3B24753  41.283  26.956   8.060
 1702POPC   C4B24754  41.025  26.934   7.734
 1703POPC   NC324755  14.747  19.012   9.559
 1703POPC   PO424756  14.250  19.391   9.683
 1703POPC   GL124757  14.306  19.195   9.265
 1703POPC   GL224758  14.152  19.435   9.073
 1703POPC   C1A24759  14.241  18.946   8.852
 1703POPC   D2A24760  14.354  18.702   8.446
 1703POPC   C3A24761  14.290  18.900   8.020
 1703POPC   C4A24762  14.226  18.661   7.604
 1703POPC   C1B24763  14.392  19.426   8.729
 1703POPC   C2B24764  14.327  19.330   8.323
 1703POPC   C3B24765  14.242  19.532   7.959
 1703POPC   C4B24766  14.546  19.315   7.771
 1704POPC   NC324767  20.725   2.151   9.894
 1704POPC   PO424768  20.763   2.131   9.265
 1704POPC   GL124769  20.455   2.116   8.987
 1704POPC   GL224770  20.445   1.750   8.878
 1704POPC   C1A24771  20.376   2.131   8.548
 1704POPC   D2A24772  20.492   1.865   8.236
 1704POPC   C3A24773  20.409   2.068   7.860
 1704POPC   C4A24774  20.344   1.826   7.519
 1704POPC   C1B24775  20.838   1.928   8.662
 1704POPC   C2B24776  21.008   1.826   8.288
 1704POPC   C3B24777  20.914   1.983   7.894
 1704POPC   C4B24778  21.099   2.278   7.714
 1705POPC   NC324779   1.498   3.703   9.406
 1705POPC   PO424780   1.220   3.102   9.418
 1705POPC   GL124781   1.072   3.319   9.083
 1705POPC   GL224782   1.014   3.653   9.155
 1705POPC   C1A24783   1.212   3.251   8.673
 1705POPC   D2A24784   1.169   3.195   8.253
 1705POPC   C3A24785   1.160   3.528   7.882
 1705POPC   C4A24786   0.902   3.918   7.953
 1705POPC   C1B24787   1.272   3.744   8.780
 1705POPC   C2B24788   1.227   3.730   8.333
 1705POPC   C3B24789   1.417   3.967   7.935
 1705POPC   C4B24790   1.578   4.012   7.498
 1706POPC   NC324791  44.452   0.027   9.547
 1706POPC   PO424792  44.621  44.383   9.605
 1706POPC   GL124793  44.614  44.610   9.213
 1706POPC   GL224794  44.889  44.426   9.029
 1706POPC   C1A24795  44.493  44.931   8.891
 1706POPC   D2A24796  44.641  44.963   8.449
 1706POPC   C3A24797  44.437   0.047   8.052
 1706POPC   C4A24798  44.585   0.106   7.627
 1706POPC   C1B24799  44.579  44.475   8.710
 1706POPC   C2B24800  44.460  44.238   8.375
 1706POPC   C3B24801  44.571  44.357   7.974
 1706POPC   C4B24802  44.403  44.658   7.715
 1707POPC   NC324803   3.793  16.072   9.491
 1707POPC   PO424804   4.468  16.018   9.566
 1707POPC   GL124805   4.289  16.142   9.192
 1707POPC   GL224806   4.550  16.354   9.107
 1707POPC   C1A24807   4.127  15.921   8.817
 1707POPC   D2A24808   4.150  15.666   8.440
 1707POPC   C3A24809   4.389  15.859   8.073
 1707POPC   C4A24810   4.247  16.217   7.830
 1707POPC   C1B24811   4.544  16.237   8.683
 1707POPC   C2B24812   4.678  16.291   8.260
 1707POPC   C3B24813   4.779  16.165   7.857
 1707POPC   C4B24814   4.567  16.146   7.430
 1708POPC   NC324815  41.040  43.289   9.338
 1708POPC   PO424816  40.693  42.816   9.543
 1708POPC   GL124817  40.628  43.050   9.142
 1708POPC   GL224818  40.554  43.419   9.161
 1708POPC   C1A24819  40.791  43.122   8.718
 1708POPC   D2A24820  41.090  43.029   8.391
 1708POPC   C3A24821  40.911  43.168   7.988
 1708POPC   C4A24822  41.053  43.215   7.512
 1708POPC   C1B24823  40.313  43.283   8.803
 1708POPC   C2B24824  40.340  43.037   8.413
 1708POPC   C3B24825  40.393  43.228   8.033
 1708POPC   C4B24826  40.517  43.148   7.667
 1709POPC   NC324827  22.684  27.026   9.331
 1709POPC   PO424828  22.454  26.600   9.803
 1709POPC   GL124829  22.446  26.583   9.282
 1709POPC   GL224830  22.235  26.878   9.159
 1709POPC   C1A24831  22.263  26.529   8.802
 1709POPC   D2A24832  22.470  26.563   8.377
 1709POPC   C3A24833  22.166  26.619   8.040
 1709POPC   C4A24834  22.207  26.841   7.694
 1709POPC   C1B24835  22.389  27.016   8.742
 1709POPC   C2B24836  22.224  27.042   8.312
 1709POPC   C3B24837  22.486  27.182   7.943
 1709POPC   C4B24838  22.473  27.179   7.432
 1710POPC   NC324839   6.275  20.138   9.596
 1710POPC   PO424840   6.761  19.696   9.397
 1710POPC   GL124841   6.811  19.977   9.096
 1710POPC   GL224842   6.428  20.034   9.081
 1710POPC   C1A24843   6.770  19.866   8.668
 1710POPC   D2A24844   6.474  19.591   8.454
 1710POPC   C3A24845   6.698  19.624   8.092
 1710POPC   C4A24846   6.627  19.594   7.698
 1710POPC   C1B24847   6.350  20.151   8.651
 1710POPC   C2B24848   6.464  20.059   8.254
 1710POPC   C3B24849   6.492  20.067   7.843
 1710POPC   C4B24850   6.215  19.896   7.563
 1711POPC   NC324851  21.157  41.620   9.601
 1711POPC   PO424852  21.793  41.328   9.629
 1711POPC   GL124853  21.630  41.598   9.283
 1711POPC   GL224854  21.304  41.470   9.120
 1711POPC   C1A24855  21.593  41.782   8.860
 1711POPC   D2A24856  21.420  41.530   8.530
 1711POPC   C3A24857  21.474  41.692   8.130
 1711POPC   C4A24858  21.644  41.527   7.767
 1711POPC   C1B24859  21.120  41.162   8.795
 1711POPC   C2B24860  21.033  41.195   8.332
 1711POPC   C3B24861  21.208  41.259   7.895
 1711POPC   C4B24862  21.302  41.334   7.426
 1712POPC   NC324863  10.067   9.848   9.268
 1712POPC   PO424864   9.631   9.353   9.312
 1712POPC   GL124865   9.576   9.716   9.081
 1712POPC   GL224866   9.419  10.056   9.157
 1712POPC   C1A24867   9.613   9.578   8.663
 1712POPC   D2A24868   9.369   9.455   8.314
 1712POPC   C3A24869   9.655   9.475   7.970
 1712POPC   C4A24870   9.605   9.518   7.524
 1712POPC   C1B24871   9.648  10.094   8.743
 1712POPC   C2B24872   9.663   9.915   8.290
 1712POPC   C3B24873   9.693   9.986   7.842
 1712POPC   C4B24874   9.970  10.206   7.672
 1713POPC   NC324875  20.090  20.598   9.584
 1713POPC   PO424876  19.447  20.685   9.475
 1713POPC   GL124877  19.821  20.575   9.144
 1713POPC   GL224878  20.153  20.732   9.085
 1713POPC   C1A24879  19.862  20.555   8.694
 1713POPC   D2A24880  19.909  20.721   8.286
 1713POPC   C3A24881  19.653  20.581   7.950
 1713POPC   C4A24882  19.567  20.282   7.648
 1713POPC   C1B24883  20.323  20.793   8.633
 1713POPC   C2B24884  20.394  20.811   8.156
 1713POPC   C3B24885  20.057  20.892   7.817
 1713POPC   C4B24886  19.960  21.042   7.370
 1714POPC   NC324887  40.440  30.829   9.438
 1714POPC   PO424888  39.843  30.379   9.485
 1714POPC   GL124889  39.866  30.570   9.058
 1714POPC   GL224890  40.166  30.795   8.972
 1714POPC   C1A24891  39.982  30.393   8.670
 1714POPC   D2A24892  39.914  30.363   8.244
 1714POPC   C3A24893  40.184  30.568   7.924
 1714POPC   C4A24894  39.870  30.709   7.646
 1714POPC   C1B24895  39.874  30.915   8.612
 1714POPC   C2B24896  39.857  30.949   8.140
 1714POPC   C3B24897  40.124  31.113   7.805
 1714POPC   C4B24898  40.451  30.912   7.571
 1715POPC   NC324899   3.218  11.976   9.390
 1715POPC   PO424900   3.728  12.522   9.474
 1715POPC   GL124901   3.545  12.273   9.159
 1715POPC   GL224902   3.700  11.945   9.170
 1715POPC   C1A24903   3.342  12.130   8.767
 1715POPC   D2A24904   3.508  12.163   8.377
 1715POPC   C3A24905   3.365  12.021   8.010
 1715POPC   C4A24906   3.350  11.726   7.714
 1715POPC   C1B24907   3.869  12.105   8.791
 1715POPC   C2B24908   3.952  11.915   8.404
 1715POPC   C3B24909   3.905  12.085   8.046
 1715POPC   C4B24910   3.787  11.953   7.687
 1716POPC   NC324911   1.591  24.731   9.521
 1716POPC   PO424912   1.135  24.325   9.507
 1716POPC   GL124913   1.130  24.213   9.097
 1716POPC   GL224914   1.462  24.278   9.095
 1716POPC   C1A24915   1.195  24.413   8.689
 1716POPC   D2A24916   1.228  24.250   8.317
 1716POPC   C3A24917   1.211  24.490   8.043
 1716POPC   C4A24918   1.142  24.525   7.677
 1716POPC   C1B24919   1.604  24.659   8.881
 1716POPC   C2B24920   1.585  24.716   8.436
 1716POPC   C3B24921   1.465  24.942   8.091
 1716POPC   C4B24922   1.469  24.918   7.660
 1717POPC   NC324923  30.760  34.216   9.490
 1717POPC   PO424924  30.899  34.925   9.611
 1717POPC   GL124925  30.641  34.700   9.303
 1717POPC   GL224926  30.955  34.615   9.153
 1717POPC   C1A24927  30.509  34.467   8.916
 1717POPC   D2A24928  30.663  34.423   8.490
 1717POPC   C3A24929  30.494  34.477   8.074
 1717POPC   C4A24930  30.420  34.717   7.707
 1717POPC   C1B24931  30.861  34.807   8.770
 1717POPC   C2B24932  30.632  34.909   8.392
 1717POPC   C3B24933  30.820  34.867   7.970
 1717POPC   C4B24934  30.841  35.035   7.545
 1718POPC   NC324935  15.726  42.170   9.570
 1718POPC   PO424936  16.071  42.784   9.644
 1718POPC   GL124937  16.092  42.430   9.337
 1718POPC   GL224938  16.394  42.293   9.246
 1718POPC   C1A24939  15.907  42.315   8.941
 1718POPC   D2A24940  15.980  42.235   8.499
 1718POPC   C3A24941  15.739  42.340   8.135
 1718POPC   C4A24942  15.767  42.254   7.703
 1718POPC   C1B24943  16.367  42.108   8.857
 1718POPC   C2B24944  16.472  42.177   8.449
 1718POPC   C3B24945  16.276  42.189   8.027
 1718POPC   C4B24946  16.267  42.309   7.584
 1719POPC   NC324947   4.813   2.573   9.425
 1719POPC   PO424948   5.453   2.783   9.287
 1719POPC   GL124949   5.102   2.729   9.066
 1719POPC   GL224950   4.899   3.020   9.056
 1719POPC   C1A24951   4.855   2.596   8.748
 1719POPC   D2A24952   5.089   2.398   8.432
 1719POPC   C3A24953   5.205   2.593   8.078
 1719POPC   C4A24954   5.319   2.576   7.664
 1719POPC   C1B24955   5.211   2.985   8.668
 1719POPC   C2B24956   5.191   3.117   8.271
 1719POPC   C3B24957   4.976   3.016   7.919
 1719POPC   C4B24958   5.226   3.066   7.594
 1720POPC   NC324959  44.063   8.127   9.471
 1720POPC   PO424960  43.637   8.566   9.546
 1720POPC   GL124961  43.709   8.387   9.145
 1720POPC   GL224962  43.750   8.027   9.101
 1720POPC   C1A24963  43.802   8.342   8.701
 1720POPC   D2A24964  43.526   8.320   8.355
 1720POPC   C3A24965  43.635   8.181   7.967
 1720POPC   C4A24966  43.687   8.515   7.722
 1720POPC   C1B24967  44.113   7.959   8.804
 1720POPC   C2B24968  44.253   8.246   8.486
 1720POPC   C3B24969  44.058   8.368   8.140
 1720POPC   C4B24970  44.142   8.042   7.831
 1721POPC   NC324971   0.987  40.460   9.628
 1721POPC   PO424972   1.431  40.998   9.465
 1721POPC   GL124973   1.194  40.948   9.106
 1721POPC   GL224974   0.984  40.664   9.168
 1721POPC   C1A24975   1.274  40.776   8.702
 1721POPC   D2A24976   1.502  40.859   8.314
 1721POPC   C3A24977   1.290  40.693   7.942
 1721POPC   C4A24978   1.338  40.686   7.494
 1721POPC   C1B24979   0.738  40.629   8.820
 1721POPC   C2B24980   0.863  40.712   8.408
 1721POPC   C3B24981   0.755  40.549   8.031
 1721POPC   C4B24982   0.850  40.630   7.617
 1722POPC   NC324983  10.803  19.419   9.472
 1722POPC   PO424984  11.089  19.997   9.451
 1722POPC   GL124985  10.703  19.963   9.154
 1722POPC   GL224986  10.331  19.867   9.194
 1722POPC   C1A24987  10.508  20.009   8.736
 1722POPC   D2A24988  10.340  19.807   8.357
 1722POPC   C3A24989  10.466  19.913   7.948
 1722POPC   C4A24990  10.631  19.710   7.601
 1722POPC   C1B24991  10.131  19.651   8.805
 1722POPC   C2B24992   9.863  19.609   8.392
 1722POPC   C3B24993   9.994  19.645   7.921
 1722POPC   C4B24994  10.200  19.433   7.506
 1723POPC   NC324995  20.963  20.938   9.593
 1723POPC   PO424996  21.530  21.272   9.669
 1723POPC   GL124997  21.500  21.348   9.189
 1723POPC   GL224998  21.310  21.061   9.159
 1723POPC   C1A24999  21.501  21.442   8.714
 1723POPC   D2A25000  21.610  21.688   8.326
 1723POPC   C3A25001  21.417  21.580   7.912
 1723POPC   C4A25002  21.069  21.358   7.702
 1723POPC   C1B25003  21.572  20.947   8.793
 1723POPC   C2B25004  21.410  21.058   8.403
 1723POPC   C3B25005  21.373  21.071   8.002
 1723POPC   C4B25006  21.527  21.106   7.636
 1724POPC   NC325007  26.100  29.698   9.403
 1724POPC   PO425008  25.881  30.316   9.442
 1724POPC   GL125009  26.030  30.104   9.074
 1724POPC   GL225010  26.367  30.024   8.987
 1724POPC   C1A25011  25.920  29.973   8.651
 1724POPC   D2A25012  25.765  30.080   8.223
 1724POPC   C3A25013  25.971  29.896   7.872
 1724POPC   C4A25014  26.112  30.080   7.496
 1724POPC   C1B25015  26.421  29.989   8.540
 1724POPC   C2B25016  26.208  29.701   8.290
 1724POPC   C3B25017  26.331  29.522   7.924
 1724POPC   C4B25018  26.491  29.784   7.630
 1725POPC   NC325019  40.370  41.607   9.551
 1725POPC   PO425020  39.767  41.193   9.554
 1725POPC   GL125021  39.972  41.447   9.223
 1725POPC   GL225022  39.813  41.750   9.287
 1725POPC   C1A25023  40.207  41.336   8.819
 1725POPC   D2A25024  40.342  41.246   8.377
 1725POPC   C3A25025  40.074  41.446   8.102
 1725POPC   C4A25026  39.854  41.433   7.722
 1725POPC   C1B25027  40.041  41.834   8.884
 1725POPC   C2B25028  40.317  41.779   8.527
 1725POPC   C3B25029  40.410  41.821   8.083
 1725POPC   C4B25030  40.150  41.924   7.699
 1726POPC   NC325031  37.236  16.297   9.474
 1726POPC   PO425032  37.901  16.277   9.669
 1726POPC   GL125033  37.728  16.132   9.247
 1726POPC   GL225034  37.702  15.762   9.214
 1726POPC   C1A25035  37.857  16.025   8.799
 1726POPC   D2A25036  37.961  15.856   8.376
 1726POPC   C3A25037  37.720  15.944   8.012
 1726POPC   C4A25038  37.758  16.121   7.614
 1726POPC   C1B25039  37.421  15.782   8.826
 1726POPC   C2B25040  37.480  15.672   8.394
 1726POPC   C3B25041  37.294  15.645   7.982
 1726POPC   C4B25042  37.546  15.653   7.605
 1727POPC   NC325043   5.536   3.258   9.337
 1727POPC   PO425044   4.990   3.595   9.642
 1727POPC   GL125045   5.083   3.505   9.157
 1727POPC   GL225046   5.329   3.743   8.992
 1727POPC   C1A25047   5.018   3.445   8.672
 1727POPC   D2A25048   5.241   3.627   8.315
 1727POPC   C3A25049   5.226   3.493   7.904
 1727POPC   C4A25050   5.169   3.609   7.471
 1727POPC   C1B25051   5.539   3.443   8.684
 1727POPC   C2B25052   5.684   3.354   8.235
 1727POPC   C3B25053   5.680   3.189   7.787
 1727POPC   C4B25054   5.569   3.327   7.316
 1728POPC   NC325055  23.401  40.261   9.487
 1728POPC   PO425056  23.917  39.761   9.498
 1728POPC   GL125057  23.766  40.019   9.147
 1728POPC   GL225058  23.955  40.292   9.011
 1728POPC   C1A25059  23.689  39.945   8.696
 1728POPC   D2A25060  23.562  39.790   8.275
 1728POPC   C3A25061  23.845  39.867   7.931
 1728POPC   C4A25062  23.959  39.886   7.502
 1728POPC   C1B25063  23.540  40.404   8.841
 1728POPC   C2B25064  23.366  40.267   8.451
 1728POPC   C3B25065  23.550  40.294   8.093
 1728POPC   C4B25066  23.432  40.126   7.760
 1729POPC   NC325067  10.752  35.246   9.520
 1729POPC   PO425068  10.037  35.245   9.542
 1729POPC   GL125069  10.346  35.151   9.199
 1729POPC   GL225070  10.528  35.473   9.121
 1729POPC   C1A25071  10.668  35.010   8.880
 1729POPC   D2A25072  10.621  34.959   8.416
 1729POPC   C3A25073  10.476  35.314   8.170
 1729POPC   C4A25074  10.368  35.280   7.746
 1729POPC   C1B25075  10.491  35.457   8.683
 1729POPC   C2B25076  10.710  35.722   8.416
 1729POPC   C3B25077  10.768  35.748   8.016
 1729POPC   C4B25078  10.540  35.745   7.671
 1730POPC   NC325079  14.703  23.768   9.415
 1730POPC   PO425080  15.292  23.726   9.678
 1730POPC   GL125081  15.263  23.690   9.200
 1730POPC   GL225082  15.520  23.466   9.073
 1730POPC   C1A25083  15.038  23.693   8.749
 1730POPC   D2A25084  14.877  23.734   8.272
 1730POPC   C3A25085  15.010  23.409   7.910
 1730POPC   C4A25086  15.221  23.240   7.526
 1730POPC   C1B25087  15.540  23.603   8.623
 1730POPC   C2B25088  15.390  23.678   8.169
 1730POPC   C3B25089  15.146  23.897   7.836
 1730POPC   C4B25090  15.296  24.162   7.516
 1731POPC   NC325091  27.139   4.274   9.516
 1731POPC   PO425092  26.516   4.124   9.679
 1731POPC   GL125093  26.591   4.100   9.209
 1731POPC   GL225094  26.763   4.416   9.193
 1731POPC   C1A25095  26.521   4.227   8.745
 1731POPC   D2A25096  26.672   4.497   8.379
 1731POPC   C3A25097  26.694   4.239   7.980
 1731POPC   C4A25098  26.730   4.004   7.572
 1731POPC   C1B25099  26.995   4.436   8.821
 1731POPC   C2B25100  27.157   4.307   8.432
 1731POPC   C3B25101  27.181   4.370   7.991
 1731POPC   C4B25102  27.020   4.476   7.589
 1732POPC   NC325103   5.684  19.388   9.445
 1732POPC   PO425104   6.256  19.021   9.298
 1732POPC   GL125105   5.918  18.911   9.010
 1732POPC   GL225106   5.563  18.944   8.917
 1732POPC   C1A25107   5.941  19.006   8.602
 1732POPC   D2A25108   5.954  19.255   8.282
 1732POPC   C3A25109   6.022  18.901   8.006
 1732POPC   C4A25110   6.185  18.908   7.596
 1732POPC   C1B25111   5.656  19.387   8.781
 1732POPC   C2B25112   5.522  19.528   8.377
 1732POPC   C3B25113   5.415  19.177   8.081
 1732POPC   C4B25114   5.599  18.921   7.717
 1733POPC   NC325115  30.094   1.926   9.400
 1733POPC   PO425116  29.572   2.414   9.448
 1733POPC   GL125117  29.797   2.248   9.081
 1733POPC   GL225118  30.158   2.272   9.039
 1733POPC   C1A25119  29.856   1.857   8.806
 1733POPC   D2A25120  29.999   1.770   8.399
 1733POPC   C3A25121  29.821   2.044   8.052
 1733POPC   C4A25122  29.803   1.951   7.597
 1733POPC   C1B25123  30.207   2.198   8.610
 1733POPC   C2B25124  30.407   2.041   8.251
 1733POPC   C3B25125  30.285   1.890   7.852
 1733POPC   C4B25126  30.194   2.281   7.692
 1734POPC   NC325127  44.488  30.608   9.517
 1734POPC   PO425128  44.934  31.158   9.547
 1734POPC   GL125129  44.906  30.932   9.152
 1734POPC   GL225130  44.617  30.694   9.035
 1734POPC   C1A25131  44.974  30.882   8.700
 1734POPC   D2A25132  44.895  31.136   8.328
 1734POPC   C3A25133  44.877  30.894   7.931
 1734POPC   C4A25134  44.713  30.961   7.500
 1734POPC   C1B25135  44.342  30.570   8.674
 1734POPC   C2B25136  44.428  30.617   8.209
 1734POPC   C3B25137  44.383  30.671   7.764
 1734POPC   C4B25138  44.497  30.505   7.345
 1735POPC   NC325139   4.369  41.126   9.391
 1735POPC   PO425140   4.733  40.531   9.509
 1735POPC   GL125141   4.519  40.719   9.140
 1735POPC   GL225142   4.723  40.999   9.045
 1735POPC   C1A25143   4.336  40.855   8.743
 1735POPC   D2A25144   4.281  40.921   8.310
 1735POPC   C3A25145   4.113  40.614   8.045
 1735POPC   C4A25146   4.161  40.743   7.662
 1735POPC   C1B25147   4.942  40.922   8.684
 1735POPC   C2B25148   4.834  41.114   8.305
 1735POPC   C3B25149   4.754  41.061   7.864
 1735POPC   C4B25150   4.646  41.172   7.423
 1736POPC   NC325151  29.164  22.160   9.894
 1736POPC   PO425152  29.047  22.689   9.486
 1736POPC   GL125153  29.245  22.387   9.164
 1736POPC   GL225154  29.128  22.043   9.235
 1736POPC   C1A25155  29.285  22.096   8.751
 1736POPC   D2A25156  29.180  21.836   8.393
 1736POPC   C3A25157  29.303  21.991   7.990
 1736POPC   C4A25158  29.115  22.208   7.637
 1736POPC   C1B25159  28.809  22.177   8.876
 1736POPC   C2B25160  28.762  22.135   8.398
 1736POPC   C3B25161  28.779  21.928   7.973
 1736POPC   C4B25162  28.645  22.037   7.528
 1737POPC   NC325163  12.526  40.855   9.397
 1737POPC   PO425164  13.149  40.483   9.410
 1737POPC   GL125165  12.898  40.701   9.055
 1737POPC   GL225166  12.558  40.628   8.924
 1737POPC   C1A25167  13.034  40.627   8.605
 1737POPC   D2A25168  12.759  40.567   8.283
 1737POPC   C3A25169  12.878  40.636   7.891
 1737POPC   C4A25170  12.919  41.053   7.813
 1737POPC   C1B25171  12.669  40.957   8.648
 1737POPC   C2B25172  12.598  41.090   8.242
 1737POPC   C3B25173  12.439  41.211   7.845
 1737POPC   C4B25174  12.533  40.982   7.446
 1738POPC   NC325175  43.732   4.563   9.564
 1738POPC   PO425176  43.692   5.212   9.643
 1738POPC   GL125177  43.650   4.979   9.247
 1738POPC   GL225178  43.940   4.793   9.154
 1738POPC   C1A25179  43.616   5.069   8.810
 1738POPC   D2A25180  43.659   5.321   8.415
 1738POPC   C3A25181  43.666   5.081   8.005
 1738POPC   C4A25182  43.846   5.142   7.607
 1738POPC   C1B25183  44.077   4.798   8.726
 1738POPC   C2B25184  44.034   4.913   8.298
 1738POPC   C3B25185  44.239   5.118   7.940
 1738POPC   C4B25186  44.345   5.099   7.504
 1739POPC   NC325187   9.378   7.342   9.360
 1739POPC   PO425188   8.828   7.763   9.392
 1739POPC   GL125189   9.143   7.731   9.063
 1739POPC   GL225190   9.272   7.421   8.889
 1739POPC   C1A25191   9.075   7.812   8.646
 1739POPC   D2A25192   8.938   7.728   8.223
 1739POPC   C3A25193   9.037   7.321   8.076
 1739POPC   C4A25194   9.129   7.249   7.657
 1739POPC   C1B25195   8.975   7.304   8.602
 1739POPC   C2B25196   8.617   7.368   8.413
 1739POPC   C3B25197   8.511   7.163   8.079
 1739POPC   C4B25198   8.630   7.300   7.701
 1740POPC   NC325199   2.988  13.407   9.483
 1740POPC   PO425200   2.817  12.747   9.724
 1740POPC   GL125201   2.881  12.881   9.271
 1740POPC   GL225202   2.674  13.143   9.168
 1740POPC   C1A25203   2.999  12.804   8.795
 1740POPC   D2A25204   3.274  12.625   8.447
 1740POPC   C3A25205   3.144  12.758   8.032
 1740POPC   C4A25206   2.836  12.632   7.699
 1740POPC   C1B25207   2.492  12.947   8.802
 1740POPC   C2B25208   2.418  12.579   8.514
 1740POPC   C3B25209   2.440  12.605   8.061
 1740POPC   C4B25210   2.465  12.986   7.776
 1741POPC   NC325211  30.491  21.229   9.640
 1741POPC   PO425212  31.030  21.655   9.563
 1741POPC   GL125213  30.888  21.497   9.180
 1741POPC   GL225214  30.543  21.389   9.174
 1741POPC   C1A25215  30.821  21.341   8.762
 1741POPC   D2A25216  30.803  21.477   8.355
 1741POPC   C3A25217  30.887  21.214   7.993
 1741POPC   C4A25218  30.805  21.410   7.580
 1741POPC   C1B25219  30.382  21.072   8.873
 1741POPC   C2B25220  30.516  21.056   8.428
 1741POPC   C3B25221  30.390  21.318   8.103
 1741POPC   C4B25222  30.293  21.374   7.720
 1742POPC   NC325223  44.059  37.085   9.742
 1742POPC   PO425224  43.569  36.673   9.443
 1742POPC   GL125225  43.897  36.874   9.160
 1742POPC   GL225226  44.158  37.091   9.225
 1742POPC   C1A25227  43.965  36.986   8.714
 1742POPC   D2A25228  43.643  37.045   8.374
 1742POPC   C3A25229  43.725  36.869   7.958
 1742POPC   C4A25230  43.888  36.833   7.562
 1742POPC   C1B25231  44.280  37.349   8.878
 1742POPC   C2B25232  44.339  37.271   8.452
 1742POPC   C3B25233  44.185  37.012   8.124
 1742POPC   C4B25234  44.188  37.218   7.738
 1743POPC   NC325235  26.864  36.216   9.530
 1743POPC   PO425236  26.947  35.598   9.672
 1743POPC   GL125237  26.943  35.809   9.244
 1743POPC   GL225238  26.606  35.943   9.189
 1743POPC   C1A25239  26.994  35.992   8.803
 1743POPC   D2A25240  26.921  36.289   8.461
 1743POPC   C3A25241  26.890  36.113   8.029
 1743POPC   C4A25242  26.878  36.006   7.577
 1743POPC   C1B25243  26.420  36.142   8.832
 1743POPC   C2B25244  26.447  36.133   8.395
 1743POPC   C3B25245  26.430  36.299   7.996
 1743POPC   C4B25246  26.382  36.077   7.641
 1744POPC   NC325247  24.727  20.091   9.481
 1744POPC   PO425248  24.110  19.817   9.444
 1744POPC   GL125249  24.427  19.824   9.130
 1744POPC   GL225250  24.707  19.631   9.222
 1744POPC   C1A25251  24.603  19.894   8.731
 1744POPC   D2A25252  24.806  20.030   8.365
 1744POPC   C3A25253  24.594  19.934   7.991
 1744POPC   C4A25254  24.692  20.085   7.613
 1744POPC   C1B25255  24.935  19.534   8.867
 1744POPC   C2B25256  25.005  19.551   8.435
 1744POPC   C3B25257  24.915  19.414   8.018
 1744POPC   C4B25258  24.690  19.545   7.667
 1745POPC   NC325259  19.882  34.831   9.391
 1745POPC   PO425260  19.642  34.280   9.744
 1745POPC   GL125261  19.622  34.363   9.275
 1745POPC   GL225262  19.908  34.238   9.079
 1745POPC   C1A25263  19.571  34.490   8.833
 1745POPC   D2A25264  19.764  34.433   8.417
 1745POPC   C3A25265  19.589  34.565   8.029
 1745POPC   C4A25266  19.670  34.605   7.593
 1745POPC   C1B25267  20.112  34.496   8.800
 1745POPC   C2B25268  20.264  34.598   8.413
 1745POPC   C3B25269  20.112  34.466   8.033
 1745POPC   C4B25270  20.173  34.574   7.625
 1746POPC   NC325271   9.597   8.904   9.487
 1746POPC   PO425272  10.168   8.559   9.455
 1746POPC   GL125273   9.975   8.942   9.165
 1746POPC   GL225274   9.631   8.921   8.995
 1746POPC   C1A25275   9.969   9.183   8.744
 1746POPC   D2A25276   9.649   9.071   8.466
 1746POPC   C3A25277   9.769   8.964   8.085
 1746POPC   C4A25278   9.913   9.108   7.713
 1746POPC   C1B25279   9.687   8.618   8.684
 1746POPC   C2B25280   9.575   8.532   8.305
 1746POPC   C3B25281   9.467   8.549   7.908
 1746POPC   C4B25282   9.629   8.606   7.484
 1747POPC   NC325283  37.938  33.785   9.504
 1747POPC   PO425284  38.505  34.056   9.451
 1747POPC   GL125285  38.416  33.813   9.135
 1747POPC   GL225286  38.296  33.519   9.236
 1747POPC   C1A25287  38.329  33.926   8.733
 1747POPC   D2A25288  38.602  33.928   8.415
 1747POPC   C3A25289  38.423  33.820   8.048
 1747POPC   C4A25290  38.673  33.728   7.731
 1747POPC   C1B25291  38.253  33.434   8.797
 1747POPC   C2B25292  38.084  33.576   8.377
 1747POPC   C3B25293  38.151  33.383   7.974
 1747POPC   C4B25294  38.352  33.349   7.573
 1748POPC   NC325295  33.163   7.770   9.621
 1748POPC   PO425296  32.883   8.415   9.582
 1748POPC   GL125297  33.002   8.359   9.163
 1748POPC   GL225298  32.753   8.586   9.091
 1748POPC   C1A25299  33.005   8.254   8.739
 1748POPC   D2A25300  33.231   8.101   8.407
 1748POPC   C3A25301  33.003   8.004   8.037
 1748POPC   C4A25302  33.172   7.986   7.599
 1748POPC   C1B25303  32.775   8.713   8.680
 1748POPC   C2B25304  32.837   8.485   8.305
 1748POPC   C3B25305  32.865   8.459   7.882
 1748POPC   C4B25306  32.947   8.417   7.426
 1749POPC   NC325307  19.589  14.851   9.556
 1749POPC   PO425308  19.913  15.504   9.489
 1749POPC   GL125309  19.858  15.129   9.174
 1749POPC   GL225310  19.524  15.017   9.089
 1749POPC   C1A25311  19.881  14.908   8.757
 1749POPC   D2A25312  19.977  15.105   8.356
 1749POPC   C3A25313  19.870  15.184   7.931
 1749POPC   C4A25314  19.623  15.461   7.729
 1749POPC   C1B25315  19.437  15.176   8.717
 1749POPC   C2B25316  19.473  14.872   8.414
 1749POPC   C3B25317  19.622  14.761   8.030
 1749POPC   C4B25318  19.574  14.898   7.615
 1750POPC   NC325319   7.423  24.182   9.547
 1750POPC   PO425320   7.196  24.724   9.273
 1750POPC   GL125321   7.484  24.561   9.006
 1750POPC   GL225322   7.360  24.239   9.048
 1750POPC   C1A25323   7.634  24.706   8.624
 1750POPC   D2A25324   7.495  24.774   8.217
 1750POPC   C3A25325   7.123  24.505   8.112
 1750POPC   C4A25326   7.322  24.298   7.809
 1750POPC   C1B25327   7.175  24.306   8.650
 1750POPC   C2B25328   7.489  24.267   8.353
 1750POPC   C3B25329   7.720  23.947   8.212
 1750POPC   C4B25330   7.494  23.829   7.858
 1751POPC   NC325331  39.449  30.043   9.524
 1751POPC   PO425332  38.896  29.634   9.599
 1751POPC   GL125333  39.113  29.815   9.210
 1751POPC   GL225334  39.170  30.152   9.124
 1751POPC   C1A25335  39.334  29.783   8.819
 1751POPC   D2A25336  39.358  29.522   8.486
 1751POPC   C3A25337  39.203  29.677   8.134
 1751POPC   C4A25338  39.245  29.606   7.736
 1751POPC   C1B25339  39.473  30.276   8.802
 1751POPC   C2B25340  39.490  30.078   8.376
 1751POPC   C3B25341  39.317  30.167   7.972
 1751POPC   C4B25342  39.422  30.438   7.649
 1752POPC   NC325343  22.456  37.761   9.471
 1752POPC   PO425344  21.970  37.279   9.544
 1752POPC   GL125345  21.931  37.401   9.113
 1752POPC   GL225346  22.136  37.721   9.060
 1752POPC   C1A25347  21.946  37.475   8.659
 1752POPC   D2A25348  21.942  37.870   8.423
 1752POPC   C3A25349  22.074  37.768   8.027
 1752POPC   C4A25350  22.029  37.551   7.624
 1752POPC   C1B25351  22.491  37.473   8.848
 1752POPC   C2B25352  22.672  37.488   8.422
 1752POPC   C3B25353  22.463  37.447   8.035
 1752POPC   C4B25354  22.523  37.620   7.609
 1753POPC   NC325355  10.037   7.145   9.711
 1753POPC   PO425356   9.634   7.723   9.470
 1753POPC   GL125357   9.795   7.531   9.112
 1753POPC   GL225358   9.879   7.207   9.223
 1753POPC   C1A25359   9.734   7.398   8.691
 1753POPC   D2A25360   9.437   7.553   8.386
 1753POPC   C3A25361   9.675   7.565   8.016
 1753POPC   C4A25362   9.502   7.600   7.645
 1753POPC   C1B25363  10.068   7.036   8.855
 1753POPC   C2B25364  10.148   7.027   8.401
 1753POPC   C3B25365  10.115   7.228   7.980
 1753POPC   C4B25366   9.868   7.261   7.603
 1754POPC   NC325367  27.861  28.236   9.334
 1754POPC   PO425368  28.516  28.441   9.554
 1754POPC   GL125369  28.646  28.398   9.147
 1754POPC   GL225370  28.859  28.671   9.072
 1754POPC   C1A25371  28.370  28.332   8.795
 1754POPC   D2A25372  28.126  28.086   8.488
 1754POPC   C3A25373  28.113  28.082   8.026
 1754POPC   C4A25374  28.303  28.324   7.639
 1754POPC   C1B25375  28.901  28.423   8.686
 1754POPC   C2B25376  28.947  28.416   8.221
 1754POPC   C3B25377  28.760  28.532   7.820
 1754POPC   C4B25378  28.752  28.669   7.382
 1755POPC   NC325379  12.248  14.704   9.411
 1755POPC   PO425380  11.816  14.237   9.523
 1755POPC   GL125381  12.035  14.278   9.145
 1755POPC   GL225382  12.360  14.206   9.122
 1755POPC   C1A25383  12.149  14.552   8.781
 1755POPC   D2A25384  12.345  14.484   8.377
 1755POPC   C3A25385  12.188  14.538   7.938
 1755POPC   C4A25386  11.943  14.208   7.717
 1755POPC   C1B25387  12.280  14.066   8.727
 1755POPC   C2B25388  12.481  13.981   8.355
 1755POPC   C3B25389  12.339  14.048   7.997
 1755POPC   C4B25390  12.497  14.214   7.650
 1756POPC   NC325391  25.768  40.341   9.623
 1756POPC   PO425392  25.311  40.024   9.346
 1756POPC   GL125393  25.558  40.400   9.128
 1756POPC   GL225394  25.941  40.434   9.137
 1756POPC   C1A25395  25.702  40.634   8.715
 1756POPC   D2A25396  25.972  40.739   8.335
 1756POPC   C3A25397  25.789  40.824   7.925
 1756POPC   C4A25398  25.661  40.629   7.573
 1756POPC   C1B25399  26.200  40.464   8.723
 1756POPC   C2B25400  26.365  40.424   8.266
 1756POPC   C3B25401  26.207  40.540   7.860
 1756POPC   C4B25402  26.359  40.678   7.468
 1757POPC   NC325403  38.704  35.092   9.462
 1757POPC   PO425404  38.510  35.740   9.482
 1757POPC   GL125405  38.617  35.497   9.145
 1757POPC   GL225406  38.324  35.284   9.135
 1757POPC   C1A25407  38.684  35.527   8.709
 1757POPC   D2A25408  38.559  35.341   8.325
 1757POPC   C3A25409  38.636  35.551   7.924
 1757POPC   C4A25410  38.658  35.281   7.565
 1757POPC   C1B25411  38.170  35.467   8.741
 1757POPC   C2B25412  38.059  35.470   8.293
 1757POPC   C3B25413  38.238  35.244   7.922
 1757POPC   C4B25414  38.210  35.517   7.595
 1758POPC   NC325415  24.073  42.635   9.401
 1758POPC   PO425416  23.443  42.282   9.468
 1758POPC   GL125417  23.581  42.110   9.116
 1758POPC   GL225418  23.927  42.131   9.203
 1758POPC   C1A25419  23.488  41.902   8.746
 1758POPC   D2A25420  23.433  42.122   8.361
 1758POPC   C3A25421  23.399  41.980   7.936
 1758POPC   C4A25422  23.409  42.266   7.553
 1758POPC   C1B25423  23.932  42.330   8.806
 1758POPC   C2B25424  23.944  42.204   8.390
 1758POPC   C3B25425  23.785  42.285   8.002
 1758POPC   C4B25426  23.900  42.469   7.650
 1759POPC   NC325427   4.800   1.496   9.343
 1759POPC   PO425428   5.401   1.395   9.508
 1759POPC   GL125429   5.209   1.170   9.129
 1759POPC   GL225430   4.856   1.195   8.949
 1759POPC   C1A25431   5.234   1.005   8.698
 1759POPC   D2A25432   4.942   1.172   8.413
 1759POPC   C3A25433   5.112   1.390   8.106
 1759POPC   C4A25434   5.094   1.439   7.686
 1759POPC   C1B25435   4.675   1.513   8.678
 1759POPC   C2B25436   4.613   1.635   8.239
 1759POPC   C3B25437   4.646   1.354   7.888
 1759POPC   C4B25438   4.865   1.003   7.858
 1760POPC   NC325439  12.227   9.236   9.529
 1760POPC   PO425440  12.146   9.946   9.460
 1760POPC   GL125441  12.012   9.624   9.133
 1760POPC   GL225442  11.651   9.640   9.107
 1760POPC   C1A25443  11.895   9.599   8.666
 1760POPC   D2A25444  12.057   9.787   8.284
 1760POPC   C3A25445  11.927   9.839   7.887
 1760POPC   C4A25446  11.954  10.262   7.817
 1760POPC   C1B25447  11.661  10.025   8.806
 1760POPC   C2B25448  11.679  10.149   8.363
 1760POPC   C3B25449  11.447  10.207   7.975
 1760POPC   C4B25450  11.546  10.066   7.556
 1761POPC   NC325451  30.828  24.967   9.437
 1761POPC   PO425452  30.314  25.473   9.481
 1761POPC   GL125453  30.625  25.363   9.183
 1761POPC   GL225454  30.441  25.050   9.086
 1761POPC   C1A25455  30.836  25.199   8.779
 1761POPC   D2A25456  30.987  25.165   8.333
 1761POPC   C3A25457  30.686  25.292   8.015
 1761POPC   C4A25458  30.792  25.439   7.641
 1761POPC   C1B25459  30.367  25.398   8.762
 1761POPC   C2B25460  30.625  25.562   8.438
 1761POPC   C3B25461  30.605  25.822   8.073
 1761POPC   C4B25462  30.427  25.769   7.692
 1762POPC   NC325463  36.903  38.832  10.000
 1762POPC   PO425464  37.061  38.281   9.689
 1762POPC   GL125465  37.009  38.333   9.209
 1762POPC   GL225466  36.787  38.642   9.169
 1762POPC   C1A25467  36.835  38.227   8.773
 1762POPC   D2A25468  36.958  38.086   8.326
 1762POPC   C3A25469  36.770  38.255   7.947
 1762POPC   C4A25470  36.938  38.408   7.542
 1762POPC   C1B25471  36.585  38.688   8.749
 1762POPC   C2B25472  36.727  38.564   8.347
 1762POPC   C3B25473  36.760  38.751   7.915
 1762POPC   C4B25474  36.518  38.683   7.568
 1763POPC   NC325475  37.117   6.762   9.407
 1763POPC   PO425476  37.558   6.329   9.332
 1763POPC   GL125477  37.535   6.764   9.109
 1763POPC   GL225478  37.847   6.943   9.094
 1763POPC   C1A25479  37.537   6.963   8.679
 1763POPC   D2A25480  37.753   6.861   8.270
 1763POPC   C3A25481  37.585   6.734   7.849
 1763POPC   C4A25482  37.396   6.536   7.449
 1763POPC   C1B25483  37.905   6.614   8.764
 1763POPC   C2B25484  38.077   6.469   8.368
 1763POPC   C3B25485  38.141   6.658   7.952
 1763POPC   C4B25486  38.238   6.788   7.503
 1764POPC   NC325487   1.122  18.381   9.546
 1764POPC   PO425488   1.647  17.971   9.413
 1764POPC   GL125489   1.371  18.227   9.125
 1764POPC   GL225490   0.992  18.295   9.086
 1764POPC   C1A25491   1.327  18.408   8.709
 1764POPC   D2A25492   1.451  18.178   8.342
 1764POPC   C3A25493   1.552  18.352   7.931
 1764POPC   C4A25494   1.351  18.333   7.493
 1764POPC   C1B25495   0.840  18.572   8.775
 1764POPC   C2B25496   0.972  18.529   8.340
 1764POPC   C3B25497   0.726  18.516   7.971
 1764POPC   C4B25498   0.857  18.463   7.519
 1765POPC   NC325499  27.763   9.233   9.887
 1765POPC   PO425500  27.228   8.946   9.524
 1765POPC   GL125501  27.607   8.919   9.153
 1765POPC   GL225502  27.925   9.200   9.197
 1765POPC   C1A25503  27.666   9.036   8.735
 1765POPC   D2A25504  27.437   9.249   8.410
 1765POPC   C3A25505  27.562   9.067   8.026
 1765POPC   C4A25506  27.440   9.040   7.599
 1765POPC   C1B25507  28.001   9.424   8.792
 1765POPC   C2B25508  27.947   9.303   8.359
 1765POPC   C3B25509  27.903   9.427   7.929
 1765POPC   C4B25510  27.834   9.402   7.462
 1766POPC   NC325511  36.255  11.734   9.537
 1766POPC   PO425512  35.936  11.130   9.403
 1766POPC   GL125513  36.186  11.400   9.145
 1766POPC   GL225514  36.096  11.719   9.062
 1766POPC   C1A25515  36.374  11.328   8.759
 1766POPC   D2A25516  36.185  11.020   8.473
 1766POPC   C3A25517  36.342  11.080   8.074
 1766POPC   C4A25518  36.214  11.107   7.694
 1766POPC   C1B25519  35.999  11.667   8.658
 1766POPC   C2B25520  36.231  11.544   8.305
 1766POPC   C3B25521  36.134  11.734   7.939
 1766POPC   C4B25522  36.182  11.614   7.530
 1767POPC   NC325523  25.604   7.189   9.551
 1767POPC   PO425524  25.009   7.467   9.498
 1767POPC   GL125525  25.275   7.417   9.129
 1767POPC   GL225526  25.582   7.554   9.203
 1767POPC   C1A25527  25.303   7.325   8.677
 1767POPC   D2A25528  24.976   7.185   8.432
 1767POPC   C3A25529  25.083   7.180   8.002
 1767POPC   C4A25530  25.142   7.548   7.747
 1767POPC   C1B25531  25.736   7.546   8.789
 1767POPC   C2B25532  25.639   7.663   8.380
 1767POPC   C3B25533  25.605   7.457   8.010
 1767POPC   C4B25534  25.597   7.622   7.594
 1768POPC   NC325535   6.155  37.107   9.372
 1768POPC   PO425536   6.701  36.704   9.537
 1768POPC   GL125537   6.443  36.751   9.158
 1768POPC   GL225538   6.769  36.811   9.048
 1768POPC   C1A25539   6.403  37.009   8.758
 1768POPC   D2A25540   6.680  37.105   8.409
 1768POPC   C3A25541   6.445  36.943   8.070
 1768POPC   C4A25542   6.540  36.943   7.647
 1768POPC   C1B25543   7.069  36.902   8.766
 1768POPC   C2B25544   7.177  36.748   8.373
 1768POPC   C3B25545   6.941  36.790   7.995
 1768POPC   C4B25546   6.959  36.611   7.569
 1769POPC   NC325547  42.930   2.569   9.538
 1769POPC   PO425548  43.414   2.987   9.535
 1769POPC   GL125549  43.273   2.687   9.194
 1769POPC   GL225550  42.979   2.894   9.127
 1769POPC   C1A25551  43.077   2.533   8.775
 1769POPC   D2A25552  43.229   2.425   8.326
 1769POPC   C3A25553  42.960   2.548   7.943
 1769POPC   C4A25554  42.962   2.485   7.466
 1769POPC   C1B25555  42.952   3.100   8.717
 1769POPC   C2B25556  43.077   2.909   8.330
 1769POPC   C3B25557  43.387   2.829   8.014
 1769POPC   C4B25558  43.201   2.908   7.611
 1770POPC   NC325559   3.615   0.697   9.550
 1770POPC   PO425560   3.160   0.150   9.536
 1770POPC   GL125561   3.493   0.253   9.240
 1770POPC   GL225562   3.361   0.582   9.127
 1770POPC   C1A25563   3.623   0.310   8.790
 1770POPC   D2A25564   3.299   0.460   8.461
 1770POPC   C3A25565   3.310   0.256   8.046
 1770POPC   C4A25566   3.701   0.293   7.851
 1770POPC   C1B25567   3.558   0.814   8.779
 1770POPC   C2B25568   3.421   0.970   8.375
 1770POPC   C3B25569   3.500   0.764   8.002
 1770POPC   C4B25570   3.365   0.588   7.617
 1771POPC   NC325571   3.033  22.946   9.949
 1771POPC   PO425572   3.308  22.532   9.513
 1771POPC   GL125573   3.385  22.726   9.097
 1771POPC   GL225574   3.541  23.067   9.101
 1771POPC   C1A25575   3.514  22.800   8.681
 1771POPC   D2A25576   3.640  23.089   8.383
 1771POPC   C3A25577   3.571  22.883   8.045
 1771POPC   C4A25578   3.428  22.719   7.683
 1771POPC   C1B25579   3.287  23.267   8.795
 1771POPC   C2B25580   3.299  23.480   8.439
 1771POPC   C3B25581   3.386  23.424   8.049
 1771POPC   C4B25582   3.462  23.231   7.693
 1772POPC   NC325583  34.177  44.807   9.582
 1772POPC   PO425584  33.782  44.226   9.495
 1772POPC   GL125585  33.908  44.543   9.222
 1772POPC   GL225586  33.687  44.850   9.272
 1772POPC   C1A25587  33.846  44.642   8.791
 1772POPC   D2A25588  33.669  44.479   8.411
 1772POPC   C3A25589  33.803  44.604   8.014
 1772POPC   C4A25590  34.060  44.794   7.730
 1772POPC   C1B25591  33.624   0.077   8.864
 1772POPC   C2B25592  33.662  44.999   8.432
 1772POPC   C3B25593  33.400  44.886   8.090
 1772POPC   C4B25594  33.588  44.964   7.679
 1773POPC   NC325595  23.514  28.653   9.473
 1773POPC   PO425596  24.180  28.723   9.489
 1773POPC   GL125597  23.933  28.380   9.214
 1773POPC   GL225598  23.613  28.182   9.296
 1773POPC   C1A25599  23.668  28.429   8.818
 1773POPC   D2A25600  23.553  28.499   8.343
 1773POPC   C3A25601  23.864  28.508   7.962
 1773POPC   C4A25602  23.752  28.322   7.548
 1773POPC   C1B25603  23.403  27.982   8.927
 1773POPC   C2B25604  23.532  27.894   8.488
 1773POPC   C3B25605  23.637  28.057   8.072
 1773POPC   C4B25606  23.382  28.003   7.729
 1774POPC   NC325607  23.170  22.372   9.318
 1774POPC   PO425608  22.673  21.973   9.438
 1774POPC   GL125609  22.711  22.187   9.042
 1774POPC   GL225610  22.846  22.536   8.967
 1774POPC   C1A25611  22.798  22.189   8.611
 1774POPC   D2A25612  23.131  22.001   8.435
 1774POPC   C3A25613  23.001  21.941   8.038
 1774POPC   C4A25614  23.100  22.102   7.692
 1774POPC   C1B25615  23.260  22.454   8.680
 1774POPC   C2B25616  23.412  22.397   8.223
 1774POPC   C3B25617  23.138  22.579   7.871
 1774POPC   C4B25618  23.070  22.508   7.403
 1775POPC   NC325619   7.618  40.435   9.392
 1775POPC   PO425620   7.649  39.858   9.710
 1775POPC   GL125621   7.471  39.927   9.280
 1775POPC   GL225622   7.153  39.800   9.292
 1775POPC   C1A25623   7.367  40.035   8.840
 1775POPC   D2A25624   7.432  39.783   8.464
 1775POPC   C3A25625   7.380  40.041   8.104
 1775POPC   C4A25626   7.576  40.149   7.742
 1775POPC   C1B25627   6.973  39.718   8.854
 1775POPC   C2B25628   6.964  39.987   8.475
 1775POPC   C3B25629   6.894  39.878   8.071
 1775POPC   C4B25630   7.105  39.893   7.666
 1776POPC   NC325631   0.484  26.140   9.583
 1776POPC   PO425632   0.490  25.490   9.554
 1776POPC   GL125633   0.598  25.807   9.215
 1776POPC   GL225634   0.334  25.959   9.090
 1776POPC   C1A25635   0.711  25.969   8.753
 1776POPC   D2A25636   0.337  25.824   8.515
 1776POPC   C3A25637   0.297  25.753   8.076
 1776POPC   C4A25638   0.548  25.782   7.740
 1776POPC   C1B25639   0.285  26.279   8.745
 1776POPC   C2B25640   0.565  26.381   8.409
 1776POPC   C3B25641   0.625  26.210   8.019
 1776POPC   C4B25642   0.256  26.211   7.787
 1777POPC   NC325643  17.654  44.373   9.609
 1777POPC   PO425644  17.161  44.796   9.663
 1777POPC   GL125645  17.276  44.785   9.185
 1777POPC   GL225646  17.623  44.736   9.071
 1777POPC   C1A25647  17.258  44.851   8.712
 1777POPC   D2A25648  17.552  44.926   8.327
 1777POPC   C3A25649  17.477  44.731   7.929
 1777POPC   C4A25650  17.393  44.829   7.476
 1777POPC   C1B25651  17.701  44.562   8.636
 1777POPC   C2B25652  17.604  44.282   8.290
 1777POPC   C3B25653  17.482  44.228   7.860
 1777POPC   C4B25654  17.707  44.447   7.563
 1778POPC   NC325655  15.682  41.523   9.389
 1778POPC   PO425656  16.146  41.942   9.533
 1778POPC   GL125657  16.075  41.790   9.134
 1778POPC   GL225658  16.055  41.419   9.083
 1778POPC   C1A25659  15.849  41.814   8.747
 1778POPC   D2A25660  15.677  41.859   8.313
 1778POPC   C3A25661  15.923  41.821   7.943
 1778POPC   C4A25662  15.778  41.704   7.554
 1778POPC   C1B25663  15.836  41.311   8.669
 1778POPC   C2B25664  15.843  41.358   8.201
 1778POPC   C3B25665  16.020  41.319   7.771
 1778POPC   C4B25666  16.175  41.460   7.329
 1779POPC   NC325667  16.445  37.424   9.400
 1779POPC   PO425668  16.764  38.007   9.490
 1779POPC   GL125669  16.528  37.847   9.145
 1779POPC   GL225670  16.825  37.698   8.998
 1779POPC   C1A25671  16.334  37.831   8.747
 1779POPC   D2A25672  16.577  37.742   8.391
 1779POPC   C3A25673  16.486  37.819   7.956
 1779POPC   C4A25674  16.907  37.731   7.846
 1779POPC   C1B25675  16.656  37.341   8.759
 1779POPC   C2B25676  16.455  37.246   8.373
 1779POPC   C3B25677  16.591  37.300   7.954
 1779POPC   C4B25678  16.665  37.391   7.534
 1780POPC   NC325679  20.604   0.078   9.580
 1780POPC   PO425680  20.090   0.530   9.510
 1780POPC   GL125681  20.425   0.476   9.240
 1780POPC   GL225682  20.269   0.146   9.198
 1780POPC   C1A25683  20.715   0.665   8.896
 1780POPC   D2A25684  20.726   0.521   8.448
 1780POPC   C3A25685  20.668   0.794   8.078
 1780POPC   C4A25686  20.391   0.653   7.743
 1780POPC   C1B25687  20.548   0.186   8.843
 1780POPC   C2B25688  20.417   0.080   8.442
 1780POPC   C3B25689  20.398   0.241   8.052
 1780POPC   C4B25690  20.677   0.166   7.709
 1781POPC   NC325691  43.005  23.956   9.374
 1781POPC   PO425692  43.344  23.429   9.525
 1781POPC   GL125693  43.157  23.512   9.110
 1781POPC   GL225694  43.228  23.839   8.948
 1781POPC   C1A25695  43.139  23.443   8.651
 1781POPC   D2A25696  42.889  23.430   8.281
 1781POPC   C3A25697  43.055  23.646   7.920
 1781POPC   C4A25698  43.498  23.575   7.847
 1781POPC   C1B25699  42.870  23.901   8.693
 1781POPC   C2B25700  42.993  24.017   8.296
 1781POPC   C3B25701  42.760  24.127   7.960
 1781POPC   C4B25702  42.697  23.897   7.609
 1782POPC   NC325703  40.947  31.824   9.323
 1782POPC   PO425704  40.759  31.182   9.514
 1782POPC   GL125705  40.663  31.350   9.140
 1782POPC   GL225706  41.010  31.392   9.074
 1782POPC   C1A25707  40.659  31.267   8.690
 1782POPC   D2A25708  40.749  31.461   8.279
 1782POPC   C3A25709  40.731  31.260   7.857
 1782POPC   C4A25710  40.779  31.581   7.510
 1782POPC   C1B25711  41.138  31.514   8.692
 1782POPC   C2B25712  41.398  31.510   8.332
 1782POPC   C3B25713  41.169  31.511   7.951
 1782POPC   C4B25714  41.189  31.301   7.531
 1783POPC   NC325715  30.429  35.160   9.523
 1783POPC   PO425716  30.896  35.574   9.445
 1783POPC   GL125717  30.720  35.495   9.069
 1783POPC   GL225718  30.787  35.156   9.123
 1783POPC   C1A25719  30.611  35.379   8.645
 1783POPC   D2A25720  30.395  35.476   8.265
 1783POPC   C3A25721  30.576  35.311   7.888
 1783POPC   C4A25722  30.544  35.420   7.451
 1783POPC   C1B25723  30.415  34.986   8.894
 1783POPC   C2B25724  30.178  35.100   8.548
 1783POPC   C3B25725  30.220  35.022   8.101
 1783POPC   C4B25726  30.129  35.149   7.666
 1784POPC   NC325727   3.521  40.971   9.408
 1784POPC   PO425728   4.121  40.733   9.453
 1784POPC   GL125729   3.935  40.763   9.081
 1784POPC   GL225730   3.914  41.128   9.111
 1784POPC   C1A25731   3.580  40.636   8.794
 1784POPC   D2A25732   3.279  40.442   8.472
 1784POPC   C3A25733   3.406  40.498   8.039
 1784POPC   C4A25734   3.243  40.861   7.794
 1784POPC   C1B25735   3.842  41.077   8.686
 1784POPC   C2B25736   3.732  40.882   8.314
 1784POPC   C3B25737   3.755  40.997   7.897
 1784POPC   C4B25738   3.689  40.942   7.479
 1785POPC   NC325739  27.956   0.500   9.384
 1785POPC   PO425740  28.535   0.663   9.513
 1785POPC   GL125741  28.453   0.326   9.219
 1785POPC   GL225742  28.233   0.033   9.303
 1785POPC   C1A25743  28.554   0.338   8.787
 1785POPC   D2A25744  28.573   0.610   8.433
 1785POPC   C3A25745  28.214   0.610   8.150
 1785POPC   C4A25746  28.308   0.661   7.722
 1785POPC   C1B25747  28.157   0.018   8.838
 1785POPC   C2B25748  28.247   0.148   8.398
 1785POPC   C3B25749  28.342   0.163   7.932
 1785POPC   C4B25750  28.078   0.221   7.547
 1786POPC   NC325751  13.754  28.926   9.376
 1786POPC   PO425752  14.173  29.387   9.534
 1786POPC   GL125753  13.926  29.401   9.098
 1786POPC   GL225754  13.675  29.150   8.949
 1786POPC   C1A25755  13.970  29.376   8.647
 1786POPC   D2A25756  13.702  29.159   8.363
 1786POPC   C3A25757  13.664  29.317   7.919
 1786POPC   C4A25758  13.786  29.293   7.443
 1786POPC   C1B25759  13.454  28.857   8.712
 1786POPC   C2B25760  13.352  28.684   8.329
 1786POPC   C3B25761  13.260  28.947   7.981
 1786POPC   C4B25762  13.362  29.058   7.564
 1787POPC   NC325763  41.459  14.038   9.279
 1787POPC   PO425764  41.687  13.403   9.486
 1787POPC   GL125765  41.646  13.551   9.090
 1787POPC   GL225766  41.888  13.793   9.119
 1787POPC   C1A25767  41.557  13.634   8.643
 1787POPC   D2A25768  41.515  13.967   8.304
 1787POPC   C3A25769  41.292  13.773   7.948
 1787POPC   C4A25770  41.407  13.362   7.756
 1787POPC   C1B25771  41.978  13.931   8.705
 1787POPC   C2B25772  41.995  13.671   8.349
 1787POPC   C3B25773  41.787  13.645   7.970
 1787POPC   C4B25774  41.651  13.814   7.543
 1788POPC   NC325775  18.634   5.359   9.539
 1788POPC   PO425776  18.326   4.754   9.503
 1788POPC   GL125777  18.185   4.911   9.116
 1788POPC   GL225778  18.458   5.103   9.114
 1788POPC   C1A25779  18.132   5.065   8.688
 1788POPC   D2A25780  18.335   5.277   8.349
 1788POPC   C3A25781  18.238   5.147   7.928
 1788POPC   C4A25782  18.311   5.350   7.547
 1788POPC   C1B25783  18.615   4.884   8.748
 1788POPC   C2B25784  18.611   4.833   8.308
 1788POPC   C3B25785  18.733   5.128   8.035
 1788POPC   C4B25786  18.793   5.166   7.619
 1789POPC   NC325787   1.993   0.220   9.396
 1789POPC   PO425788   1.826   0.781   9.729
 1789POPC   GL125789   1.830   0.714   9.275
 1789POPC   GL225790   2.197   0.616   9.174
 1789POPC   C1A25791   1.821   0.665   8.811
 1789POPC   D2A25792   1.938   0.398   8.443
 1789POPC   C3A25793   1.679   0.451   8.090
 1789POPC   C4A25794   1.538   0.107   7.769
 1789POPC   C1B25795   2.319   0.457   8.780
 1789POPC   C2B25796   2.444   0.564   8.374
 1789POPC   C3B25797   2.221   0.611   8.008
 1789POPC   C4B25798   2.041   0.261   7.806
 1790POPC   NC325799  23.768  43.588   9.392
 1790POPC   PO425800  23.170  43.761   9.570
 1790POPC   GL125801  23.522  44.100   9.324
 1790POPC   GL225802  23.885  44.055   9.164
 1790POPC   C1A25803  23.579  44.345   8.896
 1790POPC   D2A25804  23.702  44.114   8.513
 1790POPC   C3A25805  23.720  44.234   8.086
 1790POPC   C4A25806  23.748  43.958   7.759
 1790POPC   C1B25807  24.139  44.179   8.788
 1790POPC   C2B25808  24.197  44.081   8.330
 1790POPC   C3B25809  24.239  43.958   7.897
 1790POPC   C4B25810  24.241  44.236   7.543
 1791POPC   NC325811  41.097   8.551   9.586
 1791POPC   PO425812  41.718   8.151   9.778
 1791POPC   GL125813  41.639   8.157   9.279
 1791POPC   GL225814  41.266   8.223   9.217
 1791POPC   C1A25815  41.597   8.237   8.825
 1791POPC   D2A25816  41.529   7.953   8.456
 1791POPC   C3A25817  41.631   8.174   8.067
 1791POPC   C4A25818  41.704   8.095   7.648
 1791POPC   C1B25819  41.041   7.956   8.888
 1791POPC   C2B25820  40.910   7.971   8.466
 1791POPC   C3B25821  41.138   8.019   8.090
 1791POPC   C4B25822  41.256   7.871   7.677
 1792POPC   NC325823  42.392  44.196   9.645
 1792POPC   PO425824  42.313  44.883   9.472
 1792POPC   GL125825  42.346  44.502   9.210
 1792POPC   GL225826  41.986  44.339   9.247
 1792POPC   C1A25827  42.565  44.446   8.789
 1792POPC   D2A25828  42.524  44.617   8.330
 1792POPC   C3A25829  42.200  44.813   8.070
 1792POPC   C4A25830  42.247   0.111   7.712
 1792POPC   C1B25831  42.065  44.325   8.785
 1792POPC   C2B25832  42.322  44.162   8.424
 1792POPC   C3B25833  42.303  44.279   7.964
 1792POPC   C4B25834  41.881  44.349   7.856
 1793POPC   NC325835  11.750  42.131   9.465
 1793POPC   PO425836  11.024  42.259   9.532
 1793POPC   GL125837  11.304  42.315   9.243
 1793POPC   GL225838  11.382  41.985   9.107
 1793POPC   C1A25839  11.283  42.474   8.825
 1793POPC   D2A25840  11.263  42.279   8.406
 1793POPC   C3A25841  11.316  42.552   8.026
 1793POPC   C4A25842  11.081  42.639   7.652
 1793POPC   C1B25843  11.625  41.881   8.724
 1793POPC   C2B25844  11.727  41.934   8.297
 1793POPC   C3B25845  11.432  42.058   7.982
 1793POPC   C4B25846  11.416  42.262   7.597
 1794POPC   NC325847   7.196  44.326   9.479
 1794POPC   PO425848   7.484   0.004   9.460
 1794POPC   GL125849   7.422  44.644   9.167
 1794POPC   GL225850   7.143  44.681   8.920
 1794POPC   C1A25851   7.463  44.286   8.857
 1794POPC   D2A25852   7.288  44.371   8.459
 1794POPC   C3A25853   7.466  44.561   8.101
 1794POPC   C4A25854   7.147  44.666   7.813
 1794POPC   C1B25855   7.563  44.769   8.713
 1794POPC   C2B25856   7.739  44.911   8.387
 1794POPC   C3B25857   7.728   0.113   8.011
 1794POPC   C4B25858   7.578  44.884   7.690
 1795POPC   NC325859  22.966  42.195   9.498
 1795POPC   PO425860  22.978  42.852   9.767
 1795POPC   GL125861  22.875  42.639   9.273
 1795POPC   GL225862  23.160  42.457   9.089
 1795POPC   C1A25863  22.864  42.691   8.775
 1795POPC   D2A25864  23.277  42.731   8.488
 1795POPC   C3A25865  23.314  42.528   8.056
 1795POPC   C4A25866  22.990  42.300   7.847
 1795POPC   C1B25867  23.060  42.186   8.734
 1795POPC   C2B25868  22.921  42.015   8.320
 1795POPC   C3B25869  22.594  42.009   7.996
 1795POPC   C4B25870  22.523  42.010   7.569
 1796POPC   NC325871   8.949   4.194   9.477
 1796POPC   PO425872   8.772   4.812   9.324
 1796POPC   GL125873   8.937   4.521   9.065
 1796POPC   GL225874   8.620   4.348   9.135
 1796POPC   C1A25875   9.148   4.515   8.656
 1796POPC   D2A25876   9.141   4.584   8.188
 1796POPC   C3A25877   9.099   4.310   7.831
 1796POPC   C4A25878   9.323   4.226   7.423
 1796POPC   C1B25879   8.555   4.358   8.728
 1796POPC   C2B25880   8.793   4.244   8.409
 1796POPC   C3B25881   8.667   4.419   8.067
 1796POPC   C4B25882   8.490   4.198   7.807
 1797POPC   NC325883   7.566  32.900   9.634
 1797POPC   PO425884   7.186  33.391   9.489
 1797POPC   GL125885   7.416  33.077   9.197
 1797POPC   GL225886   7.238  33.182   8.993
 1797POPC   C1A25887   7.544  32.861   8.782
 1797POPC   D2A25888   7.442  33.154   8.434
 1797POPC   C3A25889   7.280  32.965   8.061
 1797POPC   C4A25890   7.276  32.767   7.656
 1797POPC   C1B25891   7.313  33.510   8.782
 1797POPC   C2B25892   7.213  33.625   8.391
 1797POPC   C3B25893   7.214  33.467   8.005
 1797POPC   C4B25894   7.224  33.271   7.603
 1798POPC   NC325895  27.298  36.637   9.373
 1798POPC   PO425896  27.784  36.999   9.658
 1798POPC   GL125897  27.714  36.871   9.188
 1798POPC   GL225898  27.380  36.951   8.989
 1798POPC   C1A25899  27.774  36.693   8.759
 1798POPC   D2A25900  27.745  36.700   8.292
 1798POPC   C3A25901  27.752  36.812   7.838
 1798POPC   C4A25902  27.901  37.064   7.441
 1798POPC   C1B25903  27.268  36.658   8.637
 1798POPC   C2B25904  27.274  36.529   8.190
 1798POPC   C3B25905  27.254  36.645   7.748
 1798POPC   C4B25906  27.396  37.001   7.490
 1799POPC   NC325907  41.879  43.367   9.531
 1799POPC   PO425908  41.334  42.958   9.435
 1799POPC   GL125909  41.600  43.104   9.087
 1799POPC   GL225910  41.915  43.311   9.030
 1799POPC   C1A25911  41.571  42.951   8.674
 1799POPC   D2A25912  41.730  42.929   8.265
 1799POPC   C3A25913  41.416  43.022   7.969
 1799POPC   C4A25914  41.520  42.979   7.559
 1799POPC   C1B25915  41.710  43.472   8.676
 1799POPC   C2B25916  41.641  43.444   8.221
 1799POPC   C3B25917  41.866  43.251   7.861
 1799POPC   C4B25918  41.996  43.437   7.456
 1800POPC   NC325919  26.686  14.349   9.653
 1800POPC   PO425920  27.045  14.674   9.353
 1800POPC   GL125921  26.688  14.387   9.140
 1800POPC   GL225922  26.744  14.046   9.228
 1800POPC   C1A25923  26.566  14.113   8.765
 1800POPC   D2A25924  26.365  14.190   8.390
 1800POPC   C3A25925  26.677  14.231   8.078
 1800POPC   C4A25926  26.940  14.566   7.847
 1800POPC   C1B25927  27.068  14.097   8.920
 1800POPC   C2B25928  27.025  14.057   8.454
 1800POPC   C3B25929  27.188  14.172   8.037
 1800POPC   C4B25930  27.319  14.237   7.599
 1801POPC   NC325931   3.871  33.952   9.571
 1801POPC   PO425932   3.237  33.705   9.431
 1801POPC   GL125933   3.609  33.722   9.143
 1801POPC   GL225934   3.874  33.973   9.038
 1801POPC   C1A25935   3.499  33.598   8.738
 1801POPC   D2A25936   3.288  33.863   8.462
 1801POPC   C3A25937   3.518  33.856   8.097
 1801POPC   C4A25938   3.437  33.827   7.682
 1801POPC   C1B25939   4.026  33.674   8.689
 1801POPC   C2B25940   4.021  33.651   8.205
 1801POPC   C3B25941   3.971  33.872   7.784
 1801POPC   C4B25942   3.866  33.697   7.365
 1802POPC   NC325943  23.634  41.810   9.529
 1802POPC   PO425944  23.588  41.120   9.613
 1802POPC   GL125945  23.487  41.406   9.240
 1802POPC   GL225946  23.782  41.622   9.096
 1802POPC   C1A25947  23.460  41.344   8.787
 1802POPC   D2A25948  23.625  41.200   8.391
 1802POPC   C3A25949  23.374  41.197   8.030
 1802POPC   C4A25950  23.432  41.508   7.706
 1802POPC   C1B25951  23.977  41.816   8.759
 1802POPC   C2B25952  23.833  41.694   8.368
 1802POPC   C3B25953  23.915  41.790   7.961
 1802POPC   C4B25954  23.788  41.951   7.571
 1803POPC   NC325955  21.162  17.208   9.572
 1803POPC   PO425956  21.708  17.672   9.410
 1803POPC   GL125957  21.320  17.550   9.156
 1803POPC   GL225958  21.265  17.205   9.091
 1803POPC   C1A25959  21.273  17.496   8.679
 1803POPC   D2A25960  21.654  17.322   8.454
 1803POPC   C3A25961  21.683  17.430   8.046
 1803POPC   C4A25962  21.441  17.618   7.724
 1803POPC   C1B25963  21.371  16.992   8.736
 1803POPC   C2B25964  21.231  17.053   8.339
 1803POPC   C3B25965  21.165  17.267   7.920
 1803POPC   C4B25966  21.297  17.249   7.415
 1804POPC   NC325967  25.982   8.114   9.581
 1804POPC   PO425968  26.516   7.925   9.231
 1804POPC   GL125969  26.098   8.190   9.087
 1804POPC   GL225970  25.791   8.011   9.041
 1804POPC   C1A25971  25.734   8.431   8.798
 1804POPC   D2A25972  25.871   8.527   8.390
 1804POPC   C3A25973  25.760   8.370   8.013
 1804POPC   C4A25974  26.130   8.300   7.803
 1804POPC   C1B25975  25.932   8.001   8.634
 1804POPC   C2B25976  26.105   8.063   8.267
 1804POPC   C3B25977  25.905   7.866   7.949
 1804POPC   C4B25978  26.031   7.864   7.564
 1805POPC   NC325979  42.355   5.123   9.969
 1805POPC   PO425980  42.113   4.989   9.352
 1805POPC   GL125981  42.439   5.075   8.993
 1805POPC   GL225982  42.331   5.409   8.875
 1805POPC   C1A25983  42.671   5.194   8.580
 1805POPC   D2A25984  42.677   4.989   8.199
 1805POPC   C3A25985  42.453   5.069   7.826
 1805POPC   C4A25986  42.490   4.890   7.415
 1805POPC   C1B25987  42.176   5.117   8.526
 1805POPC   C2B25988  42.038   5.198   8.104
 1805POPC   C3B25989  41.974   5.130   7.629
 1805POPC   C4B25990  42.038   5.146   7.178
 1806POPC   NC325991  20.039  26.624   9.521
 1806POPC   PO425992  19.571  27.105   9.444
 1806POPC   GL125993  19.751  26.829   9.147
 1806POPC   GL225994  19.482  26.633   9.073
 1806POPC   C1A25995  20.053  26.837   8.801
 1806POPC   D2A25996  20.139  27.066   8.424
 1806POPC   C3A25997  20.064  26.871   8.021
 1806POPC   C4A25998  19.928  27.053   7.650
 1806POPC   C1B25999  19.438  26.803   8.716
 1806POPC   C2B26000  19.671  26.842   8.348
 1806POPC   C3B26001  19.544  26.765   7.906
 1806POPC   C4B26002  19.677  26.666   7.453
 1807POPC   NC326003  36.442  24.320   9.737
 1807POPC   PO426004  36.126  24.858   9.450
 1807POPC   GL126005  36.279  24.709   9.092
 1807POPC   GL226006  35.924  24.724   8.941
 1807POPC   C1A26007  36.257  24.360   8.778
 1807POPC   D2A26008  36.045  24.299   8.389
 1807POPC   C3A26009  36.269  24.264   8.007
 1807POPC   C4A26010  36.057  24.220   7.628
 1807POPC   C1B26011  36.230  24.862   8.623
 1807POPC   C2B26012  36.305  24.762   8.199
 1807POPC   C3B26013  35.991  24.679   7.883
 1807POPC   C4B26014  36.003  24.694   7.386
 1808POPC   NC326015   8.399  42.134   9.263
 1808POPC   PO426016   7.991  41.513   9.293
 1808POPC   GL126017   8.104  41.791   9.052
 1808POPC   GL226018   8.463  41.678   9.092
 1808POPC   C1A26019   8.162  41.724   8.647
 1808POPC   D2A26020   8.115  41.400   8.367
 1808POPC   C3A26021   7.953  41.532   7.988
 1808POPC   C4A26022   8.063  41.929   7.827
 1808POPC   C1B26023   8.516  41.359   8.803
 1808POPC   C2B26024   8.632  41.457   8.423
 1808POPC   C3B26025   8.544  41.289   8.082
 1808POPC   C4B26026   8.436  41.583   7.801
 1809POPC   NC326027  24.960  18.789   9.463
 1809POPC   PO426028  25.644  19.068   9.596
 1809POPC   GL126029  25.558  19.182   9.165
 1809POPC   GL226030  25.206  19.167   9.091
 1809POPC   C1A26031  25.504  18.982   8.750
 1809POPC   D2A26032  25.289  19.100   8.399
 1809POPC   C3A26033  25.555  19.036   8.065
 1809POPC   C4A26034  25.593  19.024   7.663
 1809POPC   C1B26035  24.928  19.049   8.758
 1809POPC   C2B26036  24.777  19.058   8.352
 1809POPC   C3B26037  25.059  18.896   7.995
 1809POPC   C4B26038  25.090  19.092   7.607
 1810POPC   NC326039  11.417  34.334   9.484
 1810POPC   PO426040  10.936  34.808   9.515
 1810POPC   GL126041  11.040  34.689   9.085
 1810POPC   GL226042  11.375  34.686   9.113
 1810POPC   C1A26043  11.063  34.764   8.616
 1810POPC   D2A26044  11.077  34.860   8.151
 1810POPC   C3A26045  11.081  34.555   7.840
 1810POPC   C4A26046  11.089  34.390   7.404
 1810POPC   C1B26047  11.393  35.063   8.855
 1810POPC   C2B26048  11.494  35.035   8.387
 1810POPC   C3B26049  11.563  34.694   8.032
 1810POPC   C4B26050  11.489  34.627   7.552
 1811POPC   NC326051  15.115  16.381   9.941
 1811POPC   PO426052  15.422  16.732   9.468
 1811POPC   GL126053  15.295  16.693   9.029
 1811POPC   GL226054  15.381  16.314   8.918
 1811POPC   C1A26055  15.234  16.711   8.607
 1811POPC   D2A26056  14.874  16.725   8.374
 1811POPC   C3A26057  15.057  16.847   8.022
 1811POPC   C4A26058  14.878  16.910   7.686
 1811POPC   C1B26059  15.176  16.198   8.546
 1811POPC   C2B26060  15.264  16.393   8.157
 1811POPC   C3B26061  15.376  16.532   7.747
 1811POPC   C4B26062  15.569  16.523   7.312
 1812POPC   NC326063   9.922  20.208   9.426
 1812POPC   PO426064   9.280  19.823   9.487
 1812POPC   GL126065   9.571  19.990   9.114
 1812POPC   GL226066   9.625  19.705   8.917
 1812POPC   C1A26067   9.928  20.118   8.793
 1812POPC   D2A26068   9.907  20.108   8.359
 1812POPC   C3A26069  10.001  20.190   7.957
 1812POPC   C4A26070   9.700  20.057   7.655
 1812POPC   C1B26071   9.465  19.933   8.570
 1812POPC   C2B26072   9.433  19.892   8.106
 1812POPC   C3B26073   9.481  19.601   7.755
 1812POPC   C4B26074   9.345  19.364   7.366
 1813POPC   NC326075  23.186   6.317   9.493
 1813POPC   PO426076  22.628   5.852   9.487
 1813POPC   GL126077  22.956   5.907   9.204
 1813POPC   GL226078  22.800   6.177   9.117
 1813POPC   C1A26079  22.954   5.746   8.784
 1813POPC   D2A26080  23.220   5.818   8.411
 1813POPC   C3A26081  23.092   5.845   7.947
 1813POPC   C4A26082  23.051   5.776   7.474
 1813POPC   C1B26083  23.019   6.236   8.720
 1813POPC   C2B26084  22.870   6.172   8.307
 1813POPC   C3B26085  22.643   6.403   7.986
 1813POPC   C4B26086  22.767   6.154   7.667
 1814POPC   NC326087  33.323   1.431   9.422
 1814POPC   PO426088  33.819   1.035   9.720
 1814POPC   GL126089  33.772   1.200   9.258
 1814POPC   GL226090  33.791   1.549   9.197
 1814POPC   C1A26091  33.678   1.157   8.814
 1814POPC   D2A26092  33.612   1.308   8.410
 1814POPC   C3A26093  33.659   1.006   8.075
 1814POPC   C4A26094  33.784   1.138   7.674
 1814POPC   C1B26095  34.087   1.604   8.864
 1814POPC   C2B26096  34.105   1.568   8.412
 1814POPC   C3B26097  34.139   1.728   7.955
 1814POPC   C4B26098  34.075   1.536   7.556
 1815POPC   NC326099  40.466  40.030   9.509
 1815POPC   PO426100  41.018  40.397   9.498
 1815POPC   GL126101  40.931  40.105   9.103
 1815POPC   GL226102  40.557  40.024   9.009
 1815POPC   C1A26103  40.878  39.934   8.649
 1815POPC   D2A26104  40.457  39.837   8.490
 1815POPC   C3A26105  40.469  39.802   8.071
 1815POPC   C4A26106  40.730  39.946   7.739
 1815POPC   C1B26107  40.486  40.315   8.651
 1815POPC   C2B26108  40.348  40.300   8.262
 1815POPC   C3B26109  40.434  40.366   7.836
 1815POPC   C4B26110  40.365  40.149   7.470
 1816POPC   NC326111  33.060  36.618   9.514
 1816POPC   PO426112  32.623  37.185   9.350
 1816POPC   GL126113  32.817  36.840   9.085
 1816POPC   GL226114  33.134  36.648   9.025
 1816POPC   C1A26115  32.983  37.024   8.709
 1816POPC   D2A26116  32.697  37.103   8.386
 1816POPC   C3A26117  32.882  37.030   7.993
 1816POPC   C4A26118  32.906  37.192   7.585
 1816POPC   C1B26119  32.798  36.556   8.688
 1816POPC   C2B26120  32.990  36.653   8.334
 1816POPC   C3B26121  33.222  36.583   7.965
 1816POPC   C4B26122  33.022  36.673   7.579
 1817POPC   NC326123   4.816  12.264   9.411
 1817POPC   PO426124   5.059  11.577   9.456
 1817POPC   GL126125   5.028  11.750   9.042
 1817POPC   GL226126   4.705  11.826   9.073
 1817POPC   C1A26127   5.299  11.961   8.691
 1817POPC   D2A26128   5.570  11.804   8.357
 1817POPC   C3A26129   5.422  11.893   7.943
 1817POPC   C4A26130   5.033  12.034   7.913
 1817POPC   C1B26131   4.816  12.105   8.759
 1817POPC   C2B26132   4.817  12.143   8.352
 1817POPC   C3B26133   4.754  12.441   8.007
 1817POPC   C4B26134   4.580  12.783   7.774
 1818POPC   NC326135  12.794  29.203   9.336
 1818POPC   PO426136  13.446  29.277   9.376
 1818POPC   GL126137  13.171  29.247   9.008
 1818POPC   GL226138  13.062  28.910   9.008
 1818POPC   C1A26139  12.935  29.186   8.608
 1818POPC   D2A26140  12.835  28.928   8.255
 1818POPC   C3A26141  12.788  29.180   7.921
 1818POPC   C4A26142  13.133  29.431   7.826
 1818POPC   C1B26143  12.704  28.737   8.723
 1818POPC   C2B26144  12.424  28.642   8.352
 1818POPC   C3B26145  12.566  28.618   7.917
 1818POPC   C4B26146  12.918  28.759   7.650
 1819POPC   NC326147  23.010  25.499   9.489
 1819POPC   PO426148  22.708  24.873   9.483
 1819POPC   GL126149  22.818  25.138   9.145
 1819POPC   GL226150  22.647  25.450   9.139
 1819POPC   C1A26151  22.800  25.172   8.697
 1819POPC   D2A26152  23.054  25.158   8.320
 1819POPC   C3A26153  22.953  25.263   7.873
 1819POPC   C4A26154  22.821  25.006   7.480
 1819POPC   C1B26155  22.615  25.630   8.726
 1819POPC   C2B26156  22.659  25.499   8.318
 1819POPC   C3B26157  22.479  25.173   8.116
 1819POPC   C4B26158  22.454  25.266   7.710
 1820POPC   NC326159  15.571  17.177   9.560
 1820POPC   PO426160  14.982  17.501   9.428
 1820POPC   GL126161  15.077  17.539   9.049
 1820POPC   GL226162  15.445  17.552   9.057
 1820POPC   C1A26163  14.934  17.326   8.676
 1820POPC   D2A26164  14.694  17.236   8.315
 1820POPC   C3A26165  14.935  17.345   7.977
 1820POPC   C4A26166  15.379  17.257   7.927
 1820POPC   C1B26167  15.281  17.791   8.676
 1820POPC   C2B26168  15.517  17.818   8.283
 1820POPC   C3B26169  15.560  17.721   7.854
 1820POPC   C4B26170  15.113  17.796   7.795
 1821POPC   NC326171  23.704   2.102   9.610
 1821POPC   PO426172  24.187   2.060   9.148
 1821POPC   GL126173  23.758   1.871   9.118
 1821POPC   GL226174  23.379   1.952   9.225
 1821POPC   C1A26175  23.641   1.870   8.684
 1821POPC   D2A26176  23.900   2.062   8.350
 1821POPC   C3A26177  23.879   1.783   8.035
 1821POPC   C4A26178  23.935   1.841   7.615
 1821POPC   C1B26179  23.468   2.274   8.946
 1821POPC   C2B26180  23.490   2.338   8.508
 1821POPC   C3B26181  23.421   2.099   8.160
 1821POPC   C4B26182  23.634   2.206   7.819
 1822POPC   NC326183  14.306  10.359   9.513
 1822POPC   PO426184  14.496  11.032   9.651
 1822POPC   GL126185  14.426  10.797   9.265
 1822POPC   GL226186  14.607  10.969   9.024
 1822POPC   C1A26187  14.212  10.587   8.895
 1822POPC   D2A26188  14.347  10.380   8.489
 1822POPC   C3A26189  14.264  10.513   8.069
 1822POPC   C4A26190  14.239  10.387   7.638
 1822POPC   C1B26191  14.503  10.871   8.595
 1822POPC   C2B26192  14.693  10.777   8.230
 1822POPC   C3B26193  14.750  10.979   7.849
 1822POPC   C4B26194  14.740  10.827   7.436
 1823POPC   NC326195   0.262  13.544   9.615
 1823POPC   PO426196   0.680  14.028   9.713
 1823POPC   GL126197   0.662  13.612   9.339
 1823POPC   GL226198   0.328  13.734   9.155
 1823POPC   C1A26199   0.645  13.497   8.840
 1823POPC   D2A26200   0.433  13.688   8.424
 1823POPC   C3A26201   0.625  13.543   8.043
 1823POPC   C4A26202   0.618  13.565   7.613
 1823POPC   C1B26203   0.227  14.037   8.778
 1823POPC   C2B26204  44.951  13.999   8.474
 1823POPC   C3B26205   0.034  13.893   8.088
 1823POPC   C4B26206   0.297  13.915   7.768
 1824POPC   NC326207   2.224  43.655   9.619
 1824POPC   PO426208   1.673  43.341   9.535
 1824POPC   GL126209   1.845  43.661   9.230
 1824POPC   GL226210   2.256  43.714   9.135
 1824POPC   C1A26211   1.866  43.835   8.812
 1824POPC   D2A26212   1.977  43.650   8.421
 1824POPC   C3A26213   1.787  43.878   8.092
 1824POPC   C4A26214   1.741  43.699   7.713
 1824POPC   C1B26215   2.394  43.926   8.772
 1824POPC   C2B26216   2.289  44.042   8.360
 1824POPC   C3B26217   2.285  43.824   7.961
 1824POPC   C4B26218   2.129  44.033   7.607
 1825POPC   NC326219  25.343  19.421   9.581
 1825POPC   PO426220  25.049  19.938   9.767
 1825POPC   GL126221  25.157  19.924   9.265
 1825POPC   GL226222  25.339  19.664   9.133
 1825POPC   C1A26223  25.151  19.979   8.776
 1825POPC   D2A26224  25.334  19.998   8.344
 1825POPC   C3A26225  25.103  19.896   7.941
 1825POPC   C4A26226  25.104  19.776   7.480
 1825POPC   C1B26227  25.444  19.511   8.698
 1825POPC   C2B26228  25.456  19.528   8.204
 1825POPC   C3B26229  25.360  19.470   7.787
 1825POPC   C4B26230  25.447  19.413   7.329
 1826POPC   NC326231  25.347  30.313   9.494
 1826POPC   PO426232  25.176  29.643   9.610
 1826POPC   GL126233  25.248  29.819   9.216
 1826POPC   GL226234  25.611  29.799   9.223
 1826POPC   C1A26235  25.311  30.100   8.849
 1826POPC   D2A26236  25.281  29.950   8.414
 1826POPC   C3A26237  25.270  30.167   8.015
 1826POPC   C4A26238  25.565  30.135   7.665
 1826POPC   C1B26239  25.551  29.654   8.795
 1826POPC   C2B26240  25.675  29.591   8.373
 1826POPC   C3B26241  25.492  29.690   7.983
 1826POPC   C4B26242  25.581  29.541   7.589
 1827POPC   NC326243  11.408  14.004   9.572
 1827POPC   PO426244  11.907  13.591   9.713
 1827POPC   GL126245  11.673  13.644   9.251
 1827POPC   GL226246  11.307  13.782   9.134
 1827POPC   C1A26247  11.559  13.642   8.755
 1827POPC   D2A26248  11.298  13.523   8.412
 1827POPC   C3A26249  11.262  13.826   8.100
 1827POPC   C4A26250  11.498  13.949   7.726
 1827POPC   C1B26251  11.011  13.792   8.764
 1827POPC   C2B26252  10.798  13.596   8.388
 1827POPC   C3B26253  10.969  13.406   8.017
 1827POPC   C4B26254  11.076  13.657   7.656
 1828POPC   NC326255   2.427  39.970   9.319
 1828POPC   PO426256   2.981  40.327   9.422
 1828POPC   GL126257   2.905  40.034   9.110
 1828POPC   GL226258   3.071  39.695   9.054
 1828POPC   C1A26259   2.702  40.073   8.733
 1828POPC   D2A26260   2.909  39.990   8.398
 1828POPC   C3A26261   2.844  40.340   8.162
 1828POPC   C4A26262   2.728  40.251   7.775
 1828POPC   C1B26263   2.698  39.577   8.806
 1828POPC   C2B26264   2.398  39.678   8.503
 1828POPC   C3B26265   2.468  39.929   8.131
 1828POPC   C4B26266   2.367  39.902   7.698
 1829POPC   NC326267  41.887  27.054   9.399
 1829POPC   PO426268  42.582  27.007   9.458
 1829POPC   GL126269  42.600  26.759   9.121
 1829POPC   GL226270  42.235  26.776   9.125
 1829POPC   C1A26271  42.542  26.790   8.683
 1829POPC   D2A26272  42.665  27.007   8.333
 1829POPC   C3A26273  42.581  26.751   7.985
 1829POPC   C4A26274  42.385  26.874   7.591
 1829POPC   C1B26275  42.053  26.639   8.761
 1829POPC   C2B26276  42.159  26.505   8.371
 1829POPC   C3B26277  42.074  26.693   7.993
 1829POPC   C4B26278  41.874  26.807   7.619
 1830POPC   NC326279  32.042  29.232   9.421
 1830POPC   PO426280  32.168  28.594   9.440
 1830POPC   GL126281  32.162  28.905   9.034
 1830POPC   GL226282  32.399  29.126   9.061
 1830POPC   C1A26283  32.271  29.066   8.583
 1830POPC   D2A26284  32.524  28.930   8.259
 1830POPC   C3A26285  32.217  28.933   7.976
 1830POPC   C4A26286  32.185  29.042   7.587
 1830POPC   C1B26287  32.684  29.275   8.810
 1830POPC   C2B26288  32.643  29.475   8.433
 1830POPC   C3B26289  32.429  29.403   8.067
 1830POPC   C4B26290  32.554  29.363   7.666
 1831POPC   NC326291  22.326  36.980   9.689
 1831POPC   PO426292  22.065  36.378   9.632
 1831POPC   GL126293  22.056  36.733   9.279
 1831POPC   GL226294  22.317  37.020   9.197
 1831POPC   C1A26295  21.967  36.926   8.845
 1831POPC   D2A26296  21.856  36.893   8.390
 1831POPC   C3A26297  21.920  37.247   8.084
 1831POPC   C4A26298  21.949  37.043   7.689
 1831POPC   C1B26299  22.469  36.950   8.800
 1831POPC   C2B26300  22.289  37.139   8.445
 1831POPC   C3B26301  22.336  36.944   8.036
 1831POPC   C4B26302  22.439  37.125   7.638
 1832POPC   NC326303   0.777  10.097   9.554
 1832POPC   PO426304   1.333   9.743   9.714
 1832POPC   GL126305   1.141   9.829   9.293
 1832POPC   GL226306   1.385   9.989   9.048
 1832POPC   C1A26307   0.954   9.754   8.879
 1832POPC   D2A26308   0.956   9.657   8.450
 1832POPC   C3A26309   1.152   9.984   8.177
 1832POPC   C4A26310   1.260  10.055   7.744
 1832POPC   C1B26311   1.413   9.850   8.613
 1832POPC   C2B26312   1.413   9.505   8.288
 1832POPC   C3B26313   1.443   9.546   7.843
 1832POPC   C4B26314   1.684   9.828   7.596
 1833POPC   NC326315  43.881  10.562   9.698
 1833POPC   PO426316  44.348  10.139   9.728
 1833POPC   GL126317  44.100  10.294   9.311
 1833POPC   GL226318  43.868  10.636   9.208
 1833POPC   C1A26319  44.081  10.369   8.864
 1833POPC   D2A26320  44.268  10.406   8.494
 1833POPC   C3A26321  44.080  10.217   8.124
 1833POPC   C4A26322  44.072  10.510   7.801
 1833POPC   C1B26323  43.771  10.782   8.781
 1833POPC   C2B26324  43.775  10.516   8.411
 1833POPC   C3B26325  43.617  10.417   8.006
 1833POPC   C4B26326  43.584  10.598   7.626
 1834POPC   NC326327  20.945  16.505   9.564
 1834POPC   PO426328  21.515  16.911   9.473
 1834POPC   GL126329  21.446  16.690   9.131
 1834POPC   GL226330  21.302  16.416   9.199
 1834POPC   C1A26331  21.610  16.502   8.757
 1834POPC   D2A26332  21.760  16.496   8.327
 1834POPC   C3A26333  21.607  16.858   8.082
 1834POPC   C4A26334  21.354  16.859   7.724
 1834POPC   C1B26335  21.225  16.165   8.865
 1834POPC   C2B26336  21.189  16.196   8.437
 1834POPC   C3B26337  21.333  16.401   8.063
 1834POPC   C4B26338  21.245  16.391   7.639
 1835POPC   NC326339   9.981   4.704   9.584
 1835POPC   PO426340   9.364   4.407   9.455
 1835POPC   GL126341   9.698   4.371   9.158
 1835POPC   GL226342   9.948   4.087   9.079
 1835POPC   C1A26343   9.583   4.208   8.731
 1835POPC   D2A26344   9.372   4.150   8.333
 1835POPC   C3A26345   9.592   4.238   7.939
 1835POPC   C4A26346   9.877   4.448   7.691
 1835POPC   C1B26347  10.015   4.462   8.791
 1835POPC   C2B26348   9.928   4.460   8.378
 1835POPC   C3B26349  10.106   4.199   8.080
 1835POPC   C4B26350  10.009   3.935   7.751
 1836POPC   NC326351  34.428  14.809   9.292
 1836POPC   PO426352  34.558  14.282   9.612
 1836POPC   GL126353  34.597  14.279   9.139
 1836POPC   GL226354  34.328  14.050   9.032
 1836POPC   C1A26355  34.707  14.540   8.738
 1836POPC   D2A26356  34.982  14.658   8.362
 1836POPC   C3A26357  34.845  14.535   7.947
 1836POPC   C4A26358  34.409  14.632   7.760
 1836POPC   C1B26359  34.602  14.056   8.655
 1836POPC   C2B26360  34.581  14.201   8.228
 1836POPC   C3B26361  34.553  14.137   7.771
 1836POPC   C4B26362  34.625  13.896   7.376
 1837POPC   NC326363  12.588  10.797   9.422
 1837POPC   PO426364  13.027  11.354   9.572
 1837POPC   GL126365  12.809  11.236   9.222
 1837POPC   GL226366  13.082  11.047   9.130
 1837POPC   C1A26367  12.808  11.316   8.779
 1837POPC   D2A26368  12.595  11.161   8.409
 1837POPC   C3A26369  12.749  11.325   8.030
 1837POPC   C4A26370  12.688  11.076   7.644
 1837POPC   C1B26371  13.140  10.888   8.741
 1837POPC   C2B26372  13.093  11.104   8.394
 1837POPC   C3B26373  13.116  10.982   8.018
 1837POPC   C4B26374  13.147  11.297   7.705
 1838POPC   NC326375  31.541   7.784   9.437
 1838POPC   PO426376  31.318   7.168   9.563
 1838POPC   GL126377  31.425   7.187   9.145
 1838POPC   GL226378  31.520   7.501   9.030
 1838POPC   C1A26379  31.342   7.050   8.736
 1838POPC   D2A26380  31.579   6.930   8.424
 1838POPC   C3A26381  31.637   7.301   8.169
 1838POPC   C4A26382  31.547   7.351   7.765
 1838POPC   C1B26383  31.199   7.563   8.790
 1838POPC   C2B26384  31.037   7.667   8.425
 1838POPC   C3B26385  31.169   7.704   8.051
 1838POPC   C4B26386  31.279   7.784   7.656
 1839POPC   NC326387   9.533  36.375   9.480
 1839POPC   PO426388   9.879  36.889   9.791
 1839POPC   GL126389   9.816  36.846   9.323
 1839POPC   GL226390   9.541  36.702   9.090
 1839POPC   C1A26391   9.894  37.035   8.912
 1839POPC   D2A26392   9.876  36.809   8.554
 1839POPC   C3A26393   9.991  36.929   8.111
 1839POPC   C4A26394   9.932  36.784   7.658
 1839POPC   C1B26395   9.409  36.992   8.736
 1839POPC   C2B26396   9.533  37.081   8.296
 1839POPC   C3B26397   9.508  36.814   7.926
 1839POPC   C4B26398   9.498  36.971   7.499
 1840POPC   NC326399   9.925  24.757   9.288
 1840POPC   PO426400   9.503  24.239   9.402
 1840POPC   GL126401   9.716  24.355   9.039
 1840POPC   GL226402   9.550  24.678   8.948
 1840POPC   C1A26403   9.822  24.249   8.624
 1840POPC   D2A26404   9.528  24.287   8.312
 1840POPC   C3A26405   9.574  24.209   7.878
 1840POPC   C4A26406   9.989  24.107   7.656
 1840POPC   C1B26407   9.905  24.759   8.658
 1840POPC   C2B26408   9.979  24.619   8.262
 1840POPC   C3B26409   9.761  24.695   7.900
 1840POPC   C4B26410  10.081  24.837   7.631
 1841POPC   NC326411  20.512   4.765   9.613
 1841POPC   PO426412  19.847   5.168   9.627
 1841POPC   GL126413  19.868   5.177   9.198
 1841POPC   GL226414  19.938   4.833   9.206
 1841POPC   C1A26415  19.756   5.256   8.765
 1841POPC   D2A26416  19.493   5.211   8.382
 1841POPC   C3A26417  19.595   5.244   7.954
 1841POPC   C4A26418  19.934   5.377   7.726
 1841POPC   C1B26419  19.865   4.756   8.770
 1841POPC   C2B26420  19.965   4.978   8.363
 1841POPC   C3B26421  20.125   4.938   7.936
 1841POPC   C4B26422  20.106   4.658   7.566
 1842POPC   NC326423   9.174  34.030   9.628
 1842POPC   PO426424   8.788  33.511   9.450
 1842POPC   GL126425   8.743  33.634   9.093
 1842POPC   GL226426   9.108  33.595   9.039
 1842POPC   C1A26427   8.682  33.676   8.687
 1842POPC   D2A26428   8.945  33.558   8.380
 1842POPC   C3A26429   8.771  33.692   8.042
 1842POPC   C4A26430   8.943  33.658   7.687
 1842POPC   C1B26431   9.024  34.002   8.850
 1842POPC   C2B26432   9.020  34.069   8.390
 1842POPC   C3B26433   9.041  34.115   7.927
 1842POPC   C4B26434   8.921  34.120   7.492
 1843POPC   NC326435  20.662  28.747   9.427
 1843POPC   PO426436  20.884  29.362   9.623
 1843POPC   GL126437  20.827  29.210   9.227
 1843POPC   GL226438  20.458  29.217   9.206
 1843POPC   C1A26439  20.829  29.018   8.824
 1843POPC   D2A26440  20.658  29.062   8.417
 1843POPC   C3A26441  20.839  29.180   8.054
 1843POPC   C4A26442  20.841  29.020   7.603
 1843POPC   C1B26443  20.283  29.159   8.770
 1843POPC   C2B26444  20.162  29.072   8.347
 1843POPC   C3B26445  20.347  29.318   8.020
 1843POPC   C4B26446  20.307  29.197   7.606
 1844POPC   NC326447  23.878   0.077   9.577
 1844POPC   PO426448  23.446   0.575   9.495
 1844POPC   GL126449  23.679   0.331   9.161
 1844POPC   GL226450  24.080   0.301   9.169
 1844POPC   C1A26451  23.558   0.360   8.733
 1844POPC   D2A26452  23.655   0.594   8.391
 1844POPC   C3A26453  23.565   0.373   8.043
 1844POPC   C4A26454  23.749   0.454   7.658
 1844POPC   C1B26455  24.055   0.211   8.739
 1844POPC   C2B26456  23.863   0.061   8.382
 1844POPC   C3B26457  24.003   0.079   7.966
 1844POPC   C4B26458  24.242   0.384   7.736
 1845POPC   NC326459  32.580   8.724   9.737
 1845POPC   PO426460  32.002   8.988   9.457
 1845POPC   GL126461  32.142   9.088   9.029
 1845POPC   GL226462  31.970   8.803   8.866
 1845POPC   C1A26463  32.394   9.060   8.639
 1845POPC   D2A26464  32.573   9.341   8.314
 1845POPC   C3A26465  32.281   9.346   7.974
 1845POPC   C4A26466  32.111   9.050   7.669
 1845POPC   C1B26467  31.823   8.720   8.476
 1845POPC   C2B26468  32.055   8.920   8.167
 1845POPC   C3B26469  32.501   8.889   8.029
 1845POPC   C4B26470  32.503   8.715   7.618
 1846POPC   NC326471  30.072  12.340   9.535
 1846POPC   PO426472  29.722  11.892   9.309
 1846POPC   GL126473  30.063  12.096   9.100
 1846POPC   GL226474  30.294  11.880   9.108
 1846POPC   C1A26475  30.037  12.126   8.698
 1846POPC   D2A26476  29.679  12.032   8.441
 1846POPC   C3A26477  29.797  12.113   8.037
 1846POPC   C4A26478  30.207  12.236   7.871
 1846POPC   C1B26479  30.361  11.708   8.728
 1846POPC   C2B26480  30.105  11.715   8.385
 1846POPC   C3B26481  30.195  11.751   8.010
 1846POPC   C4B26482  29.879  11.674   7.747
 1847POPC   NC326483  37.930  31.208   9.455
 1847POPC   PO426484  37.321  31.494   9.657
 1847POPC   GL126485  37.506  31.510   9.196
 1847POPC   GL226486  37.855  31.578   9.119
 1847POPC   C1A26487  37.541  31.532   8.744
 1847POPC   D2A26488  37.674  31.190   8.443
 1847POPC   C3A26489  37.677  31.364   8.003
 1847POPC   C4A26490  37.442  31.552   7.681
 1847POPC   C1B26491  38.056  31.437   8.731
 1847POPC   C2B26492  38.125  31.334   8.298
 1847POPC   C3B26493  38.121  31.602   7.925
 1847POPC   C4B26494  37.958  31.514   7.530
 1848POPC   NC326495  36.748   7.326   9.550
 1848POPC   PO426496  36.641   6.699   9.482
 1848POPC   GL126497  36.701   7.063   9.115
 1848POPC   GL226498  36.927   7.397   9.077
 1848POPC   C1A26499  36.550   7.377   8.755
 1848POPC   D2A26500  36.754   7.660   8.415
 1848POPC   C3A26501  36.935   7.519   8.008
 1848POPC   C4A26502  36.782   7.420   7.589
 1848POPC   C1B26503  37.174   7.703   8.842
 1848POPC   C2B26504  37.238   7.775   8.393
 1848POPC   C3B26505  37.330   7.865   7.963
 1848POPC   C4B26506  37.253   7.660   7.543
 1849POPC   NC326507   2.394  31.612   9.327
 1849POPC   PO426508   3.102  31.646   9.460
 1849POPC   GL126509   2.872  31.622   9.079
 1849POPC   GL226510   2.652  31.325   8.958
 1849POPC   C1A26511   2.968  31.581   8.653
 1849POPC   D2A26512   3.084  31.391   8.298
 1849POPC   C3A26513   3.115  31.679   7.994
 1849POPC   C4A26514   2.827  31.775   7.686
 1849POPC   C1B26515   2.459  31.620   8.658
 1849POPC   C2B26516   2.646  31.712   8.264
 1849POPC   C3B26517   2.670  31.394   7.968
 1849POPC   C4B26518   2.443  31.372   7.582
 1850POPC   NC326519  24.123  44.265   9.612
 1850POPC   PO426520  23.597  44.665   9.589
 1850POPC   GL126521  23.663  44.802   9.183
 1850POPC   GL226522  23.912  44.568   9.207
 1850POPC   C1A26523  23.548  44.837   8.749
 1850POPC   D2A26524  23.459  44.557   8.403
 1850POPC   C3A26525  23.610  44.748   8.058
 1850POPC   C4A26526  23.575  44.980   7.696
 1850POPC   C1B26527  24.031  44.683   8.826
 1850POPC   C2B26528  23.981  44.551   8.425
 1850POPC   C3B26529  24.136  44.550   8.023
 1850POPC   C4B26530  23.932  44.625   7.646
 1851POPC   NC326531  31.013   1.773   9.640
 1851POPC   PO426532  30.458   2.269   9.454
 1851POPC   GL126533  30.634   2.045   9.118
 1851POPC   GL226534  30.802   1.703   9.169
 1851POPC   C1A26535  30.488   1.813   8.765
 1851POPC   D2A26536  30.501   1.559   8.412
 1851POPC   C3A26537  30.741   1.722   8.046
 1851POPC   C4A26538  30.661   1.607   7.595
 1851POPC   C1B26539  31.003   1.898   8.792
 1851POPC   C2B26540  30.870   2.179   8.489
 1851POPC   C3B26541  30.980   2.205   8.067
 1851POPC   C4B26542  30.975   2.011   7.675
 1852POPC   NC326543  15.423  26.372   9.566
 1852POPC   PO426544  15.372  27.008   9.380
 1852POPC   GL126545  15.144  26.820   9.098
 1852POPC   GL226546  15.333  26.564   9.106
 1852POPC   C1A26547  15.029  26.970   8.735
 1852POPC   D2A26548  15.216  27.011   8.362
 1852POPC   C3A26549  15.077  26.829   7.960
 1852POPC   C4A26550  15.148  26.872   7.513
 1852POPC   C1B26551  15.464  26.717   8.718
 1852POPC   C2B26552  15.590  26.501   8.378
 1852POPC   C3B26553  15.538  26.603   7.993
 1852POPC   C4B26554  15.624  26.892   7.702
 1853POPC   NC326555  17.860   3.789   9.391
 1853POPC   PO426556  18.509   3.771   9.526
 1853POPC   GL126557  18.451   3.648   9.116
 1853POPC   GL226558  18.109   3.495   9.041
 1853POPC   C1A26559  18.405   3.778   8.694
 1853POPC   D2A26560  18.202   3.623   8.330
 1853POPC   C3A26561  18.436   3.652   7.987
 1853POPC   C4A26562  18.550   3.593   7.596
 1853POPC   C1B26563  17.869   3.753   8.711
 1853POPC   C2B26564  17.726   3.775   8.256
 1853POPC   C3B26565  17.938   3.622   7.847
 1853POPC   C4B26566  18.094   3.571   7.403
 1854POPC   NC326567  14.820  44.548   9.712
 1854POPC   PO426568  15.446  44.266   9.524
 1854POPC   GL126569  15.232  44.459   9.202
 1854POPC   GL226570  14.879  44.350   9.192
 1854POPC   C1A26571  15.360  44.393   8.778
 1854POPC   D2A26572  15.220  44.627   8.430
 1854POPC   C3A26573  15.197  44.492   8.040
 1854POPC   C4A26574  15.216  44.885   7.833
 1854POPC   C1B26575  14.878  44.548   8.785
 1854POPC   C2B26576  14.711  44.759   8.427
 1854POPC   C3B26577  14.740  44.782   7.982
 1854POPC   C4B26578  14.553  44.607   7.629
 1855POPC   NC326579  34.404  27.041   9.879
 1855POPC   PO426580  35.022  26.851   9.562
 1855POPC   GL126581  34.941  26.827   9.081
 1855POPC   GL226582  34.648  26.600   9.022
 1855POPC   C1A26583  34.924  26.791   8.622
 1855POPC   D2A26584  34.487  26.772   8.488
 1855POPC   C3A26585  34.331  26.763   8.045
 1855POPC   C4A26586  34.542  27.093   7.798
 1855POPC   C1B26587  34.793  26.285   8.732
 1855POPC   C2B26588  34.932  26.240   8.319
 1855POPC   C3B26589  34.785  26.533   8.021
 1855POPC   C4B26590  34.754  26.642   7.588
 1856POPC   NC326591  19.330  42.260   9.554
 1856POPC   PO426592  19.985  42.423   9.564
 1856POPC   GL126593  19.743  42.227   9.245
 1856POPC   GL226594  20.027  42.129   9.087
 1856POPC   C1A26595  19.582  42.184   8.812
 1856POPC   D2A26596  19.557  41.999   8.419
 1856POPC   C3A26597  19.628  42.315   8.139
 1856POPC   C4A26598  19.703  42.370   7.738
 1856POPC   C1B26599  20.019  41.932   8.719
 1856POPC   C2B26600  20.094  42.013   8.289
 1856POPC   C3B26601  19.858  41.909   7.945
 1856POPC   C4B26602  19.871  41.961   7.516
 1857POPC   NC326603  24.638   4.955   9.527
 1857POPC   PO426604  24.475   5.638   9.429
 1857POPC   GL126605  24.512   5.240   9.103
 1857POPC   GL226606  24.794   4.944   9.049
 1857POPC   C1A26607  24.351   5.152   8.669
 1857POPC   D2A26608  24.287   4.899   8.250
 1857POPC   C3A26609  24.357   5.160   7.893
 1857POPC   C4A26610  24.595   5.522   7.841
 1857POPC   C1B26611  24.869   5.185   8.700
 1857POPC   C2B26612  24.710   5.224   8.284
 1857POPC   C3B26613  24.829   4.994   7.917
 1857POPC   C4B26614  24.860   5.193   7.529
 1858POPC   NC326615  19.900   0.958   9.375
 1858POPC   PO426616  19.738   1.563   9.703
 1858POPC   GL126617  19.762   1.543   9.235
 1858POPC   GL226618  19.601   1.268   9.070
 1858POPC   C1A26619  19.758   1.695   8.804
 1858POPC   D2A26620  20.066   1.647   8.477
 1858POPC   C3A26621  19.873   1.473   8.079
 1858POPC   C4A26622  19.924   1.440   7.631
 1858POPC   C1B26623  19.695   1.172   8.649
 1858POPC   C2B26624  19.848   0.959   8.289
 1858POPC   C3B26625  19.872   0.961   7.846
 1858POPC   C4B26626  19.745   0.983   7.412
 1859POPC   NC326627   5.937  35.112   9.715
 1859POPC   PO426628   5.631  34.491   9.546
 1859POPC   GL126629   5.625  34.734   9.179
 1859POPC   GL226630   5.990  34.696   9.130
 1859POPC   C1A26631   5.669  34.675   8.735
 1859POPC   D2A26632   5.902  34.640   8.341
 1859POPC   C3A26633   5.674  34.584   7.937
 1859POPC   C4A26634   5.675  34.812   7.557
 1859POPC   C1B26635   6.066  34.361   8.790
 1859POPC   C2B26636   6.189  34.214   8.354
 1859POPC   C3B26637   6.147  34.369   7.923
 1859POPC   C4B26638   5.902  34.361   7.523
 1860POPC   NC326639  32.635  28.520   9.798
 1860POPC   PO426640  33.280  28.303   9.609
 1860POPC   GL126641  33.107  28.557   9.277
 1860POPC   GL226642  32.888  28.295   9.179
 1860POPC   C1A26643  33.038  28.641   8.807
 1860POPC   D2A26644  33.209  28.523   8.393
 1860POPC   C3A26645  32.998  28.499   7.974
 1860POPC   C4A26646  33.259  28.243   7.724
 1860POPC   C1B26647  32.833  28.117   8.773
 1860POPC   C2B26648  33.047  28.025   8.395
 1860POPC   C3B26649  32.924  27.979   7.991
 1860POPC   C4B26650  32.742  28.139   7.631
 1861POPC   NC326651   0.107   2.281   9.457
 1861POPC   PO426652   0.546   1.681   9.568
 1861POPC   GL126653   0.386   1.767   9.179
 1861POPC   GL226654   0.148   1.573   9.125
 1861POPC   C1A26655   0.509   1.987   8.793
 1861POPC   D2A26656   0.726   2.082   8.385
 1861POPC   C3A26657   0.531   1.939   7.985
 1861POPC   C4A26658   0.537   2.047   7.531
 1861POPC   C1B26659   0.062   1.558   8.751
 1861POPC   C2B26660   0.242   1.765   8.415
 1861POPC   C3B26661   0.090   1.649   8.031
 1861POPC   C4B26662   0.046   1.884   7.707
 1862POPC   NC326663  27.569  23.700   9.359
 1862POPC   PO426664  27.188  24.256   9.433
 1862POPC   GL126665  27.135  23.873   9.136
 1862POPC   GL226666  27.201  23.478   9.058
 1862POPC   C1A26667  27.348  23.856   8.743
 1862POPC   D2A26668  27.292  24.008   8.363
 1862POPC   C3A26669  27.275  23.705   8.067
 1862POPC   C4A26670  27.613  23.698   7.844
 1862POPC   C1B26671  27.547  23.380   8.735
 1862POPC   C2B26672  27.701  23.426   8.294
 1862POPC   C3B26673  27.966  23.335   7.912
 1862POPC   C4B26674  27.886  23.492   7.483
 1863POPC   NC326675  31.712  14.699   9.465
 1863POPC   PO426676  31.227  14.337   9.605
 1863POPC   GL126677  31.310  14.498   9.211
 1863POPC   GL226678  31.422  14.157   9.142
 1863POPC   C1A26679  31.531  14.587   8.822
 1863POPC   D2A26680  31.698  14.517   8.406
 1863POPC   C3A26681  31.374  14.530   8.091
 1863POPC   C4A26682  31.370  14.796   7.748
 1863POPC   C1B26683  31.573  14.112   8.727
 1863POPC   C2B26684  31.486  14.038   8.309
 1863POPC   C3B26685  31.574  14.088   7.886
 1863POPC   C4B26686  31.337  14.315   7.565
 1864POPC   NC326687   4.063  31.915   9.832
 1864POPC   PO426688   4.420  32.405   9.559
 1864POPC   GL126689   4.264  32.197   9.195
 1864POPC   GL226690   3.958  32.110   9.349
 1864POPC   C1A26691   4.227  32.301   8.749
 1864POPC   D2A26692   4.393  32.403   8.371
 1864POPC   C3A26693   4.217  32.658   8.099
 1864POPC   C4A26694   4.329  32.351   7.766
 1864POPC   C1B26695   3.804  32.074   8.927
 1864POPC   C2B26696   3.861  32.006   8.484
 1864POPC   C3B26697   3.972  32.199   8.098
 1864POPC   C4B26698   3.865  32.522   7.765
 1865POPC   NC326699  37.290  37.927   9.494
 1865POPC   PO426700  37.831  37.648   9.773
 1865POPC   GL126701  37.718  37.545   9.310
 1865POPC   GL226702  38.017  37.402   9.119
 1865POPC   C1A26703  37.606  37.643   8.861
 1865POPC   D2A26704  37.806  37.627   8.449
 1865POPC   C3A26705  37.545  37.641   8.091
 1865POPC   C4A26706  37.671  37.992   7.828
 1865POPC   C1B26707  37.808  37.186   8.736
 1865POPC   C2B26708  37.794  37.130   8.271
 1865POPC   C3B26709  37.978  37.406   7.933
 1865POPC   C4B26710  37.709  37.541   7.598
 1866POPC   NC326711  37.132  32.541   9.562
 1866POPC   PO426712  36.665  32.128   9.578
 1866POPC   GL126713  36.790  32.332   9.231
 1866POPC   GL226714  37.127  32.194   9.174
 1866POPC   C1A26715  36.744  32.203   8.836
 1866POPC   D2A26716  36.956  32.313   8.502
 1866POPC   C3A26717  36.855  32.226   8.116
 1866POPC   C4A26718  36.960  31.997   7.814
 1866POPC   C1B26719  37.174  32.577   8.882
 1866POPC   C2B26720  37.284  32.672   8.435
 1866POPC   C3B26721  37.301  32.451   8.067
 1866POPC   C4B26722  37.082  32.544   7.692
 1867POPC   NC326723  42.637  35.630   9.503
 1867POPC   PO426724  42.129  35.174   9.444
 1867POPC   GL126725  42.114  35.493   9.147
 1867POPC   GL226726  42.437  35.504   9.059
 1867POPC   C1A26727  41.994  35.515   8.733
 1867POPC   D2A26728  42.246  35.412   8.381
 1867POPC   C3A26729  42.092  35.447   8.022
 1867POPC   C4A26730  42.362  35.308   7.729
 1867POPC   C1B26731  42.475  35.718   8.703
 1867POPC   C2B26732  42.696  35.665   8.326
 1867POPC   C3B26733  42.559  35.733   7.915
 1867POPC   C4B26734  42.550  35.676   7.456
 1868POPC   NC326735  27.330   1.271   9.273
 1868POPC   PO426736  27.552   0.701   9.337
 1868POPC   GL126737  27.787   1.069   9.109
 1868POPC   GL226738  27.791   1.470   9.112
 1868POPC   C1A26739  27.768   1.213   8.671
 1868POPC   D2A26740  27.864   1.428   8.276
 1868POPC   C3A26741  27.599   1.233   7.977
 1868POPC   C4A26742  27.720   1.016   7.626
 1868POPC   C1B26743  27.875   1.732   8.697
 1868POPC   C2B26744  27.584   1.867   8.353
 1868POPC   C3B26745  27.627   1.762   7.912
 1868POPC   C4B26746  27.504   1.534   7.558
 1869POPC   NC326747  41.115  28.588   9.715
 1869POPC   PO426748  41.807  28.379   9.906
 1869POPC   GL126749  41.613  28.357   9.402
 1869POPC   GL226750  41.907  28.341   9.232
 1869POPC   C1A26751  41.578  28.395   8.854
 1869POPC   D2A26752  41.197  28.438   8.557
 1869POPC   C3A26753  41.171  28.496   8.098
 1869POPC   C4A26754  41.220  28.391   7.656
 1869POPC   C1B26755  42.039  28.584   8.841
 1869POPC   C2B26756  41.880  28.414   8.427
 1869POPC   C3B26757  41.654  28.312   8.030
 1869POPC   C4B26758  41.785  28.523   7.653
 1870POPC   NC326759  20.504  38.718   9.539
 1870POPC   PO426760  20.431  38.063   9.528
 1870POPC   GL126761  20.414  38.304   9.172
 1870POPC   GL226762  20.730  38.421   9.147
 1870POPC   C1A26763  20.394  38.493   8.763
 1870POPC   D2A26764  20.649  38.486   8.365
 1870POPC   C3A26765  20.427  38.474   7.960
 1870POPC   C4A26766  20.481  38.650   7.533
 1870POPC   C1B26767  20.858  38.706   8.843
 1870POPC   C2B26768  20.878  38.917   8.465
 1870POPC   C3B26769  21.007  38.758   8.050
 1870POPC   C4B26770  20.912  38.483   7.713
 1871POPC   NC326771  24.830  37.030   9.504
 1871POPC   PO426772  24.353  36.559   9.595
 1871POPC   GL126773  24.342  36.893   9.200
 1871POPC   GL226774  24.651  37.096   9.060
 1871POPC   C1A26775  24.492  36.771   8.745
 1871POPC   D2A26776  24.627  36.876   8.363
 1871POPC   C3A26777  24.471  36.652   8.005
 1871POPC   C4A26778  24.551  36.842   7.664
 1871POPC   C1B26779  24.795  37.383   8.758
 1871POPC   C2B26780  24.731  37.460   8.331
 1871POPC   C3B26781  24.604  37.235   7.987
 1871POPC   C4B26782  24.756  37.290   7.553
 1872POPC   NC326783  34.131   1.365   9.578
 1872POPC   PO426784  34.621   0.891   9.464
 1872POPC   GL126785  34.683   1.148   9.113
 1872POPC   GL226786  34.430   1.391   9.169
 1872POPC   C1A26787  34.629   1.323   8.703
 1872POPC   D2A26788  34.565   1.108   8.343
 1872POPC   C3A26789  34.727   1.216   7.966
 1872POPC   C4A26790  34.570   1.541   7.728
 1872POPC   C1B26791  34.173   1.093   8.915
 1872POPC   C2B26792  34.065   1.024   8.458
 1872POPC   C3B26793  34.145   1.216   8.038
 1872POPC   C4B26794  34.328   1.110   7.646
 1873POPC   NC326795   6.811  35.490   9.408
 1873POPC   PO426796   6.276  35.067   9.415
 1873POPC   GL126797   6.554  35.120   9.089
 1873POPC   GL226798   6.436  35.469   9.059
 1873POPC   C1A26799   6.596  35.221   8.639
 1873POPC   D2A26800   6.543  35.530   8.302
 1873POPC   C3A26801   6.675  35.313   7.926
 1873POPC   C4A26802   6.486  34.951   7.734
 1873POPC   C1B26803   6.180  35.575   8.709
 1873POPC   C2B26804   6.011  35.646   8.288
 1873POPC   C3B26805   6.177  35.443   7.938
 1873POPC   C4B26806   6.419  35.696   7.720
 1874POPC   NC326807  35.469  30.051   9.501
 1874POPC   PO426808  35.444  29.378   9.258
 1874POPC   GL126809  35.230  29.754   9.072
 1874POPC   GL226810  35.500  29.929   9.009
 1874POPC   C1A26811  35.186  29.926   8.625
 1874POPC   D2A26812  35.364  29.866   8.226
 1874POPC   C3A26813  35.226  30.170   7.919
 1874POPC   C4A26814  34.929  30.269   7.612
 1874POPC   C1B26815  35.699  29.803   8.641
 1874POPC   C2B26816  35.862  30.092   8.330
 1874POPC   C3B26817  35.724  30.089   7.901
 1874POPC   C4B26818  35.831  29.983   7.484
 1875POPC   NC326819  39.452  10.505   9.596
 1875POPC   PO426820  38.877  10.660   9.402
 1875POPC   GL126821  39.181  10.604   9.103
 1875POPC   GL226822  39.278  10.280   9.168
 1875POPC   C1A26823  39.134  10.659   8.661
 1875POPC   D2A26824  39.022  10.652   8.234
 1875POPC   C3A26825  39.269  10.690   7.876
 1875POPC   C4A26826  39.082  10.707   7.467
 1875POPC   C1B26827  39.248  10.141   8.771
 1875POPC   C2B26828  39.013  10.179   8.422
 1875POPC   C3B26829  39.214  10.209   8.033
 1875POPC   C4B26830  39.038  10.231   7.660
 1876POPC   NC326831  21.638   9.788   9.512
 1876POPC   PO426832  21.048   9.662   9.515
 1876POPC   GL126833  21.295   9.558   9.122
 1876POPC   GL226834  21.664   9.677   9.031
 1876POPC   C1A26835  21.369   9.531   8.661
 1876POPC   D2A26836  21.375   9.835   8.345
 1876POPC   C3A26837  21.277   9.646   7.936
 1876POPC   C4A26838  21.034   9.674   7.537
 1876POPC   C1B26839  21.547  10.083   8.818
 1876POPC   C2B26840  21.724  10.313   8.453
 1876POPC   C3B26841  21.660  10.137   8.067
 1876POPC   C4B26842  21.644   9.915   7.704
 1877POPC   NC326843  25.864  13.965   9.809
 1877POPC   PO426844  26.158  13.439   9.431
 1877POPC   GL126845  25.857  13.585   9.152
 1877POPC   GL226846  25.774  13.910   9.246
 1877POPC   C1A26847  25.775  13.442   8.748
 1877POPC   D2A26848  26.022  13.387   8.394
 1877POPC   C3A26849  25.842  13.454   8.025
 1877POPC   C4A26850  25.892  13.740   7.721
 1877POPC   C1B26851  25.880  13.977   8.786
 1877POPC   C2B26852  25.857  14.272   8.425
 1877POPC   C3B26853  25.869  14.147   8.016
 1877POPC   C4B26854  26.278  14.046   7.797
 1878POPC   NC326855  15.276  17.857   9.437
 1878POPC   PO426856  15.014  18.418   9.712
 1878POPC   GL126857  14.972  18.205   9.271
 1878POPC   GL226858  15.288  18.318   9.165
 1878POPC   C1A26859  14.964  18.232   8.785
 1878POPC   D2A26860  15.202  18.211   8.387
 1878POPC   C3A26861  15.019  18.284   7.991
 1878POPC   C4A26862  15.107  18.594   7.705
 1878POPC   C1B26863  15.423  18.538   8.780
 1878POPC   C2B26864  15.644  18.560   8.379
 1878POPC   C3B26865  15.511  18.526   7.994
 1878POPC   C4B26866  15.437  18.190   7.709
 1879POPC   NC326867  17.299  28.902   9.420
 1879POPC   PO426868  17.580  29.530   9.588
 1879POPC   GL126869  17.718  29.443   9.143
 1879POPC   GL226870  17.414  29.258   9.083
 1879POPC   C1A26871  17.728  29.215   8.702
 1879POPC   D2A26872  17.344  29.206   8.397
 1879POPC   C3A26873  17.387  29.395   7.996
 1879POPC   C4A26874  17.698  29.435   7.656
 1879POPC   C1B26875  17.371  28.864   8.788
 1879POPC   C2B26876  17.472  28.715   8.371
 1879POPC   C3B26877  17.598  28.930   8.012
 1879POPC   C4B26878  17.375  29.050   7.630
 1880POPC   NC326879  34.597  18.702   9.480
 1880POPC   PO426880  34.943  19.394   9.634
 1880POPC   GL126881  34.627  19.309   9.190
 1880POPC   GL226882  34.396  19.019   9.149
 1880POPC   C1A26883  34.687  19.096   8.758
 1880POPC   D2A26884  34.428  19.046   8.424
 1880POPC   C3A26885  34.565  19.212   8.025
 1880POPC   C4A26886  34.737  18.854   7.869
 1880POPC   C1B26887  34.458  18.624   8.843
 1880POPC   C2B26888  34.279  18.559   8.419
 1880POPC   C3B26889  34.266  18.773   8.043
 1880POPC   C4B26890  34.256  18.600   7.693
 1881POPC   NC326891  26.270  11.434   9.361
 1881POPC   PO426892  25.729  10.935   9.452
 1881POPC   GL126893  25.862  11.145   9.097
 1881POPC   GL226894  25.836  11.497   9.077
 1881POPC   C1A26895  26.099  11.093   8.723
 1881POPC   D2A26896  26.286  11.236   8.329
 1881POPC   C3A26897  26.109  11.140   7.908
 1881POPC   C4A26898  26.075  11.282   7.458
 1881POPC   C1B26899  25.956  11.577   8.636
 1881POPC   C2B26900  25.994  11.637   8.184
 1881POPC   C3B26901  25.780  11.517   7.794
 1881POPC   C4B26902  25.682  11.626   7.349
 1882POPC   NC326903  37.445  17.274   9.429
 1882POPC   PO426904  36.771  17.368   9.591
 1882POPC   GL126905  36.723  17.513   9.131
 1882POPC   GL226906  36.453  17.721   9.121
 1882POPC   C1A26907  36.683  17.330   8.686
 1882POPC   D2A26908  36.780  17.079   8.308
 1882POPC   C3A26909  36.901  17.411   7.997
 1882POPC   C4A26910  36.728  17.479   7.606
 1882POPC   C1B26911  36.681  17.844   8.735
 1882POPC   C2B26912  36.980  17.741   8.394
 1882POPC   C3B26913  37.179  17.941   8.020
 1882POPC   C4B26914  37.108  17.855   7.571
 1883POPC   NC326915  31.443   9.228   9.424
 1883POPC   PO426916  31.323   8.573   9.465
 1883POPC   GL126917  31.431   8.836   9.056
 1883POPC   GL226918  31.630   9.172   8.957
 1883POPC   C1A26919  31.333   8.951   8.613
 1883POPC   D2A26920  31.534   9.075   8.242
 1883POPC   C3A26921  31.388   8.835   7.941
 1883POPC   C4A26922  31.629   8.869   7.602
 1883POPC   C1B26923  31.486   9.453   8.590
 1883POPC   C2B26924  31.141   9.395   8.304
 1883POPC   C3B26925  31.223   9.317   7.869
 1883POPC   C4B26926  31.338   9.255   7.445
 1884POPC   NC326927  42.818  44.798   9.571
 1884POPC   PO426928  43.570  44.758   9.585
 1884POPC   GL126929  43.271  44.697   9.229
 1884POPC   GL226930  42.931  44.557   9.139
 1884POPC   C1A26931  43.277  44.733   8.772
 1884POPC   D2A26932  43.018  44.668   8.419
 1884POPC   C3A26933  43.142  44.808   8.001
 1884POPC   C4A26934  43.159  44.745   7.511
 1884POPC   C1B26935  42.797  44.924   8.836
 1884POPC   C2B26936  42.666   0.109   8.405
 1884POPC   C3B26937  42.678  44.994   7.941
 1884POPC   C4B26938  42.696   0.057   7.452
 1885POPC   NC326939  25.278  28.878   9.306
 1885POPC   PO426940  25.658  28.335   9.320
 1885POPC   GL126941  25.213  28.326   9.146
 1885POPC   GL226942  25.061  28.605   8.944
 1885POPC   C1A26943  25.202  28.188   8.736
 1885POPC   D2A26944  25.248  28.446   8.386
 1885POPC   C3A26945  25.203  28.202   8.029
 1885POPC   C4A26946  25.374  28.232   7.634
 1885POPC   C1B26947  24.765  28.436   8.606
 1885POPC   C2B26948  24.788  28.459   8.158
 1885POPC   C3B26949  24.913  28.487   7.717
 1885POPC   C4B26950  24.663  28.540   7.360
 1886POPC   NC326951  34.180  10.092   9.576
 1886POPC   PO426952  34.767   9.895   9.359
 1886POPC   GL126953  34.582   9.639   9.078
 1886POPC   GL226954  34.231   9.684   9.158
 1886POPC   C1A26955  34.645   9.787   8.692
 1886POPC   D2A26956  34.418  10.025   8.432
 1886POPC   C3A26957  34.608   9.973   8.037
 1886POPC   C4A26958  34.533   9.821   7.604
 1886POPC   C1B26959  34.190   9.556   8.720
 1886POPC   C2B26960  34.469   9.452   8.373
 1886POPC   C3B26961  34.456   9.457   7.951
 1886POPC   C4B26962  34.394   9.328   7.533
 1887POPC   NC326963  28.601   6.266   9.292
 1887POPC   PO426964  28.345   5.745   9.682
 1887POPC   GL126965  28.440   5.750   9.253
 1887POPC   GL226966  28.108   5.755   9.076
 1887POPC   C1A26967  28.547   5.857   8.814
 1887POPC   D2A26968  28.609   5.727   8.409
 1887POPC   C3A26969  28.675   5.985   8.078
 1887POPC   C4A26970  28.332   5.959   7.814
 1887POPC   C1B26971  28.119   5.645   8.613
 1887POPC   C2B26972  28.150   5.582   8.155
 1887POPC   C3B26973  27.913   5.532   7.742
 1887POPC   C4B26974  28.053   5.542   7.249
 1888POPC   NC326975  41.921   0.481  10.003
 1888POPC   PO426976  41.508   0.473   9.420
 1888POPC   GL126977  41.526   0.232   9.047
 1888POPC   GL226978  41.196   0.334   9.020
 1888POPC   C1A26979  41.641   0.312   8.604
 1888POPC   D2A26980  41.824   0.684   8.372
 1888POPC   C3A26981  41.631   0.715   7.951
 1888POPC   C4A26982  41.571   0.332   7.686
 1888POPC   C1B26983  41.182   0.539   8.663
 1888POPC   C2B26984  41.288   0.562   8.269
 1888POPC   C3B26985  41.099   0.426   7.899
 1888POPC   C4B26986  41.110   0.492   7.478
 1889POPC   NC326987  40.248  24.967   9.507
 1889POPC   PO426988  39.718  25.336   9.426
 1889POPC   GL126989  39.948  25.344   9.070
 1889POPC   GL226990  40.272  25.338   9.166
 1889POPC   C1A26991  40.142  25.522   8.716
 1889POPC   D2A26992  39.993  25.504   8.329
 1889POPC   C3A26993  40.134  25.153   8.137
 1889POPC   C4A26994  40.024  25.243   7.756
 1889POPC   C1B26995  40.314  25.002   8.852
 1889POPC   C2B26996  40.483  24.882   8.450
 1889POPC   C3B26997  40.444  24.750   8.009
 1889POPC   C4B26998  40.491  25.095   7.701
 1890POPC   NC326999  25.254  43.309   9.511
 1890POPC   PO427000  25.514  42.677   9.631
 1890POPC   GL127001  25.321  42.881   9.228
 1890POPC   GL227002  25.471  43.189   9.072
 1890POPC   C1A27003  25.294  42.816   8.764
 1890POPC   D2A27004  25.331  42.673   8.341
 1890POPC   C3A27005  25.099  42.834   7.998
 1890POPC   C4A27006  25.180  42.937   7.576
 1890POPC   C1B27007  25.167  43.312   8.752
 1890POPC   C2B27008  25.257  43.187   8.334
 1890POPC   C3B27009  25.431  43.243   7.916
 1890POPC   C4B27010  25.287  43.443   7.544
 1891POPC   NC327011  16.982  18.884   9.422
 1891POPC   PO427012  16.403  19.272   9.428
 1891POPC   GL127013  16.697  19.241   9.118
 1891POPC   GL227014  16.578  18.919   9.040
 1891POPC   C1A27015  16.645  19.238   8.650
 1891POPC   D2A27016  16.638  18.878   8.342
 1891POPC   C3A27017  16.423  18.946   7.959
 1891POPC   C4A27018  16.548  19.158   7.594
 1891POPC   C1B27019  16.934  18.820   8.773
 1891POPC   C2B27020  17.134  18.729   8.402
 1891POPC   C3B27021  17.040  18.718   7.981
 1891POPC   C4B27022  16.781  18.732   7.631
 1892POPC   NC327023  26.141  20.119   9.463
 1892POPC   PO427024  25.650  20.634   9.579
 1892POPC   GL127025  25.954  20.554   9.271
 1892POPC   GL227026  25.756  20.315   9.126
 1892POPC   C1A27027  26.148  20.416   8.840
 1892POPC   D2A27028  25.973  20.307   8.427
 1892POPC   C3A27029  26.109  20.551   8.045
 1892POPC   C4A27030  26.274  20.704   7.651
 1892POPC   C1B27031  25.770  20.749   8.852
 1892POPC   C2B27032  25.700  20.769   8.424
 1892POPC   C3B27033  25.642  20.767   8.003
 1892POPC   C4B27034  25.777  20.794   7.593
 1893POPC   NC327035   5.232  34.254   9.448
 1893POPC   PO427036   4.844  34.871   9.347
 1893POPC   GL127037   4.974  34.556   9.108
 1893POPC   GL227038   4.754  34.244   9.207
 1893POPC   C1A27039   5.160  34.695   8.722
 1893POPC   D2A27040   5.368  34.546   8.346
 1893POPC   C3A27041   5.196  34.315   7.999
 1893POPC   C4A27042   5.257  34.503   7.606
 1893POPC   C1B27043   4.872  34.229   8.747
 1893POPC   C2B27044   4.863  34.481   8.374
 1893POPC   C3B27045   4.896  34.710   7.990
 1893POPC   C4B27046   4.748  34.397   7.713
 1894POPC   NC327047  16.230  26.209   9.634
 1894POPC   PO427048  15.602  25.936   9.481
 1894POPC   GL127049  15.786  26.250   9.235
 1894POPC   GL227050  16.128  26.332   9.140
 1894POPC   C1A27051  15.687  26.295   8.847
 1894POPC   D2A27052  15.593  25.985   8.573
 1894POPC   C3A27053  15.630  26.033   8.142
 1894POPC   C4A27054  15.492  26.148   7.759
 1894POPC   C1B27055  16.059  25.959   8.857
 1894POPC   C2B27056  16.063  25.823   8.403
 1894POPC   C3B27057  16.051  25.788   7.942
 1894POPC   C4B27058  16.062  25.999   7.561
 1895POPC   NC327059  17.114  41.014   9.530
 1895POPC   PO427060  16.598  40.673   9.860
 1895POPC   GL127061  16.633  40.781   9.389
 1895POPC   GL227062  16.398  41.066   9.276
 1895POPC   C1A27063  16.745  40.918   8.952
 1895POPC   D2A27064  16.632  40.842   8.531
 1895POPC   C3A27065  16.897  40.949   8.225
 1895POPC   C4A27066  16.850  40.906   7.791
 1895POPC   C1B27067  16.282  41.082   8.800
 1895POPC   C2B27068  16.332  41.209   8.345
 1895POPC   C3B27069  16.331  40.923   7.965
 1895POPC   C4B27070  16.437  40.831   7.501
 1896POPC   NC327071  36.974  25.570   9.612
 1896POPC   PO427072  37.276  25.013   9.499
 1896POPC   GL127073  36.962  25.008   9.195
 1896POPC   GL227074  36.955  25.357   9.151
 1896POPC   C1A27075  36.727  25.056   8.797
 1896POPC   D2A27076  36.932  25.018   8.397
 1896POPC   C3A27077  36.749  25.022   7.985
 1896POPC   C4A27078  36.553  25.260   7.676
 1896POPC   C1B27079  36.827  25.575   8.798
 1896POPC   C2B27080  36.625  25.725   8.442
 1896POPC   C3B27081  36.799  25.555   8.059
 1896POPC   C4B27082  36.976  25.545   7.656
 1897POPC   NC327083  18.012  29.740   9.603
 1897POPC   PO427084  18.516  30.086   9.446
 1897POPC   GL127085  18.336  30.105   9.062
 1897POPC   GL227086  18.030  30.017   9.159
 1897POPC   C1A27087  18.093  30.134   8.672
 1897POPC   D2A27088  18.038  29.922   8.289
 1897POPC   C3A27089  18.420  29.879   8.045
 1897POPC   C4A27090  18.511  30.088   7.658
 1897POPC   C1B27091  18.133  29.658   8.886
 1897POPC   C2B27092  18.122  29.448   8.485
 1897POPC   C3B27093  17.955  29.464   8.079
 1897POPC   C4B27094  18.011  29.822   7.756
 1898POPC   NC327095  12.040  32.651   9.544
 1898POPC   PO427096  12.500  33.107   9.597
 1898POPC   GL127097  12.163  33.233   9.255
 1898POPC   GL227098  12.012  32.906   9.090
 1898POPC   C1A27099  11.988  33.347   8.824
 1898POPC   D2A27100  11.851  33.264   8.396
 1898POPC   C3A27101  12.098  33.281   7.997
 1898POPC   C4A27102  12.430  32.968   7.797
 1898POPC   C1B27103  11.722  32.759   8.777
 1898POPC   C2B27104  11.631  32.822   8.375
 1898POPC   C3B27105  11.969  32.806   8.099
 1898POPC   C4B27106  11.944  32.890   7.686
 1899POPC   NC327107  28.407  24.193   9.596
 1899POPC   PO427108  28.027  24.760   9.449
 1899POPC   GL127109  28.130  24.405   9.182
 1899POPC   GL227110  28.409  24.571   9.053
 1899POPC   C1A27111  28.230  24.196   8.753
 1899POPC   D2A27112  28.468  24.387   8.384
 1899POPC   C3A27113  28.404  24.224   8.020
 1899POPC   C4A27114  28.285  24.240   7.633
 1899POPC   C1B27115  28.150  24.713   8.712
 1899POPC   C2B27116  28.282  24.853   8.294
 1899POPC   C3B27117  28.176  24.701   7.883
 1899POPC   C4B27118  28.015  24.955   7.555
 1900POPC   NC327119  18.571  40.362   9.478
 1900POPC   PO427120  18.094  39.941   9.655
 1900POPC   GL127121  18.254  39.885   9.261
 1900POPC   GL227122  18.154  40.193   9.184
 1900POPC   C1A27123  18.328  39.828   8.822
 1900POPC   D2A27124  18.470  40.003   8.436
 1900POPC   C3A27125  18.462  39.738   8.073
 1900POPC   C4A27126  18.417  39.888   7.673
 1900POPC   C1B27127  18.185  40.323   8.753
 1900POPC   C2B27128  17.915  40.431   8.462
 1900POPC   C3B27129  17.943  40.269   8.081
 1900POPC   C4B27130  18.089  40.329   7.691
 1901POPC   NC327131  20.527  17.981   9.548
 1901POPC   PO427132  20.240  18.548   9.381
 1901POPC   GL127133  20.559  18.271   9.134
 1901POPC   GL227134  20.462  17.937   9.055
 1901POPC   C1A27135  20.783  18.176   8.748
 1901POPC   D2A27136  20.869  18.018   8.345
 1901POPC   C3A27137  20.841  18.361   8.086
 1901POPC   C4A27138  20.640  18.468   7.727
 1901POPC   C1B27139  20.286  17.990   8.689
 1901POPC   C2B27140  20.392  18.238   8.349
 1901POPC   C3B27141  20.355  18.106   7.979
 1901POPC   C4B27142  20.156  17.743   7.879
 1902POPC   NC327143   4.493  29.062   9.711
 1902POPC   PO427144   4.167  29.375   9.203
 1902POPC   GL127145   4.378  29.027   9.123
 1902POPC   GL227146   4.144  28.759   9.190
 1902POPC   C1A27147   4.485  29.129   8.703
 1902POPC   D2A27148   4.172  29.346   8.476
 1902POPC   C3A27149   4.332  29.274   8.102
 1902POPC   C4A27150   4.467  29.416   7.743
 1902POPC   C1B27151   4.425  28.617   8.845
 1902POPC   C2B27152   4.611  28.697   8.426
 1902POPC   C3B27153   4.563  28.821   8.014
 1902POPC   C4B27154   4.354  28.905   7.630
 1903POPC   NC327155  29.046   7.038   9.575
 1903POPC   PO427156  29.121   6.316   9.414
 1903POPC   GL127157  29.007   6.491   9.039
 1903POPC   GL227158  29.030   6.858   9.083
 1903POPC   C1A27159  29.248   6.628   8.643
 1903POPC   D2A27160  29.258   6.936   8.293
 1903POPC   C3A27161  29.162   6.775   7.858
 1903POPC   C4A27162  29.282   6.383   7.670
 1903POPC   C1B27163  28.771   6.798   8.689
 1903POPC   C2B27164  28.770   6.739   8.268
 1903POPC   C3B27165  28.789   7.095   8.003
 1903POPC   C4B27166  28.827   7.076   7.559
 1904POPC   NC327167  43.510  13.927   9.421
 1904POPC   PO427168  44.086  13.678   9.566
 1904POPC   GL127169  43.863  13.448   9.270
 1904POPC   GL227170  44.115  13.443   9.016
 1904POPC   C1A27171  43.625  13.515   8.892
 1904POPC   D2A27172  43.572  13.433   8.478
 1904POPC   C3A27173  43.754  13.654   8.136
 1904POPC   C4A27174  43.533  13.870   7.825
 1904POPC   C1B27175  44.131  13.265   8.591
 1904POPC   C2B27176  44.176  13.348   8.143
 1904POPC   C3B27177  44.264  13.230   7.720
 1904POPC   C4B27178  44.142  13.250   7.267
 1905POPC   NC327179   7.777   6.939   9.585
 1905POPC   PO427180   7.504   6.333   9.383
 1905POPC   GL127181   7.596   6.715   9.150
 1905POPC   GL227182   7.972   6.713   9.192
 1905POPC   C1A27183   7.420   6.928   8.778
 1905POPC   D2A27184   7.159   7.022   8.416
 1905POPC   C3A27185   7.407   6.925   8.064
 1905POPC   C4A27186   7.447   6.604   7.801
 1905POPC   C1B27187   7.981   6.921   8.824
 1905POPC   C2B27188   7.786   6.797   8.444
 1905POPC   C3B27189   7.903   6.757   8.042
 1905POPC   C4B27190   7.779   6.935   7.655
 1906POPC   NC327191  16.919  36.697   9.625
 1906POPC   PO427192  16.906  37.378   9.404
 1906POPC   GL127193  16.755  36.988   9.211
 1906POPC   GL227194  17.063  36.772   9.145
 1906POPC   C1A27195  16.507  36.799   8.880
 1906POPC   D2A27196  16.289  36.773   8.481
 1906POPC   C3A27197  16.604  36.796   8.144
 1906POPC   C4A27198  16.594  36.836   7.686
 1906POPC   C1B27199  16.997  36.930   8.725
 1906POPC   C2B27200  16.965  37.144   8.331
 1906POPC   C3B27201  17.038  37.005   7.919
 1906POPC   C4B27202  17.033  37.029   7.485
 1907POPC   NC327203  35.071  43.983   9.666
 1907POPC   PO427204  35.552  44.366   9.390
 1907POPC   GL127205  35.460  44.057   9.105
 1907POPC   GL227206  35.110  43.961   9.146
 1907POPC   C1A27207  35.530  43.723   8.803
 1907POPC   D2A27208  35.504  43.466   8.438
 1907POPC   C3A27209  35.585  43.727   8.055
 1907POPC   C4A27210  35.453  44.131   7.887
 1907POPC   C1B27211  34.986  44.091   8.736
 1907POPC   C2B27212  35.129  44.168   8.319
 1907POPC   C3B27213  35.085  43.821   8.056
 1907POPC   C4B27214  35.218  43.646   7.692
 1908POPC   NC327215  12.270  25.576   9.449
 1908POPC   PO427216  12.035  24.921   9.426
 1908POPC   GL127217  11.923  25.122   9.026
 1908POPC   GL227218  12.264  25.233   9.047
 1908POPC   C1A27219  12.119  25.069   8.583
 1908POPC   D2A27220  12.512  25.077   8.285
 1908POPC   C3A27221  12.376  25.185   7.839
 1908POPC   C4A27222  11.963  25.203   7.636
 1908POPC   C1B27223  12.119  25.561   8.765
 1908POPC   C2B27224  12.248  25.532   8.338
 1908POPC   C3B27225  12.106  25.620   7.948
 1908POPC   C4B27226  12.229  25.636   7.569
 1909POPC   NC327227  10.905  13.256   9.484
 1909POPC   PO427228  11.474  12.829   9.466
 1909POPC   GL127229  11.599  13.072   9.118
 1909POPC   GL227230  11.325  13.274   9.187
 1909POPC   C1A27231  11.457  12.925   8.741
 1909POPC   D2A27232  11.365  12.517   8.573
 1909POPC   C3A27233  11.278  12.603   8.172
 1909POPC   C4A27234  11.590  12.729   7.833
 1909POPC   C1B27235  11.115  13.299   8.823
 1909POPC   C2B27236  11.061  13.054   8.436
 1909POPC   C3B27237  11.379  13.094   8.139
 1909POPC   C4B27238  11.401  13.242   7.749
 1910POPC   NC327239  26.974  22.482   9.740
 1910POPC   PO427240  26.911  21.816   9.806
 1910POPC   GL127241  26.912  21.930   9.321
 1910POPC   GL227242  26.599  21.900   9.145
 1910POPC   C1A27243  26.963  22.128   8.868
 1910POPC   D2A27244  26.794  22.212   8.440
 1910POPC   C3A27245  26.987  22.149   8.049
 1910POPC   C4A27246  26.920  22.393   7.718
 1910POPC   C1B27247  26.438  22.045   8.759
 1910POPC   C2B27248  26.364  21.924   8.344
 1910POPC   C3B27249  26.541  21.877   7.933
 1910POPC   C4B27250  26.447  21.606   7.605
 1911POPC   NC327251   5.328  11.188   9.502
 1911POPC   PO427252   4.914  11.157   9.991
 1911POPC   GL127253   4.776  11.174   9.391
 1911POPC   GL227254   5.015  11.055   9.152
 1911POPC   C1A27255   4.727  11.347   8.886
 1911POPC   D2A27256   4.934  11.613   8.514
 1911POPC   C3A27257   4.811  11.557   8.041
 1911POPC   C4A27258   4.885  11.216   7.707
 1911POPC   C1B27259   5.251  11.318   8.855
 1911POPC   C2B27260   5.346  11.226   8.434
 1911POPC   C3B27261   5.285  11.412   8.065
 1911POPC   C4B27262   5.394  11.443   7.651
 1912POPC   NC327263  11.502  20.034   9.758
 1912POPC   PO427264  11.333  20.579   9.437
 1912POPC   GL127265  11.347  20.770   9.071
 1912POPC   GL227266  11.034  20.826   9.100
 1912POPC   C1A27267  11.386  20.646   8.639
 1912POPC   D2A27268  11.239  20.320   8.370
 1912POPC   C3A27269  11.397  20.225   7.974
 1912POPC   C4A27270  11.420  20.522   7.655
 1912POPC   C1B27271  10.919  20.945   8.709
 1912POPC   C2B27272  11.120  21.010   8.354
 1912POPC   C3B27273  11.230  20.835   8.005
 1912POPC   C4B27274  11.149  21.020   7.629
 1913POPC   NC327275  34.043  31.717   9.519
 1913POPC   PO427276  33.833  31.135   9.505
 1913POPC   GL127277  33.729  31.297   9.131
 1913POPC   GL227278  33.593  31.593   9.259
 1913POPC   C1A27279  33.932  31.268   8.710
 1913POPC   D2A27280  33.764  31.498   8.373
 1913POPC   C3A27281  33.867  31.720   8.043
 1913POPC   C4A27282  33.821  31.645   7.678
 1913POPC   C1B27283  33.550  31.667   8.817
 1913POPC   C2B27284  33.285  31.505   8.506
 1913POPC   C3B27285  33.336  31.548   8.046
 1913POPC   C4B27286  33.334  31.376   7.623
 1914POPC   NC327287   7.238  34.450   9.325
 1914POPC   PO427288   7.835  34.604   9.499
 1914POPC   GL127289   7.677  34.582   9.090
 1914POPC   GL227290   7.629  34.215   9.134
 1914POPC   C1A27291   7.434  34.537   8.677
 1914POPC   D2A27292   7.634  34.365   8.278
 1914POPC   C3A27293   7.708  34.709   8.039
 1914POPC   C4A27294   7.365  34.976   7.909
 1914POPC   C1B27295   7.804  34.220   8.748
 1914POPC   C2B27296   8.047  34.079   8.492
 1914POPC   C3B27297   8.055  34.112   8.055
 1914POPC   C4B27298   7.751  34.263   7.770
 1915POPC   NC327299   0.711  36.324   9.474
 1915POPC   PO427300   0.035  36.124   9.543
 1915POPC   GL127301   0.330  36.169   9.149
 1915POPC   GL227302   0.691  36.066   9.039
 1915POPC   C1A27303   0.296  36.323   8.720
 1915POPC   D2A27304   0.425  36.475   8.315
 1915POPC   C3A27305   0.136  36.319   7.996
 1915POPC   C4A27306   0.338  36.021   7.748
 1915POPC   C1B27307   0.713  36.055   8.597
 1915POPC   C2B27308   0.401  35.958   8.295
 1915POPC   C3B27309   0.718  35.841   8.040
 1915POPC   C4B27310   0.839  36.058   7.690
 1916POPC   NC327311   3.635  43.138  10.201
 1916POPC   PO427312   3.316  43.391   9.632
 1916POPC   GL127313   3.410  43.453   9.161
 1916POPC   GL227314   3.470  43.096   9.028
 1916POPC   C1A27315   3.668  43.474   8.752
 1916POPC   D2A27316   3.843  43.194   8.408
 1916POPC   C3A27317   3.647  43.250   7.986
 1916POPC   C4A27318   3.225  43.410   7.781
 1916POPC   C1B27319   3.295  42.831   8.684
 1916POPC   C2B27320   3.176  42.791   8.280
 1916POPC   C3B27321   3.273  42.900   7.878
 1916POPC   C4B27322   3.072  42.630   7.654
 1917POPC   NC327323  22.265  25.103   9.600
 1917POPC   PO427324  22.583  25.619   9.656
 1917POPC   GL127325  22.189  25.527   9.316
 1917POPC   GL227326  22.218  25.181   9.096
 1917POPC   C1A27327  22.056  25.603   8.857
 1917POPC   D2A27328  22.201  25.715   8.398
 1917POPC   C3A27329  22.130  25.594   7.926
 1917POPC   C4A27330  22.050  25.425   7.470
 1917POPC   C1B27331  22.286  25.224   8.622
 1917POPC   C2B27332  21.977  25.267   8.296
 1917POPC   C3B27333  21.989  25.121   7.885
 1917POPC   C4B27334  21.968  24.929   7.481
 1918POPC   NC327335  40.416  43.187   9.625
 1918POPC   PO427336  39.811  42.903   9.566
 1918POPC   GL127337  40.149  42.950   9.273
 1918POPC   GL227338  39.995  43.238   9.185
 1918POPC   C1A27339  40.179  42.805   8.842
 1918POPC   D2A27340  39.850  42.989   8.577
 1918POPC   C3A27341  39.816  43.035   8.134
 1918POPC   C4A27342  40.050  42.940   7.791
 1918POPC   C1B27343  39.805  43.422   8.805
 1918POPC   C2B27344  40.023  43.441   8.370
 1918POPC   C3B27345  39.970  43.480   7.917
 1918POPC   C4B27346  40.268  43.674   7.667
 1919POPC   NC327347  37.979  37.245   9.625
 1919POPC   PO427348  38.198  36.629   9.709
 1919POPC   GL127349  37.877  36.703   9.338
 1919POPC   GL227350  37.676  37.017   9.288
 1919POPC   C1A27351  37.612  36.722   8.886
 1919POPC   D2A27352  37.372  36.771   8.465
 1919POPC   C3A27353  37.559  36.699   8.040
 1919POPC   C4A27354  37.804  36.949   7.764
 1919POPC   C1B27355  37.355  37.187   8.992
 1919POPC   C2B27356  37.341  37.289   8.555
 1919POPC   C3B27357  37.287  37.164   8.125
 1919POPC   C4B27358  37.352  37.172   7.722
 1920POPC   NC327359  13.361  18.576   9.392
 1920POPC   PO427360  13.912  18.205   9.497
 1920POPC   GL127361  13.665  18.148   9.138
 1920POPC   GL227362  13.751  18.472   9.092
 1920POPC   C1A27363  13.500  18.232   8.714
 1920POPC   D2A27364  13.605  18.028   8.335
 1920POPC   C3A27365  13.601  18.044   7.915
 1920POPC   C4A27366  13.295  18.328   7.840
 1920POPC   C1B27367  14.015  18.475   8.788
 1920POPC   C2B27368  13.835  18.501   8.411
 1920POPC   C3B27369  13.939  18.541   8.020
 1920POPC   C4B27370  13.785  18.435   7.632
 1921POPC   NC327371   5.833   2.496   9.366
 1921POPC   PO427372   6.068   3.168   9.423
 1921POPC   GL127373   6.030   2.930   9.081
 1921POPC   GL227374   6.277   2.636   9.109
 1921POPC   C1A27375   5.740   2.966   8.723
 1921POPC   D2A27376   5.636   2.851   8.311
 1921POPC   C3A27377   6.032   2.967   8.104
 1921POPC   C4A27378   6.138   2.874   7.674
 1921POPC   C1B27379   6.004   2.522   8.739
 1921POPC   C2B27380   5.959   2.452   8.290
 1921POPC   C3B27381   5.797   2.565   7.892
 1921POPC   C4B27382   5.955   2.443   7.475
 1922POPC   NC327383   5.811  26.043   9.585
 1922POPC   PO427384   5.761  25.383   9.602
 1922POPC   GL127385   5.684  25.726   9.223
 1922POPC   GL227386   5.631  26.124   9.115
 1922POPC   C1A27387   5.745  25.734   8.791
 1922POPC   D2A27388   5.709  25.781   8.347
 1922POPC   C3A27389   6.048  25.800   8.050
 1922POPC   C4A27390   6.209  25.991   7.672
 1922POPC   C1B27391   5.736  26.252   8.729
 1922POPC   C2B27392   5.939  26.277   8.320
 1922POPC   C3B27393   5.757  26.205   7.917
 1922POPC   C4B27394   5.771  26.181   7.483
 1923POPC   NC327395  40.976  17.160   9.971
 1923POPC   PO427396  40.547  17.154   9.488
 1923POPC   GL127397  40.570  16.879   9.118
 1923POPC   GL227398  40.920  16.803   9.092
 1923POPC   C1A27399  40.641  16.717   8.687
 1923POPC   D2A27400  40.947  16.842   8.391
 1923POPC   C3A27401  40.739  16.767   7.998
 1923POPC   C4A27402  40.837  16.745   7.573
 1923POPC   C1B27403  41.089  16.465   8.782
 1923POPC   C2B27404  41.100  16.320   8.335
 1923POPC   C3B27405  41.178  16.479   7.904
 1923POPC   C4B27406  41.232  16.477   7.430
 1924POPC   NC327407   9.683  38.249   9.682
 1924POPC   PO427408  10.019  38.791   9.757
 1924POPC   GL127409   9.931  38.599   9.341
 1924POPC   GL227410   9.576  38.545   9.260
 1924POPC   C1A27411  10.009  38.345   8.952
 1924POPC   D2A27412  10.172  38.382   8.500
 1924POPC   C3A27413   9.883  38.324   8.136
 1924POPC   C4A27414   9.914  38.432   7.660
 1924POPC   C1B27415   9.662  38.708   8.838
 1924POPC   C2B27416   9.517  38.593   8.428
 1924POPC   C3B27417   9.676  38.765   8.062
 1924POPC   C4B27418   9.782  38.949   7.686
 1925POPC   NC327419  44.842  36.466   9.795
 1925POPC   PO427420  44.494  37.011   9.621
 1925POPC   GL127421  44.593  36.846   9.263
 1925POPC   GL227422  44.349  36.583   9.200
 1925POPC   C1A27423  44.531  36.923   8.844
 1925POPC   D2A27424  44.550  36.805   8.432
 1925POPC   C3A27425  44.681  37.062   8.036
 1925POPC   C4A27426  44.681  37.130   7.569
 1925POPC   C1B27427  44.264  36.507   8.766
 1925POPC   C2B27428  44.359  36.321   8.364
 1925POPC   C3B27429  44.539  36.539   8.023
 1925POPC   C4B27430  44.384  36.740   7.705
 1926POPC   NC327431  19.081  44.959   9.375
 1926POPC   PO427432  18.786  44.407   9.379
 1926POPC   GL127433  18.954  44.416   8.988
 1926POPC   GL227434  19.231  44.645   8.967
 1926POPC   C1A27435  18.970  44.419   8.577
 1926POPC   D2A27436  18.808  44.199   8.252
 1926POPC   C3A27437  18.861  44.486   7.944
 1926POPC   C4A27438  19.156  44.553   7.611
 1926POPC   C1B27439  19.457  44.800   8.621
 1926POPC   C2B27440  19.127  44.848   8.320
 1926POPC   C3B27441  19.120  44.935   7.934
 1926POPC   C4B27442  18.824   0.147   7.755
 1927POPC   NC327443  14.011  42.202   9.441
 1927POPC   PO427444  14.601  42.510   9.332
 1927POPC   GL127445  14.518  42.126   9.082
 1927POPC   GL227446  14.173  42.077   8.980
 1927POPC   C1A27447  14.583  42.197   8.649
 1927POPC   D2A27448  14.451  42.541   8.420
 1927POPC   C3A27449  14.516  42.452   7.992
 1927POPC   C4A27450  14.148  42.532   7.793
 1927POPC   C1B27451  14.176  41.883   8.588
 1927POPC   C2B27452  14.287  42.033   8.186
 1927POPC   C3B27453  14.219  42.014   7.751
 1927POPC   C4B27454  14.019  42.157   7.347
 1928POPC   NC327455  22.309   2.120   9.618
 1928POPC   PO427456  21.745   1.997   9.401
 1928POPC   GL127457  22.112   1.836   9.176
 1928POPC   GL227458  22.320   2.123   9.098
 1928POPC   C1A27459  22.099   1.746   8.730
 1928POPC   D2A27460  21.765   1.919   8.445
 1928POPC   C3A27461  21.910   1.860   8.021
 1928POPC   C4A27462  22.072   1.883   7.577
 1928POPC   C1B27463  22.568   2.405   8.828
 1928POPC   C2B27464  22.536   2.526   8.381
 1928POPC   C3B27465  22.612   2.358   7.944
 1928POPC   C4B27466  22.373   2.286   7.504
 1929POPC   NC327467  28.697  20.817   9.379
 1929POPC   PO427468  28.128  20.564   9.519
 1929POPC   GL127469  28.287  20.644   9.133
 1929POPC   GL227470  28.245  20.992   9.169
 1929POPC   C1A27471  28.403  20.795   8.723
 1929POPC   D2A27472  28.427  20.794   8.293
 1929POPC   C3A27473  28.442  20.440   8.087
 1929POPC   C4A27474  28.548  20.500   7.728
 1929POPC   C1B27475  27.936  21.052   8.853
 1929POPC   C2B27476  27.935  20.962   8.412
 1929POPC   C3B27477  28.024  20.797   7.979
 1929POPC   C4B27478  27.744  20.912   7.677
 1930POPC   NC327479   4.985  43.819   9.500
 1930POPC   PO427480   4.740  43.293   9.036
 1930POPC   GL127481   4.872  43.664   9.044
 1930POPC   GL227482   5.217  43.640   9.083
 1930POPC   C1A27483   4.974  44.018   8.817
 1930POPC   D2A27484   5.164  44.008   8.440
 1930POPC   C3A27485   5.117  44.216   8.102
 1930POPC   C4A27486   4.968  44.180   7.746
 1930POPC   C1B27487   5.363  43.589   8.686
 1930POPC   C2B27488   5.263  43.529   8.263
 1930POPC   C3B27489   5.258  43.724   7.880
 1930POPC   C4B27490   5.539  43.503   7.621
 1931POPC   NC327491  27.344  13.609   9.515
 1931POPC   PO427492  27.845  14.005   9.472
 1931POPC   GL127493  27.775  13.576   9.205
 1931POPC   GL227494  27.417  13.426   9.052
 1931POPC   C1A27495  27.853  13.435   8.776
 1931POPC   D2A27496  27.588  13.305   8.426
 1931POPC   C3A27497  27.777  13.503   8.057
 1931POPC   C4A27498  27.733  13.541   7.606
 1931POPC   C1B27499  27.410  13.733   8.726
 1931POPC   C2B27500  27.462  13.825   8.279
 1931POPC   C3B27501  27.327  13.731   7.829
 1931POPC   C4B27502  27.299  13.779   7.354
 1932POPC   NC327503  22.207   9.403   9.654
 1932POPC   PO427504  21.988   9.975   9.739
 1932POPC   GL127505  22.134   9.749   9.298
 1932POPC   GL227506  22.486   9.536   9.226
 1932POPC   C1A27507  22.169   9.781   8.852
 1932POPC   D2A27508  21.880   9.824   8.503
 1932POPC   C3A27509  22.070   9.826   8.105
 1932POPC   C4A27510  22.117   9.826   7.681
 1932POPC   C1B27511  22.441   9.352   8.786
 1932POPC   C2B27512  22.366   9.538   8.401
 1932POPC   C3B27513  22.336   9.405   7.961
 1932POPC   C4B27514  22.341   9.421   7.503
 1933POPC   NC327515   1.909  22.474   9.391
 1933POPC   PO427516   2.296  21.953   9.571
 1933POPC   GL127517   2.089  22.062   9.139
 1933POPC   GL227518   2.126  22.382   8.955
 1933POPC   C1A27519   1.794  22.084   8.751
 1933POPC   D2A27520   1.930  22.032   8.328
 1933POPC   C3A27521   1.766  22.220   7.931
 1933POPC   C4A27522   1.883  22.060   7.490
 1933POPC   C1B27523   2.200  22.658   8.649
 1933POPC   C2B27524   2.080  22.526   8.303
 1933POPC   C3B27525   2.292  22.291   8.049
 1933POPC   C4B27526   2.164  22.420   7.685
 1934POPC   NC327527  36.687  18.528   9.483
 1934POPC   PO427528  36.550  19.218   9.486
 1934POPC   GL127529  36.845  18.971   9.240
 1934POPC   GL227530  36.589  18.829   9.067
 1934POPC   C1A27531  37.011  18.869   8.808
 1934POPC   D2A27532  36.764  18.859   8.417
 1934POPC   C3A27533  37.059  18.962   8.116
 1934POPC   C4A27534  37.181  19.284   7.889
 1934POPC   C1B27535  36.651  19.220   8.800
 1934POPC   C2B27536  36.436  19.301   8.439
 1934POPC   C3B27537  36.631  19.278   8.054
 1934POPC   C4B27538  36.459  19.487   7.732
 1935POPC   NC327539  36.804  29.357   9.372
 1935POPC   PO427540  37.413  29.338   9.709
 1935POPC   GL127541  37.272  28.987   9.275
 1935POPC   GL227542  36.891  28.929   9.131
 1935POPC   C1A27543  37.216  28.995   8.767
 1935POPC   D2A27544  37.215  29.330   8.429
 1935POPC   C3A27545  37.023  29.354   8.020
 1935POPC   C4A27546  36.736  29.048   7.830
 1935POPC   C1B27547  36.784  29.265   8.748
 1935POPC   C2B27548  36.637  29.299   8.328
 1935POPC   C3B27549  36.373  28.952   8.176
 1935POPC   C4B27550  36.223  28.656   7.868
 1936POPC   NC327551  44.381  38.512   9.534
 1936POPC   PO427552  43.708  38.428   9.521
 1936POPC   GL127553  44.007  38.515   9.198
 1936POPC   GL227554  43.787  38.724   9.086
 1936POPC   C1A27555  44.174  38.380   8.808
 1936POPC   D2A27556  44.058  38.247   8.394
 1936POPC   C3A27557  44.238  38.359   7.997
 1936POPC   C4A27558  43.931  38.289   7.695
 1936POPC   C1B27559  43.572  38.905   8.799
 1936POPC   C2B27560  43.778  38.974   8.440
 1936POPC   C3B27561  43.914  38.724   8.119
 1936POPC   C4B27562  43.767  38.766   7.720
 1937POPC   NC327563  21.847  28.293   9.450
 1937POPC   PO427564  21.226  28.616   9.517
 1937POPC   GL127565  21.398  28.341   9.209
 1937POPC   GL227566  21.643  28.586   9.096
 1937POPC   C1A27567  21.277  28.311   8.786
 1937POPC   D2A27568  21.049  28.175   8.479
 1937POPC   C3A27569  21.242  28.304   8.161
 1937POPC   C4A27570  21.146  28.300   7.765
 1937POPC   C1B27571  21.780  28.266   8.799
 1937POPC   C2B27572  21.694  28.459   8.408
 1937POPC   C3B27573  21.679  28.469   7.973
 1937POPC   C4B27574  21.629  28.110   7.745
 1938POPC   NC327575  27.199  10.987   9.410
 1938POPC   PO427576  26.517  11.055   9.340
 1938POPC   GL127577  26.671  11.352   9.034
 1938POPC   GL227578  27.041  11.428   9.063
 1938POPC   C1A27579  26.758  11.267   8.616
 1938POPC   D2A27580  26.731  11.456   8.230
 1938POPC   C3A27581  26.633  11.215   7.891
 1938POPC   C4A27582  26.904  10.983   7.620
 1938POPC   C1B27583  27.286  11.213   8.733
 1938POPC   C2B27584  27.152  11.068   8.307
 1938POPC   C3B27585  27.142  11.339   7.950
 1938POPC   C4B27586  27.360  11.703   7.782
 1939POPC   NC327587   7.537  12.487   9.416
 1939POPC   PO427588   6.883  12.334   9.285
 1939POPC   GL127589   7.177  12.566   9.069
 1939POPC   GL227590   7.184  12.923   9.205
 1939POPC   C1A27591   7.438  12.423   8.731
 1939POPC   D2A27592   7.336  12.342   8.298
 1939POPC   C3A27593   7.665  12.526   8.007
 1939POPC   C4A27594   7.459  12.454   7.618
 1939POPC   C1B27595   7.354  12.955   8.780
 1939POPC   C2B27596   7.444  12.816   8.385
 1939POPC   C3B27597   7.297  12.865   7.990
 1939POPC   C4B27598   7.534  12.939   7.658
 1940POPC   NC327599  28.084  31.646   9.360
 1940POPC   PO427600  28.579  31.237   9.642
 1940POPC   GL127601  28.554  31.390   9.203
 1940POPC   GL227602  28.274  31.224   9.155
 1940POPC   C1A27603  28.441  31.637   8.783
 1940POPC   D2A27604  28.175  31.654   8.391
 1940POPC   C3A27605  28.331  31.558   7.985
 1940POPC   C4A27606  28.506  31.809   7.636
 1940POPC   C1B27607  28.135  31.232   8.717
 1940POPC   C2B27608  28.122  31.117   8.274
 1940POPC   C3B27609  28.013  31.167   7.839
 1940POPC   C4B27610  28.326  31.278   7.525
 1941POPC   NC327611  30.148  44.012   9.577
 1941POPC   PO427612  29.757  43.471   9.527
 1941POPC   GL127613  29.821  43.868   9.213
 1941POPC   GL227614  29.978  44.263   9.190
 1941POPC   C1A27615  29.940  43.935   8.799
 1941POPC   D2A27616  29.728  43.975   8.414
 1941POPC   C3A27617  29.888  43.751   8.054
 1941POPC   C4A27618  29.815  43.568   7.642
 1941POPC   C1B27619  30.146  44.403   8.814
 1941POPC   C2B27620  30.202  44.214   8.424
 1941POPC   C3B27621  30.007  44.266   8.042
 1941POPC   C4B27622  29.969  44.081   7.626
 1942POPC   NC327623   9.606   3.970   9.477
 1942POPC   PO427624  10.090   3.428   9.539
 1942POPC   GL127625   9.837   3.587   9.212
 1942POPC   GL227626   9.475   3.505   9.175
 1942POPC   C1A27627   9.824   3.664   8.790
 1942POPC   D2A27628   9.954   3.937   8.487
 1942POPC   C3A27629   9.711   3.783   8.145
 1942POPC   C4A27630   9.800   3.453   7.850
 1942POPC   C1B27631   9.311   3.760   8.816
 1942POPC   C2B27632   9.129   3.688   8.393
 1942POPC   C3B27633   9.214   3.829   7.959
 1942POPC   C4B27634   9.529   3.810   7.633
 1943POPC   NC327635  40.133  29.701   9.576
 1943POPC   PO427636  39.476  29.563   9.468
 1943POPC   GL127637  39.743  29.818   9.154
 1943POPC   GL227638  40.128  29.785   9.091
 1943POPC   C1A27639  39.830  29.889   8.701
 1943POPC   D2A27640  39.842  29.626   8.336
 1943POPC   C3A27641  39.689  29.813   7.958
 1943POPC   C4A27642  39.858  30.185   7.776
 1943POPC   C1B27643  40.355  29.817   8.724
 1943POPC   C2B27644  40.230  29.964   8.329
 1943POPC   C3B27645  40.198  29.743   7.932
 1943POPC   C4B27646  40.339  29.497   7.583
 1944POPC   NC327647  28.971  21.201   9.764
 1944POPC   PO427648  29.412  21.785   9.711
 1944POPC   GL127649  29.236  21.534   9.338
 1944POPC   GL227650  28.995  21.244   9.259
 1944POPC   C1A27651  29.206  21.594   8.886
 1944POPC   D2A27652  29.513  21.472   8.551
 1944POPC   C3A27653  29.315  21.342   8.174
 1944POPC   C4A27654  29.120  21.520   7.805
 1944POPC   C1B27655  28.773  21.262   8.862
 1944POPC   C2B27656  28.904  21.410   8.466
 1944POPC   C3B27657  28.778  21.254   8.087
 1944POPC   C4B27658  28.555  21.003   7.803
 1945POPC   NC327659   2.101  18.077   9.433
 1945POPC   PO427660   2.346  18.679   9.315
 1945POPC   GL127661   2.079  18.395   9.044
 1945POPC   GL227662   2.205  18.010   8.940
 1945POPC   C1A27663   1.827  18.285   8.697
 1945POPC   D2A27664   2.128  18.127   8.394
 1945POPC   C3A27665   2.046  18.187   7.960
 1945POPC   C4A27666   1.875  18.308   7.529
 1945POPC   C1B27667   1.871  17.789   8.683
 1945POPC   C2B27668   1.775  17.802   8.223
 1945POPC   C3B27669   1.677  17.878   7.775
 1945POPC   C4B27670   1.585  17.915   7.303
 1946POPC   NC327671  30.298   4.202   9.602
 1946POPC   PO427672  30.859   4.562   9.574
 1946POPC   GL127673  30.757   4.280   9.220
 1946POPC   GL227674  30.944   4.457   8.978
 1946POPC   C1A27675  30.651   4.056   8.795
 1946POPC   D2A27676  30.771   4.186   8.372
 1946POPC   C3A27677  30.483   4.138   8.042
 1946POPC   C4A27678  30.660   4.297   7.682
 1946POPC   C1B27679  30.504   4.535   8.816
 1946POPC   C2B27680  30.376   4.553   8.362
 1946POPC   C3B27681  30.354   4.648   7.894
 1946POPC   C4B27682  30.292   4.583   7.457
 1947POPC   NC327683  22.733  13.345   9.550
 1947POPC   PO427684  23.167  13.769   9.520
 1947POPC   GL127685  22.975  13.594   9.169
 1947POPC   GL227686  23.313  13.593   9.047
 1947POPC   C1A27687  22.675  13.638   8.826
 1947POPC   D2A27688  22.532  13.332   8.507
 1947POPC   C3A27689  22.701  13.339   8.089
 1947POPC   C4A27690  22.563  13.524   7.714
 1947POPC   C1B27691  23.179  13.777   8.702
 1947POPC   C2B27692  22.885  13.751   8.377
 1947POPC   C3B27693  22.877  13.843   7.965
 1947POPC   C4B27694  23.260  13.779   7.731
 1948POPC   NC327695  31.722  28.237   9.408
 1948POPC   PO427696  31.170  28.609   9.497
 1948POPC   GL127697  31.394  28.570   9.117
 1948POPC   GL227698  31.766  28.597   9.061
 1948POPC   C1A27699  31.433  28.681   8.691
 1948POPC   D2A27700  31.657  28.658   8.318
 1948POPC   C3A27701  31.449  28.429   8.012
 1948POPC   C4A27702  31.582  28.549   7.619
 1948POPC   C1B27703  31.839  28.317   8.699
 1948POPC   C2B27704  31.805  28.114   8.276
 1948POPC   C3B27705  31.734  28.061   7.813
 1948POPC   C4B27706  31.793  28.175   7.361
 1949POPC   NC327707  37.489  27.132   9.383
 1949POPC   PO427708  37.884  26.625   9.572
 1949POPC   GL127709  37.746  26.721   9.165
 1949POPC   GL227710  37.385  26.637   9.169
 1949POPC   C1A27711  37.935  26.822   8.734
 1949POPC   D2A27712  37.705  27.114   8.410
 1949POPC   C3A27713  37.845  27.049   7.980
 1949POPC   C4A27714  37.999  26.621   7.912
 1949POPC   C1B27715  37.439  26.721   8.755
 1949POPC   C2B27716  37.620  26.620   8.369
 1949POPC   C3B27717  37.451  26.742   8.001
 1949POPC   C4B27718  37.621  26.723   7.593
 1950POPC   NC327719   2.275   2.558   9.899
 1950POPC   PO427720   1.752   2.377   9.502
 1950POPC   GL127721   1.976   2.624   9.204
 1950POPC   GL227722   2.308   2.443   9.116
 1950POPC   C1A27723   1.860   2.940   8.837
 1950POPC   D2A27724   1.743   3.134   8.411
 1950POPC   C3A27725   2.045   3.095   8.024
 1950POPC   C4A27726   2.106   2.962   7.554
 1950POPC   C1B27727   1.986   2.461   8.736
 1950POPC   C2B27728   2.031   2.675   8.347
 1950POPC   C3B27729   1.936   2.612   7.925
 1950POPC   C4B27730   1.518   2.414   7.808
 1951POPC   NC327731  20.871  36.355   9.418
 1951POPC   PO427732  20.342  35.894   9.486
 1951POPC   GL127733  20.514  36.064   9.145
 1951POPC   GL227734  20.800  35.853   9.129
 1951POPC   C1A27735  20.455  36.255   8.745
 1951POPC   D2A27736  20.394  36.119   8.295
 1951POPC   C3A27737  20.332  36.193   7.837
 1951POPC   C4A27738  20.674  36.269   7.529
 1951POPC   C1B27739  20.866  35.907   8.668
 1951POPC   C2B27740  20.766  35.725   8.245
 1951POPC   C3B27741  20.720  35.841   7.799
 1951POPC   C4B27742  20.895  35.850   7.315
 1952POPC   NC327743   2.981  15.901   9.415
 1952POPC   PO427744   2.454  15.607   9.675
 1952POPC   GL127745   2.535  15.816   9.197
 1952POPC   GL227746   2.641  16.177   9.105
 1952POPC   C1A27747   2.803  15.757   8.775
 1952POPC   D2A27748   2.830  15.472   8.388
 1952POPC   C3A27749   2.997  15.625   7.993
 1952POPC   C4A27750   2.784  15.915   7.711
 1952POPC   C1B27751   2.944  16.258   8.753
 1952POPC   C2B27752   3.108  16.143   8.338
 1952POPC   C3B27753   3.052  16.272   7.903
 1952POPC   C4B27754   2.998  16.241   7.397
 1953POPC   NC327755  16.268  39.665   9.934
 1953POPC   PO427756  15.856  39.441   9.347
 1953POPC   GL127757  16.028  39.149   9.081
 1953POPC   GL227758  16.351  39.233   9.021
 1953POPC   C1A27759  16.094  38.996   8.653
 1953POPC   D2A27760  15.763  38.985   8.359
 1953POPC   C3A27761  15.894  39.174   7.995
 1953POPC   C4A27762  15.601  39.357   7.740
 1953POPC   C1B27763  16.176  39.517   8.716
 1953POPC   C2B27764  16.106  39.565   8.291
 1953POPC   C3B27765  15.953  39.690   7.899
 1953POPC   C4B27766  16.194  39.438   7.663
 1954POPC   NC327767  21.436   7.862   9.919
 1954POPC   PO427768  21.444   7.382   9.460
 1954POPC   GL127769  21.360   7.413   9.060
 1954POPC   GL227770  21.294   7.736   9.056
 1954POPC   C1A27771  21.329   7.337   8.624
 1954POPC   D2A27772  21.622   7.253   8.279
 1954POPC   C3A27773  21.493   7.290   7.827
 1954POPC   C4A27774  21.752   7.154   7.477
 1954POPC   C1B27775  21.563   7.872   8.738
 1954POPC   C2B27776  21.477   7.751   8.355
 1954POPC   C3B27777  21.502   7.868   7.970
 1954POPC   C4B27778  21.574   7.799   7.559
 1955POPC   NC327779  31.008  19.626   9.527
 1955POPC   PO427780  31.425  20.093   9.673
 1955POPC   GL127781  31.445  20.145   9.255
 1955POPC   GL227782  31.432  19.784   9.259
 1955POPC   C1A27783  31.594  20.267   8.846
 1955POPC   D2A27784  31.644  19.982   8.508
 1955POPC   C3A27785  31.578  19.912   8.089
 1955POPC   C4A27786  31.574  20.148   7.743
 1955POPC   C1B27787  31.630  19.620   8.904
 1955POPC   C2B27788  31.809  19.497   8.502
 1955POPC   C3B27789  31.761  19.409   8.047
 1955POPC   C4B27790  31.465  19.538   7.711
 1956POPC   NC327791  10.638   5.423   9.357
 1956POPC   PO427792  10.445   4.809   9.566
 1956POPC   GL127793  10.429   4.979   9.175
 1956POPC   GL227794  10.142   5.198   9.210
 1956POPC   C1A27795  10.699   5.071   8.792
 1956POPC   D2A27796  10.894   4.944   8.398
 1956POPC   C3A27797  10.635   5.041   8.073
 1956POPC   C4A27798  10.625   5.328   7.740
 1956POPC   C1B27799  10.084   4.983   8.798
 1956POPC   C2B27800  10.305   4.822   8.418
 1956POPC   C3B27801  10.166   4.747   8.002
 1956POPC   C4B27802  10.182   4.836   7.561
 1957POPC   NC327803  40.542  42.381   9.479
 1957POPC   PO427804  40.781  41.824   9.592
 1957POPC   GL127805  40.801  42.083   9.186
 1957POPC   GL227806  41.006  42.397   9.220
 1957POPC   C1A27807  40.574  42.172   8.801
 1957POPC   D2A27808  40.729  42.111   8.372
 1957POPC   C3A27809  40.532  42.288   7.967
 1957POPC   C4A27810  40.509  42.647   7.730
 1957POPC   C1B27811  40.833  42.628   8.892
 1957POPC   C2B27812  40.664  42.629   8.486
 1957POPC   C3B27813  40.879  42.648   8.108
 1957POPC   C4B27814  41.027  42.760   7.720
 1958POPC   NC327815  16.573  11.782   9.505
 1958POPC   PO427816  16.497  12.500   9.460
 1958POPC   GL127817  16.574  12.211   9.139
 1958POPC   GL227818  16.894  12.087   9.091
 1958POPC   C1A27819  16.621  12.209   8.677
 1958POPC   D2A27820  16.487  12.412   8.302
 1958POPC   C3A27821  16.485  12.132   7.971
 1958POPC   C4A27822  16.758  12.128   7.642
 1958POPC   C1B27823  17.150  12.070   8.724
 1958POPC   C2B27824  17.089  12.084   8.290
 1958POPC   C3B27825  16.945  11.791   7.972
 1958POPC   C4B27826  16.990  11.639   7.543
 1959POPC   NC327827  22.176   3.949   9.394
 1959POPC   PO427828  21.764   4.489   9.503
 1959POPC   GL127829  21.990   4.416   9.175
 1959POPC   GL227830  22.332   4.413   9.270
 1959POPC   C1A27831  21.949   4.206   8.814
 1959POPC   D2A27832  22.203   4.250   8.442
 1959POPC   C3A27833  22.044   4.145   8.041
 1959POPC   C4A27834  22.102   4.319   7.640
 1959POPC   C1B27835  22.471   4.234   8.883
 1959POPC   C2B27836  22.680   4.053   8.541
 1959POPC   C3B27837  22.616   4.144   8.127
 1959POPC   C4B27838  22.659   4.025   7.715
 1960POPC   NC327839   2.831  17.659   9.453
 1960POPC   PO427840   3.105  17.128   9.820
 1960POPC   GL127841   2.796  17.193   9.306
 1960POPC   GL227842   2.926  17.472   9.012
 1960POPC   C1A27843   2.612  17.139   8.868
 1960POPC   D2A27844   2.804  17.356   8.521
 1960POPC   C3A27845   2.793  17.257   8.077
 1960POPC   C4A27846   2.722  17.560   7.772
 1960POPC   C1B27847   2.730  17.835   8.779
 1960POPC   C2B27848   2.586  17.849   8.320
 1960POPC   C3B27849   2.559  18.048   7.887
 1960POPC   C4B27850   2.664  17.945   7.443
 1961POPC   NC327851  37.674  44.053   9.592
 1961POPC   PO427852  38.230  43.759   9.537
 1961POPC   GL127853  37.866  43.748   9.194
 1961POPC   GL227854  37.517  43.935   9.138
 1961POPC   C1A27855  37.682  43.655   8.759
 1961POPC   D2A27856  37.412  43.860   8.461
 1961POPC   C3A27857  37.500  43.662   8.088
 1961POPC   C4A27858  37.389  43.484   7.716
 1961POPC   C1B27859  37.686  44.163   8.773
 1961POPC   C2B27860  37.761  44.378   8.397
 1961POPC   C3B27861  37.692  44.204   7.992
 1961POPC   C4B27862  37.479  43.980   7.684
 1962POPC   NC327863  34.144  29.542   9.599
 1962POPC   PO427864  34.797  29.767   9.583
 1962POPC   GL127865  34.436  29.776   9.263
 1962POPC   GL227866  34.601  29.547   9.115
 1962POPC   C1A27867  34.314  29.934   8.856
 1962POPC   D2A27868  34.540  30.053   8.504
 1962POPC   C3A27869  34.383  29.877   8.148
 1962POPC   C4A27870  34.186  29.977   7.792
 1962POPC   C1B27871  34.777  29.706   8.820
 1962POPC   C2B27872  34.814  29.632   8.425
 1962POPC   C3B27873  34.868  29.865   8.083
 1962POPC   C4B27874  34.661  29.851   7.703
 1963POPC   NC327875   5.202   0.799   9.506
 1963POPC   PO427876   4.902   0.204   9.337
 1963POPC   GL127877   5.166   0.428   9.146
 1963POPC   GL227878   4.974   0.707   9.067
 1963POPC   C1A27879   5.319   0.506   8.757
 1963POPC   D2A27880   5.177   0.380   8.373
 1963POPC   C3A27881   5.448   0.449   8.059
 1963POPC   C4A27882   5.403   0.503   7.639
 1963POPC   C1B27883   4.787   0.681   8.689
 1963POPC   C2B27884   4.808   0.712   8.263
 1963POPC   C3B27885   4.943   0.513   7.888
 1963POPC   C4B27886   4.597   0.651   7.593
 1964POPC   NC327887   4.444   2.157   9.998
 1964POPC   PO427888   4.384   2.717   9.541
 1964POPC   GL127889   4.411   2.715   9.135
 1964POPC   GL227890   4.080   2.636   9.112
 1964POPC   C1A27891   4.479   2.979   8.770
 1964POPC   D2A27892   4.708   2.978   8.387
 1964POPC   C3A27893   4.464   3.027   7.998
 1964POPC   C4A27894   4.584   2.927   7.559
 1964POPC   C1B27895   3.982   2.860   8.761
 1964POPC   C2B27896   4.179   2.811   8.376
 1964POPC   C3B27897   4.141   2.537   8.055
 1964POPC   C4B27898   4.120   2.728   7.686
 1965POPC   NC327899  37.345  43.397   9.476
 1965POPC   PO427900  36.872  43.021   9.581
 1965POPC   GL127901  36.850  42.987   9.153
 1965POPC   GL227902  37.215  42.944   9.111
 1965POPC   C1A27903  36.935  43.227   8.765
 1965POPC   D2A27904  37.193  43.370   8.421
 1965POPC   C3A27905  37.025  43.231   8.045
 1965POPC   C4A27906  37.012  43.172   7.630
 1965POPC   C1B27907  37.193  42.804   8.675
 1965POPC   C2B27908  37.173  42.752   8.231
 1965POPC   C3B27909  37.144  42.673   7.808
 1965POPC   C4B27910  36.857  42.749   7.439
 1966POPC   NC327911  14.363  39.819   9.542
 1966POPC   PO427912  14.605  40.353   9.825
 1966POPC   GL127913  14.328  40.285   9.350
 1966POPC   GL227914  14.460  40.038   9.107
 1966POPC   C1A27915  14.196  40.368   8.853
 1966POPC   D2A27916  14.124  40.172   8.386
 1966POPC   C3A27917  14.251  40.322   7.995
 1966POPC   C4A27918  14.366  40.072   7.651
 1966POPC   C1B27919  14.464  39.954   8.701
 1966POPC   C2B27920  14.237  39.664   8.433
 1966POPC   C3B27921  14.376  39.774   8.069
 1966POPC   C4B27922  14.598  39.622   7.745
 1967POPC   NC327923  11.055  32.767   9.447
 1967POPC   PO427924  11.721  33.067   9.474
 1967POPC   GL127925  11.443  32.949   9.163
 1967POPC   GL227926  11.184  33.217   9.154
 1967POPC   C1A27927  11.221  32.832   8.783
 1967POPC   D2A27928  11.165  33.032   8.406
 1967POPC   C3A27929  11.217  32.793   8.043
 1967POPC   C4A27930  10.924  32.799   7.737
 1967POPC   C1B27931  11.458  33.295   8.774
 1967POPC   C2B27932  11.389  33.473   8.358
 1967POPC   C3B27933  11.205  33.312   7.972
 1967POPC   C4B27934  11.471  33.109   7.663
 1968POPC   NC327935  43.138  43.190   9.384
 1968POPC   PO427936  43.696  42.867   9.569
 1968POPC   GL127937  43.298  42.800   9.153
 1968POPC   GL227938  42.902  42.928   9.052
 1968POPC   C1A27939  43.304  43.115   8.751
 1968POPC   D2A27940  43.161  43.339   8.354
 1968POPC   C3A27941  43.231  43.145   7.929
 1968POPC   C4A27942  43.360  43.164   7.493
 1968POPC   C1B27943  42.808  43.060   8.654
 1968POPC   C2B27944  42.664  43.126   8.277
 1968POPC   C3B27945  42.813  43.434   7.994
 1968POPC   C4B27946  42.947  43.462   7.583
 1969POPC   NC327947  43.895  38.014   9.409
 1969POPC   PO427948  43.849  37.495   9.850
 1969POPC   GL127949  43.867  37.471   9.402
 1969POPC   GL227950  44.177  37.607   9.287
 1969POPC   C1A27951  43.773  37.426   8.947
 1969POPC   D2A27952  43.784  37.651   8.536
 1969POPC   C3A27953  43.895  37.442   8.151
 1969POPC   C4A27954  43.696  37.351   7.756
 1969POPC   C1B27955  44.183  37.837   8.832
 1969POPC   C2B27956  44.275  37.778   8.374
 1969POPC   C3B27957  44.155  37.847   7.954
 1969POPC   C4B27958  44.334  38.018   7.601
 1970POPC   NC327959  29.125   9.246   9.501
 1970POPC   PO427960  29.394   9.850   9.383
 1970POPC   GL127961  29.112   9.735   9.041
 1970POPC   GL227962  28.948   9.410   9.054
 1970POPC   C1A27963  29.144   9.716   8.572
 1970POPC   D2A27964  29.439   9.863   8.234
 1970POPC   C3A27965  29.264   9.969   7.836
 1970POPC   C4A27966  28.867  10.179   7.867
 1970POPC   C1B27967  29.235   9.248   8.788
 1970POPC   C2B27968  29.187   9.225   8.344
 1970POPC   C3B27969  29.199   9.482   7.986
 1970POPC   C4B27970  29.554   9.496   7.724
 1971POPC   NC327971  27.248  12.574   9.529
 1971POPC   PO427972  27.553  13.197   9.517
 1971POPC   GL127973  27.440  12.914   9.185
 1971POPC   GL227974  27.733  13.023   9.042
 1971POPC   C1A27975  27.283  12.957   8.744
 1971POPC   D2A27976  27.133  12.788   8.323
 1971POPC   C3A27977  27.445  12.723   7.986
 1971POPC   C4A27978  27.576  13.095   7.847
 1971POPC   C1B27979  27.730  12.688   8.809
 1971POPC   C2B27980  27.748  12.783   8.404
 1971POPC   C3B27981  27.964  12.623   8.071
 1971POPC   C4B27982  27.865  12.707   7.669
 1972POPC   NC327983   5.212  35.109   9.465
 1972POPC   PO427984   4.800  35.521   9.802
 1972POPC   GL127985   4.872  35.453   9.292
 1972POPC   GL227986   5.234  35.527   9.143
 1972POPC   C1A27987   4.868  35.408   8.806
 1972POPC   D2A27988   5.105  35.261   8.420
 1972POPC   C3A27989   4.986  35.349   7.987
 1972POPC   C4A27990   4.742  35.689   7.786
 1972POPC   C1B27991   5.397  35.161   8.844
 1972POPC   C2B27992   5.578  35.061   8.409
 1972POPC   C3B27993   5.348  34.961   8.033
 1972POPC   C4B27994   5.255  35.078   7.617
 1973POPC   NC327995  37.489  21.108   9.425
 1973POPC   PO427996  37.536  20.406   9.625
 1973POPC   GL127997  37.472  20.642   9.212
 1973POPC   GL227998  37.786  20.727   9.116
 1973POPC   C1A27999  37.515  20.868   8.742
 1973POPC   D2A28000  37.880  21.003   8.485
 1973POPC   C3A28001  37.856  20.930   8.035
 1973POPC   C4A28002  37.468  20.761   7.921
 1973POPC   C1B28003  37.629  20.373   8.823
 1973POPC   C2B28004  37.439  20.348   8.422
 1973POPC   C3B28005  37.594  20.196   8.044
 1973POPC   C4B28006  37.857  20.408   7.841
 1974POPC   NC328007  36.708  26.470   9.958
 1974POPC   PO428008  37.252  26.786   9.630
 1974POPC   GL128009  36.991  26.953   9.277
 1974POPC   GL228010  36.702  26.699   9.256
 1974POPC   C1A28011  36.963  26.907   8.820
 1974POPC   D2A28012  37.093  26.759   8.391
 1974POPC   C3A28013  36.962  26.559   8.009
 1974POPC   C4A28014  37.097  26.794   7.639
 1974POPC   C1B28015  36.630  26.537   8.828
 1974POPC   C2B28016  36.564  26.707   8.421
 1974POPC   C3B28017  36.606  26.896   8.028
 1974POPC   C4B28018  36.614  26.671   7.640
 1975POPC   NC328019  22.540  40.289   9.579
 1975POPC   PO428020  22.858  40.832   9.500
 1975POPC   GL128021  22.947  40.560   9.164
 1975POPC   GL228022  22.578  40.509   9.134
 1975POPC   C1A28023  23.170  40.740   8.765
 1975POPC   D2A28024  23.372  40.769   8.407
 1975POPC   C3A28025  23.201  40.706   8.028
 1975POPC   C4A28026  23.172  40.917   7.638
 1975POPC   C1B28027  22.663  40.694   8.764
 1975POPC   C2B28028  22.835  40.717   8.379
 1975POPC   C3B28029  22.682  40.630   7.987
 1975POPC   C4B28030  22.650  40.896   7.645
 1976POPC   NC328031   5.647  38.775   9.585
 1976POPC   PO428032   5.557  38.088   9.553
 1976POPC   GL128033   5.427  38.349   9.198
 1976POPC   GL228034   5.638  38.654   9.100
 1976POPC   C1A28035   5.627  38.271   8.781
 1976POPC   D2A28036   5.959  38.307   8.491
 1976POPC   C3A28037   5.779  38.253   8.111
 1976POPC   C4A28038   6.007  38.347   7.751
 1976POPC   C1B28039   5.890  38.760   8.743
 1976POPC   C2B28040   5.842  38.994   8.382
 1976POPC   C3B28041   5.766  38.776   8.020
 1976POPC   C4B28042   5.876  38.818   7.597
 1977POPC   NC328043  21.614   2.415   9.543
 1977POPC   PO428044  21.222   3.001   9.443
 1977POPC   GL128045  21.376   2.760   9.151
 1977POPC   GL228046  21.452   3.061   8.990
 1977POPC   C1A28047  21.238   2.675   8.742
 1977POPC   D2A28048  21.295   2.862   8.372
 1977POPC   C3A28049  21.161   2.675   8.023
 1977POPC   C4A28050  21.369   2.676   7.622
 1977POPC   C1B28051  21.698   3.020   8.644
 1977POPC   C2B28052  21.618   3.225   8.255
 1977POPC   C3B28053  21.391   3.134   7.908
 1977POPC   C4B28054  21.550   3.115   7.487
 1978POPC   NC328055  28.816   6.174   9.738
 1978POPC   PO428056  28.927   5.588   9.426
 1978POPC   GL128057  29.030   5.898   9.114
 1978POPC   GL228058  29.420   5.911   9.018
 1978POPC   C1A28059  29.049   5.777   8.680
 1978POPC   D2A28060  29.332   5.555   8.403
 1978POPC   C3A28061  29.167   5.505   7.989
 1978POPC   C4A28062  28.834   5.670   7.710
 1978POPC   C1B28063  29.402   6.130   8.586
 1978POPC   C2B28064  29.224   6.027   8.119
 1978POPC   C3B28065  29.283   5.880   7.642
 1978POPC   C4B28066  29.236   6.100   7.212
 1979POPC   NC328067   8.368  32.466   9.521
 1979POPC   PO428068   7.977  31.854   9.513
 1979POPC   GL128069   7.939  32.234   9.283
 1979POPC   GL228070   8.240  32.233   9.084
 1979POPC   C1A28071   7.813  32.436   8.908
 1979POPC   D2A28072   7.995  32.316   8.528
 1979POPC   C3A28073   7.861  32.201   8.121
 1979POPC   C4A28074   8.190  32.102   7.832
 1979POPC   C1B28075   8.312  32.617   8.866
 1979POPC   C2B28076   8.223  32.778   8.473
 1979POPC   C3B28077   8.185  32.587   8.074
 1979POPC   C4B28078   8.408  32.531   7.684
 1980POPC   NC328079  28.209  29.805   9.897
 1980POPC   PO428080  28.405  30.265   9.489
 1980POPC   GL128081  28.307  29.981   9.144
 1980POPC   GL228082  28.473  29.710   9.082
 1980POPC   C1A28083  28.130  29.939   8.737
 1980POPC   D2A28084  28.184  30.245   8.435
 1980POPC   C3A28085  28.202  30.220   8.015
 1980POPC   C4A28086  28.046  29.916   7.733
 1980POPC   C1B28087  28.601  29.862   8.666
 1980POPC   C2B28088  28.384  29.771   8.288
 1980POPC   C3B28089  28.512  29.808   7.864
 1980POPC   C4B28090  28.563  29.656   7.401
 1981POPC   NC328091   5.787  37.088   9.924
 1981POPC   PO428092   5.985  36.648   9.455
 1981POPC   GL128093   5.825  36.850   9.070
 1981POPC   GL228094   5.699  37.191   9.089
 1981POPC   C1A28095   5.854  36.892   8.615
 1981POPC   D2A28096   5.730  37.160   8.253
 1981POPC   C3A28097   5.668  36.951   7.855
 1981POPC   C4A28098   5.580  36.725   7.458
 1981POPC   C1B28099   5.986  37.367   8.729
 1981POPC   C2B28100   6.191  37.415   8.288
 1981POPC   C3B28101   6.096  37.242   7.850
 1981POPC   C4B28102   5.945  37.092   7.439
 1982POPC   NC328103  44.813  42.650   9.583
 1982POPC   PO428104  44.363  42.128   9.469
 1982POPC   GL128105  44.411  42.355   9.092
 1982POPC   GL228106  44.802  42.408   9.130
 1982POPC   C1A28107  44.265  42.372   8.639
 1982POPC   D2A28108  44.107  42.383   8.215
 1982POPC   C3A28109  44.398  42.545   7.982
 1982POPC   C4A28110  44.584  42.564   7.627
 1982POPC   C1B28111   0.054  42.496   8.743
 1982POPC   C2B28112  44.857  42.454   8.333
 1982POPC   C3B28113  44.987  42.425   7.922
 1982POPC   C4B28114   0.078  42.617   7.538
 1983POPC   NC328115  24.628  31.828   9.308
 1983POPC   PO428116  24.179  32.177   9.730
 1983POPC   GL128117  24.232  32.358   9.227
 1983POPC   GL228118  23.933  32.562   9.139
 1983POPC   C1A28119  24.416  32.230   8.791
 1983POPC   D2A28120  24.708  32.311   8.443
 1983POPC   C3A28121  24.586  32.130   8.053
 1983POPC   C4A28122  24.950  31.930   7.856
 1983POPC   C1B28123  23.952  32.409   8.694
 1983POPC   C2B28124  24.109  32.162   8.321
 1983POPC   C3B28125  24.146  32.335   7.884
 1983POPC   C4B28126  24.180  32.360   7.412
 1984POPC   NC328127  31.109  33.285   9.476
 1984POPC   PO428128  30.457  33.059   9.566
 1984POPC   GL128129  30.704  33.102   9.206
 1984POPC   GL228130  30.420  33.003   9.041
 1984POPC   C1A28131  30.925  33.006   8.809
 1984POPC   D2A28132  30.982  33.124   8.367
 1984POPC   C3A28133  30.817  32.801   8.107
 1984POPC   C4A28134  30.975  32.721   7.702
 1984POPC   C1B28135  30.205  33.221   8.773
 1984POPC   C2B28136  30.476  33.066   8.464
 1984POPC   C3B28137  30.413  33.133   8.050
 1984POPC   C4B28138  30.578  33.225   7.672
 1985POPC   NC328139  43.582  41.353   9.456
 1985POPC   PO428140  42.980  41.762   9.480
 1985POPC   GL128141  43.009  41.675   9.053
 1985POPC   GL228142  43.373  41.582   9.032
 1985POPC   C1A28143  43.111  41.736   8.610
 1985POPC   D2A28144  43.228  41.639   8.187
 1985POPC   C3A28145  42.883  41.478   7.976
 1985POPC   C4A28146  42.880  41.785   7.682
 1985POPC   C1B28147  43.141  41.228   8.814
 1985POPC   C2B28148  43.136  41.134   8.380
 1985POPC   C3B28149  43.394  41.189   7.998
 1985POPC   C4B28150  43.275  41.473   7.674
 1986POPC   NC328151  29.268  25.258   9.551
 1986POPC   PO428152  28.940  24.854   9.226
 1986POPC   GL128153  29.262  25.007   9.029
 1986POPC   GL228154  29.158  25.364   9.063
 1986POPC   C1A28155  29.206  25.129   8.609
 1986POPC   D2A28156  29.206  25.382   8.257
 1986POPC   C3A28157  29.250  25.093   7.919
 1986POPC   C4A28158  29.399  25.205   7.525
 1986POPC   C1B28159  28.817  25.443   8.760
 1986POPC   C2B28160  28.770  25.746   8.438
 1986POPC   C3B28161  28.954  25.778   8.051
 1986POPC   C4B28162  28.837  25.378   7.842
 1987POPC   NC328163  43.118  18.418   9.600
 1987POPC   PO428164  43.176  17.782   9.540
 1987POPC   GL128165  43.082  18.078   9.199
 1987POPC   GL228166  42.934  18.443   9.141
 1987POPC   C1A28167  43.169  17.998   8.776
 1987POPC   D2A28168  43.106  18.200   8.395
 1987POPC   C3A28169  43.105  17.986   8.035
 1987POPC   C4A28170  43.288  18.103   7.649
 1987POPC   C1B28171  43.007  18.557   8.748
 1987POPC   C2B28172  42.998  18.731   8.354
 1987POPC   C3B28173  43.120  18.510   7.969
 1987POPC   C4B28174  42.964  18.476   7.553
 1988POPC   NC328175  26.402  30.307   9.441
 1988POPC   PO428176  26.167  30.904   9.654
 1988POPC   GL128177  26.128  30.712   9.262
 1988POPC   GL228178  26.454  30.794   9.190
 1988POPC   C1A28179  25.981  30.763   8.843
 1988POPC   D2A28180  26.152  30.986   8.484
 1988POPC   C3A28181  26.098  30.808   8.059
 1988POPC   C4A28182  25.945  30.435   7.838
 1988POPC   C1B28183  26.426  30.503   8.795
 1988POPC   C2B28184  26.455  30.449   8.309
 1988POPC   C3B28185  26.432  30.296   7.853
 1988POPC   C4B28186  26.310  30.538   7.457
 1989POPC   NC328187   3.496  31.437   9.591
 1989POPC   PO428188   4.118  31.505   9.613
 1989POPC   GL128189   3.804  31.633   9.229
 1989POPC   GL228190   3.445  31.494   9.106
 1989POPC   C1A28191   3.782  31.561   8.752
 1989POPC   D2A28192   3.533  31.599   8.371
 1989POPC   C3A28193   3.614  31.582   7.903
 1989POPC   C4A28194   3.310  31.667   7.513
 1989POPC   C1B28195   3.336  31.230   8.759
 1989POPC   C2B28196   3.482  31.042   8.389
 1989POPC   C3B28197   3.409  31.128   7.983
 1989POPC   C4B28198   3.022  31.052   7.793
 1990POPC   NC328199  36.928  19.476   9.417
 1990POPC   PO428200  36.540  20.059   9.582
 1990POPC   GL128201  36.761  19.919   9.193
 1990POPC   GL228202  37.075  20.096   9.080
 1990POPC   C1A28203  36.941  19.671   8.814
 1990POPC   D2A28204  36.985  19.420   8.407
 1990POPC   C3A28205  36.922  19.688   8.020
 1990POPC   C4A28206  36.933  19.618   7.570
 1990POPC   C1B28207  36.732  20.204   8.777
 1990POPC   C2B28208  36.878  20.303   8.382
 1990POPC   C3B28209  37.091  20.176   8.046
 1990POPC   C4B28210  36.911  20.099   7.692
 1991POPC   NC328211   8.616  10.223   9.573
 1991POPC   PO428212   8.056  10.613   9.613
 1991POPC   GL128213   8.205  10.479   9.218
 1991POPC   GL228214   8.209  10.815   9.160
 1991POPC   C1A28215   8.172  10.489   8.742
 1991POPC   D2A28216   8.278  10.317   8.316
 1991POPC   C3A28217   8.194  10.591   7.938
 1991POPC   C4A28218   8.031  10.471   7.517
 1991POPC   C1B28219   8.023  10.994   8.819
 1991POPC   C2B28220   8.137  11.097   8.415
 1991POPC   C3B28221   7.950  11.072   8.013
 1991POPC   C4B28222   7.932  10.953   7.564
 1992POPC   NC328223  36.424  39.973   9.557
 1992POPC   PO428224  36.832  40.493   9.683
 1992POPC   GL128225  36.774  40.228   9.277
 1992POPC   GL228226  36.820  39.853   9.209
 1992POPC   C1A28227  36.798  40.204   8.836
 1992POPC   D2A28228  36.923  40.091   8.439
 1992POPC   C3A28229  36.591  39.968   8.198
 1992POPC   C4A28230  36.593  39.965   7.777
 1992POPC   C1B28231  36.971  39.693   8.788
 1992POPC   C2B28232  36.964  39.577   8.358
 1992POPC   C3B28233  37.034  39.804   7.963
 1992POPC   C4B28234  36.989  39.894   7.494
 1993POPC   NC328235  34.960  24.706   9.382
 1993POPC   PO428236  34.632  24.101   9.496
 1993POPC   GL128237  34.515  24.226   9.129
 1993POPC   GL228238  34.522  24.585   9.075
 1993POPC   C1A28239  34.624  24.169   8.754
 1993POPC   D2A28240  34.445  24.295   8.401
 1993POPC   C3A28241  34.555  24.095   8.052
 1993POPC   C4A28242  34.603  24.359   7.778
 1993POPC   C1B28243  34.150  24.796   8.862
 1993POPC   C2B28244  34.100  24.844   8.428
 1993POPC   C3B28245  34.278  24.646   8.056
 1993POPC   C4B28246  34.342  24.765   7.622
 1994POPC   NC328247  16.660  14.565   9.548
 1994POPC   PO428248  17.333  14.562   9.630
 1994POPC   GL128249  17.135  14.427   9.190
 1994POPC   GL228250  16.915  14.695   9.117
 1994POPC   C1A28251  16.894  14.313   8.786
 1994POPC   D2A28252  16.810  14.525   8.378
 1994POPC   C3A28253  16.662  14.239   8.041
 1994POPC   C4A28254  16.753  14.100   7.631
 1994POPC   C1B28255  16.489  14.613   8.879
 1994POPC   C2B28256  16.327  14.731   8.462
 1994POPC   C3B28257  16.305  14.635   8.027
 1994POPC   C4B28258  16.598  14.604   7.692
 1995POPC   NC328259  26.870  20.997   9.520
 1995POPC   PO428260  26.589  20.322   9.504
 1995POPC   GL128261  26.764  20.510   9.144
 1995POPC   GL228262  27.116  20.610   9.188
 1995POPC   C1A28263  26.627  20.494   8.713
 1995POPC   D2A28264  26.498  20.332   8.339
 1995POPC   C3A28265  26.640  20.573   8.030
 1995POPC   C4A28266  26.794  20.574   7.632
 1995POPC   C1B28267  26.988  20.824   8.805
 1995POPC   C2B28268  27.015  20.743   8.388
 1995POPC   C3B28269  26.998  20.923   7.992
 1995POPC   C4B28270  27.134  21.004   7.619
 1996POPC   NC328271  41.868   2.895   9.467
 1996POPC   PO428272  42.481   2.630   9.510
 1996POPC   GL128273  42.348   2.941   9.215
 1996POPC   GL228274  42.146   2.675   9.095
 1996POPC   C1A28275  42.441   3.137   8.799
 1996POPC   D2A28276  42.576   2.924   8.396
 1996POPC   C3A28277  42.717   3.115   8.005
 1996POPC   C4A28278  42.694   2.902   7.659
 1996POPC   C1B28279  42.492   2.614   8.798
 1996POPC   C2B28280  42.434   2.427   8.393
 1996POPC   C3B28281  42.428   2.597   7.972
 1996POPC   C4B28282  42.102   2.813   7.695
 1997POPC   NC328283  36.916  22.948   9.548
 1997POPC   PO428284  37.291  22.408   9.340
 1997POPC   GL128285  37.053  22.773   9.094
 1997POPC   GL228286  36.670  22.857   9.085
 1997POPC   C1A28287  36.996  23.006   8.698
 1997POPC   D2A28288  37.024  23.300   8.326
 1997POPC   C3A28289  37.203  23.118   7.944
 1997POPC   C4A28290  37.223  22.672   7.819
 1997POPC   C1B28291  36.495  23.134   8.713
 1997POPC   C2B28292  36.473  23.299   8.258
 1997POPC   C3B28293  36.599  23.126   7.807
 1997POPC   C4B28294  36.553  23.077   7.351
 1998POPC   NC328295  37.299  44.434   9.758
 1998POPC   PO428296  36.806  44.814   9.722
 1998POPC   GL128297  37.064  44.691   9.326
 1998POPC   GL228298  37.198  44.341   9.279
 1998POPC   C1A28299  36.899  44.630   8.890
 1998POPC   D2A28300  36.766  44.898   8.525
 1998POPC   C3A28301  36.712  44.694   8.113
 1998POPC   C4A28302  36.768  44.783   7.675
 1998POPC   C1B28303  37.142  44.179   8.878
 1998POPC   C2B28304  37.008  44.256   8.487
 1998POPC   C3B28305  37.182  44.152   8.104
 1998POPC   C4B28306  37.176  44.378   7.747
 1999POPC   NC328307  35.078   0.971   9.406
 1999POPC   PO428308  35.760   1.139   9.279
 1999POPC   GL128309  35.362   1.173   9.042
 1999POPC   GL228310  35.174   0.842   8.923
 1999POPC   C1A28311  35.176   1.321   8.664
 1999POPC   D2A28312  35.426   1.433   8.295
 1999POPC   C3A28313  35.241   1.335   7.895
 1999POPC   C4A28314  34.994   1.327   7.510
 1999POPC   C1B28315  35.527   0.907   8.624
 1999POPC   C2B28316  35.771   1.035   8.246
 1999POPC   C3B28317  35.656   1.039   7.813
 1999POPC   C4B28318  35.261   0.842   7.726
 2000POPC   NC328319  35.905  44.612   9.541
 2000POPC   PO428320  35.267  44.629   9.734
 2000POPC   GL128321  35.239  44.647   9.160
 2000POPC   GL228322  35.540  44.829   9.163
 2000POPC   C1A28323  35.362  44.429   8.742
 2000POPC   D2A28324  35.470  44.587   8.321
 2000POPC   C3A28325  35.281  44.630   7.953
 2000POPC   C4A28326  34.934  44.932   7.887
 2000POPC   C1B28327  35.439  44.925   8.755
 2000POPC   C2B28328  35.688   0.054   8.424
 2000POPC   C3B28329  35.660  44.982   8.015
 2000POPC   C4B28330  35.890  44.966   7.661
 2001POPC   NC328331  34.917  44.471   9.483
 2001POPC   PO428332  34.326  44.347   9.663
 2001POPC   GL128333  34.443  44.512   9.227
 2001POPC   GL228334  34.674  44.292   9.079
 2001POPC   C1A28335  34.351  44.555   8.775
 2001POPC   D2A28336  34.183  44.677   8.361
 2001POPC   C3A28337  34.479  44.735   8.009
 2001POPC   C4A28338  34.523  44.942   7.569
 2001POPC   C1B28339  34.869  44.606   8.787
 2001POPC   C2B28340  34.943  44.653   8.337
 2001POPC   C3B28341  34.844  44.403   7.930
 2001POPC   C4B28342  34.845  44.548   7.492
 2002POPC   NC328343  42.904  38.146   9.380
 2002POPC   PO428344  42.785  38.812   9.509
 2002POPC   GL128345  42.898  38.591   9.128
 2002POPC   GL228346  43.241  38.636   9.177
 2002POPC   C1A28347  42.856  38.363   8.734
 2002POPC   D2A28348  43.105  38.319   8.370
 2002POPC   C3A28349  42.888  38.303   7.977
 2002POPC   C4A28350  42.831  37.935   7.733
 2002POPC   C1B28351  43.383  38.406   8.837
 2002POPC   C2B28352  43.572  38.514   8.452
 2002POPC   C3B28353  43.406  38.808   8.137
 2002POPC   C4B28354  43.234  38.628   7.796
 2003POPC   NC328355  19.980  40.335   9.428
 2003POPC   PO428356  19.493  39.878   9.558
 2003POPC   GL128357  19.678  39.952   9.164
 2003POPC   GL228358  20.002  39.800   9.100
 2003POPC   C1A28359  19.658  39.917   8.713
 2003POPC   D2A28360  19.742  40.098   8.307
 2003POPC   C3A28361  19.487  39.910   7.962
 2003POPC   C4A28362  19.591  39.753   7.534
 2003POPC   C1B28363  20.204  39.914   8.679
 2003POPC   C2B28364  20.155  39.717   8.251
 2003POPC   C3B28365  19.996  39.937   7.867
 2003POPC   C4B28366  19.720  40.330   7.832
 2004POPC   NC328367  37.819  25.541   9.524
 2004POPC   PO428368  38.029  25.014   9.174
 2004POPC   GL128369  37.874  25.383   9.046
 2004POPC   GL228370  37.512  25.330   9.150
 2004POPC   C1A28371  37.739  25.363   8.656
 2004POPC   D2A28372  37.703  24.958   8.520
 2004POPC   C3A28373  37.710  24.977   8.082
 2004POPC   C4A28374  37.898  25.344   7.912
 2004POPC   C1B28375  37.274  25.167   8.771
 2004POPC   C2B28376  37.345  25.308   8.319
 2004POPC   C3B28377  37.392  25.333   7.870
 2004POPC   C4B28378  37.291  25.177   7.472
 2005POPC   NC328379  21.605  24.583   9.642
 2005POPC   PO428380  21.129  24.971   9.567
 2005POPC   GL128381  21.462  24.837   9.209
 2005POPC   GL228382  21.532  24.460   9.152
 2005POPC   C1A28383  21.661  24.762   8.774
 2005POPC   D2A28384  21.648  24.533   8.355
 2005POPC   C3A28385  21.402  24.558   7.919
 2005POPC   C4A28386  21.112  24.484   7.551
 2005POPC   C1B28387  21.754  24.244   8.783
 2005POPC   C2B28388  21.659  24.019   8.384
 2005POPC   C3B28389  21.700  24.147   7.964
 2005POPC   C4B28390  21.541  24.168   7.533
 2006POPC   NC328391   2.230  41.859   9.504
 2006POPC   PO428392   1.840  42.417   9.403
 2006POPC   GL128393   1.829  42.171   9.031
 2006POPC   GL228394   2.037  42.445   8.912
 2006POPC   C1A28395   1.871  42.092   8.584
 2006POPC   D2A28396   1.942  42.431   8.282
 2006POPC   C3A28397   1.749  42.298   7.926
 2006POPC   C4A28398   1.715  41.982   7.622
 2006POPC   C1B28399   2.345  42.182   8.705
 2006POPC   C2B28400   2.337  42.092   8.235
 2006POPC   C3B28401   2.225  42.212   7.801
 2006POPC   C4B28402   2.169  41.905   7.432
 2007POPC   NC328403   0.162   4.610   9.889
 2007POPC   PO428404   0.698   4.462   9.546
 2007POPC   GL128405   0.493   4.399   9.128
 2007POPC   GL228406   0.305   4.113   9.117
 2007POPC   C1A28407   0.651   4.481   8.694
 2007POPC   D2A28408   0.502   4.689   8.327
 2007POPC   C3A28409   0.677   4.665   7.928
 2007POPC   C4A28410   0.453   4.683   7.514
 2007POPC   C1B28411   0.467   4.015   8.713
 2007POPC   C2B28412   0.531   4.180   8.293
 2007POPC   C3B28413   0.314   4.285   7.947
 2007POPC   C4B28414   0.619   4.233   7.669
 2008POPC   NC328415  33.817  33.381   9.528
 2008POPC   PO428416  33.506  34.004   9.609
 2008POPC   GL128417  33.720  33.884   9.170
 2008POPC   GL228418  33.666  33.591   9.094
 2008POPC   C1A28419  33.795  33.842   8.662
 2008POPC   D2A28420  33.625  34.106   8.309
 2008POPC   C3A28421  33.735  34.005   7.908
 2008POPC   C4A28422  34.138  33.894   7.811
 2008POPC   C1B28423  33.543  33.364   8.738
 2008POPC   C2B28424  33.813  33.328   8.394
 2008POPC   C3B28425  33.816  33.525   8.030
 2008POPC   C4B28426  33.457  33.483   7.749
 2009POPC   NC328427  32.456  17.640   9.540
 2009POPC   PO428428  31.992  17.235   9.612
 2009POPC   GL128429  32.251  17.282   9.187
 2009POPC   GL228430  32.491  17.570   9.047
 2009POPC   C1A28431  32.326  17.233   8.727
 2009POPC   D2A28432  32.448  17.507   8.390
 2009POPC   C3A28433  32.270  17.375   8.011
 2009POPC   C4A28434  32.152  17.329   7.562
 2009POPC   C1B28435  32.114  17.694   8.768
 2009POPC   C2B28436  31.958  17.708   8.302
 2009POPC   C3B28437  32.096  17.813   7.855
 2009POPC   C4B28438  32.528  17.656   7.679
 2010POPC   NC328439  13.063   8.011   9.659
 2010POPC   PO428440  12.730   8.506   9.366
 2010POPC   GL128441  12.778   8.130   9.199
 2010POPC   GL228442  12.479   8.070   8.973
 2010POPC   C1A28443  12.956   8.063   8.822
 2010POPC   D2A28444  12.964   8.199   8.445
 2010POPC   C3A28445  12.720   7.962   8.179
 2010POPC   C4A28446  12.816   8.187   7.813
 2010POPC   C1B28447  12.560   8.419   8.691
 2010POPC   C2B28448  12.565   8.462   8.233
 2010POPC   C3B28449  12.442   8.547   7.821
 2010POPC   C4B28450  12.632   8.467   7.425
 2011POPC   NC328451  16.148  21.165   9.430
 2011POPC   PO428452  15.659  21.670   9.423
 2011POPC   GL128453  15.769  21.365   9.139
 2011POPC   GL228454  16.039  21.529   9.029
 2011POPC   C1A28455  15.853  21.233   8.688
 2011POPC   D2A28456  16.022  21.530   8.429
 2011POPC   C3A28457  16.112  21.347   8.056
 2011POPC   C4A28458  15.771  21.250   7.811
 2011POPC   C1B28459  15.655  21.708   8.759
 2011POPC   C2B28460  15.462  21.839   8.325
 2011POPC   C3B28461  15.584  21.807   7.867
 2011POPC   C4B28462  15.990  21.698   7.666
 2012POPC   NC328463  17.328  11.550   9.552
 2012POPC   PO428464  17.921  11.718   9.550
 2012POPC   GL128465  17.702  11.640   9.156
 2012POPC   GL228466  17.355  11.759   9.095
 2012POPC   C1A28467  17.690  11.343   8.803
 2012POPC   D2A28468  17.489  11.138   8.456
 2012POPC   C3A28469  17.593  11.267   8.025
 2012POPC   C4A28470  17.457  11.654   7.850
 2012POPC   C1B28471  17.220  11.538   8.738
 2012POPC   C2B28472  17.266  11.570   8.307
 2012POPC   C3B28473  17.086  11.290   7.956
 2012POPC   C4B28474  16.912  11.112   7.559
 2013POPC   NC328475  32.507  43.728   9.506
 2013POPC   PO428476  32.046  44.320   9.487
 2013POPC   GL128477  32.242  44.050   9.210
 2013POPC   GL228478  32.063  43.715   9.227
 2013POPC   C1A28479  32.465  43.984   8.842
 2013POPC   D2A28480  32.374  43.773   8.440
 2013POPC   C3A28481  32.440  43.994   8.116
 2013POPC   C4A28482  32.599  43.876   7.769
 2013POPC   C1B28483  32.004  43.759   8.785
 2013POPC   C2B28484  31.914  44.002   8.370
 2013POPC   C3B28485  31.975  43.935   7.909
 2013POPC   C4B28486  32.162  43.714   7.568
 2014POPC   NC328487  32.506  44.473   9.520
 2014POPC   PO428488  32.244   0.001   9.810
 2014POPC   GL128489  32.322  44.878   9.308
 2014POPC   GL228490  32.464   0.133   9.132
 2014POPC   C1A28491  32.249  44.578   8.906
 2014POPC   D2A28492  32.310  44.339   8.481
 2014POPC   C3A28493  32.175  44.433   8.017
 2014POPC   C4A28494  32.282  44.707   7.636
 2014POPC   C1B28495  32.374   0.030   8.706
 2014POPC   C2B28496  32.368  44.845   8.306
 2014POPC   C3B28497  32.411   0.087   7.957
 2014POPC   C4B28498  32.221   0.253   7.598
 2015POPC   NC328499  12.672  41.742   9.300
 2015POPC   PO428500  12.741  42.372   9.584
 2015POPC   GL128501  12.878  42.323   9.185
 2015POPC   GL228502  13.040  42.048   9.157
 2015POPC   C1A28503  12.888  42.431   8.742
 2015POPC   D2A28504  12.621  42.439   8.375
 2015POPC   C3A28505  12.772  42.529   7.950
 2015POPC   C4A28506  12.681  42.585   7.506
 2015POPC   C1B28507  13.268  42.078   8.781
 2015POPC   C2B28508  13.151  42.065   8.353
 2015POPC   C3B28509  13.219  42.230   7.938
 2015POPC   C4B28510  12.924  42.155   7.600
 2016POPC   NC328511   0.817  25.221   9.374
 2016POPC   PO428512   1.392  25.507   9.367
 2016POPC   GL128513   1.333  25.099   9.130
 2016POPC   GL228514   1.162  24.750   9.141
 2016POPC   C1A28515   1.300  25.076   8.689
 2016POPC   D2A28516   1.465  25.374   8.374
 2016POPC   C3A28517   1.239  25.400   7.983
 2016POPC   C4A28518   1.307  25.371   7.551
 2016POPC   C1B28519   0.862  24.797   8.754
 2016POPC   C2B28520   1.015  24.817   8.353
 2016POPC   C3B28521   0.978  24.965   7.934
 2016POPC   C4B28522   1.019  24.945   7.456
 2017POPC   NC328523  35.440  36.224   9.381
 2017POPC   PO428524  34.976  35.732   9.345
 2017POPC   GL128525  35.152  35.970   9.012
 2017POPC   GL228526  35.122  36.326   9.003
 2017POPC   C1A28527  35.210  36.042   8.586
 2017POPC   D2A28528  35.320  35.797   8.293
 2017POPC   C3A28529  35.568  36.025   8.074
 2017POPC   C4A28530  35.549  35.968   7.681
 2017POPC   C1B28531  34.924  36.461   8.614
 2017POPC   C2B28532  35.103  36.452   8.182
 2017POPC   C3B28533  35.247  36.362   7.741
 2017POPC   C4B28534  35.391  36.575   7.347
 2018POPC   NC328535  40.018  10.005   9.737
 2018POPC   PO428536  40.286   9.643   9.240
 2018POPC   GL128537  40.185   9.917   8.943
 2018POPC   GL228538  39.919  10.060   9.100
 2018POPC   C1A28539  40.259   9.890   8.533
 2018POPC   D2A28540  40.334   9.527   8.304
 2018POPC   C3A28541  40.282   9.635   7.878
 2018POPC   C4A28542  40.080  10.011   7.638
 2018POPC   C1B28543  39.742   9.969   8.689
 2018POPC   C2B28544  39.823   9.644   8.380
 2018POPC   C3B28545  39.788   9.710   7.957
 2018POPC   C4B28546  39.823   9.569   7.528
 2019POPC   NC328547  13.537  12.556   9.618
 2019POPC   PO428548  13.599  11.953   9.940
 2019POPC   GL128549  13.609  12.099   9.396
 2019POPC   GL228550  13.418  11.886   9.128
 2019POPC   C1A28551  13.806  12.222   8.964
 2019POPC   D2A28552  13.913  12.150   8.507
 2019POPC   C3A28553  13.576  12.109   8.181
 2019POPC   C4A28554  13.422  12.389   7.849
 2019POPC   C1B28555  13.169  11.735   8.719
 2019POPC   C2B28556  13.162  11.603   8.251
 2019POPC   C3B28557  13.406  11.727   7.881
 2019POPC   C4B28558  13.411  12.011   7.499
 2020POPC   NC328559  32.027  14.798  10.078
 2020POPC   PO428560  32.158  14.486   9.491
 2020POPC   GL128561  31.934  14.413   9.107
 2020POPC   GL228562  31.935  14.057   9.076
 2020POPC   C1A28563  32.107  14.408   8.710
 2020POPC   D2A28564  32.387  14.512   8.392
 2020POPC   C3A28565  32.142  14.622   8.068
 2020POPC   C4A28566  32.284  14.518   7.691
 2020POPC   C1B28567  32.027  13.899   8.654
 2020POPC   C2B28568  32.019  14.106   8.266
 2020POPC   C3B28569  32.089  14.093   7.844
 2020POPC   C4B28570  31.960  14.089   7.426
 2021POPC   NC328571  24.633   0.760   9.721
 2021POPC   PO428572  24.563   1.357   9.476
 2021POPC   GL128573  24.365   1.228   9.149
 2021POPC   GL228574  24.672   1.164   8.991
 2021POPC   C1A28575  24.206   1.347   8.763
 2021POPC   D2A28576  24.418   1.186   8.411
 2021POPC   C3A28577  24.225   1.302   8.055
 2021POPC   C4A28578  24.339   1.361   7.652
 2021POPC   C1B28579  24.790   0.912   8.661
 2021POPC   C2B28580  24.773   0.728   8.302
 2021POPC   C3B28581  24.854   0.938   7.913
 2021POPC   C4B28582  24.819   1.148   7.522
 2022POPC   NC328583  33.110  34.688   9.215
 2022POPC   PO428584  32.562  35.018   9.544
 2022POPC   GL128585  32.911  35.175   9.215
 2022POPC   GL228586  33.150  35.465   9.252
 2022POPC   C1A28587  33.107  35.224   8.797
 2022POPC   D2A28588  33.106  35.195   8.362
 2022POPC   C3A28589  32.682  35.169   8.199
 2022POPC   C4A28590  32.625  35.092   7.777
 2022POPC   C1B28591  33.174  35.734   8.877
 2022POPC   C2B28592  33.119  35.788   8.440
 2022POPC   C3B28593  32.992  35.608   8.043
 2022POPC   C4B28594  33.225  35.640   7.656
 2023POPC   NC328595   6.929   4.168   9.378
 2023POPC   PO428596   6.715   3.451   9.483
 2023POPC   GL128597   6.857   3.409   9.126
 2023POPC   GL228598   6.821   3.771   9.049
 2023POPC   C1A28599   6.709   3.368   8.734
 2023POPC   D2A28600   6.846   3.654   8.422
 2023POPC   C3A28601   6.815   3.482   8.058
 2023POPC   C4A28602   6.858   3.706   7.692
 2023POPC   C1B28603   6.466   3.808   8.774
 2023POPC   C2B28604   6.342   3.631   8.354
 2023POPC   C3B28605   6.445   3.847   7.966
 2023POPC   C4B28606   6.407   3.875   7.527
 2024POPC   NC328607  40.266   0.755   9.388
 2024POPC   PO428608  39.689   1.201   9.530
 2024POPC   GL128609  39.981   1.190   9.179
 2024POPC   GL228610  39.837   0.873   9.084
 2024POPC   C1A28611  40.148   1.219   8.734
 2024POPC   D2A28612  40.236   1.503   8.342
 2024POPC   C3A28613  40.112   1.457   7.899
 2024POPC   C4A28614  40.124   1.284   7.480
 2024POPC   C1B28615  39.677   1.039   8.667
 2024POPC   C2B28616  39.723   1.232   8.218
 2024POPC   C3B28617  39.705   1.171   7.745
 2024POPC   C4B28618  39.711   1.011   7.307
 2025POPC   NC328619  17.869   4.717   9.478
 2025POPC   PO428620  17.232   4.485   9.439
 2025POPC   GL128621  17.582   4.452   9.129
 2025POPC   GL228622  17.717   4.146   9.024
 2025POPC   C1A28623  17.752   4.584   8.746
 2025POPC   D2A28624  17.423   4.606   8.429
 2025POPC   C3A28625  17.338   4.588   7.981
 2025POPC   C4A28626  17.118   4.275   7.763
 2025POPC   C1B28627  17.459   4.098   8.663
 2025POPC   C2B28628  17.370   4.130   8.218
 2025POPC   C3B28629  17.633   4.186   7.847
 2025POPC   C4B28630  17.805   4.007   7.468
 2026POPC   NC328631  12.705  35.117   9.366
 2026POPC   PO428632  12.658  34.496   9.423
 2026POPC   GL128633  12.607  34.444   9.024
 2026POPC   GL228634  12.678  34.788   8.940
 2026POPC   C1A28635  12.767  34.397   8.613
 2026POPC   D2A28636  12.892  34.736   8.336
 2026POPC   C3A28637  13.023  34.607   7.922
 2026POPC   C4A28638  12.957  34.241   7.669
 2026POPC   C1B28639  12.463  35.091   8.670
 2026POPC   C2B28640  12.527  35.123   8.219
 2026POPC   C3B28641  12.743  35.078   7.852
 2026POPC   C4B28642  12.706  34.745   7.546
 2027POPC   NC328643  23.139  44.407   9.514
 2027POPC   PO428644  22.759   0.034   9.411
 2027POPC   GL128645  22.948  44.718   9.160
 2027POPC   GL228646  22.664  44.540   9.037
 2027POPC   C1A28647  23.094  44.567   8.760
 2027POPC   D2A28648  22.863  44.558   8.366
 2027POPC   C3A28649  23.093  44.541   7.988
 2027POPC   C4A28650  23.427  44.434   7.704
 2027POPC   C1B28651  22.664  44.888   8.761
 2027POPC   C2B28652  22.682   0.102   8.392
 2027POPC   C3B28653  22.687  44.910   8.021
 2027POPC   C4B28654  22.608  44.784   7.608
 2028POPC   NC328655   8.259  23.549   9.697
 2028POPC   PO428656   7.804  23.944   9.415
 2028POPC   GL128657   8.070  23.749   9.089
 2028POPC   GL228658   8.144  23.354   9.055
 2028POPC   C1A28659   8.040  23.731   8.642
 2028POPC   D2A28660   8.326  23.700   8.304
 2028POPC   C3A28661   8.153  23.789   7.967
 2028POPC   C4A28662   7.953  24.080   7.743
 2028POPC   C1B28663   8.498  23.458   8.711
 2028POPC   C2B28664   8.803  23.506   8.323
 2028POPC   C3B28665   8.685  23.648   7.896
 2028POPC   C4B28666   8.347  23.530   7.598
 2029POPC   NC328667  41.029  30.143   9.546
 2029POPC   PO428668  40.583  29.719   9.619
 2029POPC   GL128669  40.637  29.877   9.201
 2029POPC   GL228670  40.776  29.584   9.034
 2029POPC   C1A28671  40.714  30.165   8.830
 2029POPC   D2A28672  40.795  30.011   8.420
 2029POPC   C3A28673  40.614  30.066   8.012
 2029POPC   C4A28674  40.739  29.810   7.663
 2029POPC   C1B28675  40.749  29.501   8.576
 2029POPC   C2B28676  41.048  29.553   8.231
 2029POPC   C3B28677  41.153  29.534   7.778
 2029POPC   C4B28678  41.131  29.684   7.313
 2030POPC   NC328679  26.381   0.132   9.750
 2030POPC   PO428680  26.142   0.802   9.614
 2030POPC   GL128681  25.939   0.534   9.249
 2030POPC   GL228682  26.032   0.213   9.065
 2030POPC   C1A28683  26.036   0.621   8.797
 2030POPC   D2A28684  26.005   0.346   8.413
 2030POPC   C3A28685  26.162   0.456   7.991
 2030POPC   C4A28686  26.209   0.426   7.544
 2030POPC   C1B28687  25.745  44.989   8.730
 2030POPC   C2B28688  25.595   0.035   8.281
 2030POPC   C3B28689  25.820   0.061   7.851
 2030POPC   C4B28690  25.795   0.173   7.395
 2031POPC   NC328691  37.814  19.398   9.394
 2031POPC   PO428692  37.929  18.744   9.464
 2031POPC   GL128693  37.509  18.753   9.187
 2031POPC   GL228694  37.346  19.088   9.178
 2031POPC   C1A28695  37.474  18.675   8.745
 2031POPC   D2A28696  37.698  18.890   8.407
 2031POPC   C3A28697  37.566  18.829   8.012
 2031POPC   C4A28698  37.779  18.911   7.654
 2031POPC   C1B28699  37.589  19.207   8.803
 2031POPC   C2B28700  37.824  19.410   8.451
 2031POPC   C3B28701  37.867  19.264   8.026
 2031POPC   C4B28702  37.620  19.405   7.709
 2032POPC   NC328703  28.712  36.385   9.493
 2032POPC   PO428704  29.171  35.873   9.478
 2032POPC   GL128705  29.273  36.173   9.147
 2032POPC   GL228706  28.953  36.210   9.076
 2032POPC   C1A28707  29.381  36.285   8.734
 2032POPC   D2A28708  29.090  36.310   8.381
 2032POPC   C3A28709  29.289  36.191   7.986
 2032POPC   C4A28710  29.248  35.954   7.556
 2032POPC   C1B28711  28.969  35.943   8.746
 2032POPC   C2B28712  28.803  35.854   8.342
 2032POPC   C3B28713  28.888  35.860   7.908
 2032POPC   C4B28714  28.757  36.071   7.521
 2033POPC   NC328715  43.481  27.730   9.596
 2033POPC   PO428716  42.850  27.815   9.333
 2033POPC   GL128717  43.142  27.500   9.236
 2033POPC   GL228718  42.950  27.207   9.151
 2033POPC   C1A28719  43.221  27.524   8.812
 2033POPC   D2A28720  43.429  27.522   8.442
 2033POPC   C3A28721  43.260  27.585   8.072
 2033POPC   C4A28722  43.470  27.551   7.644
 2033POPC   C1B28723  42.746  27.264   8.780
 2033POPC   C2B28724  42.855  27.520   8.436
 2033POPC   C3B28725  42.768  27.415   8.036
 2033POPC   C4B28726  43.034  27.328   7.720
 2034POPC   NC328727  23.250  38.020   9.326
 2034POPC   PO428728  22.847  37.496   9.534
 2034POPC   GL128729  23.017  37.601   9.138
 2034POPC   GL228730  22.804  37.861   9.116
 2034POPC   C1A28731  23.016  37.744   8.693
 2034POPC   D2A28732  23.200  37.545   8.304
 2034POPC   C3A28733  22.935  37.587   7.928
 2034POPC   C4A28734  23.024  37.771   7.517
 2034POPC   C1B28735  22.539  37.986   8.804
 2034POPC   C2B28736  22.451  37.949   8.375
 2034POPC   C3B28737  22.562  37.974   7.958
 2034POPC   C4B28738  22.657  38.110   7.554
 2035POPC   NC328739   2.933  29.026   9.348
 2035POPC   PO428740   3.576  29.000   9.489
 2035POPC   GL128741   3.492  29.229   9.096
 2035POPC   GL228742   3.799  29.112   9.016
 2035POPC   C1A28743   3.572  29.319   8.627
 2035POPC   D2A28744   3.725  29.394   8.230
 2035POPC   C3A28745   3.470  29.276   7.858
 2035POPC   C4A28746   3.556  29.082   7.474
 2035POPC   C1B28747   4.018  28.913   8.697
 2035POPC   C2B28748   3.950  28.910   8.258
 2035POPC   C3B28749   3.939  29.092   7.866
 2035POPC   C4B28750   3.971  29.548   7.804
 2036POPC   NC328751  26.301   4.243  10.063
 2036POPC   PO428752  25.779   4.283   9.678
 2036POPC   GL128753  25.928   4.519   9.277
 2036POPC   GL228754  26.294   4.569   9.310
 2036POPC   C1A28755  26.024   4.379   8.841
 2036POPC   D2A28756  25.889   4.238   8.416
 2036POPC   C3A28757  26.234   4.040   8.185
 2036POPC   C4A28758  26.263   4.091   7.752
 2036POPC   C1B28759  26.422   4.715   8.885
 2036POPC   C2B28760  26.184   4.694   8.473
 2036POPC   C3B28761  26.259   4.541   8.069
 2036POPC   C4B28762  26.276   4.611   7.639
 2037POPC   NC328763  24.417   2.319   9.444
 2037POPC   PO428764  24.272   2.998   9.488
 2037POPC   GL128765  24.523   2.776   9.183
 2037POPC   GL228766  24.838   2.599   9.214
 2037POPC   C1A28767  24.620   2.796   8.752
 2037POPC   D2A28768  24.588   2.959   8.336
 2037POPC   C3A28769  24.319   2.774   8.023
 2037POPC   C4A28770  24.288   3.071   7.703
 2037POPC   C1B28771  24.953   2.404   8.813
 2037POPC   C2B28772  24.807   2.473   8.358
 2037POPC   C3B28773  24.849   2.681   7.918
 2037POPC   C4B28774  24.837   2.434   7.503
 2038POPC   NC328775  19.976  32.418   9.601
 2038POPC   PO428776  19.439  32.014   9.474
 2038POPC   GL128777  19.743  32.074   9.156
 2038POPC   GL228778  20.048  31.846   9.201
 2038POPC   C1A28779  19.637  32.243   8.746
 2038POPC   D2A28780  19.908  32.431   8.446
 2038POPC   C3A28781  19.802  32.302   8.052
 2038POPC   C4A28782  19.857  32.482   7.680
 2038POPC   C1B28783  20.126  32.038   8.776
 2038POPC   C2B28784  20.208  32.045   8.322
 2038POPC   C3B28785  20.280  32.228   7.902
 2038POPC   C4B28786  20.274  32.311   7.450
 2039POPC   NC328787   4.793  20.830   9.678
 2039POPC   PO428788   5.111  20.296   9.760
 2039POPC   GL128789   4.897  20.427   9.342
 2039POPC   GL228790   5.197  20.641   9.210
 2039POPC   C1A28791   4.794  20.554   8.901
 2039POPC   D2A28792   4.952  20.806   8.577
 2039POPC   C3A28793   4.920  20.681   8.155
 2039POPC   C4A28794   5.040  20.646   7.714
 2039POPC   C1B28795   5.423  20.576   8.797
 2039POPC   C2B28796   5.462  20.748   8.394
 2039POPC   C3B28797   5.452  20.606   8.009
 2039POPC   C4B28798   5.511  20.835   7.654
 2040POPC   NC328799  17.824  16.472   9.230
 2040POPC   PO428800  18.184  17.010   9.501
 2040POPC   GL128801  18.238  16.778   9.140
 2040POPC   GL228802  17.947  16.935   9.043
 2040POPC   C1A28803  18.406  16.502   8.789
 2040POPC   D2A28804  18.608  16.635   8.404
 2040POPC   C3A28805  18.544  16.673   7.959
 2040POPC   C4A28806  18.306  16.499   7.620
 2040POPC   C1B28807  17.998  16.795   8.643
 2040POPC   C2B28808  18.121  16.731   8.245
 2040POPC   C3B28809  17.900  16.562   7.924
 2040POPC   C4B28810  17.795  16.770   7.562
 2041POPC   NC328811  15.158  16.360   9.366
 2041POPC   PO428812  15.362  15.786   9.671
 2041POPC   GL128813  15.350  15.875   9.215
 2041POPC   GL228814  15.001  15.818   9.228
 2041POPC   C1A28815  15.468  15.806   8.759
 2041POPC   D2A28816  15.284  15.731   8.312
 2041POPC   C3A28817  15.412  15.944   7.910
 2041POPC   C4A28818  15.302  16.113   7.477
 2041POPC   C1B28819  14.953  15.726   8.798
 2041POPC   C2B28820  14.783  15.883   8.433
 2041POPC   C3B28821  14.912  16.028   8.046
 2041POPC   C4B28822  14.949  15.823   7.670
 2042POPC   NC328823  37.884  30.484   9.446
 2042POPC   PO428824  37.503  31.039   9.416
 2042POPC   GL128825  37.730  30.848   9.127
 2042POPC   GL228826  37.445  30.599   9.130
 2042POPC   C1A28827  38.003  30.913   8.773
 2042POPC   D2A28828  38.014  30.714   8.383
 2042POPC   C3A28829  37.768  30.859   8.017
 2042POPC   C4A28830  37.866  30.703   7.595
 2042POPC   C1B28831  37.444  30.794   8.720
 2042POPC   C2B28832  37.523  30.572   8.378
 2042POPC   C3B28833  37.358  30.556   7.995
 2042POPC   C4B28834  37.454  30.429   7.588
 2043POPC   NC328835  19.889   8.092   9.619
 2043POPC   PO428836  19.380   7.930   9.460
 2043POPC   GL128837  19.702   8.097   9.115
 2043POPC   GL228838  20.082   8.142   9.147
 2043POPC   C1A28839  19.807   8.190   8.646
 2043POPC   D2A28840  19.716   8.325   8.190
 2043POPC   C3A28841  19.784   8.051   7.809
 2043POPC   C4A28842  19.864   7.845   7.402
 2043POPC   C1B28843  20.185   8.475   8.852
 2043POPC   C2B28844  20.176   8.522   8.384
 2043POPC   C3B28845  20.192   8.326   7.977
 2043POPC   C4B28846  20.260   8.197   7.538
 2044POPC   NC328847  19.210  39.545   9.722
 2044POPC   PO428848  19.021  40.125   9.347
 2044POPC   GL128849  18.753  39.936   9.101
 2044POPC   GL228850  18.627  40.215   8.980
 2044POPC   C1A28851  18.828  39.751   8.703
 2044POPC   D2A28852  19.172  39.853   8.416
 2044POPC   C3A28853  18.955  39.951   8.042
 2044POPC   C4A28854  19.092  39.872   7.629
 2044POPC   C1B28855  18.876  40.259   8.613
 2044POPC   C2B28856  18.758  40.457   8.263
 2044POPC   C3B28857  18.516  40.264   7.997
 2044POPC   C4B28858  18.759  40.255   7.652
 2045POPC   NC328859  22.953  35.420   9.589
 2045POPC   PO428860  23.162  34.981   9.161
 2045POPC   GL128861  23.145  35.391   9.102
 2045POPC   GL228862  22.809  35.415   9.093
 2045POPC   C1A28863  23.251  35.488   8.723
 2045POPC   D2A28864  23.242  35.117   8.456
 2045POPC   C3A28865  23.015  35.261   8.112
 2045POPC   C4A28866  22.993  35.320   7.683
 2045POPC   C1B28867  22.752  35.175   8.689
 2045POPC   C2B28868  22.542  35.095   8.291
 2045POPC   C3B28869  22.606  35.005   7.856
 2045POPC   C4B28870  22.529  35.213   7.511
 2046POPC   NC328871  29.633  20.732   9.508
 2046POPC   PO428872  29.747  20.066   9.601
 2046POPC   GL128873  29.917  20.364   9.200
 2046POPC   GL228874  29.998  20.720   9.134
 2046POPC   C1A28875  30.111  20.452   8.740
 2046POPC   D2A28876  30.077  20.818   8.465
 2046POPC   C3A28877  30.232  20.806   8.020
 2046POPC   C4A28878  30.023  20.507   7.720
 2046POPC   C1B28879  29.684  20.716   8.829
 2046POPC   C2B28880  29.585  20.948   8.456
 2046POPC   C3B28881  29.398  20.846   8.112
 2046POPC   C4B28882  29.570  20.724   7.757
 2047POPC   NC328883  10.858  21.781   9.929
 2047POPC   PO428884  10.400  22.208   9.592
 2047POPC   GL128885  10.524  22.123   9.186
 2047POPC   GL228886  10.685  22.422   9.094
 2047POPC   C1A28887  10.660  21.936   8.798
 2047POPC   D2A28888  10.560  21.767   8.398
 2047POPC   C3A28889  10.574  22.045   8.100
 2047POPC   C4A28890  10.690  22.351   7.837
 2047POPC   C1B28891  10.357  22.369   8.751
 2047POPC   C2B28892  10.458  22.493   8.332
 2047POPC   C3B28893  10.272  22.602   7.939
 2047POPC   C4B28894  10.219  22.497   7.513
 2048POPC   NC328895  39.309  15.927   9.814
 2048POPC   PO428896  39.210  16.215   9.228
 2048POPC   GL128897  39.084  15.830   9.054
 2048POPC   GL228898  38.914  15.528   9.224
 2048POPC   C1A28899  39.192  15.826   8.641
 2048POPC   D2A28900  39.029  16.188   8.430
 2048POPC   C3A28901  39.244  16.288   8.072
 2048POPC   C4A28902  39.443  16.189   7.713
 2048POPC   C1B28903  38.764  15.552   8.768
 2048POPC   C2B28904  38.838  15.700   8.298
 2048POPC   C3B28905  39.161  15.760   7.972
 2048POPC   C4B28906  39.455  15.673   7.624
 2049POPC   NC328907  17.765  25.679   9.248
 2049POPC   PO428908  17.494  26.273   9.485
 2049POPC   GL128909  17.507  26.102   9.114
 2049POPC   GL228910  17.766  26.340   9.003
 2049POPC   C1A28911  17.551  25.962   8.696
 2049POPC   D2A28912  17.297  26.009   8.355
 2049POPC   C3A28913  17.443  25.827   7.977
 2049POPC   C4A28914  17.784  25.860   7.671
 2049POPC   C1B28915  17.381  26.477   8.780
 2049POPC   C2B28916  17.355  26.573   8.337
 2049POPC   C3B28917  17.549  26.336   8.016
 2049POPC   C4B28918  17.750  26.380   7.627
 2050POPC   NC328919  40.697  11.666   9.423
 2050POPC   PO428920  41.273  11.941   9.447
 2050POPC   GL128921  40.941  12.030   9.117
 2050POPC   GL228922  40.683  12.313   9.004
 2050POPC   C1A28923  40.807  11.929   8.706
 2050POPC   D2A28924  40.660  11.775   8.327
 2050POPC   C3A28925  40.889  12.026   8.072
 2050POPC   C4A28926  41.035  12.022   7.677
 2050POPC   C1B28927  40.548  12.521   8.672
 2050POPC   C2B28928  40.545  12.330   8.313
 2050POPC   C3B28929  40.366  12.092   8.020
 2050POPC   C4B28930  40.514  11.988   7.633
 2051POPC   NC328931  22.042  34.036   9.443
 2051POPC   PO428932  22.034  33.355   9.365
 2051POPC   GL128933  22.172  33.707   9.085
 2051POPC   GL228934  21.903  33.997   8.974
 2051POPC   C1A28935  22.259  33.814   8.675
 2051POPC   D2A28936  22.273  33.647   8.312
 2051POPC   C3A28937  22.381  33.900   8.018
 2051POPC   C4A28938  22.328  33.647   7.674
 2051POPC   C1B28939  22.069  34.317   8.766
 2051POPC   C2B28940  22.231  34.259   8.386
 2051POPC   C3B28941  21.997  34.263   8.009
 2051POPC   C4B28942  22.100  34.086   7.622
 2052POPC   NC328943   7.346  22.096   9.541
 2052POPC   PO428944   7.588  21.455   9.586
 2052POPC   GL128945   7.575  21.580   9.141
 2052POPC   GL228946   7.263  21.764   9.122
 2052POPC   C1A28947   7.439  21.425   8.704
 2052POPC   D2A28948   7.658  21.204   8.335
 2052POPC   C3A28949   7.465  21.421   7.979
 2052POPC   C4A28950   7.068  21.316   7.808
 2052POPC   C1B28951   7.078  21.812   8.716
 2052POPC   C2B28952   7.027  21.639   8.305
 2052POPC   C3B28953   7.114  21.803   7.914
 2052POPC   C4B28954   6.893  21.700   7.504
 2053POPC   NC328955  23.143  36.414   9.798
 2053POPC   PO428956  22.928  35.885   9.517
 2053POPC   GL128957  22.847  36.044   9.138
 2053POPC   GL228958  22.543  35.861   9.127
 2053POPC   C1A28959  22.714  36.287   8.763
 2053POPC   D2A28960  22.755  36.489   8.325
 2053POPC   C3A28961  22.831  36.238   7.967
 2053POPC   C4A28962  23.244  36.202   7.758
 2053POPC   C1B28963  22.766  35.757   8.716
 2053POPC   C2B28964  23.099  35.859   8.394
 2053POPC   C3B28965  23.129  35.751   7.948
 2053POPC   C4B28966  22.749  35.769   7.724
 2054POPC   NC328967  18.762  14.299   9.445
 2054POPC   PO428968  19.442  14.396   9.547
 2054POPC   GL128969  19.187  14.602   9.192
 2054POPC   GL228970  19.043  14.289   9.012
 2054POPC   C1A28971  19.119  14.683   8.728
 2054POPC   D2A28972  19.270  14.342   8.434
 2054POPC   C3A28973  19.127  14.304   7.998
 2054POPC   C4A28974  19.143  14.702   7.828
 2054POPC   C1B28975  18.784  14.290   8.617
 2054POPC   C2B28976  18.816  14.614   8.265
 2054POPC   C3B28977  18.640  14.547   7.849
 2054POPC   C4B28978  18.726  14.162   7.578
 2055POPC   NC328979  38.308  36.156   9.576
 2055POPC   PO428980  38.938  36.322   9.550
 2055POPC   GL128981  38.653  36.280   9.193
 2055POPC   GL228982  38.378  36.516   9.223
 2055POPC   C1A28983  38.479  36.045   8.811
 2055POPC   D2A28984  38.539  35.881   8.360
 2055POPC   C3A28985  38.275  35.902   7.989
 2055POPC   C4A28986  38.422  35.973   7.553
 2055POPC   C1B28987  38.480  36.564   8.786
 2055POPC   C2B28988  38.333  36.369   8.411
 2055POPC   C3B28989  38.533  36.344   8.023
 2055POPC   C4B28990  38.421  36.519   7.658
 2056POPC   NC328991  23.684   4.794   9.595
 2056POPC   PO428992  23.508   5.481   9.428
 2056POPC   GL128993  23.608   5.092   9.191
 2056POPC   GL228994  23.949   4.983   9.140
 2056POPC   C1A28995  23.541   4.895   8.796
 2056POPC   D2A28996  23.507   5.150   8.432
 2056POPC   C3A28997  23.437   4.904   8.120
 2056POPC   C4A28998  23.463   5.023   7.734
 2056POPC   C1B28999  23.869   5.310   8.802
 2056POPC   C2B29000  23.999   5.350   8.358
 2056POPC   C3B29001  23.856   5.206   7.991
 2056POPC   C4B29002  23.950   4.908   7.695
 2057POPC   NC329003  13.747  29.690   9.468
 2057POPC   PO429004  13.285  30.224   9.476
 2057POPC   GL129005  13.535  30.072   9.094
 2057POPC   GL229006  13.445  29.711   9.059
 2057POPC   C1A29007  13.653  29.948   8.658
 2057POPC   D2A29008  13.813  29.697   8.304
 2057POPC   C3A29009  13.899  29.929   7.950
 2057POPC   C4A29010  13.729  30.175   7.653
 2057POPC   C1B29011  13.436  29.493   8.673
 2057POPC   C2B29012  13.324  29.490   8.293
 2057POPC   C3B29013  13.405  29.808   8.014
 2057POPC   C4B29014  13.501  29.721   7.634
 2058POPC   NC329015  22.552  32.389   9.452
 2058POPC   PO429016  22.578  31.748   9.622
 2058POPC   GL129017  22.324  31.954   9.201
 2058POPC   GL229018  22.472  32.232   8.975
 2058POPC   C1A29019  21.978  32.108   8.851
 2058POPC   D2A29020  21.671  32.082   8.450
 2058POPC   C3A29021  21.787  31.983   7.987
 2058POPC   C4A29022  22.222  31.950   7.789
 2058POPC   C1B29023  22.393  31.993   8.590
 2058POPC   C2B29024  22.154  32.193   8.265
 2058POPC   C3B29025  22.004  32.425   7.889
 2058POPC   C4B29026  21.781  32.820   7.863
 2059POPC   NC329027  24.044  41.014   9.575
 2059POPC   PO429028  24.504  40.541   9.519
 2059POPC   GL129029  24.256  40.694   9.196
 2059POPC   GL229030  24.395  41.020   9.197
 2059POPC   C1A29031  24.250  40.595   8.753
 2059POPC   D2A29032  24.313  40.769   8.336
 2059POPC   C3A29033  24.372  40.502   7.962
 2059POPC   C4A29034  24.021  40.370   7.719
 2059POPC   C1B29035  24.447  41.069   8.763
 2059POPC   C2B29036  24.643  41.162   8.362
 2059POPC   C3B29037  24.513  41.039   7.947
 2059POPC   C4B29038  24.127  40.903   7.760
 2060POPC   NC329039  14.893   9.866   9.658
 2060POPC   PO429040  14.785  10.463   9.443
 2060POPC   GL129041  15.017  10.654   9.065
 2060POPC   GL229042  15.326  10.864   9.108
 2060POPC   C1A29043  15.011  10.845   8.675
 2060POPC   D2A29044  15.149  10.566   8.369
 2060POPC   C3A29045  15.114  10.654   7.960
 2060POPC   C4A29046  14.724  10.455   7.791
 2060POPC   C1B29047  15.516  10.689   8.702
 2060POPC   C2B29048  15.606  10.726   8.216
 2060POPC   C3B29049  15.574  10.664   7.728
 2060POPC   C4B29050  15.549  10.714   7.247
 2061POPC   NC329051  42.710  30.382   9.464
 2061POPC   PO429052  42.721  29.658   9.444
 2061POPC   GL129053  42.508  29.839   9.063
 2061POPC   GL229054  42.115  29.876   9.009
 2061POPC   C1A29055  42.610  29.797   8.630
 2061POPC   D2A29056  42.486  29.563   8.269
 2061POPC   C3A29057  42.214  29.808   8.010
 2061POPC   C4A29058  42.441  30.127   7.811
 2061POPC   C1B29059  42.279  30.200   8.726
 2061POPC   C2B29060  42.271  30.282   8.282
 2061POPC   C3B29061  41.974  30.288   7.936
 2061POPC   C4B29062  42.003  30.016   7.560
 2062POPC   NC329063  28.211  21.769   9.450
 2062POPC   PO429064  28.548  21.206   9.580
 2062POPC   GL129065  28.499  21.431   9.232
 2062POPC   GL229066  28.734  21.695   9.162
 2062POPC   C1A29067  28.261  21.432   8.867
 2062POPC   D2A29068  28.415  21.260   8.500
 2062POPC   C3A29069  28.254  21.257   8.126
 2062POPC   C4A29070  28.113  21.246   7.722
 2062POPC   C1B29071  28.620  21.742   8.710
 2062POPC   C2B29072  28.355  21.772   8.320
 2062POPC   C3B29073  28.320  21.695   7.879
 2062POPC   C4B29074  28.631  21.516   7.660
 2063POPC   NC329075  34.413  41.085   9.355
 2063POPC   PO429076  34.987  40.741   9.299
 2063POPC   GL129077  34.821  40.845   8.900
 2063POPC   GL229078  34.587  41.115   8.865
 2063POPC   C1A29079  34.812  40.722   8.444
 2063POPC   D2A29080  34.445  40.803   8.152
 2063POPC   C3A29081  34.574  40.975   7.749
 2063POPC   C4A29082  34.706  41.096   7.303
 2063POPC   C1B29083  34.357  40.749   8.673
 2063POPC   C2B29084  34.060  40.498   8.444
 2063POPC   C3B29085  34.090  40.396   8.023
 2063POPC   C4B29086  34.417  40.458   7.745
 2064POPC   NC329087  16.695  44.827   9.633
 2064POPC   PO429088  16.985  44.368   9.332
 2064POPC   GL129089  16.786  44.648   9.093
 2064POPC   GL229090  16.972  44.445   8.833
 2064POPC   C1A29091  16.721  44.848   8.678
 2064POPC   D2A29092  16.657  44.608   8.286
 2064POPC   C3A29093  16.646  44.821   7.873
 2064POPC   C4A29094  17.054  44.988   7.841
 2064POPC   C1B29095  16.490  44.398   8.755
 2064POPC   C2B29096  16.206  44.395   8.375
 2064POPC   C3B29097  16.332  44.361   7.960
 2064POPC   C4B29098  16.635  44.387   7.614
 2065POPC   NC329099   7.749  22.813   9.703
 2065POPC   PO429100   7.162  23.141   9.459
 2065POPC   GL129101   7.313  23.165   9.083
 2065POPC   GL229102   7.637  23.032   9.174
 2065POPC   C1A29103   7.214  22.919   8.715
 2065POPC   D2A29104   7.146  23.165   8.376
 2065POPC   C3A29105   7.323  22.997   8.058
 2065POPC   C4A29106   7.544  23.140   7.752
 2065POPC   C1B29107   7.691  23.029   8.740
 2065POPC   C2B29108   7.572  22.681   8.399
 2065POPC   C3B29109   7.701  22.669   7.944
 2065POPC   C4B29110   7.693  22.749   7.460
 2066POPC   NC329111   8.408  25.164   9.346
 2066POPC   PO429112   7.784  25.414   9.276
 2066POPC   GL129113   8.048  25.135   8.972
 2066POPC   GL229114   8.417  25.033   8.877
 2066POPC   C1A29115   8.049  24.995   8.547
 2066POPC   D2A29116   7.853  25.320   8.368
 2066POPC   C3A29117   7.973  25.513   8.032
 2066POPC   C4A29118   8.082  25.267   7.694
 2066POPC   C1B29119   8.379  25.394   8.611
 2066POPC   C2B29120   8.426  25.348   8.201
 2066POPC   C3B29121   8.453  25.019   7.933
 2066POPC   C4B29122   8.464  24.994   7.463
 2067POPC   NC329123  42.317  14.252   9.439
 2067POPC   PO429124  41.861  14.685   9.645
 2067POPC   GL129125  42.097  14.707   9.226
 2067POPC   GL229126  42.345  14.523   9.035
 2067POPC   C1A29127  42.052  14.815   8.759
 2067POPC   D2A29128  42.135  14.781   8.294
 2067POPC   C3A29129  42.042  14.581   7.888
 2067POPC   C4A29130  42.223  14.482   7.455
 2067POPC   C1B29131  42.346  14.360   8.621
 2067POPC   C2B29132  42.451  14.398   8.181
 2067POPC   C3B29133  42.607  14.352   7.755
 2067POPC   C4B29134  42.616  14.174   7.330
 2068POPC   NC329135  14.685  28.516   9.316
 2068POPC   PO429136  14.305  28.047   9.629
 2068POPC   GL129137  14.282  28.248   9.169
 2068POPC   GL229138  14.397  28.582   8.926
 2068POPC   C1A29139  14.086  28.243   8.748
 2068POPC   D2A29140  14.272  28.294   8.352
 2068POPC   C3A29141  14.131  28.497   7.969
 2068POPC   C4A29142  14.002  28.242   7.623
 2068POPC   C1B29143  14.709  28.371   8.642
 2068POPC   C2B29144  14.820  28.255   8.225
 2068POPC   C3B29145  14.495  28.156   7.914
 2068POPC   C4B29146  14.525  28.148   7.490
 2069POPC   NC329147  32.659  25.392   9.341
 2069POPC   PO429148  32.085  25.034   9.402
 2069POPC   GL129149  32.093  25.249   9.015
 2069POPC   GL229150  32.445  25.317   8.901
 2069POPC   C1A29151  32.079  25.199   8.571
 2069POPC   D2A29152  32.030  24.861   8.306
 2069POPC   C3A29153  32.070  25.089   7.931
 2069POPC   C4A29154  32.304  25.428   7.714
 2069POPC   C1B29155  32.555  25.472   8.512
 2069POPC   C2B29156  32.621  25.311   8.108
 2069POPC   C3B29157  32.801  25.507   7.750
 2069POPC   C4B29158  32.654  25.786   7.417
 2070POPC   NC329159  30.381  13.777   9.369
 2070POPC   PO429160  30.946  13.388   9.458
 2070POPC   GL129161  30.700  13.386   9.111
 2070POPC   GL229162  30.742  13.735   9.027
 2070POPC   C1A29163  30.812  13.356   8.676
 2070POPC   D2A29164  30.589  13.503   8.322
 2070POPC   C3A29165  30.818  13.589   7.940
 2070POPC   C4A29166  31.066  13.318   7.712
 2070POPC   C1B29167  30.698  13.926   8.609
 2070POPC   C2B29168  30.973  14.171   8.350
 2070POPC   C3B29169  31.070  14.093   7.958
 2070POPC   C4B29170  30.750  14.059   7.675
 2071POPC   NC329171   4.188   1.262   9.631
 2071POPC   PO429172   4.790   1.028   9.438
 2071POPC   GL129173   4.438   0.990   9.178
 2071POPC   GL229174   4.342   1.335   9.142
 2071POPC   C1A29175   4.411   1.038   8.732
 2071POPC   D2A29176   4.429   1.172   8.328
 2071POPC   C3A29177   4.373   0.920   7.986
 2071POPC   C4A29178   4.317   1.097   7.580
 2071POPC   C1B29179   4.197   1.615   8.821
 2071POPC   C2B29180   4.122   1.606   8.386
 2071POPC   C3B29181   4.179   1.510   7.951
 2071POPC   C4B29182   3.884   1.451   7.635
 2072POPC   NC329183   6.329   2.199   9.839
 2072POPC   PO429184   5.716   1.926   9.731
 2072POPC   GL129185   5.742   1.982   9.241
 2072POPC   GL229186   6.060   1.790   9.072
 2072POPC   C1A29187   5.615   1.869   8.828
 2072POPC   D2A29188   5.569   2.144   8.483
 2072POPC   C3A29189   5.752   2.003   8.107
 2072POPC   C4A29190   5.599   2.153   7.699
 2072POPC   C1B29191   6.147   2.028   8.691
 2072POPC   C2B29192   6.315   2.078   8.272
 2072POPC   C3B29193   6.152   2.157   7.848
 2072POPC   C4B29194   5.934   1.788   7.634
 2073POPC   NC329195  38.802  42.403   9.743
 2073POPC   PO429196  39.315  42.075   9.472
 2073POPC   GL129197  39.348  42.301   9.133
 2073POPC   GL229198  39.644  42.147   9.020
 2073POPC   C1A29199  39.165  42.310   8.741
 2073POPC   D2A29200  39.268  42.549   8.395
 2073POPC   C3A29201  39.086  42.506   8.014
 2073POPC   C4A29202  39.183  42.457   7.570
 2073POPC   C1B29203  39.622  42.102   8.577
 2073POPC   C2B29204  39.480  42.141   8.147
 2073POPC   C3B29205  39.587  42.146   7.704
 2073POPC   C4B29206  39.365  42.054   7.296
 2074POPC   NC329207  10.327  36.859   9.847
 2074POPC   PO429208  10.828  36.527   9.541
 2074POPC   GL129209  10.699  36.800   9.198
 2074POPC   GL229210  10.915  36.997   8.966
 2074POPC   C1A29211  10.402  36.959   8.925
 2074POPC   D2A29212  10.366  36.929   8.504
 2074POPC   C3A29213  10.490  37.179   8.181
 2074POPC   C4A29214  10.356  37.068   7.773
 2074POPC   C1B29215  10.830  36.709   8.656
 2074POPC   C2B29216  10.739  36.701   8.229
 2074POPC   C3B29217  10.869  36.956   7.893
 2074POPC   C4B29218  10.820  36.677   7.567
 2075POPC   NC329219  42.037  33.127   9.522
 2075POPC   PO429220  42.667  33.359   9.370
 2075POPC   GL129221  42.300  33.266   9.123
 2075POPC   GL229222  42.227  32.901   9.093
 2075POPC   C1A29223  41.989  33.229   8.805
 2075POPC   D2A29224  41.980  32.954   8.494
 2075POPC   C3A29225  42.281  33.080   8.204
 2075POPC   C4A29226  42.190  33.160   7.805
 2075POPC   C1B29227  42.482  33.009   8.705
 2075POPC   C2B29228  42.823  32.769   8.477
 2075POPC   C3B29229  42.889  32.794   8.030
 2075POPC   C4B29230  42.531  32.764   7.759
 2076POPC   NC329231  34.078  43.976   9.791
 2076POPC   PO429232  34.669  43.897   9.409
 2076POPC   GL129233  34.538  43.770   9.031
 2076POPC   GL229234  34.204  43.625   9.060
 2076POPC   C1A29235  34.464  44.044   8.688
 2076POPC   D2A29236  34.575  44.301   8.368
 2076POPC   C3A29237  34.606  43.979   8.078
 2076POPC   C4A29238  34.687  43.644   7.777
 2076POPC   C1B29239  34.145  43.646   8.617
 2076POPC   C2B29240  34.290  43.570   8.186
 2076POPC   C3B29241  34.203  43.822   7.807
 2076POPC   C4B29242  34.305  43.644   7.392
 2077POPC   NC329243  35.980  21.383   9.577
 2077POPC   PO429244  36.599  21.660   9.506
 2077POPC   GL129245  36.314  21.472   9.196
 2077POPC   GL229246  35.989  21.670   9.163
 2077POPC   C1A29247  36.237  21.223   8.819
 2077POPC   D2A29248  35.960  21.248   8.427
 2077POPC   C3A29249  36.078  21.412   8.006
 2077POPC   C4A29250  36.129  21.317   7.558
 2077POPC   C1B29251  35.768  21.600   8.785
 2077POPC   C2B29252  35.514  21.533   8.415
 2077POPC   C3B29253  35.567  21.273   8.068
 2077POPC   C4B29254  35.645  21.422   7.681
 2078POPC   NC329255  42.197   2.275   9.468
 2078POPC   PO429256  42.427   1.667   9.502
 2078POPC   GL129257  42.368   1.883   9.104
 2078POPC   GL229258  42.531   2.229   9.104
 2078POPC   C1A29259  42.496   1.962   8.680
 2078POPC   D2A29260  42.834   2.144   8.524
 2078POPC   C3A29261  42.737   2.107   8.123
 2078POPC   C4A29262  42.648   2.180   7.713
 2078POPC   C1B29263  42.119   2.246   8.825
 2078POPC   C2B29264  42.014   2.083   8.432
 2078POPC   C3B29265  42.238   2.056   8.086
 2078POPC   C4B29266  42.152   2.259   7.717
 2079POPC   NC329267   0.681  24.330   9.414
 2079POPC   PO429268   0.132  24.695   9.535
 2079POPC   GL129269   0.224  24.553   9.089
 2079POPC   GL229270   0.369  24.265   9.014
 2079POPC   C1A29271   0.309  24.553   8.624
 2079POPC   D2A29272   0.511  24.766   8.332
 2079POPC   C3A29273   0.374  24.595   7.980
 2079POPC   C4A29274   0.631  24.719   7.677
 2079POPC   C1B29275   0.715  24.247   8.755
 2079POPC   C2B29276   0.715  24.301   8.327
 2079POPC   C3B29277   0.774  24.250   7.906
 2079POPC   C4B29278   0.510  24.251   7.579
 2080POPC   NC329279  23.185  37.158   9.451
 2080POPC   PO429280  22.748  36.662   9.669
 2080POPC   GL129281  22.875  36.766   9.209
 2080POPC   GL229282  22.821  37.131   9.100
 2080POPC   C1A29283  22.962  36.752   8.737
 2080POPC   D2A29284  22.755  36.991   8.381
 2080POPC   C3A29285  22.839  37.057   7.957
 2080POPC   C4A29286  22.711  36.703   7.694
 2080POPC   C1B29287  23.058  37.243   8.706
 2080POPC   C2B29288  23.247  37.017   8.293
 2080POPC   C3B29289  23.186  36.678   7.957
 2080POPC   C4B29290  23.157  36.622   7.473
 2081POPC   NC329291  25.603  10.390   9.507
 2081POPC   PO429292  26.207  10.153   9.503
 2081POPC   GL129293  26.199  10.302   9.068
 2081POPC   GL229294  25.938  10.554   9.136
 2081POPC   C1A29295  26.160  10.579   8.675
 2081POPC   D2A29296  25.995  10.778   8.284
 2081POPC   C3A29297  26.205  10.599   7.904
 2081POPC   C4A29298  26.301  10.177   7.748
 2081POPC   C1B29299  25.756  10.283   8.784
 2081POPC   C2B29300  25.830  10.258   8.336
 2081POPC   C3B29301  25.701  10.480   7.957
 2081POPC   C4B29302  25.820  10.305   7.568
 2082POPC   NC329303  44.850  43.267   9.399
 2082POPC   PO429304  44.393  42.859   9.625
 2082POPC   GL129305  44.525  42.857   9.206
 2082POPC   GL229306  44.508  43.153   9.040
 2082POPC   C1A29307  44.607  42.718   8.780
 2082POPC   D2A29308  44.525  42.830   8.372
 2082POPC   C3A29309  44.756  42.912   7.971
 2082POPC   C4A29310  44.459  43.045   7.673
 2082POPC   C1B29311  44.370  43.227   8.652
 2082POPC   C2B29312  44.640  43.324   8.310
 2082POPC   C3B29313  44.720  43.438   7.926
 2082POPC   C4B29314   0.086  43.600   7.781
 2083POPC   NC329315   3.773  28.573   9.532
 2083POPC   PO429316   3.358  28.025   9.432
 2083POPC   GL129317   3.549  28.277   9.120
 2083POPC   GL229318   3.576  28.649   9.079
 2083POPC   C1A29319   3.474  28.252   8.686
 2083POPC   D2A29320   3.265  28.447   8.347
 2083POPC   C3A29321   3.472  28.251   8.031
 2083POPC   C4A29322   3.698  28.278   7.679
 2083POPC   C1B29323   3.521  28.798   8.664
 2083POPC   C2B29324   3.432  28.934   8.244
 2083POPC   C3B29325   3.578  28.738   7.858
 2083POPC   C4B29326   3.906  28.713   7.512
 2084POPC   NC329327  23.172  20.199   9.343
 2084POPC   PO429328  23.146  19.549   9.430
 2084POPC   GL129329  22.924  19.750   9.127
 2084POPC   GL229330  22.685  19.985   9.299
 2084POPC   C1A29331  23.070  19.940   8.721
 2084POPC   D2A29332  23.267  20.123   8.348
 2084POPC   C3A29333  23.073  19.985   8.002
 2084POPC   C4A29334  22.902  20.317   7.795
 2084POPC   C1B29335  22.579  19.991   8.859
 2084POPC   C2B29336  22.620  20.235   8.468
 2084POPC   C3B29337  22.486  20.088   8.055
 2084POPC   C4B29338  22.646  19.833   7.744
 2085POPC   NC329339  35.691  34.691   9.606
 2085POPC   PO429340  35.080  34.759   9.547
 2085POPC   GL129341  35.262  34.765   9.159
 2085POPC   GL229342  35.395  34.424   9.106
 2085POPC   C1A29343  35.129  34.715   8.744
 2085POPC   D2A29344  35.233  34.749   8.323
 2085POPC   C3A29345  34.995  34.474   7.993
 2085POPC   C4A29346  35.055  34.284   7.561
 2085POPC   C1B29347  35.479  34.167   8.712
 2085POPC   C2B29348  35.392  34.272   8.276
 2085POPC   C3B29349  35.602  34.573   8.003
 2085POPC   C4B29350  35.394  34.620   7.678
 2086POPC   NC329351  17.664  38.887   9.467
 2086POPC   PO429352  17.511  38.173   9.414
 2086POPC   GL129353  17.562  38.484   9.154
 2086POPC   GL229354  17.919  38.510   9.220
 2086POPC   C1A29355  17.324  38.618   8.791
 2086POPC   D2A29356  17.174  38.354   8.463
 2086POPC   C3A29357  17.263  38.528   8.046
 2086POPC   C4A29358  17.341  38.512   7.586
 2086POPC   C1B29359  17.865  38.631   8.775
 2086POPC   C2B29360  17.674  38.467   8.410
 2086POPC   C3B29361  17.823  38.341   8.037
 2086POPC   C4B29362  18.004  38.479   7.657
 2087POPC   NC329363   1.541  36.148   9.574
 2087POPC   PO429364   0.890  35.883   9.499
 2087POPC   GL129365   1.189  36.083   9.226
 2087POPC   GL229366   1.534  35.894   9.122
 2087POPC   C1A29367   1.178  36.147   8.811
 2087POPC   D2A29368   1.376  36.186   8.440
 2087POPC   C3A29369   1.161  36.123   8.084
 2087POPC   C4A29370   1.335  36.066   7.688
 2087POPC   C1B29371   1.471  35.735   8.699
 2087POPC   C2B29372   1.126  35.725   8.393
 2087POPC   C3B29373   1.150  35.621   7.914
 2087POPC   C4B29374   1.105  35.707   7.444
 2088POPC   NC329375   8.857   5.827   9.419
 2088POPC   PO429376   9.448   6.020   9.397
 2088POPC   GL129377   9.166   5.958   9.023
 2088POPC   GL229378   8.805   6.109   8.991
 2088POPC   C1A29379   9.116   6.071   8.601
 2088POPC   D2A29380   8.926   5.843   8.340
 2088POPC   C3A29381   9.119   5.872   8.006
 2088POPC   C4A29382   9.055   5.926   7.613
 2088POPC   C1B29383   8.750   5.680   8.795
 2088POPC   C2B29384   8.769   5.353   8.445
 2088POPC   C3B29385   8.818   5.444   8.012
 2088POPC   C4B29386   8.539   5.681   7.780
 2089POPC   NC329387  22.883   8.738   9.423
 2089POPC   PO429388  23.387   9.166   9.357
 2089POPC   GL129389  23.067   9.114   9.011
 2089POPC   GL229390  22.766   9.092   9.070
 2089POPC   C1A29391  22.924   9.310   8.631
 2089POPC   D2A29392  22.781   9.253   8.220
 2089POPC   C3A29393  23.097   9.004   8.054
 2089POPC   C4A29394  23.124   8.815   7.664
 2089POPC   C1B29395  22.630   8.873   8.711
 2089POPC   C2B29396  22.726   8.695   8.305
 2089POPC   C3B29397  22.650   8.778   7.884
 2089POPC   C4B29398  22.651   8.504   7.495
 2090POPC   NC329399   8.312   1.203   9.559
 2090POPC   PO429400   8.664   0.864   8.986
 2090POPC   GL129401   8.430   1.212   8.903
 2090POPC   GL229402   8.327   1.423   9.101
 2090POPC   C1A29403   8.318   1.234   8.509
 2090POPC   D2A29404   8.453   0.858   8.301
 2090POPC   C3A29405   8.431   1.008   7.912
 2090POPC   C4A29406   8.045   0.965   7.746
 2090POPC   C1B29407   7.977   1.528   8.789
 2090POPC   C2B29408   7.892   1.488   8.356
 2090POPC   C3B29409   8.082   1.449   7.952
 2090POPC   C4B29410   7.888   1.398   7.550
 2091POPC   NC329411  39.522  23.401   9.409
 2091POPC   PO429412  40.095  23.823   9.456
 2091POPC   GL129413  39.921  23.623   9.105
 2091POPC   GL229414  39.596  23.744   8.998
 2091POPC   C1A29415  39.963  23.537   8.661
 2091POPC   D2A29416  40.034  23.755   8.266
 2091POPC   C3A29417  40.161  23.497   7.932
 2091POPC   C4A29418  40.162  23.507   7.463
 2091POPC   C1B29419  39.860  24.047   8.778
 2091POPC   C2B29420  39.744  24.187   8.393
 2091POPC   C3B29421  39.702  24.052   7.996
 2091POPC   C4B29422  39.986  23.937   7.692
 2092POPC   NC329423  34.152   4.722   9.363
 2092POPC   PO429424  33.494   4.939   9.588
 2092POPC   GL129425  33.653   4.948   9.197
 2092POPC   GL229426  33.878   5.243   9.258
 2092POPC   C1A29427  33.580   4.811   8.765
 2092POPC   D2A29428  33.489   5.018   8.372
 2092POPC   C3A29429  33.520   4.811   7.986
 2092POPC   C4A29430  33.725   4.870   7.625
 2092POPC   C1B29431  33.971   5.144   8.843
 2092POPC   C2B29432  34.014   4.995   8.460
 2092POPC   C3B29433  33.915   5.129   8.063
 2092POPC   C4B29434  34.198   4.976   7.777
 2093POPC   NC329435  38.714  36.773   9.586
 2093POPC   PO429436  38.404  37.414   9.490
 2093POPC   GL129437  38.346  37.027   9.310
 2093POPC   GL229438  38.660  36.938   9.120
 2093POPC   C1A29439  38.139  36.890   8.961
 2093POPC   D2A29440  38.186  36.886   8.516
 2093POPC   C3A29441  38.166  36.745   8.084
 2093POPC   C4A29442  38.297  37.019   7.743
 2093POPC   C1B29443  38.751  37.005   8.698
 2093POPC   C2B29444  38.661  36.778   8.317
 2093POPC   C3B29445  38.741  36.861   7.896
 2093POPC   C4B29446  38.692  36.875   7.431
 2094POPC   NC329447  44.314   9.466   9.379
 2094POPC   PO429448  44.769   9.773   9.734
 2094POPC   GL129449  44.589   9.877   9.259
 2094POPC   GL229450  44.554   9.593   8.963
 2094POPC   C1A29451  44.464  10.031   8.796
 2094POPC   D2A29452  44.423   9.926   8.349
 2094POPC   C3A29453  44.721   9.884   8.004
 2094POPC   C4A29454  44.811   9.905   7.526
 2094POPC   C1B29455  44.712   9.566   8.552
 2094POPC   C2B29456  44.526   9.411   8.164
 2094POPC   C3B29457  44.632   9.452   7.733
 2094POPC   C4B29458   0.052   9.462   7.523
 2095POPC   NC329459  37.853  12.419   9.528
 2095POPC   PO429460  37.630  13.055   9.465
 2095POPC   GL129461  37.722  12.820   9.111
 2095POPC   GL229462  37.438  12.658   9.042
 2095POPC   C1A29463  37.728  12.960   8.676
 2095POPC   D2A29464  37.692  13.053   8.232
 2095POPC   C3A29465  37.826  13.072   7.784
 2095POPC   C4A29466  37.975  12.644   7.620
 2095POPC   C1B29467  37.318  12.640   8.640
 2095POPC   C2B29468  37.534  12.481   8.289
 2095POPC   C3B29469  37.583  12.651   7.925
 2095POPC   C4B29470  37.429  12.867   7.548
 2096POPC   NC329471  29.417   2.894   9.446
 2096POPC   PO429472  28.851   3.105   9.397
 2096POPC   GL129473  28.923   2.771   9.117
 2096POPC   GL229474  29.203   2.534   9.105
 2096POPC   C1A29475  28.997   2.765   8.689
 2096POPC   D2A29476  29.005   2.948   8.271
 2096POPC   C3A29477  29.051   2.649   7.962
 2096POPC   C4A29478  29.230   2.647   7.532
 2096POPC   C1B29479  29.494   2.599   8.790
 2096POPC   C2B29480  29.387   2.629   8.368
 2096POPC   C3B29481  29.551   2.646   7.979
 2096POPC   C4B29482  29.724   2.440   7.679
 2097POPC   NC329483  22.460  23.306   9.430
 2097POPC   PO429484  22.929  22.763   9.459
 2097POPC   GL129485  23.013  23.021   9.089
 2097POPC   GL229486  23.191  23.372   9.055
 2097POPC   C1A29487  23.013  22.929   8.688
 2097POPC   D2A29488  23.180  22.835   8.339
 2097POPC   C3A29489  22.982  23.055   8.062
 2097POPC   C4A29490  23.111  23.080   7.711
 2097POPC   C1B29491  22.775  23.376   8.817
 2097POPC   C2B29492  22.651  23.244   8.402
 2097POPC   C3B29493  22.640  23.462   8.037
 2097POPC   C4B29494  22.662  23.294   7.647
 2098POPC   NC329495   4.363  35.598   9.662
 2098POPC   PO429496   4.008  35.019   9.527
 2098POPC   GL129497   4.239  35.234   9.211
 2098POPC   GL229498   4.291  35.591   9.154
 2098POPC   C1A29499   4.415  35.156   8.816
 2098POPC   D2A29500   4.715  34.938   8.579
 2098POPC   C3A29501   4.586  35.061   8.192
 2098POPC   C4A29502   4.430  35.306   7.869
 2098POPC   C1B29503   4.344  35.722   8.736
 2098POPC   C2B29504   4.375  35.563   8.336
 2098POPC   C3B29505   4.122  35.675   8.002
 2098POPC   C4B29506   4.282  35.871   7.673
 2099POPC   NC329507  40.170  17.461   9.515
 2099POPC   PO429508  39.717  17.012   9.427
 2099POPC   GL129509  39.830  17.280   9.066
 2099POPC   GL229510  40.071  17.537   9.031
 2099POPC   C1A29511  39.880  17.328   8.607
 2099POPC   D2A29512  40.116  17.573   8.348
 2099POPC   C3A29513  39.955  17.637   7.952
 2099POPC   C4A29514  39.862  17.613   7.535
 2099POPC   C1B29515  40.368  17.749   8.764
 2099POPC   C2B29516  40.438  17.973   8.394
 2099POPC   C3B29517  40.445  17.795   8.004
 2099POPC   C4B29518  40.360  17.593   7.641
 2100POPC   NC329519  44.989  24.265   9.450
 2100POPC   PO429520  44.428  24.590   9.436
 2100POPC   GL129521  44.685  24.530   9.118
 2100POPC   GL229522  44.802  24.840   9.175
 2100POPC   C1A29523  44.851  24.311   8.768
 2100POPC   D2A29524  44.777  24.456   8.360
 2100POPC   C3A29525  44.664  24.227   7.993
 2100POPC   C4A29526  44.520  24.373   7.585
 2100POPC   C1B29527  44.935  24.850   8.780
 2100POPC   C2B29528   0.015  24.909   8.330
 2100POPC   C3B29529  44.831  24.775   7.936
 2100POPC   C4B29530  44.785  24.777   7.475
 2101POPC   NC329531  12.829  29.971   9.533
 2101POPC   PO429532  12.574  30.579   9.515
 2101POPC   GL129533  12.788  30.320   9.172
 2101POPC   GL229534  12.666  29.953   9.057
 2101POPC   C1A29535  13.087  30.162   8.840
 2101POPC   D2A29536  13.187  29.962   8.456
 2101POPC   C3A29537  12.982  30.084   8.073
 2101POPC   C4A29538  13.210  30.196   7.708
 2101POPC   C1B29539  12.901  29.671   8.760
 2101POPC   C2B29540  12.830  29.583   8.279
 2101POPC   C3B29541  12.695  29.686   7.835
 2101POPC   C4B29542  12.513  29.656   7.379
 2102POPC   NC329543   1.840  44.723   9.602
 2102POPC   PO429544   2.040  44.083   9.431
 2102POPC   GL129545   1.983  44.417   9.141
 2102POPC   GL229546   1.968  44.793   9.128
 2102POPC   C1A29547   1.793  44.546   8.732
 2102POPC   D2A29548   1.734  44.922   8.446
 2102POPC   C3A29549   1.861  44.820   8.045
 2102POPC   C4A29550   1.890  44.417   7.844
 2102POPC   C1B29551   2.143  44.971   8.741
 2102POPC   C2B29552   2.276   0.023   8.283
 2102POPC   C3B29553   2.323  44.854   7.813
 2102POPC   C4B29554   2.310  44.990   7.311
 2103POPC   NC329555   2.913  28.064   9.501
 2103POPC   PO429556   2.619  28.711   9.503
 2103POPC   GL129557   2.775  28.468   9.192
 2103POPC   GL229558   2.573  28.170   9.149
 2103POPC   C1A29559   2.725  28.569   8.779
 2103POPC   D2A29560   2.493  28.610   8.434
 2103POPC   C3A29561   2.777  28.685   8.132
 2103POPC   C4A29562   2.728  28.609   7.730
 2103POPC   C1B29563   2.903  28.099   8.822
 2103POPC   C2B29564   2.817  28.210   8.392
 2103POPC   C3B29565   2.946  28.189   7.978
 2103POPC   C4B29566   3.162  28.277   7.619
 2104POPC   NC329567  15.347  25.548   9.553
 2104POPC   PO429568  15.000  26.075   9.645
 2104POPC   GL129569  15.141  26.109   9.222
 2104POPC   GL229570  15.251  25.812   9.092
 2104POPC   C1A29571  15.177  26.221   8.777
 2104POPC   D2A29572  15.069  26.510   8.459
 2104POPC   C3A29573  15.093  26.338   8.082
 2104POPC   C4A29574  14.994  26.394   7.651
 2104POPC   C1B29575  14.945  25.712   8.738
 2104POPC   C2B29576  14.842  25.852   8.318
 2104POPC   C3B29577  15.073  25.863   7.944
 2104POPC   C4B29578  15.404  25.635   7.831
 2105POPC   NC329579   8.349  12.772   9.542
 2105POPC   PO429580   7.667  12.937   9.430
 2105POPC   GL129581   8.039  12.921   9.176
 2105POPC   GL229582   8.032  12.573   9.169
 2105POPC   C1A29583   8.326  12.802   8.806
 2105POPC   D2A29584   8.198  12.884   8.355
 2105POPC   C3A29585   8.461  12.877   8.008
 2105POPC   C4A29586   8.551  12.631   7.634
 2105POPC   C1B29587   7.824  12.764   8.757
 2105POPC   C2B29588   7.791  13.154   8.492
 2105POPC   C3B29589   7.808  13.102   8.045
 2105POPC   C4B29590   8.023  12.814   7.733
 2106POPC   NC329591  39.915  19.438   9.725
 2106POPC   PO429592  40.009  20.090   9.500
 2106POPC   GL129593  40.145  19.965   9.040
 2106POPC   GL229594  39.831  19.894   8.937
 2106POPC   C1A29595  40.167  19.891   8.576
 2106POPC   D2A29596  39.976  20.006   8.218
 2106POPC   C3A29597  40.303  20.019   7.946
 2106POPC   C4A29598  40.055  20.138   7.659
 2106POPC   C1B29599  39.813  19.540   8.640
 2106POPC   C2B29600  39.831  19.517   8.230
 2106POPC   C3B29601  39.881  19.646   7.839
 2106POPC   C4B29602  39.674  19.351   7.568
 2107POPC   NC329603  25.818  21.065   9.504
 2107POPC   PO429604  26.452  21.228   9.508
 2107POPC   GL129605  26.230  21.522   9.204
 2107POPC   GL229606  25.859  21.583   9.219
 2107POPC   C1A29607  26.155  21.623   8.790
 2107POPC   D2A29608  26.262  21.412   8.416
 2107POPC   C3A29609  26.154  21.542   8.021
 2107POPC   C4A29610  26.070  21.228   7.716
 2107POPC   C1B29611  25.658  21.720   8.821
 2107POPC   C2B29612  25.851  21.762   8.403
 2107POPC   C3B29613  25.675  21.745   7.998
 2107POPC   C4B29614  25.601  21.661   7.615
 2108POPC   NC329615  34.283  23.644   9.371
 2108POPC   PO429616  34.794  23.271   9.618
 2108POPC   GL129617  34.714  23.410   9.190
 2108POPC   GL229618  34.726  23.757   9.126
 2108POPC   C1A29619  34.481  23.479   8.779
 2108POPC   D2A29620  34.408  23.780   8.458
 2108POPC   C3A29621  34.362  23.618   8.034
 2108POPC   C4A29622  34.288  23.864   7.666
 2108POPC   C1B29623  34.923  23.749   8.770
 2108POPC   C2B29624  34.901  23.951   8.394
 2108POPC   C3B29625  34.953  23.764   8.008
 2108POPC   C4B29626  34.799  23.540   7.686
 2109POPC   NC329627  34.641  27.972   9.600
 2109POPC   PO429628  34.841  28.621   9.508
 2109POPC   GL129629  34.507  28.516   9.184
 2109POPC   GL229630  34.344  28.221   9.246
 2109POPC   C1A29631  34.480  28.653   8.737
 2109POPC   D2A29632  34.233  28.596   8.339
 2109POPC   C3A29633  34.474  28.518   7.961
 2109POPC   C4A29634  34.898  28.374   7.897
 2109POPC   C1B29635  34.581  28.163   8.849
 2109POPC   C2B29636  34.660  28.237   8.414
 2109POPC   C3B29637  34.592  27.988   8.067
 2109POPC   C4B29638  34.470  28.061   7.653
 2110POPC   NC329639  15.846  14.697   9.507
 2110POPC   PO429640  15.907  15.369   9.482
 2110POPC   GL129641  16.097  15.244   9.079
 2110POPC   GL229642  16.096  14.887   9.083
 2110POPC   C1A29643  16.110  15.222   8.617
 2110POPC   D2A29644  16.209  15.154   8.175
 2110POPC   C3A29645  15.936  15.325   7.863
 2110POPC   C4A29646  16.091  15.395   7.447
 2110POPC   C1B29647  15.694  15.008   8.859
 2110POPC   C2B29648  15.685  14.971   8.405
 2110POPC   C3B29649  15.785  14.827   7.983
 2110POPC   C4B29650  15.624  15.026   7.558
 2111POPC   NC329651   5.633  20.904   9.596
 2111POPC   PO429652   6.023  20.425   9.873
 2111POPC   GL129653   5.854  20.358   9.392
 2111POPC   GL229654   5.753  20.656   9.166
 2111POPC   C1A29655   5.953  20.282   8.924
 2111POPC   D2A29656   5.876  20.446   8.516
 2111POPC   C3A29657   5.978  20.301   8.119
 2111POPC   C4A29658   5.858  20.404   7.730
 2111POPC   C1B29659   5.840  20.905   8.762
 2111POPC   C2B29660   6.047  20.918   8.362
 2111POPC   C3B29661   5.905  20.856   7.976
 2111POPC   C4B29662   6.024  20.846   7.536
 2112POPC   NC329663  20.202  11.488   9.481
 2112POPC   PO429664  19.803  10.936   9.522
 2112POPC   GL129665  19.821  11.283   9.199
 2112POPC   GL229666  20.127  11.184   9.057
 2112POPC   C1A29667  19.683  11.516   8.816
 2112POPC   D2A29668  19.702  11.303   8.403
 2112POPC   C3A29669  19.579  11.458   7.986
 2112POPC   C4A29670  19.676  11.329   7.558
 2112POPC   C1B29671  20.158  11.381   8.641
 2112POPC   C2B29672  20.173  11.421   8.185
 2112POPC   C3B29673  20.142  11.465   7.732
 2112POPC   C4B29674  20.020  11.617   7.303
 2113POPC   NC329675  28.125  33.106   9.570
 2113POPC   PO429676  28.603  32.605   9.488
 2113POPC   GL129677  28.523  32.989   9.233
 2113POPC   GL229678  28.235  32.848   9.121
 2113POPC   C1A29679  28.434  33.243   8.830
 2113POPC   D2A29680  28.217  33.461   8.470
 2113POPC   C3A29681  28.284  33.274   8.026
 2113POPC   C4A29682  28.320  33.310   7.577
 2113POPC   C1B29683  28.255  32.643   8.723
 2113POPC   C2B29684  28.483  32.607   8.357
 2113POPC   C3B29685  28.279  32.588   8.022
 2113POPC   C4B29686  28.263  32.813   7.679
 2114POPC   NC329687  15.359  22.030   9.418
 2114POPC   PO429688  14.728  22.415   9.286
 2114POPC   GL129689  14.985  22.132   9.076
 2114POPC   GL229690  14.798  21.882   8.993
 2114POPC   C1A29691  15.093  22.117   8.630
 2114POPC   D2A29692  14.896  22.231   8.241
 2114POPC   C3A29693  15.160  22.292   7.872
 2114POPC   C4A29694  15.329  22.273   7.458
 2114POPC   C1B29695  14.611  21.908   8.611
 2114POPC   C2B29696  14.764  21.724   8.266
 2114POPC   C3B29697  15.058  21.807   7.987
 2114POPC   C4B29698  15.154  21.804   7.570
 2115POPC   NC329699  29.699  37.543   9.699
 2115POPC   PO429700  30.233  37.444   9.526
 2115POPC   GL129701  30.100  37.643   9.158
 2115POPC   GL229702  29.751  37.762   9.226
 2115POPC   C1A29703  30.013  37.515   8.742
 2115POPC   D2A29704  29.939  37.703   8.348
 2115POPC   C3A29705  29.925  37.440   7.988
 2115POPC   C4A29706  30.047  37.423   7.557
 2115POPC   C1B29707  29.825  37.983   8.806
 2115POPC   C2B29708  29.918  38.225   8.403
 2115POPC   C3B29709  29.884  38.037   7.961
 2115POPC   C4B29710  30.258  37.801   7.834
 2116POPC   NC329711  27.126  26.653   9.593
 2116POPC   PO429712  27.727  26.852   9.528
 2116POPC   GL129713  27.511  26.985   9.203
 2116POPC   GL229714  27.377  26.670   9.136
 2116POPC   C1A29715  27.684  26.937   8.804
 2116POPC   D2A29716  27.752  26.710   8.434
 2116POPC   C3A29717  27.655  26.972   8.104
 2116POPC   C4A29718  27.790  26.973   7.721
 2116POPC   C1B29719  27.276  26.619   8.709
 2116POPC   C2B29720  27.385  26.365   8.355
 2116POPC   C3B29721  27.576  26.474   7.968
 2116POPC   C4B29722  27.294  26.761   7.765
 2117POPC   NC329723  31.724  13.078   9.468
 2117POPC   PO429724  31.186  12.657   9.420
 2117POPC   GL129725  31.506  12.756   9.120
 2117POPC   GL229726  31.561  13.128   8.983
 2117POPC   C1A29727  31.449  12.654   8.700
 2117POPC   D2A29728  31.583  12.353   8.404
 2117POPC   C3A29729  31.653  12.559   8.008
 2117POPC   C4A29730  31.440  12.744   7.664
 2117POPC   C1B29731  31.339  13.203   8.573
 2117POPC   C2B29732  31.322  13.099   8.107
 2117POPC   C3B29733  31.572  13.229   7.714
 2117POPC   C4B29734  31.690  13.070   7.265
 2118POPC   NC329735  15.094  38.198   9.356
 2118POPC   PO429736  15.697  38.456   9.414
 2118POPC   GL129737  15.485  38.288   9.028
 2118POPC   GL229738  15.182  38.524   8.963
 2118POPC   C1A29739  15.417  38.306   8.573
 2118POPC   D2A29740  15.310  38.696   8.399
 2118POPC   C3A29741  15.100  38.589   8.039
 2118POPC   C4A29742  15.250  38.515   7.651
 2118POPC   C1B29743  14.929  38.279   8.653
 2118POPC   C2B29744  14.923  38.141   8.232
 2118POPC   C3B29745  14.847  38.212   7.809
 2118POPC   C4B29746  14.979  38.170   7.373
 2119POPC   NC329747   5.015  30.954   9.411
 2119POPC   PO429748   5.577  30.561   9.403
 2119POPC   GL129749   5.190  30.566   9.067
 2119POPC   GL229750   4.832  30.671   9.061
 2119POPC   C1A29751   5.010  30.478   8.651
 2119POPC   D2A29752   5.028  30.719   8.323
 2119POPC   C3A29753   5.185  30.535   7.976
 2119POPC   C4A29754   5.394  30.811   7.730
 2119POPC   C1B29755   4.691  30.898   8.707
 2119POPC   C2B29756   4.522  30.895   8.285
 2119POPC   C3B29757   4.733  30.757   7.902
 2119POPC   C4B29758   4.768  30.370   7.687
 2120POPC   NC329759  24.399  14.144   9.506
 2120POPC   PO429760  24.617  14.783   9.567
 2120POPC   GL129761  24.399  14.594   9.186
 2120POPC   GL229762  24.348  14.219   9.018
 2120POPC   C1A29763  24.290  14.627   8.750
 2120POPC   D2A29764  24.592  14.447   8.442
 2120POPC   C3A29765  24.552  14.552   8.008
 2120POPC   C4A29766  24.883  14.598   7.695
 2120POPC   C1B29767  24.118  14.113   8.647
 2120POPC   C2B29768  24.098  13.996   8.214
 2120POPC   C3B29769  24.378  14.066   7.860
 2120POPC   C4B29770  24.247  13.934   7.452
 2121POPC   NC329771  36.186   8.728   9.205
 2121POPC   PO429772  36.118   9.309   9.598
 2121POPC   GL129773  36.174   9.230   9.171
 2121POPC   GL229774  35.881   9.146   9.073
 2121POPC   C1A29775  36.284   9.192   8.727
 2121POPC   D2A29776  36.034   9.264   8.363
 2121POPC   C3A29777  36.236   9.203   7.979
 2121POPC   C4A29778  36.122   9.263   7.604
 2121POPC   C1B29779  35.814   8.859   8.695
 2121POPC   C2B29780  36.104   8.608   8.425
 2121POPC   C3B29781  36.203   8.691   7.981
 2121POPC   C4B29782  35.985   8.776   7.612
 2122POPC   NC329783  44.391  14.032   9.601
 2122POPC   PO429784  44.462  14.737   9.617
 2122POPC   GL129785  44.570  14.509   9.245
 2122POPC   GL229786  44.240  14.417   9.194
 2122POPC   C1A29787  44.827  14.391   8.864
 2122POPC   D2A29788  44.749  14.467   8.413
 2122POPC   C3A29789  44.629  14.188   8.077
 2122POPC   C4A29790  44.749  14.065   7.670
 2122POPC   C1B29791  44.358  14.175   8.827
 2122POPC   C2B29792  44.255  14.298   8.414
 2122POPC   C3B29793  44.323  14.599   8.112
 2122POPC   C4B29794  44.349  14.446   7.712
 2123POPC   NC329795  14.529  11.843   9.503
 2123POPC   PO429796  13.947  11.746   9.563
 2123POPC   GL129797  14.132  11.873   9.163
 2123POPC   GL229798  14.387  12.139   9.126
 2123POPC   C1A29799  14.273  11.817   8.744
 2123POPC   D2A29800  14.186  11.727   8.329
 2123POPC   C3A29801  14.337  11.872   7.907
 2123POPC   C4A29802  14.552  12.158   7.659
 2123POPC   C1B29803  14.390  12.310   8.717
 2123POPC   C2B29804  14.379  12.215   8.291
 2123POPC   C3B29805  14.033  12.266   8.001
 2123POPC   C4B29806  13.921  12.069   7.643
 2124POPC   NC329807  22.415   7.858   9.337
 2124POPC   PO429808  21.819   7.859   9.678
 2124POPC   GL129809  21.825   7.632   9.220
 2124POPC   GL229810  22.145   7.443   9.138
 2124POPC   C1A29811  21.805   7.441   8.766
 2124POPC   D2A29812  21.970   7.666   8.376
 2124POPC   C3A29813  21.922   7.533   7.943
 2124POPC   C4A29814  22.200   7.319   7.615
 2124POPC   C1B29815  22.300   7.421   8.684
 2124POPC   C2B29816  22.315   7.313   8.226
 2124POPC   C3B29817  22.420   7.666   7.943
 2124POPC   C4B29818  22.459   8.076   7.788
 2125POPC   NC329819  19.183  36.429   9.430
 2125POPC   PO429820  18.855  35.793   9.440
 2125POPC   GL129821  19.100  35.900   9.056
 2125POPC   GL229822  19.196  36.235   8.975
 2125POPC   C1A29823  18.938  36.033   8.623
 2125POPC   D2A29824  19.077  36.364   8.409
 2125POPC   C3A29825  18.952  36.271   8.018
 2125POPC   C4A29826  19.012  35.875   7.792
 2125POPC   C1B29827  19.453  36.023   8.633
 2125POPC   C2B29828  19.348  35.978   8.182
 2125POPC   C3B29829  19.413  36.232   7.807
 2125POPC   C4B29830  19.259  36.158   7.407
 2126POPC   NC329831  12.218  24.075   9.526
 2126POPC   PO429832  12.820  24.359   9.424
 2126POPC   GL129833  12.723  24.411   9.043
 2126POPC   GL229834  12.724  24.755   8.981
 2126POPC   C1A29835  12.651  24.349   8.636
 2126POPC   D2A29836  12.655  24.545   8.292
 2126POPC   C3A29837  12.565  24.354   7.934
 2126POPC   C4A29838  12.432  24.675   7.677
 2126POPC   C1B29839  13.036  24.751   8.691
 2126POPC   C2B29840  13.038  24.868   8.269
 2126POPC   C3B29841  12.963  24.695   7.883
 2126POPC   C4B29842  13.274  24.632   7.609
 2127POPC   NC329843  28.973  28.550   9.556
 2127POPC   PO429844  29.188  27.987   9.526
 2127POPC   GL129845  29.214  28.297   9.176
 2127POPC   GL229846  29.376  28.641   9.231
 2127POPC   C1A29847  29.395  28.293   8.776
 2127POPC   D2A29848  29.276  28.056   8.419
 2127POPC   C3A29849  29.384  28.199   8.003
 2127POPC   C4A29850  29.046  28.057   7.760
 2127POPC   C1B29851  29.300  28.790   8.814
 2127POPC   C2B29852  29.406  28.649   8.382
 2127POPC   C3B29853  29.303  28.702   7.950
 2127POPC   C4B29854  29.230  28.497   7.579
 2128POPC   NC329855  28.879  23.103   9.655
 2128POPC   PO429856  28.274  22.926   9.419
 2128POPC   GL129857  28.379  23.123   9.080
 2128POPC   GL229858  28.726  23.232   9.155
 2128POPC   C1A29859  28.200  23.215   8.696
 2128POPC   D2A29860  28.052  23.043   8.323
 2128POPC   C3A29861  28.265  22.783   8.058
 2128POPC   C4A29862  28.244  22.975   7.686
 2128POPC   C1B29863  28.747  23.052   8.717
 2128POPC   C2B29864  28.568  23.142   8.312
 2128POPC   C3B29865  28.712  22.983   7.930
 2128POPC   C4B29866  28.718  23.041   7.484
 2129POPC   NC329867  43.219  14.409   9.840
 2129POPC   PO429868  42.651  14.566   9.462
 2129POPC   GL129869  42.793  14.258   9.103
 2129POPC   GL229870  43.222  14.179   9.052
 2129POPC   C1A29871  42.890  14.358   8.693
 2129POPC   D2A29872  42.909  14.185   8.308
 2129POPC   C3A29873  42.929  14.552   8.085
 2129POPC   C4A29874  43.072  14.680   7.717
 2129POPC   C1B29875  43.403  14.394   8.766
 2129POPC   C2B29876  43.313  14.550   8.398
 2129POPC   C3B29877  43.351  14.299   8.027
 2129POPC   C4B29878  43.494  14.346   7.620
 2130POPC   NC329879   2.981  26.073   9.566
 2130POPC   PO429880   2.551  26.466   9.220
 2130POPC   GL129881   2.711  26.066   9.082
 2130POPC   GL229882   3.041  26.201   9.078
 2130POPC   C1A29883   2.840  26.020   8.636
 2130POPC   D2A29884   2.861  26.390   8.342
 2130POPC   C3A29885   2.743  26.291   7.923
 2130POPC   C4A29886   2.749  26.150   7.499
 2130POPC   C1B29887   3.119  25.735   8.964
 2130POPC   C2B29888   3.209  25.580   8.562
 2130POPC   C3B29889   2.955  25.701   8.231
 2130POPC   C4B29890   3.069  25.913   7.877
 2131POPC   NC329891  29.544  29.150   9.501
 2131POPC   PO429892  30.135  29.305   9.352
 2131POPC   GL129893  30.034  29.026   9.037
 2131POPC   GL229894  29.693  29.014   9.047
 2131POPC   C1A29895  30.145  29.080   8.644
 2131POPC   D2A29896  30.109  29.364   8.341
 2131POPC   C3A29897  30.175  29.109   7.994
 2131POPC   C4A29898  30.027  29.286   7.626
 2131POPC   C1B29899  29.749  29.357   8.777
 2131POPC   C2B29900  29.669  29.107   8.420
 2131POPC   C3B29901  29.665  29.185   8.013
 2131POPC   C4B29902  29.654  28.942   7.656
 2132POPC   NC329903  22.906   3.525   9.362
 2132POPC   PO429904  22.218   3.495   9.347
 2132POPC   GL129905  22.521   3.440   9.007
 2132POPC   GL229906  22.655   3.768   8.986
 2132POPC   C1A29907  22.904   3.379   8.728
 2132POPC   D2A29908  23.171   3.404   8.366
 2132POPC   C3A29909  22.882   3.363   8.008
 2132POPC   C4A29910  22.462   3.235   7.840
 2132POPC   C1B29911  23.074   3.880   8.840
 2132POPC   C2B29912  23.229   3.970   8.445
 2132POPC   C3B29913  23.079   3.859   8.044
 2132POPC   C4B29914  23.153   3.639   7.655
 2133POPC   NC329915   8.176  39.485   9.298
 2133POPC   PO429916   8.484  38.974   9.535
 2133POPC   GL129917   8.263  39.014   9.081
 2133POPC   GL229918   8.330  39.312   8.862
 2133POPC   C1A29919   7.978  39.046   8.657
 2133POPC   D2A29920   7.986  39.312   8.256
 2133POPC   C3A29921   8.057  39.097   7.855
 2133POPC   C4A29922   7.817  38.976   7.451
 2133POPC   C1B29923   8.505  39.621   8.618
 2133POPC   C2B29924   8.514  39.695   8.196
 2133POPC   C3B29925   8.285  39.628   7.857
 2133POPC   C4B29926   8.506  39.365   7.647
 2134POPC   NC329927  35.606   8.745   9.595
 2134POPC   PO429928  35.013   8.976   9.488
 2134POPC   GL129929  35.321   9.185   9.218
 2134POPC   GL229930  35.467   8.862   9.124
 2134POPC   C1A29931  35.478   9.249   8.796
 2134POPC   D2A29932  35.380   9.003   8.431
 2134POPC   C3A29933  35.284   9.150   8.012
 2134POPC   C4A29934  35.661   9.136   7.773
 2134POPC   C1B29935  35.209   8.674   8.834
 2134POPC   C2B29936  35.195   8.519   8.435
 2134POPC   C3B29937  35.516   8.575   8.153
 2134POPC   C4B29938  35.494   8.652   7.738
 2135POPC   NC329939   4.873  40.971   9.537
 2135POPC   PO429940   5.396  40.652   9.402
 2135POPC   GL129941   5.261  40.626   9.023
 2135POPC   GL229942   4.981  40.561   9.062
 2135POPC   C1A29943   5.241  40.488   8.602
 2135POPC   D2A29944   5.211  40.741   8.256
 2135POPC   C3A29945   5.132  40.690   7.854
 2135POPC   C4A29946   4.958  40.761   7.482
 2135POPC   C1B29947   4.732  40.453   8.721
 2135POPC   C2B29948   4.713  40.603   8.293
 2135POPC   C3B29949   4.613  40.573   7.855
 2135POPC   C4B29950   4.745  40.301   7.516
 2136POPC   NC329951  16.445  28.640   9.511
 2136POPC   PO429952  16.880  28.104   9.484
 2136POPC   GL129953  16.740  28.381   9.178
 2136POPC   GL229954  16.380  28.370   9.086
 2136POPC   C1A29955  16.785  28.185   8.800
 2136POPC   D2A29956  16.772  27.998   8.430
 2136POPC   C3A29957  16.618  28.308   8.148
 2136POPC   C4A29958  16.771  28.425   7.741
 2136POPC   C1B29959  16.422  28.516   8.660
 2136POPC   C2B29960  16.197  28.622   8.295
 2136POPC   C3B29961  16.245  28.612   7.902
 2136POPC   C4B29962  16.405  28.788   7.582
 2137POPC   NC329963  38.979  21.600   9.596
 2137POPC   PO429964  39.176  22.280   9.456
 2137POPC   GL129965  39.270  22.191   9.027
 2137POPC   GL229966  39.614  22.146   8.945
 2137POPC   C1A29967  39.256  22.105   8.584
 2137POPC   D2A29968  39.018  22.270   8.320
 2137POPC   C3A29969  39.232  22.152   8.022
 2137POPC   C4A29970  39.033  22.123   7.638
 2137POPC   C1B29971  39.548  21.758   8.785
 2137POPC   C2B29972  39.404  21.616   8.408
 2137POPC   C3B29973  39.536  21.738   8.011
 2137POPC   C4B29974  39.533  22.000   7.657
 2138POPC   NC329975   6.897  37.631   9.523
 2138POPC   PO429976   6.338  37.532   9.268
 2138POPC   GL129977   6.528  37.808   8.982
 2138POPC   GL229978   6.863  37.897   9.083
 2138POPC   C1A29979   6.732  37.612   8.620
 2138POPC   D2A29980   6.958  37.510   8.228
 2138POPC   C3A29981   6.623  37.397   7.933
 2138POPC   C4A29982   6.638  37.431   7.475
 2138POPC   C1B29983   6.883  38.116   8.713
 2138POPC   C2B29984   6.828  38.011   8.270
 2138POPC   C3B29985   6.782  37.869   7.840
 2138POPC   C4B29986   6.878  37.901   7.380
 2139POPC   NC329987  29.297  24.600   9.394
 2139POPC   PO429988  28.720  24.521   9.666
 2139POPC   GL129989  28.862  24.340   9.222
 2139POPC   GL229990  29.173  24.479   8.944
 2139POPC   C1A29991  28.748  24.338   8.780
 2139POPC   D2A29992  29.003  24.559   8.443
 2139POPC   C3A29993  28.944  24.381   8.031
 2139POPC   C4A29994  28.719  24.501   7.660
 2139POPC   C1B29995  29.396  24.245   8.646
 2139POPC   C2B29996  29.518  24.348   8.245
 2139POPC   C3B29997  29.405  24.598   7.905
 2139POPC   C4B29998  29.193  24.700   7.555
 2140POPC   NC329999  39.022  27.374   9.267
 2140POPC   PO430000  39.416  27.754   9.751
 2140POPC   GL130001  39.378  27.775   9.258
 2140POPC   GL230002  39.482  27.455   9.049
 2140POPC   C1A30003  39.189  27.849   8.834
 2140POPC   D2A30004  39.333  27.661   8.464
 2140POPC   C3A30005  39.160  27.842   8.119
 2140POPC   C4A30006  39.306  27.890   7.729
 2140POPC   C1B30007  39.337  27.177   8.678
 2140POPC   C2B30008  39.057  27.270   8.316
 2140POPC   C3B30009  39.203  27.388   7.883
 2140POPC   C4B30010  39.273  27.105   7.566
 2141POPC   NC330011   6.095  23.492   9.565
 2141POPC   PO430012   5.529  23.487   9.310
 2141POPC   GL130013   5.872  23.705   9.148
 2141POPC   GL230014   5.999  24.023   9.306
 2141POPC   C1A30015   5.996  23.593   8.743
 2141POPC   D2A30016   5.735  23.502   8.373
 2141POPC   C3A30017   5.907  23.610   7.968
 2141POPC   C4A30018   6.021  23.652   7.528
 2141POPC   C1B30019   5.931  24.109   8.844
 2141POPC   C2B30020   5.937  23.991   8.396
 2141POPC   C3B30021   5.932  24.139   7.980
 2141POPC   C4B30022   5.988  24.146   7.541
 2142POPC   NC330023  27.185  30.112   9.617
 2142POPC   PO430024  26.562  29.846   9.417
 2142POPC   GL130025  26.849  30.086   9.171
 2142POPC   GL230026  27.225  30.020   9.116
 2142POPC   C1A30027  26.882  30.026   8.754
 2142POPC   D2A30028  26.905  29.714   8.455
 2142POPC   C3A30029  26.743  29.806   8.075
 2142POPC   C4A30030  26.884  30.084   7.745
 2142POPC   C1B30031  27.276  29.645   8.811
 2142POPC   C2B30032  27.397  29.598   8.409
 2142POPC   C3B30033  27.289  29.857   8.090
 2142POPC   C4B30034  27.194  29.704   7.721
 2143POPC   NC330035  13.507   8.758  10.153
 2143POPC   PO430036  13.672   8.661   9.486
 2143POPC   GL130037  13.520   8.802   9.059
 2143POPC   GL230038  13.411   9.167   9.098
 2143POPC   C1A30039  13.483   8.622   8.602
 2143POPC   D2A30040  13.261   8.515   8.186
 2143POPC   C3A30041  13.449   8.752   7.834
 2143POPC   C4A30042  13.891   8.841   7.751
 2143POPC   C1B30043  13.391   9.458   8.709
 2143POPC   C2B30044  13.369   9.491   8.251
 2143POPC   C3B30045  13.597   9.265   7.916
 2143POPC   C4B30046  13.633   9.227   7.461
 2144POPC   NC330047   5.561  28.168   9.385
 2144POPC   PO430048   5.740  27.506   9.480
 2144POPC   GL130049   5.611  27.487   9.110
 2144POPC   GL230050   5.896  27.663   8.985
 2144POPC   C1A30051   5.482  27.573   8.706
 2144POPC   D2A30052   5.544  27.735   8.298
 2144POPC   C3A30053   5.614  27.463   7.972
 2144POPC   C4A30054   5.955  27.544   7.686
 2144POPC   C1B30055   6.279  27.441   8.805
 2144POPC   C2B30056   6.493  27.313   8.410
 2144POPC   C3B30057   6.478  27.357   7.952
 2144POPC   C4B30058   6.341  27.265   7.525
 2145POPC   NC330059  26.838  28.181   9.564
 2145POPC   PO430060  27.457  28.332   9.555
 2145POPC   GL130061  27.039  28.521   9.236
 2145POPC   GL230062  26.722  28.297   9.094
 2145POPC   C1A30063  26.796  28.722   8.840
 2145POPC   D2A30064  26.891  28.583   8.431
 2145POPC   C3A30065  26.782  28.635   8.036
 2145POPC   C4A30066  26.832  28.416   7.667
 2145POPC   C1B30067  26.970  28.189   8.744
 2145POPC   C2B30068  26.992  28.081   8.276
 2145POPC   C3B30069  26.694  27.958   7.930
 2145POPC   C4B30070  26.622  28.010   7.483
 2146POPC   NC330071   4.564  38.790   9.604
 2146POPC   PO430072   4.280  38.201   9.720
 2146POPC   GL130073   4.257  38.324   9.280
 2146POPC   GL230074   4.367  38.617   9.159
 2146POPC   C1A30075   4.320  38.144   8.876
 2146POPC   D2A30076   4.412  38.339   8.470
 2146POPC   C3A30077   4.286  38.270   8.047
 2146POPC   C4A30078   4.513  38.066   7.741
 2146POPC   C1B30079   4.457  38.799   8.758
 2146POPC   C2B30080   4.283  38.825   8.346
 2146POPC   C3B30081   4.561  38.692   8.036
 2146POPC   C4B30082   4.426  38.559   7.616
 2147POPC   NC330083  33.527  38.954   9.488
 2147POPC   PO430084  33.175  39.529   9.511
 2147POPC   GL130085  33.040  39.403   9.119
 2147POPC   GL230086  33.125  39.071   9.153
 2147POPC   C1A30087  33.000  39.227   8.696
 2147POPC   D2A30088  33.044  39.329   8.289
 2147POPC   C3A30089  32.904  39.064   7.981
 2147POPC   C4A30090  32.860  39.285   7.649
 2147POPC   C1B30091  33.441  39.044   8.860
 2147POPC   C2B30092  33.408  38.930   8.446
 2147POPC   C3B30093  33.409  38.976   8.049
 2147POPC   C4B30094  33.353  39.191   7.672
 2148POPC   NC330095  38.616   7.933   9.434
 2148POPC   PO430096  38.628   8.634   9.462
 2148POPC   GL130097  38.547   8.375   9.110
 2148POPC   GL230098  38.798   8.131   9.006
 2148POPC   C1A30099  38.508   8.413   8.677
 2148POPC   D2A30100  38.265   8.592   8.415
 2148POPC   C3A30101  38.342   8.477   8.002
 2148POPC   C4A30102  38.727   8.414   7.787
 2148POPC   C1B30103  38.540   7.920   8.672
 2148POPC   C2B30104  38.570   8.089   8.245
 2148POPC   C3B30105  38.546   7.933   7.833
 2148POPC   C4B30106  38.555   7.702   7.427
 2149POPC   NC330107  11.073  36.164   9.693
 2149POPC   PO430108  11.699  36.055   9.406
 2149POPC   GL130109  11.516  36.318   9.105
 2149POPC   GL230110  11.155  36.308   9.037
 2149POPC   C1A30111  11.542  36.102   8.713
 2149POPC   D2A30112  11.633  36.123   8.318
 2149POPC   C3A30113  11.498  35.932   7.939
 2149POPC   C4A30114  11.482  36.029   7.502
 2149POPC   C1B30115  11.020  36.053   8.675
 2149POPC   C2B30116  11.072  36.092   8.221
 2149POPC   C3B30117  11.047  36.155   7.767
 2149POPC   C4B30118  10.867  35.981   7.350
 2150POPC   NC330119  38.990  35.842   9.490
 2150POPC   PO430120  39.719  36.121   9.487
 2150POPC   GL130121  39.522  36.251   9.095
 2150POPC   GL230122  39.234  36.459   9.150
 2150POPC   C1A30123  39.243  36.133   8.743
 2150POPC   D2A30124  39.049  35.834   8.434
 2150POPC   C3A30125  39.301  35.841   8.059
 2150POPC   C4A30126  39.468  36.200   7.881
 2150POPC   C1B30127  38.968  36.561   8.864
 2150POPC   C2B30128  38.830  36.319   8.505
 2150POPC   C3B30129  39.031  36.293   8.133
 2150POPC   C4B30130  39.012  36.483   7.727
 2151POPC   NC330131  36.487  16.897   9.642
 2151POPC   PO430132  35.891  16.540   9.504
 2151POPC   GL130133  36.050  16.708   9.091
 2151POPC   GL230134  36.406  16.679   9.134
 2151POPC   C1A30135  35.931  16.671   8.641
 2151POPC   D2A30136  36.109  16.494   8.232
 2151POPC   C3A30137  36.040  16.552   7.786
 2151POPC   C4A30138  36.009  16.846   7.472
 2151POPC   C1B30139  36.431  16.877   8.722
 2151POPC   C2B30140  36.257  16.962   8.374
 2151POPC   C3B30141  36.341  16.923   7.967
 2151POPC   C4B30142  36.712  16.994   7.785
 2152POPC   NC330143   9.037   1.029   9.221
 2152POPC   PO430144   8.628   1.550   9.524
 2152POPC   GL130145   8.842   1.500   9.110
 2152POPC   GL230146   9.234   1.490   9.106
 2152POPC   C1A30147   8.795   1.463   8.636
 2152POPC   D2A30148   9.019   1.426   8.230
 2152POPC   C3A30149   8.785   1.396   7.831
 2152POPC   C4A30150   9.034   1.408   7.435
 2152POPC   C1B30151   9.301   1.384   8.692
 2152POPC   C2B30152   9.180   0.998   8.467
 2152POPC   C3B30153   8.918   0.947   8.103
 2152POPC   C4B30154   8.998   0.947   7.689
 2153POPC   NC330155  24.912  38.618   9.578
 2153POPC   PO430156  25.522  38.240   9.633
 2153POPC   GL130157  25.182  38.256   9.251
 2153POPC   GL230158  25.167  38.599   9.133
 2153POPC   C1A30159  25.109  38.268   8.756
 2153POPC   D2A30160  25.019  38.358   8.322
 2153POPC   C3A30161  25.348  38.415   8.011
 2153POPC   C4A30162  25.373  38.464   7.588
 2153POPC   C1B30163  25.373  38.709   8.744
 2153POPC   C2B30164  25.254  38.814   8.320
 2153POPC   C3B30165  25.165  38.864   7.883
 2153POPC   C4B30166  25.444  38.974   7.532
 2154POPC   NC330167  35.861  10.691   9.478
 2154POPC   PO430168  36.265  10.301   9.855
 2154POPC   GL130169  36.252  10.428   9.335
 2154POPC   GL230170  35.950  10.233   9.210
 2154POPC   C1A30171  36.092  10.593   8.861
 2154POPC   D2A30172  35.751  10.665   8.512
 2154POPC   C3A30173  35.903  10.696   8.068
 2154POPC   C4A30174  36.294  10.591   7.857
 2154POPC   C1B30175  35.899  10.118   8.765
 2154POPC   C2B30176  36.077  10.274   8.350
 2154POPC   C3B30177  36.188  10.088   7.941
 2154POPC   C4B30178  36.029  10.226   7.538
 2155POPC   NC330179  40.227  21.378   9.631
 2155POPC   PO430180  39.533  21.622   9.601
 2155POPC   GL130181  39.759  21.550   9.182
 2155POPC   GL230182  40.107  21.538   9.062
 2155POPC   C1A30183  39.743  21.308   8.739
 2155POPC   D2A30184  39.916  21.080   8.347
 2155POPC   C3A30185  39.887  21.348   7.998
 2155POPC   C4A30186  39.914  21.660   7.678
 2155POPC   C1B30187  40.236  21.308   8.667
 2155POPC   C2B30188  40.378  21.331   8.301
 2155POPC   C3B30189  40.350  21.633   8.016
 2155POPC   C4B30190  40.344  21.409   7.667
 2156POPC   NC330191  12.833  21.994   9.529
 2156POPC   PO430192  12.861  22.664   9.316
 2156POPC   GL130193  12.955  22.267   9.106
 2156POPC   GL230194  13.146  21.918   9.158
 2156POPC   C1A30195  12.940  22.247   8.689
 2156POPC   D2A30196  12.672  22.383   8.384
 2156POPC   C3A30197  12.826  22.256   8.002
 2156POPC   C4A30198  12.710  22.434   7.610
 2156POPC   C1B30199  12.986  21.752   8.774
 2156POPC   C2B30200  12.786  21.855   8.387
 2156POPC   C3B30201  12.817  21.744   7.977
 2156POPC   C4B30202  12.909  21.958   7.590
 2157POPC   NC330203  36.041  17.762   9.411
 2157POPC   PO430204  36.358  17.166   9.286
 2157POPC   GL130205  36.126  17.228   8.935
 2157POPC   GL230206  35.950  17.503   8.990
 2157POPC   C1A30207  36.213  17.468   8.556
 2157POPC   D2A30208  36.391  17.395   8.173
 2157POPC   C3A30209  36.354  17.668   7.916
 2157POPC   C4A30210  36.693  17.903   7.876
 2157POPC   C1B30211  35.751  17.702   8.656
 2157POPC   C2B30212  35.841  17.797   8.267
 2157POPC   C3B30213  35.819  17.439   8.035
 2157POPC   C4B30214  36.072  17.282   7.742
 2158POPC   NC330215   1.644  15.711   9.698
 2158POPC   PO430216   2.048  15.167   9.634
 2158POPC   GL130217   1.945  15.123   9.163
 2158POPC   GL230218   2.173  14.855   9.144
 2158POPC   C1A30219   1.876  15.373   8.745
 2158POPC   D2A30220   1.806  15.532   8.283
 2158POPC   C3A30221   2.117  15.346   7.972
 2158POPC   C4A30222   2.102  15.296   7.508
 2158POPC   C1B30223   1.915  14.827   8.751
 2158POPC   C2B30224   1.950  15.029   8.351
 2158POPC   C3B30225   1.966  14.853   7.941
 2158POPC   C4B30226   2.233  14.821   7.619
 2159POPC   NC330227  28.962  10.053   9.440
 2159POPC   PO430228  29.298  10.700   9.439
 2159POPC   GL130229  29.272  10.365   9.175
 2159POPC   GL230230  28.915  10.420   9.104
 2159POPC   C1A30231  29.259  10.191   8.767
 2159POPC   D2A30232  29.043  10.217   8.384
 2159POPC   C3A30233  29.322  10.388   8.108
 2159POPC   C4A30234  29.247  10.491   7.700
 2159POPC   C1B30235  29.064  10.706   8.811
 2159POPC   C2B30236  29.085  10.746   8.404
 2159POPC   C3B30237  28.889  10.657   8.052
 2159POPC   C4B30238  28.857  10.821   7.664
 2160POPC   NC330239  21.668  11.011   9.411
 2160POPC   PO430240  22.176  11.426   9.686
 2160POPC   GL130241  22.290  11.392   9.258
 2160POPC   GL230242  22.239  11.036   9.193
 2160POPC   C1A30243  22.326  11.611   8.847
 2160POPC   D2A30244  22.169  11.608   8.449
 2160POPC   C3A30245  22.474  11.602   8.128
 2160POPC   C4A30246  22.266  11.576   7.749
 2160POPC   C1B30247  22.413  11.111   8.771
 2160POPC   C2B30248  22.363  11.123   8.329
 2160POPC   C3B30249  22.388  11.121   7.902
 2160POPC   C4B30250  22.100  11.073   7.579
 2161POPC   NC330251  36.172  20.344   9.471
 2161POPC   PO430252  36.254  21.016   9.539
 2161POPC   GL130253  35.949  21.009   9.206
 2161POPC   GL230254  36.150  20.725   9.117
 2161POPC   C1A30255  35.837  20.887   8.771
 2161POPC   D2A30256  36.111  20.736   8.447
 2161POPC   C3A30257  36.100  20.898   8.047
 2161POPC   C4A30258  36.377  20.910   7.691
 2161POPC   C1B30259  36.224  20.413   8.819
 2161POPC   C2B30260  36.297  20.214   8.465
 2161POPC   C3B30261  36.102  20.234   8.054
 2161POPC   C4B30262  36.043  20.506   7.703
 2162POPC   NC330263  36.161  19.890   9.801
 2162POPC   PO430264  35.688  19.540   9.519
 2162POPC   GL130265  36.080  19.749   9.242
 2162POPC   GL230266  36.068  20.040   9.104
 2162POPC   C1A30267  36.395  19.734   8.851
 2162POPC   D2A30268  36.633  19.800   8.442
 2162POPC   C3A30269  36.564  20.035   8.078
 2162POPC   C4A30270  36.405  19.981   7.702
 2162POPC   C1B30271  35.918  19.905   8.726
 2162POPC   C2B30272  36.116  19.733   8.382
 2162POPC   C3B30273  36.061  19.728   7.973
 2162POPC   C4B30274  35.909  20.024   7.625
 2163POPC   NC330275  40.223  39.174   9.511
 2163POPC   PO430276  39.708  39.562   9.280
 2163POPC   GL130277  39.853  39.128   9.167
 2163POPC   GL230278  40.215  39.041   9.038
 2163POPC   C1A30279  39.771  38.999   8.780
 2163POPC   D2A30280  39.842  39.218   8.423
 2163POPC   C3A30281  40.008  39.016   8.101
 2163POPC   C4A30282  39.747  38.992   7.779
 2163POPC   C1B30283  40.293  39.058   8.633
 2163POPC   C2B30284  40.354  39.344   8.326
 2163POPC   C3B30285  40.455  39.270   7.927
 2163POPC   C4B30286  40.226  39.050   7.610
 2164POPC   NC330287  44.893  38.062   9.362
 2164POPC   PO430288  44.785  38.730   9.499
 2164POPC   GL130289  44.595  38.736   9.105
 2164POPC   GL230290  44.617  38.400   9.092
 2164POPC   C1A30291  44.631  38.645   8.665
 2164POPC   D2A30292  44.898  38.634   8.353
 2164POPC   C3A30293  44.695  38.591   8.009
 2164POPC   C4A30294  44.872  38.739   7.674
 2164POPC   C1B30295  44.610  38.132   8.757
 2164POPC   C2B30296  44.582  38.204   8.360
 2164POPC   C3B30297  44.675  38.072   7.981
 2164POPC   C4B30298  44.794  38.230   7.623
 2165POPC   NC330299  26.899  24.944   9.482
 2165POPC   PO430300  26.466  24.364   9.398
 2165POPC   GL130301  26.812  24.321   9.074
 2165POPC   GL230302  26.546  24.328   8.883
 2165POPC   C1A30303  27.040  24.380   8.654
 2165POPC   D2A30304  27.305  24.522   8.276
 2165POPC   C3A30305  27.093  24.553   7.844
 2165POPC   C4A30306  26.922  24.299   7.436
 2165POPC   C1B30307  26.621  24.678   8.633
 2165POPC   C2B30308  26.670  24.591   8.202
 2165POPC   C3B30309  26.596  24.537   7.767
 2165POPC   C4B30310  26.549  24.654   7.328
 2166POPC   NC330311  32.587  28.727   9.297
 2166POPC   PO430312  32.598  28.118   9.565
 2166POPC   GL130313  32.418  28.094   9.076
 2166POPC   GL230314  32.269  28.407   8.994
 2166POPC   C1A30315  32.331  28.154   8.580
 2166POPC   D2A30316  32.161  28.544   8.353
 2166POPC   C3A30317  32.023  28.457   7.938
 2166POPC   C4A30318  32.216  28.137   7.636
 2166POPC   C1B30319  32.530  28.631   8.693
 2166POPC   C2B30320  32.709  28.438   8.388
 2166POPC   C3B30321  32.505  28.275   8.064
 2166POPC   C4B30322  32.501  28.579   7.738
 2167POPC   NC330323  19.438  16.624   9.437
 2167POPC   PO430324  20.140  16.699   9.473
 2167POPC   GL130325  19.855  16.766   9.154
 2167POPC   GL230326  19.849  16.409   9.086
 2167POPC   C1A30327  19.961  16.763   8.726
 2167POPC   D2A30328  19.893  16.893   8.323
 2167POPC   C3A30329  19.954  16.664   7.982
 2167POPC   C4A30330  19.896  16.817   7.581
 2167POPC   C1B30331  19.540  16.455   8.771
 2167POPC   C2B30332  19.436  16.620   8.378
 2167POPC   C3B30333  19.452  16.695   7.967
 2167POPC   C4B30334  19.475  16.474   7.586
 2168POPC   NC330335  44.049  43.157   9.714
 2168POPC   PO430336  43.482  43.499   9.459
 2168POPC   GL130337  43.663  43.152   9.142
 2168POPC   GL230338  44.031  43.027   9.218
 2168POPC   C1A30339  43.812  43.190   8.714
 2168POPC   D2A30340  43.614  43.099   8.291
 2168POPC   C3A30341  43.744  43.352   7.926
 2168POPC   C4A30342  44.179  43.447   7.753
 2168POPC   C1B30343  44.122  42.808   8.864
 2168POPC   C2B30344  44.032  42.823   8.436
 2168POPC   C3B30345  44.062  42.937   8.001
 2168POPC   C4B30346  43.962  43.015   7.552
 2169POPC   NC330347  25.771  14.707   9.467
 2169POPC   PO430348  26.250  14.163   9.645
 2169POPC   GL130349  26.114  14.347   9.237
 2169POPC   GL230350  25.779  14.392   9.081
 2169POPC   C1A30351  26.197  14.484   8.809
 2169POPC   D2A30352  26.134  14.772   8.457
 2169POPC   C3A30353  26.183  14.544   8.071
 2169POPC   C4A30354  26.454  14.509   7.719
 2169POPC   C1B30355  25.707  14.666   8.731
 2169POPC   C2B30356  25.648  14.752   8.281
 2169POPC   C3B30357  25.720  14.641   7.865
 2169POPC   C4B30358  25.894  14.373   7.561
 2170POPC   NC330359  42.871  12.895   9.766
 2170POPC   PO430360  42.337  12.644   9.452
 2170POPC   GL130361  42.178  12.820   9.097
 2170POPC   GL230362  42.227  13.186   9.090
 2170POPC   C1A30363  42.072  12.681   8.706
 2170POPC   D2A30364  42.096  12.336   8.398
 2170POPC   C3A30365  42.158  12.535   8.000
 2170POPC   C4A30366  42.102  12.765   7.632
 2170POPC   C1B30367  42.395  13.067   8.691
 2170POPC   C2B30368  42.206  13.018   8.286
 2170POPC   C3B30369  42.474  12.987   7.943
 2170POPC   C4B30370  42.793  13.334   7.849
 2171POPC   NC330371  23.406  33.354   9.443
 2171POPC   PO430372  23.715  32.796   9.548
 2171POPC   GL130373  23.610  32.961   9.155
 2171POPC   GL230374  23.806  33.259   9.131
 2171POPC   C1A30375  23.783  32.906   8.750
 2171POPC   D2A30376  23.585  32.855   8.356
 2171POPC   C3A30377  23.719  32.732   7.943
 2171POPC   C4A30378  23.701  33.109   7.688
 2171POPC   C1B30379  23.963  33.439   8.753
 2171POPC   C2B30380  24.014  33.618   8.386
 2171POPC   C3B30381  23.948  33.456   8.028
 2171POPC   C4B30382  24.134  33.423   7.681
 2172POPC   NC330383  24.697  24.992   9.447
 2172POPC   PO430384  24.329  25.469   9.698
 2172POPC   GL130385  24.463  25.411   9.253
 2172POPC   GL230386  24.360  25.098   9.092
 2172POPC   C1A30387  24.590  25.439   8.801
 2172POPC   D2A30388  24.386  25.479   8.405
 2172POPC   C3A30389  24.389  25.269   8.045
 2172POPC   C4A30390  24.303  25.509   7.711
 2172POPC   C1B30391  24.261  24.840   8.751
 2172POPC   C2B30392  24.461  24.829   8.343
 2172POPC   C3B30393  24.280  24.776   7.953
 2172POPC   C4B30394  24.345  25.010   7.589
 2173POPC   NC330395  25.590  25.839   9.429
 2173POPC   PO430396  26.158  26.193   9.474
 2173POPC   GL130397  25.969  26.202   9.117
 2173POPC   GL230398  25.879  25.856   8.999
 2173POPC   C1A30399  26.243  26.140   8.780
 2173POPC   D2A30400  26.146  25.866   8.469
 2173POPC   C3A30401  26.152  26.067   8.104
 2173POPC   C4A30402  26.247  25.789   7.812
 2173POPC   C1B30403  25.780  25.549   8.652
 2173POPC   C2B30404  25.767  25.590   8.191
 2173POPC   C3B30405  25.739  25.887   7.865
 2173POPC   C4B30406  25.845  25.779   7.443
 2174POPC   NC330407  20.344  13.282   9.526
 2174POPC   PO430408  20.996  13.472   9.469
 2174POPC   GL130409  20.681  13.548   9.201
 2174POPC   GL230410  20.549  13.908   9.278
 2174POPC   C1A30411  20.591  13.317   8.817
 2174POPC   D2A30412  20.638  13.532   8.436
 2174POPC   C3A30413  20.485  13.370   8.079
 2174POPC   C4A30414  20.702  13.336   7.701
 2174POPC   C1B30415  20.449  13.814   8.835
 2174POPC   C2B30416  20.178  13.724   8.473
 2174POPC   C3B30417  20.435  13.872   8.086
 2174POPC   C4B30418  20.881  13.988   7.982
 2175POPC   NC330419   3.181   2.251   9.608
 2175POPC   PO430420   3.850   2.345   9.461
 2175POPC   GL130421   3.721   1.985   9.208
 2175POPC   GL230422   3.377   1.901   9.155
 2175POPC   C1A30423   3.708   1.780   8.798
 2175POPC   D2A30424   3.669   1.976   8.425
 2175POPC   C3A30425   3.767   1.807   8.033
 2175POPC   C4A30426   3.376   1.866   7.892
 2175POPC   C1B30427   3.311   2.165   8.764
 2175POPC   C2B30428   3.256   2.408   8.376
 2175POPC   C3B30429   3.109   2.294   7.946
 2175POPC   C4B30430   3.302   2.207   7.533
 2176POPC   NC330431  14.768  14.303   9.527
 2176POPC   PO430432  15.445  14.475   9.473
 2176POPC   GL130433  15.309  14.193   9.114
 2176POPC   GL230434  15.012  14.429   9.054
 2176POPC   C1A30435  15.155  14.156   8.645
 2176POPC   D2A30436  14.910  14.481   8.426
 2176POPC   C3A30437  14.929  14.635   7.996
 2176POPC   C4A30438  14.993  14.306   7.625
 2176POPC   C1B30439  15.379  14.590   8.791
 2176POPC   C2B30440  15.464  14.490   8.393
 2176POPC   C3B30441  15.307  14.306   8.057
 2176POPC   C4B30442  15.381  14.588   7.755
 2177POPC   NC330443  32.776   5.310   9.480
 2177POPC   PO430444  32.958   4.688   9.653
 2177POPC   GL130445  33.074   4.970   9.232
 2177POPC   GL230446  33.251   5.291   9.245
 2177POPC   C1A30447  32.896   5.171   8.834
 2177POPC   D2A30448  32.893   5.005   8.396
 2177POPC   C3A30449  32.673   5.107   7.984
 2177POPC   C4A30450  32.876   5.042   7.568
 2177POPC   C1B30451  33.380   5.300   8.810
 2177POPC   C2B30452  33.187   5.430   8.391
 2177POPC   C3B30453  33.180   5.228   7.990
 2177POPC   C4B30454  33.525   5.308   7.749
 2178POPC   NC330455  27.353   7.727   9.191
 2178POPC   PO430456  27.806   7.257   9.478
 2178POPC   GL130457  27.751   7.391   9.099
 2178POPC   GL230458  27.850   7.716   9.003
 2178POPC   C1A30459  27.755   7.083   8.805
 2178POPC   D2A30460  27.800   7.052   8.383
 2178POPC   C3A30461  27.508   7.258   8.108
 2178POPC   C4A30462  27.711   7.296   7.699
 2178POPC   C1B30463  27.674   7.563   8.619
 2178POPC   C2B30464  27.676   7.708   8.213
 2178POPC   C3B30465  27.464   7.732   7.839
 2178POPC   C4B30466  27.596   7.699   7.407
 2179POPC   NC330467  33.916  21.940   9.411
 2179POPC   PO430468  33.933  21.360   9.732
 2179POPC   GL130469  33.741  21.367   9.258
 2179POPC   GL230470  33.938  21.610   9.030
 2179POPC   C1A30471  33.648  21.278   8.771
 2179POPC   D2A30472  33.641  21.311   8.298
 2179POPC   C3A30473  33.746  21.710   8.043
 2179POPC   C4A30474  33.804  21.706   7.600
 2179POPC   C1B30475  34.022  21.563   8.578
 2179POPC   C2B30476  34.130  21.414   8.153
 2179POPC   C3B30477  33.878  21.248   7.783
 2179POPC   C4B30478  34.088  21.368   7.341
 2180POPC   NC330479   8.050  21.391   9.602
 2180POPC   PO430480   8.445  20.962   9.742
 2180POPC   GL130481   8.455  21.279   9.286
 2180POPC   GL230482   8.218  21.528   9.150
 2180POPC   C1A30483   8.421  21.225   8.799
 2180POPC   D2A30484   8.285  21.435   8.411
 2180POPC   C3A30485   8.500  21.401   8.003
 2180POPC   C4A30486   8.306  21.215   7.600
 2180POPC   C1B30487   7.931  21.454   8.798
 2180POPC   C2B30488   7.827  21.682   8.387
 2180POPC   C3B30489   7.977  21.474   7.997
 2180POPC   C4B30490   7.838  21.454   7.585
 2181POPC   NC330491  41.776  30.309   9.337
 2181POPC   PO430492  41.738  30.971   9.487
 2181POPC   GL130493  41.506  30.768   9.144
 2181POPC   GL230494  41.283  30.500   9.234
 2181POPC   C1A30495  41.626  30.693   8.702
 2181POPC   D2A30496  41.553  30.916   8.317
 2181POPC   C3A30497  41.705  30.777   7.917
 2181POPC   C4A30498  41.482  30.886   7.545
 2181POPC   C1B30499  41.182  30.435   8.785
 2181POPC   C2B30500  41.165  30.557   8.327
 2181POPC   C3B30501  41.257  30.511   7.858
 2181POPC   C4B30502  41.197  30.489   7.389
 2182POPC   NC330503  14.651   5.570   9.511
 2182POPC   PO430504  14.240   6.113   9.526
 2182POPC   GL130505  14.379   5.873   9.176
 2182POPC   GL230506  14.083   6.034   9.044
 2182POPC   C1A30507  14.622   5.812   8.786
 2182POPC   D2A30508  14.496   5.656   8.360
 2182POPC   C3A30509  14.644   5.677   7.929
 2182POPC   C4A30510  14.687   5.894   7.566
 2182POPC   C1B30511  14.192   6.029   8.616
 2182POPC   C2B30512  14.081   5.954   8.215
 2182POPC   C3B30513  14.243   6.028   7.813
 2182POPC   C4B30514  14.073   6.081   7.386
 2183POPC   NC330515   0.204  38.907   9.630
 2183POPC   PO430516   0.653  38.417   9.493
 2183POPC   GL130517   0.503  38.601   9.131
 2183POPC   GL230518   0.135  38.493   9.154
 2183POPC   C1A30519   0.585  38.474   8.711
 2183POPC   D2A30520   0.690  38.168   8.404
 2183POPC   C3A30521   0.659  38.257   8.001
 2183POPC   C4A30522   0.630  38.620   7.779
 2183POPC   C1B30523   0.083  38.318   8.732
 2183POPC   C2B30524   0.122  38.170   8.301
 2183POPC   C3B30525   0.172  38.415   7.946
 2183POPC   C4B30526   0.262  38.375   7.518
 2184POPC   NC330527   4.545   3.502   9.637
 2184POPC   PO430528   4.033   3.881   9.601
 2184POPC   GL130529   4.095   3.494   9.298
 2184POPC   GL230530   4.355   3.203   9.267
 2184POPC   C1A30531   4.093   3.379   8.845
 2184POPC   D2A30532   4.031   3.661   8.479
 2184POPC   C3A30533   4.221   3.492   8.085
 2184POPC   C4A30534   4.185   3.308   7.668
 2184POPC   C1B30535   4.582   3.455   8.964
 2184POPC   C2B30536   4.524   3.461   8.518
 2184POPC   C3B30537   4.768   3.440   8.151
 2184POPC   C4B30538   4.743   3.418   7.708
 2185POPC   NC330539  34.309   0.527   9.552
 2185POPC   PO430540  34.688  44.894   9.442
 2185POPC   GL130541  34.446   0.196   9.164
 2185POPC   GL230542  34.422   0.586   9.079
 2185POPC   C1A30543  34.377   0.173   8.728
 2185POPC   D2A30544  34.647   0.084   8.380
 2185POPC   C3A30545  34.457   0.235   8.019
 2185POPC   C4A30546  34.530   0.422   7.676
 2185POPC   C1B30547  34.536   0.793   8.746
 2185POPC   C2B30548  34.467   0.593   8.392
 2185POPC   C3B30549  34.394   0.760   8.022
 2185POPC   C4B30550  34.044   0.728   7.836
 2186POPC   NC330551  20.813   3.297   9.483
 2186POPC   PO430552  20.272   3.701   9.399
 2186POPC   GL130553  20.481   3.436   9.109
 2186POPC   GL230554  20.701   3.706   9.094
 2186POPC   C1A30555  20.500   3.530   8.673
 2186POPC   D2A30556  20.727   3.415   8.366
 2186POPC   C3A30557  20.494   3.535   8.046
 2186POPC   C4A30558  20.584   3.423   7.658
 2186POPC   C1B30559  20.950   3.787   8.705
 2186POPC   C2B30560  20.825   3.897   8.254
 2186POPC   C3B30561  20.726   3.907   7.786
 2186POPC   C4B30562  20.927   3.685   7.396
 2187POPC   NC330563  18.290  44.347   9.382
 2187POPC   PO430564  17.855  44.814   9.542
 2187POPC   GL130565  18.125  44.798   9.172
 2187POPC   GL230566  18.367   0.067   9.127
 2187POPC   C1A30567  18.177  44.720   8.728
 2187POPC   D2A30568  18.066  44.840   8.309
 2187POPC   C3A30569  17.973  44.624   7.946
 2187POPC   C4A30570  18.173  44.645   7.517
 2187POPC   C1B30571  18.668  44.831   8.821
 2187POPC   C2B30572  18.607  44.722   8.366
 2187POPC   C3B30573  18.448  44.824   7.942
 2187POPC   C4B30574  18.343   0.120   7.605
 2188POPC   NC330575  16.404  15.517   9.379
 2188POPC   PO430576  16.935  15.972   9.551
 2188POPC   GL130577  16.748  15.857   9.164
 2188POPC   GL230578  16.470  15.971   9.136
 2188POPC   C1A30579  16.588  15.650   8.755
 2188POPC   D2A30580  16.328  15.668   8.414
 2188POPC   C3A30581  16.521  15.825   8.055
 2188POPC   C4A30582  16.464  15.492   7.790
 2188POPC   C1B30583  16.358  16.109   8.723
 2188POPC   C2B30584  16.169  16.132   8.315
 2188POPC   C3B30585  16.243  16.234   7.866
 2188POPC   C4B30586  16.554  16.342   7.510
 2189POPC   NC330587  31.905  44.764   9.592
 2189POPC   PO430588  31.211  44.531   9.498
 2189POPC   GL130589  31.367  44.579   9.097
 2189POPC   GL230590  31.542  44.879   9.158
 2189POPC   C1A30591  31.530  44.417   8.707
 2189POPC   D2A30592  31.414  44.174   8.340
 2189POPC   C3A30593  31.637  44.320   7.982
 2189POPC   C4A30594  31.417  44.580   7.698
 2189POPC   C1B30595  31.824  44.843   8.786
 2189POPC   C2B30596  31.864  44.661   8.364
 2189POPC   C3B30597  31.890  44.870   7.953
 2189POPC   C4B30598  31.822  44.960   7.518
 2190POPC   NC330599  26.135  22.607   9.640
 2190POPC   PO430600  25.957  21.976   9.555
 2190POPC   GL130601  26.113  22.061   9.168
 2190POPC   GL230602  26.366  22.331   9.262
 2190POPC   C1A30603  25.932  22.148   8.770
 2190POPC   D2A30604  25.994  22.339   8.409
 2190POPC   C3A30605  25.991  22.128   8.047
 2190POPC   C4A30606  26.059  21.926   7.655
 2190POPC   C1B30607  26.305  22.514   8.852
 2190POPC   C2B30608  26.449  22.583   8.433
 2190POPC   C3B30609  26.451  22.359   8.030
 2190POPC   C4B30610  26.439  22.254   7.565
 2191POPC   NC330611   0.106  31.586   9.585
 2191POPC   PO430612   0.708  31.371   9.474
 2191POPC   GL130613   0.481  31.615   9.181
 2191POPC   GL230614   0.270  31.352   9.131
 2191POPC   C1A30615   0.492  31.653   8.727
 2191POPC   D2A30616   0.493  31.818   8.303
 2191POPC   C3A30617   0.681  31.531   8.022
 2191POPC   C4A30618   0.731  31.509   7.597
 2191POPC   C1B30619   0.056  31.381   8.764
 2191POPC   C2B30620   0.014  31.645   8.429
 2191POPC   C3B30621   0.109  31.545   8.028
 2191POPC   C4B30622   0.232  31.409   7.633
 2192POPC   NC330623  18.462  41.020   9.363
 2192POPC   PO430624  18.039  41.476   9.445
 2192POPC   GL130625  18.112  41.304   9.100
 2192POPC   GL230626  18.430  41.473   9.083
 2192POPC   C1A30627  18.099  41.521   8.705
 2192POPC   D2A30628  18.299  41.397   8.355
 2192POPC   C3A30629  18.093  41.399   7.969
 2192POPC   C4A30630  18.462  41.161   7.864
 2192POPC   C1B30631  18.618  41.647   8.713
 2192POPC   C2B30632  18.641  41.805   8.321
 2192POPC   C3B30633  18.234  41.888   8.172
 2192POPC   C4B30634  18.175  41.928   7.760
 2193POPC   NC330635  29.055  38.156   9.672
 2193POPC   PO430636  28.606  37.928   9.389
 2193POPC   GL130637  28.961  38.152   9.138
 2193POPC   GL230638  29.339  38.143   9.214
 2193POPC   C1A30639  28.956  38.399   8.720
 2193POPC   D2A30640  29.055  38.261   8.304
 2193POPC   C3A30641  29.081  38.512   7.899
 2193POPC   C4A30642  29.201  38.736   7.517
 2193POPC   C1B30643  29.319  38.053   8.768
 2193POPC   C2B30644  29.494  37.981   8.364
 2193POPC   C3B30645  29.357  38.077   7.950
 2193POPC   C4B30646  29.454  38.261   7.555
 2194POPC   NC330647  24.768  18.075   9.402
 2194POPC   PO430648  24.441  18.720   9.409
 2194POPC   GL130649  24.662  18.514   9.106
 2194POPC   GL230650  24.421  18.260   9.078
 2194POPC   C1A30651  24.717  18.389   8.677
 2194POPC   D2A30652  24.748  18.567   8.253
 2194POPC   C3A30653  24.941  18.394   7.850
 2194POPC   C4A30654  24.983  18.286   7.375
 2194POPC   C1B30655  24.326  18.037   8.699
 2194POPC   C2B30656  24.419  18.169   8.293
 2194POPC   C3B30657  24.429  18.364   7.919
 2194POPC   C4B30658  24.550  18.094   7.599
 2195POPC   NC330659   0.748  31.968   9.477
 2195POPC   PO430660   1.129  32.549   9.427
 2195POPC   GL130661   1.129  32.385   9.061
 2195POPC   GL230662   1.146  32.069   9.142
 2195POPC   C1A30663   1.290  32.282   8.669
 2195POPC   D2A30664   1.382  32.085   8.265
 2195POPC   C3A30665   1.280  32.264   7.863
 2195POPC   C4A30666   1.199  32.196   7.443
 2195POPC   C1B30667   0.870  32.011   8.777
 2195POPC   C2B30668   0.844  32.203   8.340
 2195POPC   C3B30669   0.847  32.021   7.899
 2195POPC   C4B30670   0.754  31.985   7.426
 2196POPC   NC330671   5.834  16.355   9.455
 2196POPC   PO430672   5.335  16.760   9.528
 2196POPC   GL130673   5.525  16.663   9.119
 2196POPC   GL230674   5.901  16.726   9.102
 2196POPC   C1A30675   5.465  16.729   8.652
 2196POPC   D2A30676   5.414  16.934   8.220
 2196POPC   C3A30677   5.588  16.717   7.840
 2196POPC   C4A30678   5.794  16.667   7.428
 2196POPC   C1B30679   6.057  16.664   8.668
 2196POPC   C2B30680   6.237  16.734   8.236
 2196POPC   C3B30681   6.144  16.791   7.793
 2196POPC   C4B30682   6.287  16.638   7.401
 2197POPC   NC330683  14.393  41.198   9.370
 2197POPC   PO430684  14.087  41.755   9.419
 2197POPC   GL130685  14.380  41.619   9.085
 2197POPC   GL230686  14.723  41.620   9.230
 2197POPC   C1A30687  14.399  41.408   8.681
 2197POPC   D2A30688  14.286  41.497   8.250
 2197POPC   C3A30689  14.170  41.446   7.843
 2197POPC   C4A30690  14.050  41.607   7.443
 2197POPC   C1B30691  14.794  41.743   8.793
 2197POPC   C2B30692  14.695  41.778   8.368
 2197POPC   C3B30693  14.634  41.692   7.917
 2197POPC   C4B30694  14.928  41.696   7.583
 2198POPC   NC330695  23.305  23.121   9.483
 2198POPC   PO430696  23.571  22.598   9.322
 2198POPC   GL130697  23.785  22.839   9.074
 2198POPC   GL230698  23.677  23.170   9.082
 2198POPC   C1A30699  23.754  22.734   8.651
 2198POPC   D2A30700  23.796  23.016   8.328
 2198POPC   C3A30701  23.563  22.882   7.992
 2198POPC   C4A30702  23.895  22.780   7.744
 2198POPC   C1B30703  23.454  23.138   8.699
 2198POPC   C2B30704  23.370  23.314   8.289
 2198POPC   C3B30705  23.497  23.389   7.878
 2198POPC   C4B30706  23.890  23.484   7.718
 2199POPC   NC330707  18.026  38.037   9.480
 2199POPC   PO430708  18.656  38.403   9.584
 2199POPC   GL130709  18.421  38.381   9.212
 2199POPC   GL230710  18.519  38.100   9.081
 2199POPC   C1A30711  18.481  38.482   8.757
 2199POPC   D2A30712  18.195  38.406   8.408
 2199POPC   C3A30713  18.340  38.587   8.034
 2199POPC   C4A30714  18.516  38.399   7.686
 2199POPC   C1B30715  18.084  38.180   8.866
 2199POPC   C2B30716  17.941  37.888   8.559
 2199POPC   C3B30717  18.194  37.846   8.194
 2199POPC   C4B30718  18.216  38.038   7.840
 2200POPC   NC330719   4.068  39.603   9.387
 2200POPC   PO430720   4.134  38.931   9.533
 2200POPC   GL130721   4.136  39.091   9.144
 2200POPC   GL230722   4.466  39.139   9.150
 2200POPC   C1A30723   4.020  39.074   8.720
 2200POPC   D2A30724   4.114  39.324   8.357
 2200POPC   C3A30725   4.077  39.180   7.931
 2200POPC   C4A30726   4.468  39.059   7.719
 2200POPC   C1B30727   4.474  39.368   8.770
 2200POPC   C2B30728   4.566  39.554   8.389
 2200POPC   C3B30729   4.503  39.469   8.005
 2200POPC   C4B30730   4.555  39.720   7.678
 2201POPC   NC330731  35.720  36.854   9.683
 2201POPC   PO430732  36.466  36.938   9.551
 2201POPC   GL130733  36.273  36.910   9.168
 2201POPC   GL230734  35.922  36.813   9.220
 2201POPC   C1A30735  36.457  36.920   8.782
 2201POPC   D2A30736  36.537  36.668   8.463
 2201POPC   C3A30737  36.379  36.896   8.123
 2201POPC   C4A30738  36.366  36.708   7.737
 2201POPC   C1B30739  35.865  36.938   8.813
 2201POPC   C2B30740  36.041  36.705   8.498
 2201POPC   C3B30741  35.951  36.634   8.055
 2201POPC   C4B30742  35.880  37.042   7.885
 2202POPC   NC330743  11.483  25.818   9.502
 2202POPC   PO430744  10.956  26.109   9.387
 2202POPC   GL130745  11.239  25.961   9.068
 2202POPC   GL230746  11.583  26.106   9.099
 2202POPC   C1A30747  11.384  25.962   8.639
 2202POPC   D2A30748  11.393  25.723   8.280
 2202POPC   C3A30749  11.072  25.718   8.050
 2202POPC   C4A30750  11.213  25.932   7.778
 2202POPC   C1B30751  11.566  26.413   8.785
 2202POPC   C2B30752  11.677  26.351   8.346
 2202POPC   C3B30753  11.567  26.341   7.865
 2202POPC   C4B30754  11.685  26.522   7.463
 2203POPC   NC330755  36.278  30.196   9.496
 2203POPC   PO430756  35.796  29.742   9.620
 2203POPC   GL130757  35.942  29.927   9.235
 2203POPC   GL230758  36.137  29.676   9.127
 2203POPC   C1A30759  36.109  30.068   8.807
 2203POPC   D2A30760  36.352  30.348   8.542
 2203POPC   C3A30761  36.302  30.361   8.116
 2203POPC   C4A30762  36.108  30.356   7.724
 2203POPC   C1B30763  36.421  29.657   8.752
 2203POPC   C2B30764  36.376  29.872   8.370
 2203POPC   C3B30765  36.191  29.885   7.979
 2203POPC   C4B30766  36.298  29.832   7.574
 2204POPC   NC330767  44.493  19.306   9.432
 2204POPC   PO430768   0.039  18.820   9.426
 2204POPC   GL130769  44.843  19.094   9.119
 2204POPC   GL230770  44.533  18.919   9.134
 2204POPC   C1A30771  44.648  19.198   8.705
 2204POPC   D2A30772  44.517  19.417   8.308
 2204POPC   C3A30773  44.740  19.287   7.959
 2204POPC   C4A30774  44.649  19.108   7.572
 2204POPC   C1B30775  44.344  18.784   8.763
 2204POPC   C2B30776  44.315  18.937   8.363
 2204POPC   C3B30777  44.218  19.130   7.979
 2204POPC   C4B30778  44.238  18.811   7.700
 2205POPC   NC330779  10.045  32.607   9.594
 2205POPC   PO430780  10.288  32.080   9.474
 2205POPC   GL130781  10.724  32.276   9.232
 2205POPC   GL230782  11.006  32.000   9.123
 2205POPC   C1A30783  10.789  32.568   8.870
 2205POPC   D2A30784  10.927  32.592   8.425
 2205POPC   C3A30785  10.650  32.516   8.107
 2205POPC   C4A30786  10.465  32.534   7.713
 2205POPC   C1B30787  10.927  31.808   8.687
 2205POPC   C2B30788  10.914  32.075   8.264
 2205POPC   C3B30789  10.664  32.061   7.872
 2205POPC   C4B30790  10.552  31.662   7.641
 2206POPC   NC330791   1.079  41.405   9.514
 2206POPC   PO430792   1.011  42.015   9.233
 2206POPC   GL130793   1.337  41.721   9.097
 2206POPC   GL230794   1.093  41.480   9.012
 2206POPC   C1A30795   1.642  41.661   8.741
 2206POPC   D2A30796   1.612  41.781   8.275
 2206POPC   C3A30797   1.374  41.512   8.040
 2206POPC   C4A30798   0.971  41.553   7.886
 2206POPC   C1B30799   1.267  41.326   8.650
 2206POPC   C2B30800   1.092  41.168   8.311
 2206POPC   C3B30801   0.904  41.044   7.980
 2206POPC   C4B30802   1.132  41.113   7.663
 2207POPC   NC330803   2.217  26.328   9.489
 2207POPC   PO430804   1.762  25.986   9.727
 2207POPC   GL130805   1.935  25.922   9.280
 2207POPC   GL230806   2.246  25.811   9.168
 2207POPC   C1A30807   1.808  25.843   8.832
 2207POPC   D2A30808   1.887  25.685   8.418
 2207POPC   C3A30809   1.989  25.972   8.108
 2207POPC   C4A30810   1.861  26.172   7.753
 2207POPC   C1B30811   2.320  25.952   8.724
 2207POPC   C2B30812   2.447  26.068   8.285
 2207POPC   C3B30813   2.398  25.925   7.819
 2207POPC   C4B30814   2.483  25.719   7.408
 2208POPC   NC330815   1.828  36.708   9.509
 2208POPC   PO430816   2.453  37.072   9.502
 2208POPC   GL130817   2.245  36.746   9.200
 2208POPC   GL230818   2.026  36.992   9.142
 2208POPC   C1A30819   1.927  36.666   8.797
 2208POPC   D2A30820   2.087  36.762   8.397
 2208POPC   C3A30821   1.902  36.836   7.966
 2208POPC   C4A30822   1.936  36.671   7.546
 2208POPC   C1B30823   2.031  37.166   8.741
 2208POPC   C2B30824   1.865  37.241   8.328
 2208POPC   C3B30825   2.123  37.320   7.973
 2208POPC   C4B30826   2.249  37.481   7.584
 2209POPC   NC330827  33.297  44.350   9.453
 2209POPC   PO430828  33.135  44.976   9.357
 2209POPC   GL130829  33.209  44.670   9.045
 2209POPC   GL230830  32.876  44.522   9.143
 2209POPC   C1A30831  33.214  44.771   8.599
 2209POPC   D2A30832  32.899   0.001   8.338
 2209POPC   C3A30833  32.915  44.831   7.906
 2209POPC   C4A30834  33.266  44.550   7.730
 2209POPC   C1B30835  32.726  44.617   8.713
 2209POPC   C2B30836  32.772  44.492   8.279
 2209POPC   C3B30837  32.672  44.381   7.862
 2209POPC   C4B30838  32.774  44.553   7.475
 2210POPC   NC330839  42.013  13.071   9.524
 2210POPC   PO430840  41.406  12.768   9.510
 2210POPC   GL130841  41.452  12.807   9.081
 2210POPC   GL230842  41.712  13.034   9.089
 2210POPC   C1A30843  41.474  12.825   8.629
 2210POPC   D2A30844  41.779  12.741   8.306
 2210POPC   C3A30845  41.662  12.648   7.909
 2210POPC   C4A30846  41.440  12.876   7.615
 2210POPC   C1B30847  41.878  13.200   8.699
 2210POPC   C2B30848  41.717  13.244   8.279
 2210POPC   C3B30849  41.875  13.144   7.866
 2210POPC   C4B30850  41.833  13.130   7.395
 2211POPC   NC330851   4.510  17.533   9.543
 2211POPC   PO430852   3.841  17.640   9.690
 2211POPC   GL130853   4.034  17.636   9.192
 2211POPC   GL230854   4.395  17.600   9.070
 2211POPC   C1A30855   4.092  17.421   8.729
 2211POPC   D2A30856   4.187  17.660   8.374
 2211POPC   C3A30857   4.296  17.430   8.025
 2211POPC   C4A30858   4.168  17.503   7.603
 2211POPC   C1B30859   4.561  17.812   8.733
 2211POPC   C2B30860   4.809  17.875   8.404
 2211POPC   C3B30861   4.658  17.791   8.015
 2211POPC   C4B30862   4.662  17.537   7.659
 2212POPC   NC330863  22.145  34.835   9.665
 2212POPC   PO430864  22.433  34.247   9.578
 2212POPC   GL130865  22.294  34.498   9.225
 2212POPC   GL230866  21.967  34.654   9.202
 2212POPC   C1A30867  22.345  34.751   8.842
 2212POPC   D2A30868  22.160  34.789   8.443
 2212POPC   C3A30869  22.345  34.644   8.083
 2212POPC   C4A30870  22.171  34.673   7.713
 2212POPC   C1B30871  21.783  34.750   8.787
 2212POPC   C2B30872  21.721  34.517   8.398
 2212POPC   C3B30873  21.713  34.716   8.011
 2212POPC   C4B30874  21.757  34.928   7.621
 2213POPC   NC330875  29.834  21.563   9.580
 2213POPC   PO430876  30.066  20.960   9.574
 2213POPC   GL130877  29.988  21.218   9.228
 2213POPC   GL230878  30.069  21.537   9.096
 2213POPC   C1A30879  29.867  21.186   8.811
 2213POPC   D2A30880  30.038  21.348   8.462
 2213POPC   C3A30881  29.865  21.177   8.074
 2213POPC   C4A30882  29.565  21.240   7.737
 2213POPC   C1B30883  29.905  21.780   8.729
 2213POPC   C2B30884  30.056  21.873   8.281
 2213POPC   C3B30885  29.927  21.763   7.829
 2213POPC   C4B30886  29.527  21.713   7.558
 2214POPC   NC330887  44.270  27.667   9.565
 2214POPC   PO430888  43.627  27.271   9.558
 2214POPC   GL130889  43.854  27.538   9.222
 2214POPC   GL230890  44.073  27.782   9.117
 2214POPC   C1A30891  44.094  27.440   8.782
 2214POPC   D2A30892  43.930  27.490   8.409
 2214POPC   C3A30893  44.123  27.476   8.055
 2214POPC   C4A30894  43.999  27.559   7.696
 2214POPC   C1B30895  43.731  27.795   8.809
 2214POPC   C2B30896  43.690  27.957   8.405
 2214POPC   C3B30897  43.709  27.810   8.029
 2214POPC   C4B30898  43.374  28.025   7.833
 2215POPC   NC330899  22.119  29.449   9.467
 2215POPC   PO430900  22.490  29.013   9.262
 2215POPC   GL130901  22.167  29.205   9.026
 2215POPC   GL230902  21.828  29.110   9.146
 2215POPC   C1A30903  22.116  29.143   8.614
 2215POPC   D2A30904  22.357  28.914   8.390
 2215POPC   C3A30905  22.174  29.011   8.040
 2215POPC   C4A30906  22.173  28.857   7.654
 2215POPC   C1B30907  21.642  29.282   8.751
 2215POPC   C2B30908  21.696  29.202   8.279
 2215POPC   C3B30909  21.792  29.274   7.821
 2215POPC   C4B30910  21.556  29.469   7.462
 2216POPC   NC330911  43.921  29.235   9.672
 2216POPC   PO430912  43.462  28.831   9.420
 2216POPC   GL130913  43.857  28.996   9.209
 2216POPC   GL230914  44.047  29.334   9.191
 2216POPC   C1A30915  44.009  28.974   8.787
 2216POPC   D2A30916  43.721  28.982   8.440
 2216POPC   C3A30917  43.866  29.122   8.045
 2216POPC   C4A30918  43.685  29.345   7.664
 2216POPC   C1B30919  44.272  29.408   8.813
 2216POPC   C2B30920  44.300  29.218   8.408
 2216POPC   C3B30921  44.255  29.454   8.067
 2216POPC   C4B30922  44.196  29.326   7.674
 2217POPC   NC330923  19.976  10.527   9.747
 2217POPC   PO430924  20.582  10.488   9.485
 2217POPC   GL130925  20.665  10.685   9.116
 2217POPC   GL230926  20.899  10.890   9.094
 2217POPC   C1A30927  20.580  10.602   8.723
 2217POPC   D2A30928  20.401  10.748   8.376
 2217POPC   C3A30929  20.570  10.550   8.045
 2217POPC   C4A30930  20.420  10.518   7.662
 2217POPC   C1B30931  21.040  10.884   8.734
 2217POPC   C2B30932  20.937  10.733   8.372
 2217POPC   C3B30933  20.963  10.884   7.996
 2217POPC   C4B30934  20.833  10.815   7.597
 2218POPC   NC330935  41.742   0.874   9.358
 2218POPC   PO430936  41.443   1.463   9.548
 2218POPC   GL130937  41.651   1.423   9.165
 2218POPC   GL230938  42.026   1.497   9.192
 2218POPC   C1A30939  41.534   1.331   8.709
 2218POPC   D2A30940  41.467   1.053   8.346
 2218POPC   C3A30941  41.477   1.248   7.943
 2218POPC   C4A30942  41.428   1.302   7.507
 2218POPC   C1B30943  41.990   1.200   8.878
 2218POPC   C2B30944  41.966   1.203   8.466
 2218POPC   C3B30945  41.937   1.105   8.075
 2218POPC   C4B30946  41.890   1.063   7.646
 2219POPC   NC330947   6.575  20.944   9.409
 2219POPC   PO430948   6.634  20.366   9.838
 2219POPC   GL130949   6.648  20.420   9.351
 2219POPC   GL230950   6.312  20.532   9.217
 2219POPC   C1A30951   6.736  20.438   8.879
 2219POPC   D2A30952   6.804  20.765   8.533
 2219POPC   C3A30953   6.833  20.627   8.077
 2219POPC   C4A30954   6.998  20.826   7.710
 2219POPC   C1B30955   6.289  20.654   8.770
 2219POPC   C2B30956   6.383  20.555   8.321
 2219POPC   C3B30957   6.344  20.568   7.858
 2219POPC   C4B30958   6.268  20.414   7.414
 2220POPC   NC330959  30.046   7.037   9.576
 2220POPC   PO430960  30.093   6.287   9.432
 2220POPC   GL130961  29.936   6.666   9.215
 2220POPC   GL230962  30.148   6.965   9.100
 2220POPC   C1A30963  29.738   6.651   8.827
 2220POPC   D2A30964  29.808   6.436   8.448
 2220POPC   C3A30965  29.573   6.548   8.096
 2220POPC   C4A30966  29.759   6.578   7.683
 2220POPC   C1B30967  29.907   7.132   8.780
 2220POPC   C2B30968  29.788   6.965   8.405
 2220POPC   C3B30969  29.911   6.927   8.016
 2220POPC   C4B30970  29.582   7.050   7.741
 2221POPC   NC330971  25.791  13.116   9.359
 2221POPC   PO430972  26.063  12.470   9.425
 2221POPC   GL130973  26.228  12.849   9.193
 2221POPC   GL230974  26.178  12.627   8.883
 2221POPC   C1A30975  26.226  13.119   8.812
 2221POPC   D2A30976  26.004  12.892   8.469
 2221POPC   C3A30977  26.199  13.012   8.073
 2221POPC   C4A30978  26.007  13.104   7.688
 2221POPC   C1B30979  25.752  12.467   8.750
 2221POPC   C2B30980  25.542  12.502   8.345
 2221POPC   C3B30981  25.762  12.739   8.037
 2221POPC   C4B30982  25.981  12.602   7.657
 2222POPC   NC330983   0.128   3.827   9.494
 2222POPC   PO430984  44.538   3.465   9.542
 2222POPC   GL130985  44.757   3.574   9.222
 2222POPC   GL230986   0.008   3.341   9.316
 2222POPC   C1A30987  44.569   3.578   8.845
 2222POPC   D2A30988  44.565   3.731   8.453
 2222POPC   C3A30989  44.776   3.586   8.098
 2222POPC   C4A30990  44.629   3.580   7.677
 2222POPC   C1B30991   0.052   3.249   8.925
 2222POPC   C2B30992   0.091   3.367   8.483
 2222POPC   C3B30993   0.149   3.221   8.071
 2222POPC   C4B30994  44.952   3.180   7.613
 2223POPC   NC330995  20.220  17.127   9.268
 2223POPC   PO430996  20.780  16.959   9.662
 2223POPC   GL130997  20.623  16.782   9.277
 2223POPC   GL230998  20.950  16.814   9.164
 2223POPC   C1A30999  20.523  16.735   8.818
 2223POPC   D2A31000  20.324  16.586   8.422
 2223POPC   C3A31001  20.459  16.696   8.026
 2223POPC   C4A31002  20.341  16.500   7.648
 2223POPC   C1B31003  21.030  16.622   8.798
 2223POPC   C2B31004  20.859  16.623   8.414
 2223POPC   C3B31005  20.966  16.756   8.030
 2223POPC   C4B31006  20.814  16.732   7.649
 2224POPC   NC331007  35.242  19.640   9.369
 2224POPC   PO431008  35.799  20.090   9.585
 2224POPC   GL131009  35.585  19.955   9.185
 2224POPC   GL231010  35.631  19.618   9.039
 2224POPC   C1A31011  35.371  19.969   8.782
 2224POPC   D2A31012  35.088  19.793   8.482
 2224POPC   C3A31013  35.169  19.529   8.114
 2224POPC   C4A31014  35.143  19.917   7.922
 2224POPC   C1B31015  35.469  19.463   8.691
 2224POPC   C2B31016  35.586  19.724   8.374
 2224POPC   C3B31017  35.630  19.965   8.078
 2224POPC   C4B31018  35.548  19.692   7.731
 2225POPC   NC331019   2.296  29.028   9.386
 2225POPC   PO431020   1.873  29.581   9.348
 2225POPC   GL131021   1.907  29.194   9.108
 2225POPC   GL231022   1.693  28.917   9.193
 2225POPC   C1A31023   2.085  28.995   8.735
 2225POPC   D2A31024   1.885  29.092   8.348
 2225POPC   C3A31025   2.028  29.162   7.961
 2225POPC   C4A31026   1.780  29.315   7.671
 2225POPC   C1B31027   1.574  28.971   8.747
 2225POPC   C2B31028   1.502  28.768   8.350
 2225POPC   C3B31029   1.729  28.735   7.965
 2225POPC   C4B31030   2.205  28.697   7.901
 2226POPC   NC331031  18.653  16.173   9.508
 2226POPC   PO431032  17.924  16.071   9.434
 2226POPC   GL131033  18.068  15.840   9.138
 2226POPC   GL231034  18.377  15.736   9.287
 2226POPC   C1A31035  18.089  16.054   8.749
 2226POPC   D2A31036  17.942  16.215   8.354
 2226POPC   C3A31037  18.319  16.247   8.127
 2226POPC   C4A31038  18.576  16.114   7.786
 2226POPC   C1B31039  18.443  15.683   8.829
 2226POPC   C2B31040  18.258  15.721   8.413
 2226POPC   C3B31041  18.449  15.700   8.038
 2226POPC   C4B31042  18.328  15.683   7.631
 2227POPC   NC331043  13.157  20.124   9.713
 2227POPC   PO431044  13.807  19.917   9.514
 2227POPC   GL131045  13.529  19.760   9.183
 2227POPC   GL231046  13.261  19.507   9.228
 2227POPC   C1A31047  13.731  19.752   8.795
 2227POPC   D2A31048  14.008  19.716   8.425
 2227POPC   C3A31049  13.789  19.788   8.045
 2227POPC   C4A31050  13.749  19.566   7.723
 2227POPC   C1B31051  13.311  19.434   8.755
 2227POPC   C2B31052  13.431  19.678   8.386
 2227POPC   C3B31053  13.288  19.593   7.963
 2227POPC   C4B31054  13.309  19.542   7.475
 2228POPC   NC331055  37.788  29.519   9.447
 2228POPC   PO431056  37.537  30.176   9.510
 2228POPC   GL131057  37.687  30.135   9.114
 2228POPC   GL231058  37.914  29.857   9.054
 2228POPC   C1A31059  37.815  30.411   8.793
 2228POPC   D2A31060  37.914  30.208   8.443
 2228POPC   C3A31061  37.619  30.095   8.125
 2228POPC   C4A31062  37.769  30.053   7.714
 2228POPC   C1B31063  37.916  29.682   8.633
 2228POPC   C2B31064  37.685  29.547   8.255
 2228POPC   C3B31065  37.624  29.561   7.811
 2228POPC   C4B31066  37.609  29.502   7.374
 2229POPC   NC331067   0.578  28.252   9.545
 2229POPC   PO431068  44.957  28.220   9.447
 2229POPC   GL131069   0.279  28.088   9.142
 2229POPC   GL231070   0.442  28.419   9.085
 2229POPC   C1A31071   0.438  28.078   8.718
 2229POPC   D2A31072   0.296  28.315   8.382
 2229POPC   C3A31073   0.379  28.160   7.976
 2229POPC   C4A31074   0.358  28.278   7.556
 2229POPC   C1B31075   0.717  28.516   8.712
 2229POPC   C2B31076   0.690  28.651   8.264
 2229POPC   C3B31077   0.478  28.670   7.873
 2229POPC   C4B31078   0.025  28.552   7.842
 2230POPC   NC331079  20.696  35.542   9.549
 2230POPC   PO431080  20.136  35.211   9.463
 2230POPC   GL131081  20.418  35.420   9.150
 2230POPC   GL231082  20.799  35.330   9.104
 2230POPC   C1A31083  20.383  35.428   8.741
 2230POPC   D2A31084  20.267  35.111   8.468
 2230POPC   C3A31085  20.454  35.224   8.133
 2230POPC   C4A31086  20.329  35.494   7.806
 2230POPC   C1B31087  20.896  35.357   8.662
 2230POPC   C2B31088  21.026  35.251   8.258
 2230POPC   C3B31089  20.865  35.238   7.859
 2230POPC   C4B31090  20.707  35.413   7.469
 2231POPC   NC331091  10.885  41.760   9.803
 2231POPC   PO431092  11.523  41.651   9.512
 2231POPC   GL131093  11.443  41.434   9.146
 2231POPC   GL231094  11.094  41.415   9.191
 2231POPC   C1A31095  11.359  41.425   8.718
 2231POPC   D2A31096  11.253  41.726   8.392
 2231POPC   C3A31097  11.444  41.555   8.026
 2231POPC   C4A31098  11.342  41.448   7.640
 2231POPC   C1B31099  10.872  41.519   8.765
 2231POPC   C2B31100  10.745  41.619   8.372
 2231POPC   C3B31101  10.918  41.628   7.985
 2231POPC   C4B31102  10.846  41.397   7.616
 2232POPC   NC331103  39.619  21.165   9.525
 2232POPC   PO431104  38.954  21.158   9.421
 2232POPC   GL131105  39.254  21.357   9.178
 2232POPC   GL231106  39.252  21.718   9.193
 2232POPC   C1A31107  39.226  21.255   8.740
 2232POPC   D2A31108  39.005  21.267   8.325
 2232POPC   C3A31109  39.331  21.278   8.029
 2232POPC   C4A31110  39.491  21.360   7.630
 2232POPC   C1B31111  39.024  21.726   8.826
 2232POPC   C2B31112  38.893  21.783   8.388
 2232POPC   C3B31113  39.022  21.699   7.981
 2232POPC   C4B31114  38.950  21.415   7.691
 2233POPC   NC331115  10.604  44.430   9.587
 2233POPC   PO431116  10.069  44.684   9.457
 2233POPC   GL131117  10.376  44.472   9.122
 2233POPC   GL231118  10.757  44.451   9.100
 2233POPC   C1A31119  10.349  44.459   8.670
 2233POPC   D2A31120  10.124  44.679   8.319
 2233POPC   C3A31121  10.188  44.726   7.847
 2233POPC   C4A31122  10.517  44.628   7.544
 2233POPC   C1B31123  10.752  44.740   8.744
 2233POPC   C2B31124  10.657  44.623   8.295
 2233POPC   C3B31125  10.830  44.462   7.922
 2233POPC   C4B31126  11.038  44.690   7.601
 2234POPC   NC331127   8.851   8.560   9.534
 2234POPC   PO431128   9.209   9.094   9.642
 2234POPC   GL131129   9.147   8.843   9.221
 2234POPC   GL231130   8.799   8.774   9.075
 2234POPC   C1A31131   9.195   8.788   8.772
 2234POPC   D2A31132   9.078   8.646   8.381
 2234POPC   C3A31133   9.235   8.972   8.127
 2234POPC   C4A31134   9.411   9.052   7.737
 2234POPC   C1B31135   8.700   9.179   8.872
 2234POPC   C2B31136   8.761   9.440   8.490
 2234POPC   C3B31137   8.686   9.381   8.042
 2234POPC   C4B31138   8.847   9.018   7.786
 2235POPC   NC331139   7.321   1.186   9.425
 2235POPC   PO431140   7.902   0.864   9.480
 2235POPC   GL131141   7.751   1.170   9.115
 2235POPC   GL231142   7.398   1.348   8.959
 2235POPC   C1A31143   7.718   1.110   8.661
 2235POPC   D2A31144   7.405   1.175   8.351
 2235POPC   C3A31145   7.597   1.256   7.954
 2235POPC   C4A31146   7.571   0.996   7.567
 2235POPC   C1B31147   7.197   0.986   8.804
 2235POPC   C2B31148   7.097   0.736   8.472
 2235POPC   C3B31149   7.089   0.762   8.046
 2235POPC   C4B31150   7.132   1.120   7.801
 2236POPC   NC331151  33.397  32.477   9.613
 2236POPC   PO431152  33.995  32.171   9.568
 2236POPC   GL131153  33.802  32.223   9.178
 2236POPC   GL231154  33.896  31.958   9.073
 2236POPC   C1A31155  33.645  32.200   8.714
 2236POPC   D2A31156  33.529  31.972   8.320
 2236POPC   C3A31157  33.615  32.198   7.897
 2236POPC   C4A31158  33.725  32.625   7.698
 2236POPC   C1B31159  34.160  32.250   8.777
 2236POPC   C2B31160  34.237  32.124   8.352
 2236POPC   C3B31161  34.119  32.144   7.942
 2236POPC   C4B31162  34.034  32.242   7.518
 2237POPC   NC331163  14.851  19.838   9.507
 2237POPC   PO431164  15.438  20.027   9.676
 2237POPC   GL131165  15.293  20.003   9.255
 2237POPC   GL231166  15.000  20.260   9.264
 2237POPC   C1A31167  15.244  19.751   8.869
 2237POPC   D2A31168  15.096  19.754   8.427
 2237POPC   C3A31169  15.371  19.703   8.083
 2237POPC   C4A31170  15.366  19.891   7.676
 2237POPC   C1B31171  15.086  20.242   8.837
 2237POPC   C2B31172  14.883  20.212   8.450
 2237POPC   C3B31173  15.063  20.111   8.047
 2237POPC   C4B31174  14.939  20.202   7.622
 2238POPC   NC331175  32.846  39.192   9.560
 2238POPC   PO431176  32.197  39.152   9.342
 2238POPC   GL131177  32.549  39.228   9.045
 2238POPC   GL231178  32.656  38.903   8.914
 2238POPC   C1A31179  32.527  39.354   8.596
 2238POPC   D2A31180  32.440  39.116   8.217
 2238POPC   C3A31181  32.397  39.352   7.850
 2238POPC   C4A31182  32.431  39.430   7.381
 2238POPC   C1B31183  32.249  38.932   8.675
 2238POPC   C2B31184  31.991  39.245   8.451
 2238POPC   C3B31185  31.904  39.296   7.980
 2238POPC   C4B31186  32.029  39.162   7.537
 2239POPC   NC331187   1.450   2.705   9.363
 2239POPC   PO431188   0.781   2.554   9.342
 2239POPC   GL131189   0.823   2.850   8.993
 2239POPC   GL231190   1.166   2.822   8.970
 2239POPC   C1A31191   0.915   2.843   8.546
 2239POPC   D2A31192   0.978   2.525   8.299
 2239POPC   C3A31193   1.074   2.651   7.923
 2239POPC   C4A31194   1.129   3.037   7.799
 2239POPC   C1B31195   1.432   2.725   8.612
 2239POPC   C2B31196   1.498   2.762   8.177
 2239POPC   C3B31197   1.614   2.960   7.776
 2239POPC   C4B31198   1.468   3.209   7.421
 2240POPC   NC331199  24.874  12.723   9.290
 2240POPC   PO431200  25.358  13.277   9.430
 2240POPC   GL131201  25.351  12.980   9.102
 2240POPC   GL231202  25.427  12.620   9.167
 2240POPC   C1A31203  25.540  12.952   8.711
 2240POPC   D2A31204  25.278  12.950   8.373
 2240POPC   C3A31205  25.428  13.127   8.015
 2240POPC   C4A31206  25.492  12.888   7.641
 2240POPC   C1B31207  25.210  12.551   8.754
 2240POPC   C2B31208  24.979  12.535   8.352
 2240POPC   C3B31209  25.122  12.703   7.939
 2240POPC   C4B31210  25.018  12.721   7.489
 2241POPC   NC331211   9.918  41.957   9.467
 2241POPC   PO431212   9.612  42.522   9.460
 2241POPC   GL131213   9.489  42.389   9.087
 2241POPC   GL231214   9.554  42.049   9.088
 2241POPC   C1A31215   9.617  42.360   8.681
 2241POPC   D2A31216   9.461  42.589   8.346
 2241POPC   C3A31217   9.620  42.446   7.998
 2241POPC   C4A31218   9.720  42.330   7.607
 2241POPC   C1B31219   9.876  41.918   8.781
 2241POPC   C2B31220   9.767  41.769   8.367
 2241POPC   C3B31221   9.759  41.924   7.934
 2241POPC   C4B31222  10.103  41.997   7.610
 2242POPC   NC331223   9.741  35.610   9.435
 2242POPC   PO431224   9.975  36.235   9.391
 2242POPC   GL131225   9.908  36.071   9.018
 2242POPC   GL231226   9.592  35.996   9.112
 2242POPC   C1A31227   9.889  36.146   8.581
 2242POPC   D2A31228   9.693  36.430   8.289
 2242POPC   C3A31229   9.837  36.364   7.921
 2242POPC   C4A31230   9.643  36.214   7.581
 2242POPC   C1B31231   9.500  35.811   8.759
 2242POPC   C2B31232   9.643  35.747   8.354
 2242POPC   C3B31233   9.615  35.887   7.972
 2242POPC   C4B31234   9.664  35.696   7.589
 2243POPC   NC331235  42.015   7.297   9.612
 2243POPC   PO431236  42.227   7.916   9.325
 2243POPC   GL131237  42.332   7.630   9.044
 2243POPC   GL231238  42.128   7.359   9.116
 2243POPC   C1A31239  42.522   7.613   8.647
 2243POPC   D2A31240  42.356   7.766   8.265
 2243POPC   C3A31241  42.575   7.675   7.896
 2243POPC   C4A31242  42.253   7.503   7.666
 2243POPC   C1B31243  42.275   7.151   8.753
 2243POPC   C2B31244  42.325   7.232   8.340
 2243POPC   C3B31245  42.087   7.189   8.001
 2243POPC   C4B31246  42.224   7.006   7.622
 2244POPC   NC331247  12.577  42.695   9.887
 2244POPC   PO431248  13.194  43.010   9.613
 2244POPC   GL131249  13.037  42.858   9.199
 2244POPC   GL231250  12.725  42.791   9.073
 2244POPC   C1A31251  13.064  43.045   8.766
 2244POPC   D2A31252  13.029  42.790   8.381
 2244POPC   C3A31253  13.007  42.988   7.998
 2244POPC   C4A31254  13.133  43.333   7.792
 2244POPC   C1B31255  12.579  42.915   8.659
 2244POPC   C2B31256  12.457  42.889   8.222
 2244POPC   C3B31257  12.547  43.008   7.801
 2244POPC   C4B31258  12.425  42.994   7.347
 2245POPC   NC331259  21.905  15.644   9.429
 2245POPC   PO431260  21.366  16.096   9.575
 2245POPC   GL131261  21.466  15.861   9.204
 2245POPC   GL231262  21.712  16.085   9.064
 2245POPC   C1A31263  21.245  15.659   8.840
 2245POPC   D2A31264  21.279  15.669   8.380
 2245POPC   C3A31265  21.122  15.932   7.994
 2245POPC   C4A31266  21.187  15.892   7.509
 2245POPC   C1B31267  21.641  15.975   8.630
 2245POPC   C2B31268  21.637  15.969   8.180
 2245POPC   C3B31269  21.601  16.046   7.766
 2245POPC   C4B31270  21.655  16.210   7.326
 2246POPC   NC331271  41.219  10.813   9.461
 2246POPC   PO431272  40.528  10.523   9.457
 2246POPC   GL131273  40.807  10.617   9.187
 2246POPC   GL231274  40.536  10.775   9.023
 2246POPC   C1A31275  41.013  10.606   8.815
 2246POPC   D2A31276  41.008  10.287   8.514
 2246POPC   C3A31277  40.988  10.440   8.122
 2246POPC   C4A31278  40.740  10.738   7.892
 2246POPC   C1B31279  40.548  10.479   8.669
 2246POPC   C2B31280  40.522  10.280   8.273
 2246POPC   C3B31281  40.462  10.301   7.829
 2246POPC   C4B31282  40.482  10.320   7.366
 2247POPC   NC331283  23.015   7.067   9.221
 2247POPC   PO431284  22.791   6.558   9.600
 2247POPC   GL131285  22.697   6.672   9.202
 2247POPC   GL231286  23.044   6.603   9.061
 2247POPC   C1A31287  22.644   6.619   8.759
 2247POPC   D2A31288  22.934   6.654   8.432
 2247POPC   C3A31289  22.882   6.869   8.078
 2247POPC   C4A31290  22.983   6.874   7.688
 2247POPC   C1B31291  23.357   6.689   8.731
 2247POPC   C2B31292  23.426   6.638   8.273
 2247POPC   C3B31293  23.151   6.439   7.959
 2247POPC   C4B31294  23.168   6.428   7.515
 2248POPC   NC331295  41.345  12.336   9.648
 2248POPC   PO431296  41.849  11.872   9.544
 2248POPC   GL131297  41.690  11.961   9.138
 2248POPC   GL231298  41.561  12.304   9.199
 2248POPC   C1A31299  41.353  11.976   8.806
 2248POPC   D2A31300  41.267  11.855   8.408
 2248POPC   C3A31301  41.681  11.830   8.175
 2248POPC   C4A31302  41.688  11.895   7.733
 2248POPC   C1B31303  41.683  12.382   8.804
 2248POPC   C2B31304  41.558  12.291   8.404
 2248POPC   C3B31305  41.374  12.208   8.017
 2248POPC   C4B31306  41.434  12.322   7.589
 2249POPC   NC331307  26.599   8.378   9.274
 2249POPC   PO431308  27.203   8.073   9.474
 2249POPC   GL131309  27.078   8.231   9.078
 2249POPC   GL231310  27.062   8.616   9.138
 2249POPC   C1A31311  26.969   7.995   8.677
 2249POPC   D2A31312  26.668   7.786   8.358
 2249POPC   C3A31313  26.754   8.027   7.983
 2249POPC   C4A31314  27.168   8.134   7.804
 2249POPC   C1B31315  26.867   8.553   8.723
 2249POPC   C2B31316  26.958   8.399   8.327
 2249POPC   C3B31317  26.881   8.534   7.940
 2249POPC   C4B31318  26.533   8.598   7.704
 2250POPC   NC331319  29.307  12.106   9.363
 2250POPC   PO431320  28.658  12.174   9.405
 2250POPC   GL131321  28.885  12.107   9.021
 2250POPC   GL231322  28.971  11.781   9.015
 2250POPC   C1A31323  29.205  12.185   8.671
 2250POPC   D2A31324  29.343  12.404   8.267
 2250POPC   C3A31325  29.300  12.168   7.865
 2250POPC   C4A31326  29.097  12.193   7.454
 2250POPC   C1B31327  29.069  11.695   8.614
 2250POPC   C2B31328  28.908  11.960   8.279
 2250POPC   C3B31329  28.809  11.994   7.861
 2250POPC   C4B31330  29.102  11.677   7.862
 2251POPC   NC331331  40.030  20.557   9.613
 2251POPC   PO431332  40.021  21.113   9.308
 2251POPC   GL131333  40.140  20.802   9.068
 2251POPC   GL231334  40.200  20.460   9.130
 2251POPC   C1A31335  40.171  20.749   8.659
 2251POPC   D2A31336  40.260  20.375   8.408
 2251POPC   C3A31337  40.158  20.526   8.005
 2251POPC   C4A31338  40.228  20.963   7.918
 2251POPC   C1B31339  39.896  20.350   8.771
 2251POPC   C2B31340  39.755  20.501   8.346
 2251POPC   C3B31341  39.681  20.362   7.905
 2251POPC   C4B31342  39.662  20.330   7.400
 2252POPC   NC331343  11.297  21.028   9.599
 2252POPC   PO431344  11.489  21.624   9.394
 2252POPC   GL131345  11.431  21.281   9.161
 2252POPC   GL231346  11.113  21.310   9.153
 2252POPC   C1A31347  11.404  21.174   8.746
 2252POPC   D2A31348  11.592  21.305   8.372
 2252POPC   C3A31349  11.376  21.344   8.024
 2252POPC   C4A31350  11.569  21.336   7.660
 2252POPC   C1B31351  10.949  21.459   8.780
 2252POPC   C2B31352  11.054  21.514   8.398
 2252POPC   C3B31353  10.974  21.713   8.036
 2252POPC   C4B31354  11.067  21.546   7.673
 2253POPC   NC331355   4.841  24.920   9.439
 2253POPC   PO431356   5.256  24.328   9.473
 2253POPC   GL131357   4.976  24.480   9.169
 2253POPC   GL231358   5.147  24.744   9.023
 2253POPC   C1A31359   4.739  24.372   8.798
 2253POPC   D2A31360   4.899  24.180   8.453
 2253POPC   C3A31361   4.965  24.380   8.099
 2253POPC   C4A31362   5.092  24.068   7.805
 2253POPC   C1B31363   5.064  24.689   8.561
 2253POPC   C2B31364   5.209  24.829   8.153
 2253POPC   C3B31365   5.483  24.927   7.812
 2253POPC   C4B31366   5.503  24.838   7.343
 2254POPC   NC331367  12.410  26.329   9.512
 2254POPC   PO431368  11.933  25.907   9.458
 2254POPC   GL131369  12.097  26.122   9.134
 2254POPC   GL231370  12.403  25.979   9.116
 2254POPC   C1A31371  11.961  26.063   8.720
 2254POPC   D2A31372  11.865  25.852   8.370
 2254POPC   C3A31373  11.964  26.088   8.022
 2254POPC   C4A31374  11.990  26.082   7.574
 2254POPC   C1B31375  12.462  26.221   8.758
 2254POPC   C2B31376  12.391  26.088   8.329
 2254POPC   C3B31377  12.437  26.146   7.875
 2254POPC   C4B31378  12.579  26.002   7.521
 2255POPC   NC331379  39.814  10.895   9.491
 2255POPC   PO431380  40.256  11.432   9.499
 2255POPC   GL131381  40.162  11.116   9.162
 2255POPC   GL231382  39.819  11.059   9.016
 2255POPC   C1A31383  40.220  11.042   8.730
 2255POPC   D2A31384  39.902  10.861   8.479
 2255POPC   C3A31385  39.831  11.129   8.123
 2255POPC   C4A31386  40.153  11.128   7.866
 2255POPC   C1B31387  39.982  11.496   8.863
 2255POPC   C2B31388  39.843  11.733   8.488
 2255POPC   C3B31389  39.782  11.661   8.030
 2255POPC   C4B31390  39.844  11.456   7.627
 2256POPC   NC331391  41.068   0.283   9.519
 2256POPC   PO431392  40.421   0.313   9.403
 2256POPC   GL131393  40.693   0.363   9.129
 2256POPC   GL231394  40.849   0.669   9.195
 2256POPC   C1A31395  40.760   0.276   8.718
 2256POPC   D2A31396  40.876   0.247   8.319
 2256POPC   C3A31397  40.586   0.232   7.979
 2256POPC   C4A31398  40.763   0.156   7.611
 2256POPC   C1B31399  40.600   0.748   8.797
 2256POPC   C2B31400  40.481   0.567   8.388
 2256POPC   C3B31401  40.625   0.729   8.010
 2256POPC   C4B31402  40.647   0.690   7.580
 2257POPC   NC331403  10.830   7.655   9.294
 2257POPC   PO431404  10.492   7.324   9.790
 2257POPC   GL131405  10.431   7.238   9.350
 2257POPC   GL231406  10.295   7.556   9.252
 2257POPC   C1A31407  10.525   7.242   8.886
 2257POPC   D2A31408  10.484   7.451   8.491
 2257POPC   C3A31409  10.618   7.215   8.160
 2257POPC   C4A31410  10.664   7.260   7.723
 2257POPC   C1B31411  10.212   7.748   8.834
 2257POPC   C2B31412  10.327   7.928   8.415
 2257POPC   C3B31413  10.203   7.745   8.022
 2257POPC   C4B31414  10.007   7.769   7.612
 2258POPC   NC331415  25.461   4.639   9.693
 2258POPC   PO431416  24.845   4.555   9.445
 2258POPC   GL131417  25.070   4.443   9.106
 2258POPC   GL231418  25.419   4.414   9.222
 2258POPC   C1A31419  24.986   4.303   8.683
 2258POPC   D2A31420  25.187   4.028   8.362
 2258POPC   C3A31421  25.040   4.117   7.968
 2258POPC   C4A31422  25.021   4.525   7.815
 2258POPC   C1B31423  25.511   4.297   8.804
 2258POPC   C2B31424  25.408   4.464   8.420
 2258POPC   C3B31425  25.492   4.418   8.029
 2258POPC   C4B31426  25.845   4.372   7.808
 2259POPC   NC331427  38.717  43.682   9.370
 2259POPC   PO431428  38.734  44.364   9.550
 2259POPC   GL131429  38.700  44.155   9.168
 2259POPC   GL231430  38.375  44.009   9.136
 2259POPC   C1A31431  38.687  43.909   8.764
 2259POPC   D2A31432  38.755  43.670   8.408
 2259POPC   C3A31433  38.472  43.832   8.089
 2259POPC   C4A31434  38.458  43.964   7.669
 2259POPC   C1B31435  38.146  43.882   8.754
 2259POPC   C2B31436  37.939  43.859   8.318
 2259POPC   C3B31437  37.985  43.741   7.845
 2259POPC   C4B31438  38.117  43.717   7.364
 2260POPC   NC331439  44.020  21.747   9.367
 2260POPC   PO431440  44.497  22.163   9.603
 2260POPC   GL131441  44.734  22.391   9.295
 2260POPC   GL231442  44.915  22.132   9.172
 2260POPC   C1A31443  44.845  22.486   8.825
 2260POPC   D2A31444  44.623  22.527   8.424
 2260POPC   C3A31445  44.631  22.226   8.066
 2260POPC   C4A31446  44.855  22.351   7.712
 2260POPC   C1B31447  44.505  22.100   8.923
 2260POPC   C2B31448  44.310  22.095   8.502
 2260POPC   C3B31449  44.241  21.889   8.106
 2260POPC   C4B31450  44.300  21.852   7.685
 2261POPC   NC331451  10.016  40.211   9.621
 2261POPC   PO431452   9.384  40.271   9.399
 2261POPC   GL131453   9.744  40.058   9.199
 2261POPC   GL231454   9.918  40.336   9.008
 2261POPC   C1A31455   9.857  39.875   8.793
 2261POPC   D2A31456   9.913  40.114   8.421
 2261POPC   C3A31457   9.922  39.929   8.018
 2261POPC   C4A31458   9.715  39.928   7.624
 2261POPC   C1B31459   9.564  40.329   8.776
 2261POPC   C2B31460   9.422  40.326   8.415
 2261POPC   C3B31461   9.475  40.216   8.037
 2261POPC   C4B31462   9.315  40.250   7.684
 2262POPC   NC331463  23.947  24.049   9.384
 2262POPC   PO431464  23.596  23.508   9.465
 2262POPC   GL131465  23.645  23.722   9.117
 2262POPC   GL231466  23.980  23.620   9.088
 2262POPC   C1A31467  23.712  23.972   8.759
 2262POPC   D2A31468  23.465  23.808   8.448
 2262POPC   C3A31469  23.579  23.887   8.056
 2262POPC   C4A31470  23.493  23.875   7.683
 2262POPC   C1B31471  23.821  23.474   8.676
 2262POPC   C2B31472  23.872  23.525   8.244
 2262POPC   C3B31473  24.087  23.858   7.993
 2262POPC   C4B31474  23.968  23.980   7.556
 2263POPC   NC331475  40.527  24.008   9.551
 2263POPC   PO431476  40.780  23.341   9.504
 2263POPC   GL131477  40.569  23.620   9.209
 2263POPC   GL231478  40.860  23.784   9.082
 2263POPC   C1A31479  40.368  23.854   8.856
 2263POPC   D2A31480  40.459  23.977   8.437
 2263POPC   C3A31481  40.609  23.677   8.144
 2263POPC   C4A31482  40.491  23.849   7.772
 2263POPC   C1B31483  41.032  23.430   8.828
 2263POPC   C2B31484  41.197  23.394   8.392
 2263POPC   C3B31485  41.080  23.402   7.971
 2263POPC   C4B31486  40.989  23.746   7.751
 2264POPC   NC331487  17.263  13.269   9.435
 2264POPC   PO431488  17.599  12.657   9.429
 2264POPC   GL131489  17.679  12.874   9.006
 2264POPC   GL231490  17.753  13.229   9.007
 2264POPC   C1A31491  17.644  12.869   8.526
 2264POPC   D2A31492  17.426  12.533   8.249
 2264POPC   C3A31493  17.676  12.455   7.899
 2264POPC   C4A31494  17.580  12.722   7.598
 2264POPC   C1B31495  17.396  13.272   8.792
 2264POPC   C2B31496  17.222  13.147   8.415
 2264POPC   C3B31497  17.422  13.011   8.053
 2264POPC   C4B31498  17.288  13.135   7.681
 2265POPC   NC331499  20.915  10.822   9.572
 2265POPC   PO431500  21.545  10.656   9.679
 2265POPC   GL131501  21.319  10.652   9.274
 2265POPC   GL231502  21.067  10.395   9.314
 2265POPC   C1A31503  21.476  10.622   8.844
 2265POPC   D2A31504  21.534  10.803   8.453
 2265POPC   C3A31505  21.458  10.604   8.094
 2265POPC   C4A31506  21.292  10.620   7.700
 2265POPC   C1B31507  21.025  10.398   8.880
 2265POPC   C2B31508  21.220  10.335   8.479
 2265POPC   C3B31509  21.042  10.321   8.064
 2265POPC   C4B31510  21.196  10.124   7.743
 2266POPC   NC331511  42.306  40.422   9.311
 2266POPC   PO431512  42.471  39.761   9.472
 2266POPC   GL131513  42.252  39.924   9.139
 2266POPC   GL231514  42.126  39.595   9.107
 2266POPC   C1A31515  42.326  40.140   8.709
 2266POPC   D2A31516  42.071  40.343   8.348
 2266POPC   C3A31517  42.186  40.156   7.951
 2266POPC   C4A31518  42.587  40.002   7.862
 2266POPC   C1B31519  42.507  39.632   8.798
 2266POPC   C2B31520  42.671  39.614   8.351
 2266POPC   C3B31521  42.574  39.438   7.927
 2266POPC   C4B31522  42.215  39.674   7.777
 2267POPC   NC331523   6.427  31.660   9.391
 2267POPC   PO431524   7.061  31.860   9.448
 2267POPC   GL131525   6.816  31.734   9.076
 2267POPC   GL231526   6.851  31.388   9.084
 2267POPC   C1A31527   6.463  31.505   8.786
 2267POPC   D2A31528   6.330  31.316   8.386
 2267POPC   C3A31529   6.501  31.463   7.987
 2267POPC   C4A31530   6.791  31.717   7.719
 2267POPC   C1B31531   6.964  31.538   8.634
 2267POPC   C2B31532   6.977  31.565   8.170
 2267POPC   C3B31533   7.094  31.319   7.765
 2267POPC   C4B31534   7.284  31.181   7.366
 2268POPC   NC331535  34.663   3.913   9.652
 2268POPC   PO431536  34.863   4.458   9.415
 2268POPC   GL131537  34.580   4.314   9.109
 2268POPC   GL231538  34.292   4.174   9.250
 2268POPC   C1A31539  34.637   4.361   8.656
 2268POPC   D2A31540  35.035   4.462   8.397
 2268POPC   C3A31541  34.918   4.636   8.004
 2268POPC   C4A31542  34.498   4.551   7.796
 2268POPC   C1B31543  34.283   4.028   8.808
 2268POPC   C2B31544  34.462   3.975   8.372
 2268POPC   C3B31545  34.473   4.037   7.905
 2268POPC   C4B31546  34.184   4.106   7.554
 2269POPC   NC331547  23.553  32.365   9.481
 2269POPC   PO431548  24.074  31.898   9.293
 2269POPC   GL131549  23.783  32.092   9.040
 2269POPC   GL231550  23.455  32.108   9.063
 2269POPC   C1A31551  23.666  32.002   8.611
 2269POPC   D2A31552  23.593  32.298   8.299
 2269POPC   C3A31553  23.496  32.097   7.973
 2269POPC   C4A31554  23.695  32.277   7.652
 2269POPC   C1B31555  23.452  32.458   8.753
 2269POPC   C2B31556  23.162  32.586   8.394
 2269POPC   C3B31557  23.250  32.562   7.975
 2269POPC   C4B31558  23.324  32.697   7.554
 2270POPC   NC331559  42.944  43.052   9.848
 2270POPC   PO431560  42.307  43.153   9.562
 2270POPC   GL131561  42.376  43.031   9.148
 2270POPC   GL231562  42.078  42.836   9.127
 2270POPC   C1A31563  42.361  43.268   8.763
 2270POPC   D2A31564  42.105  43.276   8.401
 2270POPC   C3A31565  42.300  43.405   8.056
 2270POPC   C4A31566  42.490  43.139   7.765
 2270POPC   C1B31567  42.074  42.858   8.700
 2270POPC   C2B31568  42.255  42.772   8.331
 2270POPC   C3B31569  42.144  42.847   7.943
 2270POPC   C4B31570  42.083  42.950   7.456
 2271POPC   NC331571  22.066  26.776   9.630
 2271POPC   PO431572  21.379  26.839   9.601
 2271POPC   GL131573  21.390  26.791   9.196
 2271POPC   GL231574  21.730  26.767   9.190
 2271POPC   C1A31575  21.237  26.920   8.814
 2271POPC   D2A31576  21.219  26.734   8.430
 2271POPC   C3A31577  21.010  26.998   8.158
 2271POPC   C4A31578  21.216  26.907   7.770
 2271POPC   C1B31579  21.866  26.910   8.787
 2271POPC   C2B31580  21.695  27.040   8.393
 2271POPC   C3B31581  21.729  26.925   7.968
 2271POPC   C4B31582  21.631  27.126   7.570
 2272POPC   NC331583  31.304  34.889   9.855
 2272POPC   PO431584  31.210  34.342   9.499
 2272POPC   GL131585  31.435  34.417   9.127
 2272POPC   GL231586  31.575  34.716   9.117
 2272POPC   C1A31587  31.639  34.325   8.731
 2272POPC   D2A31588  31.504  34.354   8.305
 2272POPC   C3A31589  31.547  34.337   7.866
 2272POPC   C4A31590  31.752  34.487   7.515
 2272POPC   C1B31591  31.353  34.745   8.734
 2272POPC   C2B31592  31.126  34.690   8.350
 2272POPC   C3B31593  31.336  34.794   7.968
 2272POPC   C4B31594  31.310  34.822   7.527
 2273POPC   NC331595  27.079  43.003   9.503
 2273POPC   PO431596  26.399  43.132   9.531
 2273POPC   GL131597  26.691  43.147   9.166
 2273POPC   GL231598  26.972  43.379   9.117
 2273POPC   C1A31599  26.918  42.992   8.804
 2273POPC   D2A31600  27.103  43.000   8.445
 2273POPC   C3A31601  26.904  42.951   8.066
 2273POPC   C4A31602  27.124  42.841   7.721
 2273POPC   C1B31603  26.924  43.485   8.690
 2273POPC   C2B31604  26.840  43.427   8.285
 2273POPC   C3B31605  26.697  43.389   7.896
 2273POPC   C4B31606  26.944  43.495   7.624
 2274POPC   NC331607  21.424  14.159   9.715
 2274POPC   PO431608  22.202  14.303   9.549
 2274POPC   GL131609  22.225  14.389   9.146
 2274POPC   GL231610  21.885  14.540   9.116
 2274POPC   C1A31611  22.503  14.525   8.798
 2274POPC   D2A31612  22.412  14.568   8.348
 2274POPC   C3A31613  22.530  14.359   7.969
 2274POPC   C4A31614  22.282  14.455   7.587
 2274POPC   C1B31615  22.014  14.499   8.702
 2274POPC   C2B31616  21.989  14.227   8.403
 2274POPC   C3B31617  22.023  14.304   8.018
 2274POPC   C4B31618  21.831  14.212   7.642
 2275POPC   NC331619  32.049  21.175   9.544
 2275POPC   PO431620  32.681  21.427   9.511
 2275POPC   GL131621  32.417  21.316   9.220
 2275POPC   GL231622  32.480  20.964   9.255
 2275POPC   C1A31623  32.278  21.342   8.824
 2275POPC   D2A31624  32.459  21.229   8.430
 2275POPC   C3A31625  32.329  21.491   8.099
 2275POPC   C4A31626  32.111  21.432   7.707
 2275POPC   C1B31627  32.394  20.849   8.831
 2275POPC   C2B31628  32.276  20.749   8.435
 2275POPC   C3B31629  32.461  20.829   8.076
 2275POPC   C4B31630  32.261  20.914   7.722
 2276POPC   NC331631   8.376   5.472   9.389
 2276POPC   PO431632   7.912   4.901   9.466
 2276POPC   GL131633   8.154   5.060   9.128
 2276POPC   GL231634   7.970   5.347   9.100
 2276POPC   C1A31635   8.467   5.101   8.810
 2276POPC   D2A31636   8.295   5.061   8.403
 2276POPC   C3A31637   8.366   5.249   8.043
 2276POPC   C4A31638   8.380   5.145   7.639
 2276POPC   C1B31639   7.846   5.299   8.694
 2276POPC   C2B31640   7.959   5.423   8.280
 2276POPC   C3B31641   7.854   5.111   7.994
 2276POPC   C4B31642   7.534   5.279   7.759
 2277POPC   NC331643  24.205  13.378   9.462
 2277POPC   PO431644  24.679  13.819   9.698
 2277POPC   GL131645  24.512  13.711   9.240
 2277POPC   GL231646  24.593  13.363   9.126
 2277POPC   C1A31647  24.535  13.775   8.777
 2277POPC   D2A31648  24.575  13.950   8.371
 2277POPC   C3A31649  24.711  13.659   8.064
 2277POPC   C4A31650  24.695  13.706   7.652
 2277POPC   C1B31651  24.312  13.320   8.745
 2277POPC   C2B31652  24.297  13.528   8.329
 2277POPC   C3B31653  24.212  13.580   7.857
 2277POPC   C4B31654  24.341  13.465   7.385
 2278POPC   NC331655  24.138  16.605   9.663
 2278POPC   PO431656  24.827  16.597   9.529
 2278POPC   GL131657  24.546  16.797   9.233
 2278POPC   GL231658  24.214  16.733   9.186
 2278POPC   C1A31659  24.612  16.882   8.807
 2278POPC   D2A31660  24.718  16.656   8.462
 2278POPC   C3A31661  24.582  16.889   8.131
 2278POPC   C4A31662  24.714  16.847   7.709
 2278POPC   C1B31663  24.158  17.070   8.908
 2278POPC   C2B31664  24.092  17.000   8.454
 2278POPC   C3B31665  24.023  17.210   8.054
 2278POPC   C4B31666  24.375  17.211   7.788
 2279POPC   NC331667  32.511   3.964   9.579
 2279POPC   PO431668  32.102   3.376   9.423
 2279POPC   GL131669  32.289   3.693   9.148
 2279POPC   GL231670  32.033   3.938   8.993
 2279POPC   C1A31671  32.404   3.728   8.713
 2279POPC   D2A31672  32.217   3.577   8.345
 2279POPC   C3A31673  32.421   3.744   8.019
 2279POPC   C4A31674  32.368   3.588   7.638
 2279POPC   C1B31675  31.921   3.548   8.773
 2279POPC   C2B31676  31.736   3.342   8.427
 2279POPC   C3B31677  31.885   3.392   8.003
 2279POPC   C4B31678  32.024   3.141   7.683
 2280POPC   NC331679  38.184  43.291   9.434
 2280POPC   PO431680  37.616  43.024   9.424
 2280POPC   GL131681  37.673  43.261   9.098
 2280POPC   GL231682  37.988  43.294   8.984
 2280POPC   C1A31683  37.564  43.166   8.713
 2280POPC   D2A31684  37.611  42.924   8.408
 2280POPC   C3A31685  37.516  43.118   8.072
 2280POPC   C4A31686  37.522  42.983   7.701
 2280POPC   C1B31687  38.091  43.310   8.600
 2280POPC   C2B31688  37.942  43.349   8.224
 2280POPC   C3B31689  37.988  43.160   7.848
 2280POPC   C4B31690  37.839  43.343   7.511
 2281POPC   NC331691  41.890  36.223   9.724
 2281POPC   PO431692  41.415  35.787   9.452
 2281POPC   GL131693  41.680  35.809   9.096
 2281POPC   GL231694  41.765  36.145   9.209
 2281POPC   C1A31695  41.571  35.816   8.639
 2281POPC   D2A31696  41.192  35.875   8.360
 2281POPC   C3A31697  41.300  36.035   7.965
 2281POPC   C4A31698  41.713  36.075   7.885
 2281POPC   C1B31699  41.573  36.296   8.821
 2281POPC   C2B31700  41.575  36.291   8.358
 2281POPC   C3B31701  41.504  36.539   7.970
 2281POPC   C4B31702  41.338  36.430   7.576
 2282POPC   NC331703  12.233  13.997   9.582
 2282POPC   PO431704  12.342  13.285   9.665
 2282POPC   GL131705  12.398  13.447   9.195
 2282POPC   GL231706  12.172  13.720   9.140
 2282POPC   C1A31707  12.397  13.579   8.711
 2282POPC   D2A31708  12.116  13.611   8.366
 2282POPC   C3A31709  12.264  13.534   7.940
 2282POPC   C4A31710  12.218  13.795   7.548
 2282POPC   C1B31711  11.960  13.375   8.869
 2282POPC   C2B31712  11.737  13.267   8.474
 2282POPC   C3B31713  11.689  13.520   8.082
 2282POPC   C4B31714  11.802  13.523   7.656
 2283POPC   NC331715  38.042  14.943   9.381
 2283POPC   PO431716  37.439  14.905   9.658
 2283POPC   GL131717  37.683  15.248   9.236
 2283POPC   GL231718  38.020  15.312   9.018
 2283POPC   C1A31719  37.610  15.321   8.756
 2283POPC   D2A31720  37.894  15.347   8.411
 2283POPC   C3A31721  37.703  15.322   8.004
 2283POPC   C4A31722  37.860  15.246   7.598
 2283POPC   C1B31723  37.968  14.925   8.728
 2283POPC   C2B31724  37.863  14.812   8.285
 2283POPC   C3B31725  38.107  14.898   7.909
 2283POPC   C4B31726  38.135  14.837   7.472
 2284POPC   NC331727  19.118  19.358   9.421
 2284POPC   PO431728  19.421  18.896   9.701
 2284POPC   GL131729  19.277  18.886   9.265
 2284POPC   GL231730  19.307  18.574   9.178
 2284POPC   C1A31731  19.160  19.001   8.774
 2284POPC   D2A31732  19.048  19.292   8.391
 2284POPC   C3A31733  18.786  19.173   8.031
 2284POPC   C4A31734  18.751  19.147   7.593
 2284POPC   C1B31735  19.369  18.520   8.757
 2284POPC   C2B31736  19.339  18.617   8.358
 2284POPC   C3B31737  19.219  18.910   8.075
 2284POPC   C4B31738  19.116  18.800   7.669
 2285POPC   NC331739  35.806  18.392   9.618
 2285POPC   PO431740  36.418  18.143   9.489
 2285POPC   GL131741  36.133  18.175   9.148
 2285POPC   GL231742  36.229  18.475   9.095
 2285POPC   C1A31743  36.170  17.938   8.768
 2285POPC   D2A31744  36.354  17.929   8.362
 2285POPC   C3A31745  36.180  18.121   8.031
 2285POPC   C4A31746  36.301  18.123   7.621
 2285POPC   C1B31747  36.212  18.417   8.660
 2285POPC   C2B31748  36.387  18.504   8.292
 2285POPC   C3B31749  36.178  18.593   7.871
 2285POPC   C4B31750  35.912  18.427   7.552
 2286POPC   NC331751   7.596  20.681   9.483
 2286POPC   PO431752   7.017  20.935   9.222
 2286POPC   GL131753   7.331  20.684   9.058
 2286POPC   GL231754   7.522  21.009   9.030
 2286POPC   C1A31755   7.618  20.523   8.753
 2286POPC   D2A31756   7.694  20.650   8.329
 2286POPC   C3A31757   7.342  20.529   8.109
 2286POPC   C4A31758   7.235  20.365   7.741
 2286POPC   C1B31759   7.315  20.919   8.611
 2286POPC   C2B31760   7.192  21.014   8.202
 2286POPC   C3B31761   7.479  20.935   7.841
 2286POPC   C4B31762   7.422  20.717   7.433
 2287POPC   NC331763  39.126  25.841   9.533
 2287POPC   PO431764  39.491  26.272   9.284
 2287POPC   GL131765  39.246  26.162   8.999
 2287POPC   GL231766  38.990  25.943   9.058
 2287POPC   C1A31767  39.169  26.293   8.627
 2287POPC   D2A31768  39.404  26.331   8.271
 2287POPC   C3A31769  39.215  26.238   7.899
 2287POPC   C4A31770  39.567  26.217   7.661
 2287POPC   C1B31771  39.149  25.776   8.688
 2287POPC   C2B31772  39.138  25.886   8.269
 2287POPC   C3B31773  39.317  25.739   7.887
 2287POPC   C4B31774  39.015  25.677   7.580
 2288POPC   NC331775  34.971  43.456   9.352
 2288POPC   PO431776  34.433  43.352   9.671
 2288POPC   GL131777  34.509  43.243   9.224
 2288POPC   GL231778  34.292  42.971   9.088
 2288POPC   C1A31779  34.529  43.313   8.775
 2288POPC   D2A31780  34.476  43.059   8.407
 2288POPC   C3A31781  34.639  43.188   8.023
 2288POPC   C4A31782  34.382  43.226   7.678
 2288POPC   C1B31783  34.647  42.804   8.832
 2288POPC   C2B31784  34.784  42.619   8.418
 2288POPC   C3B31785  34.717  42.668   8.005
 2288POPC   C4B31786  35.012  42.879   7.823
 2289POPC   NC331787  37.905  16.733   9.532
 2289POPC   PO431788  37.223  16.787   9.348
 2289POPC   GL131789  37.567  16.635   9.156
 2289POPC   GL231790  37.769  16.939   9.084
 2289POPC   C1A31791  37.621  16.473   8.758
 2289POPC   D2A31792  37.563  16.221   8.403
 2289POPC   C3A31793  37.668  16.475   8.009
 2289POPC   C4A31794  37.414  16.520   7.617
 2289POPC   C1B31795  38.045  16.793   8.757
 2289POPC   C2B31796  38.021  16.819   8.326
 2289POPC   C3B31797  38.049  16.869   7.933
 2289POPC   C4B31798  37.741  16.916   7.635
 2290POPC   NC331799  13.572  37.389   9.506
 2290POPC   PO431800  14.145  37.779   9.492
 2290POPC   GL131801  13.822  37.658   9.133
 2290POPC   GL231802  13.437  37.591   9.067
 2290POPC   C1A31803  13.751  37.788   8.704
 2290POPC   D2A31804  13.635  37.621   8.304
 2290POPC   C3A31805  13.366  37.775   8.025
 2290POPC   C4A31806  13.575  37.895   7.649
 2290POPC   C1B31807  13.463  37.358   8.701
 2290POPC   C2B31808  13.255  37.247   8.319
 2290POPC   C3B31809  13.349  37.263   7.871
 2290POPC   C4B31810  13.159  37.575   7.575
 2291POPC   NC331811  36.663  33.343   9.469
 2291POPC   PO431812  37.265  32.970   9.511
 2291POPC   GL131813  36.896  32.865   9.247
 2291POPC   GL231814  36.894  33.157   9.067
 2291POPC   C1A31815  36.684  32.718   8.863
 2291POPC   D2A31816  36.842  32.906   8.501
 2291POPC   C3A31817  36.841  32.734   8.105
 2291POPC   C4A31818  36.738  32.905   7.668
 2291POPC   C1B31819  36.931  33.451   8.754
 2291POPC   C2B31820  36.800  33.413   8.380
 2291POPC   C3B31821  36.772  33.245   8.034
 2291POPC   C4B31822  36.915  33.393   7.646
 2292POPC   NC331823  42.176   1.288   9.627
 2292POPC   PO431824  42.594   0.842   9.441
 2292POPC   GL131825  42.418   1.079   9.117
 2292POPC   GL231826  42.561   1.374   9.104
 2292POPC   C1A31827  42.349   0.926   8.675
 2292POPC   D2A31828  42.446   1.135   8.295
 2292POPC   C3A31829  42.380   0.958   7.899
 2292POPC   C4A31830  42.549   1.293   7.705
 2292POPC   C1B31831  42.392   1.460   8.734
 2292POPC   C2B31832  42.260   1.621   8.384
 2292POPC   C3B31833  42.207   1.527   8.004
 2292POPC   C4B31834  42.317   1.767   7.686
 2293POPC   NC331835   3.893  13.019   9.322
 2293POPC   PO431836   4.521  12.638   9.425
 2293POPC   GL131837   4.356  12.876   9.080
 2293POPC   GL231838   4.499  13.219   9.154
 2293POPC   C1A31839   4.071  12.912   8.679
 2293POPC   D2A31840   4.243  12.840   8.258
 2293POPC   C3A31841   4.026  12.895   7.872
 2293POPC   C4A31842   4.168  12.860   7.455
 2293POPC   C1B31843   4.439  13.247   8.730
 2293POPC   C2B31844   4.624  13.261   8.332
 2293POPC   C3B31845   4.429  13.220   7.959
 2293POPC   C4B31846   4.288  13.382   7.597
 2294POPC   NC331847  44.601  20.165   9.586
 2294POPC   PO431848  44.898  19.567   9.447
 2294POPC   GL131849  44.688  19.806   9.128
 2294POPC   GL231850  44.976  19.616   8.963
 2294POPC   C1A31851  44.543  20.089   8.764
 2294POPC   D2A31852  44.457  19.932   8.318
 2294POPC   C3A31853  44.434  20.162   7.950
 2294POPC   C4A31854  44.503  20.036   7.516
 2294POPC   C1B31855  44.817  19.682   8.623
 2294POPC   C2B31856  44.953  19.770   8.268
 2294POPC   C3B31857  44.815  19.826   7.885
 2294POPC   C4B31858  44.942  19.589   7.567
 2295POPC   NC331859  22.708  19.406   9.521
 2295POPC   PO431860  22.802  18.818   9.550
 2295POPC   GL131861  22.886  19.058   9.177
 2295POPC   GL231862  22.907  18.749   9.044
 2295POPC   C1A31863  22.865  19.117   8.706
 2295POPC   D2A31864  22.480  19.103   8.442
 2295POPC   C3A31865  22.601  19.065   8.008
 2295POPC   C4A31866  22.992  19.038   7.785
 2295POPC   C1B31867  22.681  18.643   8.657
 2295POPC   C2B31868  22.910  18.720   8.260
 2295POPC   C3B31869  23.158  18.557   7.895
 2295POPC   C4B31870  23.172  18.610   7.448
 2296POPC   NC331871   3.555  15.319   9.635
 2296POPC   PO431872   3.089  14.854   9.507
 2296POPC   GL131873   3.520  14.924   9.236
 2296POPC   GL231874   3.651  15.273   9.156
 2296POPC   C1A31875   3.527  15.028   8.745
 2296POPC   D2A31876   3.281  15.114   8.394
 2296POPC   C3A31877   3.382  15.219   7.975
 2296POPC   C4A31878   3.581  14.984   7.659
 2296POPC   C1B31879   3.876  15.402   8.800
 2296POPC   C2B31880   3.989  15.134   8.481
 2296POPC   C3B31881   3.882  15.079   8.062
 2296POPC   C4B31882   3.951  15.333   7.707
 2297POPC   NC331883  11.162  12.476   9.456
 2297POPC   PO431884  11.629  11.936   9.460
 2297POPC   GL131885  11.355  12.099   9.125
 2297POPC   GL231886  11.507  11.841   8.936
 2297POPC   C1A31887  11.064  12.016   8.755
 2297POPC   D2A31888  11.073  11.768   8.372
 2297POPC   C3A31889  11.087  12.006   7.989
 2297POPC   C4A31890  11.274  12.322   7.721
 2297POPC   C1B31891  11.808  11.762   8.613
 2297POPC   C2B31892  11.795  11.790   8.162
 2297POPC   C3B31893  11.520  11.812   7.778
 2297POPC   C4B31894  11.581  12.021   7.349
 2298POPC   NC331895   5.150  41.746   9.568
 2298POPC   PO431896   4.661  41.352   9.700
 2298POPC   GL131897   5.072  41.336   9.255
 2298POPC   GL231898   5.327  41.537   9.089
 2298POPC   C1A31899   5.011  41.436   8.727
 2298POPC   D2A31900   5.106  41.636   8.319
 2298POPC   C3A31901   4.752  41.797   8.092
 2298POPC   C4A31902   4.658  41.541   7.750
 2298POPC   C1B31903   5.409  41.139   8.876
 2298POPC   C2B31904   5.339  41.179   8.441
 2298POPC   C3B31905   5.232  41.223   8.009
 2298POPC   C4B31906   5.150  41.638   7.795
 2299POPC   NC331907  30.969  26.726   9.584
 2299POPC   PO431908  30.346  27.015   9.578
 2299POPC   GL131909  30.528  26.740   9.262
 2299POPC   GL231910  30.320  26.448   9.211
 2299POPC   C1A31911  30.733  26.797   8.868
 2299POPC   D2A31912  30.577  26.834   8.444
 2299POPC   C3A31913  30.819  27.055   8.127
 2299POPC   C4A31914  30.719  26.980   7.711
 2299POPC   C1B31915  30.389  26.440   8.761
 2299POPC   C2B31916  30.622  26.336   8.371
 2299POPC   C3B31917  30.664  26.559   7.998
 2299POPC   C4B31918  30.414  26.590   7.616
 2300POPC   NC331919  43.406  34.295   9.540
 2300POPC   PO431920  43.235  33.676   9.548
 2300POPC   GL131921  43.455  33.800   9.175
 2300POPC   GL231922  43.200  34.006   9.115
 2300POPC   C1A31923  43.403  33.601   8.752
 2300POPC   D2A31924  43.210  33.540   8.353
 2300POPC   C3A31925  43.365  33.725   7.925
 2300POPC   C4A31926  43.365  33.576   7.446
 2300POPC   C1B31927  42.952  33.885   8.760
 2300POPC   C2B31928  42.724  33.760   8.400
 2300POPC   C3B31929  42.863  33.666   8.004
 2300POPC   C4B31930  42.935  33.795   7.617
 2301POPC   NC331931  24.398  21.026   9.612
 2301POPC   PO431932  24.853  21.414   9.327
 2301POPC   GL131933  24.515  21.580   9.070
 2301POPC   GL231934  24.314  21.263   9.060
 2301POPC   C1A31935  24.687  21.841   8.697
 2301POPC   D2A31936  24.882  21.849   8.294
 2301POPC   C3A31937  24.641  21.554   8.060
 2301POPC   C4A31938  24.294  21.344   7.863
 2301POPC   C1B31939  24.638  21.293   8.680
 2301POPC   C2B31940  24.762  21.073   8.287
 2301POPC   C3B31941  24.544  20.868   7.937
 2301POPC   C4B31942  24.491  20.995   7.484
 2302POPC   NC331943  16.607  41.876   9.524
 2302POPC   PO431944  17.084  41.487   9.532
 2302POPC   GL131945  16.864  41.343   9.193
 2302POPC   GL231946  16.572  41.539   9.123
 2302POPC   C1A31947  16.942  41.356   8.753
 2302POPC   D2A31948  16.744  41.528   8.412
 2302POPC   C3A31949  16.911  41.426   8.022
 2302POPC   C4A31950  16.885  41.678   7.690
 2302POPC   C1B31951  16.358  41.608   8.736
 2302POPC   C2B31952  16.215  41.739   8.358
 2302POPC   C3B31953  16.398  41.579   7.996
 2302POPC   C4B31954  16.538  41.299   7.671
 2303POPC   NC331955   2.324  32.471   9.417
 2303POPC   PO431956   2.476  33.074   9.526
 2303POPC   GL131957   2.572  32.932   9.151
 2303POPC   GL231958   2.893  33.006   9.105
 2303POPC   C1A31959   2.441  32.844   8.736
 2303POPC   D2A31960   2.485  32.702   8.317
 2303POPC   C3A31961   2.420  33.024   8.004
 2303POPC   C4A31962   2.510  32.754   7.668
 2303POPC   C1B31963   2.754  33.251   8.786
 2303POPC   C2B31964   2.763  33.124   8.380
 2303POPC   C3B31965   2.878  33.244   7.984
 2303POPC   C4B31966   3.065  33.086   7.630
 2304POPC   NC331967   5.976  18.681   9.459
 2304POPC   PO431968   5.627  18.168   9.504
 2304POPC   GL131969   5.639  18.464   9.145
 2304POPC   GL231970   5.848  18.195   9.019
 2304POPC   C1A31971   5.734  18.533   8.683
 2304POPC   D2A31972   5.787  18.190   8.425
 2304POPC   C3A31973   5.992  18.297   8.045
 2304POPC   C4A31974   5.783  18.450   7.719
 2304POPC   C1B31975   5.411  18.125   8.835
 2304POPC   C2B31976   5.276  18.082   8.419
 2304POPC   C3B31977   5.498  18.088   8.005
 2304POPC   C4B31978   5.807  17.929   7.710
 2305POPC   NC331979  30.878  14.635   9.497
 2305POPC   PO431980  30.694  13.988   9.649
 2305POPC   GL131981  30.867  14.204   9.225
 2305POPC   GL231982  30.677  14.540   9.056
 2305POPC   C1A31983  31.055  14.311   8.826
 2305POPC   D2A31984  31.107  14.638   8.543
 2305POPC   C3A31985  30.854  14.675   8.172
 2305POPC   C4A31986  30.899  14.552   7.757
 2305POPC   C1B31987  30.608  14.491   8.614
 2305POPC   C2B31988  30.347  14.645   8.295
 2305POPC   C3B31989  30.380  14.444   7.891
 2305POPC   C4B31990  30.251  14.562   7.487
 2306POPC   NC331991  23.153   1.624   9.568
 2306POPC   PO431992  22.756   2.114   9.793
 2306POPC   GL131993  22.805   2.048   9.329
 2306POPC   GL231994  22.596   1.756   9.348
 2306POPC   C1A31995  22.982   2.087   8.889
 2306POPC   D2A31996  23.144   1.845   8.532
 2306POPC   C3A31997  22.960   1.847   8.101
 2306POPC   C4A31998  23.062   2.115   7.755
 2306POPC   C1B31999  22.592   1.757   8.874
 2306POPC   C2B32000  22.619   2.002   8.483
 2306POPC   C3B32001  22.427   1.907   8.062
 2306POPC   C4B32002  22.624   1.877   7.655
 2307POPC   NC332003   2.684  14.952   9.309
 2307POPC   PO432004   2.679  14.411   9.682
 2307POPC   GL132005   2.866  14.497   9.179
 2307POPC   GL232006   2.572  14.552   9.031
 2307POPC   C1A32007   2.838  14.248   8.740
 2307POPC   D2A32008   3.013  14.099   8.347
 2307POPC   C3A32009   2.853  14.254   7.948
 2307POPC   C4A32010   3.059  14.299   7.525
 2307POPC   C1B32011   2.422  14.739   8.701
 2307POPC   C2B32012   2.595  14.547   8.373
 2307POPC   C3B32013   2.505  14.648   8.006
 2307POPC   C4B32014   2.723  14.665   7.674
 2308POPC   NC332015   9.150   6.792   9.568
 2308POPC   PO432016   8.978   6.186   9.685
 2308POPC   GL132017   9.123   6.387   9.286
 2308POPC   GL232018   8.923   6.611   9.101
 2308POPC   C1A32019   9.332   6.445   8.884
 2308POPC   D2A32020   9.267   6.567   8.461
 2308POPC   C3A32021   9.084   6.377   8.109
 2308POPC   C4A32022   9.286   6.368   7.701
 2308POPC   C1B32023   8.798   6.519   8.666
 2308POPC   C2B32024   8.835   6.834   8.327
 2308POPC   C3B32025   8.888   6.846   7.887
 2308POPC   C4B32026   8.659   6.693   7.525
 2309POPC   NC332027  36.558  23.718   9.443
 2309POPC   PO432028  37.167  23.365   9.564
 2309POPC   GL132029  36.921  23.373   9.205
 2309POPC   GL232030  37.011  23.737   9.186
 2309POPC   C1A32031  36.844  23.499   8.773
 2309POPC   D2A32032  36.765  23.732   8.401
 2309POPC   C3A32033  36.794  23.571   7.946
 2309POPC   C4A32034  36.882  23.486   7.489
 2309POPC   C1B32035  37.187  23.881   8.773
 2309POPC   C2B32036  37.286  23.810   8.335
 2309POPC   C3B32037  37.256  23.793   7.890
 2309POPC   C4B32038  37.318  24.206   7.708
 2310POPC   NC332039   2.088  33.307   9.485
 2310POPC   PO432040   1.823  32.669   9.408
 2310POPC   GL132041   2.070  32.812   9.107
 2310POPC   GL232042   2.115  33.157   9.004
 2310POPC   C1A32043   1.887  32.798   8.719
 2310POPC   D2A32044   2.044  32.962   8.365
 2310POPC   C3A32045   2.066  32.677   7.995
 2310POPC   C4A32046   1.886  32.747   7.608
 2310POPC   C1B32047   1.814  33.360   8.716
 2310POPC   C2B32048   1.727  33.435   8.276
 2310POPC   C3B32049   1.851  33.157   7.941
 2310POPC   C4B32050   2.055  33.234   7.535
 2311POPC   NC332051   5.772  39.746   9.381
 2311POPC   PO432052   6.010  39.083   9.556
 2311POPC   GL132053   5.949  39.081   9.133
 2311POPC   GL232054   5.739  39.318   9.119
 2311POPC   C1A32055   6.098  39.264   8.739
 2311POPC   D2A32056   6.053  39.512   8.339
 2311POPC   C3A32057   5.848  39.320   7.994
 2311POPC   C4A32058   6.063  39.362   7.611
 2311POPC   C1B32059   5.680  39.565   8.767
 2311POPC   C2B32060   5.563  39.537   8.402
 2311POPC   C3B32061   5.442  39.633   8.026
 2311POPC   C4B32062   5.568  39.552   7.612
 2312POPC   NC332063  28.865  30.477   9.387
 2312POPC   PO432064  29.265  29.848   9.425
 2312POPC   GL132065  29.173  30.148   9.128
 2312POPC   GL232066  28.837  30.053   9.101
 2312POPC   C1A32067  29.065  30.185   8.677
 2312POPC   D2A32068  29.065  29.905   8.349
 2312POPC   C3A32069  29.120  30.156   8.048
 2312POPC   C4A32070  29.309  30.169   7.715
 2312POPC   C1B32071  29.035  29.699   8.819
 2312POPC   C2B32072  28.837  29.452   8.453
 2312POPC   C3B32073  28.897  29.517   8.017
 2312POPC   C4B32074  28.985  29.790   7.679
 2313POPC   NC332075   1.007  30.263   9.454
 2313POPC   PO432076   1.475  30.735   9.392
 2313POPC   GL132077   1.164  30.635   9.123
 2313POPC   GL232078   0.990  30.996   9.094
 2313POPC   C1A32079   1.190  30.369   8.749
 2313POPC   D2A32080   1.096  30.515   8.348
 2313POPC   C3A32081   1.292  30.377   7.998
 2313POPC   C4A32082   1.147  30.489   7.634
 2313POPC   C1B32083   1.270  30.919   8.720
 2313POPC   C2B32084   1.538  30.778   8.374
 2313POPC   C3B32085   1.449  30.880   7.959
 2313POPC   C4B32086   1.451  30.879   7.521
 2314POPC   NC332087  38.436  21.239   9.466
 2314POPC   PO432088  38.585  21.807   9.725
 2314POPC   GL132089  38.692  21.611   9.197
 2314POPC   GL232090  38.575  21.310   8.998
 2314POPC   C1A32091  38.526  21.739   8.734
 2314POPC   D2A32092  38.332  21.781   8.327
 2314POPC   C3A32093  38.531  21.538   8.018
 2314POPC   C4A32094  38.393  21.368   7.603
 2314POPC   C1B32095  38.337  21.063   8.698
 2314POPC   C2B32096  38.332  21.098   8.238
 2314POPC   C3B32097  38.650  21.046   7.904
 2314POPC   C4B32098  38.713  21.018   7.422
 2315POPC   NC332099  10.261  22.599   9.375
 2315POPC   PO432100  10.729  23.043   9.476
 2315POPC   GL132101  10.612  22.938   9.105
 2315POPC   GL232102  10.287  23.081   9.128
 2315POPC   C1A32103  10.778  22.905   8.696
 2315POPC   D2A32104  10.788  23.208   8.378
 2315POPC   C3A32105  10.725  22.947   8.009
 2315POPC   C4A32106  10.623  22.816   7.601
 2315POPC   C1B32107  10.274  22.888   8.714
 2315POPC   C2B32108  10.310  22.993   8.295
 2315POPC   C3B32109  10.255  23.110   7.866
 2315POPC   C4B32110  10.164  22.994   7.426
 2316POPC   NC332111  39.613  39.970   9.491
 2316POPC   PO432112  40.122  40.341   9.726
 2316POPC   GL132113  40.047  39.968   9.255
 2316POPC   GL232114  40.245  39.637   9.197
 2316POPC   C1A32115  40.014  40.048   8.769
 2316POPC   D2A32116  39.822  40.232   8.380
 2316POPC   C3A32117  39.995  40.045   8.012
 2316POPC   C4A32118  39.894  40.077   7.633
 2316POPC   C1B32119  40.135  39.533   8.775
 2316POPC   C2B32120  39.968  39.702   8.387
 2316POPC   C3B32121  39.996  39.528   7.976
 2316POPC   C4B32122  40.262  39.669   7.633
 2317POPC   NC332123  23.498  14.084   9.428
 2317POPC   PO432124  23.935  14.634   9.435
 2317POPC   GL132125  23.642  14.495   9.114
 2317POPC   GL232126  23.470  14.767   8.951
 2317POPC   C1A32127  23.379  14.267   8.805
 2317POPC   D2A32128  23.365  14.186   8.388
 2317POPC   C3A32129  23.565  14.510   8.125
 2317POPC   C4A32130  23.474  14.697   7.724
 2317POPC   C1B32131  23.773  14.577   8.627
 2317POPC   C2B32132  24.085  14.516   8.287
 2317POPC   C3B32133  23.986  14.387   7.865
 2317POPC   C4B32134  24.025  14.368   7.438
 2318POPC   NC332135  43.676  20.916   9.487
 2318POPC   PO432136  43.608  21.609   9.564
 2318POPC   GL132137  43.774  21.334   9.200
 2318POPC   GL232138  44.126  21.239   9.116
 2318POPC   C1A32139  43.824  21.416   8.738
 2318POPC   D2A32140  43.831  21.191   8.337
 2318POPC   C3A32141  43.920  21.494   8.032
 2318POPC   C4A32142  43.828  21.700   7.657
 2318POPC   C1B32143  44.080  20.973   8.740
 2318POPC   C2B32144  44.285  20.953   8.364
 2318POPC   C3B32145  44.201  21.069   7.939
 2318POPC   C4B32146  44.187  21.365   7.599
 2319POPC   NC332147   0.623  21.680   9.429
 2319POPC   PO432148   0.100  21.307   9.523
 2319POPC   GL132149   0.240  21.473   9.162
 2319POPC   GL232150   0.558  21.258   9.153
 2319POPC   C1A32151   0.376  21.525   8.734
 2319POPC   D2A32152   0.563  21.357   8.340
 2319POPC   C3A32153   0.357  21.489   7.961
 2319POPC   C4A32154   0.399  21.542   7.509
 2319POPC   C1B32155   0.740  21.112   8.767
 2319POPC   C2B32156   0.985  21.069   8.370
 2319POPC   C3B32157   0.857  21.122   7.952
 2319POPC   C4B32158   0.474  21.053   7.681
 2320POPC   NC332159  28.263  36.767   9.704
 2320POPC   PO432160  28.816  37.039   9.405
 2320POPC   GL132161  28.627  36.849   9.102
 2320POPC   GL232162  28.261  36.817   9.187
 2320POPC   C1A32163  28.691  36.994   8.681
 2320POPC   D2A32164  28.804  36.744   8.365
 2320POPC   C3A32165  28.673  36.908   7.973
 2320POPC   C4A32166  28.238  37.016   7.860
 2320POPC   C1B32167  28.275  36.705   8.741
 2320POPC   C2B32168  28.288  36.749   8.314
 2320POPC   C3B32169  28.201  36.512   7.963
 2320POPC   C4B32170  28.112  36.619   7.536
 2321POPC   NC332171  40.396   8.419   9.608
 2321POPC   PO432172  40.887   8.048   9.549
 2321POPC   GL132173  40.720   8.197   9.206
 2321POPC   GL232174  40.793   8.509   9.178
 2321POPC   C1A32175  40.606   8.271   8.782
 2321POPC   D2A32176  40.416   8.298   8.414
 2321POPC   C3A32177  40.634   8.165   8.063
 2321POPC   C4A32178  40.489   8.079   7.661
 2321POPC   C1B32179  41.103   8.476   8.818
 2321POPC   C2B32180  41.309   8.437   8.398
 2321POPC   C3B32181  41.228   8.520   7.949
 2321POPC   C4B32182  40.961   8.281   7.684
 2322POPC   NC332183  23.790  21.592   9.401
 2322POPC   PO432184  23.170  21.232   9.583
 2322POPC   GL132185  23.352  21.402   9.202
 2322POPC   GL232186  23.569  21.139   9.221
 2322POPC   C1A32187  23.568  21.550   8.784
 2322POPC   D2A32188  23.457  21.614   8.332
 2322POPC   C3A32189  23.749  21.498   8.011
 2322POPC   C4A32190  23.940  21.680   7.652
 2322POPC   C1B32191  23.530  20.999   8.787
 2322POPC   C2B32192  23.756  21.047   8.414
 2322POPC   C3B32193  23.659  20.990   7.994
 2322POPC   C4B32194  23.892  21.121   7.652
 2323POPC   NC332195   1.851  23.056   9.461
 2323POPC   PO432196   2.371  22.598   9.345
 2323POPC   GL132197   2.169  22.903   9.094
 2323POPC   GL232198   1.847  22.812   9.009
 2323POPC   C1A32199   2.036  23.147   8.702
 2323POPC   D2A32200   2.176  23.050   8.298
 2323POPC   C3A32201   2.050  23.254   7.919
 2323POPC   C4A32202   2.113  23.374   7.470
 2323POPC   C1B32203   1.702  22.757   8.590
 2323POPC   C2B32204   1.678  23.007   8.240
 2323POPC   C3B32205   1.868  22.780   7.913
 2323POPC   C4B32206   1.674  22.588   7.581
 2324POPC   NC332207  31.707  20.458   9.644
 2324POPC   PO432208  31.622  21.047   9.446
 2324POPC   GL132209  31.525  20.703   9.162
 2324POPC   GL232210  31.240  20.620   9.354
 2324POPC   C1A32211  31.357  20.740   8.714
 2324POPC   D2A32212  31.557  20.842   8.324
 2324POPC   C3A32213  31.313  20.861   7.968
 2324POPC   C4A32214  31.423  20.628   7.664
 2324POPC   C1B32215  31.088  20.412   8.977
 2324POPC   C2B32216  31.132  20.319   8.523
 2324POPC   C3B32217  31.205  20.350   8.079
 2324POPC   C4B32218  31.028  20.319   7.657
 2325POPC   NC332219  37.602  33.166   9.762
 2325POPC   PO432220  37.494  33.670   9.474
 2325POPC   GL132221  37.633  33.875   9.110
 2325POPC   GL232222  37.964  34.052   9.061
 2325POPC   C1A32223  37.767  33.691   8.755
 2325POPC   D2A32224  37.551  33.551   8.386
 2325POPC   C3A32225  37.707  33.668   7.958
 2325POPC   C4A32226  37.856  33.492   7.554
 2325POPC   C1B32227  37.704  34.180   8.696
 2325POPC   C2B32228  37.513  34.129   8.288
 2325POPC   C3B32229  37.497  34.142   7.834
 2325POPC   C4B32230  37.731  33.986   7.502
 2326POPC   NC332231   8.897  38.782   9.368
 2326POPC   PO432232   9.235  38.206   9.545
 2326POPC   GL132233   9.103  38.357   9.098
 2326POPC   GL232234   9.167  38.669   8.951
 2326POPC   C1A32235   8.773  38.452   8.720
 2326POPC   D2A32236   8.759  38.656   8.330
 2326POPC   C3A32237   8.811  38.515   7.890
 2326POPC   C4A32238   8.533  38.488   7.489
 2326POPC   C1B32239   9.164  38.945   8.606
 2326POPC   C2B32240   9.143  38.949   8.161
 2326POPC   C3B32241   9.250  38.754   7.802
 2326POPC   C4B32242   9.439  38.361   7.786
 2327POPC   NC332243  25.985  42.910   9.532
 2327POPC   PO432244  25.691  43.502   9.432
 2327POPC   GL132245  25.960  43.362   9.091
 2327POPC   GL232246  26.182  43.082   9.068
 2327POPC   C1A32247  25.896  43.236   8.646
 2327POPC   D2A32248  25.727  43.002   8.283
 2327POPC   C3A32249  25.911  43.079   7.880
 2327POPC   C4A32250  26.189  43.419   7.777
 2327POPC   C1B32251  26.415  43.319   8.727
 2327POPC   C2B32252  26.329  43.302   8.261
 2327POPC   C3B32253  26.406  42.970   7.904
 2327POPC   C4B32254  26.609  42.620   7.695
 2328POPC   NC332255   2.578  12.288   9.658
 2328POPC   PO432256   3.034  12.392   9.316
 2328POPC   GL132257   2.790  12.104   9.125
 2328POPC   GL232258   2.457  12.002   9.219
 2328POPC   C1A32259   2.806  12.206   8.712
 2328POPC   D2A32260   2.994  12.056   8.379
 2328POPC   C3A32261   2.931  12.281   8.045
 2328POPC   C4A32262   2.934  12.055   7.674
 2328POPC   C1B32263   2.464  11.836   8.823
 2328POPC   C2B32264   2.396  12.062   8.455
 2328POPC   C3B32265   2.525  11.981   8.064
 2328POPC   C4B32266   2.461  12.220   7.726
 2329POPC   NC332267  43.349  25.950   9.559
 2329POPC   PO432268  42.875  26.422   9.556
 2329POPC   GL132269  42.998  26.165   9.175
 2329POPC   GL232270  43.085  25.799   9.092
 2329POPC   C1A32271  43.048  26.235   8.727
 2329POPC   D2A32272  43.079  25.988   8.325
 2329POPC   C3A32273  42.919  26.046   7.916
 2329POPC   C4A32274  43.019  26.460   7.801
 2329POPC   C1B32275  43.362  25.814   8.701
 2329POPC   C2B32276  43.598  25.984   8.346
 2329POPC   C3B32277  43.441  26.032   7.960
 2329POPC   C4B32278  43.405  25.873   7.563
 2330POPC   NC332279   2.573  21.740   9.246
 2330POPC   PO432280   2.749  21.108   9.534
 2330POPC   GL132281   2.908  21.225   9.161
 2330POPC   GL232282   2.956  20.903   9.060
 2330POPC   C1A32283   2.957  21.454   8.780
 2330POPC   D2A32284   2.822  21.736   8.473
 2330POPC   C3A32285   2.987  21.552   8.095
 2330POPC   C4A32286   2.924  21.210   7.829
 2330POPC   C1B32287   2.549  21.036   8.831
 2330POPC   C2B32288   2.370  21.227   8.434
 2330POPC   C3B32289   2.461  21.376   7.996
 2330POPC   C4B32290   2.493  21.160   7.582
 2331POPC   NC332291  42.184  30.877   9.620
 2331POPC   PO432292  42.254  30.255   9.405
 2331POPC   GL132293  42.375  30.643   9.144
 2331POPC   GL232294  42.330  31.024   9.151
 2331POPC   C1A32295  42.299  30.734   8.692
 2331POPC   D2A32296  42.030  30.729   8.324
 2331POPC   C3A32297  42.246  30.740   7.916
 2331POPC   C4A32298  42.234  30.516   7.515
 2331POPC   C1B32299  42.678  31.038   8.846
 2331POPC   C2B32300  42.776  30.838   8.462
 2331POPC   C3B32301  42.854  31.007   8.079
 2331POPC   C4B32302  42.698  30.891   7.689
 2332POPC   NC332303  40.358  19.732   9.428
 2332POPC   PO432304  40.982  20.061   9.528
 2332POPC   GL132305  40.783  19.869   9.176
 2332POPC   GL232306  40.781  19.530   9.168
 2332POPC   C1A32307  40.617  19.821   8.776
 2332POPC   D2A32308  40.642  20.027   8.380
 2332POPC   C3A32309  40.780  19.823   8.040
 2332POPC   C4A32310  40.770  20.006   7.678
 2332POPC   C1B32311  41.068  19.597   8.814
 2332POPC   C2B32312  41.142  19.756   8.400
 2332POPC   C3B32313  41.304  19.583   8.040
 2332POPC   C4B32314  41.122  19.623   7.666
 2333POPC   NC332315   9.076  25.637   9.416
 2333POPC   PO432316   8.821  24.969   9.454
 2333POPC   GL132317   9.100  25.126   9.116
 2333POPC   GL232318   9.105  25.483   8.944
 2333POPC   C1A32319   9.366  25.121   8.743
 2333POPC   D2A32320   9.259  25.376   8.391
 2333POPC   C3A32321   9.410  25.410   7.988
 2333POPC   C4A32322   9.372  25.046   7.813
 2333POPC   C1B32323   8.858  25.221   8.659
 2333POPC   C2B32324   8.905  25.009   8.280
 2333POPC   C3B32325   8.897  25.303   7.982
 2333POPC   C4B32326   8.571  25.473   7.698
 2334POPC   NC332327  14.657  24.758   9.486
 2334POPC   PO432328  15.227  25.103   9.591
 2334POPC   GL132329  15.183  25.250   9.173
 2334POPC   GL232330  14.910  25.452   9.208
 2334POPC   C1A32331  15.356  25.418   8.783
 2334POPC   D2A32332  15.300  25.622   8.368
 2334POPC   C3A32333  15.031  25.377   8.106
 2334POPC   C4A32334  15.210  25.142   7.766
 2334POPC   C1B32335  14.838  25.208   8.798
 2334POPC   C2B32336  14.744  24.993   8.371
 2334POPC   C3B32337  14.839  24.821   7.943
 2334POPC   C4B32338  15.134  24.643   7.616
 2335POPC   NC332339  17.864  18.422   9.521
 2335POPC   PO432340  18.598  18.332   9.782
 2335POPC   GL132341  18.403  18.419   9.329
 2335POPC   GL232342  18.399  18.123   9.175
 2335POPC   C1A32343  18.367  18.496   8.813
 2335POPC   D2A32344  18.097  18.312   8.449
 2335POPC   C3A32345  18.195  18.464   8.028
 2335POPC   C4A32346  18.205  18.450   7.558
 2335POPC   C1B32347  18.452  18.029   8.728
 2335POPC   C2B32348  18.598  18.136   8.285
 2335POPC   C3B32349  18.439  18.071   7.844
 2335POPC   C4B32350  18.210  17.899   7.469
 2336POPC   NC332351   4.258  22.409   9.319
 2336POPC   PO432352   4.504  21.932   9.710
 2336POPC   GL132353   4.492  21.957   9.208
 2336POPC   GL232354   4.476  22.269   8.907
 2336POPC   C1A32355   4.603  21.806   8.789
 2336POPC   D2A32356   4.527  22.048   8.403
 2336POPC   C3A32357   4.234  22.031   8.047
 2336POPC   C4A32358   4.478  22.292   7.767
 2336POPC   C1B32359   4.134  22.453   8.643
 2336POPC   C2B32360   3.827  22.505   8.285
 2336POPC   C3B32361   3.905  22.499   7.816
 2336POPC   C4B32362   3.783  22.582   7.363
 2337POPC   NC332363  29.708   9.516   9.425
 2337POPC   PO432364  30.353   9.568   9.353
 2337POPC   GL132365  29.970   9.766   9.066
 2337POPC   GL232366  29.655   9.500   8.937
 2337POPC   C1A32367  29.741   9.913   8.664
 2337POPC   D2A32368  29.893  10.088   8.262
 2337POPC   C3A32369  29.861   9.874   7.904
 2337POPC   C4A32370  30.164   9.956   7.594
 2337POPC   C1B32371  30.047   9.413   8.727
 2337POPC   C2B32372  30.276   9.745   8.513
 2337POPC   C3B32373  30.303   9.690   8.084
 2337POPC   C4B32374  30.048   9.400   7.882
 2338POPC   NC332375  40.987  25.639   9.448
 2338POPC   PO432376  40.669  25.082   9.602
 2338POPC   GL132377  40.762  25.193   9.196
 2338POPC   GL232378  40.725  25.538   9.023
 2338POPC   C1A32379  40.836  25.087   8.786
 2338POPC   D2A32380  41.019  24.886   8.435
 2338POPC   C3A32381  40.903  25.020   8.015
 2338POPC   C4A32382  40.967  25.167   7.580
 2338POPC   C1B32383  40.960  25.656   8.663
 2338POPC   C2B32384  40.887  25.586   8.205
 2338POPC   C3B32385  41.111  25.624   7.812
 2338POPC   C4B32386  41.019  25.670   7.339
 2339POPC   NC332387  23.481  10.885   9.337
 2339POPC   PO432388  23.672  11.472   9.476
 2339POPC   GL132389  23.771  11.604   9.072
 2339POPC   GL232390  24.110  11.490   9.033
 2339POPC   C1A32391  23.712  11.425   8.647
 2339POPC   D2A32392  23.873  11.169   8.295
 2339POPC   C3A32393  23.942  11.408   7.939
 2339POPC   C4A32394  23.563  11.575   7.773
 2339POPC   C1B32395  24.123  11.132   8.762
 2339POPC   C2B32396  24.117  10.770   8.519
 2339POPC   C3B32397  23.857  10.667   8.162
 2339POPC   C4B32398  23.844  10.917   7.785
 2340POPC   NC332399   3.880  24.680   9.575
 2340POPC   PO432400   3.461  24.159   9.577
 2340POPC   GL132401   3.351  24.221   9.147
 2340POPC   GL232402   3.179  24.536   9.177
 2340POPC   C1A32403   3.559  24.348   8.759
 2340POPC   D2A32404   3.837  24.601   8.460
 2340POPC   C3A32405   3.787  24.519   8.003
 2340POPC   C4A32406   3.627  24.800   7.681
 2340POPC   C1B32407   3.141  24.670   8.766
 2340POPC   C2B32408   3.202  24.442   8.394
 2340POPC   C3B32409   3.273  24.549   7.990
 2340POPC   C4B32410   3.123  24.777   7.649
 2341POPC   NC332411   0.103  35.533   9.545
 2341POPC   PO432412   0.575  35.158   9.228
 2341POPC   GL132413   0.227  35.359   9.080
 2341POPC   GL232414   0.411  35.663   9.170
 2341POPC   C1A32415   0.097  35.228   8.671
 2341POPC   D2A32416   0.261  34.921   8.357
 2341POPC   C3A32417   0.225  35.068   7.919
 2341POPC   C4A32418   0.108  35.355   7.530
 2341POPC   C1B32419   0.416  35.662   8.726
 2341POPC   C2B32420   0.416  35.443   8.331
 2341POPC   C3B32421   0.338  35.551   7.920
 2341POPC   C4B32422   0.607  35.609   7.556
 2342POPC   NC332423  26.410  43.614   9.485
 2342POPC   PO432424  27.116  43.595   9.538
 2342POPC   GL132425  26.989  43.929   9.210
 2342POPC   GL232426  26.645  44.129   9.199
 2342POPC   C1A32427  26.841  43.967   8.780
 2342POPC   D2A32428  26.548  43.807   8.493
 2342POPC   C3A32429  26.711  43.901   8.088
 2342POPC   C4A32430  26.505  43.828   7.711
 2342POPC   C1B32431  26.545  44.372   8.782
 2342POPC   C2B32432  26.368  44.270   8.364
 2342POPC   C3B32433  26.478  44.342   7.920
 2342POPC   C4B32434  26.475  44.274   7.452
 2343POPC   NC332435  20.720   8.691   9.615
 2343POPC   PO432436  20.316   8.218   9.631
 2343POPC   GL132437  20.576   8.367   9.215
 2343POPC   GL232438  20.835   8.663   9.109
 2343POPC   C1A32439  20.657   8.300   8.751
 2343POPC   D2A32440  20.673   8.353   8.280
 2343POPC   C3A32441  20.580   8.015   7.939
 2343POPC   C4A32442  20.531   7.761   7.538
 2343POPC   C1B32443  21.091   8.594   8.705
 2343POPC   C2B32444  21.236   8.711   8.272
 2343POPC   C3B32445  21.055   8.449   7.936
 2343POPC   C4B32446  20.630   8.529   7.798
 2344POPC   NC332447  33.326   2.967   9.572
 2344POPC   PO432448  33.945   2.655   9.524
 2344POPC   GL132449  33.932   2.908   9.185
 2344POPC   GL232450  33.589   2.910   9.115
 2344POPC   C1A32451  33.979   2.886   8.764
 2344POPC   D2A32452  33.730   2.934   8.392
 2344POPC   C3A32453  33.834   2.603   8.087
 2344POPC   C4A32454  34.017   2.736   7.690
 2344POPC   C1B32455  33.280   3.202   8.948
 2344POPC   C2B32456  33.202   3.265   8.516
 2344POPC   C3B32457  33.305   3.272   8.109
 2344POPC   C4B32458  33.439   3.147   7.730
 2345POPC   NC332459  32.159  34.777   9.509
 2345POPC   PO432460  32.190  34.094   9.627
 2345POPC   GL132461  32.261  34.345   9.213
 2345POPC   GL232462  31.939  34.330   9.157
 2345POPC   C1A32463  32.454  34.532   8.791
 2345POPC   D2A32464  32.330  34.803   8.454
 2345POPC   C3A32465  32.453  34.656   8.058
 2345POPC   C4A32466  32.243  34.724   7.677
 2345POPC   C1B32467  31.982  34.678   8.854
 2345POPC   C2B32468  31.809  34.771   8.476
 2345POPC   C3B32469  31.847  34.717   8.049
 2345POPC   C4B32470  31.788  34.947   7.695
 2346POPC   NC332471  41.868  26.097   9.566
 2346POPC   PO432472  41.467  25.664   9.441
 2346POPC   GL132473  41.791  25.842   9.132
 2346POPC   GL232474  41.558  26.112   9.155
 2346POPC   C1A32475  41.843  26.169   8.761
 2346POPC   D2A32476  41.703  26.225   8.361
 2346POPC   C3A32477  41.935  26.182   8.018
 2346POPC   C4A32478  41.763  26.125   7.631
 2346POPC   C1B32479  41.349  26.083   8.737
 2346POPC   C2B32480  41.191  26.202   8.317
 2346POPC   C3B32481  41.309  26.090   7.868
 2346POPC   C4B32482  41.314  26.135   7.351
 2347POPC   NC332483  14.627  17.198   9.486
 2347POPC   PO432484  14.270  17.750   9.685
 2347POPC   GL132485  14.395  17.612   9.276
 2347POPC   GL232486  14.644  17.825   9.174
 2347POPC   C1A32487  14.405  17.418   8.842
 2347POPC   D2A32488  14.319  17.626   8.430
 2347POPC   C3A32489  14.306  17.409   8.025
 2347POPC   C4A32490  14.543  17.332   7.655
 2347POPC   C1B32491  14.732  17.792   8.729
 2347POPC   C2B32492  14.844  17.742   8.291
 2347POPC   C3B32493  14.612  17.814   7.880
 2347POPC   C4B32494  14.759  17.731   7.425
 2348POPC   NC332495   2.955  34.231   9.860
 2348POPC   PO432496   2.706  34.652   9.408
 2348POPC   GL132497   2.623  34.483   9.029
 2348POPC   GL232498   2.952  34.655   8.948
 2348POPC   C1A32499   2.642  34.527   8.577
 2348POPC   D2A32500   3.059  34.712   8.432
 2348POPC   C3A32501   2.948  34.831   8.042
 2348POPC   C4A32502   2.490  34.798   8.012
 2348POPC   C1B32503   3.063  34.273   8.711
 2348POPC   C2B32504   2.870  34.142   8.350
 2348POPC   C3B32505   2.680  34.324   8.007
 2348POPC   C4B32506   2.695  34.075   7.651
 2349POPC   NC332507   6.470  34.623   9.330
 2349POPC   PO432508   7.129  34.880   9.233
 2349POPC   GL132509   6.834  34.580   8.976
 2349POPC   GL232510   6.834  34.193   9.106
 2349POPC   C1A32511   6.448  34.704   8.678
 2349POPC   D2A32512   6.424  34.790   8.222
 2349POPC   C3A32513   6.867  34.849   8.049
 2349POPC   C4A32514   7.003  34.687   7.628
 2349POPC   C1B32515   6.573  34.192   8.724
 2349POPC   C2B32516   6.717  34.394   8.352
 2349POPC   C3B32517   6.680  34.391   7.919
 2349POPC   C4B32518   6.486  34.451   7.525
 2350POPC   NC332519  22.276  12.829   9.592
 2350POPC   PO432520  21.613  12.785   9.554
 2350POPC   GL132521  21.947  12.725   9.158
 2350POPC   GL232522  22.338  12.719   9.121
 2350POPC   C1A32523  22.092  12.848   8.699
 2350POPC   D2A32524  22.148  13.063   8.283
 2350POPC   C3A32525  21.925  12.872   7.914
 2350POPC   C4A32526  21.962  12.431   7.808
 2350POPC   C1B32527  22.638  12.821   8.803
 2350POPC   C2B32528  22.644  12.788   8.380
 2350POPC   C3B32529  22.411  12.700   8.029
 2350POPC   C4B32530  22.362  13.077   7.801
 2351POPC   NC332531  25.699  12.191   9.484
 2351POPC   PO432532  25.069  12.321   9.472
 2351POPC   GL132533  25.269  12.113   9.137
 2351POPC   GL232534  25.455  11.817   9.246
 2351POPC   C1A32535  25.260  12.046   8.699
 2351POPC   D2A32536  25.132  11.884   8.324
 2351POPC   C3A32537  25.202  12.209   8.032
 2351POPC   C4A32538  25.520  12.374   7.763
 2351POPC   C1B32539  25.721  11.959   8.887
 2351POPC   C2B32540  25.722  12.018   8.450
 2351POPC   C3B32541  25.582  11.906   8.041
 2351POPC   C4B32542  25.345  11.853   7.661
 2352POPC   NC332543  12.368  39.237   9.495
 2352POPC   PO432544  11.735  39.441   9.524
 2352POPC   GL132545  11.931  39.281   9.193
 2352POPC   GL232546  11.999  38.941   9.238
 2352POPC   C1A32547  12.085  39.399   8.808
 2352POPC   D2A32548  11.956  39.262   8.421
 2352POPC   C3A32549  12.118  39.499   8.084
 2352POPC   C4A32550  11.905  39.453   7.710
 2352POPC   C1B32551  12.092  38.886   8.799
 2352POPC   C2B32552  12.053  38.753   8.367
 2352POPC   C3B32553  12.065  38.999   7.964
 2352POPC   C4B32554  12.002  39.009   7.499
 2353POPC   NC332555   2.791  20.641   9.541
 2353POPC   PO432556   2.258  20.238   9.527
 2353POPC   GL132557   2.560  20.396   9.166
 2353POPC   GL232558   2.968  20.393   9.125
 2353POPC   C1A32559   2.674  20.533   8.748
 2353POPC   D2A32560   2.623  20.270   8.400
 2353POPC   C3A32561   2.624  20.462   7.993
 2353POPC   C4A32562   2.911  20.297   7.703
 2353POPC   C1B32563   3.174  20.576   8.742
 2353POPC   C2B32564   3.018  20.604   8.341
 2353POPC   C3B32565   3.063  20.748   7.943
 2353POPC   C4B32566   3.308  20.822   7.588
 2354POPC   NC332567  33.192  10.239   9.615
 2354POPC   PO432568  32.762   9.636   9.512
 2354POPC   GL132569  32.896   9.605   9.084
 2354POPC   GL232570  33.218   9.792   9.059
 2354POPC   C1A32571  32.813   9.723   8.671
 2354POPC   D2A32572  32.933  10.079   8.403
 2354POPC   C3A32573  32.934   9.943   7.995
 2354POPC   C4A32574  32.710   9.597   7.864
 2354POPC   C1B32575  33.285   9.543   8.695
 2354POPC   C2B32576  33.080   9.516   8.286
 2354POPC   C3B32577  33.251   9.558   7.881
 2354POPC   C4B32578  33.518   9.605   7.508
 2355POPC   NC332579  43.444  31.783   9.483
 2355POPC   PO432580  44.063  31.642   9.760
 2355POPC   GL132581  44.003  31.705   9.302
 2355POPC   GL232582  43.711  31.556   9.116
 2355POPC   C1A32583  44.174  31.525   8.903
 2355POPC   D2A32584  43.942  31.425   8.545
 2355POPC   C3A32585  44.050  31.451   8.106
 2355POPC   C4A32586  44.240  31.630   7.737
 2355POPC   C1B32587  43.557  31.758   8.732
 2355POPC   C2B32588  43.420  31.923   8.352
 2355POPC   C3B32589  43.446  31.746   7.968
 2355POPC   C4B32590  43.743  31.695   7.688
 2356POPC   NC332591  44.869  27.790   9.278
 2356POPC   PO432592  44.614  27.322   9.705
 2356POPC   GL132593  44.384  27.345   9.202
 2356POPC   GL232594  44.525  27.615   8.971
 2356POPC   C1A32595  44.509  27.192   8.708
 2356POPC   D2A32596  44.510  27.476   8.395
 2356POPC   C3A32597  44.588  27.260   8.038
 2356POPC   C4A32598  44.525  27.506   7.709
 2356POPC   C1B32599  44.374  27.899   8.674
 2356POPC   C2B32600  44.182  27.947   8.276
 2356POPC   C3B32601  44.314  27.933   7.862
 2356POPC   C4B32602  44.288  27.846   7.398
 2357POPC   NC332603  24.843  22.770   9.485
 2357POPC   PO432604  24.162  22.790   9.512
 2357POPC   GL132605  24.294  22.894   9.116
 2357POPC   GL232606  24.640  22.895   9.054
 2357POPC   C1A32607  24.269  22.806   8.688
 2357POPC   D2A32608  24.446  22.561   8.358
 2357POPC   C3A32609  24.377  22.766   7.986
 2357POPC   C4A32610  24.721  22.729   7.735
 2357POPC   C1B32611  24.753  23.165   8.766
 2357POPC   C2B32612  24.621  23.048   8.378
 2357POPC   C3B32613  24.777  23.152   8.007
 2357POPC   C4B32614  24.771  23.231   7.609
 2358POPC   NC332615  20.069   3.275   9.399
 2358POPC   PO432616  19.450   3.611   9.496
 2358POPC   GL132617  19.657   3.726   9.072
 2358POPC   GL232618  19.993   3.579   8.985
 2358POPC   C1A32619  19.706   3.684   8.592
 2358POPC   D2A32620  19.898   3.418   8.291
 2358POPC   C3A32621  19.974   3.684   7.943
 2358POPC   C4A32622  19.690   4.041   7.877
 2358POPC   C1B32623  20.134   3.195   8.741
 2358POPC   C2B32624  20.319   3.123   8.312
 2358POPC   C3B32625  20.137   3.189   7.898
 2358POPC   C4B32626  19.728   3.286   7.688
 2359POPC   NC332627  11.698  33.532   9.413
 2359POPC   PO432628  11.059  33.971   9.514
 2359POPC   GL132629  11.246  33.808   9.163
 2359POPC   GL232630  11.170  34.153   9.053
 2359POPC   C1A32631  11.419  33.820   8.733
 2359POPC   D2A32632  11.515  33.955   8.283
 2359POPC   C3A32633  11.565  33.655   7.902
 2359POPC   C4A32634  11.529  33.684   7.459
 2359POPC   C1B32635  11.375  34.336   8.726
 2359POPC   C2B32636  11.262  34.390   8.321
 2359POPC   C3B32637  11.087  34.091   8.028
 2359POPC   C4B32638  11.423  34.128   7.710
 2360POPC   NC332639  23.040  33.106   9.911
 2360POPC   PO432640  22.952  33.417   9.371
 2360POPC   GL132641  23.099  33.065   9.180
 2360POPC   GL232642  22.822  32.884   9.220
 2360POPC   C1A32643  23.244  32.916   8.777
 2360POPC   D2A32644  23.119  33.117   8.388
 2360POPC   C3A32645  23.238  33.080   7.954
 2360POPC   C4A32646  23.086  33.378   7.635
 2360POPC   C1B32647  22.775  33.104   8.806
 2360POPC   C2B32648  22.668  32.896   8.482
 2360POPC   C3B32649  22.793  32.797   8.088
 2360POPC   C4B32650  22.837  32.636   7.683
 2361POPC   NC332651  22.324  42.801   9.448
 2361POPC   PO432652  22.354  42.142   9.440
 2361POPC   GL132653  22.024  42.146   9.141
 2361POPC   GL232654  22.057  42.508   9.108
 2361POPC   C1A32655  22.076  41.925   8.763
 2361POPC   D2A32656  22.346  41.960   8.439
 2361POPC   C3A32657  22.179  42.290   8.180
 2361POPC   C4A32658  22.117  42.273   7.753
 2361POPC   C1B32659  21.975  42.432   8.673
 2361POPC   C2B32660  21.800  42.624   8.315
 2361POPC   C3B32661  21.762  42.652   7.832
 2361POPC   C4B32662  22.146  42.740   7.528
 2362POPC   NC332663  28.657  25.915   9.479
 2362POPC   PO432664  29.347  25.724   9.502
 2362POPC   GL132665  29.215  25.875   9.085
 2362POPC   GL232666  28.876  25.849   9.011
 2362POPC   C1A32667  29.245  25.724   8.661
 2362POPC   D2A32668  29.589  25.707   8.389
 2362POPC   C3A32669  29.473  25.869   8.023
 2362POPC   C4A32670  29.269  25.972   7.640
 2362POPC   C1B32671  28.954  26.161   8.668
 2362POPC   C2B32672  29.195  26.155   8.342
 2362POPC   C3B32673  29.070  26.286   7.967
 2362POPC   C4B32674  28.830  26.260   7.647
 2363POPC   NC332675  39.475   6.921  10.206
 2363POPC   PO432676  39.876   6.801   9.752
 2363POPC   GL132677  40.005   6.692   9.270
 2363POPC   GL232678  40.352   6.810   9.105
 2363POPC   C1A32679  39.896   6.735   8.834
 2363POPC   D2A32680  39.848   6.927   8.447
 2363POPC   C3A32681  39.874   6.783   8.047
 2363POPC   C4A32682  40.089   6.985   7.719
 2363POPC   C1B32683  40.330   6.970   8.650
 2363POPC   C2B32684  40.373   6.828   8.183
 2363POPC   C3B32685  40.518   6.733   7.730
 2363POPC   C4B32686  40.455   7.001   7.332
 2364POPC   NC332687  38.784  15.464   9.756
 2364POPC   PO432688  38.147  15.414   9.492
 2364POPC   GL132689  38.489  15.223   9.218
 2364POPC   GL232690  38.567  14.864   9.167
 2364POPC   C1A32691  38.450  15.163   8.766
 2364POPC   D2A32692  38.320  15.063   8.365
 2364POPC   C3A32693  38.487  15.286   8.024
 2364POPC   C4A32694  38.435  15.257   7.587
 2364POPC   C1B32695  38.679  14.704   8.745
 2364POPC   C2B32696  38.811  14.899   8.383
 2364POPC   C3B32697  38.603  14.791   8.021
 2364POPC   C4B32698  38.607  14.777   7.619
 2365POPC   NC332699   5.290  23.898   9.290
 2365POPC   PO432700   4.707  23.705   9.459
 2365POPC   GL132701   4.875  23.582   9.052
 2365POPC   GL232702   4.696  23.252   9.022
 2365POPC   C1A32703   5.127  23.749   8.658
 2365POPC   D2A32704   5.379  23.864   8.263
 2365POPC   C3A32705   5.372  23.518   7.974
 2365POPC   C4A32706   5.011  23.485   7.703
 2365POPC   C1B32707   4.776  23.367   8.584
 2365POPC   C2B32708   4.902  23.571   8.209
 2365POPC   C3B32709   4.682  23.816   7.914
 2365POPC   C4B32710   4.691  23.977   7.504
 2366POPC   NC332711  23.320  42.724   9.497
 2366POPC   PO432712  23.925  43.125   9.409
 2366POPC   GL132713  23.574  43.018   9.157
 2366POPC   GL232714  23.636  42.647   9.099
 2366POPC   C1A32715  23.506  43.183   8.743
 2366POPC   D2A32716  23.698  43.229   8.330
 2366POPC   C3A32717  23.575  43.571   8.066
 2366POPC   C4A32718  23.430  43.536   7.657
 2366POPC   C1B32719  23.901  42.855   8.792
 2366POPC   C2B32720  24.063  42.872   8.405
 2366POPC   C3B32721  23.784  42.785   8.078
 2366POPC   C4B32722  23.684  43.023   7.732
 2367POPC   NC332723  24.878  23.685   9.398
 2367POPC   PO432724  25.577  23.924   9.522
 2367POPC   GL132725  25.341  23.846   9.157
 2367POPC   GL232726  25.308  23.511   9.151
 2367POPC   C1A32727  25.272  23.894   8.702
 2367POPC   D2A32728  25.072  23.955   8.291
 2367POPC   C3A32729  25.312  23.999   7.896
 2367POPC   C4A32730  25.245  24.001   7.437
 2367POPC   C1B32731  25.224  23.383   8.753
 2367POPC   C2B32732  25.383  23.507   8.337
 2367POPC   C3B32733  25.187  23.473   7.931
 2367POPC   C4B32734  25.186  23.495   7.477
 2368POPC   NC332735  34.614   8.744   9.544
 2368POPC   PO432736  34.360   9.350   9.531
 2368POPC   GL132737  34.555   9.124   9.201
 2368POPC   GL232738  34.396   8.803   9.085
 2368POPC   C1A32739  34.650   9.199   8.800
 2368POPC   D2A32740  34.884   8.973   8.521
 2368POPC   C3A32741  34.718   9.023   8.132
 2368POPC   C4A32742  34.821   9.147   7.735
 2368POPC   C1B32743  34.697   8.577   8.826
 2368POPC   C2B32744  34.691   8.504   8.375
 2368POPC   C3B32745  34.941   8.572   7.987
 2368POPC   C4B32746  34.604   8.689   7.716
 2369POPC   NC332747  44.484   4.523   9.176
 2369POPC   PO432748  44.986   4.270   9.538
 2369POPC   GL132749  44.782   4.081   9.143
 2369POPC   GL232750  44.413   4.025   9.042
 2369POPC   C1A32751  44.769   4.170   8.685
 2369POPC   D2A32752  44.611   4.196   8.268
 2369POPC   C3A32753  44.814   4.065   7.910
 2369POPC   C4A32754  44.635   4.099   7.527
 2369POPC   C1B32755  44.240   4.222   8.644
 2369POPC   C2B32756  44.153   4.413   8.218
 2369POPC   C3B32757  44.464   4.498   7.867
 2369POPC   C4B32758  44.483   4.589   7.411
 2370POPC   NC332759  11.644  40.404   9.531
 2370POPC   PO432760  11.813  41.024   9.558
 2370POPC   GL132761  12.030  40.986   9.189
 2370POPC   GL232762  12.094  40.632   9.203
 2370POPC   C1A32763  12.178  40.970   8.783
 2370POPC   D2A32764  12.270  40.661   8.452
 2370POPC   C3A32765  12.129  40.785   8.028
 2370POPC   C4A32766  12.054  40.961   7.617
 2370POPC   C1B32767  11.888  40.508   8.831
 2370POPC   C2B32768  11.640  40.445   8.461
 2370POPC   C3B32769  11.810  40.368   8.073
 2370POPC   C4B32770  11.738  40.576   7.689
 2371POPC   NC332771  21.232  33.737   9.537
 2371POPC   PO432772  21.643  34.275   9.401
 2371POPC   GL132773  21.415  33.980   9.133
 2371POPC   GL232774  21.608  33.639   9.186
 2371POPC   C1A32775  21.345  33.746   8.756
 2371POPC   D2A32776  21.461  33.518   8.374
 2371POPC   C3A32777  21.352  33.734   8.011
 2371POPC   C4A32778  21.277  33.571   7.623
 2371POPC   C1B32779  21.814  33.549   8.754
 2371POPC   C2B32780  21.835  33.871   8.406
 2371POPC   C3B32781  21.874  33.761   7.969
 2371POPC   C4B32782  21.646  33.896   7.607
 2372POPC   NC332783  43.520   9.956   9.354
 2372POPC   PO432784  42.862   9.764   9.243
 2372POPC   GL132785  43.181   9.887   8.977
 2372POPC   GL232786  43.392   9.585   9.016
 2372POPC   C1A32787  43.196   9.990   8.559
 2372POPC   D2A32788  42.998   9.775   8.251
 2372POPC   C3A32789  43.254   9.771   7.904
 2372POPC   C4A32790  43.020   9.830   7.557
 2372POPC   C1B32791  43.178   9.450   8.613
 2372POPC   C2B32792  43.228   9.321   8.149
 2372POPC   C3B32793  43.205   9.334   7.650
 2372POPC   C4B32794  43.292   9.513   7.253
 2373POPC   NC332795  39.769  24.160   9.414
 2373POPC   PO432796  40.398  24.523   9.482
 2373POPC   GL132797  40.239  24.279   9.156
 2373POPC   GL232798  39.943  24.499   9.080
 2373POPC   C1A32799  40.279  24.389   8.721
 2373POPC   D2A32800  40.079  24.574   8.372
 2373POPC   C3A32801  40.176  24.273   8.075
 2373POPC   C4A32802  40.339  24.332   7.691
 2373POPC   C1B32803  39.669  24.590   8.726
 2373POPC   C2B32804  39.538  24.643   8.299
 2373POPC   C3B32805  39.795  24.788   7.975
 2373POPC   C4B32806  39.803  24.463   7.737
 2374POPC   NC332807  34.761  13.112   9.300
 2374POPC   PO432808  34.541  12.467   9.443
 2374POPC   GL132809  34.641  12.585   9.056
 2374POPC   GL232810  34.384  12.843   9.055
 2374POPC   C1A32811  34.604  12.605   8.613
 2374POPC   D2A32812  34.469  12.796   8.223
 2374POPC   C3A32813  34.728  12.922   7.895
 2374POPC   C4A32814  34.812  12.682   7.563
 2374POPC   C1B32815  34.369  13.070   8.682
 2374POPC   C2B32816  34.243  13.241   8.301
 2374POPC   C3B32817  34.259  13.110   7.856
 2374POPC   C4B32818  34.503  13.102   7.436
 2375POPC   NC332819  33.165  16.457   9.634
 2375POPC   PO432820  32.502  16.434   9.555
 2375POPC   GL132821  32.826  16.474   9.226
 2375POPC   GL232822  33.128  16.688   9.094
 2375POPC   C1A32823  32.747  16.561   8.800
 2375POPC   D2A32824  33.032  16.618   8.492
 2375POPC   C3A32825  32.936  16.820   8.111
 2375POPC   C4A32826  32.694  16.538   7.887
 2375POPC   C1B32827  33.204  17.044   8.775
 2375POPC   C2B32828  33.213  17.258   8.364
 2375POPC   C3B32829  33.420  17.083   8.011
 2375POPC   C4B32830  33.332  16.751   7.815
 2376POPC   NC332831   7.391  38.872   9.211
 2376POPC   PO432832   7.676  38.372   9.543
 2376POPC   GL132833   7.561  38.361   9.162
 2376POPC   GL232834   7.202  38.291   9.186
 2376POPC   C1A32835   7.806  38.531   8.795
 2376POPC   D2A32836   7.901  38.617   8.358
 2376POPC   C3A32837   7.596  38.451   8.075
 2376POPC   C4A32838   7.430  38.642   7.720
 2376POPC   C1B32839   7.295  38.425   8.751
 2376POPC   C2B32840   7.180  38.569   8.369
 2376POPC   C3B32841   7.047  38.418   8.005
 2376POPC   C4B32842   7.212  38.117   7.733
 2377POPC   NC332843  23.034  21.688   9.522
 2377POPC   PO432844  22.407  21.520   9.639
 2377POPC   GL132845  22.649  21.517   9.208
 2377POPC   GL232846  22.866  21.229   9.126
 2377POPC   C1A32847  22.757  21.665   8.761
 2377POPC   D2A32848  22.945  21.530   8.330
 2377POPC   C3A32849  22.780  21.495   7.906
 2377POPC   C4A32850  22.706  21.266   7.516
 2377POPC   C1B32851  23.124  21.316   8.751
 2377POPC   C2B32852  23.257  21.129   8.342
 2377POPC   C3B32853  23.262  21.305   7.899
 2377POPC   C4B32854  23.515  21.435   7.530
 2378POPC   NC332855  42.709   9.024   9.786
 2378POPC   PO432856  42.213   8.915   9.364
 2378POPC   GL132857  42.426   9.004   9.076
 2378POPC   GL232858  42.722   8.808   9.166
 2378POPC   C1A32859  42.347   9.117   8.686
 2378POPC   D2A32860  42.240   8.995   8.326
 2378POPC   C3A32861  42.381   9.218   8.015
 2378POPC   C4A32862  42.225   9.094   7.651
 2378POPC   C1B32863  42.550   8.651   8.757
 2378POPC   C2B32864  42.588   8.627   8.340
 2378POPC   C3B32865  42.448   8.717   7.949
 2378POPC   C4B32866  42.432   8.643   7.533
 2379POPC   NC332867  38.761  18.038   9.618
 2379POPC   PO432868  38.119  18.205   9.536
 2379POPC   GL132869  38.280  18.101   9.167
 2379POPC   GL232870  38.585  18.252   9.177
 2379POPC   C1A32871  38.183  18.222   8.761
 2379POPC   D2A32872  38.425  18.289   8.416
 2379POPC   C3A32873  38.275  18.224   8.016
 2379POPC   C4A32874  38.127  17.919   7.714
 2379POPC   C1B32875  38.772  18.175   8.801
 2379POPC   C2B32876  38.921  18.394   8.458
 2379POPC   C3B32877  38.794  18.327   8.052
 2379POPC   C4B32878  38.729  18.215   7.638
 2380POPC   NC332879  40.581  22.118   9.501
 2380POPC   PO432880  41.086  22.534   9.267
 2380POPC   GL132881  40.752  22.322   9.063
 2380POPC   GL232882  40.929  22.071   8.878
 2380POPC   C1A32883  40.489  22.233   8.708
 2380POPC   D2A32884  40.728  22.163   8.339
 2380POPC   C3A32885  40.514  22.121   7.974
 2380POPC   C4A32886  40.567  22.268   7.576
 2380POPC   C1B32887  41.059  22.451   8.606
 2380POPC   C2B32888  41.144  22.500   8.168
 2380POPC   C3B32889  41.009  22.313   7.787
 2380POPC   C4B32890  41.000  22.552   7.387
 2381POPC   NC332891  38.052  39.700   9.541
 2381POPC   PO432892  38.520  40.208   9.575
 2381POPC   GL132893  38.411  40.110   9.175
 2381POPC   GL232894  38.738  39.915   9.049
 2381POPC   C1A32895  38.268  39.917   8.817
 2381POPC   D2A32896  38.548  39.995   8.480
 2381POPC   C3A32897  38.350  39.836   8.134
 2381POPC   C4A32898  38.162  39.972   7.749
 2381POPC   C1B32899  38.922  40.224   8.777
 2381POPC   C2B32900  38.772  40.464   8.397
 2381POPC   C3B32901  38.572  40.292   8.016
 2381POPC   C4B32902  38.681  39.954   7.755
 2382POPC   NC332903  34.486  39.209   9.613
 2382POPC   PO432904  34.760  39.764   9.442
 2382POPC   GL132905  34.655  39.387   9.153
 2382POPC   GL232906  34.346  39.095   9.151
 2382POPC   C1A32907  34.831  39.400   8.738
 2382POPC   D2A32908  34.882  39.672   8.374
 2382POPC   C3A32909  34.930  39.401   8.012
 2382POPC   C4A32910  34.617  39.063   7.836
 2382POPC   C1B32911  34.327  39.302   8.774
 2382POPC   C2B32912  34.510  39.232   8.376
 2382POPC   C3B32913  34.440  39.492   8.066
 2382POPC   C4B32914  34.240  39.397   7.711
 2383POPC   NC332915  42.030  23.153   9.556
 2383POPC   PO432916  41.509  22.923   9.400
 2383POPC   GL132917  41.743  23.082   9.113
 2383POPC   GL232918  41.955  22.782   9.169
 2383POPC   C1A32919  41.521  23.205   8.756
 2383POPC   D2A32920  41.360  22.894   8.472
 2383POPC   C3A32921  41.385  22.978   8.046
 2383POPC   C4A32922  41.046  22.893   7.784
 2383POPC   C1B32923  41.654  22.605   8.834
 2383POPC   C2B32924  41.616  22.441   8.438
 2383POPC   C3B32925  41.658  22.518   8.049
 2383POPC   C4B32926  41.430  22.560   7.705
 2384POPC   NC332927   7.007  26.801   9.511
 2384POPC   PO432928   6.394  26.943   9.679
 2384POPC   GL132929   6.573  26.805   9.199
 2384POPC   GL232930   6.946  26.678   9.043
 2384POPC   C1A32931   6.433  26.923   8.747
 2384POPC   D2A32932   6.264  26.831   8.303
 2384POPC   C3A32933   6.478  26.847   7.856
 2384POPC   C4A32934   6.353  26.806   7.374
 2384POPC   C1B32935   6.936  26.833   8.641
 2384POPC   C2B32936   6.882  27.022   8.242
 2384POPC   C3B32937   6.988  27.078   7.824
 2384POPC   C4B32938   6.797  27.034   7.427
 2385POPC   NC332939  38.980  44.870   9.640
 2385POPC   PO432940  39.549  44.536   9.524
 2385POPC   GL132941  39.277  44.763   9.196
 2385POPC   GL232942  38.919  44.661   9.155
 2385POPC   C1A32943  39.188  44.784   8.741
 2385POPC   D2A32944  39.328  44.610   8.342
 2385POPC   C3A32945  39.171  44.704   7.919
 2385POPC   C4A32946  39.202  44.675   7.456
 2385POPC   C1B32947  38.924  44.369   8.769
 2385POPC   C2B32948  38.777  44.210   8.356
 2385POPC   C3B32949  38.742  44.354   7.911
 2385POPC   C4B32950  38.743  44.756   7.644
 2386POPC   NC332951   6.436  39.361   9.483
 2386POPC   PO432952   7.069  39.073   9.495
 2386POPC   GL132953   6.807  39.147   9.136
 2386POPC   GL232954   6.463  38.992   9.129
 2386POPC   C1A32955   6.624  39.323   8.757
 2386POPC   D2A32956   6.446  39.213   8.359
 2386POPC   C3A32957   6.673  39.383   8.028
 2386POPC   C4A32958   6.673  39.613   7.667
 2386POPC   C1B32959   6.409  38.836   8.711
 2386POPC   C2B32960   6.253  38.723   8.294
 2386POPC   C3B32961   6.236  39.005   7.948
 2386POPC   C4B32962   6.521  39.126   7.612
 2387POPC   NC332963  29.383   4.739   9.581
 2387POPC   PO432964  29.117   4.050   9.379
 2387POPC   GL132965  29.209   4.156   9.019
 2387POPC   GL232966  29.312   4.476   9.137
 2387POPC   C1A32967  29.194   4.115   8.603
 2387POPC   D2A32968  29.051   4.415   8.301
 2387POPC   C3A32969  28.947   4.269   7.880
 2387POPC   C4A32970  28.849   4.557   7.539
 2387POPC   C1B32971  29.395   4.568   8.720
 2387POPC   C2B32972  29.554   4.384   8.371
 2387POPC   C3B32973  29.414   4.517   7.953
 2387POPC   C4B32974  29.326   4.350   7.541
 2388POPC   NC332975  23.468  16.327   9.542
 2388POPC   PO432976  22.969  15.879   9.650
 2388POPC   GL132977  23.001  15.784   9.230
 2388POPC   GL232978  23.277  15.520   9.177
 2388POPC   C1A32979  22.834  16.044   8.851
 2388POPC   D2A32980  22.650  16.115   8.412
 2388POPC   C3A32981  22.982  16.160   8.074
 2388POPC   C4A32982  22.942  15.997   7.648
 2388POPC   C1B32983  23.099  15.602   8.777
 2388POPC   C2B32984  23.015  15.754   8.384
 2388POPC   C3B32985  23.141  15.593   7.998
 2388POPC   C4B32986  23.384  15.464   7.588
 2389POPC   NC332987   3.761  37.261   9.670
 2389POPC   PO432988   3.535  37.881   9.534
 2389POPC   GL132989   3.742  37.683   9.202
 2389POPC   GL232990   4.031  37.872   9.297
 2389POPC   C1A32991   3.595  37.641   8.742
 2389POPC   D2A32992   3.250  37.667   8.378
 2389POPC   C3A32993   3.381  37.722   7.921
 2389POPC   C4A32994   3.215  38.029   7.610
 2389POPC   C1B32995   3.800  38.106   8.932
 2389POPC   C2B32996   3.600  38.096   8.507
 2389POPC   C3B32997   3.791  37.996   8.116
 2389POPC   C4B32998   4.021  37.931   7.754
 2390POPC   NC332999  22.204  17.887   9.378
 2390POPC   PO433000  21.871  18.461   9.479
 2390POPC   GL133001  22.126  18.385   9.123
 2390POPC   GL233002  21.858  18.460   8.946
 2390POPC   C1A33003  22.312  18.240   8.750
 2390POPC   D2A33004  22.286  17.918   8.466
 2390POPC   C3A33005  22.116  18.170   8.155
 2390POPC   C4A33006  22.281  18.409   7.844
 2390POPC   C1B33007  21.841  18.017   8.792
 2390POPC   C2B33008  21.785  17.827   8.370
 2390POPC   C3B33009  21.762  17.931   7.915
 2390POPC   C4B33010  22.087  18.024   7.580
 2391POPC   NC333011  30.854   7.148   9.646
 2391POPC   PO433012  30.265   7.447   9.531
 2391POPC   GL133013  30.654   7.510   9.295
 2391POPC   GL233014  31.030   7.521   9.287
 2391POPC   C1A33015  30.693   7.615   8.856
 2391POPC   D2A33016  30.534   7.584   8.459
 2391POPC   C3A33017  30.690   7.426   8.100
 2391POPC   C4A33018  30.599   7.597   7.710
 2391POPC   C1B33019  30.914   7.181   8.993
 2391POPC   C2B33020  30.889   7.199   8.539
 2391POPC   C3B33021  31.141   7.185   8.155
 2391POPC   C4B33022  31.044   7.334   7.739
 2392POPC   NC333023  41.056  28.590   9.204
 2392POPC   PO433024  40.853  28.185   9.743
 2392POPC   GL133025  40.614  28.293   9.206
 2392POPC   GL233026  40.440  28.630   9.090
 2392POPC   C1A33027  40.718  28.255   8.721
 2392POPC   D2A33028  40.808  28.107   8.301
 2392POPC   C3A33029  40.706  28.278   7.918
 2392POPC   C4A33030  40.765  28.158   7.491
 2392POPC   C1B33031  40.311  28.552   8.714
 2392POPC   C2B33032  40.479  28.519   8.324
 2392POPC   C3B33033  40.403  28.699   7.930
 2392POPC   C4B33034  40.573  28.614   7.550
 2393POPC   NC333035  23.379  20.753   9.605
 2393POPC   PO433036  24.005  20.892   9.427
 2393POPC   GL133037  23.722  20.670   9.113
 2393POPC   GL233038  23.361  20.635   9.121
 2393POPC   C1A33039  23.833  20.517   8.725
 2393POPC   D2A33040  24.122  20.667   8.435
 2393POPC   C3A33041  23.895  20.531   8.121
 2393POPC   C4A33042  23.842  20.592   7.726
 2393POPC   C1B33043  23.335  20.440   8.743
 2393POPC   C2B33044  23.442  20.641   8.368
 2393POPC   C3B33045  23.333  20.596   7.947
 2393POPC   C4B33046  23.467  20.245   7.737
 2394POPC   NC333047  43.925  44.457   9.660
 2394POPC   PO433048  44.004   0.111   9.526
 2394POPC   GL133049  44.064  44.777   9.230
 2394POPC   GL233050  43.773  44.558   9.162
 2394POPC   C1A33051  44.017  44.765   8.768
 2394POPC   D2A33052  44.212  44.671   8.378
 2394POPC   C3A33053  43.968  44.787   8.044
 2394POPC   C4A33054  43.921  44.645   7.615
 2394POPC   C1B33055  43.590  44.326   8.801
 2394POPC   C2B33056  43.407  44.308   8.353
 2394POPC   C3B33057  43.535  44.494   7.922
 2394POPC   C4B33058  43.557  44.958   7.739
 2395POPC   NC333059  23.019   0.400   9.516
 2395POPC   PO433060  22.449   0.740   9.697
 2395POPC   GL133061  22.637   0.593   9.231
 2395POPC   GL233062  23.043   0.588   9.066
 2395POPC   C1A33063  22.679   0.453   8.770
 2395POPC   D2A33064  23.085   0.487   8.488
 2395POPC   C3A33065  22.956   0.501   8.076
 2395POPC   C4A33066  22.770   0.310   7.731
 2395POPC   C1B33067  23.110   0.137   8.854
 2395POPC   C2B33068  23.180  44.980   8.411
 2395POPC   C3B33069  23.168   0.055   7.969
 2395POPC   C4B33070  23.260   0.360   7.601
 2396POPC   NC333071   7.872  44.814   9.319
 2396POPC   PO433072   7.909  44.187   9.385
 2396POPC   GL133073   8.176  44.450   9.097
 2396POPC   GL233074   8.375  44.764   9.236
 2396POPC   C1A33075   8.172  44.737   8.721
 2396POPC   D2A33076   8.240  44.614   8.306
 2396POPC   C3A33077   7.982  44.670   8.028
 2396POPC   C4A33078   8.028  44.632   7.682
 2396POPC   C1B33079   8.644  44.618   8.960
 2396POPC   C2B33080   8.692  44.643   8.522
 2396POPC   C3B33081   8.694  44.670   8.096
 2396POPC   C4B33082   8.558  44.679   7.713
 2397POPC   NC333083  35.140   4.079   9.397
 2397POPC   PO433084  35.474   4.674   9.481
 2397POPC   GL133085  35.350   4.427   9.096
 2397POPC   GL233086  35.037   4.474   8.929
 2397POPC   C1A33087  35.471   4.365   8.676
 2397POPC   D2A33088  35.682   4.333   8.293
 2397POPC   C3A33089  35.464   4.233   7.955
 2397POPC   C4A33090  35.275   4.492   7.660
 2397POPC   C1B33091  35.050   4.072   8.760
 2397POPC   C2B33092  35.167   3.953   8.364
 2397POPC   C3B33093  34.976   4.103   8.012
 2397POPC   C4B33094  34.888   4.181   7.602
 2398POPC   NC333095   4.881  32.463   9.660
 2398POPC   PO433096   5.525  32.146   9.552
 2398POPC   GL133097   5.174  32.299   9.274
 2398POPC   GL233098   4.805  32.302   9.188
 2398POPC   C1A33099   5.169  32.397   8.819
 2398POPC   D2A33100   5.284  32.511   8.409
 2398POPC   C3A33101   5.293  32.190   8.108
 2398POPC   C4A33102   5.259  32.340   7.671
 2398POPC   C1B33103   4.684  32.071   8.853
 2398POPC   C2B33104   4.860  32.180   8.455
 2398POPC   C3B33105   4.796  32.268   8.029
 2398POPC   C4B33106   4.958  31.903   7.764
 2399POPC   NC333107   5.215  30.296   9.484
 2399POPC   PO433108   4.998  29.676   9.433
 2399POPC   GL133109   4.832  29.828   9.053
 2399POPC   GL233110   4.875  30.159   9.094
 2399POPC   C1A33111   4.785  30.021   8.603
 2399POPC   D2A33112   4.818  30.231   8.197
 2399POPC   C3A33113   5.081  30.012   7.862
 2399POPC   C4A33114   5.018  30.031   7.382
 2399POPC   C1B33115   5.245  30.061   8.812
 2399POPC   C2B33116   5.320  30.182   8.349
 2399POPC   C3B33117   5.585  30.152   7.944
 2399POPC   C4B33118   5.828  30.174   7.517
 2400POPC   NC333119   6.773  42.036   9.490
 2400POPC   PO433120   6.712  42.724   9.531
 2400POPC   GL133121   6.660  42.449   9.174
 2400POPC   GL233122   6.465  42.135   9.080
 2400POPC   C1A33123   6.809  42.435   8.749
 2400POPC   D2A33124   6.887  42.222   8.351
 2400POPC   C3A33125   6.790  42.462   7.946
 2400POPC   C4A33126   6.876  42.593   7.487
 2400POPC   C1B33127   6.502  42.011   8.662
 2400POPC   C2B33128   6.308  41.897   8.301
 2400POPC   C3B33129   6.359  41.883   7.887
 2400POPC   C4B33130   6.293  41.937   7.485
 2401POPC   NC333131  19.549   5.499   9.503
 2401POPC   PO433132  19.958   5.901   9.444
 2401POPC   GL133133  19.758   5.686   9.063
 2401POPC   GL233134  19.377   5.628   9.060
 2401POPC   C1A33135  19.947   5.710   8.628
 2401POPC   D2A33136  20.244   5.892   8.323
 2401POPC   C3A33137  19.980   6.022   7.974
 2401POPC   C4A33138  19.900   5.863   7.581
 2401POPC   C1B33139  19.436   5.655   8.640
 2401POPC   C2B33140  19.570   5.696   8.204
 2401POPC   C3B33141  19.437   5.845   7.793
 2401POPC   C4B33142  19.466   5.962   7.343
 2402POPC   NC333143  13.273  16.254   9.916
 2402POPC   PO433144  13.284  15.713   9.438
 2402POPC   GL133145  13.460  15.808   9.089
 2402POPC   GL233146  13.673  16.082   9.157
 2402POPC   C1A33147  13.592  15.841   8.687
 2402POPC   D2A33148  13.400  15.868   8.302
 2402POPC   C3A33149  13.664  15.743   8.036
 2402POPC   C4A33150  13.766  15.860   7.666
 2402POPC   C1B33151  13.497  16.355   8.813
 2402POPC   C2B33152  13.682  16.275   8.418
 2402POPC   C3B33153  13.752  16.327   8.023
 2402POPC   C4B33154  13.415  16.207   7.835
 2403POPC   NC333155  12.398  19.719   9.447
 2403POPC   PO433156  11.906  20.144   9.463
 2403POPC   GL133157  11.988  19.860   9.154
 2403POPC   GL233158  12.304  20.061   9.072
 2403POPC   C1A33159  12.087  19.721   8.743
 2403POPC   D2A33160  12.092  19.820   8.306
 2403POPC   C3A33161  11.970  19.533   7.980
 2403POPC   C4A33162  11.951  19.552   7.546
 2403POPC   C1B33163  12.376  20.158   8.624
 2403POPC   C2B33164  12.376  20.205   8.151
 2403POPC   C3B33165  12.112  20.047   7.811
 2403POPC   C4B33166  12.286  19.895   7.421
 2404POPC   NC333167  41.347  21.476   9.478
 2404POPC   PO433168  42.057  21.386   9.512
 2404POPC   GL133169  41.730  21.336   9.147
 2404POPC   GL233170  41.436  21.120   9.102
 2404POPC   C1A33171  41.534  21.609   8.800
 2404POPC   D2A33172  41.272  21.480   8.456
 2404POPC   C3A33173  41.395  21.563   8.040
 2404POPC   C4A33174  41.733  21.662   7.758
 2404POPC   C1B33175  41.630  21.131   8.689
 2404POPC   C2B33176  41.848  21.082   8.271
 2404POPC   C3B33177  41.690  21.150   7.865
 2404POPC   C4B33178  41.787  21.233   7.435
 2405POPC   NC333179  43.671  25.349   9.522
 2405POPC   PO433180  44.279  25.560   9.248
 2405POPC   GL133181  43.982  25.241   9.080
 2405POPC   GL233182  43.618  25.198   9.048
 2405POPC   C1A33183  43.999  25.038   8.690
 2405POPC   D2A33184  44.221  25.221   8.357
 2405POPC   C3A33185  43.999  25.221   8.002
 2405POPC   C4A33186  43.986  25.259   7.555
 2405POPC   C1B33187  43.702  25.441   8.681
 2405POPC   C2B33188  43.580  25.471   8.254
 2405POPC   C3B33189  43.709  25.589   7.821
 2405POPC   C4B33190  43.628  25.511   7.302
 2406POPC   NC333191  10.456   6.255   9.553
 2406POPC   PO433192  10.287   5.692   9.234
 2406POPC   GL133193  10.484   5.853   8.975
 2406POPC   GL233194  10.731   5.990   9.190
 2406POPC   C1A33195  10.564   5.748   8.549
 2406POPC   D2A33196  10.672   5.974   8.180
 2406POPC   C3A33197  10.437   5.853   7.807
 2406POPC   C4A33198  10.017   5.914   7.664
 2406POPC   C1B33199  10.996   5.862   8.839
 2406POPC   C2B33200  11.075   5.760   8.419
 2406POPC   C3B33201  10.981   5.602   7.966
 2406POPC   C4B33202  10.955   5.599   7.475
 2407POPC   NC333203  17.361   3.185   9.501
 2407POPC   PO433204  17.565   2.446   9.396
 2407POPC   GL133205  17.571   2.836   9.188
 2407POPC   GL233206  17.220   2.884   9.109
 2407POPC   C1A33207  17.660   2.908   8.770
 2407POPC   D2A33208  17.788   2.668   8.401
 2407POPC   C3A33209  17.719   2.891   8.027
 2407POPC   C4A33210  17.831   2.783   7.630
 2407POPC   C1B33211  17.300   2.531   8.812
 2407POPC   C2B33212  17.337   2.319   8.413
 2407POPC   C3B33213  17.390   2.499   8.009
 2407POPC   C4B33214  17.493   2.396   7.566
 2408POPC   NC333215   4.037  36.900   9.322
 2408POPC   PO433216   4.689  36.713   9.516
 2408POPC   GL133217   4.520  36.736   9.139
 2408POPC   GL233218   4.674  37.070   9.113
 2408POPC   C1A33219   4.317  36.745   8.732
 2408POPC   D2A33220   4.407  36.572   8.339
 2408POPC   C3A33221   4.198  36.662   7.952
 2408POPC   C4A33222   4.049  37.079   7.791
 2408POPC   C1B33223   4.841  36.861   8.745
 2408POPC   C2B33224   4.746  36.959   8.329
 2408POPC   C3B33225   4.567  37.059   7.928
 2408POPC   C4B33226   4.811  37.316   7.665
 2409POPC   NC333227  12.444   5.198   9.564
 2409POPC   PO433228  11.925   4.909   9.407
 2409POPC   GL133229  12.220   5.053   9.106
 2409POPC   GL233230  12.371   5.401   9.111
 2409POPC   C1A33231  12.017   5.206   8.747
 2409POPC   D2A33232  11.757   5.129   8.378
 2409POPC   C3A33233  11.946   5.272   7.999
 2409POPC   C4A33234  11.831   5.160   7.610
 2409POPC   C1B33235  12.547   5.292   8.722
 2409POPC   C2B33236  12.325   5.135   8.356
 2409POPC   C3B33237  12.313   4.927   7.985
 2409POPC   C4B33238  12.393   5.253   7.732
 2410POPC   NC333239   1.722  25.542   9.671
 2410POPC   PO433240   2.060  25.016   9.557
 2410POPC   GL133241   1.851  25.079   9.184
 2410POPC   GL233242   1.873  25.427   9.137
 2410POPC   C1A33243   1.810  25.105   8.740
 2410POPC   D2A33244   1.968  25.188   8.363
 2410POPC   C3A33245   1.962  24.882   8.107
 2410POPC   C4A33246   1.961  24.923   7.701
 2410POPC   C1B33247   2.197  25.453   8.769
 2410POPC   C2B33248   2.393  25.556   8.350
 2410POPC   C3B33249   2.152  25.496   7.988
 2410POPC   C4B33250   1.736  25.354   7.874
 2411POPC   NC333251  25.439  22.664   9.387
 2411POPC   PO433252  24.984  23.213   9.418
 2411POPC   GL133253  25.177  22.992   9.100
 2411POPC   GL233254  25.556  23.062   9.068
 2411POPC   C1A33255  25.104  22.806   8.719
 2411POPC   D2A33256  25.154  23.044   8.353
 2411POPC   C3A33257  25.190  22.847   7.963
 2411POPC   C4A33258  25.137  22.908   7.508
 2411POPC   C1B33259  25.638  23.138   8.618
 2411POPC   C2B33260  25.648  23.039   8.160
 2411POPC   C3B33261  25.534  23.149   7.721
 2411POPC   C4B33262  25.527  23.161   7.261
 2412POPC   NC333263   5.602  10.228   9.551
 2412POPC   PO433264   6.208  10.611   9.649
 2412POPC   GL133265   5.894  10.540   9.269
 2412POPC   GL233266   5.991  10.231   9.103
 2412POPC   C1A33267   5.607  10.430   8.855
 2412POPC   D2A33268   5.489  10.260   8.410
 2412POPC   C3A33269   5.529  10.517   7.997
 2412POPC   C4A33270   5.821  10.661   7.630
 2412POPC   C1B33271   6.024  10.236   8.628
 2412POPC   C2B33272   6.263  10.434   8.312
 2412POPC   C3B33273   6.169  10.387   7.871
 2412POPC   C4B33274   5.777  10.126   7.765
 2413POPC   NC333275  43.352   3.464   9.541
 2413POPC   PO433276  42.794   3.837   9.436
 2413POPC   GL133277  43.153   3.705   9.112
 2413POPC   GL233278  43.284   3.316   9.072
 2413POPC   C1A33279  43.226   3.622   8.657
 2413POPC   D2A33280  42.955   3.446   8.316
 2413POPC   C3A33281  42.908   3.608   7.906
 2413POPC   C4A33282  42.922   3.354   7.549
 2413POPC   C1B33283  43.451   3.033   8.755
 2413POPC   C2B33284  43.427   3.253   8.380
 2413POPC   C3B33285  43.302   3.311   7.941
 2413POPC   C4B33286  43.590   3.228   7.612
 2414POPC   NC333287  10.541  37.794   9.445
 2414POPC   PO433288  10.516  37.156   9.560
 2414POPC   GL133289  10.628  37.374   9.138
 2414POPC   GL233290  10.682  37.749   8.970
 2414POPC   C1A33291  10.654  37.342   8.672
 2414POPC   D2A33292  10.592  37.730   8.440
 2414POPC   C3A33293  10.520  37.738   8.032
 2414POPC   C4A33294  10.672  37.444   7.769
 2414POPC   C1B33295  10.284  37.938   8.775
 2414POPC   C2B33296  10.094  37.888   8.344
 2414POPC   C3B33297  10.067  37.942   7.884
 2414POPC   C4B33298  10.207  37.691   7.586
 2415POPC   NC333299  35.435  32.056   9.342
 2415POPC   PO433300  35.435  32.726   9.302
 2415POPC   GL133301  35.513  32.407   8.973
 2415POPC   GL233302  35.174  32.321   9.022
 2415POPC   C1A33303  35.683  32.138   8.604
 2415POPC   D2A33304  35.713  32.098   8.105
 2415POPC   C3A33305  35.614  32.503   7.908
 2415POPC   C4A33306  35.388  32.522   7.486
 2415POPC   C1B33307  35.147  32.012   8.717
 2415POPC   C2B33308  35.249  32.027   8.297
 2415POPC   C3B33309  35.225  32.147   7.864
 2415POPC   C4B33310  34.902  31.943   7.624
 2416POPC   NC333311  22.084  27.774   9.680
 2416POPC   PO433312  22.332  27.169   9.606
 2416POPC   GL133313  22.234  27.411   9.209
 2416POPC   GL233314  22.387  27.766   9.252
 2416POPC   C1A33315  22.045  27.383   8.752
 2416POPC   D2A33316  21.803  27.530   8.392
 2416POPC   C3A33317  22.101  27.502   8.081
 2416POPC   C4A33318  22.068  27.331   7.692
 2416POPC   C1B33319  22.096  27.846   8.914
 2416POPC   C2B33320  22.173  27.871   8.476
 2416POPC   C3B33321  21.991  28.008   8.101
 2416POPC   C4B33322  22.052  27.849   7.684
 2417POPC   NC333323  19.350  33.195   9.537
 2417POPC   PO433324  18.818  32.741   9.463
 2417POPC   GL133325  19.163  32.858   9.205
 2417POPC   GL233326  18.991  33.143   9.172
 2417POPC   C1A33327  19.368  33.121   8.837
 2417POPC   D2A33328  19.216  33.018   8.437
 2417POPC   C3A33329  19.333  33.093   8.063
 2417POPC   C4A33330  19.182  32.939   7.697
 2417POPC   C1B33331  18.895  33.240   8.752
 2417POPC   C2B33332  18.826  33.319   8.321
 2417POPC   C3B33333  18.809  33.041   8.000
 2417POPC   C4B33334  18.657  32.924   7.577
 2418POPC   NC333335  38.780  42.699   9.201
 2418POPC   PO433336  38.523  43.333   9.137
 2418POPC   GL133337  38.366  42.941   9.025
 2418POPC   GL233338  38.057  42.813   9.198
 2418POPC   C1A33339  38.477  42.876   8.589
 2418POPC   D2A33340  38.477  43.209   8.260
 2418POPC   C3A33341  38.503  43.137   7.831
 2418POPC   C4A33342  38.557  43.471   7.534
 2418POPC   C1B33343  37.974  42.808   8.736
 2418POPC   C2B33344  38.084  42.847   8.269
 2418POPC   C3B33345  38.181  42.673   7.872
 2418POPC   C4B33346  38.254  42.873   7.473
 2419POPC   NC333347  24.767   3.253   9.376
 2419POPC   PO433348  24.214   3.781   9.501
 2419POPC   GL133349  24.453   3.605   9.167
 2419POPC   GL233350  24.372   3.265   9.059
 2419POPC   C1A33351  24.693   3.575   8.771
 2419POPC   D2A33352  24.884   3.635   8.361
 2419POPC   C3A33353  24.754   3.630   7.930
 2419POPC   C4A33354  24.691   3.384   7.543
 2419POPC   C1B33355  24.171   3.516   8.749
 2419POPC   C2B33356  24.199   3.397   8.348
 2419POPC   C3B33357  24.041   3.612   8.030
 2419POPC   C4B33358  24.270   3.587   7.704
 2420POPC   NC333359   3.217   1.382   9.425
 2420POPC   PO433360   3.755   1.129   9.639
 2420POPC   GL133361   3.591   1.092   9.209
 2420POPC   GL233362   3.912   0.923   9.182
 2420POPC   C1A33363   3.424   1.305   8.796
 2420POPC   D2A33364   3.637   1.444   8.399
 2420POPC   C3A33365   3.470   1.376   7.976
 2420POPC   C4A33366   3.230   1.479   7.606
 2420POPC   C1B33367   3.927   1.176   8.819
 2420POPC   C2B33368   3.949   1.018   8.422
 2420POPC   C3B33369   3.881   1.105   8.008
 2420POPC   C4B33370   3.585   1.053   7.587
 2421POPC   NC333371  17.902  13.006   9.450
 2421POPC   PO433372  18.554  13.090   9.471
 2421POPC   GL133373  18.320  12.831   9.157
 2421POPC   GL233374  18.554  12.591   8.987
 2421POPC   C1A33375  18.103  12.758   8.752
 2421POPC   D2A33376  18.151  13.009   8.355
 2421POPC   C3A33377  18.008  12.849   7.959
 2421POPC   C4A33378  18.309  12.547   7.834
 2421POPC   C1B33379  18.574  12.944   8.709
 2421POPC   C2B33380  18.770  13.009   8.322
 2421POPC   C3B33381  18.515  13.037   7.951
 2421POPC   C4B33382  18.728  12.814   7.629
 2422POPC   NC333383   4.171  19.743   9.485
 2422POPC   PO433384   4.817  19.485   9.583
 2422POPC   GL133385   4.623  19.753   9.236
 2422POPC   GL233386   4.344  19.668   9.022
 2422POPC   C1A33387   4.656  20.054   8.923
 2422POPC   D2A33388   4.460  20.004   8.544
 2422POPC   C3A33389   4.647  19.849   8.176
 2422POPC   C4A33390   4.394  20.055   7.898
 2422POPC   C1B33391   4.189  19.499   8.648
 2422POPC   C2B33392   4.152  19.693   8.260
 2422POPC   C3B33393   4.263  19.572   7.894
 2422POPC   C4B33394   4.249  19.248   7.661
 2423POPC   NC333395  31.622   6.809   9.482
 2423POPC   PO433396  31.033   6.474   9.472
 2423POPC   GL133397  31.357   6.424   9.138
 2423POPC   GL233398  31.590   6.699   9.005
 2423POPC   C1A33399  31.250   6.498   8.714
 2423POPC   D2A33400  31.403   6.365   8.311
 2423POPC   C3A33401  31.379   6.708   8.030
 2423POPC   C4A33402  31.223   6.877   7.703
 2423POPC   C1B33403  31.760   6.422   8.698
 2423POPC   C2B33404  31.924   6.515   8.288
 2423POPC   C3B33405  31.753   6.399   7.894
 2423POPC   C4B33406  31.750   6.543   7.460
 2424POPC   NC333407  16.807   1.735   9.763
 2424POPC   PO433408  16.581   2.386   9.567
 2424POPC   GL133409  16.780   2.058   9.269
 2424POPC   GL233410  16.775   1.710   9.106
 2424POPC   C1A33411  16.987   2.103   8.842
 2424POPC   D2A33412  16.805   2.151   8.434
 2424POPC   C3A33413  17.004   2.143   8.030
 2424POPC   C4A33414  16.992   2.419   7.668
 2424POPC   C1B33415  16.735   1.642   8.629
 2424POPC   C2B33416  16.522   1.780   8.220
 2424POPC   C3B33417  16.522   1.963   7.780
 2424POPC   C4B33418  16.365   1.783   7.376
 2425POPC   NC333419  20.076  36.322   9.471
 2425POPC   PO433420  19.583  35.868   9.287
 2425POPC   GL133421  19.866  36.076   9.034
 2425POPC   GL233422  19.661  36.363   9.107
 2425POPC   C1A33423  20.106  35.882   8.683
 2425POPC   D2A33424  20.201  35.647   8.285
 2425POPC   C3A33425  19.965  35.855   7.931
 2425POPC   C4A33426  19.886  36.063   7.547
 2425POPC   C1B33427  19.516  36.535   8.693
 2425POPC   C2B33428  19.582  36.441   8.263
 2425POPC   C3B33429  19.871  36.426   7.928
 2425POPC   C4B33430  19.721  36.533   7.509
 2426POPC   NC333431   6.282  37.958   9.440
 2426POPC   PO433432   5.979  37.416   9.681
 2426POPC   GL133433   5.878  37.658   9.200
 2426POPC   GL233434   5.638  37.876   9.118
 2426POPC   C1A33435   6.015  37.879   8.787
 2426POPC   D2A33436   6.347  37.930   8.474
 2426POPC   C3A33437   6.221  37.954   8.050
 2426POPC   C4A33438   6.246  37.695   7.702
 2426POPC   C1B33439   5.530  37.606   8.804
 2426POPC   C2B33440   5.690  37.659   8.393
 2426POPC   C3B33441   5.775  37.670   7.968
 2426POPC   C4B33442   5.646  37.987   7.689
 2427POPC   NC333443   6.080   6.988   9.670
 2427POPC   PO433444   6.122   7.624   9.551
 2427POPC   GL133445   6.031   7.574   9.138
 2427POPC   GL233446   6.026   7.197   9.169
 2427POPC   C1A33447   5.704   7.671   8.820
 2427POPC   D2A33448   5.491   7.548   8.420
 2427POPC   C3A33449   5.620   7.630   7.996
 2427POPC   C4A33450   5.929   7.425   7.794
 2427POPC   C1B33451   5.926   7.224   8.728
 2427POPC   C2B33452   5.859   7.202   8.271
 2427POPC   C3B33453   6.067   6.969   7.952
 2427POPC   C4B33454   6.003   7.008   7.490
 2428POPC   NC333455  14.515  30.529   9.688
 2428POPC   PO433456  14.374  30.926   9.297
 2428POPC   GL133457  14.310  30.488   9.144
 2428POPC   GL233458  13.988  30.396   8.998
 2428POPC   C1A33459  14.468  30.436   8.723
 2428POPC   D2A33460  14.425  30.707   8.366
 2428POPC   C3A33461  14.586  30.600   7.969
 2428POPC   C4A33462  14.972  30.430   7.818
 2428POPC   C1B33463  14.000  30.694   8.718
 2428POPC   C2B33464  13.916  30.594   8.314
 2428POPC   C3B33465  14.094  30.397   7.969
 2428POPC   C4B33466  14.074  30.562   7.557
 2429POPC   NC333467  34.369  41.888   9.501
 2429POPC   PO433468  34.758  41.361   9.490
 2429POPC   GL133469  34.550  41.567   9.141
 2429POPC   GL233470  34.641  41.922   9.094
 2429POPC   C1A33471  34.505  41.599   8.710
 2429POPC   D2A33472  34.479  41.291   8.384
 2429POPC   C3A33473  34.326  41.362   7.987
 2429POPC   C4A33474  34.333  41.763   7.735
 2429POPC   C1B33475  34.964  41.739   8.883
 2429POPC   C2B33476  34.949  41.674   8.450
 2429POPC   C3B33477  34.738  41.653   8.062
 2429POPC   C4B33478  34.707  41.458   7.649
 2430POPC   NC333479  13.869  25.326   9.246
 2430POPC   PO433480  14.267  24.973   9.646
 2430POPC   GL133481  14.378  25.150   9.185
 2430POPC   GL233482  14.434  25.476   9.055
 2430POPC   C1A33483  14.352  25.145   8.689
 2430POPC   D2A33484  14.518  25.449   8.363
 2430POPC   C3A33485  14.560  25.258   7.945
 2430POPC   C4A33486  14.388  24.947   7.711
 2430POPC   C1B33487  14.180  25.627   8.727
 2430POPC   C2B33488  13.967  25.445   8.455
 2430POPC   C3B33489  14.076  25.452   8.063
 2430POPC   C4B33490  14.081  25.344   7.684
 2431POPC   NC333491  31.165  29.060   9.527
 2431POPC   PO433492  31.659  29.481   9.513
 2431POPC   GL133493  31.387  29.383   9.179
 2431POPC   GL233494  31.554  29.075   9.114
 2431POPC   C1A33495  31.218  29.612   8.809
 2431POPC   D2A33496  31.035  29.626   8.370
 2431POPC   C3A33497  31.124  29.219   8.137
 2431POPC   C4A33498  31.223  28.860   7.867
 2431POPC   C1B33499  31.776  29.062   8.706
 2431POPC   C2B33500  31.832  29.163   8.248
 2431POPC   C3B33501  31.715  29.079   7.790
 2431POPC   C4B33502  31.805  29.257   7.351
 2432POPC   NC333503  28.344   1.887   9.598
 2432POPC   PO433504  28.744   2.437   9.485
 2432POPC   GL133505  28.543   2.100   9.185
 2432POPC   GL233506  28.534   1.713   9.167
 2432POPC   C1A33507  28.422   1.947   8.755
 2432POPC   D2A33508  28.414   2.124   8.388
 2432POPC   C3A33509  28.436   1.857   8.035
 2432POPC   C4A33510  28.256   1.871   7.625
 2432POPC   C1B33511  28.781   1.575   8.814
 2432POPC   C2B33512  28.829   1.802   8.431
 2432POPC   C3B33513  28.990   1.711   8.050
 2432POPC   C4B33514  28.847   1.831   7.694
 2433POPC   NC333515  40.964  17.840   9.782
 2433POPC   PO433516  40.785  18.408   9.531
 2433POPC   GL133517  40.580  18.321   9.167
 2433POPC   GL233518  40.433  18.637   9.090
 2433POPC   C1A33519  40.720  18.125   8.813
 2433POPC   D2A33520  40.813  18.310   8.431
 2433POPC   C3A33521  40.784  18.167   8.013
 2433POPC   C4A33522  41.115  18.186   7.713
 2433POPC   C1B33523  40.347  18.443   8.667
 2433POPC   C2B33524  40.391  18.481   8.204
 2433POPC   C3B33525  40.432  18.531   7.750
 2433POPC   C4B33526  40.376  18.617   7.271
 2434POPC   NC333527  18.501  31.342   9.482
 2434POPC   PO433528  19.129  31.342   9.900
 2434POPC   GL133529  19.054  31.326   9.396
 2434POPC   GL233530  19.105  31.665   9.239
 2434POPC   C1A33531  19.240  31.242   8.943
 2434POPC   D2A33532  19.140  31.044   8.506
 2434POPC   C3A33533  19.113  31.289   8.121
 2434POPC   C4A33534  19.206  31.269   7.687
 2434POPC   C1B33535  19.225  31.767   8.801
 2434POPC   C2B33536  19.202  31.781   8.336
 2434POPC   C3B33537  19.354  31.710   7.908
 2434POPC   C4B33538  19.157  31.782   7.480
 2435POPC   NC333539  17.327  28.208   9.586
 2435POPC   PO433540  17.737  28.743   9.414
 2435POPC   GL133541  17.605  28.321   9.168
 2435POPC   GL233542  17.241  28.234   9.093
 2435POPC   C1A33543  17.659  28.053   8.784
 2435POPC   D2A33544  17.718  28.274   8.392
 2435POPC   C3A33545  17.519  28.218   8.032
 2435POPC   C4A33546  17.289  28.241   7.678
 2435POPC   C1B33547  17.256  28.362   8.674
 2435POPC   C2B33548  17.099  28.384   8.247
 2435POPC   C3B33549  17.187  28.664   7.906
 2435POPC   C4B33550  17.205  28.636   7.391
 2436POPC   NC333551  32.340   2.992   9.739
 2436POPC   PO433552  32.946   2.657   9.508
 2436POPC   GL133553  33.064   2.773   9.109
 2436POPC   GL233554  33.289   2.528   8.977
 2436POPC   C1A33555  32.839   2.975   8.753
 2436POPC   D2A33556  32.613   2.862   8.387
 2436POPC   C3A33557  32.853   2.989   8.046
 2436POPC   C4A33558  33.014   2.820   7.690
 2436POPC   C1B33559  33.288   2.769   8.606
 2436POPC   C2B33560  33.298   2.753   8.150
 2436POPC   C3B33561  33.471   2.656   7.748
 2436POPC   C4B33562  33.282   2.603   7.293
 2437POPC   NC333563  15.859  44.016   9.628
 2437POPC   PO433564  16.453  43.705   9.569
 2437POPC   GL133565  16.196  43.894   9.266
 2437POPC   GL233566  16.014  43.657   9.160
 2437POPC   C1A33567  16.179  44.000   8.823
 2437POPC   D2A33568  15.936  43.982   8.431
 2437POPC   C3A33569  16.047  43.934   8.027
 2437POPC   C4A33570  15.825  44.151   7.687
 2437POPC   C1B33571  15.958  43.558   8.686
 2437POPC   C2B33572  15.656  43.565   8.352
 2437POPC   C3B33573  15.551  43.782   7.949
 2437POPC   C4B33574  15.508  43.785   7.479
 2438POPC   NC333575  32.008  10.370   9.594
 2438POPC   PO433576  32.562  10.663   9.657
 2438POPC   GL133577  32.386  10.488   9.243
 2438POPC   GL233578  32.326  10.803   9.081
 2438POPC   C1A33579  32.101  10.343   8.872
 2438POPC   D2A33580  32.037  10.217   8.396
 2438POPC   C3A33581  32.120  10.456   7.999
 2438POPC   C4A33582  32.187  10.359   7.543
 2438POPC   C1B33583  32.216  10.777   8.632
 2438POPC   C2B33584  32.349  10.955   8.263
 2438POPC   C3B33585  32.195  10.963   7.865
 2438POPC   C4B33586  32.479  10.729   7.675
 2439POPC   NC333587   0.709  32.783   9.534
 2439POPC   PO433588   0.022  32.883   9.501
 2439POPC   GL133589   0.197  33.252   9.261
 2439POPC   GL233590   0.506  33.070   9.147
 2439POPC   C1A33591   0.324  33.428   8.839
 2439POPC   D2A33592   0.368  33.166   8.481
 2439POPC   C3A33593   0.267  33.294   8.108
 2439POPC   C4A33594   0.248  33.077   7.763
 2439POPC   C1B33595   0.774  33.186   8.771
 2439POPC   C2B33596   0.916  33.126   8.364
 2439POPC   C3B33597   0.715  33.059   7.981
 2439POPC   C4B33598   0.695  32.994   7.546
 2440POPC   NC333599  39.377  11.644   9.397
 2440POPC   PO433600  39.364  10.988   9.421
 2440POPC   GL133601  39.312  11.113   8.965
 2440POPC   GL233602  39.468  11.465   8.939
 2440POPC   C1A33603  39.102  11.339   8.599
 2440POPC   D2A33604  38.823  11.602   8.301
 2440POPC   C3A33605  38.766  11.451   7.883
 2440POPC   C4A33606  38.960  11.177   7.594
 2440POPC   C1B33607  39.620  11.272   8.577
 2440POPC   C2B33608  39.403  10.973   8.354
 2440POPC   C3B33609  39.146  11.161   8.081
 2440POPC   C4B33610  39.279  11.520   7.846
 2441POPC   NC333611  27.889   5.833   9.581
 2441POPC   PO433612  27.266   5.944   9.406
 2441POPC   GL133613  27.576   5.829   9.162
 2441POPC   GL233614  27.760   6.110   9.177
 2441POPC   C1A33615  27.635   5.694   8.773
 2441POPC   D2A33616  27.668   5.654   8.344
 2441POPC   C3A33617  27.285   5.788   8.145
 2441POPC   C4A33618  27.375   5.915   7.738
 2441POPC   C1B33619  27.947   6.147   8.765
 2441POPC   C2B33620  28.057   6.068   8.327
 2441POPC   C3B33621  27.838   6.023   7.948
 2441POPC   C4B33622  27.919   6.009   7.501
 2442POPC   NC333623  43.017   0.778   9.590
 2442POPC   PO433624  43.365   1.359   9.660
 2442POPC   GL133625  43.298   1.031   9.240
 2442POPC   GL233626  42.959   1.001   9.114
 2442POPC   C1A33627  43.313   1.099   8.692
 2442POPC   D2A33628  43.584   1.252   8.329
 2442POPC   C3A33629  43.353   1.457   7.978
 2442POPC   C4A33630  43.087   1.265   7.676
 2442POPC   C1B33631  42.805   1.139   8.709
 2442POPC   C2B33632  42.979   1.133   8.288
 2442POPC   C3B33633  42.874   0.884   7.945
 2442POPC   C4B33634  42.772   0.898   7.515
 2443POPC   NC333635  36.807  17.837   9.523
 2443POPC   PO433636  37.140  18.412   9.533
 2443POPC   GL133637  37.007  18.460   9.103
 2443POPC   GL233638  36.806  18.152   9.119
 2443POPC   C1A33639  36.726  18.429   8.710
 2443POPC   D2A33640  36.796  18.200   8.302
 2443POPC   C3A33641  36.667  18.391   7.907
 2443POPC   C4A33642  36.634  18.798   7.893
 2443POPC   C1B33643  37.125  18.109   8.754
 2443POPC   C2B33644  37.303  18.322   8.384
 2443POPC   C3B33645  37.187  18.477   8.011
 2443POPC   C4B33646  37.076  18.367   7.628
 2444POPC   NC333647  36.175  35.057   9.295
 2444POPC   PO433648  36.170  34.451   9.585
 2444POPC   GL133649  36.066  34.544   9.170
 2444POPC   GL233650  35.790  34.771   9.115
 2444POPC   C1A33651  36.194  34.654   8.757
 2444POPC   D2A33652  36.398  34.710   8.377
 2444POPC   C3A33653  36.130  34.596   8.066
 2444POPC   C4A33654  36.165  34.690   7.680
 2444POPC   C1B33655  35.649  34.682   8.726
 2444POPC   C2B33656  35.830  34.441   8.444
 2444POPC   C3B33657  35.843  34.134   8.097
 2444POPC   C4B33658  35.900  34.247   7.654
 2445POPC   NC333659  14.634   6.366   9.487
 2445POPC   PO433660  14.162   6.845   9.501
 2445POPC   GL133661  14.220   6.523   9.163
 2445POPC   GL233662  14.500   6.337   9.010
 2445POPC   C1A33663  14.116   6.530   8.735
 2445POPC   D2A33664  14.232   6.461   8.318
 2445POPC   C3A33665  14.197   6.711   7.978
 2445POPC   C4A33666  14.217   6.512   7.612
 2445POPC   C1B33667  14.635   6.289   8.602
 2445POPC   C2B33668  14.584   6.127   8.198
 2445POPC   C3B33669  14.660   6.334   7.838
 2445POPC   C4B33670  15.028   6.464   7.604
 2446POPC   NC333671  13.123  24.693   9.327
 2446POPC   PO433672  13.765  24.789   9.450
 2446POPC   GL133673  13.579  24.414   9.181
 2446POPC   GL233674  13.256  24.196   9.188
 2446POPC   C1A33675  13.489  24.426   8.741
 2446POPC   D2A33676  13.491  24.773   8.463
 2446POPC   C3A33677  13.486  24.639   8.078
 2446POPC   C4A33678  13.744  24.388   7.851
 2446POPC   C1B33679  13.085  24.126   8.774
 2446POPC   C2B33680  13.127  24.364   8.367
 2446POPC   C3B33681  13.197  24.213   7.946
 2446POPC   C4B33682  13.428  24.123   7.538
 2447POPC   NC333683   1.377  31.192   9.419
 2447POPC   PO433684   1.543  31.838   9.472
 2447POPC   GL133685   1.388  31.629   9.138
 2447POPC   GL233686   1.039  31.567   9.143
 2447POPC   C1A33687   1.337  31.766   8.712
 2447POPC   D2A33688   1.035  31.715   8.359
 2447POPC   C3A33689   1.242  31.687   7.955
 2447POPC   C4A33690   1.202  31.697   7.508
 2447POPC   C1B33691   0.984  31.378   8.746
 2447POPC   C2B33692   0.942  31.193   8.329
 2447POPC   C3B33693   1.062  31.207   7.871
 2447POPC   C4B33694   1.086  31.210   7.401
 2448POPC   NC333695  11.582  24.831   9.374
 2448POPC   PO433696  11.157  25.405   9.506
 2448POPC   GL133697  11.247  25.376   9.092
 2448POPC   GL233698  11.136  25.024   9.063
 2448POPC   C1A33699  11.156  25.476   8.655
 2448POPC   D2A33700  11.171  25.258   8.238
 2448POPC   C3A33701  10.924  25.292   7.816
 2448POPC   C4A33702  11.023  25.070   7.374
 2448POPC   C1B33703  11.430  25.038   8.729
 2448POPC   C2B33704  11.675  25.349   8.525
 2448POPC   C3B33705  11.707  25.354   8.091
 2448POPC   C4B33706  11.633  25.617   7.723
 2449POPC   NC333707  20.694  41.096   9.748
 2449POPC   PO433708  20.398  40.558   9.408
 2449POPC   GL133709  20.678  40.819   9.199
 2449POPC   GL233710  20.466  41.091   9.281
 2449POPC   C1A33711  20.822  40.719   8.764
 2449POPC   D2A33712  21.003  40.674   8.332
 2449POPC   C3A33713  20.827  40.890   7.947
 2449POPC   C4A33714  20.676  40.679   7.523
 2449POPC   C1B33715  20.540  41.130   8.814
 2449POPC   C2B33716  20.477  40.869   8.411
 2449POPC   C3B33717  20.348  41.046   8.006
 2449POPC   C4B33718  20.334  41.074   7.572
 2450POPC   NC333719  10.307  21.098   9.470
 2450POPC   PO433720  10.950  21.438   9.626
 2450POPC   GL133721  10.629  21.467   9.240
 2450POPC   GL233722  10.629  21.125   9.087
 2450POPC   C1A33723  10.440  21.466   8.788
 2450POPC   D2A33724  10.617  21.260   8.391
 2450POPC   C3A33725  10.550  21.438   7.976
 2450POPC   C4A33726  10.589  21.768   7.674
 2450POPC   C1B33727  10.385  20.956   8.727
 2450POPC   C2B33728  10.367  20.837   8.279
 2450POPC   C3B33729  10.654  20.949   7.922
 2450POPC   C4B33730  10.313  21.093   7.655
 2451POPC   NC333731  16.347  12.981   9.463
 2451POPC   PO433732  15.675  12.715   9.595
 2451POPC   GL133733  15.758  12.886   9.160
 2451POPC   GL233734  16.028  13.133   9.109
 2451POPC   C1A33735  15.948  12.856   8.707
 2451POPC   D2A33736  16.066  12.710   8.290
 2451POPC   C3A33737  15.870  12.996   8.026
 2451POPC   C4A33738  15.735  12.884   7.647
 2451POPC   C1B33739  16.292  13.297   8.791
 2451POPC   C2B33740  16.213  13.194   8.367
 2451POPC   C3B33741  16.385  13.071   7.966
 2451POPC   C4B33742  16.250  12.890   7.562
 2452POPC   NC333743  33.403  24.055   9.653
 2452POPC   PO433744  33.839  23.696   9.446
 2452POPC   GL133745  33.776  23.629   9.046
 2452POPC   GL233746  34.064  23.774   8.869
 2452POPC   C1A33747  33.692  23.547   8.604
 2452POPC   D2A33748  33.888  23.814   8.325
 2452POPC   C3A33749  33.857  23.708   7.891
 2452POPC   C4A33750  33.580  23.408   7.705
 2452POPC   C1B33751  33.669  24.048   8.762
 2452POPC   C2B33752  33.441  24.196   8.379
 2452POPC   C3B33753  33.524  24.175   7.908
 2452POPC   C4B33754  33.572  23.919   7.515
 2453POPC   NC333755  40.168  16.897   9.444
 2453POPC   PO433756  39.951  16.275   9.439
 2453POPC   GL133757  40.124  16.518   9.085
 2453POPC   GL233758  39.875  16.778   8.982
 2453POPC   C1A33759  40.159  16.474   8.634
 2453POPC   D2A33760  39.890  16.443   8.252
 2453POPC   C3A33761  40.117  16.691   7.983
 2453POPC   C4A33762  40.390  16.555   7.660
 2453POPC   C1B33763  40.204  16.978   8.774
 2453POPC   C2B33764  40.373  16.991   8.342
 2453POPC   C3B33765  40.205  17.195   7.981
 2453POPC   C4B33766  39.779  17.150   7.841
 2454POPC   NC333767  20.263  14.270   9.605
 2454POPC   PO433768  20.960  14.287   9.579
 2454POPC   GL133769  20.669  14.448   9.271
 2454POPC   GL233770  20.520  14.752   9.389
 2454POPC   C1A33771  20.714  14.446   8.817
 2454POPC   D2A33772  20.636  14.157   8.480
 2454POPC   C3A33773  20.569  14.399   8.131
 2454POPC   C4A33774  20.572  14.281   7.714
 2454POPC   C1B33775  20.316  14.728   8.975
 2454POPC   C2B33776  20.268  14.676   8.511
 2454POPC   C3B33777  20.160  14.720   8.078
 2454POPC   C4B33778  20.487  14.777   7.769
 2455POPC   NC333779  32.363  20.284   9.507
 2455POPC   PO433780  32.324  19.656   9.652
 2455POPC   GL133781  32.330  19.849   9.231
 2455POPC   GL233782  31.983  20.070   9.224
 2455POPC   C1A33783  32.547  19.946   8.827
 2455POPC   D2A33784  32.685  19.775   8.434
 2455POPC   C3A33785  32.484  19.746   8.038
 2455POPC   C4A33786  32.422  19.931   7.669
 2455POPC   C1B33787  32.039  19.892   8.816
 2455POPC   C2B33788  32.172  19.940   8.416
 2455POPC   C3B33789  32.050  20.058   8.005
 2455POPC   C4B33790  31.927  19.755   7.714
 2456POPC   NC333791   3.763  27.836   9.296
 2456POPC   PO433792   3.283  27.397   9.638
 2456POPC   GL133793   3.393  27.492   9.225
 2456POPC   GL233794   3.087  27.655   9.191
 2456POPC   C1A33795   3.643  27.427   8.807
 2456POPC   D2A33796   3.704  27.705   8.444
 2456POPC   C3A33797   3.788  27.541   8.042
 2456POPC   C4A33798   3.715  27.746   7.650
 2456POPC   C1B33799   3.204  27.687   8.755
 2456POPC   C2B33800   3.232  27.911   8.354
 2456POPC   C3B33801   3.286  27.773   7.937
 2456POPC   C4B33802   3.390  27.365   7.775
 2457POPC   NC333803  16.608  44.154   9.471
 2457POPC   PO433804  17.235  43.851   9.399
 2457POPC   GL133805  16.967  43.930   9.084
 2457POPC   GL233806  16.664  43.786   9.114
 2457POPC   C1A33807  16.806  43.992   8.693
 2457POPC   D2A33808  16.492  43.985   8.424
 2457POPC   C3A33809  16.746  43.898   8.150
 2457POPC   C4A33810  16.985  44.098   7.843
 2457POPC   C1B33811  16.455  43.565   8.783
 2457POPC   C2B33812  16.309  43.531   8.337
 2457POPC   C3B33813  16.425  43.562   7.946
 2457POPC   C4B33814  16.469  43.923   7.734
 2458POPC   NC333815  40.269  15.907   9.537
 2458POPC   PO433816  39.628  15.627   9.659
 2458POPC   GL133817  39.872  15.798   9.227
 2458POPC   GL233818  40.232  15.660   9.109
 2458POPC   C1A33819  39.757  15.814   8.740
 2458POPC   D2A33820  39.590  15.846   8.285
 2458POPC   C3A33821  39.846  15.969   7.919
 2458POPC   C4A33822  39.911  16.369   7.658
 2458POPC   C1B33823  40.223  15.990   8.837
 2458POPC   C2B33824  40.118  16.009   8.401
 2458POPC   C3B33825  40.299  16.170   8.026
 2458POPC   C4B33826  40.293  16.038   7.586
 2459POPC   NC333827  30.188   1.174   9.501
 2459POPC   PO433828  29.717   1.671   9.487
 2459POPC   GL133829  29.857   1.420   9.141
 2459POPC   GL233830  29.816   1.049   9.155
 2459POPC   C1A33831  29.919   1.308   8.714
 2459POPC   D2A33832  30.043   1.255   8.286
 2459POPC   C3A33833  29.899   1.529   7.962
 2459POPC   C4A33834  29.865   1.450   7.558
 2459POPC   C1B33835  29.640   0.856   8.800
 2459POPC   C2B33836  29.617   0.983   8.377
 2459POPC   C3B33837  29.765   0.907   7.965
 2459POPC   C4B33838  29.777   0.594   7.629
 2460POPC   NC333839  28.624  22.660   9.256
 2460POPC   PO433840  28.167  22.221   9.394
 2460POPC   GL133841  28.237  22.364   9.030
 2460POPC   GL233842  28.094  22.672   8.962
 2460POPC   C1A33843  28.314  22.167   8.664
 2460POPC   D2A33844  28.270  22.342   8.291
 2460POPC   C3A33845  28.306  22.197   7.908
 2460POPC   C4A33846  28.134  22.064   7.525
 2460POPC   C1B33847  28.358  22.724   8.616
 2460POPC   C2B33848  28.721  22.648   8.357
 2460POPC   C3B33849  28.778  22.451   7.976
 2460POPC   C4B33850  28.528  22.563   7.629
 2461POPC   NC333851  15.707  23.610   9.566
 2461POPC   PO433852  16.258  23.553   9.484
 2461POPC   GL133853  16.007  23.655   9.100
 2461POPC   GL233854  15.750  23.922   9.153
 2461POPC   C1A33855  16.062  23.535   8.641
 2461POPC   D2A33856  16.009  23.360   8.194
 2461POPC   C3A33857  16.267  23.474   7.840
 2461POPC   C4A33858  16.277  23.844   7.585
 2461POPC   C1B33859  15.859  24.007   8.720
 2461POPC   C2B33860  15.858  23.853   8.295
 2461POPC   C3B33861  15.835  23.750   7.869
 2461POPC   C4B33862  15.802  24.058   7.521
 2462POPC   NC333863  18.148  39.484   9.641
 2462POPC   PO433864  18.216  38.817   9.547
 2462POPC   GL133865  18.114  39.088   9.247
 2462POPC   GL233866  18.247  38.854   9.020
 2462POPC   C1A33867  18.143  39.353   8.880
 2462POPC   D2A33868  18.384  39.431   8.489
 2462POPC   C3A33869  18.113  39.351   8.108
 2462POPC   C4A33870  18.178  39.454   7.656
 2462POPC   C1B33871  18.300  38.924   8.583
 2462POPC   C2B33872  18.586  39.003   8.249
 2462POPC   C3B33873  18.479  39.093   7.867
 2462POPC   C4B33874  18.132  38.957   7.640
 2463POPC   NC333875  25.080  35.413   9.580
 2463POPC   PO433876  25.744  35.105   9.511
 2463POPC   GL133877  25.403  35.185   9.231
 2463POPC   GL233878  25.277  35.495   9.120
 2463POPC   C1A33879  25.287  35.092   8.800
 2463POPC   D2A33880  25.087  35.132   8.402
 2463POPC   C3A33881  25.327  35.141   7.994
 2463POPC   C4A33882  25.377  35.028   7.542
 2463POPC   C1B33883  25.160  35.607   8.711
 2463POPC   C2B33884  25.204  35.606   8.271
 2463POPC   C3B33885  25.095  35.588   7.844
 2463POPC   C4B33886  25.167  35.577   7.385
 2464POPC   NC333887   6.831   2.002   9.462
 2464POPC   PO433888   6.196   2.176   9.401
 2464POPC   GL133889   6.492   2.118   9.083
 2464POPC   GL233890   6.604   1.751   9.085
 2464POPC   C1A33891   6.682   2.056   8.681
 2464POPC   D2A33892   6.773   1.777   8.348
 2464POPC   C3A33893   6.776   2.031   8.025
 2464POPC   C4A33894   6.616   2.073   7.658
 2464POPC   C1B33895   6.451   1.574   8.709
 2464POPC   C2B33896   6.399   1.418   8.287
 2464POPC   C3B33897   6.350   1.695   7.922
 2464POPC   C4B33898   6.387   1.612   7.470
 2465POPC   NC333899  33.729  40.666   9.283
 2465POPC   PO433900  33.853  40.113   9.683
 2465POPC   GL133901  33.822  40.140   9.248
 2465POPC   GL233902  33.905  39.807   9.158
 2465POPC   C1A33903  33.821  40.152   8.778
 2465POPC   D2A33904  33.705  39.916   8.397
 2465POPC   C3A33905  33.661  40.128   8.009
 2465POPC   C4A33906  33.498  40.209   7.607
 2465POPC   C1B33907  33.915  39.617   8.759
 2465POPC   C2B33908  34.038  39.485   8.366
 2465POPC   C3B33909  33.972  39.722   8.004
 2465POPC   C4B33910  33.741  39.729   7.626
 2466POPC   NC333911  10.492  38.823   9.559
 2466POPC   PO433912  10.754  38.206   9.416
 2466POPC   GL133913  10.572  38.286   9.030
 2466POPC   GL233914  10.422  38.618   9.094
 2466POPC   C1A33915  10.720  38.222   8.594
 2466POPC   D2A33916  10.801  38.220   8.135
 2466POPC   C3A33917  10.404  38.334   7.947
 2466POPC   C4A33918  10.184  38.734   7.965
 2466POPC   C1B33919  10.695  38.721   8.757
 2466POPC   C2B33920  10.562  38.687   8.328
 2466POPC   C3B33921  10.729  38.742   7.924
 2466POPC   C4B33922  10.729  38.988   7.546
 2467POPC   NC333923  19.860  44.517   9.818
 2467POPC   PO433924  19.482  44.746   9.382
 2467POPC   GL133925  19.854  44.692   9.177
 2467POPC   GL233926  19.683  44.389   9.076
 2467POPC   C1A33927  19.975  44.609   8.737
 2467POPC   D2A33928  19.827  44.551   8.327
 2467POPC   C3A33929  20.033  44.770   7.973
 2467POPC   C4A33930  19.986  44.704   7.517
 2467POPC   C1B33931  19.484  44.299   8.662
 2467POPC   C2B33932  19.353  44.418   8.225
 2467POPC   C3B33933  19.586  44.518   7.867
 2467POPC   C4B33934  19.721  44.260   7.543
 2468POPC   NC333935   3.123  14.390   9.604
 2468POPC   PO433936   3.794  14.229   9.482
 2468POPC   GL133937   3.552  14.393   9.161
 2468POPC   GL233938   3.873  14.390   8.999
 2468POPC   C1A33939   3.364  14.160   8.801
 2468POPC   D2A33940   3.527  14.085   8.374
 2468POPC   C3A33941   3.374  14.249   7.995
 2468POPC   C4A33942   3.271  14.631   7.839
 2468POPC   C1B33943   3.673  14.552   8.669
 2468POPC   C2B33944   3.614  14.701   8.278
 2468POPC   C3B33945   3.815  14.596   7.907
 2468POPC   C4B33946   3.636  14.486   7.512
 2469POPC   NC333947  42.469  24.628   9.611
 2469POPC   PO433948  43.121  24.419   9.387
 2469POPC   GL133949  43.289  24.459   8.968
 2469POPC   GL233950  43.344  24.807   8.842
 2469POPC   C1A33951  43.027  24.439   8.612
 2469POPC   D2A33952  42.868  24.599   8.219
 2469POPC   C3A33953  43.150  24.442   8.026
 2469POPC   C4A33954  43.157  24.252   7.654
 2469POPC   C1B33955  43.030  24.952   8.536
 2469POPC   C2B33956  43.166  25.061   8.112
 2469POPC   C3B33957  43.206  24.826   7.725
 2469POPC   C4B33958  43.107  24.699   7.327
 2470POPC   NC333959   1.118  22.192   9.517
 2470POPC   PO433960   1.501  22.502   9.187
 2470POPC   GL133961   1.302  22.056   9.052
 2470POPC   GL233962   0.928  21.948   9.080
 2470POPC   C1A33963   1.183  22.053   8.624
 2470POPC   D2A33964   1.499  22.293   8.382
 2470POPC   C3A33965   1.409  22.596   8.094
 2470POPC   C4A33966   1.212  22.450   7.756
 2470POPC   C1B33967   0.867  21.648   8.732
 2470POPC   C2B33968   1.016  21.618   8.302
 2470POPC   C3B33969   1.179  21.969   8.033
 2470POPC   C4B33970   1.030  22.016   7.589
 2471POPC   NC333971  12.413   6.049   9.544
 2471POPC   PO433972  11.775   6.198   9.599
 2471POPC   GL133973  11.846   5.946   9.221
 2471POPC   GL233974  12.201   5.881   9.135
 2471POPC   C1A33975  11.858   5.699   8.823
 2471POPC   D2A33976  11.995   5.582   8.398
 2471POPC   C3A33977  11.859   5.799   8.020
 2471POPC   C4A33978  11.839   5.670   7.612
 2471POPC   C1B33979  12.351   5.758   8.733
 2471POPC   C2B33980  12.493   5.622   8.298
 2471POPC   C3B33981  12.347   5.755   7.902
 2471POPC   C4B33982  12.507   6.125   7.675
 2472POPC   NC333983  29.977  26.776   9.465
 2472POPC   PO433984  29.373  26.725   9.492
 2472POPC   GL133985  29.614  26.631   9.100
 2472POPC   GL233986  29.737  26.983   9.065
 2472POPC   C1A33987  29.806  26.607   8.670
 2472POPC   D2A33988  30.134  26.545   8.325
 2472POPC   C3A33989  30.248  26.863   8.018
 2472POPC   C4A33990  30.060  26.941   7.626
 2472POPC   C1B33991  29.515  27.037   8.713
 2472POPC   C2B33992  29.483  26.827   8.314
 2472POPC   C3B33993  29.675  26.852   7.927
 2472POPC   C4B33994  29.481  26.969   7.531
 2473POPC   NC333995   0.364  41.157   9.652
 2473POPC   PO433996   0.762  41.707   9.688
 2473POPC   GL133997   0.638  41.626   9.266
 2473POPC   GL233998   0.300  41.455   9.234
 2473POPC   C1A33999   0.618  41.607   8.814
 2473POPC   D2A34000   0.788  41.579   8.384
 2473POPC   C3A34001   0.493  41.482   8.006
 2473POPC   C4A34002   0.397  41.714   7.609
 2473POPC   C1B34003   0.241  41.205   8.855
 2473POPC   C2B34004   0.093  41.042   8.444
 2473POPC   C3B34005  44.996  41.280   8.081
 2473POPC   C4B34006   0.147  41.292   7.653
 2474POPC   NC334007  37.957  20.617   9.573
 2474POPC   PO434008  38.564  20.810   9.649
 2474POPC   GL134009  38.606  20.833   9.207
 2474POPC   GL234010  38.287  20.803   9.140
 2474POPC   C1A34011  38.753  20.800   8.796
 2474POPC   D2A34012  38.525  20.654   8.428
 2474POPC   C3A34013  38.705  20.404   8.106
 2474POPC   C4A34014  38.787  20.598   7.725
 2474POPC   C1B34015  38.125  20.565   8.766
 2474POPC   C2B34016  38.028  20.521   8.316
 2474POPC   C3B34017  38.289  20.654   7.938
 2474POPC   C4B34018  38.240  20.857   7.527
 2475POPC   NC334019  15.431  43.122   9.497
 2475POPC   PO434020  14.807  43.463   9.554
 2475POPC   GL134021  14.999  43.229   9.243
 2475POPC   GL234022  15.176  43.475   9.189
 2475POPC   C1A34023  14.984  43.061   8.839
 2475POPC   D2A34024  15.188  42.957   8.433
 2475POPC   C3A34025  14.977  42.957   8.004
 2475POPC   C4A34026  15.368  42.959   7.800
 2475POPC   C1B34027  15.184  43.585   8.775
 2475POPC   C2B34028  15.013  43.443   8.436
 2475POPC   C3B34029  15.255  43.369   8.099
 2475POPC   C4B34030  15.162  43.455   7.716
 2476POPC   NC334031  13.859  26.084   9.261
 2476POPC   PO434032  13.534  25.650   9.705
 2476POPC   GL134033  13.427  25.843   9.220
 2476POPC   GL234034  13.366  26.202   9.165
 2476POPC   C1A34035  13.638  25.736   8.783
 2476POPC   D2A34036  13.772  25.914   8.416
 2476POPC   C3A34037  13.630  25.719   8.069
 2476POPC   C4A34038  13.805  25.754   7.704
 2476POPC   C1B34039  13.410  26.192   8.722
 2476POPC   C2B34040  13.678  26.405   8.427
 2476POPC   C3B34041  13.670  26.292   8.011
 2476POPC   C4B34042  13.400  26.062   7.733
 2477POPC   NC334043  13.292  35.911   9.551
 2477POPC   PO434044  13.831  36.252   9.662
 2477POPC   GL134045  13.738  36.321   9.239
 2477POPC   GL234046  13.379  36.248   9.155
 2477POPC   C1A34047  13.732  36.385   8.803
 2477POPC   D2A34048  13.604  36.372   8.389
 2477POPC   C3A34049  13.884  36.299   8.085
 2477POPC   C4A34050  13.816  36.478   7.741
 2477POPC   C1B34051  13.213  36.245   8.724
 2477POPC   C2B34052  13.205  36.045   8.276
 2477POPC   C3B34053  13.212  35.809   7.828
 2477POPC   C4B34054  13.254  35.842   7.335
 2478POPC   NC334055  35.862  29.322   9.438
 2478POPC   PO434056  36.454  28.970   9.460
 2478POPC   GL134057  36.259  28.847   9.084
 2478POPC   GL234058  36.261  29.192   9.037
 2478POPC   C1A34059  35.933  28.816   8.732
 2478POPC   D2A34060  35.847  28.831   8.249
 2478POPC   C3A34061  35.956  29.107   7.892
 2478POPC   C4A34062  35.877  29.547   7.749
 2478POPC   C1B34063  36.258  29.181   8.625
 2478POPC   C2B34064  36.147  29.425   8.259
 2478POPC   C3B34065  36.371  29.410   7.875
 2478POPC   C4B34066  36.248  29.363   7.435
 2479POPC   NC334067   2.342  26.829   9.418
 2479POPC   PO434068   1.766  26.419   9.344
 2479POPC   GL134069   1.933  26.785   9.078
 2479POPC   GL234070   2.283  26.839   8.930
 2479POPC   C1A34071   1.878  26.878   8.630
 2479POPC   D2A34072   2.047  27.141   8.338
 2479POPC   C3A34073   1.794  26.994   8.052
 2479POPC   C4A34074   1.894  26.708   7.762
 2479POPC   C1B34075   2.133  26.448   8.705
 2479POPC   C2B34076   2.015  26.471   8.268
 2479POPC   C3B34077   2.266  26.412   7.919
 2479POPC   C4B34078   2.434  26.571   7.540
 2480POPC   NC334079  27.864   8.386   9.501
 2480POPC   PO434080  28.456   8.017   9.513
 2480POPC   GL134081  28.334   7.930   9.112
 2480POPC   GL234082  28.110   8.160   9.134
 2480POPC   C1A34083  28.480   8.054   8.681
 2480POPC   D2A34084  28.444   8.332   8.321
 2480POPC   C3A34085  28.693   8.213   7.914
 2480POPC   C4A34086  28.540   8.432   7.514
 2480POPC   C1B34087  27.988   8.257   8.756
 2480POPC   C2B34088  28.025   7.971   8.450
 2480POPC   C3B34089  28.270   7.917   8.106
 2480POPC   C4B34090  28.177   8.261   7.840
 2481POPC   NC334091  18.817  11.894   9.550
 2481POPC   PO434092  19.492  11.767   9.502
 2481POPC   GL134093  19.269  12.109   9.255
 2481POPC   GL234094  18.887  12.214   9.170
 2481POPC   C1A34095  19.261  12.264   8.845
 2481POPC   D2A34096  19.076  12.209   8.456
 2481POPC   C3A34097  19.308  11.968   8.182
 2481POPC   C4A34098  19.302  12.014   7.718
 2481POPC   C1B34099  18.700  11.926   8.852
 2481POPC   C2B34100  18.762  11.810   8.401
 2481POPC   C3B34101  18.806  12.044   8.003
 2481POPC   C4B34102  18.780  11.824   7.621
 2482POPC   NC334103  38.786  30.068   9.541
 2482POPC   PO434104  38.243  29.690   9.426
 2482POPC   GL134105  38.390  30.015   9.209
 2482POPC   GL234106  38.622  29.803   9.103
 2482POPC   C1A34107  38.300  30.162   8.815
 2482POPC   D2A34108  38.419  30.073   8.398
 2482POPC   C3A34109  38.095  29.848   8.138
 2482POPC   C4A34110  38.311  29.973   7.807
 2482POPC   C1B34111  38.800  29.994   8.812
 2482POPC   C2B34112  38.984  30.018   8.452
 2482POPC   C3B34113  38.819  30.037   8.050
 2482POPC   C4B34114  38.760  29.725   7.772
 2483POPC   NC334115   9.451  23.089   9.697
 2483POPC   PO434116   9.823  22.564   9.518
 2483POPC   GL134117   9.779  22.825   9.185
 2483POPC   GL234118   9.511  23.076   9.184
 2483POPC   C1A34119   9.819  22.719   8.778
 2483POPC   D2A34120   9.956  22.618   8.349
 2483POPC   C3A34121   9.821  22.828   7.951
 2483POPC   C4A34122   9.721  22.726   7.492
 2483POPC   C1B34123   9.371  22.918   8.771
 2483POPC   C2B34124   9.484  22.797   8.398
 2483POPC   C3B34125   9.325  22.828   8.036
 2483POPC   C4B34126   9.390  23.029   7.718
 2484POPC   NC334127  19.972  38.103   9.453
 2484POPC   PO434128  19.983  37.441   9.442
 2484POPC   GL134129  19.954  37.635   9.050
 2484POPC   GL234130  19.753  37.933   9.017
 2484POPC   C1A34131  19.780  37.618   8.623
 2484POPC   D2A34132  19.629  37.743   8.212
 2484POPC   C3A34133  19.834  37.509   7.904
 2484POPC   C4A34134  20.195  37.272   7.947
 2484POPC   C1B34135  20.130  38.044   8.781
 2484POPC   C2B34136  20.292  38.130   8.358
 2484POPC   C3B34137  20.152  37.984   7.953
 2484POPC   C4B34138  19.728  38.027   7.797
 2485POPC   NC334139  15.724  44.611   9.369
 2485POPC   PO434140  16.238  44.419   9.588
 2485POPC   GL134141  16.154  44.392   9.154
 2485POPC   GL234142  16.173  44.725   9.077
 2485POPC   C1A34143  15.879  44.405   8.763
 2485POPC   D2A34144  15.665  44.400   8.342
 2485POPC   C3A34145  15.837  44.585   7.979
 2485POPC   C4A34146  16.076  44.618   7.614
 2485POPC   C1B34147  16.208  44.827   8.636
 2485POPC   C2B34148  16.229  44.873   8.175
 2485POPC   C3B34149  16.186   0.083   7.774
 2485POPC   C4B34150  16.069   0.040   7.313
 2486POPC   NC334151   9.594  12.093   9.704
 2486POPC   PO434152  10.057  11.691   9.427
 2486POPC   GL134153   9.851  12.027   9.194
 2486POPC   GL234154   9.498  12.117   9.133
 2486POPC   C1A34155   9.963  12.219   8.803
 2486POPC   D2A34156  10.043  12.417   8.393
 2486POPC   C3A34157  10.023  12.171   8.005
 2486POPC   C4A34158   9.962  12.235   7.554
 2486POPC   C1B34159   9.486  12.011   8.685
 2486POPC   C2B34160   9.574  12.211   8.276
 2486POPC   C3B34161   9.545  12.215   7.817
 2486POPC   C4B34162   9.507  12.422   7.381
 2487POPC   NC334163   3.623  33.303   9.429
 2487POPC   PO434164   3.162  32.708   9.448
 2487POPC   GL134165   3.351  32.793   9.027
 2487POPC   GL234166   3.393  33.143   9.022
 2487POPC   C1A34167   3.670  32.859   8.686
 2487POPC   D2A34168   3.757  33.190   8.386
 2487POPC   C3A34169   3.711  32.946   8.026
 2487POPC   C4A34170   3.571  32.939   7.620
 2487POPC   C1B34171   3.219  33.110   8.640
 2487POPC   C2B34172   3.230  33.378   8.321
 2487POPC   C3B34173   3.384  33.372   7.928
 2487POPC   C4B34174   3.784  33.393   7.768
 2488POPC   NC334175  29.584  23.770   9.412
 2488POPC   PO434176  30.055  23.291   9.361
 2488POPC   GL134177  30.005  23.672   9.075
 2488POPC   GL234178  29.690  23.589   8.961
 2488POPC   C1A34179  29.970  23.851   8.635
 2488POPC   D2A34180  30.050  23.668   8.196
 2488POPC   C3A34181  30.108  23.952   7.841
 2488POPC   C4A34182  29.840  24.334   7.809
 2488POPC   C1B34183  29.789  23.369   8.574
 2488POPC   C2B34184  29.548  23.405   8.200
 2488POPC   C3B34185  29.597  23.460   7.744
 2488POPC   C4B34186  29.626  23.399   7.283
 2489POPC   NC334187  33.515  14.888   9.398
 2489POPC   PO434188  33.854  15.416   9.587
 2489POPC   GL134189  33.833  15.252   9.173
 2489POPC   GL234190  33.506  15.423   9.179
 2489POPC   C1A34191  33.998  15.040   8.772
 2489POPC   D2A34192  33.948  14.807   8.388
 2489POPC   C3A34193  34.095  14.971   8.023
 2489POPC   C4A34194  33.958  15.261   7.734
 2489POPC   C1B34195  33.552  15.266   8.727
 2489POPC   C2B34196  33.704  15.315   8.261
 2489POPC   C3B34197  33.507  15.447   7.850
 2489POPC   C4B34198  33.406  15.511   7.393
 2490POPC   NC334199  10.761  24.261   9.351
 2490POPC   PO434200  10.331  24.791   9.502
 2490POPC   GL134201  10.635  24.749   9.158
 2490POPC   GL234202  10.471  24.486   8.963
 2490POPC   C1A34203  10.790  24.838   8.752
 2490POPC   D2A34204  10.526  24.701   8.446
 2490POPC   C3A34205  10.707  24.610   8.067
 2490POPC   C4A34206  10.421  24.469   7.766
 2490POPC   C1B34207  10.819  24.316   8.691
 2490POPC   C2B34208  11.056  24.265   8.295
 2490POPC   C3B34209  10.915  24.179   7.852
 2490POPC   C4B34210  10.695  24.213   7.437
 2491POPC   NC334211  10.733  34.385   9.557
 2491POPC   PO434212  10.083  34.542   9.528
 2491POPC   GL134213  10.402  34.604   9.171
 2491POPC   GL234214  10.667  34.346   9.074
 2491POPC   C1A34215  10.425  34.578   8.705
 2491POPC   D2A34216  10.297  34.350   8.344
 2491POPC   C3A34217  10.256  34.673   8.044
 2491POPC   C4A34218  10.631  34.866   7.888
 2491POPC   C1B34219  10.857  34.291   8.680
 2491POPC   C2B34220  10.773  34.477   8.291
 2491POPC   C3B34221  10.632  34.345   7.933
 2491POPC   C4B34222  10.701  34.076   7.618
 2492POPC   NC334223  37.661  28.956   9.619
 2492POPC   PO434224  37.284  29.479   9.234
 2492POPC   GL134225  37.622  29.326   9.010
 2492POPC   GL234226  37.792  29.045   9.120
 2492POPC   C1A34227  37.672  29.200   8.629
 2492POPC   D2A34228  37.743  28.926   8.325
 2492POPC   C3A34229  37.481  29.093   8.032
 2492POPC   C4A34230  37.211  28.867   7.832
 2492POPC   C1B34231  38.060  28.921   8.744
 2492POPC   C2B34232  38.142  29.253   8.407
 2492POPC   C3B34233  37.989  29.215   7.985
 2492POPC   C4B34234  37.844  28.850   7.771
 2493POPC   NC334235  16.944  40.322   9.600
 2493POPC   PO434236  16.668  39.689   9.692
 2493POPC   GL134237  16.623  40.012   9.306
 2493POPC   GL234238  16.366  40.276   9.343
 2493POPC   C1A34239  16.875  40.031   8.882
 2493POPC   D2A34240  17.027  39.906   8.479
 2493POPC   C3A34241  16.842  40.046   8.106
 2493POPC   C4A34242  16.958  39.959   7.694
 2493POPC   C1B34243  16.608  40.439   8.988
 2493POPC   C2B34244  16.708  40.349   8.531
 2493POPC   C3B34245  16.637  40.513   8.110
 2493POPC   C4B34246  16.637  40.366   7.695
 2494POPC   NC334247  33.689  15.800   9.770
 2494POPC   PO434248  34.107  16.064   9.281
 2494POPC   GL134249  33.838  16.297   9.009
 2494POPC   GL234250  33.517  16.316   9.200
 2494POPC   C1A34251  33.775  16.138   8.579
 2494POPC   D2A34252  33.983  15.723   8.447
 2494POPC   C3A34253  34.024  15.677   8.017
 2494POPC   C4A34254  33.985  16.057   7.792
 2494POPC   C1B34255  33.497  15.888   8.959
 2494POPC   C2B34256  33.460  15.710   8.523
 2494POPC   C3B34257  33.566  15.893   8.127
 2494POPC   C4B34258  33.476  15.936   7.696
 2495POPC   NC334259  24.163  40.215   9.470
 2495POPC   PO434260  24.688  39.790   9.433
 2495POPC   GL134261  24.376  39.909   9.113
 2495POPC   GL234262  24.497  40.252   9.079
 2495POPC   C1A34263  24.229  39.988   8.662
 2495POPC   D2A34264  24.304  39.763   8.235
 2495POPC   C3A34265  24.342  39.991   7.848
 2495POPC   C4A34266  24.471  39.866   7.440
 2495POPC   C1B34267  24.721  40.134   8.710
 2495POPC   C2B34268  24.665  40.142   8.247
 2495POPC   C3B34269  24.818  40.181   7.807
 2495POPC   C4B34270  24.738  40.273   7.359
 2496POPC   NC334271  42.501   9.956   9.434
 2496POPC   PO434272  42.450   9.372   9.642
 2496POPC   GL134273  42.230   9.476   9.240
 2496POPC   GL234274  42.048   9.817   9.198
 2496POPC   C1A34275  42.300   9.593   8.811
 2496POPC   D2A34276  42.158   9.609   8.372
 2496POPC   C3A34277  42.504   9.717   8.108
 2496POPC   C4A34278  42.786   9.492   7.868
 2496POPC   C1B34279  42.079  10.038   8.758
 2496POPC   C2B34280  42.201  10.176   8.317
 2496POPC   C3B34281  42.167  10.015   7.884
 2496POPC   C4B34282  42.119   9.582   7.767
 2497POPC   NC334283  34.777  13.891   9.481
 2497POPC   PO434284  34.361  13.346   9.322
 2497POPC   GL134285  34.581  13.594   9.054
 2497POPC   GL234286  34.888  13.782   8.999
 2497POPC   C1A34287  34.456  13.580   8.644
 2497POPC   D2A34288  34.220  13.809   8.362
 2497POPC   C3A34289  34.521  13.704   8.083
 2497POPC   C4A34290  34.512  13.524   7.714
 2497POPC   C1B34291  34.918  13.373   8.744
 2497POPC   C2B34292  34.752  13.230   8.342
 2497POPC   C3B34293  34.945  13.381   7.956
 2497POPC   C4B34294  34.939  13.804   7.773
 2498POPC   NC334295   4.524  15.549   9.546
 2498POPC   PO434296   3.986  15.142   9.544
 2498POPC   GL134297   4.157  15.087   9.154
 2498POPC   GL234298   3.962  14.891   8.968
 2498POPC   C1A34299   4.388  15.324   8.857
 2498POPC   D2A34300   4.538  15.246   8.483
 2498POPC   C3A34301   4.320  15.320   8.122
 2498POPC   C4A34302   4.452  15.292   7.750
 2498POPC   C1B34303   4.227  14.706   8.664
 2498POPC   C2B34304   4.281  14.758   8.250
 2498POPC   C3B34305   4.275  14.830   7.858
 2498POPC   C4B34306   4.030  14.832   7.476
 2499POPC   NC334307  41.808   4.624   9.347
 2499POPC   PO434308  42.277   4.217   9.698
 2499POPC   GL134309  42.375   4.167   9.223
 2499POPC   GL234310  42.490   4.505   9.135
 2499POPC   C1A34311  42.485   4.052   8.806
 2499POPC   D2A34312  42.508   4.337   8.460
 2499POPC   C3A34313  42.401   4.279   8.024
 2499POPC   C4A34314  42.671   4.592   7.799
 2499POPC   C1B34315  42.162   4.453   8.832
 2499POPC   C2B34316  42.028   4.565   8.442
 2499POPC   C3B34317  42.235   4.733   8.138
 2499POPC   C4B34318  42.165   4.662   7.722
 2500POPC   NC334319  43.242  22.229   9.414
 2500POPC   PO434320  42.803  21.809   9.262
 2500POPC   GL134321  43.002  22.154   8.961
 2500POPC   GL234322  43.388  22.314   8.936
 2500POPC   C1A34323  43.085  22.318   8.535
 2500POPC   D2A34324  43.286  22.608   8.283
 2500POPC   C3A34325  43.327  22.336   7.962
 2500POPC   C4A34326  42.933  22.102   7.803
 2500POPC   C1B34327  43.390  21.917   8.664
 2500POPC   C2B34328  43.293  21.824   8.201
 2500POPC   C3B34329  43.383  21.879   7.738
 2500POPC   C4B34330  43.594  21.942   7.288
 2501POPC   NC334331  36.913  35.569   9.343
 2501POPC   PO434332  37.518  35.305   9.466
 2501POPC   GL134333  37.260  35.159   9.095
 2501POPC   GL234334  36.904  35.002   9.145
 2501POPC   C1A34335  37.021  35.294   8.697
 2501POPC   D2A34336  37.119  35.290   8.253
 2501POPC   C3A34337  36.824  35.333   7.915
 2501POPC   C4A34338  36.933  35.084   7.558
 2501POPC   C1B34339  36.602  35.004   8.778
 2501POPC   C2B34340  36.596  35.191   8.374
 2501POPC   C3B34341  36.388  35.048   7.998
 2501POPC   C4B34342  36.424  35.172   7.596
 2502POPC   NC334343  44.736  26.831   9.585
 2502POPC   PO434344  44.881  27.332   9.199
 2502POPC   GL134345  44.610  26.915   9.106
 2502POPC   GL234346  44.753  26.613   9.141
 2502POPC   C1A34347  44.491  26.686   8.716
 2502POPC   D2A34348  44.662  26.824   8.322
 2502POPC   C3A34349  44.455  26.767   7.932
 2502POPC   C4A34350  44.229  27.087   7.722
 2502POPC   C1B34351   0.012  26.757   8.822
 2502POPC   C2B34352   0.125  26.662   8.444
 2502POPC   C3B34353  44.947  26.442   8.123
 2502POPC   C4B34354  44.916  26.617   7.729
 2503POPC   NC334355  22.507  36.277   9.520
 2503POPC   PO434356  21.882  35.888   9.596
 2503POPC   GL134357  22.019  35.884   9.176
 2503POPC   GL234358  22.132  36.201   9.156
 2503POPC   C1A34359  22.223  35.918   8.745
 2503POPC   D2A34360  22.430  36.091   8.373
 2503POPC   C3A34361  22.299  35.923   7.972
 2503POPC   C4A34362  21.928  36.041   7.758
 2503POPC   C1B34363  22.243  36.480   8.855
 2503POPC   C2B34364  22.277  36.611   8.447
 2503POPC   C3B34365  22.192  36.450   8.040
 2503POPC   C4B34366  22.360  36.334   7.668
 2504POPC   NC334367   7.129   2.533   9.869
 2504POPC   PO434368   7.525   3.077   9.657
 2504POPC   GL134369   7.531   2.810   9.280
 2504POPC   GL234370   7.324   2.509   9.363
 2504POPC   C1A34371   7.586   2.713   8.847
 2504POPC   D2A34372   7.401   2.774   8.440
 2504POPC   C3A34373   7.553   2.753   8.017
 2504POPC   C4A34374   7.365   2.795   7.627
 2504POPC   C1B34375   7.288   2.318   8.951
 2504POPC   C2B34376   7.355   2.240   8.495
 2504POPC   C3B34377   7.235   2.357   8.059
 2504POPC   C4B34378   7.506   2.316   7.703
 2505POPC   NC334379  24.611  41.876   9.492
 2505POPC   PO434380  24.112  41.460   9.480
 2505POPC   GL134381  24.304  41.546   9.094
 2505POPC   GL234382  24.375  41.917   9.044
 2505POPC   C1A34383  24.430  41.580   8.666
 2505POPC   D2A34384  24.347  41.884   8.388
 2505POPC   C3A34385  24.418  41.649   8.043
 2505POPC   C4A34386  24.274  41.417   7.705
 2505POPC   C1B34387  24.733  42.004   8.756
 2505POPC   C2B34388  24.853  41.999   8.309
 2505POPC   C3B34389  24.764  41.999   7.869
 2505POPC   C4B34390  24.750  41.636   7.627
 2506POPC   NC334391   1.651   1.858   9.552
 2506POPC   PO434392   2.186   1.575   9.282
 2506POPC   GL134393   1.947   1.743   9.039
 2506POPC   GL234394   1.947   2.074   9.133
 2506POPC   C1A34395   2.035   1.654   8.629
 2506POPC   D2A34396   2.215   1.521   8.322
 2506POPC   C3A34397   2.050   1.645   7.976
 2506POPC   C4A34398   1.904   1.757   7.564
 2506POPC   C1B34399   2.266   2.057   8.781
 2506POPC   C2B34400   2.131   2.148   8.342
 2506POPC   C3B34401   1.943   2.125   7.928
 2506POPC   C4B34402   2.140   2.290   7.572
 2507POPC   NC334403  27.957  35.886   9.342
 2507POPC   PO434404  27.296  36.185   9.343
 2507POPC   GL134405  27.598  36.309   9.049
 2507POPC   GL234406  27.935  36.400   9.186
 2507POPC   C1A34407  27.559  36.246   8.602
 2507POPC   D2A34408  27.347  35.987   8.312
 2507POPC   C3A34409  27.360  36.130   7.882
 2507POPC   C4A34410  27.350  36.145   7.444
 2507POPC   C1B34411  28.063  36.234   8.794
 2507POPC   C2B34412  28.029  36.305   8.402
 2507POPC   C3B34413  27.878  36.083   8.070
 2507POPC   C4B34414  27.805  36.226   7.703
 2508POPC   NC334415   3.591  44.735   9.568
 2508POPC   PO434416   3.004  44.347   9.427
 2508POPC   GL134417   3.261  44.745   9.187
 2508POPC   GL234418   3.626  44.772   9.065
 2508POPC   C1A34419   3.297  44.921   8.732
 2508POPC   D2A34420   3.471  44.667   8.348
 2508POPC   C3A34421   3.413  44.749   7.879
 2508POPC   C4A34422   3.497  44.621   7.423
 2508POPC   C1B34423   3.841  44.858   8.669
 2508POPC   C2B34424   4.001  44.579   8.343
 2508POPC   C3B34425   3.900  44.536   7.916
 2508POPC   C4B34426   3.858  44.879   7.647
 2509POPC   NC334427  21.828  39.172   9.581
 2509POPC   PO434428  22.532  39.188   9.553
 2509POPC   GL134429  22.217  39.337   9.263
 2509POPC   GL234430  22.063  39.031   9.129
 2509POPC   C1A34431  22.187  39.451   8.821
 2509POPC   D2A34432  22.050  39.530   8.405
 2509POPC   C3A34433  22.294  39.610   8.029
 2509POPC   C4A34434  22.399  39.325   7.731
 2509POPC   C1B34435  21.788  39.099   8.764
 2509POPC   C2B34436  21.881  39.056   8.326
 2509POPC   C3B34437  21.891  39.315   7.950
 2509POPC   C4B34438  21.653  39.139   7.677
 2510POPC   NC334439  21.854  43.519   9.331
 2510POPC   PO434440  21.777  42.918   9.595
 2510POPC   GL134441  21.920  43.033   9.169
 2510POPC   GL234442  22.233  43.237   9.144
 2510POPC   C1A34443  22.114  42.927   8.767
 2510POPC   D2A34444  22.357  42.753   8.441
 2510POPC   C3A34445  22.184  42.835   8.052
 2510POPC   C4A34446  22.042  43.167   7.802
 2510POPC   C1B34447  22.500  43.294   8.753
 2510POPC   C2B34448  22.643  43.200   8.329
 2510POPC   C3B34449  22.533  43.171   7.911
 2510POPC   C4B34450  22.490  43.493   7.596
 2511POPC   NC334451   1.579  12.347   9.600
 2511POPC   PO434452   2.174  12.131   9.782
 2511POPC   GL134453   2.036  12.253   9.340
 2511POPC   GL234454   1.936  11.945   9.206
 2511POPC   C1A34455   2.069  12.271   8.838
 2511POPC   D2A34456   1.865  12.097   8.435
 2511POPC   C3A34457   2.048  12.163   8.051
 2511POPC   C4A34458   1.949  12.086   7.612
 2511POPC   C1B34459   1.974  11.752   8.775
 2511POPC   C2B34460   2.124  11.665   8.327
 2511POPC   C3B34461   2.143  11.696   7.872
 2511POPC   C4B34462   2.154  11.581   7.425
 2512POPC   NC334463  27.805  43.308   9.595
 2512POPC   PO434464  27.474  42.850   9.742
 2512POPC   GL134465  27.538  43.044   9.248
 2512POPC   GL234466  27.490  43.440   9.203
 2512POPC   C1A34467  27.740  42.951   8.799
 2512POPC   D2A34468  27.590  42.930   8.337
 2512POPC   C3A34469  27.813  43.072   7.965
 2512POPC   C4A34470  28.093  42.846   7.667
 2512POPC   C1B34471  27.386  43.305   8.775
 2512POPC   C2B34472  27.365  43.412   8.324
 2512POPC   C3B34473  27.339  43.278   7.902
 2512POPC   C4B34474  27.657  43.405   7.611
 2513POPC   NC334475  30.964  15.362   9.452
 2513POPC   PO434476  30.462  14.940   9.448
 2513POPC   GL134477  30.711  15.054   9.081
 2513POPC   GL234478  31.014  14.912   8.977
 2513POPC   C1A34479  30.668  14.992   8.616
 2513POPC   D2A34480  30.640  15.161   8.209
 2513POPC   C3A34481  30.433  14.949   7.883
 2513POPC   C4A34482  30.169  15.088   7.526
 2513POPC   C1B34483  31.002  15.358   8.763
 2513POPC   C2B34484  31.081  15.591   8.361
 2513POPC   C3B34485  30.961  15.474   7.961
 2513POPC   C4B34486  30.952  15.061   7.802
 2514POPC   NC334487  43.299  32.069   9.934
 2514POPC   PO434488  43.339  31.361   9.700
 2514POPC   GL134489  43.251  31.331   9.265
 2514POPC   GL234490  43.456  31.067   9.173
 2514POPC   C1A34491  43.104  31.528   8.892
 2514POPC   D2A34492  42.970  31.323   8.517
 2514POPC   C3A34493  43.022  31.515   8.126
 2514POPC   C4A34494  42.880  31.397   7.733
 2514POPC   C1B34495  43.504  31.240   8.756
 2514POPC   C2B34496  43.488  31.375   8.326
 2514POPC   C3B34497  43.614  31.264   7.904
 2514POPC   C4B34498  43.363  31.425   7.522
 2515POPC   NC334499   4.577  33.833   9.676
 2515POPC   PO434500   4.022  33.517   9.558
 2515POPC   GL134501   4.273  33.759   9.273
 2515POPC   GL234502   4.534  33.516   9.251
 2515POPC   C1A34503   4.481  33.909   8.894
 2515POPC   D2A34504   4.501  33.753   8.454
 2515POPC   C3A34505   4.589  33.995   8.077
 2515POPC   C4A34506   4.482  33.974   7.642
 2515POPC   C1B34507   4.633  33.379   8.816
 2515POPC   C2B34508   4.829  33.379   8.372
 2515POPC   C3B34509   4.590  33.475   7.985
 2515POPC   C4B34510   4.270  33.483   7.643
 2516POPC   NC334511  28.065  10.758   9.341
 2516POPC   PO434512  28.520  10.286   9.476
 2516POPC   GL134513  28.411  10.464   9.068
 2516POPC   GL234514  28.555  10.803   9.009
 2516POPC   C1A34515  28.610  10.443   8.644
 2516POPC   D2A34516  28.521  10.203   8.268
 2516POPC   C3A34517  28.440  10.459   7.901
 2516POPC   C4A34518  28.613  10.412   7.468
 2516POPC   C1B34519  28.180  10.752   8.710
 2516POPC   C2B34520  28.059  10.876   8.298
 2516POPC   C3B34521  27.986  10.707   7.901
 2516POPC   C4B34522  28.231  10.744   7.526
 2517POPC   NC334523  12.302  31.703   9.620
 2517POPC   PO434524  11.710  31.504   9.604
 2517POPC   GL134525  11.947  31.283   9.294
 2517POPC   GL234526  12.258  31.404   9.173
 2517POPC   C1A34527  11.949  31.279   8.800
 2517POPC   D2A34528  12.040  31.526   8.398
 2517POPC   C3A34529  11.900  31.343   8.007
 2517POPC   C4A34530  11.889  31.639   7.680
 2517POPC   C1B34531  12.423  31.521   8.759
 2517POPC   C2B34532  12.570  31.474   8.329
 2517POPC   C3B34533  12.384  31.453   7.936
 2517POPC   C4B34534  12.477  31.424   7.525
 2518POPC   NC334535   7.207   6.011   9.530
 2518POPC   PO434536   7.584   5.604   9.308
 2518POPC   GL134537   7.340   5.903   9.028
 2518POPC   GL234538   7.191   6.258   8.998
 2518POPC   C1A34539   7.443   5.956   8.608
 2518POPC   D2A34540   7.712   5.882   8.305
 2518POPC   C3A34541   7.599   5.728   7.939
 2518POPC   C4A34542   7.303   5.698   7.573
 2518POPC   C1B34543   7.533   6.433   8.720
 2518POPC   C2B34544   7.489   6.401   8.278
 2518POPC   C3B34545   7.343   6.147   7.927
 2518POPC   C4B34546   7.215   6.183   7.511
 2519POPC   NC334547  39.584  22.065   9.448
 2519POPC   PO434548  40.210  21.822   9.494
 2519POPC   GL134549  40.052  22.063   9.183
 2519POPC   GL234550  40.241  22.373   9.146
 2519POPC   C1A34551  40.047  21.935   8.757
 2519POPC   D2A34552  39.957  21.675   8.402
 2519POPC   C3A34553  39.974  21.995   8.082
 2519POPC   C4A34554  40.066  22.145   7.684
 2519POPC   C1B34555  40.010  22.467   8.744
 2519POPC   C2B34556  39.866  22.574   8.308
 2519POPC   C3B34557  39.674  22.433   7.892
 2519POPC   C4B34558  39.723  22.411   7.403
 2520POPC   NC334559  32.587  23.912   9.531
 2520POPC   PO434560  33.193  23.585   9.576
 2520POPC   GL134561  33.153  23.827   9.251
 2520POPC   GL234562  32.841  23.786   9.118
 2520POPC   C1A34563  33.286  23.701   8.859
 2520POPC   D2A34564  33.146  23.756   8.436
 2520POPC   C3A34565  33.404  23.717   8.123
 2520POPC   C4A34566  33.171  23.717   7.750
 2520POPC   C1B34567  32.802  23.533   8.760
 2520POPC   C2B34568  32.775  23.350   8.340
 2520POPC   C3B34569  32.707  23.503   7.879
 2520POPC   C4B34570  32.669  23.917   7.630
 2521POPC   NC334571  10.080  10.748   9.510
 2521POPC   PO434572   9.801  10.188   9.439
 2521POPC   GL134573   9.764  10.500   9.154
 2521POPC   GL234574   9.469  10.675   9.096
 2521POPC   C1A34575   9.916  10.568   8.769
 2521POPC   D2A34576   9.958  10.313   8.403
 2521POPC   C3A34577   9.759  10.465   8.050
 2521POPC   C4A34578   9.886  10.766   7.747
 2521POPC   C1B34579   9.522  10.950   8.788
 2521POPC   C2B34580   9.634  10.810   8.416
 2521POPC   C3B34581   9.515  10.930   8.056
 2521POPC   C4B34582   9.308  10.861   7.725
 2522POPC   NC334583   3.159  43.880   9.539
 2522POPC   PO434584   3.666  44.318   9.765
 2522POPC   GL134585   3.495  44.262   9.298
 2522POPC   GL234586   3.769  44.235   9.143
 2522POPC   C1A34587   3.412  43.965   8.865
 2522POPC   D2A34588   3.377  43.748   8.408
 2522POPC   C3A34589   3.567  43.755   7.952
 2522POPC   C4A34590   3.515  43.720   7.450
 2522POPC   C1B34591   3.700  44.377   8.754
 2522POPC   C2B34592   3.677  44.175   8.411
 2522POPC   C3B34593   3.495  44.243   8.039
 2522POPC   C4B34594   3.649  44.173   7.647
 2523POPC   NC334595  35.125  12.200   9.487
 2523POPC   PO434596  35.740  11.786   9.475
 2523POPC   GL134597  35.655  11.982   9.094
 2523POPC   GL234598  35.431  12.253   9.075
 2523POPC   C1A34599  35.515  11.847   8.704
 2523POPC   D2A34600  35.250  11.762   8.377
 2523POPC   C3A34601  35.369  11.614   8.004
 2523POPC   C4A34602  35.654  11.849   7.764
 2523POPC   C1B34603  35.063  12.359   8.826
 2523POPC   C2B34604  34.970  12.211   8.421
 2523POPC   C3B34605  35.239  12.148   8.037
 2523POPC   C4B34606  35.466  12.316   7.681
 2524POPC   NC334607  10.918  10.245   9.294
 2524POPC   PO434608  10.549  10.841   9.559
 2524POPC   GL134609  10.596  10.651   9.132
 2524POPC   GL234610  10.292  10.453   9.132
 2524POPC   C1A34611  10.407  10.726   8.697
 2524POPC   D2A34612  10.147  10.777   8.293
 2524POPC   C3A34613  10.381  10.819   7.918
 2524POPC   C4A34614  10.680  10.822   7.581
 2524POPC   C1B34615  10.314  10.198   8.753
 2524POPC   C2B34616  10.453  10.106   8.353
 2524POPC   C3B34617  10.299  10.325   8.027
 2524POPC   C4B34618  10.422  10.408   7.630
 2525POPC   NC334619   6.334   9.589   9.482
 2525POPC   PO434620   6.863   9.886   9.531
 2525POPC   GL134621   6.656   9.870   9.157
 2525POPC   GL234622   6.780   9.536   9.150
 2525POPC   C1A34623   6.702   9.827   8.716
 2525POPC   D2A34624   6.669  10.042   8.366
 2525POPC   C3A34625   6.901   9.975   8.019
 2525POPC   C4A34626   6.527  10.040   7.820
 2525POPC   C1B34627   6.511   9.372   8.885
 2525POPC   C2B34628   6.614   9.385   8.489
 2525POPC   C3B34629   6.578   9.598   8.109
 2525POPC   C4B34630   6.614   9.569   7.682
 2526POPC   NC334631  20.235  30.969   9.512
 2526POPC   PO434632  19.619  30.670   9.416
 2526POPC   GL134633  19.775  30.482   9.039
 2526POPC   GL234634  20.100  30.397   9.127
 2526POPC   C1A34635  19.925  30.727   8.701
 2526POPC   D2A34636  19.965  31.019   8.355
 2526POPC   C3A34637  19.853  30.815   8.006
 2526POPC   C4A34638  19.646  30.515   7.700
 2526POPC   C1B34639  20.230  30.315   8.710
 2526POPC   C2B34640  20.261  30.563   8.332
 2526POPC   C3B34641  20.153  30.391   7.935
 2526POPC   C4B34642  20.084  30.257   7.512
 2527POPC   NC334643  41.516  22.460   9.436
 2527POPC   PO434644  41.693  21.765   9.406
 2527POPC   GL134645  41.575  22.052   9.140
 2527POPC   GL234646  41.881  22.242   9.132
 2527POPC   C1A34647  41.407  22.107   8.744
 2527POPC   D2A34648  41.221  22.003   8.344
 2527POPC   C3A34649  41.431  22.070   7.957
 2527POPC   C4A34650  41.309  21.898   7.564
 2527POPC   C1B34651  41.897  22.004   8.760
 2527POPC   C2B34652  41.745  21.939   8.363
 2527POPC   C3B34653  41.972  22.067   7.999
 2527POPC   C4B34654  41.812  22.231   7.627
 2528POPC   NC334655   3.098  11.185   9.397
 2528POPC   PO434656   2.736  11.794   9.575
 2528POPC   GL134657   2.800  11.578   9.182
 2528POPC   GL234658   2.638  11.231   9.148
 2528POPC   C1A34659   2.962  11.692   8.774
 2528POPC   D2A34660   2.705  11.635   8.409
 2528POPC   C3A34661   2.917  11.660   8.006
 2528POPC   C4A34662   2.611  11.652   7.650
 2528POPC   C1B34663   2.799  11.198   8.719
 2528POPC   C2B34664   3.005  11.238   8.308
 2528POPC   C3B34665   2.803  11.167   7.911
 2528POPC   C4B34666   2.553  10.803   7.781
 2529POPC   NC334667  33.355   4.606   9.892
 2529POPC   PO434668  33.879   4.313   9.516
 2529POPC   GL134669  33.778   4.218   9.132
 2529POPC   GL234670  33.421   4.110   9.152
 2529POPC   C1A34671  33.934   4.415   8.755
 2529POPC   D2A34672  33.768   4.558   8.352
 2529POPC   C3A34673  33.913   4.460   7.921
 2529POPC   C4A34674  33.677   4.380   7.536
 2529POPC   C1B34675  33.429   4.269   8.740
 2529POPC   C2B34676  33.453   4.160   8.336
 2529POPC   C3B34677  33.365   4.287   7.915
 2529POPC   C4B34678  33.289   4.071   7.474
 2530POPC   NC334679  21.388   4.108   9.590
 2530POPC   PO434680  20.853   4.449   9.713
 2530POPC   GL134681  21.276   4.506   9.277
 2530POPC   GL234682  21.511   4.205   9.132
 2530POPC   C1A34683  21.490   4.536   8.777
 2530POPC   D2A34684  21.698   4.333   8.394
 2530POPC   C3A34685  21.536   4.385   7.981
 2530POPC   C4A34686  21.553   4.358   7.541
 2530POPC   C1B34687  21.476   4.017   8.758
 2530POPC   C2B34688  21.285   4.055   8.390
 2530POPC   C3B34689  21.323   3.925   8.012
 2530POPC   C4B34690  21.181   4.043   7.641
 2531POPC   NC334691  42.690  25.537   9.466
 2531POPC   PO434692  42.206  24.990   9.443
 2531POPC   GL134693  42.116  25.210   9.072
 2531POPC   GL234694  42.338  25.476   9.113
 2531POPC   C1A34695  42.161  25.369   8.654
 2531POPC   D2A34696  42.046  25.140   8.323
 2531POPC   C3A34697  42.228  25.240   7.961
 2531POPC   C4A34698  42.123  25.129   7.545
 2531POPC   C1B34699  42.675  25.643   8.795
 2531POPC   C2B34700  42.625  25.775   8.365
 2531POPC   C3B34701  42.660  25.574   7.965
 2531POPC   C4B34702  42.484  25.476   7.574
 2532POPC   NC334703  22.545  38.717   9.458
 2532POPC   PO434704  21.883  38.724   9.503
 2532POPC   GL134705  22.079  38.487   9.172
 2532POPC   GL234706  22.403  38.608   8.986
 2532POPC   C1A34707  22.101  38.245   8.791
 2532POPC   D2A34708  22.347  38.443   8.475
 2532POPC   C3A34709  22.180  38.310   8.086
 2532POPC   C4A34710  22.145  38.110   7.679
 2532POPC   C1B34711  22.297  38.929   8.675
 2532POPC   C2B34712  22.375  39.037   8.237
 2532POPC   C3B34713  22.155  38.884   7.879
 2532POPC   C4B34714  22.330  38.885   7.466
 2533POPC   NC334715  28.239  12.307   9.559
 2533POPC   PO434716  28.172  11.676   9.486
 2533POPC   GL134717  28.291  11.982   9.141
 2533POPC   GL234718  28.035  12.200   9.090
 2533POPC   C1A34719  28.459  12.265   8.786
 2533POPC   D2A34720  28.731  12.395   8.447
 2533POPC   C3A34721  28.503  12.357   8.051
 2533POPC   C4A34722  28.226  12.372   7.703
 2533POPC   C1B34723  28.110  11.903   8.692
 2533POPC   C2B34724  28.389  11.938   8.333
 2533POPC   C3B34725  28.248  11.898   7.905
 2533POPC   C4B34726  27.869  11.671   7.762
 2534POPC   NC334727  38.562  33.264   9.601
 2534POPC   PO434728  38.566  32.610   9.441
 2534POPC   GL134729  38.399  32.964   9.205
 2534POPC   GL234730  38.671  33.193   9.112
 2534POPC   C1A34731  38.267  32.913   8.795
 2534POPC   D2A34732  38.180  33.060   8.392
 2534POPC   C3A34733  38.282  32.808   8.056
 2534POPC   C4A34734  38.400  32.848   7.645
 2534POPC   C1B34735  38.705  33.192   8.694
 2534POPC   C2B34736  38.558  33.396   8.354
 2534POPC   C3B34737  38.658  33.279   7.962
 2534POPC   C4B34738  38.837  33.113   7.558
 2535POPC   NC334739  33.009  34.953   9.663
 2535POPC   PO434740  32.791  34.357   9.292
 2535POPC   GL134741  33.013  34.163   9.038
 2535POPC   GL234742  33.327  34.211   9.165
 2535POPC   C1A34743  32.989  34.284   8.624
 2535POPC   D2A34744  32.852  34.704   8.443
 2535POPC   C3A34745  32.996  34.801   8.021
 2535POPC   C4A34746  32.826  34.646   7.645
 2535POPC   C1B34747  33.487  34.317   8.755
 2535POPC   C2B34748  33.346  34.533   8.337
 2535POPC   C3B34749  33.320  34.416   7.882
 2535POPC   C4B34750  33.276  34.510   7.428
 2536POPC   NC334751  11.386  41.208   9.596
 2536POPC   PO434752  11.147  40.575   9.591
 2536POPC   GL134753  11.291  40.580   9.195
 2536POPC   GL234754  11.444  40.895   9.202
 2536POPC   C1A34755  11.168  40.537   8.797
 2536POPC   D2A34756  11.224  40.773   8.451
 2536POPC   C3A34757  11.076  40.621   8.078
 2536POPC   C4A34758  11.221  40.553   7.688
 2536POPC   C1B34759  11.589  40.944   8.810
 2536POPC   C2B34760  11.806  40.917   8.437
 2536POPC   C3B34761  11.584  40.824   8.100
 2536POPC   C4B34762  11.487  40.999   7.762
 2537POPC   NC334763  15.784   1.292   9.782
 2537POPC   PO434764  16.163   0.988   9.507
 2537POPC   GL134765  16.069   1.214   9.096
 2537POPC   GL234766  16.204   1.565   9.068
 2537POPC   C1A34767  15.967   1.179   8.631
 2537POPC   D2A34768  16.035   0.972   8.222
 2537POPC   C3A34769  15.814   1.115   7.854
 2537POPC   C4A34770  15.879   0.853   7.489
 2537POPC   C1B34771  16.207   1.634   8.614
 2537POPC   C2B34772  16.018   1.522   8.213
 2537POPC   C3B34773  16.128   1.592   7.802
 2537POPC   C4B34774  15.861   1.754   7.471
 2538POPC   NC334775  32.137  35.434   9.755
 2538POPC   PO434776  31.676  34.931   9.566
 2538POPC   GL134777  31.963  35.154   9.247
 2538POPC   GL234778  32.073  35.524   9.234
 2538POPC   C1A34779  32.177  35.149   8.850
 2538POPC   D2A34780  32.033  35.241   8.439
 2538POPC   C3A34781  32.182  35.102   8.038
 2538POPC   C4A34782  32.162  35.282   7.617
 2538POPC   C1B34783  31.923  35.613   8.803
 2538POPC   C2B34784  31.829  35.707   8.345
 2538POPC   C3B34785  32.085  35.600   8.042
 2538POPC   C4B34786  32.503  35.582   7.890
 2539POPC   NC334787   8.633   6.435   9.471
 2539POPC   PO434788   8.257   6.961   9.571
 2539POPC   GL134789   8.490   6.898   9.185
 2539POPC   GL234790   8.422   6.539   9.019
 2539POPC   C1A34791   8.518   6.959   8.733
 2539POPC   D2A34792   8.332   6.678   8.431
 2539POPC   C3A34793   8.409   6.664   7.998
 2539POPC   C4A34794   8.265   6.946   7.689
 2539POPC   C1B34795   8.053   6.427   8.778
 2539POPC   C2B34796   7.990   6.297   8.365
 2539POPC   C3B34797   7.859   6.261   7.945
 2539POPC   C4B34798   8.056   6.465   7.615
 2540POPC   NC334799  12.867  13.232   9.510
 2540POPC   PO434800  13.004  13.907   9.564
 2540POPC   GL134801  12.744  13.878   9.216
 2540POPC   GL234802  12.889  13.576   9.106
 2540POPC   C1A34803  12.774  13.915   8.763
 2540POPC   D2A34804  12.907  13.695   8.320
 2540POPC   C3A34805  12.742  13.760   7.878
 2540POPC   C4A34806  12.950  13.656   7.476
 2540POPC   C1B34807  12.841  13.361   8.703
 2540POPC   C2B34808  12.650  13.241   8.292
 2540POPC   C3B34809  12.758  13.236   7.844
 2540POPC   C4B34810  13.190  13.226   7.680
 2541POPC   NC334811  37.929  11.018   9.450
 2541POPC   PO434812  37.372  11.353   9.386
 2541POPC   GL134813  37.652  11.366   9.099
 2541POPC   GL234814  37.755  11.676   9.119
 2541POPC   C1A34815  37.571  11.402   8.674
 2541POPC   D2A34816  37.498  11.144   8.362
 2541POPC   C3A34817  37.856  11.141   8.118
 2541POPC   C4A34818  37.862  11.072   7.728
 2541POPC   C1B34819  37.816  11.841   8.732
 2541POPC   C2B34820  37.906  11.632   8.360
 2541POPC   C3B34821  37.638  11.573   8.029
 2541POPC   C4B34822  37.803  11.585   7.646
 2542POPC   NC334823   5.315  29.301   9.498
 2542POPC   PO434824   5.528  28.629   9.412
 2542POPC   GL134825   5.361  28.915   9.086
 2542POPC   GL234826   5.515  29.264   9.027
 2542POPC   C1A34827   5.341  29.026   8.624
 2542POPC   D2A34828   5.379  29.285   8.253
 2542POPC   C3A34829   5.634  29.068   7.939
 2542POPC   C4A34830   5.669  29.216   7.510
 2542POPC   C1B34831   5.701  29.428   8.615
 2542POPC   C2B34832   5.912  29.427   8.161
 2542POPC   C3B34833   6.116  29.175   7.779
 2542POPC   C4B34834   6.425  29.136   7.418
 2543POPC   NC334835  29.094  14.857   9.656
 2543POPC   PO434836  29.572  14.619   9.476
 2543POPC   GL134837  29.352  14.893   9.163
 2543POPC   GL234838  28.982  14.940   9.153
 2543POPC   C1A34839  29.279  15.194   8.813
 2543POPC   D2A34840  29.339  15.188   8.373
 2543POPC   C3A34841  29.161  15.135   7.962
 2543POPC   C4A34842  29.331  14.987   7.569
 2543POPC   C1B34843  28.959  14.825   8.685
 2543POPC   C2B34844  29.150  14.709   8.280
 2543POPC   C3B34845  29.043  14.644   7.834
 2543POPC   C4B34846  28.794  14.924   7.554
 2544POPC   NC334847  41.202  39.358   9.417
 2544POPC   PO434848  40.563  39.510   9.575
 2544POPC   GL134849  40.667  39.304   9.227
 2544POPC   GL234850  40.846  39.596   9.116
 2544POPC   C1A34851  40.744  38.964   8.922
 2544POPC   D2A34852  40.750  38.846   8.478
 2544POPC   C3A34853  40.978  39.017   8.143
 2544POPC   C4A34854  40.906  39.034   7.717
 2544POPC   C1B34855  40.660  39.448   8.742
 2544POPC   C2B34856  40.840  39.498   8.331
 2544POPC   C3B34857  40.913  39.506   7.887
 2544POPC   C4B34858  40.677  39.404   7.484
 2545POPC   NC334859  35.833   9.719   9.587
 2545POPC   PO434860  36.373   9.951   9.335
 2545POPC   GL134861  36.089   9.729   9.131
 2545POPC   GL234862  36.370   9.648   8.944
 2545POPC   C1A34863  35.908   9.560   8.763
 2545POPC   D2A34864  35.893   9.798   8.357
 2545POPC   C3A34865  35.886   9.597   7.968
 2545POPC   C4A34866  35.951   9.728   7.549
 2545POPC   C1B34867  36.360   9.693   8.569
 2545POPC   C2B34868  36.357   9.659   8.184
 2545POPC   C3B34869  36.602   9.762   7.893
 2545POPC   C4B34870  36.633   9.420   7.642
 2546POPC   NC334871  24.383   3.405   9.694
 2546POPC   PO434872  23.639   3.542   9.665
 2546POPC   GL134873  23.580   3.487   9.236
 2546POPC   GL234874  23.929   3.470   9.203
 2546POPC   C1A34875  23.472   3.541   8.791
 2546POPC   D2A34876  23.677   3.677   8.413
 2546POPC   C3A34877  23.530   3.536   8.025
 2546POPC   C4A34878  23.657   3.797   7.706
 2546POPC   C1B34879  23.824   3.178   8.892
 2546POPC   C2B34880  23.750   3.184   8.470
 2546POPC   C3B34881  23.893   3.100   8.057
 2546POPC   C4B34882  23.835   3.304   7.651
 2547POPC   NC334883  44.931  36.476   9.258
 2547POPC   PO434884  44.408  36.377   9.668
 2547POPC   GL134885  44.575  36.108   9.287
 2547POPC   GL234886  44.898  35.875   9.131
 2547POPC   C1A34887  44.569  36.100   8.811
 2547POPC   D2A34888  44.846  36.155   8.421
 2547POPC   C3A34889  44.638  36.060   8.007
 2547POPC   C4A34890  44.614  36.257   7.591
 2547POPC   C1B34891  44.879  35.694   8.681
 2547POPC   C2B34892  44.938  35.697   8.193
 2547POPC   C3B34893  44.901  35.779   7.694
 2547POPC   C4B34894  44.763  35.626   7.226
 2548POPC   NC334895  41.628  29.434   9.548
 2548POPC   PO434896  41.217  28.966   9.443
 2548POPC   GL134897  41.471  29.194   9.132
 2548POPC   GL234898  41.297  29.531   9.169
 2548POPC   C1A34899  41.862  29.151   8.857
 2548POPC   D2A34900  41.989  28.929   8.467
 2548POPC   C3A34901  41.722  28.829   8.106
 2548POPC   C4A34902  41.415  28.866   7.775
 2548POPC   C1B34903  41.633  29.619   8.871
 2548POPC   C2B34904  41.541  29.486   8.476
 2548POPC   C3B34905  41.470  29.283   8.110
 2548POPC   C4B34906  41.691  29.311   7.778
 2549POPC   NC334907   9.644  21.830   9.312
 2549POPC   PO434908   9.919  21.335   9.529
 2549POPC   GL134909   9.787  21.257   9.153
 2549POPC   GL234910   9.459  21.383   9.118
 2549POPC   C1A34911   9.958  21.271   8.782
 2549POPC   D2A34912   9.843  21.107   8.393
 2549POPC   C3A34913  10.044  21.244   8.056
 2549POPC   C4A34914   9.867  21.326   7.656
 2549POPC   C1B34915   9.446  21.271   8.742
 2549POPC   C2B34916   9.501  21.493   8.394
 2549POPC   C3B34917   9.493  21.331   8.014
 2549POPC   C4B34918   9.450  21.622   7.709
 2550POPC   NC334919  11.154  43.719   9.451
 2550POPC   PO434920  11.743  43.593   9.244
 2550POPC   GL134921  11.384  43.727   8.994
 2550POPC   GL234922  11.131  44.010   9.016
 2550POPC   C1A34923  11.190  43.560   8.655
 2550POPC   D2A34924  11.272  43.471   8.247
 2550POPC   C3A34925  11.468  43.778   7.989
 2550POPC   C4A34926  11.627  43.675   7.601
 2550POPC   C1B34927  11.305  44.064   8.592
 2550POPC   C2B34928  11.131  44.126   8.168
 2550POPC   C3B34929  11.262  44.245   7.724
 2550POPC   C4B34930  11.255  44.388   7.240
 2551POPC   NC334931   1.580  44.152   9.497
 2551POPC   PO434932   1.050  43.742   9.541
 2551POPC   GL134933   1.315  43.803   9.216
 2551POPC   GL234934   1.101  43.623   9.030
 2551POPC   C1A34935   1.370  43.994   8.812
 2551POPC   D2A34936   1.356  43.789   8.422
 2551POPC   C3A34937   1.258  43.925   8.001
 2551POPC   C4A34938   1.492  44.142   7.682
 2551POPC   C1B34939   1.079  43.414   8.626
 2551POPC   C2B34940   0.986  43.417   8.220
 2551POPC   C3B34941   1.030  43.497   7.805
 2551POPC   C4B34942   1.276  43.705   7.527
 2552POPC   NC334943  23.627  27.700   9.527
 2552POPC   PO434944  24.031  27.169   9.424
 2552POPC   GL134945  23.777  27.417   9.116
 2552POPC   GL234946  23.838  27.774   9.060
 2552POPC   C1A34947  23.454  27.473   8.816
 2552POPC   D2A34948  23.426  27.321   8.404
 2552POPC   C3A34949  23.446  27.583   8.063
 2552POPC   C4A34950  23.545  27.523   7.640
 2552POPC   C1B34951  24.002  27.707   8.665
 2552POPC   C2B34952  23.921  27.475   8.293
 2552POPC   C3B34953  23.960  27.663   7.898
 2552POPC   C4B34954  24.111  28.059   7.805
 2553POPC   NC334955  21.120   7.059   9.415
 2553POPC   PO434956  20.551   6.718   9.497
 2553POPC   GL134957  20.804   6.568   9.109
 2553POPC   GL234958  20.683   6.221   9.037
 2553POPC   C1A34959  20.817   6.632   8.615
 2553POPC   D2A34960  20.583   6.544   8.188
 2553POPC   C3A34961  20.691   6.668   7.740
 2553POPC   C4A34962  20.578   7.039   7.462
 2553POPC   C1B34963  20.990   6.161   8.719
 2553POPC   C2B34964  21.013   6.297   8.263
 2553POPC   C3B34965  20.982   6.237   7.829
 2553POPC   C4B34966  20.768   6.256   7.414
 2554POPC   NC334967  19.408  11.312   9.498
 2554POPC   PO434968  18.775  11.438   9.505
 2554POPC   GL134969  19.059  11.641   9.174
 2554POPC   GL234970  19.221  11.362   9.017
 2554POPC   C1A34971  19.199  11.776   8.737
 2554POPC   D2A34972  19.231  11.503   8.385
 2554POPC   C3A34973  19.050  11.596   7.983
 2554POPC   C4A34974  19.202  11.534   7.574
 2554POPC   C1B34975  18.834  11.408   8.723
 2554POPC   C2B34976  18.791  11.265   8.264
 2554POPC   C3B34977  19.143  11.106   7.947
 2554POPC   C4B34978  19.217  11.039   7.486
 2555POPC   NC334979   5.143  40.248   9.426
 2555POPC   PO434980   5.707  40.147   9.601
 2555POPC   GL134981   5.512  40.157   9.075
 2555POPC   GL234982   5.084  40.081   8.966
 2555POPC   C1A34983   5.400  39.996   8.610
 2555POPC   D2A34984   4.954  40.080   8.431
 2555POPC   C3A34985   4.970  40.224   8.010
 2555POPC   C4A34986   5.258  40.014   7.732
 2555POPC   C1B34987   4.914  39.696   8.777
 2555POPC   C2B34988   5.064  39.540   8.417
 2555POPC   C3B34989   4.943  39.712   8.051
 2555POPC   C4B34990   5.053  39.518   7.705
 2556POPC   NC334991  33.726  22.583   9.457
 2556POPC   PO434992  33.465  21.917   9.345
 2556POPC   GL134993  33.618  22.242   9.072
 2556POPC   GL234994  33.964  22.336   9.060
 2556POPC   C1A34995  33.618  22.408   8.649
 2556POPC   D2A34996  33.629  22.117   8.341
 2556POPC   C3A34997  33.648  22.306   7.984
 2556POPC   C4A34998  33.635  22.169   7.603
 2556POPC   C1B34999  33.964  22.047   8.716
 2556POPC   C2B35000  34.123  21.958   8.275
 2556POPC   C3B35001  34.090  22.112   7.855
 2556POPC   C4B35002  34.100  22.049   7.391
 2557POPC   NC335003  23.888   6.477   9.757
 2557POPC   PO435004  23.358   6.808   9.402
 2557POPC   GL135005  23.742   6.682   9.160
 2557POPC   GL235006  23.915   6.375   9.260
 2557POPC   C1A35007  23.877   6.604   8.719
 2557POPC   D2A35008  24.045   6.828   8.353
 2557POPC   C3A35009  23.788   6.863   7.971
 2557POPC   C4A35010  23.610   6.531   7.776
 2557POPC   C1B35011  23.922   6.110   8.905
 2557POPC   C2B35012  24.083   6.156   8.491
 2557POPC   C3B35013  23.964   6.363   8.140
 2557POPC   C4B35014  24.016   6.238   7.723
 2558POPC   NC335015  25.474  24.387   9.619
 2558POPC   PO435016  24.853  24.559   9.526
 2558POPC   GL135017  25.145  24.361   9.220
 2558POPC   GL235018  25.395  24.635   9.174
 2558POPC   C1A35019  25.118  24.382   8.771
 2558POPC   D2A35020  25.285  24.432   8.357
 2558POPC   C3A35021  25.269  24.742   8.015
 2558POPC   C4A35022  25.266  24.497   7.628
 2558POPC   C1B35023  25.589  24.613   8.774
 2558POPC   C2B35024  25.805  24.426   8.423
 2558POPC   C3B35025  25.660  24.388   7.996
 2558POPC   C4B35026  25.728  24.700   7.700
 2559POPC   NC335027   5.430  31.735   9.350
 2559POPC   PO435028   4.793  32.013   9.592
 2559POPC   GL135029   4.926  31.770   9.199
 2559POPC   GL235030   5.153  31.913   8.958
 2559POPC   C1A35031   5.023  31.440   8.849
 2559POPC   D2A35032   4.980  31.231   8.453
 2559POPC   C3A35033   4.992  31.430   8.062
 2559POPC   C4A35034   5.020  31.203   7.704
 2559POPC   C1B35035   5.439  31.754   8.671
 2559POPC   C2B35036   5.414  31.638   8.257
 2559POPC   C3B35037   5.476  31.782   7.846
 2559POPC   C4B35038   5.343  31.599   7.464
 2560POPC   NC335039   0.242  22.668   9.437
 2560POPC   PO435040   0.312  22.007   9.477
 2560POPC   GL135041   0.397  21.973   9.076
 2560POPC   GL235042   0.499  22.327   9.062
 2560POPC   C1A35043   0.150  22.004   8.722
 2560POPC   D2A35044   0.041  22.204   8.349
 2560POPC   C3A35045   0.263  22.164   7.936
 2560POPC   C4A35046   0.337  22.500   7.574
 2560POPC   C1B35047   0.654  22.129   8.673
 2560POPC   C2B35048   0.523  21.864   8.342
 2560POPC   C3B35049   0.683  21.878   7.939
 2560POPC   C4B35050   0.736  22.337   7.865
 2561POPC   NC335051  32.304  16.184   9.205
 2561POPC   PO435052  32.617  15.610   9.476
 2561POPC   GL135053  32.389  15.693   9.073
 2561POPC   GL235054  32.009  15.726   9.146
 2561POPC   C1A35055  32.336  15.875   8.638
 2561POPC   D2A35056  32.083  15.707   8.327
 2561POPC   C3A35057  32.116  15.915   7.942
 2561POPC   C4A35058  32.399  16.166   7.710
 2561POPC   C1B35059  31.839  15.925   8.758
 2561POPC   C2B35060  31.926  16.185   8.383
 2561POPC   C3B35061  31.725  16.222   7.964
 2561POPC   C4B35062  31.930  16.360   7.589
 2562POPC   NC335063  18.369  41.787   9.481
 2562POPC   PO435064  18.450  42.386   9.491
 2562POPC   GL135065  18.441  42.251   9.118
 2562POPC   GL235066  18.692  41.963   9.122
 2562POPC   C1A35067  18.182  42.408   8.780
 2562POPC   D2A35068  17.946  42.321   8.405
 2562POPC   C3A35069  18.098  42.393   8.018
 2562POPC   C4A35070  17.962  42.628   7.711
 2562POPC   C1B35071  18.705  42.146   8.715
 2562POPC   C2B35072  18.478  42.291   8.369
 2562POPC   C3B35073  18.579  42.228   7.943
 2562POPC   C4B35074  18.388  42.408   7.532
 2563POPC   NC335075  29.867  25.632   9.490
 2563POPC   PO435076  29.611  24.944   9.500
 2563POPC   GL135077  29.661  25.269   9.206
 2563POPC   GL235078  29.997  25.323   9.109
 2563POPC   C1A35079  29.607  25.389   8.794
 2563POPC   D2A35080  29.681  25.199   8.402
 2563POPC   C3A35081  29.688  25.356   7.988
 2563POPC   C4A35082  29.642  25.619   7.623
 2563POPC   C1B35083  30.005  25.016   8.780
 2563POPC   C2B35084  30.298  24.985   8.424
 2563POPC   C3B35085  30.219  25.057   8.002
 2563POPC   C4B35086  30.139  25.340   7.701
 2564POPC   NC335087   2.286  37.597   9.476
 2564POPC   PO435088   1.681  37.199   9.453
 2564POPC   GL135089   1.867  37.480   9.144
 2564POPC   GL235090   2.053  37.793   9.081
 2564POPC   C1A35091   1.774  37.599   8.721
 2564POPC   D2A35092   1.844  37.870   8.390
 2564POPC   C3A35093   1.756  37.707   7.989
 2564POPC   C4A35094   1.846  37.807   7.591
 2564POPC   C1B35095   2.139  38.083   8.764
 2564POPC   C2B35096   2.318  38.063   8.354
 2564POPC   C3B35097   2.273  37.828   7.967
 2564POPC   C4B35098   2.289  38.019   7.528
 2565POPC   NC335099  43.211  42.181   9.437
 2565POPC   PO435100  42.823  42.749   9.520
 2565POPC   GL135101  42.894  42.430   9.139
 2565POPC   GL235102  43.281  42.324   8.963
 2565POPC   C1A35103  42.828  42.193   8.761
 2565POPC   D2A35104  43.143  42.228   8.432
 2565POPC   C3A35105  42.975  42.090   8.077
 2565POPC   C4A35106  42.792  42.278   7.726
 2565POPC   C1B35107  43.106  42.640   8.713
 2565POPC   C2B35108  43.151  42.825   8.332
 2565POPC   C3B35109  43.157  42.570   7.987
 2565POPC   C4B35110  43.226  42.528   7.570
 2566POPC   NC335111  17.253  30.354   9.385
 2566POPC   PO435112  16.779  29.847   9.551
 2566POPC   GL135113  16.768  29.856   9.111
 2566POPC   GL235114  16.872  30.177   9.102
 2566POPC   C1A35115  16.634  29.748   8.687
 2566POPC   D2A35116  16.661  29.943   8.271
 2566POPC   C3A35117  16.579  29.705   7.947
 2566POPC   C4A35118  16.608  29.702   7.518
 2566POPC   C1B35119  16.880  30.190   8.674
 2566POPC   C2B35120  17.125  30.183   8.323
 2566POPC   C3B35121  16.942  30.275   7.947
 2566POPC   C4B35122  16.593  30.175   7.755
 2567POPC   NC335123  19.601   4.067   9.475
 2567POPC   PO435124  20.175   4.427   9.493
 2567POPC   GL135125  19.894   4.322   9.143
 2567POPC   GL235126  19.548   4.480   9.153
 2567POPC   C1A35127  19.950   4.114   8.764
 2567POPC   D2A35128  19.813   4.225   8.359
 2567POPC   C3A35129  20.026   4.409   8.020
 2567POPC   C4A35130  20.171   4.103   7.711
 2567POPC   C1B35131  19.490   4.414   8.735
 2567POPC   C2B35132  19.543   4.683   8.377
 2567POPC   C3B35133  19.648   4.741   7.966
 2567POPC   C4B35134  19.436   4.480   7.729
 2568POPC   NC335135   6.954  33.008   9.416
 2568POPC   PO435136   6.489  33.392   9.451
 2568POPC   GL135137   6.448  33.136   9.087
 2568POPC   GL235138   6.759  33.036   8.971
 2568POPC   C1A35139   6.418  33.016   8.644
 2568POPC   D2A35140   6.627  32.886   8.286
 2568POPC   C3A35141   6.371  32.982   7.901
 2568POPC   C4A35142   6.353  33.339   7.629
 2568POPC   C1B35143   6.890  33.263   8.630
 2568POPC   C2B35144   6.770  33.374   8.257
 2568POPC   C3B35145   6.827  33.145   7.870
 2568POPC   C4B35146   6.752  32.813   7.553
 2569POPC   NC335147   8.339  42.903   9.410
 2569POPC   PO435148   7.722  43.029   9.652
 2569POPC   GL135149   7.890  43.014   9.179
 2569POPC   GL235150   7.943  43.344   9.031
 2569POPC   C1A35151   8.138  42.975   8.759
 2569POPC   D2A35152   8.115  43.193   8.353
 2569POPC   C3A35153   8.262  42.986   7.979
 2569POPC   C4A35154   8.548  42.789   7.720
 2569POPC   C1B35155   7.805  43.525   8.650
 2569POPC   C2B35156   7.677  43.431   8.224
 2569POPC   C3B35157   7.934  43.358   7.837
 2569POPC   C4B35158   8.404  43.386   7.695
 2570POPC   NC335159  13.999   5.712   9.486
 2570POPC   PO435160  13.478   6.137   9.493
 2570POPC   GL135161  13.376   6.032   9.089
 2570POPC   GL235162  13.634   5.784   9.035
 2570POPC   C1A35163  13.300   5.965   8.685
 2570POPC   D2A35164  13.612   5.749   8.482
 2570POPC   C3A35165  13.573   5.887   8.118
 2570POPC   C4A35166  13.325   6.000   7.791
 2570POPC   C1B35167  14.001   5.600   8.810
 2570POPC   C2B35168  14.060   5.435   8.416
 2570POPC   C3B35169  13.941   5.512   7.993
 2570POPC   C4B35170  13.793   5.793   7.678
 2571POPC   NC335171   4.534  13.850   9.496
 2571POPC   PO435172   4.064  13.448   9.301
 2571POPC   GL135173   4.221  13.730   9.007
 2571POPC   GL235174   4.554  13.721   9.009
 2571POPC   C1A35175   4.312  13.696   8.549
 2571POPC   D2A35176   4.098  13.344   8.345
 2571POPC   C3A35177   3.921  13.395   7.951
 2571POPC   C4A35178   3.867  13.675   7.626
 2571POPC   C1B35179   4.821  13.578   8.698
 2571POPC   C2B35180   4.765  13.759   8.291
 2571POPC   C3B35181   4.394  13.742   8.036
 2571POPC   C4B35182   4.319  13.900   7.645
 2572POPC   NC335183  25.016  16.150   9.547
 2572POPC   PO435184  25.502  15.834   9.382
 2572POPC   GL135185  25.212  15.745   9.069
 2572POPC   GL235186  24.891  15.651   8.949
 2572POPC   C1A35187  25.287  15.593   8.654
 2572POPC   D2A35188  25.013  15.736   8.336
 2572POPC   C3A35189  25.329  15.854   8.032
 2572POPC   C4A35190  25.493  16.202   7.760
 2572POPC   C1B35191  24.855  16.039   8.765
 2572POPC   C2B35192  24.640  16.122   8.380
 2572POPC   C3B35193  24.854  16.044   7.964
 2572POPC   C4B35194  24.984  16.372   7.697
 2573POPC   NC335195   6.740  40.990   9.468
 2573POPC   PO435196   6.556  41.622   9.462
 2573POPC   GL135197   6.686  41.383   9.142
 2573POPC   GL235198   6.725  41.693   8.982
 2573POPC   C1A35199   6.601  41.246   8.748
 2573POPC   D2A35200   6.698  41.537   8.433
 2573POPC   C3A35201   6.578  41.422   7.991
 2573POPC   C4A35202   6.675  41.549   7.554
 2573POPC   C1B35203   7.057  41.933   8.828
 2573POPC   C2B35204   7.156  41.774   8.448
 2573POPC   C3B35205   6.922  41.801   8.058
 2573POPC   C4B35206   6.800  42.035   7.685
 2574POPC   NC335207   9.194  24.680   9.430
 2574POPC   PO435208   8.784  24.129   9.490
 2574POPC   GL135209   8.864  24.361   9.132
 2574POPC   GL235210   8.578  24.629   9.160
 2574POPC   C1A35211   9.180  24.348   8.769
 2574POPC   D2A35212   9.304  24.699   8.494
 2574POPC   C3A35213   9.245  24.644   8.082
 2574POPC   C4A35214   9.264  24.557   7.664
 2574POPC   C1B35215   8.842  24.738   8.798
 2574POPC   C2B35216   8.817  24.516   8.415
 2574POPC   C3B35217   8.745  24.572   7.999
 2574POPC   C4B35218   8.881  24.857   7.736
 2575POPC   NC335219  24.702   8.908   9.474
 2575POPC   PO435220  24.095   9.013   9.377
 2575POPC   GL135221  24.355   8.833   9.089
 2575POPC   GL235222  24.539   9.139   9.047
 2575POPC   C1A35223  24.733   8.753   8.795
 2575POPC   D2A35224  24.747   8.999   8.429
 2575POPC   C3A35225  24.460   8.807   8.118
 2575POPC   C4A35226  24.484   8.808   7.669
 2575POPC   C1B35227  24.209   9.133   8.714
 2575POPC   C2B35228  24.092   9.168   8.299
 2575POPC   C3B35229  24.207   9.219   7.888
 2575POPC   C4B35230  23.957   9.055   7.565
 2576POPC   NC335231  19.323  20.298   9.743
 2576POPC   PO435232  18.981  19.810   9.438
 2576POPC   GL135233  19.083  19.667   9.039
 2576POPC   GL235234  19.306  19.911   8.930
 2576POPC   C1A35235  19.373  19.480   8.723
 2576POPC   D2A35236  19.400  19.827   8.415
 2576POPC   C3A35237  19.076  19.767   8.132
 2576POPC   C4A35238  18.953  19.599   7.750
 2576POPC   C1B35239  18.945  19.935   8.649
 2576POPC   C2B35240  19.060  20.251   8.419
 2576POPC   C3B35241  19.282  20.224   8.069
 2576POPC   C4B35242  19.069  20.099   7.706
 2577POPC   NC335243  33.985  32.691   9.302
 2577POPC   PO435244  33.507  33.042   9.622
 2577POPC   GL135245  33.702  33.093   9.137
 2577POPC   GL235246  34.010  33.210   9.044
 2577POPC   C1A35247  33.780  32.907   8.692
 2577POPC   D2A35248  33.612  32.741   8.309
 2577POPC   C3A35249  33.628  33.039   7.985
 2577POPC   C4A35250  33.985  33.101   7.798
 2577POPC   C1B35251  34.232  33.162   8.659
 2577POPC   C2B35252  34.211  32.779   8.412
 2577POPC   C3B35253  34.288  32.628   8.008
 2577POPC   C4B35254  34.222  32.713   7.593
 2578POPC   NC335255   0.392  31.033   9.496
 2578POPC   PO435256   0.550  30.371   9.493
 2578POPC   GL135257   0.650  30.608   9.153
 2578POPC   GL235258   0.396  30.817   9.037
 2578POPC   C1A35259   0.792  30.685   8.734
 2578POPC   D2A35260   0.636  30.786   8.338
 2578POPC   C3A35261   0.334  30.547   8.109
 2578POPC   C4A35262   0.422  30.484   7.695
 2578POPC   C1B35263   0.529  31.129   8.754
 2578POPC   C2B35264   0.402  31.267   8.360
 2578POPC   C3B35265   0.417  31.058   7.947
 2578POPC   C4B35266   0.217  30.922   7.547
 2579POPC   NC335267  15.380   5.608   9.428
 2579POPC   PO435268  14.865   5.973   9.437
 2579POPC   GL135269  15.046   5.861   9.081
 2579POPC   GL235270  14.990   5.497   9.060
 2579POPC   C1A35271  15.089   6.025   8.658
 2579POPC   D2A35272  14.975   5.819   8.285
 2579POPC   C3A35273  15.087   6.014   7.896
 2579POPC   C4A35274  15.543   6.089   7.818
 2579POPC   C1B35275  15.339   5.597   8.756
 2579POPC   C2B35276  15.462   5.706   8.334
 2579POPC   C3B35277  15.370   5.594   7.921
 2579POPC   C4B35278  15.075   5.557   7.592
 2580POPC   NC335279  10.345  11.322   9.509
 2580POPC   PO435280  10.812  11.778   9.323
 2580POPC   GL135281  10.810  11.434   9.059
 2580POPC   GL235282  10.520  11.161   9.054
 2580POPC   C1A35283  10.793  11.377   8.611
 2580POPC   D2A35284  10.581  11.072   8.345
 2580POPC   C3A35285  10.529  11.291   7.963
 2580POPC   C4A35286  10.749  11.649   7.793
 2580POPC   C1B35287  10.352  11.491   8.811
 2580POPC   C2B35288  10.264  11.478   8.394
 2580POPC   C3B35289  10.200  11.670   8.021
 2580POPC   C4B35290  10.180  11.454   7.634
 2581POPC   NC335291  28.750   8.402   9.533
 2581POPC   PO435292  29.255   8.098   9.413
 2581POPC   GL135293  29.152   8.094   9.079
 2581POPC   GL235294  28.806   8.103   9.096
 2581POPC   C1A35295  29.166   8.256   8.720
 2581POPC   D2A35296  29.407   8.312   8.368
 2581POPC   C3A35297  29.253   8.175   8.023
 2581POPC   C4A35298  29.226   8.247   7.629
 2581POPC   C1B35299  28.902   7.787   8.777
 2581POPC   C2B35300  28.964   7.945   8.384
 2581POPC   C3B35301  28.971   7.761   8.019
 2581POPC   C4B35302  28.935   7.798   7.636
 2582POPC   NC335303  11.917  36.654   9.388
 2582POPC   PO435304  12.466  37.141   9.483
 2582POPC   GL135305  12.142  37.101   9.171
 2582POPC   GL235306  12.326  36.792   9.102
 2582POPC   C1A35307  11.831  37.042   8.810
 2582POPC   D2A35308  11.716  37.028   8.390
 2582POPC   C3A35309  12.055  37.010   8.078
 2582POPC   C4A35310  12.228  37.314   7.778
 2582POPC   C1B35311  12.309  36.883   8.694
 2582POPC   C2B35312  12.383  36.568   8.443
 2582POPC   C3B35313  12.387  36.509   8.031
 2582POPC   C4B35314  12.174  36.711   7.680
 2583POPC   NC335315  44.780  16.066   9.475
 2583POPC   PO435316  44.230  16.024   9.814
 2583POPC   GL135317  44.309  15.870   9.291
 2583POPC   GL235318  44.634  15.766   9.085
 2583POPC   C1A35319  44.334  16.038   8.794
 2583POPC   D2A35320  44.364  15.948   8.351
 2583POPC   C3A35321  44.398  16.166   7.976
 2583POPC   C4A35322  44.444  15.860   7.600
 2583POPC   C1B35323  44.862  16.095   8.808
 2583POPC   C2B35324  44.835  16.182   8.368
 2583POPC   C3B35325  44.821  15.887   8.019
 2583POPC   C4B35326  44.907  16.063   7.604
 2584POPC   NC335327  34.684  22.806   9.595
 2584POPC   PO435328  34.236  23.193   9.358
 2584POPC   GL135329  34.416  23.015   9.009
 2584POPC   GL235330  34.723  22.899   9.098
 2584POPC   C1A35331  34.502  23.003   8.568
 2584POPC   D2A35332  34.582  22.655   8.315
 2584POPC   C3A35333  34.395  22.724   7.956
 2584POPC   C4A35334  34.552  23.142   7.905
 2584POPC   C1B35335  34.865  22.702   8.751
 2584POPC   C2B35336  35.062  22.851   8.408
 2584POPC   C3B35337  35.011  22.690   8.014
 2584POPC   C4B35338  34.780  22.585   7.651
 2585POPC   NC335339  23.981  12.493   9.515
 2585POPC   PO435340  23.447  12.899   9.528
 2585POPC   GL135341  23.567  12.788   9.117
 2585POPC   GL235342  23.743  12.514   9.082
 2585POPC   C1A35343  23.747  12.881   8.716
 2585POPC   D2A35344  23.537  12.840   8.353
 2585POPC   C3A35345  23.723  12.934   7.972
 2585POPC   C4A35346  23.492  13.008   7.627
 2585POPC   C1B35347  23.966  12.410   8.731
 2585POPC   C2B35348  24.041  12.615   8.322
 2585POPC   C3B35349  24.127  12.635   7.891
 2585POPC   C4B35350  23.982  12.769   7.503
 2586POPC   NC335351  41.741  16.671   9.552
 2586POPC   PO435352  41.343  17.193   9.678
 2586POPC   GL135353  41.396  16.945   9.271
 2586POPC   GL235354  41.338  16.556   9.266
 2586POPC   C1A35355  41.325  16.974   8.820
 2586POPC   D2A35356  41.561  17.098   8.472
 2586POPC   C3A35357  41.408  16.911   8.107
 2586POPC   C4A35358  41.265  16.970   7.685
 2586POPC   C1B35359  41.599  16.541   8.913
 2586POPC   C2B35360  41.549  16.573   8.493
 2586POPC   C3B35361  41.816  16.569   8.157
 2586POPC   C4B35362  41.640  16.606   7.752
 2587POPC   NC335363  41.172  18.284   9.309
 2587POPC   PO435364  41.763  18.570   9.399
 2587POPC   GL135365  41.507  18.585   9.036
 2587POPC   GL235366  41.583  18.207   8.994
 2587POPC   C1A35367  41.480  18.541   8.574
 2587POPC   D2A35368  41.844  18.500   8.274
 2587POPC   C3A35369  41.803  18.791   7.927
 2587POPC   C4A35370  41.668  18.756   7.516
 2587POPC   C1B35371  41.252  18.066   8.685
 2587POPC   C2B35372  41.245  18.133   8.249
 2587POPC   C3B35373  41.374  18.488   8.035
 2587POPC   C4B35374  41.680  18.297   7.784
 2588POPC   NC335375   9.098  20.248   9.388
 2588POPC   PO435376   8.575  20.008   9.741
 2588POPC   GL135377   8.737  19.896   9.225
 2588POPC   GL235378   9.079  19.882   9.023
 2588POPC   C1A35379   8.663  19.963   8.771
 2588POPC   D2A35380   8.967  20.150   8.497
 2588POPC   C3A35381   8.910  20.123   8.075
 2588POPC   C4A35382   9.019  19.879   7.754
 2588POPC   C1B35383   9.046  19.643   8.618
 2588POPC   C2B35384   8.930  19.607   8.179
 2588POPC   C3B35385   9.039  19.355   7.821
 2588POPC   C4B35386   8.798  19.128   7.517
 2589POPC   NC335387  33.083  15.528   9.569
 2589POPC   PO435388  33.004  14.961   9.320
 2589POPC   GL135389  33.133  15.130   9.029
 2589POPC   GL235390  32.936  15.457   9.077
 2589POPC   C1A35391  33.209  14.900   8.676
 2589POPC   D2A35392  33.404  14.904   8.305
 2589POPC   C3A35393  33.173  15.065   7.963
 2589POPC   C4A35394  32.993  15.081   7.542
 2589POPC   C1B35395  32.780  15.227   8.705
 2589POPC   C2B35396  33.077  15.332   8.397
 2589POPC   C3B35397  33.095  15.655   8.104
 2589POPC   C4B35398  33.015  15.573   7.689
 2590POPC   NC335399   2.235  19.121   9.430
 2590POPC   PO435400   1.730  19.468   9.168
 2590POPC   GL135401   2.054  19.277   8.957
 2590POPC   GL235402   2.090  18.935   8.974
 2590POPC   C1A35403   2.078  19.169   8.525
 2590POPC   D2A35404   2.046  19.175   8.105
 2590POPC   C3A35405   1.840  19.435   7.843
 2590POPC   C4A35406   1.973  19.182   7.541
 2590POPC   C1B35407   2.129  18.665   8.613
 2590POPC   C2B35408   1.852  18.641   8.273
 2590POPC   C3B35409   2.004  18.700   7.878
 2590POPC   C4B35410   2.384  18.518   7.765
 2591POPC   NC335411  14.282  21.305   9.445
 2591POPC   PO435412  14.857  21.423   9.263
 2591POPC   GL135413  14.537  21.456   8.955
 2591POPC   GL235414  14.303  21.684   9.088
 2591POPC   C1A35415  14.402  21.449   8.512
 2591POPC   D2A35416  14.259  21.095   8.299
 2591POPC   C3A35417  14.489  21.200   7.985
 2591POPC   C4A35418  14.489  21.614   7.853
 2591POPC   C1B35419  14.054  21.344   8.837
 2591POPC   C2B35420  13.873  21.436   8.448
 2591POPC   C3B35421  14.031  21.467   8.030
 2591POPC   C4B35422  14.055  21.155   7.715
 2592POPC   NC335423  29.608  11.463   9.404
 2592POPC   PO435424  30.034  10.949   9.424
 2592POPC   GL135425  30.068  11.371   9.194
 2592POPC   GL235426  30.402  11.360   9.108
 2592POPC   C1A35427  29.869  11.497   8.775
 2592POPC   D2A35428  29.625  11.478   8.358
 2592POPC   C3A35429  29.784  11.226   7.976
 2592POPC   C4A35430  29.846  11.218   7.485
 2592POPC   C1B35431  30.204  11.102   8.790
 2592POPC   C2B35432  30.035  10.976   8.378
 2592POPC   C3B35433  30.212  10.939   7.964
 2592POPC   C4B35434  30.283  11.334   7.734
 2593POPC   NC335435  38.300  26.675   9.776
 2593POPC   PO435436  38.718  27.155   9.546
 2593POPC   GL135437  38.490  27.204   9.136
 2593POPC   GL235438  38.107  27.175   9.149
 2593POPC   C1A35439  38.496  26.956   8.731
 2593POPC   D2A35440  38.620  26.759   8.298
 2593POPC   C3A35441  38.495  26.713   7.809
 2593POPC   C4A35442  38.574  26.445   7.408
 2593POPC   C1B35443  38.115  27.292   8.697
 2593POPC   C2B35444  38.209  27.060   8.324
 2593POPC   C3B35445  38.344  27.205   7.921
 2593POPC   C4B35446  38.134  27.097   7.554
 2594POPC   NC335447  33.774  36.423   9.507
 2594POPC   PO435448  33.973  35.728   9.360
 2594POPC   GL135449  33.830  36.093   9.127
 2594POPC   GL235450  33.532  36.264   9.062
 2594POPC   C1A35451  33.918  36.397   8.789
 2594POPC   D2A35452  34.063  36.265   8.402
 2594POPC   C3A35453  33.786  36.368   8.085
 2594POPC   C4A35454  33.937  36.290   7.737
 2594POPC   C1B35455  33.622  35.972   8.688
 2594POPC   C2B35456  33.751  35.884   8.254
 2594POPC   C3B35457  33.695  35.826   7.779
 2594POPC   C4B35458  33.538  35.881   7.322
 2595POPC   NC335459  23.556  27.100   9.449
 2595POPC   PO435460  23.847  26.461   9.616
 2595POPC   GL135461  23.809  26.695   9.225
 2595POPC   GL235462  23.484  26.697   9.129
 2595POPC   C1A35463  23.831  26.698   8.769
 2595POPC   D2A35464  23.906  26.964   8.433
 2595POPC   C3A35465  23.759  26.839   8.056
 2595POPC   C4A35466  23.787  27.064   7.653
 2595POPC   C1B35467  23.352  26.923   8.749
 2595POPC   C2B35468  23.252  26.863   8.304
 2595POPC   C3B35469  23.343  27.084   7.895
 2595POPC   C4B35470  23.365  26.876   7.454
 2596POPC   NC335471   3.428  18.247   9.432
 2596POPC   PO435472   3.999  18.591   9.427
 2596POPC   GL135473   3.950  18.520   9.013
 2596POPC   GL235474   3.597  18.558   9.037
 2596POPC   C1A35475   3.967  18.496   8.571
 2596POPC   D2A35476   3.600  18.514   8.334
 2596POPC   C3A35477   3.653  18.454   7.899
 2596POPC   C4A35478   3.351  18.410   7.627
 2596POPC   C1B35479   3.587  18.205   8.782
 2596POPC   C2B35480   3.775  18.032   8.420
 2596POPC   C3B35481   3.524  17.983   8.071
 2596POPC   C4B35482   3.542  17.930   7.649
 2597POPC   NC335483  21.752  16.405   9.497
 2597POPC   PO435484  22.435  16.718   9.540
 2597POPC   GL135485  22.273  16.557   9.151
 2597POPC   GL235486  21.951  16.719   9.147
 2597POPC   C1A35487  22.148  16.523   8.698
 2597POPC   D2A35488  22.374  16.532   8.289
 2597POPC   C3A35489  22.146  16.584   7.936
 2597POPC   C4A35490  21.751  16.528   7.737
 2597POPC   C1B35491  21.882  16.967   8.777
 2597POPC   C2B35492  22.031  16.927   8.358
 2597POPC   C3B35493  22.038  17.081   7.928
 2597POPC   C4B35494  21.740  17.167   7.612
 2598POPC   NC335495  21.618  38.350   9.528
 2598POPC   PO435496  21.005  38.685   9.501
 2598POPC   GL135497  21.251  38.467   9.187
 2598POPC   GL235498  21.183  38.134   9.116
 2598POPC   C1A35499  21.611  38.379   8.890
 2598POPC   D2A35500  21.773  38.551   8.504
 2598POPC   C3A35501  21.686  38.255   8.179
 2598POPC   C4A35502  21.695  38.334   7.753
 2598POPC   C1B35503  21.127  38.268   8.717
 2598POPC   C2B35504  21.207  38.388   8.316
 2598POPC   C3B35505  21.248  38.156   7.918
 2598POPC   C4B35506  21.281  38.225   7.441
 2599POPC   NC335507  16.622  31.124   9.475
 2599POPC   PO435508  17.135  30.781   9.552
 2599POPC   GL135509  16.835  30.694   9.223
 2599POPC   GL235510  17.089  30.661   9.020
 2599POPC   C1A35511  16.628  30.624   8.788
 2599POPC   D2A35512  16.435  30.373   8.419
 2599POPC   C3A35513  16.419  30.589   8.011
 2599POPC   C4A35514  16.466  31.000   7.793
 2599POPC   C1B35515  17.123  30.631   8.610
 2599POPC   C2B35516  16.852  30.645   8.272
 2599POPC   C3B35517  16.916  30.770   7.815
 2599POPC   C4B35518  16.931  31.237   7.704
 2600POPC   NC335519  15.542  27.420   9.428
 2600POPC   PO435520  16.194  27.481   9.393
 2600POPC   GL135521  16.168  27.543   8.971
 2600POPC   GL235522  15.797  27.536   9.002
 2600POPC   C1A35523  15.992  27.551   8.550
 2600POPC   D2A35524  15.762  27.877   8.459
 2600POPC   C3A35525  15.722  27.826   8.010
 2600POPC   C4A35526  15.688  27.793   7.549
 2600POPC   C1B35527  15.699  27.163   8.720
 2600POPC   C2B35528  15.737  27.019   8.285
 2600POPC   C3B35529  15.861  27.301   7.918
 2600POPC   C4B35530  15.905  27.320   7.450
 2601POPC   NC335531   0.643  42.102   9.484
 2601POPC   PO435532   0.251  42.588   9.479
 2601POPC   GL135533   0.408  42.400   9.117
 2601POPC   GL235534   0.796  42.462   9.063
 2601POPC   C1A35535   0.534  42.174   8.743
 2601POPC   D2A35536   0.908  42.304   8.528
 2601POPC   C3A35537   0.798  42.387   8.100
 2601POPC   C4A35538   0.468  42.181   7.840
 2601POPC   C1B35539   0.547  42.699   8.723
 2601POPC   C2B35540   0.370  42.581   8.316
 2601POPC   C3B35541   0.445  42.701   7.882
 2601POPC   C4B35542   0.547  42.504   7.457
 2602POPC   NC335543  31.845  31.522   9.442
 2602POPC   PO435544  31.265  31.735   9.595
 2602POPC   GL135545  31.413  31.485   9.168
 2602POPC   GL235546  31.683  31.247   9.047
 2602POPC   C1A35547  31.319  31.454   8.721
 2602POPC   D2A35548  31.128  31.481   8.296
 2602POPC   C3A35549  31.325  31.697   7.992
 2602POPC   C4A35550  31.283  31.603   7.582
 2602POPC   C1B35551  31.644  31.060   8.677
 2602POPC   C2B35552  31.561  31.214   8.279
 2602POPC   C3B35553  31.607  31.284   7.863
 2602POPC   C4B35554  31.710  30.969   7.613
 2603POPC   NC335555  25.732  34.731   9.250
 2603POPC   PO435556  25.520  34.302   9.709
 2603POPC   GL135557  25.339  34.398   9.206
 2603POPC   GL235558  25.191  34.728   9.155
 2603POPC   C1A35559  25.423  34.574   8.718
 2603POPC   D2A35560  25.200  34.636   8.314
 2603POPC   C3A35561  25.338  34.553   7.901
 2603POPC   C4A35562  25.290  34.136   7.736
 2603POPC   C1B35563  24.930  34.722   8.738
 2603POPC   C2B35564  24.690  34.822   8.352
 2603POPC   C3B35565  24.885  34.864   7.971
 2603POPC   C4B35566  24.953  34.685   7.582
 2604POPC   NC335567  42.789  12.525   9.382
 2604POPC   PO435568  43.173  13.182   9.564
 2604POPC   GL135569  43.021  12.975   9.205
 2604POPC   GL235570  42.677  12.942   9.133
 2604POPC   C1A35571  43.063  12.862   8.786
 2604POPC   D2A35572  43.243  12.905   8.409
 2604POPC   C3A35573  42.932  12.941   8.163
 2604POPC   C4A35574  43.008  12.859   7.775
 2604POPC   C1B35575  42.574  12.614   8.792
 2604POPC   C2B35576  42.534  12.625   8.345
 2604POPC   C3B35577  42.666  12.510   7.922
 2604POPC   C4B35578  42.591  12.712   7.506
 2605POPC   NC335579  25.993  28.034   9.410
 2605POPC   PO435580  26.464  28.444   9.514
 2605POPC   GL135581  26.150  28.509   9.156
 2605POPC   GL235582  26.068  28.209   8.952
 2605POPC   C1A35583  25.952  28.660   8.743
 2605POPC   D2A35584  25.984  28.469   8.345
 2605POPC   C3A35585  25.692  28.435   8.023
 2605POPC   C4A35586  25.893  28.290   7.681
 2605POPC   C1B35587  26.400  28.402   8.711
 2605POPC   C2B35588  26.505  28.268   8.304
 2605POPC   C3B35589  26.364  28.356   7.892
 2605POPC   C4B35590  26.327  28.553   7.489
 2606POPC   NC335591   5.842   1.560   9.478
 2606POPC   PO435592   6.207   1.037   9.481
 2606POPC   GL135593   6.045   0.995   9.095
 2606POPC   GL235594   5.731   1.132   9.196
 2606POPC   C1A35595   6.104   1.185   8.692
 2606POPC   D2A35596   5.959   1.586   8.504
 2606POPC   C3A35597   5.900   1.501   8.082
 2606POPC   C4A35598   5.591   1.414   7.805
 2606POPC   C1B35599   5.636   1.324   8.817
 2606POPC   C2B35600   5.613   1.174   8.391
 2606POPC   C3B35601   5.331   0.928   8.150
 2606POPC   C4B35602   5.340   0.983   7.713
 2607POPC   NC335603  14.921  27.100   9.445
 2607POPC   PO435604  15.247  27.759   9.548
 2607POPC   GL135605  15.077  27.688   9.104
 2607POPC   GL235606  15.171  27.349   9.052
 2607POPC   C1A35607  15.033  27.917   8.640
 2607POPC   D2A35608  15.297  27.980   8.264
 2607POPC   C3A35609  15.224  27.721   7.914
 2607POPC   C4A35610  14.909  27.935   7.775
 2607POPC   C1B35611  15.380  27.559   8.706
 2607POPC   C2B35612  15.485  27.468   8.304
 2607POPC   C3B35613  15.360  27.246   7.951
 2607POPC   C4B35614  15.421  27.343   7.562
 2608POPC   NC335615  38.232  10.088   9.586
 2608POPC   PO435616  38.746   9.619   9.425
 2608POPC   GL135617  38.476   9.842   9.200
 2608POPC   GL235618  38.151   9.695   9.162
 2608POPC   C1A35619  38.332  10.062   8.864
 2608POPC   D2A35620  38.516  10.018   8.440
 2608POPC   C3A35621  38.390   9.900   8.015
 2608POPC   C4A35622  38.552  10.023   7.617
 2608POPC   C1B35623  38.414   9.582   8.747
 2608POPC   C2B35624  38.422   9.495   8.315
 2608POPC   C3B35625  38.619   9.407   7.943
 2608POPC   C4B35626  38.427   9.523   7.575
 2609POPC   NC335627  27.229   5.485   9.380
 2609POPC   PO435628  27.101   4.814   9.467
 2609POPC   GL135629  26.915   4.888   9.061
 2609POPC   GL235630  26.935   5.201   9.068
 2609POPC   C1A35631  26.951   4.905   8.610
 2609POPC   D2A35632  27.323   4.798   8.357
 2609POPC   C3A35633  27.110   4.871   8.007
 2609POPC   C4A35634  26.705   4.757   7.893
 2609POPC   C1B35635  26.746   5.376   8.712
 2609POPC   C2B35636  26.899   5.434   8.290
 2609POPC   C3B35637  26.780   5.282   7.904
 2609POPC   C4B35638  26.439   5.521   7.737
 2610POPC   NC335639  13.299  22.742   9.468
 2610POPC   PO435640  13.917  22.981   9.433
 2610POPC   GL135641  13.685  23.007   9.128
 2610POPC   GL235642  13.457  23.247   9.261
 2610POPC   C1A35643  13.709  22.879   8.695
 2610POPC   D2A35644  13.562  22.890   8.271
 2610POPC   C3A35645  13.843  22.957   7.918
 2610POPC   C4A35646  13.589  22.721   7.647
 2610POPC   C1B35647  13.427  23.285   8.804
 2610POPC   C2B35648  13.133  23.106   8.519
 2610POPC   C3B35649  13.068  23.085   8.100
 2610POPC   C4B35650  13.373  23.173   7.819
 2611POPC   NC335651  44.594  25.853   9.435
 2611POPC   PO435652   0.126  26.344   9.375
 2611POPC   GL135653  44.859  26.140   9.026
 2611POPC   GL235654  44.864  25.793   9.004
 2611POPC   C1A35655  44.753  26.265   8.587
 2611POPC   D2A35656  44.404  26.368   8.266
 2611POPC   C3A35657  44.548  26.225   7.852
 2611POPC   C4A35658  44.852  25.874   7.826
 2611POPC   C1B35659  44.557  25.773   8.676
 2611POPC   C2B35660  44.542  25.815   8.239
 2611POPC   C3B35661  44.451  25.487   7.946
 2611POPC   C4B35662  44.379  25.575   7.534
 2612POPC   NC335663  30.766  44.393   9.610
 2612POPC   PO435664  30.554  43.780   9.566
 2612POPC   GL135665  30.557  44.033   9.202
 2612POPC   GL235666  30.766  43.796   9.031
 2612POPC   C1A35667  30.594  44.197   8.770
 2612POPC   D2A35668  30.731  44.308   8.366
 2612POPC   C3A35669  30.522  44.134   8.005
 2612POPC   C4A35670  30.712  43.990   7.648
 2612POPC   C1B35671  30.420  43.695   8.794
 2612POPC   C2B35672  30.510  43.794   8.389
 2612POPC   C3B35673  30.564  43.610   7.993
 2612POPC   C4B35674  30.300  43.677   7.657
 2613POPC   NC335675  15.725   5.050   9.579
 2613POPC   PO435676  16.413   5.043   9.570
 2613POPC   GL135677  16.136   5.037   9.207
 2613POPC   GL235678  15.821   5.180   9.110
 2613POPC   C1A35679  16.201   4.829   8.807
 2613POPC   D2A35680  16.050   4.793   8.371
 2613POPC   C3A35681  16.135   5.195   8.146
 2613POPC   C4A35682  16.120   5.279   7.692
 2613POPC   C1B35683  15.739   5.040   8.725
 2613POPC   C2B35684  15.641   5.211   8.320
 2613POPC   C3B35685  15.723   5.008   7.933
 2613POPC   C4B35686  15.590   5.237   7.605
 2614POPC   NC335687  44.276   3.844   9.500
 2614POPC   PO435688  43.615   3.838   9.443
 2614POPC   GL135689  43.774   3.468   9.225
 2614POPC   GL235690  44.148   3.477   9.170
 2614POPC   C1A35691  43.707   3.476   8.802
 2614POPC   D2A35692  43.925   3.468   8.442
 2614POPC   C3A35693  43.791   3.368   8.072
 2614POPC   C4A35694  43.646   3.696   7.853
 2614POPC   C1B35695  44.177   3.240   8.807
 2614POPC   C2B35696  44.263   3.103   8.372
 2614POPC   C3B35697  44.287   3.428   8.058
 2614POPC   C4B35698  44.090   3.441   7.671
 2615POPC   NC335699   1.156  34.267   9.553
 2615POPC   PO435700   1.130  34.934   9.523
 2615POPC   GL135701   1.129  34.646   9.204
 2615POPC   GL235702   1.411  34.469   9.152
 2615POPC   C1A35703   1.039  34.635   8.791
 2615POPC   D2A35704   1.273  34.761   8.456
 2615POPC   C3A35705   1.055  34.677   8.129
 2615POPC   C4A35706   1.136  34.594   7.737
 2615POPC   C1B35707   1.652  34.287   8.844
 2615POPC   C2B35708   1.773  34.367   8.437
 2615POPC   C3B35709   1.529  34.463   8.098
 2615POPC   C4B35710   1.623  34.395   7.683
 2616POPC   NC335711  28.526  24.865   9.432
 2616POPC   PO435712  28.390  25.466   9.635
 2616POPC   GL135713  28.478  25.310   9.172
 2616POPC   GL235714  28.206  25.082   9.102
 2616POPC   C1A35715  28.548  25.029   8.739
 2616POPC   D2A35716  28.755  25.145   8.343
 2616POPC   C3A35717  28.738  24.881   8.004
 2616POPC   C4A35718  28.518  24.979   7.633
 2616POPC   C1B35719  28.166  25.369   8.771
 2616POPC   C2B35720  28.292  25.369   8.394
 2616POPC   C3B35721  28.358  25.270   8.006
 2616POPC   C4B35722  28.159  25.425   7.679
 2617POPC   NC335723  33.442   0.734   9.782
 2617POPC   PO435724  33.925   0.231   9.574
 2617POPC   GL135725  33.938   0.372   9.156
 2617POPC   GL235726  33.790   0.695   9.193
 2617POPC   C1A35727  34.032   0.569   8.736
 2617POPC   D2A35728  33.840   0.562   8.317
 2617POPC   C3A35729  33.935   0.204   8.034
 2617POPC   C4A35730  34.010   0.289   7.586
 2617POPC   C1B35731  33.524   0.644   8.816
 2617POPC   C2B35732  33.291   0.347   8.591
 2617POPC   C3B35733  33.367   0.365   8.198
 2617POPC   C4B35734  33.591   0.513   7.837
 2618POPC   NC335735   2.864   0.557   9.485
 2618POPC   PO435736   2.425   0.064   9.372
 2618POPC   GL135737   2.704   0.266   9.086
 2618POPC   GL235738   2.703   0.655   9.039
 2618POPC   C1A35739   2.823   0.351   8.669
 2618POPC   D2A35740   2.853   0.247   8.290
 2618POPC   C3A35741   2.585   0.259   7.958
 2618POPC   C4A35742   2.728   0.099   7.552
 2618POPC   C1B35743   3.036   0.791   8.787
 2618POPC   C2B35744   2.909   0.840   8.394
 2618POPC   C3B35745   3.000   0.672   8.043
 2618POPC   C4B35746   2.868   0.560   7.691
 2619POPC   NC335747   9.198   9.496   9.426
 2619POPC   PO435748   9.066  10.131   9.585
 2619POPC   GL135749   8.924   9.964   9.166
 2619POPC   GL235750   8.833   9.629   9.075
 2619POPC   C1A35751   9.171   9.839   8.766
 2619POPC   D2A35752   9.071   9.880   8.356
 2619POPC   C3A35753   9.257   9.828   7.997
 2619POPC   C4A35754   9.139   9.461   7.825
 2619POPC   C1B35755   8.654   9.893   8.729
 2619POPC   C2B35756   8.560   9.877   8.287
 2619POPC   C3B35757   8.791   9.935   7.895
 2619POPC   C4B35758   8.883  10.239   7.538
 2620POPC   NC335759  39.370  25.026   9.359
 2620POPC   PO435760  38.873  25.450   9.485
 2620POPC   GL135761  39.177  25.470   9.152
 2620POPC   GL235762  39.470  25.697   9.115
 2620POPC   C1A35763  39.163  25.277   8.770
 2620POPC   D2A35764  39.243  25.404   8.333
 2620POPC   C3A35765  38.971  25.376   8.010
 2620POPC   C4A35766  39.005  25.161   7.650
 2620POPC   C1B35767  39.618  25.496   8.702
 2620POPC   C2B35768  39.650  25.137   8.357
 2620POPC   C3B35769  39.526  25.223   7.896
 2620POPC   C4B35770  39.666  25.057   7.462
 2621POPC   NC335771  18.702  15.296   9.437
 2621POPC   PO435772  19.367  15.255   9.499
 2621POPC   GL135773  19.109  15.320   9.132
 2621POPC   GL235774  18.864  15.016   9.035
 2621POPC   C1A35775  18.999  15.467   8.730
 2621POPC   D2A35776  19.007  15.096   8.438
 2621POPC   C3A35777  19.269  15.170   8.069
 2621POPC   C4A35778  19.184  15.188   7.670
 2621POPC   C1B35779  18.570  15.205   8.734
 2621POPC   C2B35780  18.568  15.306   8.335
 2621POPC   C3B35781  18.754  15.079   7.980
 2621POPC   C4B35782  18.717  15.372   7.666
 2622POPC   NC335783  22.626  14.486   9.517
 2622POPC   PO435784  23.242  14.489   9.442
 2622POPC   GL135785  23.006  14.444   9.138
 2622POPC   GL235786  23.022  14.096   9.144
 2622POPC   C1A35787  22.999  14.610   8.758
 2622POPC   D2A35788  23.188  14.720   8.403
 2622POPC   C3A35789  22.855  14.765   8.109
 2622POPC   C4A35790  22.764  14.682   7.686
 2622POPC   C1B35791  22.825  14.128   8.758
 2622POPC   C2B35792  22.863  14.292   8.357
 2622POPC   C3B35793  23.096  14.332   7.967
 2622POPC   C4B35794  22.951  14.187   7.593
 2623POPC   NC335795   4.350  42.523   9.868
 2623POPC   PO435796   4.292  41.967   9.494
 2623POPC   GL135797   4.262  42.283   9.169
 2623POPC   GL235798   4.588  42.428   9.188
 2623POPC   C1A35799   4.071  42.267   8.749
 2623POPC   D2A35800   4.311  42.323   8.369
 2623POPC   C3A35801   4.105  42.290   7.977
 2623POPC   C4A35802   4.265  42.213   7.533
 2623POPC   C1B35803   4.675  42.320   8.756
 2623POPC   C2B35804   4.831  42.254   8.342
 2623POPC   C3B35805   4.627  42.277   7.935
 2623POPC   C4B35806   4.725  42.466   7.552
 2624POPC   NC335807   7.425  39.472   9.581
 2624POPC   PO435808   7.803  39.054   9.294
 2624POPC   GL135809   7.611  39.228   8.941
 2624POPC   GL235810   7.311  39.360   9.100
 2624POPC   C1A35811   7.489  38.937   8.565
 2624POPC   D2A35812   7.286  39.029   8.160
 2624POPC   C3A35813   7.533  39.158   7.809
 2624POPC   C4A35814   7.563  39.434   7.399
 2624POPC   C1B35815   7.135  39.259   8.733
 2624POPC   C2B35816   7.018  39.471   8.388
 2624POPC   C3B35817   7.245  39.530   8.010
 2624POPC   C4B35818   7.112  39.372   7.619
 2625POPC   NC335819  33.378   0.368   9.365
 2625POPC   PO435820  32.958   0.699   9.762
 2625POPC   GL135821  32.835   0.448   9.344
 2625POPC   GL235822  32.985   0.674   9.156
 2625POPC   C1A35823  32.845   0.302   8.830
 2625POPC   D2A35824  32.858   0.531   8.384
 2625POPC   C3A35825  32.843   0.372   7.986
 2625POPC   C4A35826  33.161   0.247   7.757
 2625POPC   C1B35827  32.959   0.831   8.761
 2625POPC   C2B35828  33.279   0.844   8.417
 2625POPC   C3B35829  33.179   0.778   7.997
 2625POPC   C4B35830  33.343   0.894   7.611
 2626POPC   NC335831  24.203  15.742   9.453
 2626POPC   PO435832  24.813  15.757   9.684
 2626POPC   GL135833  24.620  16.000   9.252
 2626POPC   GL235834  24.331  16.237   9.247
 2626POPC   C1A35835  24.373  15.917   8.829
 2626POPC   D2A35836  24.469  15.608   8.504
 2626POPC   C3A35837  24.409  15.767   8.093
 2626POPC   C4A35838  24.451  15.884   7.711
 2626POPC   C1B35839  24.346  16.430   8.797
 2626POPC   C2B35840  24.250  16.506   8.345
 2626POPC   C3B35841  24.478  16.372   7.938
 2626POPC   C4B35842  24.341  16.328   7.490
 2627POPC   NC335843  25.602   6.359   9.377
 2627POPC   PO435844  24.972   6.660   9.473
 2627POPC   GL135845  25.199   6.597   9.119
 2627POPC   GL235846  25.384   6.883   9.205
 2627POPC   C1A35847  25.442   6.446   8.748
 2627POPC   D2A35848  25.682   6.422   8.358
 2627POPC   C3A35849  25.402   6.467   8.024
 2627POPC   C4A35850  25.182   6.716   7.721
 2627POPC   C1B35851  25.583   6.935   8.832
 2627POPC   C2B35852  25.422   6.870   8.414
 2627POPC   C3B35853  25.579   6.939   8.007
 2627POPC   C4B35854  25.456   7.135   7.638
 2628POPC   NC335855  34.905  37.068   9.344
 2628POPC   PO435856  35.325  36.645   9.556
 2628POPC   GL135857  35.395  36.747   9.125
 2628POPC   GL235858  35.070  36.830   8.939
 2628POPC   C1A35859  35.470  36.606   8.689
 2628POPC   D2A35860  35.593  36.881   8.344
 2628POPC   C3A35861  35.447  36.791   7.943
 2628POPC   C4A35862  35.453  37.021   7.562
 2628POPC   C1B35863  35.345  37.113   8.744
 2628POPC   C2B35864  35.298  37.304   8.340
 2628POPC   C3B35865  35.151  37.271   7.898
 2628POPC   C4B35866  35.296  37.496   7.500
 2629POPC   NC335867   1.895  38.510   9.620
 2629POPC   PO435868   1.924  37.889   9.558
 2629POPC   GL135869   1.820  38.245   9.181
 2629POPC   GL235870   1.982  38.619   9.136
 2629POPC   C1A35871   1.760  38.419   8.740
 2629POPC   D2A35872   1.659  38.377   8.341
 2629POPC   C3A35873   1.927  38.209   8.021
 2629POPC   C4A35874   1.882  38.309   7.619
 2629POPC   C1B35875   2.271  38.592   8.758
 2629POPC   C2B35876   2.162  38.559   8.324
 2629POPC   C3B35877   2.208  38.627   7.874
 2629POPC   C4B35878   2.237  38.566   7.406
 2630POPC   NC335879  38.987  14.618   9.356
 2630POPC   PO435880  38.293  14.535   9.446
 2630POPC   GL135881  38.302  14.292   9.115
 2630POPC   GL235882  38.631  14.326   9.074
 2630POPC   C1A35883  38.331  14.310   8.682
 2630POPC   D2A35884  38.306  14.553   8.361
 2630POPC   C3A35885  38.310  14.309   8.012
 2630POPC   C4A35886  38.335  14.357   7.564
 2630POPC   C1B35887  38.859  14.216   8.699
 2630POPC   C2B35888  38.811  14.375   8.282
 2630POPC   C3B35889  38.794  14.342   7.835
 2630POPC   C4B35890  39.055  14.144   7.595
 2631POPC   NC335891  36.501  36.325   9.353
 2631POPC   PO435892  35.881  36.129   9.497
 2631POPC   GL135893  35.873  36.021   9.107
 2631POPC   GL235894  36.077  36.336   9.024
 2631POPC   C1A35895  35.707  36.143   8.716
 2631POPC   D2A35896  35.940  36.236   8.372
 2631POPC   C3A35897  36.093  35.974   8.102
 2631POPC   C4A35898  36.062  36.081   7.711
 2631POPC   C1B35899  36.218  36.009   8.730
 2631POPC   C2B35900  36.493  36.093   8.427
 2631POPC   C3B35901  36.482  36.334   8.077
 2631POPC   C4B35902  36.568  36.203   7.688
 2632POPC   NC335903  38.692  31.469   9.567
 2632POPC   PO435904  38.122  31.660   9.543
 2632POPC   GL135905  38.336  31.452   9.200
 2632POPC   GL235906  38.631  31.636   9.087
 2632POPC   C1A35907  38.476  31.184   8.871
 2632POPC   D2A35908  38.675  31.423   8.532
 2632POPC   C3A35909  38.582  31.376   8.094
 2632POPC   C4A35910  38.448  31.292   7.676
 2632POPC   C1B35911  38.407  31.826   8.775
 2632POPC   C2B35912  38.309  31.798   8.360
 2632POPC   C3B35913  38.551  31.898   7.992
 2632POPC   C4B35914  38.542  31.918   7.549
 2633POPC   NC335915  11.473  39.050   9.496
 2633POPC   PO435916  10.856  39.190   9.560
 2633POPC   GL135917  11.113  39.163   9.150
 2633POPC   GL235918  11.405  39.397   9.109
 2633POPC   C1A35919  11.061  39.107   8.689
 2633POPC   D2A35920  10.844  39.130   8.265
 2633POPC   C3A35921  11.102  39.110   7.899
 2633POPC   C4A35922  11.388  39.449   7.738
 2633POPC   C1B35923  11.596  39.052   8.861
 2633POPC   C2B35924  11.542  38.893   8.466
 2633POPC   C3B35925  11.580  39.086   8.095
 2633POPC   C4B35926  11.560  38.974   7.704
 2634POPC   NC335927  26.713  37.987   9.605
 2634POPC   PO435928  26.974  37.404   9.590
 2634POPC   GL135929  26.682  37.415   9.212
 2634POPC   GL235930  26.490  37.734   9.204
 2634POPC   C1A35931  26.745  37.489   8.744
 2634POPC   D2A35932  26.881  37.392   8.294
 2634POPC   C3A35933  26.793  37.577   7.878
 2634POPC   C4A35934  26.959  37.502   7.470
 2634POPC   C1B35935  26.566  37.963   8.794
 2634POPC   C2B35936  26.816  37.932   8.383
 2634POPC   C3B35937  26.883  38.079   7.950
 2634POPC   C4B35938  26.676  37.999   7.558
 2635POPC   NC335939  33.275  11.888   9.300
 2635POPC   PO435940  32.716  12.164   9.549
 2635POPC   GL135941  32.784  11.922   9.160
 2635POPC   GL235942  32.929  12.240   9.080
 2635POPC   C1A35943  32.976  11.916   8.701
 2635POPC   D2A35944  33.289  12.136   8.437
 2635POPC   C3A35945  33.214  12.105   7.993
 2635POPC   C4A35946  32.823  11.964   7.812
 2635POPC   C1B35947  32.753  12.373   8.695
 2635POPC   C2B35948  32.770  12.233   8.292
 2635POPC   C3B35949  32.524  12.390   7.983
 2635POPC   C4B35950  32.567  12.371   7.565
 2636POPC   NC335951  42.342  42.666   9.530
 2636POPC   PO435952  41.778  42.306   9.614
 2636POPC   GL135953  42.033  42.164   9.247
 2636POPC   GL235954  42.326  42.379   9.106
 2636POPC   C1A35955  42.131  41.995   8.834
 2636POPC   D2A35956  42.288  42.293   8.529
 2636POPC   C3A35957  42.440  42.222   8.103
 2636POPC   C4A35958  42.253  42.181   7.689
 2636POPC   C1B35959  42.541  42.645   8.808
 2636POPC   C2B35960  42.720  42.567   8.392
 2636POPC   C3B35961  42.663  42.704   7.981
 2636POPC   C4B35962  42.459  42.642   7.592
 2637POPC   NC335963   9.227  34.824   9.574
 2637POPC   PO435964   8.780  34.289   9.582
 2637POPC   GL135965   9.059  34.407   9.231
 2637POPC   GL235966   8.927  34.756   9.163
 2637POPC   C1A35967   9.112  34.500   8.772
 2637POPC   D2A35968   9.299  34.493   8.368
 2637POPC   C3A35969   9.032  34.605   8.056
 2637POPC   C4A35970   9.165  34.550   7.630
 2637POPC   C1B35971   9.103  35.025   8.801
 2637POPC   C2B35972   9.104  35.078   8.334
 2637POPC   C3B35973   9.142  35.054   7.852
 2637POPC   C4B35974   8.935  34.935   7.442
 2638POPC   NC335975  23.452  33.975   9.637
 2638POPC   PO435976  23.901  33.728   9.328
 2638POPC   GL135977  23.530  33.804   9.106
 2638POPC   GL235978  23.272  33.571   9.014
 2638POPC   C1A35979  23.620  33.827   8.672
 2638POPC   D2A35980  23.561  33.963   8.278
 2638POPC   C3A35981  23.930  34.042   8.120
 2638POPC   C4A35982  23.894  33.857   7.719
 2638POPC   C1B35983  23.467  33.348   8.740
 2638POPC   C2B35984  23.548  33.397   8.335
 2638POPC   C3B35985  23.465  33.563   7.938
 2638POPC   C4B35986  23.530  33.563   7.495
 2639POPC   NC335987  20.870  22.747   9.660
 2639POPC   PO435988  20.365  22.525   9.611
 2639POPC   GL135989  20.613  22.703   9.216
 2639POPC   GL235990  20.791  23.036   9.176
 2639POPC   C1A35991  20.640  22.734   8.749
 2639POPC   D2A35992  20.584  22.929   8.335
 2639POPC   C3A35993  20.617  22.722   7.938
 2639POPC   C4A35994  20.540  22.860   7.516
 2639POPC   C1B35995  20.796  23.234   8.726
 2639POPC   C2B35996  20.869  23.338   8.269
 2639POPC   C3B35997  20.631  23.242   7.883
 2639POPC   C4B35998  20.661  23.348   7.457
 2640POPC   NC335999  14.456  37.400   9.453
 2640POPC   PO436000  14.864  37.868   9.141
 2640POPC   GL136001  14.661  37.540   9.012
 2640POPC   GL236002  14.331  37.648   9.036
 2640POPC   C1A36003  14.513  37.458   8.612
 2640POPC   D2A36004  14.547  37.818   8.365
 2640POPC   C3A36005  14.578  37.759   7.967
 2640POPC   C4A36006  14.904  37.739   7.677
 2640POPC   C1B36007  14.230  37.929   8.740
 2640POPC   C2B36008  14.041  38.034   8.331
 2640POPC   C3B36009  14.055  37.920   7.872
 2640POPC   C4B36010  14.051  37.713   7.442
 2641POPC   NC336011   3.320  20.077   9.302
 2641POPC   PO436012   3.544  20.676   9.537
 2641POPC   GL136013   3.499  20.606   9.122
 2641POPC   GL236014   3.714  20.314   9.057
 2641POPC   C1A36015   3.658  20.723   8.706
 2641POPC   D2A36016   3.619  20.973   8.343
 2641POPC   C3A36017   3.710  20.777   7.934
 2641POPC   C4A36018   3.932  20.377   7.893
 2641POPC   C1B36019   3.549  20.228   8.640
 2641POPC   C2B36020   3.511  20.459   8.281
 2641POPC   C3B36021   3.397  20.386   7.876
 2641POPC   C4B36022   3.446  20.094   7.633
 2642POPC   NC336023  13.045  17.071   9.511
 2642POPC   PO436024  12.568  17.517   9.685
 2642POPC   GL136025  12.840  17.464   9.275
 2642POPC   GL236026  12.656  17.188   9.181
 2642POPC   C1A36027  12.989  17.387   8.824
 2642POPC   D2A36028  12.828  17.468   8.391
 2642POPC   C3A36029  12.988  17.349   7.969
 2642POPC   C4A36030  13.124  17.374   7.523
 2642POPC   C1B36031  12.465  17.353   8.794
 2642POPC   C2B36032  12.314  17.437   8.375
 2642POPC   C3B36033  12.477  17.372   7.981
 2642POPC   C4B36034  12.624  17.288   7.586
 2643POPC   NC336035  29.342   5.341   9.324
 2643POPC   PO436036  28.920   4.928   9.642
 2643POPC   GL136037  29.044   4.929   9.198
 2643POPC   GL236038  28.818   5.179   9.146
 2643POPC   C1A36039  29.190   5.080   8.716
 2643POPC   D2A36040  29.380   4.887   8.329
 2643POPC   C3A36041  29.424   5.034   7.922
 2643POPC   C4A36042  29.267   4.841   7.551
 2643POPC   C1B36043  28.727   4.902   8.812
 2643POPC   C2B36044  28.837   4.884   8.375
 2643POPC   C3B36045  28.949   4.830   7.969
 2643POPC   C4B36046  28.928   5.180   7.666
 2644POPC   NC336047  22.695  21.157   9.605
 2644POPC   PO436048  22.940  20.515   9.584
 2644POPC   GL136049  22.851  20.686   9.205
 2644POPC   GL236050  22.870  20.391   8.976
 2644POPC   C1A36051  23.022  20.837   8.799
 2644POPC   D2A36052  22.929  20.690   8.393
 2644POPC   C3A36053  22.847  21.004   8.062
 2644POPC   C4A36054  23.015  20.893   7.663
 2644POPC   C1B36055  22.543  20.681   8.792
 2644POPC   C2B36056  22.421  20.809   8.420
 2644POPC   C3B36057  22.541  20.605   8.052
 2644POPC   C4B36058  22.482  20.817   7.700
 2645POPC   NC336059  10.647  18.729   9.444
 2645POPC   PO436060  10.408  19.279   9.309
 2645POPC   GL136061  10.779  19.220   9.016
 2645POPC   GL236062  10.915  18.877   9.042
 2645POPC   C1A36063  10.821  19.477   8.633
 2645POPC   D2A36064  10.781  19.547   8.166
 2645POPC   C3A36065  10.466  19.321   7.926
 2645POPC   C4A36066  10.324  18.948   7.641
 2645POPC   C1B36067  10.937  18.929   8.623
 2645POPC   C2B36068  10.805  19.050   8.247
 2645POPC   C3B36069  10.802  18.918   7.836
 2645POPC   C4B36070  10.766  18.712   7.446
 2646POPC   NC336071  21.961  35.458   9.465
 2646POPC   PO436072  22.509  35.111   9.556
 2646POPC   GL136073  22.317  35.267   9.145
 2646POPC   GL236074  21.961  35.165   9.040
 2646POPC   C1A36075  22.265  35.375   8.699
 2646POPC   D2A36076  21.912  35.243   8.437
 2646POPC   C3A36077  22.051  35.150   8.000
 2646POPC   C4A36078  22.142  35.488   7.678
 2646POPC   C1B36079  21.785  35.565   8.845
 2646POPC   C2B36080  21.780  35.854   8.502
 2646POPC   C3B36081  21.834  35.666   8.107
 2646POPC   C4B36082  21.646  35.590   7.726
 2647POPC   NC336083   8.433  20.794   9.306
 2647POPC   PO436084   9.028  20.886   9.582
 2647POPC   GL136085   8.998  20.694   9.114
 2647POPC   GL236086   8.883  20.382   8.942
 2647POPC   C1A36087   9.116  20.670   8.622
 2647POPC   D2A36088   8.871  20.603   8.239
 2647POPC   C3A36089   9.085  20.560   7.837
 2647POPC   C4A36090   9.071  20.311   7.483
 2647POPC   C1B36091   8.617  20.715   8.700
 2647POPC   C2B36092   8.633  21.034   8.361
 2647POPC   C3B36093   8.534  20.891   7.940
 2647POPC   C4B36094   8.721  20.914   7.531
 2648POPC   NC336095   0.918  15.130   9.330
 2648POPC   PO436096   1.524  15.404   9.368
 2648POPC   GL136097   1.303  15.302   8.984
 2648POPC   GL236098   1.050  15.563   8.831
 2648POPC   C1A36099   1.424  15.225   8.541
 2648POPC   D2A36100   1.164  15.000   8.245
 2648POPC   C3A36101   1.242  15.251   7.940
 2648POPC   C4A36102   1.645  15.257   7.840
 2648POPC   C1B36103   0.928  15.190   8.652
 2648POPC   C2B36104   0.701  14.869   8.491
 2648POPC   C3B36105   0.826  14.581   8.179
 2648POPC   C4B36106   0.953  14.778   7.803
 2649POPC   NC336107   1.750  14.749   9.445
 2649POPC   PO436108   2.256  14.287   9.305
 2649POPC   GL136109   2.022  14.370   9.030
 2649POPC   GL236110   1.686  14.304   9.125
 2649POPC   C1A36111   2.145  14.325   8.642
 2649POPC   D2A36112   2.089  14.525   8.318
 2649POPC   C3A36113   2.268  14.203   8.090
 2649POPC   C4A36114   2.287  14.302   7.694
 2649POPC   C1B36115   1.643  14.392   8.702
 2649POPC   C2B36116   1.702  14.196   8.314
 2649POPC   C3B36117   1.795  14.351   7.915
 2649POPC   C4B36118   1.826  14.094   7.576
 2650POPC   NC336119   4.401  34.792   9.451
 2650POPC   PO436120   4.270  34.161   9.625
 2650POPC   GL136121   4.193  34.363   9.226
 2650POPC   GL236122   3.874  34.579   9.249
 2650POPC   C1A36123   4.439  34.496   8.861
 2650POPC   D2A36124   4.414  34.261   8.496
 2650POPC   C3A36125   4.427  34.467   8.112
 2650POPC   C4A36126   4.177  34.383   7.766
 2650POPC   C1B36127   4.014  34.813   8.875
 2650POPC   C2B36128   4.230  34.772   8.475
 2650POPC   C3B36129   4.126  34.859   8.029
 2650POPC   C4B36130   4.467  34.824   7.745
 2651POPC   NC336131   7.182  39.988   9.802
 2651POPC   PO436132   6.538  39.963   9.698
 2651POPC   GL136133   6.668  39.912   9.210
 2651POPC   GL236134   6.898  40.166   9.051
 2651POPC   C1A36135   6.529  40.002   8.760
 2651POPC   D2A36136   6.518  39.722   8.420
 2651POPC   C3A36137   6.388  39.888   8.032
 2651POPC   C4A36138   6.626  40.132   7.736
 2651POPC   C1B36139   6.864  40.415   8.724
 2651POPC   C2B36140   6.726  40.485   8.334
 2651POPC   C3B36141   6.981  40.388   8.021
 2651POPC   C4B36142   7.149  40.409   7.651
 2652POPC   NC336143  38.921  41.909   9.290
 2652POPC   PO436144  38.429  42.441   9.433
 2652POPC   GL136145  38.444  42.181   9.089
 2652POPC   GL236146  38.100  42.002   9.061
 2652POPC   C1A36147  38.601  42.226   8.675
 2652POPC   D2A36148  38.363  42.417   8.335
 2652POPC   C3A36149  38.619  42.701   8.110
 2652POPC   C4A36150  38.677  42.585   7.682
 2652POPC   C1B36151  38.189  41.897   8.633
 2652POPC   C2B36152  38.476  41.916   8.277
 2652POPC   C3B36153  38.488  42.110   7.863
 2652POPC   C4B36154  38.426  41.904   7.463
 2653POPC   NC336155  42.571   0.386   9.451
 2653POPC   PO436156  42.068   0.826   9.697
 2653POPC   GL136157  42.180   0.638   9.225
 2653POPC   GL236158  42.541   0.595   9.008
 2653POPC   C1A36159  42.081   0.493   8.802
 2653POPC   D2A36160  42.143   0.198   8.445
 2653POPC   C3A36161  41.918   0.279   8.068
 2653POPC   C4A36162  42.060   0.576   7.718
 2653POPC   C1B36163  42.880   0.639   8.745
 2653POPC   C2B36164  42.693   0.685   8.378
 2653POPC   C3B36165  42.435   0.472   8.096
 2653POPC   C4B36166  42.613   0.477   7.723
 2654POPC   NC336167  28.692  27.929   9.490
 2654POPC   PO436168  28.984  27.341   9.472
 2654POPC   GL136169  29.141  27.622   9.139
 2654POPC   GL236170  29.453  27.450   9.071
 2654POPC   C1A36171  29.024  27.907   8.845
 2654POPC   D2A36172  28.907  27.638   8.534
 2654POPC   C3A36173  29.077  27.648   8.164
 2654POPC   C4A36174  28.792  27.613   7.832
 2654POPC   C1B36175  29.418  27.585   8.647
 2654POPC   C2B36176  29.530  27.334   8.320
 2654POPC   C3B36177  29.377  27.263   7.958
 2654POPC   C4B36178  29.303  27.593   7.719
 2655POPC   NC336179  37.741  38.777   9.456
 2655POPC   PO436180  37.725  38.062   9.353
 2655POPC   GL136181  37.551  38.382   9.116
 2655POPC   GL236182  37.840  38.581   8.991
 2655POPC   C1A36183  37.362  38.272   8.723
 2655POPC   D2A36184  37.485  38.105   8.323
 2655POPC   C3A36185  37.323  38.417   8.049
 2655POPC   C4A36186  37.284  38.793   7.825
 2655POPC   C1B36187  37.895  38.230   8.702
 2655POPC   C2B36188  37.970  38.336   8.277
 2655POPC   C3B36189  37.842  38.475   7.876
 2655POPC   C4B36190  37.956  38.274   7.512
 2656POPC   NC336191  12.341   8.744   9.326
 2656POPC   PO436192  11.797   9.173   9.400
 2656POPC   GL136193  12.045   9.055   9.059
 2656POPC   GL236194  12.381   9.181   9.050
 2656POPC   C1A36195  12.091   8.838   8.657
 2656POPC   D2A36196  12.042   8.637   8.231
 2656POPC   C3A36197  12.128   8.932   7.887
 2656POPC   C4A36198  12.203   8.825   7.450
 2656POPC   C1B36199  12.293   9.296   8.668
 2656POPC   C2B36200  12.102   9.292   8.295
 2656POPC   C3B36201  12.297   9.405   7.939
 2656POPC   C4B36202  12.224   9.321   7.498
 2657POPC   NC336203  37.796  17.902   9.393
 2657POPC   PO436204  37.949  17.222   9.477
 2657POPC   GL136205  37.829  17.468   9.121
 2657POPC   GL236206  38.149  17.600   9.154
 2657POPC   C1A36207  37.880  17.727   8.714
 2657POPC   D2A36208  37.686  17.915   8.312
 2657POPC   C3A36209  37.654  17.806   7.883
 2657POPC   C4A36210  37.381  17.477   7.784
 2657POPC   C1B36211  38.189  17.295   8.809
 2657POPC   C2B36212  38.017  17.309   8.426
 2657POPC   C3B36213  37.779  17.287   8.060
 2657POPC   C4B36214  37.902  17.411   7.671
 2658POPC   NC336215  31.875  11.364   9.452
 2658POPC   PO436216  32.479  11.356   9.800
 2658POPC   GL136217  32.383  11.298   9.307
 2658POPC   GL236218  32.334  11.636   9.158
 2658POPC   C1A36219  32.198  11.252   8.838
 2658POPC   D2A36220  32.241  11.431   8.397
 2658POPC   C3A36221  32.053  11.449   7.961
 2658POPC   C4A36222  31.832  11.232   7.584
 2658POPC   C1B36223  32.598  11.574   8.756
 2658POPC   C2B36224  32.747  11.371   8.344
 2658POPC   C3B36225  32.549  11.353   7.940
 2658POPC   C4B36226  32.560  11.596   7.564
 2659POPC   NC336227  15.615  20.452   9.704
 2659POPC   PO436228  15.054  20.907   9.650
 2659POPC   GL136229  15.154  20.768   9.217
 2659POPC   GL236230  15.445  20.506   9.211
 2659POPC   C1A36231  15.212  20.734   8.762
 2659POPC   D2A36232  15.326  20.465   8.424
 2659POPC   C3A36233  15.073  20.613   8.097
 2659POPC   C4A36234  14.783  20.819   7.818
 2659POPC   C1B36235  15.617  20.243   8.871
 2659POPC   C2B36236  15.545  20.002   8.489
 2659POPC   C3B36237  15.567  20.191   8.061
 2659POPC   C4B36238  15.386  20.412   7.746
 2660POPC   NC336239  28.986  34.450   9.490
 2660POPC   PO436240  29.529  34.642   9.146
 2660POPC   GL136241  29.246  34.319   9.023
 2660POPC   GL236242  28.882  34.358   9.020
 2660POPC   C1A36243  29.146  34.435   8.601
 2660POPC   D2A36244  29.374  34.746   8.389
 2660POPC   C3A36245  29.420  34.645   7.943
 2660POPC   C4A36246  29.254  34.249   7.799
 2660POPC   C1B36247  28.905  34.795   8.891
 2660POPC   C2B36248  28.865  34.924   8.469
 2660POPC   C3B36249  28.906  34.630   8.139
 2660POPC   C4B36250  28.929  34.651   7.720
 2661POPC   NC336251  24.141  32.634   9.639
 2661POPC   PO436252  24.578  33.123   9.445
 2661POPC   GL136253  24.687  33.135   8.998
 2661POPC   GL236254  24.319  33.165   8.978
 2661POPC   C1A36255  24.593  33.035   8.538
 2661POPC   D2A36256  24.133  33.087   8.411
 2661POPC   C3A36257  24.148  32.989   7.980
 2661POPC   C4A36258  24.471  33.020   7.681
 2661POPC   C1B36259  24.307  32.749   8.842
 2661POPC   C2B36260  24.312  32.618   8.410
 2661POPC   C3B36261  24.541  32.667   8.055
 2661POPC   C4B36262  24.601  32.498   7.656
 2662POPC   NC336263   9.278   5.822   9.778
 2662POPC   PO436264   9.999   5.986   9.654
 2662POPC   GL136265   9.963   6.078   9.117
 2662POPC   GL236266   9.962   5.731   8.873
 2662POPC   C1A36267   9.620   6.055   8.768
 2662POPC   D2A36268   9.545   5.848   8.367
 2662POPC   C3A36269   9.596   6.023   7.937
 2662POPC   C4A36270   9.550   6.000   7.446
 2662POPC   C1B36271  10.105   6.008   8.562
 2662POPC   C2B36272  10.054   5.792   8.169
 2662POPC   C3B36273   9.737   5.528   7.968
 2662POPC   C4B36274   9.669   5.526   7.540
 2663POPC   NC336275  37.497  36.376   9.435
 2663POPC   PO436276  36.868  36.043   9.356
 2663POPC   GL136277  36.976  36.358   9.101
 2663POPC   GL236278  36.682  36.362   8.866
 2663POPC   C1A36279  37.217  36.364   8.735
 2663POPC   D2A36280  36.946  36.380   8.379
 2663POPC   C3A36281  36.993  36.207   7.961
 2663POPC   C4A36282  37.058  36.202   7.480
 2663POPC   C1B36283  36.895  35.964   8.725
 2663POPC   C2B36284  36.862  35.715   8.379
 2663POPC   C3B36285  36.663  35.805   8.018
 2663POPC   C4B36286  36.898  35.751   7.625
 2664POPC   NC336287   8.817  39.360   9.637
 2664POPC   PO436288   9.315  39.017   9.299
 2664POPC   GL136289   9.050  39.345   9.174
 2664POPC   GL236290   8.735  39.221   9.154
 2664POPC   C1A36291   8.974  39.471   8.758
 2664POPC   D2A36292   9.195  39.413   8.375
 2664POPC   C3A36293   8.972  39.455   7.990
 2664POPC   C4A36294   9.149  39.248   7.663
 2664POPC   C1B36295   8.699  39.000   8.767
 2664POPC   C2B36296   8.726  39.193   8.365
 2664POPC   C3B36297   8.676  39.007   7.946
 2664POPC   C4B36298   8.829  38.890   7.529
 2665POPC   NC336299  26.650   4.982   9.487
 2665POPC   PO436300  25.989   5.247   9.514
 2665POPC   GL136301  26.095   5.033   9.167
 2665POPC   GL236302  26.398   5.228   9.106
 2665POPC   C1A36303  25.831   4.858   8.835
 2665POPC   D2A36304  25.646   4.898   8.421
 2665POPC   C3A36305  25.854   4.855   8.038
 2665POPC   C4A36306  25.828   4.852   7.588
 2665POPC   C1B36307  26.265   5.160   8.693
 2665POPC   C2B36308  26.513   5.057   8.316
 2665POPC   C3B36309  26.303   5.064   7.921
 2665POPC   C4B36310  25.978   5.317   7.747
 2666POPC   NC336311  41.072  41.532   9.375
 2666POPC   PO436312  40.529  41.162   9.589
 2666POPC   GL136313  40.595  41.361   9.167
 2666POPC   GL236314  40.517  41.689   9.047
 2666POPC   C1A36315  40.714  41.319   8.719
 2666POPC   D2A36316  40.755  41.555   8.371
 2666POPC   C3A36317  40.709  41.387   7.984
 2666POPC   C4A36318  40.394  41.480   7.699
 2666POPC   C1B36319  40.930  41.787   8.792
 2666POPC   C2B36320  41.210  41.771   8.429
 2666POPC   C3B36321  41.004  41.853   8.049
 2666POPC   C4B36322  41.033  42.230   7.854
 2667POPC   NC336323  22.048  41.801   9.530
 2667POPC   PO436324  22.389  41.243   9.771
 2667POPC   GL136325  22.218  41.392   9.307
 2667POPC   GL236326  22.365  41.700   9.142
 2667POPC   C1A36327  22.022  41.428   8.852
 2667POPC   D2A36328  22.158  41.474   8.367
 2667POPC   C3A36329  22.069  41.791   8.004
 2667POPC   C4A36330  22.037  41.804   7.521
 2667POPC   C1B36331  22.526  41.537   8.771
 2667POPC   C2B36332  22.674  41.548   8.353
 2667POPC   C3B36333  22.538  41.512   7.934
 2667POPC   C4B36334  22.464  41.517   7.494
 2668POPC   NC336335  40.212  36.209   9.487
 2668POPC   PO436336  40.525  35.603   9.464
 2668POPC   GL136337  40.367  35.925   9.096
 2668POPC   GL236338  40.428  36.306   9.053
 2668POPC   C1A36339  39.983  36.098   8.824
 2668POPC   D2A36340  39.661  35.991   8.468
 2668POPC   C3A36341  39.849  35.909   8.050
 2668POPC   C4A36342  40.045  35.831   7.665
 2668POPC   C1B36343  40.496  36.209   8.664
 2668POPC   C2B36344  40.539  36.347   8.270
 2668POPC   C3B36345  40.339  36.130   7.961
 2668POPC   C4B36346  40.262  36.255   7.506
 2669POPC   NC336347  32.550  33.967   9.383
 2669POPC   PO436348  31.884  33.778   9.212
 2669POPC   GL136349  32.302  33.711   9.009
 2669POPC   GL236350  32.517  34.021   8.896
 2669POPC   C1A36351  32.320  33.661   8.572
 2669POPC   D2A36352  32.169  33.864   8.214
 2669POPC   C3A36353  32.118  33.624   7.883
 2669POPC   C4A36354  32.435  33.414   7.750
 2669POPC   C1B36355  32.138  34.139   8.709
 2669POPC   C2B36356  32.042  34.342   8.338
 2669POPC   C3B36357  32.058  34.254   7.884
 2669POPC   C4B36358  32.146  34.163   7.441
 2670POPC   NC336359  24.793  36.079   9.372
 2670POPC   PO436360  25.448  35.773   9.505
 2670POPC   GL136361  25.561  35.934   9.105
 2670POPC   GL236362  25.268  36.164   9.107
 2670POPC   C1A36363  25.502  35.983   8.670
 2670POPC   D2A36364  25.133  36.079   8.439
 2670POPC   C3A36365  25.245  36.059   8.018
 2670POPC   C4A36366  25.392  35.976   7.626
 2670POPC   C1B36367  25.317  36.460   8.757
 2670POPC   C2B36368  25.170  36.587   8.377
 2670POPC   C3B36369  25.395  36.549   8.039
 2670POPC   C4B36370  25.278  36.469   7.646
 2671POPC   NC336371  35.061  35.273   9.423
 2671POPC   PO436372  35.769  35.155   9.484
 2671POPC   GL136373  35.533  35.216   9.119
 2671POPC   GL236374  35.410  35.536   9.139
 2671POPC   C1A36375  35.483  35.162   8.669
 2671POPC   D2A36376  35.302  35.286   8.288
 2671POPC   C3A36377  35.391  35.056   7.940
 2671POPC   C4A36378  35.403  35.116   7.526
 2671POPC   C1B36379  35.546  35.667   8.745
 2671POPC   C2B36380  35.766  35.557   8.342
 2671POPC   C3B36381  35.639  35.513   7.913
 2671POPC   C4B36382  35.868  35.613   7.534
 2672POPC   NC336383   6.062  33.446   9.304
 2672POPC   PO436384   5.571  32.996   9.477
 2672POPC   GL136385   5.790  33.038   9.103
 2672POPC   GL236386   5.686  33.333   8.941
 2672POPC   C1A36387   5.979  32.782   8.762
 2672POPC   D2A36388   6.122  32.770   8.323
 2672POPC   C3A36389   5.901  32.833   7.951
 2672POPC   C4A36390   5.932  32.999   7.553
 2672POPC   C1B36391   6.008  33.315   8.669
 2672POPC   C2B36392   6.196  33.272   8.282
 2672POPC   C3B36393   5.975  33.340   7.969
 2672POPC   C4B36394   5.818  33.494   7.634
 2673POPC   NC336395  19.209  39.684   9.237
 2673POPC   PO436396  18.762  39.198   9.611
 2673POPC   GL136397  18.944  39.197   9.161
 2673POPC   GL236398  18.636  39.175   8.954
 2673POPC   C1A36399  19.075  39.303   8.705
 2673POPC   D2A36400  18.882  39.437   8.286
 2673POPC   C3A36401  19.213  39.488   7.986
 2673POPC   C4A36402  19.229  39.387   7.554
 2673POPC   C1B36403  18.829  38.863   8.668
 2673POPC   C2B36404  19.110  38.963   8.311
 2673POPC   C3B36405  18.985  39.049   7.899
 2673POPC   C4B36406  18.788  38.805   7.591
 2674POPC   NC336407  10.075  33.227   9.545
 2674POPC   PO436408  10.722  33.094   9.437
 2674POPC   GL136409  10.672  33.281   9.075
 2674POPC   GL236410  10.356  33.427   9.116
 2674POPC   C1A36411  10.758  33.099   8.701
 2674POPC   D2A36412  10.495  32.926   8.399
 2674POPC   C3A36413  10.499  32.991   7.954
 2674POPC   C4A36414  10.164  32.931   7.627
 2674POPC   C1B36415  10.476  33.562   8.692
 2674POPC   C2B36416  10.346  33.474   8.275
 2674POPC   C3B36417  10.202  33.379   7.871
 2674POPC   C4B36418  10.236  33.355   7.378
 2675POPC   NC336419  15.764  15.638   9.834
 2675POPC   PO436420  16.356  15.890   9.653
 2675POPC   GL136421  16.011  15.871   9.302
 2675POPC   GL236422  16.017  16.239   9.165
 2675POPC   C1A36423  16.022  15.705   8.837
 2675POPC   D2A36424  15.818  15.612   8.397
 2675POPC   C3A36425  15.928  15.819   7.973
 2675POPC   C4A36426  15.734  15.727   7.532
 2675POPC   C1B36427  15.849  16.169   8.749
 2675POPC   C2B36428  15.653  16.101   8.370
 2675POPC   C3B36429  15.761  16.321   8.031
 2675POPC   C4B36430  15.782  16.207   7.644
 2676POPC   NC336431  15.775  18.068   9.874
 2676POPC   PO436432  15.960  18.402   9.390
 2676POPC   GL136433  15.803  18.318   9.039
 2676POPC   GL236434  15.693  17.995   9.168
 2676POPC   C1A36435  16.033  18.428   8.680
 2676POPC   D2A36436  16.167  18.677   8.331
 2676POPC   C3A36437  16.139  18.490   7.925
 2676POPC   C4A36438  15.827  18.492   7.605
 2676POPC   C1B36439  15.773  17.897   8.752
 2676POPC   C2B36440  15.982  18.019   8.395
 2676POPC   C3B36441  15.836  18.119   8.019
 2676POPC   C4B36442  16.033  18.029   7.639
 2677POPC   NC336443  37.680  27.927   9.256
 2677POPC   PO436444  37.605  28.455   9.674
 2677POPC   GL136445  37.638  28.571   9.242
 2677POPC   GL236446  37.980  28.551   9.134
 2677POPC   C1A36447  37.603  28.672   8.793
 2677POPC   D2A36448  37.325  28.628   8.420
 2677POPC   C3A36449  37.533  28.533   8.044
 2677POPC   C4A36450  37.491  28.190   7.802
 2677POPC   C1B36451  38.050  28.397   8.687
 2677POPC   C2B36452  38.050  28.505   8.221
 2677POPC   C3B36453  37.991  28.374   7.768
 2677POPC   C4B36454  38.108  28.610   7.363
 2678POPC   NC336455  41.813  20.246   9.398
 2678POPC   PO436456  41.420  20.785   9.491
 2678POPC   GL136457  41.434  20.462   9.163
 2678POPC   GL236458  41.281  20.571   8.913
 2678POPC   C1A36459  41.737  20.368   8.773
 2678POPC   D2A36460  41.668  20.661   8.500
 2678POPC   C3A36461  41.656  20.629   8.071
 2678POPC   C4A36462  41.532  20.434   7.694
 2678POPC   C1B36463  41.171  20.924   8.697
 2678POPC   C2B36464  41.341  20.998   8.293
 2678POPC   C3B36465  41.192  21.091   7.930
 2678POPC   C4B36466  41.266  20.875   7.601
 2679POPC   NC336467  22.489  24.497   9.350
 2679POPC   PO436468  21.938  24.254   9.641
 2679POPC   GL136469  22.039  24.352   9.191
 2679POPC   GL236470  21.998  24.705   9.171
 2679POPC   C1A36471  22.277  24.244   8.771
 2679POPC   D2A36472  22.119  24.240   8.329
 2679POPC   C3A36473  22.339  24.348   7.957
 2679POPC   C4A36474  22.400  24.755   7.746
 2679POPC   C1B36475  22.178  24.741   8.754
 2679POPC   C2B36476  22.154  24.774   8.297
 2679POPC   C3B36477  21.914  24.638   7.950
 2679POPC   C4B36478  21.965  24.428   7.621
 2680POPC   NC336479  20.817  30.667   9.733
 2680POPC   PO436480  21.447  30.490   9.476
 2680POPC   GL136481  21.473  30.704   9.093
 2680POPC   GL236482  21.147  30.698   8.912
 2680POPC   C1A36483  21.562  30.590   8.658
 2680POPC   D2A36484  21.259  30.671   8.310
 2680POPC   C3A36485  21.507  30.639   7.930
 2680POPC   C4A36486  21.914  30.448   7.904
 2680POPC   C1B36487  20.862  30.975   8.696
 2680POPC   C2B36488  20.952  31.164   8.352
 2680POPC   C3B36489  20.994  31.021   7.942
 2680POPC   C4B36490  20.914  30.964   7.490
 2681POPC   NC336491   2.315  29.809   9.429
 2681POPC   PO436492   1.926  30.328   9.686
 2681POPC   GL136493   1.951  30.037   9.118
 2681POPC   GL236494   2.187  29.687   8.966
 2681POPC   C1A36495   1.998  29.990   8.634
 2681POPC   D2A36496   2.424  30.044   8.505
 2681POPC   C3A36497   2.439  30.186   8.096
 2681POPC   C4A36498   2.128  30.104   7.786
 2681POPC   C1B36499   1.828  29.493   8.703
 2681POPC   C2B36500   1.699  29.576   8.301
 2681POPC   C3B36501   1.998  29.660   7.971
 2681POPC   C4B36502   2.102  29.650   7.503
 2682POPC   NC336503   4.439  31.775   9.424
 2682POPC   PO436504   4.592  31.099   9.319
 2682POPC   GL136505   4.562  31.407   9.076
 2682POPC   GL236506   4.219  31.401   9.082
 2682POPC   C1A36507   4.521  31.416   8.658
 2682POPC   D2A36508   4.163  31.470   8.424
 2682POPC   C3A36509   4.383  31.389   8.103
 2682POPC   C4A36510   4.587  31.505   7.751
 2682POPC   C1B36511   4.226  31.793   8.833
 2682POPC   C2B36512   4.416  31.908   8.453
 2682POPC   C3B36513   4.417  31.913   8.031
 2682POPC   C4B36514   4.101  31.767   7.767
 2683POPC   NC336515  18.191  37.456   9.947
 2683POPC   PO436516  18.419  37.754   9.417
 2683POPC   GL136517  18.121  37.568   9.206
 2683POPC   GL236518  18.288  37.660   8.893
 2683POPC   C1A36519  17.861  37.394   8.867
 2683POPC   D2A36520  17.931  37.207   8.465
 2683POPC   C3A36521  18.021  37.389   8.056
 2683POPC   C4A36522  18.404  37.494   7.827
 2683POPC   C1B36523  18.450  37.993   8.602
 2683POPC   C2B36524  18.647  38.162   8.279
 2683POPC   C3B36525  18.738  37.980   7.897
 2683POPC   C4B36526  18.590  37.870   7.476
 2684POPC   NC336527  28.122  32.365   9.591
 2684POPC   PO436528  28.528  31.868   9.419
 2684POPC   GL136529  28.342  32.020   9.098
 2684POPC   GL236530  28.341  32.349   9.106
 2684POPC   C1A36531  28.102  32.058   8.726
 2684POPC   D2A36532  28.231  32.164   8.326
 2684POPC   C3A36533  28.121  32.036   7.951
 2684POPC   C4A36534  28.238  32.272   7.613
 2684POPC   C1B36535  28.584  32.236   8.696
 2684POPC   C2B36536  28.658  31.915   8.373
 2684POPC   C3B36537  28.634  32.140   8.001
 2684POPC   C4B36538  28.713  32.520   7.762
 2685POPC   NC336539  30.433  35.874   9.462
 2685POPC   PO436540  30.631  36.529   9.583
 2685POPC   GL136541  30.762  36.286   9.230
 2685POPC   GL236542  30.514  36.121   9.047
 2685POPC   C1A36543  30.824  36.423   8.801
 2685POPC   D2A36544  30.988  36.189   8.472
 2685POPC   C3A36545  30.881  36.259   8.040
 2685POPC   C4A36546  30.991  36.215   7.602
 2685POPC   C1B36547  30.613  35.888   8.693
 2685POPC   C2B36548  30.817  35.750   8.306
 2685POPC   C3B36549  30.669  35.797   7.893
 2685POPC   C4B36550  30.520  36.016   7.562
 2686POPC   NC336551  38.081  44.948   9.406
 2686POPC   PO436552  37.750  44.488   9.682
 2686POPC   GL136553  37.694  44.451   9.256
 2686POPC   GL236554  37.938  44.258   9.189
 2686POPC   C1A36555  37.450  44.596   8.898
 2686POPC   D2A36556  37.247  44.701   8.509
 2686POPC   C3A36557  37.421  44.645   8.105
 2686POPC   C4A36558  37.345  44.842   7.700
 2686POPC   C1B36559  37.977  44.593   8.849
 2686POPC   C2B36560  38.148  44.749   8.463
 2686POPC   C3B36561  37.937  44.762   8.071
 2686POPC   C4B36562  37.811  44.618   7.703
 2687POPC   NC336563   9.770   6.350   9.509
 2687POPC   PO436564   9.567   6.990   9.610
 2687POPC   GL136565   9.555   6.783   9.216
 2687POPC   GL236566   9.901   6.688   9.168
 2687POPC   C1A36567   9.591   6.871   8.759
 2687POPC   D2A36568   9.370   7.055   8.393
 2687POPC   C3A36569   9.525   7.070   7.967
 2687POPC   C4A36570   9.626   6.824   7.606
 2687POPC   C1B36571   9.957   6.479   8.799
 2687POPC   C2B36572   9.741   6.392   8.420
 2687POPC   C3B36573   9.617   6.540   8.043
 2687POPC   C4B36574   9.830   6.383   7.658
 2688POPC   NC336575  17.051   2.422   9.514
 2688POPC   PO436576  16.853   3.051   9.528
 2688POPC   GL136577  16.705   2.917   9.127
 2688POPC   GL236578  16.785   2.567   9.109
 2688POPC   C1A36579  16.483   3.066   8.734
 2688POPC   D2A36580  16.365   3.241   8.277
 2688POPC   C3A36581  16.493   2.945   7.960
 2688POPC   C4A36582  16.564   2.481   7.943
 2688POPC   C1B36583  16.832   2.672   8.682
 2688POPC   C2B36584  16.940   2.614   8.264
 2688POPC   C3B36585  16.998   2.857   7.927
 2688POPC   C4B36586  17.324   2.858   7.660
 2689POPC   NC336587  34.393  14.763   9.878
 2689POPC   PO436588  34.844  14.969   9.465
 2689POPC   GL136589  34.688  15.155   9.044
 2689POPC   GL236590  34.357  15.245   9.066
 2689POPC   C1A36591  34.505  14.991   8.644
 2689POPC   D2A36592  34.463  14.713   8.307
 2689POPC   C3A36593  34.617  14.982   8.033
 2689POPC   C4A36594  34.445  15.158   7.689
 2689POPC   C1B36595  34.360  15.479   8.708
 2689POPC   C2B36596  34.384  15.361   8.290
 2689POPC   C3B36597  34.665  15.499   7.986
 2689POPC   C4B36598  34.407  15.660   7.665
 2690POPC   NC336599  17.399  44.272   9.191
 2690POPC   PO436600  17.908  43.984   9.601
 2690POPC   GL136601  17.655  43.832   9.110
 2690POPC   GL236602  17.651  44.080   8.798
 2690POPC   C1A36603  17.315  43.726   8.767
 2690POPC   D2A36604  17.216  43.915   8.362
 2690POPC   C3A36605  17.358  43.755   7.971
 2690POPC   C4A36606  17.574  43.588   7.676
 2690POPC   C1B36607  17.866  43.796   8.601
 2690POPC   C2B36608  17.828  43.836   8.176
 2690POPC   C3B36609  17.961  44.096   7.886
 2690POPC   C4B36610  18.095  43.931   7.550
 2691POPC   NC336611  18.460  17.663   9.508
 2691POPC   PO436612  17.947  17.970   9.352
 2691POPC   GL136613  18.216  17.658   9.065
 2691POPC   GL236614  18.306  17.315   9.119
 2691POPC   C1A36615  18.412  17.540   8.671
 2691POPC   D2A36616  18.273  17.756   8.329
 2691POPC   C3A36617  18.341  17.585   7.972
 2691POPC   C4A36618  18.057  17.469   7.721
 2691POPC   C1B36619  18.439  17.045   8.742
 2691POPC   C2B36620  18.599  17.152   8.312
 2691POPC   C3B36621  18.631  17.194   7.853
 2691POPC   C4B36622  18.242  17.001   7.701
 2692POPC   NC336623   1.719  29.964   9.546
 2692POPC   PO436624   1.120  29.801   9.416
 2692POPC   GL136625   1.137  29.931   9.060
 2692POPC   GL236626   1.431  30.141   9.146
 2692POPC   C1A36627   1.005  29.812   8.659
 2692POPC   D2A36628   1.111  29.981   8.272
 2692POPC   C3A36629   0.948  29.760   7.907
 2692POPC   C4A36630   1.110  29.384   7.714
 2692POPC   C1B36631   1.507  29.943   8.739
 2692POPC   C2B36632   1.563  30.216   8.412
 2692POPC   C3B36633   1.672  30.037   8.060
 2692POPC   C4B36634   1.473  29.718   7.850
 2693POPC   NC336635   9.405  37.932   9.227
 2693POPC   PO436636   8.964  37.505   9.476
 2693POPC   GL136637   8.798  37.627   9.074
 2693POPC   GL236638   8.772  37.988   8.982
 2693POPC   C1A36639   8.933  37.577   8.633
 2693POPC   D2A36640   9.040  37.176   8.359
 2693POPC   C3A36641   9.184  37.274   7.904
 2693POPC   C4A36642   8.915  37.568   7.643
 2693POPC   C1B36643   9.102  38.084   8.645
 2693POPC   C2B36644   9.143  38.288   8.232
 2693POPC   C3B36645   9.047  38.053   7.846
 2693POPC   C4B36646   9.296  37.967   7.452
 2694POPC   NC336647  36.527   9.517   9.401
 2694POPC   PO436648  37.078   9.867   9.539
 2694POPC   GL136649  36.883   9.831   9.162
 2694POPC   GL236650  37.004   9.496   9.156
 2694POPC   C1A36651  36.882   9.985   8.741
 2694POPC   D2A36652  37.098  10.126   8.336
 2694POPC   C3A36653  37.070   9.965   7.901
 2694POPC   C4A36654  37.045  10.013   7.441
 2694POPC   C1B36655  36.800   9.484   8.768
 2694POPC   C2B36656  36.856   9.651   8.360
 2694POPC   C3B36657  36.993   9.446   8.023
 2694POPC   C4B36658  37.144   9.536   7.607
 2695POPC   NC336659  10.863   1.540   9.828
 2695POPC   PO436660  10.293   1.678   9.625
 2695POPC   GL136661  10.268   1.669   9.170
 2695POPC   GL236662  10.219   1.328   9.114
 2695POPC   C1A36663  10.435   1.581   8.728
 2695POPC   D2A36664  10.483   1.287   8.366
 2695POPC   C3A36665  10.468   1.326   7.913
 2695POPC   C4A36666  10.408   1.102   7.511
 2695POPC   C1B36667  10.170   1.105   8.746
 2695POPC   C2B36668  10.138   0.897   8.359
 2695POPC   C3B36669  10.164   0.917   7.937
 2695POPC   C4B36670   9.919   0.809   7.597
 2696POPC   NC336671  31.670   8.328   9.616
 2696POPC   PO436672  31.122   7.961   9.535
 2696POPC   GL136673  31.256   8.169   9.160
 2696POPC   GL236674  31.022   8.472   9.046
 2696POPC   C1A36675  31.495   8.003   8.794
 2696POPC   D2A36676  31.558   7.766   8.411
 2696POPC   C3A36677  31.580   7.992   8.011
 2696POPC   C4A36678  31.246   8.277   7.828
 2696POPC   C1B36679  31.268   8.451   8.689
 2696POPC   C2B36680  31.446   8.436   8.275
 2696POPC   C3B36681  31.731   8.462   7.888
 2696POPC   C4B36682  31.569   8.394   7.421
 2697POPC   NC336683   8.037  36.387   9.463
 2697POPC   PO436684   8.525  35.958   9.493
 2697POPC   GL136685   8.580  36.057   9.099
 2697POPC   GL236686   8.418  36.359   9.132
 2697POPC   C1A36687   8.365  35.967   8.736
 2697POPC   D2A36688   7.994  36.060   8.531
 2697POPC   C3A36689   8.123  35.927   8.140
 2697POPC   C4A36690   8.011  35.982   7.744
 2697POPC   C1B36691   8.543  36.448   8.746
 2697POPC   C2B36692   8.265  36.466   8.410
 2697POPC   C3B36693   8.066  36.415   8.048
 2697POPC   C4B36694   8.354  36.373   7.763
 2698POPC   NC336695  14.605  15.634   9.515
 2698POPC   PO436696  14.757  16.303   9.624
 2698POPC   GL136697  14.615  16.182   9.196
 2698POPC   GL236698  14.302  15.974   9.202
 2698POPC   C1A36699  14.482  16.173   8.736
 2698POPC   D2A36700  14.126  15.940   8.468
 2698POPC   C3A36701  14.145  15.947   8.011
 2698POPC   C4A36702  14.486  16.052   7.712
 2698POPC   C1B36703  14.434  15.673   8.863
 2698POPC   C2B36704  14.431  15.508   8.450
 2698POPC   C3B36705  14.558  15.646   8.037
 2698POPC   C4B36706  14.449  15.547   7.619
 2699POPC   NC336707  35.953  39.760   9.313
 2699POPC   PO436708  36.270  40.380   9.398
 2699POPC   GL136709  36.049  40.206   9.066
 2699POPC   GL236710  36.331  39.992   9.042
 2699POPC   C1A36711  35.892  39.966   8.712
 2699POPC   D2A36712  35.600  39.925   8.390
 2699POPC   C3A36713  35.876  39.768   8.094
 2699POPC   C4A36714  36.101  39.996   7.776
 2699POPC   C1B36715  36.484  39.792   8.692
 2699POPC   C2B36716  36.422  39.499   8.373
 2699POPC   C3B36717  36.337  39.555   7.942
 2699POPC   C4B36718  35.989  39.532   7.652
 2700POPC   NC336719  31.132  31.289   9.537
 2700POPC   PO436720  30.822  31.840   9.290
 2700POPC   GL136721  30.901  31.476   9.091
 2700POPC   GL236722  30.624  31.277   9.178
 2700POPC   C1A36723  30.801  31.461   8.674
 2700POPC   D2A36724  30.691  31.744   8.302
 2700POPC   C3A36725  30.824  31.625   7.866
 2700POPC   C4A36726  30.953  31.193   7.711
 2700POPC   C1B36727  30.412  31.141   8.780
 2700POPC   C2B36728  30.598  31.115   8.363
 2700POPC   C3B36729  30.496  31.232   7.958
 2700POPC   C4B36730  30.376  30.946   7.627
 2701POPC   NC336731  39.547  18.185   9.366
 2701POPC   PO436732  38.891  18.485   9.553
 2701POPC   GL136733  39.094  18.345   9.165
 2701POPC   GL236734  39.080  17.998   9.190
 2701POPC   C1A36735  39.317  18.487   8.764
 2701POPC   D2A36736  39.520  18.466   8.331
 2701POPC   C3A36737  39.293  18.413   7.967
 2701POPC   C4A36738  39.049  18.652   7.715
 2701POPC   C1B36739  39.289  17.987   8.779
 2701POPC   C2B36740  39.224  18.022   8.339
 2701POPC   C3B36741  39.102  17.920   7.925
 2701POPC   C4B36742  39.188  18.103   7.505
 2702POPC   NC336743  21.224  29.046   9.660
 2702POPC   PO436744  21.682  29.528   9.550
 2702POPC   GL136745  21.352  29.362   9.271
 2702POPC   GL236746  21.314  29.008   9.158
 2702POPC   C1A36747  21.157  29.430   8.883
 2702POPC   D2A36748  21.157  29.237   8.489
 2702POPC   C3A36749  21.239  29.485   8.155
 2702POPC   C4A36750  21.264  29.256   7.794
 2702POPC   C1B36751  21.345  28.833   8.757
 2702POPC   C2B36752  21.045  28.698   8.463
 2702POPC   C3B36753  20.982  28.708   8.036
 2702POPC   C4B36754  21.320  28.768   7.754
 2703POPC   NC336755  17.447  16.030   9.543
 2703POPC   PO436756  17.550  15.430   9.706
 2703POPC   GL136757  17.590  15.647   9.249
 2703POPC   GL236758  17.248  15.754   9.177
 2703POPC   C1A36759  17.596  15.894   8.834
 2703POPC   D2A36760  17.410  16.035   8.423
 2703POPC   C3A36761  17.644  15.963   8.013
 2703POPC   C4A36762  18.013  16.080   7.753
 2703POPC   C1B36763  17.086  16.053   8.842
 2703POPC   C2B36764  16.846  16.020   8.460
 2703POPC   C3B36765  17.029  16.002   8.065
 2703POPC   C4B36766  17.235  15.901   7.717
 2704POPC   NC336767  43.655   0.231   9.808
 2704POPC   PO436768  43.010   0.276   9.556
 2704POPC   GL136769  43.114   0.467   9.198
 2704POPC   GL236770  43.439   0.566   9.367
 2704POPC   C1A36771  43.211   0.260   8.809
 2704POPC   D2A36772  43.170   0.149   8.411
 2704POPC   C3A36773  42.998   0.396   8.097
 2704POPC   C4A36774  43.084   0.241   7.720
 2704POPC   C1B36775  43.462   0.691   8.911
 2704POPC   C2B36776  43.338   0.644   8.458
 2704POPC   C3B36777  43.384   0.841   8.044
 2704POPC   C4B36778  43.234   0.721   7.627
 2705POPC   NC336779  26.503  21.678   9.601
 2705POPC   PO436780  27.076  21.444   9.412
 2705POPC   GL136781  26.773  21.436   9.142
 2705POPC   GL236782  26.713  21.145   9.075
 2705POPC   C1A36783  26.660  21.587   8.724
 2705POPC   D2A36784  26.886  21.702   8.347
 2705POPC   C3A36785  26.812  21.448   7.990
 2705POPC   C4A36786  26.930  21.463   7.591
 2705POPC   C1B36787  26.534  21.070   8.737
 2705POPC   C2B36788  26.696  21.138   8.375
 2705POPC   C3B36789  26.463  21.064   8.025
 2705POPC   C4B36790  26.623  21.068   7.640
 2706POPC   NC336791  34.981  32.621   9.401
 2706POPC   PO436792  35.212  33.204   9.527
 2706POPC   GL136793  35.222  33.140   9.090
 2706POPC   GL236794  34.975  32.931   9.004
 2706POPC   C1A36795  35.529  33.096   8.758
 2706POPC   D2A36796  35.751  32.900   8.400
 2706POPC   C3A36797  35.527  33.015   8.024
 2706POPC   C4A36798  35.606  32.960   7.586
 2706POPC   C1B36799  35.175  32.696   8.677
 2706POPC   C2B36800  35.148  32.522   8.271
 2706POPC   C3B36801  35.155  32.720   7.891
 2706POPC   C4B36802  35.013  33.185   7.840
 2707POPC   NC336803  43.569  18.755   9.311
 2707POPC   PO436804  44.149  18.925   9.608
 2707POPC   GL136805  44.025  18.996   9.186
 2707POPC   GL236806  44.037  18.654   9.146
 2707POPC   C1A36807  43.850  19.248   8.830
 2707POPC   D2A36808  44.003  19.403   8.429
 2707POPC   C3A36809  43.728  19.339   8.087
 2707POPC   C4A36810  43.865  19.465   7.725
 2707POPC   C1B36811  43.845  18.737   8.752
 2707POPC   C2B36812  43.808  18.933   8.404
 2707POPC   C3B36813  43.842  18.779   8.028
 2707POPC   C4B36814  43.749  18.984   7.669
 2708POPC   NC336815  40.801  32.322   9.558
 2708POPC   PO436816  40.554  31.878   9.091
 2708POPC   GL136817  40.837  32.244   9.065
 2708POPC   GL236818  40.660  32.565   9.127
 2708POPC   C1A36819  41.078  32.190   8.739
 2708POPC   D2A36820  40.812  32.147   8.390
 2708POPC   C3A36821  40.950  32.229   7.990
 2708POPC   C4A36822  41.077  31.947   7.703
 2708POPC   C1B36823  40.777  32.601   8.690
 2708POPC   C2B36824  40.704  32.639   8.258
 2708POPC   C3B36825  40.453  32.404   8.014
 2708POPC   C4B36826  40.562  32.277   7.625
 2709POPC   NC336827   8.213   9.321   9.418
 2709POPC   PO436828   8.416   8.703   9.395
 2709POPC   GL136829   8.274   8.934   9.077
 2709POPC   GL236830   7.912   8.974   9.190
 2709POPC   C1A36831   8.397   8.812   8.665
 2709POPC   D2A36832   8.623   8.887   8.275
 2709POPC   C3A36833   8.390   8.767   7.900
 2709POPC   C4A36834   8.291   9.082   7.585
 2709POPC   C1B36835   7.907   8.947   8.739
 2709POPC   C2B36836   7.966   8.793   8.321
 2709POPC   C3B36837   7.868   8.896   7.864
 2709POPC   C4B36838   7.818   8.988   7.418
 2710POPC   NC336839  19.514   4.805   9.569
 2710POPC   PO436840  19.118   5.361   9.506
 2710POPC   GL136841  19.332   5.121   9.197
 2710POPC   GL236842  18.974   5.041   9.105
 2710POPC   C1A36843  19.350   4.933   8.795
 2710POPC   D2A36844  19.035   5.047   8.484
 2710POPC   C3A36845  19.178   4.909   8.090
 2710POPC   C4A36846  19.253   4.956   7.657
 2710POPC   C1B36847  18.986   5.413   8.817
 2710POPC   C2B36848  19.043   5.527   8.354
 2710POPC   C3B36849  19.114   5.453   7.927
 2710POPC   C4B36850  18.882   5.665   7.596
 2711POPC   NC336851  26.283  24.974   9.580
 2711POPC   PO436852  25.901  25.493   9.368
 2711POPC   GL136853  26.168  25.279   9.132
 2711POPC   GL236854  26.026  24.978   9.141
 2711POPC   C1A36855  26.344  25.135   8.754
 2711POPC   D2A36856  26.182  25.329   8.372
 2711POPC   C3A36857  26.383  25.304   7.966
 2711POPC   C4A36858  26.180  25.385   7.547
 2711POPC   C1B36859  25.843  25.053   8.750
 2711POPC   C2B36860  25.709  25.072   8.339
 2711POPC   C3B36861  25.900  25.124   7.935
 2711POPC   C4B36862  26.213  24.899   7.670
 2712POPC   NC336863  25.253  10.840   9.469
 2712POPC   PO436864  25.299  10.155   9.755
 2712POPC   GL136865  25.159  10.370   9.278
 2712POPC   GL236866  25.424  10.575   9.081
 2712POPC   C1A36867  25.188  10.265   8.792
 2712POPC   D2A36868  25.389  10.487   8.439
 2712POPC   C3A36869  25.187  10.422   8.061
 2712POPC   C4A36870  24.977  10.304   7.694
 2712POPC   C1B36871  25.667  10.787   8.763
 2712POPC   C2B36872  25.568  11.037   8.426
 2712POPC   C3B36873  25.568  10.994   7.978
 2712POPC   C4B36874  25.219  10.812   7.730
 2713POPC   NC336875   4.530  23.282   9.500
 2713POPC   PO436876   4.130  23.793   9.736
 2713POPC   GL136877   4.225  23.649   9.271
 2713POPC   GL236878   4.130  23.283   9.167
 2713POPC   C1A36879   4.434  23.788   8.861
 2713POPC   D2A36880   4.518  23.849   8.416
 2713POPC   C3A36881   4.200  23.831   8.055
 2713POPC   C4A36882   4.276  23.710   7.595
 2713POPC   C1B36883   4.289  23.320   8.741
 2713POPC   C2B36884   4.333  23.394   8.313
 2713POPC   C3B36885   4.476  23.351   7.904
 2713POPC   C4B36886   4.313  23.205   7.517
 2714POPC   NC336887  43.079  36.040   9.731
 2714POPC   PO436888  42.346  36.092   9.654
 2714POPC   GL136889  42.299  36.000   9.203
 2714POPC   GL236890  42.657  35.986   9.129
 2714POPC   C1A36891  42.051  36.018   8.788
 2714POPC   D2A36892  42.019  35.876   8.327
 2714POPC   C3A36893  42.203  36.109   7.950
 2714POPC   C4A36894  42.050  36.450   7.707
 2714POPC   C1B36895  42.525  36.209   8.753
 2714POPC   C2B36896  42.534  36.177   8.314
 2714POPC   C3B36897  42.710  36.213   7.868
 2714POPC   C4B36898  42.444  36.168   7.471
 2715POPC   NC336899  44.418  22.615   9.664
 2715POPC   PO436900  44.946  23.050   9.494
 2715POPC   GL136901  44.791  22.875   9.151
 2715POPC   GL236902  44.464  22.860   9.221
 2715POPC   C1A36903  44.850  23.010   8.731
 2715POPC   D2A36904  44.844  23.350   8.407
 2715POPC   C3A36905  44.902  23.107   8.020
 2715POPC   C4A36906  44.965  22.876   7.614
 2715POPC   C1B36907  44.329  23.066   8.864
 2715POPC   C2B36908  44.429  23.025   8.432
 2715POPC   C3B36909  44.233  22.933   8.054
 2715POPC   C4B36910  44.474  22.826   7.725
 2716POPC   NC336911  31.087  24.188   9.542
 2716POPC   PO436912  30.523  24.588   9.388
 2716POPC   GL136913  30.748  24.271   9.158
 2716POPC   GL236914  30.547  24.002   9.230
 2716POPC   C1A36915  30.812  24.222   8.714
 2716POPC   D2A36916  30.934  24.652   8.497
 2716POPC   C3A36917  30.729  24.793   8.096
 2716POPC   C4A36918  30.898  24.599   7.734
 2716POPC   C1B36919  30.304  24.202   8.895
 2716POPC   C2B36920  30.414  24.474   8.535
 2716POPC   C3B36921  30.686  24.312   8.187
 2716POPC   C4B36922  30.532  24.261   7.757
 2717POPC   NC336923  13.152  20.239   9.193
 2717POPC   PO436924  12.832  19.796   9.604
 2717POPC   GL136925  12.792  19.847   9.143
 2717POPC   GL236926  13.077  19.847   8.895
 2717POPC   C1A36927  12.619  19.680   8.757
 2717POPC   D2A36928  12.930  19.607   8.426
 2717POPC   C3A36929  12.855  19.883   8.081
 2717POPC   C4A36930  12.467  19.718   7.916
 2717POPC   C1B36931  12.886  20.112   8.591
 2717POPC   C2B36932  13.100  20.330   8.306
 2717POPC   C3B36933  13.378  20.139   8.069
 2717POPC   C4B36934  13.283  20.004   7.681
 2718POPC   NC336935  13.866  39.493   9.760
 2718POPC   PO436936  13.641  38.883   9.593
 2718POPC   GL136937  13.681  39.142   9.206
 2718POPC   GL236938  13.740  39.507   9.215
 2718POPC   C1A36939  13.716  39.141   8.745
 2718POPC   D2A36940  13.933  39.193   8.330
 2718POPC   C3A36941  13.693  38.992   7.981
 2718POPC   C4A36942  13.384  39.126   7.709
 2718POPC   C1B36943  13.498  39.638   8.828
 2718POPC   C2B36944  13.436  39.440   8.416
 2718POPC   C3B36945  13.607  39.492   8.027
 2718POPC   C4B36946  13.561  39.621   7.627
 2719POPC   NC336947  41.279  13.204   9.370
 2719POPC   PO436948  40.594  13.111   9.362
 2719POPC   GL136949  40.928  12.867   9.147
 2719POPC   GL236950  41.025  12.531   9.294
 2719POPC   C1A36951  40.942  12.855   8.701
 2719POPC   D2A36952  40.836  13.086   8.326
 2719POPC   C3A36953  40.613  12.936   7.994
 2719POPC   C4A36954  40.932  12.897   7.714
 2719POPC   C1B36955  41.166  12.437   8.887
 2719POPC   C2B36956  41.049  12.346   8.481
 2719POPC   C3B36957  40.995  12.552   8.099
 2719POPC   C4B36958  40.708  12.442   7.796
 2720POPC   NC336959  25.186   9.482   9.489
 2720POPC   PO436960  25.480  10.000   9.290
 2720POPC   GL136961  25.268   9.737   9.057
 2720POPC   GL236962  25.524   9.483   9.056
 2720POPC   C1A36963  24.991   9.798   8.739
 2720POPC   D2A36964  25.082  10.018   8.363
 2720POPC   C3A36965  24.968   9.872   7.973
 2720POPC   C4A36966  25.122   9.772   7.593
 2720POPC   C1B36967  25.380   9.462   8.620
 2720POPC   C2B36968  25.238   9.197   8.286
 2720POPC   C3B36969  25.208   9.427   7.965
 2720POPC   C4B36970  25.552   9.521   7.786
 2721POPC   NC336971  16.735  15.648   9.806
 2721POPC   PO436972  16.845  15.025   9.537
 2721POPC   GL136973  16.593  15.082   9.180
 2721POPC   GL236974  16.805  15.356   9.099
 2721POPC   C1A36975  16.593  15.100   8.723
 2721POPC   D2A36976  16.689  15.317   8.346
 2721POPC   C3A36977  16.705  15.039   7.974
 2721POPC   C4A36978  16.580  15.077   7.535
 2721POPC   C1B36979  17.088  15.536   8.760
 2721POPC   C2B36980  17.182  15.561   8.333
 2721POPC   C3B36981  16.956  15.506   7.948
 2721POPC   C4B36982  16.977  15.387   7.533
 2722POPC   NC336983  35.674  16.126   9.602
 2722POPC   PO436984  36.267  15.726   9.512
 2722POPC   GL136985  35.964  15.897   9.235
 2722POPC   GL236986  36.151  16.200   9.166
 2722POPC   C1A36987  35.834  16.014   8.812
 2722POPC   D2A36988  36.036  16.030   8.408
 2722POPC   C3A36989  35.869  16.110   7.978
 2722POPC   C4A36990  35.857  16.119   7.520
 2722POPC   C1B36991  36.309  15.872   8.839
 2722POPC   C2B36992  36.321  15.615   8.460
 2722POPC   C3B36993  36.309  15.783   8.039
 2722POPC   C4B36994  36.172  15.752   7.654
 2723POPC   NC336995   6.511   8.725   9.474
 2723POPC   PO436996   7.049   9.189   9.404
 2723POPC   GL136997   6.776   8.998   9.144
 2723POPC   GL236998   6.962   8.711   9.109
 2723POPC   C1A36999   6.557   8.876   8.770
 2723POPC   D2A37000   6.257   9.034   8.462
 2723POPC   C3A37001   6.476   9.111   8.085
 2723POPC   C4A37002   6.549   9.081   7.680
 2723POPC   C1B37003   6.986   8.582   8.683
 2723POPC   C2B37004   6.675   8.578   8.357
 2723POPC   C3B37005   6.380   8.620   8.058
 2723POPC   C4B37006   6.486   8.585   7.669
 2724POPC   NC337007  31.711  24.357   9.346
 2724POPC   PO437008  31.183  24.659   9.538
 2724POPC   GL137009  31.336  24.675   9.123
 2724POPC   GL237010  31.638  24.875   9.193
 2724POPC   C1A37011  31.307  24.329   8.799
 2724POPC   D2A37012  31.189  24.198   8.367
 2724POPC   C3A37013  31.477  24.332   8.040
 2724POPC   C4A37014  31.373  24.428   7.640
 2724POPC   C1B37015  31.746  24.849   8.781
 2724POPC   C2B37016  31.467  24.665   8.451
 2724POPC   C3B37017  31.282  24.803   8.059
 2724POPC   C4B37018  31.598  24.892   7.716
 2725POPC   NC337019   9.870  34.893   9.294
 2725POPC   PO437020   9.483  34.393   9.545
 2725POPC   GL137021   9.651  34.460   9.164
 2725POPC   GL237022   9.433  34.742   9.102
 2725POPC   C1A37023   9.961  34.381   8.829
 2725POPC   D2A37024   9.824  34.469   8.411
 2725POPC   C3A37025   9.896  34.281   8.032
 2725POPC   C4A37026   9.521  34.274   7.847
 2725POPC   C1B37027   9.561  34.793   8.697
 2725POPC   C2B37028   9.580  34.903   8.250
 2725POPC   C3B37029   9.590  34.804   7.820
 2725POPC   C4B37030   9.452  34.946   7.383
 2726POPC   NC337031  35.643  13.797   9.594
 2726POPC   PO437032  35.060  13.432   9.452
 2726POPC   GL137033  35.350  13.589   9.140
 2726POPC   GL237034  35.549  13.885   9.121
 2726POPC   C1A37035  35.294  13.731   8.701
 2726POPC   D2A37036  35.024  13.696   8.359
 2726POPC   C3A37037  35.349  13.749   8.055
 2726POPC   C4A37038  35.372  13.520   7.691
 2726POPC   C1B37039  35.626  14.126   8.789
 2726POPC   C2B37040  35.767  14.007   8.402
 2726POPC   C3B37041  35.833  14.096   7.980
 2726POPC   C4B37042  35.631  13.940   7.627
 2727POPC   NC337043  19.163  30.621   9.459
 2727POPC   PO437044  18.668  30.949   9.284
 2727POPC   GL137045  18.990  30.781   8.993
 2727POPC   GL237046  19.053  30.416   9.002
 2727POPC   C1A37047  19.407  30.738   8.794
 2727POPC   D2A37048  19.527  30.645   8.367
 2727POPC   C3A37049  19.346  30.850   7.986
 2727POPC   C4A37050  19.189  30.725   7.576
 2727POPC   C1B37051  19.026  30.490   8.539
 2727POPC   C2B37052  18.881  30.738   8.169
 2727POPC   C3B37053  18.794  30.986   7.787
 2727POPC   C4B37054  18.832  30.981   7.305
 2728POPC   NC337055   9.177  33.244   9.434
 2728POPC   PO437056   8.662  32.818   9.503
 2728POPC   GL137057   8.763  33.077   9.169
 2728POPC   GL237058   9.071  32.893   9.083
 2728POPC   C1A37059   8.874  33.215   8.759
 2728POPC   D2A37060   8.927  33.037   8.337
 2728POPC   C3A37061   8.898  33.210   7.923
 2728POPC   C4A37062   8.679  32.945   7.589
 2728POPC   C1B37063   9.282  32.882   8.675
 2728POPC   C2B37064   9.394  32.887   8.209
 2728POPC   C3B37065   9.194  32.830   7.786
 2728POPC   C4B37066   9.299  32.875   7.347
 2729POPC   NC337067   1.421  29.491   9.246
 2729POPC   PO437068   1.151  28.891   9.402
 2729POPC   GL137069   1.198  29.103   9.050
 2729POPC   GL237070   0.945  29.372   9.017
 2729POPC   C1A37071   1.289  29.377   8.640
 2729POPC   D2A37072   1.199  29.470   8.237
 2729POPC   C3A37073   1.453  29.172   8.013
 2729POPC   C4A37074   1.409  29.000   7.552
 2729POPC   C1B37075   0.920  29.002   8.679
 2729POPC   C2B37076   1.062  28.994   8.319
 2729POPC   C3B37077   1.087  28.811   7.959
 2729POPC   C4B37078   0.881  28.846   7.597
 2730POPC   NC337079  36.622  34.341   9.497
 2730POPC   PO437080  37.162  34.604   9.411
 2730POPC   GL137081  36.970  34.361   9.100
 2730POPC   GL237082  36.617  34.541   9.040
 2730POPC   C1A37083  37.222  34.345   8.730
 2730POPC   D2A37084  37.264  34.615   8.382
 2730POPC   C3A37085  37.156  34.435   8.046
 2730POPC   C4A37086  37.059  34.542   7.659
 2730POPC   C1B37087  36.737  34.444   8.636
 2730POPC   C2B37088  36.748  34.228   8.256
 2730POPC   C3B37089  36.642  34.523   7.948
 2730POPC   C4B37090  36.853  34.858   8.083
 2731POPC   NC337091  29.494  33.589   9.464
 2731POPC   PO437092  30.080  33.958   9.498
 2731POPC   GL137093  29.950  33.783   9.153
 2731POPC   GL237094  29.604  33.928   9.103
 2731POPC   C1A37095  30.194  33.757   8.758
 2731POPC   D2A37096  30.273  33.534   8.375
 2731POPC   C3A37097  30.178  33.729   7.990
 2731POPC   C4A37098  30.092  33.449   7.688
 2731POPC   C1B37099  29.687  33.702   8.736
 2731POPC   C2B37100  29.828  33.846   8.362
 2731POPC   C3B37101  29.618  33.741   7.992
 2731POPC   C4B37102  29.672  33.832   7.615
 2732POPC   NC337103  22.804  28.006   9.491
 2732POPC   PO437104  23.237  27.461   9.571
 2732POPC   GL137105  22.997  27.422   9.193
 2732POPC   GL237106  22.907  27.752   9.036
 2732POPC   C1A37107  22.972  27.268   8.779
 2732POPC   D2A37108  22.980  27.570   8.489
 2732POPC   C3A37109  22.974  27.360   8.112
 2732POPC   C4A37110  23.041  27.550   7.736
 2732POPC   C1B37111  22.551  27.547   8.832
 2732POPC   C2B37112  22.485  27.451   8.437
 2732POPC   C3B37113  22.587  27.680   8.099
 2732POPC   C4B37114  22.513  27.626   7.682
 2733POPC   NC337115  43.252  16.355   9.527
 2733POPC   PO437116  42.652  16.659   9.479
 2733POPC   GL137117  42.948  16.636   9.155
 2733POPC   GL237118  43.145  16.898   9.260
 2733POPC   C1A37119  43.147  16.512   8.748
 2733POPC   D2A37120  43.453  16.446   8.406
 2733POPC   C3A37121  43.328  16.583   7.988
 2733POPC   C4A37122  42.962  16.639   7.703
 2733POPC   C1B37123  43.115  17.031   8.818
 2733POPC   C2B37124  43.173  16.896   8.363
 2733POPC   C3B37125  43.134  17.064   7.945
 2733POPC   C4B37126  42.786  17.152   7.707
 2734POPC   NC337127  13.922   6.453   9.569
 2734POPC   PO437128  13.494   6.998   9.450
 2734POPC   GL137129  13.736   6.769   9.160
 2734POPC   GL237130  13.717   6.406   9.113
 2734POPC   C1A37131  13.641   6.726   8.732
 2734POPC   D2A37132  13.871   6.880   8.415
 2734POPC   C3A37133  13.695   6.809   8.059
 2734POPC   C4A37134  13.780   6.751   7.666
 2734POPC   C1B37135  13.723   6.214   8.722
 2734POPC   C2B37136  13.748   6.352   8.315
 2734POPC   C3B37137  13.810   6.290   7.882
 2734POPC   C4B37138  13.608   6.339   7.480
 2735POPC   NC337139  39.098  26.477   9.369
 2735POPC   PO437140  39.374  27.101   9.432
 2735POPC   GL137141  39.156  26.915   9.105
 2735POPC   GL237142  39.397  26.697   9.020
 2735POPC   C1A37143  38.985  26.775   8.712
 2735POPC   D2A37144  39.138  26.754   8.306
 2735POPC   C3A37145  38.947  26.937   7.941
 2735POPC   C4A37146  38.947  26.736   7.548
 2735POPC   C1B37147  39.605  26.544   8.704
 2735POPC   C2B37148  39.637  26.789   8.396
 2735POPC   C3B37149  39.521  27.053   8.089
 2735POPC   C4B37150  39.403  26.701   7.849
 2736POPC   NC337151  13.872   3.474   9.823
 2736POPC   PO437152  14.307   3.684   9.536
 2736POPC   GL137153  14.392   3.642   9.079
 2736POPC   GL237154  14.646   3.851   8.941
 2736POPC   C1A37155  14.352   3.453   8.620
 2736POPC   D2A37156  14.287   3.408   8.138
 2736POPC   C3A37157  14.556   3.684   7.850
 2736POPC   C4A37158  14.660   3.610   7.393
 2736POPC   C1B37159  14.276   3.949   8.693
 2736POPC   C2B37160  14.289   3.885   8.286
 2736POPC   C3B37161  14.065   3.845   7.923
 2736POPC   C4B37162  14.229   3.935   7.546
 2737POPC   NC337163  27.246  35.387   9.395
 2737POPC   PO437164  27.923  35.430   9.534
 2737POPC   GL137165  27.705  35.476   9.130
 2737POPC   GL237166  27.463  35.766   9.073
 2737POPC   C1A37167  27.631  35.281   8.725
 2737POPC   D2A37168  27.469  35.258   8.311
 2737POPC   C3A37169  27.814  35.230   7.999
 2737POPC   C4A37170  27.806  35.230   7.555
 2737POPC   C1B37171  27.779  35.795   8.720
 2737POPC   C2B37172  27.785  35.646   8.314
 2737POPC   C3B37173  27.523  35.645   7.948
 2737POPC   C4B37174  27.626  35.715   7.542
 2738POPC   NC337175  12.006  41.424   9.474
 2738POPC   PO437176  12.287  42.023   9.395
 2738POPC   GL137177  12.204  41.733   9.074
 2738POPC   GL237178  11.865  41.751   9.128
 2738POPC   C1A37179  12.131  41.741   8.620
 2738POPC   D2A37180  12.270  41.485   8.263
 2738POPC   C3A37181  12.170  41.661   7.894
 2738POPC   C4A37182  11.837  41.855   7.794
 2738POPC   C1B37183  11.857  41.387   8.847
 2738POPC   C2B37184  11.770  41.422   8.411
 2738POPC   C3B37185  11.872  41.253   8.011
 2738POPC   C4B37186  11.830  41.404   7.595
 2739POPC   NC337187  37.086  13.740   9.585
 2739POPC   PO437188  36.601  13.536   9.302
 2739POPC   GL137189  36.776  13.693   9.005
 2739POPC   GL237190  37.101  13.607   9.095
 2739POPC   C1A37191  36.709  13.729   8.563
 2739POPC   D2A37192  36.969  13.544   8.278
 2739POPC   C3A37193  36.791  13.449   7.951
 2739POPC   C4A37194  36.701  13.741   7.678
 2739POPC   C1B37195  37.244  13.620   8.696
 2739POPC   C2B37196  37.436  13.771   8.308
 2739POPC   C3B37197  37.282  13.926   7.964
 2739POPC   C4B37198  37.200  13.871   7.555
 2740POPC   NC337199  12.842  12.688   9.477
 2740POPC   PO437200  13.240  13.243   9.227
 2740POPC   GL137201  12.941  12.990   9.023
 2740POPC   GL237202  12.643  12.987   9.124
 2740POPC   C1A37203  12.865  12.849   8.602
 2740POPC   D2A37204  13.066  12.602   8.297
 2740POPC   C3A37205  12.985  12.744   7.870
 2740POPC   C4A37206  13.044  12.786   7.433
 2740POPC   C1B37207  12.501  12.627   8.858
 2740POPC   C2B37208  12.373  12.642   8.434
 2740POPC   C3B37209  12.477  12.796   8.006
 2740POPC   C4B37210  12.515  12.453   7.719
 2741POPC   NC337211  24.055  11.733   9.496
 2741POPC   PO437212  23.604  12.209   9.483
 2741POPC   GL137213  23.491  12.076   9.100
 2741POPC   GL237214  23.254  12.349   9.042
 2741POPC   C1A37215  23.680  11.939   8.698
 2741POPC   D2A37216  23.692  11.774   8.259
 2741POPC   C3A37217  23.416  12.004   7.969
 2741POPC   C4A37218  23.527  12.058   7.510
 2741POPC   C1B37219  23.468  12.402   8.677
 2741POPC   C2B37220  23.647  12.294   8.322
 2741POPC   C3B37221  23.853  12.228   7.955
 2741POPC   C4B37222  23.629  12.492   7.750
 2742POPC   NC337223   8.625  23.144   9.351
 2742POPC   PO437224   7.989  23.179   9.556
 2742POPC   GL137225   8.078  22.803   9.261
 2742POPC   GL237226   8.391  22.742   9.119
 2742POPC   C1A37227   7.999  22.645   8.809
 2742POPC   D2A37228   8.020  22.920   8.377
 2742POPC   C3A37229   8.178  22.811   7.961
 2742POPC   C4A37230   8.037  23.084   7.622
 2742POPC   C1B37231   8.425  22.934   8.748
 2742POPC   C2B37232   8.501  23.082   8.367
 2742POPC   C3B37233   8.364  23.270   8.029
 2742POPC   C4B37234   8.529  23.072   7.665
 2743POPC   NC337235  22.362   8.236   9.854
 2743POPC   PO437236  21.895   8.343   9.367
 2743POPC   GL137237  22.327   8.366   9.197
 2743POPC   GL237238  22.139   8.494   8.940
 2743POPC   C1A37239  22.529   8.214   8.777
 2743POPC   D2A37240  22.404   8.070   8.336
 2743POPC   C3A37241  22.289   8.446   8.103
 2743POPC   C4A37242  22.135   8.496   7.687
 2743POPC   C1B37243  22.014   8.128   8.709
 2743POPC   C2B37244  21.892   8.152   8.290
 2743POPC   C3B37245  21.966   8.052   7.889
 2743POPC   C4B37246  22.080   7.818   7.554
 2744POPC   NC337247  14.070  38.862   9.425
 2744POPC   PO437248  14.336  39.387   9.720
 2744POPC   GL137249  14.239  39.342   9.289
 2744POPC   GL237250  14.460  39.055   9.154
 2744POPC   C1A37251  14.410  39.461   8.874
 2744POPC   D2A37252  14.616  39.180   8.583
 2744POPC   C3A37253  14.529  39.265   8.154
 2744POPC   C4A37254  14.619  39.131   7.734
 2744POPC   C1B37255  14.202  38.948   8.775
 2744POPC   C2B37256  14.268  38.797   8.349
 2744POPC   C3B37257  14.184  38.950   7.914
 2744POPC   C4B37258  14.088  39.410   7.853
 2745POPC   NC337259   9.274  26.337   9.688
 2745POPC   PO437260   8.782  25.957   9.604
 2745POPC   GL137261   8.762  26.023   9.138
 2745POPC   GL237262   9.129  26.038   9.097
 2745POPC   C1A37263   8.531  26.039   8.708
 2745POPC   D2A37264   8.746  26.166   8.303
 2745POPC   C3A37265   8.569  26.229   7.917
 2745POPC   C4A37266   8.513  25.957   7.555
 2745POPC   C1B37267   9.017  25.901   8.684
 2745POPC   C2B37268   8.821  25.666   8.350
 2745POPC   C3B37269   8.922  25.811   7.913
 2745POPC   C4B37270   9.342  25.851   7.698
 2746POPC   NC337271  39.872  40.741   9.588
 2746POPC   PO437272  40.291  40.386   9.241
 2746POPC   GL137273  40.197  40.699   9.028
 2746POPC   GL237274  40.181  40.989   9.222
 2746POPC   C1A37275  40.030  40.647   8.638
 2746POPC   D2A37276  40.161  40.764   8.270
 2746POPC   C3A37277  39.962  40.556   7.942
 2746POPC   C4A37278  40.207  40.881   7.733
 2746POPC   C1B37279  39.810  41.027   8.914
 2746POPC   C2B37280  39.841  41.142   8.476
 2746POPC   C3B37281  39.794  41.022   8.035
 2746POPC   C4B37282  39.735  40.908   7.585
 2747POPC   NC337283  33.243  43.603   9.390
 2747POPC   PO437284  32.818  44.130   9.497
 2747POPC   GL137285  33.033  44.014   9.155
 2747POPC   GL237286  32.824  43.713   9.083
 2747POPC   C1A37287  33.064  44.218   8.780
 2747POPC   D2A37288  32.816  44.034   8.482
 2747POPC   C3A37289  32.968  43.978   8.105
 2747POPC   C4A37290  33.082  44.088   7.705
 2747POPC   C1B37291  33.120  43.703   8.740
 2747POPC   C2B37292  33.315  43.580   8.349
 2747POPC   C3B37293  33.314  43.643   7.956
 2747POPC   C4B37294  32.998  43.575   7.722
 2748POPC   NC337295  10.897   9.608   9.692
 2748POPC   PO437296  10.504  10.014   9.338
 2748POPC   GL137297  10.734   9.748   9.111
 2748POPC   GL237298  10.661   9.440   9.269
 2748POPC   C1A37299  10.583   9.730   8.690
 2748POPC   D2A37300  10.131   9.721   8.495
 2748POPC   C3A37301  10.141   9.823   8.039
 2748POPC   C4A37302  10.486   9.908   7.732
 2748POPC   C1B37303  10.439   9.293   8.931
 2748POPC   C2B37304  10.417   9.277   8.501
 2748POPC   C3B37305  10.177   9.316   8.127
 2748POPC   C4B37306  10.351   9.383   7.721
 2749POPC   NC337307  17.801  26.653   9.456
 2749POPC   PO437308  17.393  27.257   9.430
 2749POPC   GL137309  17.413  26.927   9.129
 2749POPC   GL237310  17.750  26.930   9.052
 2749POPC   C1A37311  17.370  26.981   8.673
 2749POPC   D2A37312  17.305  27.131   8.265
 2749POPC   C3A37313  17.458  26.899   7.939
 2749POPC   C4A37314  17.280  26.596   7.685
 2749POPC   C1B37315  17.870  27.118   8.722
 2749POPC   C2B37316  17.826  26.845   8.358
 2749POPC   C3B37317  17.956  26.714   7.953
 2749POPC   C4B37318  17.829  26.898   7.572
 2750POPC   NC337319  13.418  10.089   9.439
 2750POPC   PO437320  13.522   9.364   9.578
 2750POPC   GL137321  13.637   9.650   9.243
 2750POPC   GL237322  13.308   9.683   9.150
 2750POPC   C1A37323  13.800   9.744   8.827
 2750POPC   D2A37324  13.845   9.501   8.430
 2750POPC   C3A37325  13.810   9.730   8.041
 2750POPC   C4A37326  13.851   9.688   7.608
 2750POPC   C1B37327  13.351   9.980   8.819
 2750POPC   C2B37328  13.527   9.955   8.434
 2750POPC   C3B37329  13.372  10.023   8.050
 2750POPC   C4B37330  13.367   9.702   7.761
 2751POPC   NC337331  34.439  32.257   9.620
 2751POPC   PO437332  35.054  32.178   9.556
 2751POPC   GL137333  34.706  32.238   9.195
 2751POPC   GL237334  34.387  32.050   9.170
 2751POPC   C1A37335  34.752  32.380   8.766
 2751POPC   D2A37336  34.618  32.446   8.379
 2751POPC   C3A37337  34.754  32.291   8.014
 2751POPC   C4A37338  34.515  32.257   7.661
 2751POPC   C1B37339  34.601  31.895   8.801
 2751POPC   C2B37340  34.718  31.906   8.380
 2751POPC   C3B37341  34.535  31.811   7.964
 2751POPC   C4B37342  34.302  31.797   7.591
 2752POPC   NC337343  36.615  40.702   9.324
 2752POPC   PO437344  36.032  41.011   9.378
 2752POPC   GL137345  36.168  40.739   9.023
 2752POPC   GL237346  36.423  40.523   8.916
 2752POPC   C1A37347  36.030  40.747   8.621
 2752POPC   D2A37348  36.179  40.687   8.242
 2752POPC   C3A37349  35.919  40.731   7.910
 2752POPC   C4A37350  35.989  41.186   7.832
 2752POPC   C1B37351  36.300  40.274   8.606
 2752POPC   C2B37352  36.127  40.194   8.231
 2752POPC   C3B37353  36.367  40.412   7.872
 2752POPC   C4B37354  36.367  40.837   7.724
 2753POPC   NC337355  11.456  31.897   9.506
 2753POPC   PO437356  12.145  32.172   9.613
 2753POPC   GL137357  12.043  32.112   9.213
 2753POPC   GL237358  11.883  31.790   9.189
 2753POPC   C1A37359  12.097  32.388   8.852
 2753POPC   D2A37360  11.949  32.396   8.420
 2753POPC   C3A37361  11.896  32.081   8.100
 2753POPC   C4A37362  12.092  32.378   7.817
 2753POPC   C1B37363  12.042  31.880   8.757
 2753POPC   C2B37364  12.315  31.963   8.386
 2753POPC   C3B37365  12.382  31.970   7.921
 2753POPC   C4B37366  12.215  31.979   7.479
 2754POPC   NC337367  41.828  17.393   9.550
 2754POPC   PO437368  41.220  17.784   9.406
 2754POPC   GL137369  41.481  17.461   9.197
 2754POPC   GL237370  41.779  17.693   9.111
 2754POPC   C1A37371  41.787  17.217   8.922
 2754POPC   D2A37372  41.994  17.469   8.588
 2754POPC   C3A37373  41.899  17.336   8.189
 2754POPC   C4A37374  41.604  17.325   7.855
 2754POPC   C1B37375  41.506  17.608   8.720
 2754POPC   C2B37376  41.511  17.661   8.271
 2754POPC   C3B37377  41.446  17.817   7.838
 2754POPC   C4B37378  41.259  17.786   7.414
 2755POPC   NC337379  18.095  14.627   9.369
 2755POPC   PO437380  18.413  14.068   9.628
 2755POPC   GL137381  18.350  14.200   9.149
 2755POPC   GL237382  18.537  14.512   9.047
 2755POPC   C1A37383  18.201  14.300   8.708
 2755POPC   D2A37384  18.332  14.378   8.265
 2755POPC   C3A37385  18.296  14.134   7.886
 2755POPC   C4A37386  17.956  13.886   7.727
 2755POPC   C1B37387  18.506  14.718   8.655
 2755POPC   C2B37388  18.354  14.861   8.244
 2755POPC   C3B37389  18.122  14.708   7.870
 2755POPC   C4B37390  17.974  14.400   7.556
 2756POPC   NC337391  34.730  33.338   9.462
 2756POPC   PO437392  34.444  32.707   9.432
 2756POPC   GL137393  34.481  33.015   9.117
 2756POPC   GL237394  34.409  32.739   8.901
 2756POPC   C1A37395  34.687  33.337   8.831
 2756POPC   D2A37396  34.686  33.401   8.394
 2756POPC   C3A37397  34.345  33.203   8.146
 2756POPC   C4A37398  34.478  33.164   7.701
 2756POPC   C1B37399  34.690  32.900   8.578
 2756POPC   C2B37400  34.731  32.877   8.133
 2756POPC   C3B37401  34.710  32.713   7.706
 2756POPC   C4B37402  34.895  32.433   7.368
 2757POPC   NC337403  37.687   8.479   9.690
 2757POPC   PO437404  38.105   8.010   9.447
 2757POPC   GL137405  37.756   8.209   9.231
 2757POPC   GL237406  37.727   8.544   9.149
 2757POPC   C1A37407  37.485   8.211   8.851
 2757POPC   D2A37408  37.564   8.151   8.435
 2757POPC   C3A37409  37.485   8.370   8.076
 2757POPC   C4A37410  37.434   8.262   7.656
 2757POPC   C1B37411  38.014   8.293   8.814
 2757POPC   C2B37412  38.079   8.125   8.398
 2757POPC   C3B37413  38.033   8.044   7.971
 2757POPC   C4B37414  38.182   8.091   7.530
 2758POPC   NC337415  14.565  37.994   9.474
 2758POPC   PO437416  14.488  38.688   9.506
 2758POPC   GL137417  14.261  38.448   9.175
 2758POPC   GL237418  14.526  38.243   9.021
 2758POPC   C1A37419  14.145  38.434   8.731
 2758POPC   D2A37420  14.467  38.325   8.451
 2758POPC   C3A37421  14.399  38.251   8.041
 2758POPC   C4A37422  14.306  38.448   7.670
 2758POPC   C1B37423  14.635  38.658   8.834
 2758POPC   C2B37424  14.790  38.738   8.420
 2758POPC   C3B37425  14.624  38.707   8.015
 2758POPC   C4B37426  14.754  38.661   7.618
 2759POPC   NC337427  33.031  27.890   9.538
 2759POPC   PO437428  32.579  27.393   9.365
 2759POPC   GL137429  32.810  27.711   9.101
 2759POPC   GL237430  33.176  27.825   9.048
 2759POPC   C1A37431  32.941  27.591   8.658
 2759POPC   D2A37432  33.100  27.330   8.318
 2759POPC   C3A37433  32.888  27.478   7.991
 2759POPC   C4A37434  32.897  27.659   7.569
 2759POPC   C1B37435  33.421  27.525   8.766
 2759POPC   C2B37436  33.457  27.698   8.382
 2759POPC   C3B37437  33.422  27.860   8.017
 2759POPC   C4B37438  33.393  27.740   7.600
 2760POPC   NC337439  40.449  10.966   9.559
 2760POPC   PO437440  41.059  11.262   9.491
 2760POPC   GL137441  40.943  11.097   9.083
 2760POPC   GL237442  40.650  11.273   9.102
 2760POPC   C1A37443  40.750  11.023   8.654
 2760POPC   D2A37444  40.478  10.880   8.330
 2760POPC   C3A37445  40.615  11.188   8.084
 2760POPC   C4A37446  41.006  11.171   7.832
 2760POPC   C1B37447  40.490  11.491   8.745
 2760POPC   C2B37448  40.232  11.425   8.359
 2760POPC   C3B37449  40.319  11.594   7.948
 2760POPC   C4B37450  40.758  11.603   7.824
 2761POPC   NC337451   7.245   3.481   9.621
 2761POPC   PO437452   7.643   3.942   9.378
 2761POPC   GL137453   7.330   3.698   9.162
 2761POPC   GL237454   7.403   3.319   9.166
 2761POPC   C1A37455   7.197   3.553   8.766
 2761POPC   D2A37456   7.383   3.502   8.377
 2761POPC   C3A37457   7.266   3.684   8.032
 2761POPC   C4A37458   7.349   3.661   7.636
 2761POPC   C1B37459   7.625   3.221   8.747
 2761POPC   C2B37460   7.720   3.154   8.277
 2761POPC   C3B37461   7.516   3.238   7.852
 2761POPC   C4B37462   7.425   3.232   7.372
 2762POPC   NC337463   2.391  30.689   9.390
 2762POPC   PO437464   2.919  30.334   9.573
 2762POPC   GL137465   2.866  30.547   9.146
 2762POPC   GL237466   2.587  30.488   8.913
 2762POPC   C1A37467   2.919  30.867   8.780
 2762POPC   D2A37468   2.905  30.928   8.304
 2762POPC   C3A37469   2.768  30.577   8.062
 2762POPC   C4A37470   2.517  30.478   7.681
 2762POPC   C1B37471   2.384  30.897   8.732
 2762POPC   C2B37472   2.430  31.129   8.339
 2762POPC   C3B37473   2.434  30.947   7.891
 2762POPC   C4B37474   2.340  30.907   7.431
 2763POPC   NC337475  24.221   1.684   9.420
 2763POPC   PO437476  24.854   2.178   9.487
 2763POPC   GL137477  24.712   2.042   9.093
 2763POPC   GL237478  24.612   1.697   9.074
 2763POPC   C1A37479  24.607   2.080   8.640
 2763POPC   D2A37480  24.808   1.925   8.260
 2763POPC   C3A37481  24.664   2.191   7.927
 2763POPC   C4A37482  24.190   2.265   7.909
 2763POPC   C1B37483  24.639   1.585   8.663
 2763POPC   C2B37484  24.316   1.715   8.368
 2763POPC   C3B37485  24.379   1.776   7.946
 2763POPC   C4B37486  24.754   1.593   7.827
 2764POPC   NC337487  21.861  17.219   9.391
 2764POPC   PO437488  22.529  17.532   9.396
 2764POPC   GL137489  22.233  17.430   9.117
 2764POPC   GL237490  22.297  17.096   9.176
 2764POPC   C1A37491  22.055  17.514   8.733
 2764POPC   D2A37492  22.169  17.410   8.326
 2764POPC   C3A37493  22.200  17.680   8.018
 2764POPC   C4A37494  22.072  17.539   7.687
 2764POPC   C1B37495  22.388  17.014   8.754
 2764POPC   C2B37496  22.531  17.017   8.347
 2764POPC   C3B37497  22.529  17.153   7.944
 2764POPC   C4B37498  22.455  17.203   7.526
 2765POPC   NC337499  25.815  26.525   9.532
 2765POPC   PO437500  26.368  26.893   9.578
 2765POPC   GL137501  26.162  26.749   9.222
 2765POPC   GL237502  25.891  26.983   9.296
 2765POPC   C1A37503  26.028  26.612   8.801
 2765POPC   D2A37504  26.240  26.548   8.392
 2765POPC   C3A37505  26.042  26.553   7.975
 2765POPC   C4A37506  26.276  26.694   7.623
 2765POPC   C1B37507  25.946  27.107   8.870
 2765POPC   C2B37508  26.134  27.148   8.454
 2765POPC   C3B37509  26.191  27.039   8.031
 2765POPC   C4B37510  25.823  26.989   7.773
 2766POPC   NC337511  12.909  19.195   9.437
 2766POPC   PO437512  12.935  18.421   9.466
 2766POPC   GL137513  12.874  18.725   9.138
 2766POPC   GL237514  13.113  19.011   8.989
 2766POPC   C1A37515  12.695  18.809   8.733
 2766POPC   D2A37516  12.932  19.030   8.419
 2766POPC   C3A37517  12.724  19.261   8.098
 2766POPC   C4A37518  12.634  19.027   7.767
 2766POPC   C1B37519  13.200  18.658   8.740
 2766POPC   C2B37520  13.232  18.505   8.338
 2766POPC   C3B37521  13.024  18.739   7.983
 2766POPC   C4B37522  13.148  19.131   7.798
 2767POPC   NC337523  28.342  44.162   9.662
 2767POPC   PO437524  27.860  43.736   9.485
 2767POPC   GL137525  28.253  43.790   9.211
 2767POPC   GL237526  28.448  44.099   9.176
 2767POPC   C1A37527  28.434  43.723   8.777
 2767POPC   D2A37528  28.194  43.718   8.380
 2767POPC   C3A37529  28.239  43.834   7.939
 2767POPC   C4A37530  28.155  43.966   7.513
 2767POPC   C1B37531  28.520  44.245   8.778
 2767POPC   C2B37532  28.746  44.306   8.435
 2767POPC   C3B37533  28.540  44.213   8.121
 2767POPC   C4B37534  28.594  44.158   7.730
 2768POPC   NC337535  35.008   3.439  10.054
 2768POPC   PO437536  34.463   3.506   9.610
 2768POPC   GL137537  34.498   3.705   9.217
 2768POPC   GL237538  34.187   3.661   9.150
 2768POPC   C1A37539  34.673   3.716   8.816
 2768POPC   D2A37540  34.724   3.405   8.515
 2768POPC   C3A37541  34.754   3.631   8.143
 2768POPC   C4A37542  34.869   3.674   7.748
 2768POPC   C1B37543  34.246   3.416   8.834
 2768POPC   C2B37544  34.162   3.556   8.455
 2768POPC   C3B37545  34.253   3.386   8.089
 2768POPC   C4B37546  34.370   3.570   7.738
 2769POPC   NC337547  29.877   0.111   9.444
 2769POPC   PO437548  30.074   0.737   9.458
 2769POPC   GL137549  29.854   0.516   9.144
 2769POPC   GL237550  30.075   0.283   9.004
 2769POPC   C1A37551  29.622   0.328   8.789
 2769POPC   D2A37552  29.721   0.487   8.411
 2769POPC   C3A37553  29.684   0.322   8.054
 2769POPC   C4A37554  29.726   0.093   7.712
 2769POPC   C1B37555  30.106   0.627   8.714
 2769POPC   C2B37556  30.148   0.744   8.282
 2769POPC   C3B37557  30.229   0.602   7.876
 2769POPC   C4B37558  30.261   0.685   7.426
 2770POPC   NC337559  41.701  41.852   9.488
 2770POPC   PO437560  41.529  41.161   9.611
 2770POPC   GL137561  41.588  41.303   9.136
 2770POPC   GL237562  41.555  41.662   9.045
 2770POPC   C1A37563  41.408  41.343   8.680
 2770POPC   D2A37564  41.196  41.268   8.264
 2770POPC   C3A37565  41.470  41.367   7.906
 2770POPC   C4A37566  41.593  41.564   7.473
 2770POPC   C1B37567  41.617  41.976   8.698
 2770POPC   C2B37568  41.623  42.032   8.238
 2770POPC   C3B37569  41.462  41.871   7.867
 2770POPC   C4B37570  41.105  41.585   7.642
 2771POPC   NC337571   3.673  23.763   9.683
 2771POPC   PO437572   3.288  23.176   9.627
 2771POPC   GL137573   3.315  23.502   9.270
 2771POPC   GL237574   3.685  23.552   9.206
 2771POPC   C1A37575   3.383  23.780   8.871
 2771POPC   D2A37576   3.384  23.977   8.447
 2771POPC   C3A37577   3.580  23.943   8.042
 2771POPC   C4A37578   3.412  23.779   7.660
 2771POPC   C1B37579   3.776  23.431   8.759
 2771POPC   C2B37580   3.827  23.555   8.307
 2771POPC   C3B37581   3.844  23.546   7.839
 2771POPC   C4B37582   3.868  23.432   7.422
 2772POPC   NC337583  16.431  36.200   9.567
 2772POPC   PO437584  17.013  36.242   9.717
 2772POPC   GL137585  16.849  36.318   9.292
 2772POPC   GL237586  16.965  36.016   9.151
 2772POPC   C1A37587  16.865  36.424   8.839
 2772POPC   D2A37588  16.549  36.326   8.521
 2772POPC   C3A37589  16.618  36.286   8.077
 2772POPC   C4A37590  16.940  36.486   7.823
 2772POPC   C1B37591  17.009  35.960   8.683
 2772POPC   C2B37592  17.063  36.091   8.244
 2772POPC   C3B37593  16.977  35.955   7.833
 2772POPC   C4B37594  16.718  35.821   7.473
 2773POPC   NC337595   9.252  35.446   9.706
 2773POPC   PO437596   8.713  35.081   9.522
 2773POPC   GL137597   8.821  35.249   9.163
 2773POPC   GL237598   9.044  35.486   9.258
 2773POPC   C1A37599   8.636  35.282   8.772
 2773POPC   D2A37600   8.615  35.584   8.446
 2773POPC   C3A37601   8.788  35.398   8.065
 2773POPC   C4A37602   8.763  35.350   7.635
 2773POPC   C1B37603   9.063  35.562   8.844
 2773POPC   C2B37604   9.141  35.604   8.446
 2773POPC   C3B37605   9.123  35.777   8.085
 2773POPC   C4B37606   9.219  35.542   7.744
 2774POPC   NC337607  40.521  40.704   9.477
 2774POPC   PO437608  41.037  41.079   9.208
 2774POPC   GL137609  40.682  40.886   9.036
 2774POPC   GL237610  40.737  40.560   9.040
 2774POPC   C1A37611  40.528  40.833   8.644
 2774POPC   D2A37612  40.831  40.886   8.325
 2774POPC   C3A37613  40.677  40.814   7.929
 2774POPC   C4A37614  40.630  41.066   7.560
 2774POPC   C1B37615  40.974  40.457   8.664
 2774POPC   C2B37616  40.861  40.352   8.213
 2774POPC   C3B37617  41.026  40.454   7.789
 2774POPC   C4B37618  40.991  40.747   7.413
 2775POPC   NC337619  29.745  10.561   9.421
 2775POPC   PO437620  30.263  10.305   9.578
 2775POPC   GL137621  30.220  10.491   9.160
 2775POPC   GL237622  30.393  10.200   9.057
 2775POPC   C1A37623  29.944  10.667   8.803
 2775POPC   D2A37624  29.659  10.481   8.500
 2775POPC   C3A37625  29.769  10.621   8.061
 2775POPC   C4A37626  29.725  10.326   7.738
 2775POPC   C1B37627  30.140  10.219   8.702
 2775POPC   C2B37628  30.170  10.494   8.342
 2775POPC   C3B37629  30.230  10.420   7.875
 2775POPC   C4B37630  30.436  10.379   7.453
 2776POPC   NC337631  44.130  16.816   9.349
 2776POPC   PO437632  43.614  16.555   9.733
 2776POPC   GL137633  43.623  16.626   9.287
 2776POPC   GL237634  43.644  16.980   9.273
 2776POPC   C1A37635  43.730  16.587   8.843
 2776POPC   D2A37636  44.102  16.787   8.634
 2776POPC   C3A37637  44.072  16.808   8.177
 2776POPC   C4A37638  44.048  16.616   7.774
 2776POPC   C1B37639  43.629  17.094   8.849
 2776POPC   C2B37640  43.658  16.947   8.455
 2776POPC   C3B37641  43.624  17.027   8.044
 2776POPC   C4B37642  43.591  16.867   7.652
 2777POPC   NC337643  19.290  26.747   9.514
 2777POPC   PO437644  18.661  26.693   9.407
 2777POPC   GL137645  18.808  26.947   9.058
 2777POPC   GL237646  19.146  27.053   9.144
 2777POPC   C1A37647  18.884  26.839   8.611
 2777POPC   D2A37648  19.169  26.637   8.301
 2777POPC   C3A37649  18.992  26.710   7.913
 2777POPC   C4A37650  18.803  27.042   7.688
 2777POPC   C1B37651  19.167  27.232   8.783
 2777POPC   C2B37652  19.257  27.135   8.387
 2777POPC   C3B37653  19.137  27.195   8.028
 2777POPC   C4B37654  19.311  27.145   7.651
 2778POPC   NC337655  42.757   5.976   9.636
 2778POPC   PO437656  43.417   5.884   9.421
 2778POPC   GL137657  43.137   6.087   9.150
 2778POPC   GL237658  42.877   5.857   9.172
 2778POPC   C1A37659  43.273   6.140   8.719
 2778POPC   D2A37660  43.455   5.846   8.407
 2778POPC   C3A37661  43.434   5.936   8.000
 2778POPC   C4A37662  43.232   5.746   7.646
 2778POPC   C1B37663  42.826   5.622   8.821
 2778POPC   C2B37664  42.924   5.859   8.455
 2778POPC   C3B37665  42.910   5.892   8.028
 2778POPC   C4B37666  42.671   5.742   7.692
 2779POPC   NC337667  32.922  18.973   9.535
 2779POPC   PO437668  33.240  19.598   9.446
 2779POPC   GL137669  33.161  19.234   9.170
 2779POPC   GL237670  33.403  18.957   9.228
 2779POPC   C1A37671  32.978  18.868   8.867
 2779POPC   D2A37672  32.748  18.797   8.458
 2779POPC   C3A37673  32.924  18.823   8.018
 2779POPC   C4A37674  32.748  19.053   7.642
 2779POPC   C1B37675  33.422  19.063   8.783
 2779POPC   C2B37676  33.227  19.012   8.410
 2779POPC   C3B37677  33.398  19.118   8.043
 2779POPC   C4B37678  33.251  19.148   7.655
 2780POPC   NC337679  16.161  17.186   9.603
 2780POPC   PO437680  15.687  17.687   9.600
 2780POPC   GL137681  16.004  17.586   9.269
 2780POPC   GL237682  15.882  17.281   9.156
 2780POPC   C1A37683  16.145  17.546   8.809
 2780POPC   D2A37684  15.894  17.508   8.421
 2780POPC   C3A37685  16.062  17.649   8.030
 2780POPC   C4A37686  16.235  17.561   7.650
 2780POPC   C1B37687  15.900  17.089   8.739
 2780POPC   C2B37688  16.134  17.075   8.357
 2780POPC   C3B37689  16.086  17.133   7.933
 2780POPC   C4B37690  15.811  17.281   7.616
 2781POPC   NC337691  37.353   1.655   9.489
 2781POPC   PO437692  37.586   2.229   9.614
 2781POPC   GL137693  37.505   2.094   9.176
 2781POPC   GL237694  37.649   1.765   9.087
 2781POPC   C1A37695  37.611   2.207   8.722
 2781POPC   D2A37696  37.848   2.384   8.347
 2781POPC   C3A37697  37.708   2.174   7.954
 2781POPC   C4A37698  37.675   1.918   7.582
 2781POPC   C1B37699  37.970   1.867   8.790
 2781POPC   C2B37700  37.937   1.888   8.345
 2781POPC   C3B37701  37.975   1.717   7.930
 2781POPC   C4B37702  38.186   1.906   7.553
 2782POPC   NC337703  10.763  40.394   9.390
 2782POPC   PO437704  10.254  39.877   9.445
 2782POPC   GL137705  10.351  40.182   9.195
 2782POPC   GL237706  10.617  40.003   9.091
 2782POPC   C1A37707  10.345  40.293   8.753
 2782POPC   D2A37708  10.421  40.087   8.382
 2782POPC   C3A37709  10.312  40.266   8.014
 2782POPC   C4A37710  10.157  40.183   7.616
 2782POPC   C1B37711  10.799  40.022   8.739
 2782POPC   C2B37712  10.830  39.786   8.351
 2782POPC   C3B37713  10.805  40.094   8.034
 2782POPC   C4B37714  10.729  40.403   7.734
 2783POPC   NC337715  16.431   2.833   9.575
 2783POPC   PO437716  16.085   3.506   9.582
 2783POPC   GL137717  16.177   3.574   9.128
 2783POPC   GL237718  16.381   3.833   9.019
 2783POPC   C1A37719  16.138   3.452   8.681
 2783POPC   D2A37720  15.858   3.319   8.320
 2783POPC   C3A37721  15.923   3.465   7.876
 2783POPC   C4A37722  15.831   3.469   7.412
 2783POPC   C1B37723  16.026   3.938   8.739
 2783POPC   C2B37724  16.040   3.803   8.287
 2783POPC   C3B37725  16.009   3.977   7.878
 2783POPC   C4B37726  15.959   3.958   7.421
 2784POPC   NC337727  35.034   4.944   9.773
 2784POPC   PO437728  34.455   5.118   9.380
 2784POPC   GL137729  34.622   4.834   9.075
 2784POPC   GL237730  34.340   4.757   8.873
 2784POPC   C1A37731  34.784   4.843   8.645
 2784POPC   D2A37732  34.540   4.997   8.246
 2784POPC   C3A37733  34.719   5.078   7.817
 2784POPC   C4A37734  34.861   5.212   7.361
 2784POPC   C1B37735  34.460   5.217   8.730
 2784POPC   C2B37736  34.246   5.459   8.437
 2784POPC   C3B37737  34.315   5.438   8.003
 2784POPC   C4B37738  34.413   5.387   7.573
 2785POPC   NC337739  18.306   1.190   9.541
 2785POPC   PO437740  17.753   1.465   9.345
 2785POPC   GL137741  18.122   1.301   9.055
 2785POPC   GL237742  18.492   1.122   9.078
 2785POPC   C1A37743  18.365   1.383   8.660
 2785POPC   D2A37744  18.588   1.092   8.414
 2785POPC   C3A37745  18.560   1.155   8.008
 2785POPC   C4A37746  18.421   1.444   7.692
 2785POPC   C1B37747  18.255   0.870   8.774
 2785POPC   C2B37748  18.276   0.661   8.377
 2785POPC   C3B37749  18.131   0.858   7.999
 2785POPC   C4B37750  18.214   0.986   7.588
 2786POPC   NC337751  37.796  36.603   9.945
 2786POPC   PO437752  37.846  36.059   9.560
 2786POPC   GL137753  37.966  36.194   9.187
 2786POPC   GL237754  38.007  35.907   8.987
 2786POPC   C1A37755  38.014  36.408   8.830
 2786POPC   D2A37756  37.828  36.525   8.453
 2786POPC   C3A37757  37.922  36.282   8.093
 2786POPC   C4A37758  37.927  36.447   7.700
 2786POPC   C1B37759  37.652  36.076   8.692
 2786POPC   C2B37760  37.434  36.234   8.275
 2786POPC   C3B37761  37.476  36.213   7.804
 2786POPC   C4B37762  37.409  35.847   7.528
 2787POPC   NC337763  32.628  14.446   9.409
 2787POPC   PO437764  33.245  14.626   9.666
 2787POPC   GL137765  33.125  14.305   9.290
 2787POPC   GL237766  33.060  14.540   9.054
 2787POPC   C1A37767  33.295  14.174   8.811
 2787POPC   D2A37768  33.044  14.209   8.408
 2787POPC   C3A37769  33.229  14.247   8.010
 2787POPC   C4A37770  33.178  14.593   7.732
 2787POPC   C1B37771  32.808  14.584   8.700
 2787POPC   C2B37772  32.843  14.839   8.323
 2787POPC   C3B37773  32.701  14.736   7.924
 2787POPC   C4B37774  32.717  14.661   7.479
 2788POPC   NC337775  44.314  13.262   9.469
 2788POPC   PO437776  44.803  13.799   9.553
 2788POPC   GL137777  44.783  13.537   9.188
 2788POPC   GL237778   0.054  13.278   9.176
 2788POPC   C1A37779  44.580  13.560   8.753
 2788POPC   D2A37780  44.482  13.795   8.382
 2788POPC   C3A37781  44.589  13.631   7.971
 2788POPC   C4A37782  44.419  13.681   7.539
 2788POPC   C1B37783   0.090  13.535   8.777
 2788POPC   C2B37784  44.940  13.469   8.369
 2788POPC   C3B37785   0.123  13.421   7.972
 2788POPC   C4B37786  44.939  13.569   7.602
 2789POPC   NC337787  38.557  23.357   9.468
 2789POPC   PO437788  38.233  22.700   9.505
 2789POPC   GL137789  38.550  22.611   9.190
 2789POPC   GL237790  38.645  22.977   9.146
 2789POPC   C1A37791  38.655  22.692   8.738
 2789POPC   D2A37792  38.440  22.933   8.455
 2789POPC   C3A37793  38.501  22.689   8.094
 2789POPC   C4A37794  38.652  22.823   7.707
 2789POPC   C1B37795  38.584  23.304   8.814
 2789POPC   C2B37796  38.739  23.400   8.401
 2789POPC   C3B37797  38.581  23.217   8.043
 2789POPC   C4B37798  38.456  23.307   7.659
 2790POPC   NC337799  37.420  23.764   9.538
 2790POPC   PO437800  38.078  23.483   9.422
 2790POPC   GL137801  37.743  23.645   9.134
 2790POPC   GL237802  37.442  23.427   9.132
 2790POPC   C1A37803  37.716  23.862   8.715
 2790POPC   D2A37804  37.972  23.942   8.331
 2790POPC   C3A37805  37.751  23.890   7.922
 2790POPC   C4A37806  37.736  24.005   7.475
 2790POPC   C1B37807  37.415  23.433   8.680
 2790POPC   C2B37808  37.691  23.477   8.299
 2790POPC   C3B37809  37.684  23.370   7.852
 2790POPC   C4B37810  37.428  23.281   7.488
 2791POPC   NC337811  19.726  12.271   9.519
 2791POPC   PO437812  20.386  11.923   9.454
 2791POPC   GL137813  20.175  12.079   9.125
 2791POPC   GL237814  19.867  11.895   9.186
 2791POPC   C1A37815  20.075  11.864   8.736
 2791POPC   D2A37816  19.832  11.806   8.372
 2791POPC   C3A37817  20.059  11.896   7.994
 2791POPC   C4A37818  19.777  11.838   7.681
 2791POPC   C1B37819  19.766  12.241   8.859
 2791POPC   C2B37820  19.591  12.352   8.449
 2791POPC   C3B37821  19.697  12.246   8.057
 2791POPC   C4B37822  19.722  12.346   7.681
 2792POPC   NC337823  29.361  27.557   9.578
 2792POPC   PO437824  29.957  27.702   9.544
 2792POPC   GL137825  29.969  27.449   9.178
 2792POPC   GL237826  30.208  27.195   9.138
 2792POPC   C1A37827  29.908  27.404   8.737
 2792POPC   D2A37828  29.966  27.661   8.373
 2792POPC   C3A37829  29.620  27.771   8.127
 2792POPC   C4A37830  29.770  27.746   7.744
 2792POPC   C1B37831  30.180  26.953   8.760
 2792POPC   C2B37832  29.935  27.034   8.371
 2792POPC   C3B37833  29.920  27.307   7.967
 2792POPC   C4B37834  30.125  27.409   7.520
 2793POPC   NC337835  11.851  21.329   9.466
 2793POPC   PO437836  12.461  21.246   9.267
 2793POPC   GL137837  12.165  21.461   9.090
 2793POPC   GL237838  12.109  21.753   9.259
 2793POPC   C1A37839  11.923  21.324   8.765
 2793POPC   D2A37840  12.078  21.084   8.399
 2793POPC   C3A37841  12.032  21.165   7.945
 2793POPC   C4A37842  12.252  21.098   7.535
 2793POPC   C1B37843  11.933  21.868   8.853
 2793POPC   C2B37844  11.911  21.713   8.438
 2793POPC   C3B37845  11.853  21.623   8.005
 2793POPC   C4B37846  12.015  21.565   7.571
 2794POPC   NC337847  38.921  37.527   9.444
 2794POPC   PO437848  39.431  37.979   9.653
 2794POPC   GL137849  39.502  37.771   9.256
 2794POPC   GL237850  39.423  37.446   9.283
 2794POPC   C1A37851  39.577  37.789   8.816
 2794POPC   D2A37852  39.307  37.731   8.448
 2794POPC   C3A37853  39.435  37.789   8.039
 2794POPC   C4A37854  39.633  38.171   7.868
 2794POPC   C1B37855  39.205  37.421   8.856
 2794POPC   C2B37856  39.099  37.257   8.409
 2794POPC   C3B37857  38.965  37.329   7.981
 2794POPC   C4B37858  39.069  37.653   7.697
 2795POPC   NC337859  31.332  35.709   9.486
 2795POPC   PO437860  31.418  36.379   9.371
 2795POPC   GL137861  31.557  36.330   8.997
 2795POPC   GL237862  31.487  35.962   9.007
 2795POPC   C1A37863  31.467  36.364   8.551
 2795POPC   D2A37864  31.442  36.069   8.257
 2795POPC   C3A37865  31.402  36.280   7.901
 2795POPC   C4A37866  31.750  36.544   7.731
 2795POPC   C1B37867  31.432  35.682   8.662
 2795POPC   C2B37868  31.329  35.584   8.258
 2795POPC   C3B37869  31.175  35.787   7.912
 2795POPC   C4B37870  31.400  35.876   7.586
 2796POPC   NC337871   5.329  25.482   9.496
 2796POPC   PO437872   4.697  25.383   9.481
 2796POPC   GL137873   5.026  25.273   9.127
 2796POPC   GL237874   5.282  25.533   8.991
 2796POPC   C1A37875   5.237  25.138   8.713
 2796POPC   D2A37876   5.321  25.473   8.443
 2796POPC   C3A37877   5.234  25.367   8.052
 2796POPC   C4A37878   5.040  25.170   7.735
 2796POPC   C1B37879   4.907  25.545   8.743
 2796POPC   C2B37880   4.797  25.663   8.340
 2796POPC   C3B37881   5.053  25.884   8.054
 2796POPC   C4B37882   5.097  25.671   7.655
 2797POPC   NC337883  41.788   4.181  10.058
 2797POPC   PO437884  41.450   4.433   9.553
 2797POPC   GL137885  41.633   4.174   9.196
 2797POPC   GL237886  41.911   3.983   9.356
 2797POPC   C1A37887  41.668   4.291   8.717
 2797POPC   D2A37888  41.536   4.470   8.299
 2797POPC   C3A37889  41.607   4.316   7.862
 2797POPC   C4A37890  41.295   4.299   7.523
 2797POPC   C1B37891  42.003   3.970   8.901
 2797POPC   C2B37892  42.089   4.033   8.406
 2797POPC   C3B37893  41.954   3.934   7.928
 2797POPC   C4B37894  41.654   3.900   7.532
 2798POPC   NC337895  40.808  35.568   9.829
 2798POPC   PO437896  40.794  34.945   9.447
 2798POPC   GL137897  40.842  35.184   9.094
 2798POPC   GL237898  40.622  35.470   8.996
 2798POPC   C1A37899  41.017  35.229   8.731
 2798POPC   D2A37900  41.017  35.052   8.342
 2798POPC   C3A37901  41.056  35.433   8.061
 2798POPC   C4A37902  40.933  35.545   7.629
 2798POPC   C1B37903  40.491  35.224   8.675
 2798POPC   C2B37904  40.600  35.301   8.284
 2798POPC   C3B37905  40.684  35.144   7.871
 2798POPC   C4B37906  40.373  35.022   7.604
 2799POPC   NC337907  12.204  37.520   9.553
 2799POPC   PO437908  11.716  37.933   9.390
 2799POPC   GL137909  11.906  37.885   9.020
 2799POPC   GL237910  12.185  37.672   9.063
 2799POPC   C1A37911  11.854  37.587   8.677
 2799POPC   D2A37912  12.065  37.445   8.330
 2799POPC   C3A37913  11.809  37.535   7.975
 2799POPC   C4A37914  11.903  37.699   7.549
 2799POPC   C1B37915  12.442  37.785   8.707
 2799POPC   C2B37916  12.443  37.785   8.266
 2799POPC   C3B37917  12.263  37.817   7.891
 2799POPC   C4B37918  12.522  38.072   7.658
 2800POPC   NC337919   1.384   0.690   9.601
 2800POPC   PO437920   1.555   0.051   9.400
 2800POPC   GL137921   1.479   0.338   9.089
 2800POPC   GL237922   1.127   0.460   9.142
 2800POPC   C1A37923   1.431   0.343   8.627
 2800POPC   D2A37924   1.173   0.568   8.310
 2800POPC   C3A37925   1.231   0.505   7.878
 2800POPC   C4A37926   1.513   0.572   7.551
 2800POPC   C1B37927   0.896   0.387   8.720
 2800POPC   C2B37928   0.662   0.364   8.303
 2800POPC   C3B37929   0.739   0.497   7.847
 2800POPC   C4B37930   0.975   0.702   7.485
 2801POPC   NC337931   2.662  14.088   9.356
 2801POPC   PO437932   2.499  13.437   9.547
 2801POPC   GL137933   2.417  13.665   9.177
 2801POPC   GL237934   2.759  13.655   9.054
 2801POPC   C1A37935   2.402  13.868   8.765
 2801POPC   D2A37936   2.716  13.709   8.471
 2801POPC   C3A37937   2.620  13.783   8.029
 2801POPC   C4A37938   2.630  13.470   7.688
 2801POPC   C1B37939   2.941  13.327   8.791
 2801POPC   C2B37940   3.057  13.197   8.386
 2801POPC   C3B37941   3.085  13.333   7.971
 2801POPC   C4B37942   3.105  13.065   7.619
 2802POPC   NC337943  43.624   0.098   9.273
 2802POPC   PO437944  43.863   0.637   9.667
 2802POPC   GL137945  44.105   0.532   9.255
 2802POPC   GL237946  43.868   0.490   9.099
 2802POPC   C1A37947  44.273   0.384   8.842
 2802POPC   D2A37948  44.180   0.172   8.476
 2802POPC   C3A37949  44.026   0.350   8.096
 2802POPC   C4A37950  44.058   0.126   7.685
 2802POPC   C1B37951  43.758   0.350   8.684
 2802POPC   C2B37952  43.669   0.076   8.368
 2802POPC   C3B37953  43.504   0.336   8.056
 2802POPC   C4B37954  43.697   0.506   7.714
 2803POPC   NC337955  11.481  39.775   9.709
 2803POPC   PO437956  10.893  39.979   9.509
 2803POPC   GL137957  11.130  39.827   9.166
 2803POPC   GL237958  11.477  39.932   9.228
 2803POPC   C1A37959  11.223  39.758   8.707
 2803POPC   D2A37960  11.181  40.176   8.435
 2803POPC   C3A37961  11.331  40.195   8.046
 2803POPC   C4A37962  11.193  39.911   7.783
 2803POPC   C1B37963  11.502  40.149   8.840
 2803POPC   C2B37964  11.643  39.942   8.380
 2803POPC   C3B37965  11.706  39.892   7.889
 2803POPC   C4B37966  11.544  40.151   7.514
 2804POPC   NC337967   3.563  34.903   9.609
 2804POPC   PO437968   3.206  35.478   9.568
 2804POPC   GL137969   3.412  35.356   9.176
 2804POPC   GL237970   3.690  35.130   9.145
 2804POPC   C1A37971   3.426  35.337   8.719
 2804POPC   D2A37972   3.461  35.143   8.328
 2804POPC   C3A37973   3.291  35.291   7.951
 2804POPC   C4A37974   3.368  35.524   7.568
 2804POPC   C1B37975   3.930  35.337   8.815
 2804POPC   C2B37976   3.999  35.208   8.398
 2804POPC   C3B37977   3.825  35.264   7.993
 2804POPC   C4B37978   4.010  35.320   7.602
 2805POPC   NC337979  42.729  11.530   9.456
 2805POPC   PO437980  42.450  10.853   9.441
 2805POPC   GL137981  42.332  11.272   9.184
 2805POPC   GL237982  41.950  11.355   9.143
 2805POPC   C1A37983  42.415  11.436   8.741
 2805POPC   D2A37984  42.637  11.340   8.328
 2805POPC   C3A37985  42.587  11.578   7.953
 2805POPC   C4A37986  42.446  11.389   7.548
 2805POPC   C1B37987  41.928  11.212   8.687
 2805POPC   C2B37988  42.127  11.248   8.321
 2805POPC   C3B37989  42.270  11.126   7.950
 2805POPC   C4B37990  41.972  11.205   7.624
 2806POPC   NC337991   9.860  43.007   9.886
 2806POPC   PO437992   9.260  43.298   9.567
 2806POPC   GL137993   9.511  43.325   9.183
 2806POPC   GL237994   9.776  43.088   9.201
 2806POPC   C1A37995   9.741  43.328   8.747
 2806POPC   D2A37996   9.679  43.116   8.350
 2806POPC   C3A37997   9.780  43.300   7.948
 2806POPC   C4A37998   9.558  43.521   7.621
 2806POPC   C1B37999   9.668  42.839   8.815
 2806POPC   C2B38000   9.939  42.704   8.480
 2806POPC   C3B38001  10.013  42.820   8.063
 2806POPC   C4B38002   9.832  42.835   7.671
 2807POPC   NC338003  41.389  14.638   9.679
 2807POPC   PO438004  41.866  14.177   9.457
 2807POPC   GL138005  41.634  14.504   9.213
 2807POPC   GL238006  41.845  14.344   8.972
 2807POPC   C1A38007  41.430  14.604   8.807
 2807POPC   D2A38008  41.448  14.780   8.379
 2807POPC   C3A38009  41.514  14.458   8.078
 2807POPC   C4A38010  41.314  14.222   7.716
 2807POPC   C1B38011  41.824  14.409   8.541
 2807POPC   C2B38012  41.992  14.182   8.240
 2807POPC   C3B38013  41.836  14.128   7.869
 2807POPC   C4B38014  41.754  14.337   7.498
 2808POPC   NC338015  40.448  43.948   9.310
 2808POPC   PO438016  41.094  43.729   9.473
 2808POPC   GL138017  40.953  43.821   9.110
 2808POPC   GL238018  41.200  44.085   9.094
 2808POPC   C1A38019  40.743  43.678   8.749
 2808POPC   D2A38020  40.569  43.495   8.421
 2808POPC   C3A38021  40.613  43.713   8.061
 2808POPC   C4A38022  40.767  43.589   7.696
 2808POPC   C1B38023  41.207  43.944   8.679
 2808POPC   C2B38024  41.044  44.064   8.312
 2808POPC   C3B38025  41.033  43.975   7.904
 2808POPC   C4B38026  40.885  44.155   7.556
 2809POPC   NC338027  27.253  30.750   9.401
 2809POPC   PO438028  27.879  31.115   9.528
 2809POPC   GL138029  27.725  30.823   9.216
 2809POPC   GL238030  27.971  30.842   9.026
 2809POPC   C1A38031  27.548  30.765   8.777
 2809POPC   D2A38032  27.399  30.450   8.488
 2809POPC   C3A38033  27.374  30.614   8.103
 2809POPC   C4A38034  27.311  30.429   7.734
 2809POPC   C1B38035  28.089  30.727   8.636
 2809POPC   C2B38036  27.876  30.614   8.289
 2809POPC   C3B38037  27.838  30.652   7.877
 2809POPC   C4B38038  27.590  30.899   7.644
 2810POPC   NC338039   6.699  43.564   9.540
 2810POPC   PO438040   6.074  43.766   9.495
 2810POPC   GL138041   6.370  43.921   9.194
 2810POPC   GL238042   6.740  43.954   9.156
 2810POPC   C1A38043   6.416  43.876   8.757
 2810POPC   D2A38044   6.407  43.553   8.401
 2810POPC   C3A38045   6.552  43.785   8.045
 2810POPC   C4A38046   6.842  43.839   7.686
 2810POPC   C1B38047   6.976  44.092   8.789
 2810POPC   C2B38048   6.977  43.984   8.324
 2810POPC   C3B38049   7.146  44.169   7.938
 2810POPC   C4B38050   7.009  44.292   7.503
 2811POPC   NC338051  33.117  13.501   9.551
 2811POPC   PO438052  32.621  13.988   9.417
 2811POPC   GL138053  32.826  13.641   9.178
 2811POPC   GL238054  33.163  13.802   9.132
 2811POPC   C1A38055  32.983  13.470   8.789
 2811POPC   D2A38056  32.919  13.702   8.373
 2811POPC   C3A38057  33.139  13.561   8.017
 2811POPC   C4A38058  33.185  13.526   7.599
 2811POPC   C1B38059  32.824  13.977   8.808
 2811POPC   C2B38060  32.506  14.017   8.479
 2811POPC   C3B38061  32.572  14.157   8.045
 2811POPC   C4B38062  32.881  13.937   7.788
 2812POPC   NC338063  32.574   2.058   9.468
 2812POPC   PO438064  32.085   1.719   9.675
 2812POPC   GL138065  32.133   1.798   9.224
 2812POPC   GL238066  32.063   2.098   9.023
 2812POPC   C1A38067  32.375   1.771   8.825
 2812POPC   D2A38068  32.415   2.136   8.559
 2812POPC   C3A38069  32.396   2.052   8.140
 2812POPC   C4A38070  32.546   2.104   7.746
 2812POPC   C1B38071  31.890   2.229   8.627
 2812POPC   C2B38072  31.870   2.006   8.214
 2812POPC   C3B38073  32.012   2.184   7.787
 2812POPC   C4B38074  31.865   2.173   7.350
 2813POPC   NC338075  33.238  17.934   9.471
 2813POPC   PO438076  33.196  18.583   9.525
 2813POPC   GL138077  33.277  18.346   9.146
 2813POPC   GL238078  33.606  18.123   9.156
 2813POPC   C1A38079  32.999  18.323   8.759
 2813POPC   D2A38080  32.751  18.311   8.381
 2813POPC   C3A38081  32.940  18.303   7.978
 2813POPC   C4A38082  32.890  18.463   7.558
 2813POPC   C1B38083  33.459  18.097   8.744
 2813POPC   C2B38084  33.274  18.120   8.343
 2813POPC   C3B38085  33.411  18.091   7.912
 2813POPC   C4B38086  33.384  18.174   7.464
 2814POPC   NC338087   1.363  21.123   9.488
 2814POPC   PO438088   1.063  21.738   9.530
 2814POPC   GL138089   1.059  21.443   9.190
 2814POPC   GL238090   1.416  21.534   9.178
 2814POPC   C1A38091   1.216  21.285   8.782
 2814POPC   D2A38092   1.480  21.230   8.429
 2814POPC   C3A38093   1.354  21.339   8.001
 2814POPC   C4A38094   1.045  21.540   7.750
 2814POPC   C1B38095   1.602  21.618   8.792
 2814POPC   C2B38096   1.505  21.749   8.394
 2814POPC   C3B38097   1.658  21.738   8.005
 2814POPC   C4B38098   1.483  21.807   7.653
 2815POPC   NC338099  35.384  33.570   9.721
 2815POPC   PO438100  34.858  33.776   9.581
 2815POPC   GL138101  35.090  33.622   9.215
 2815POPC   GL238102  35.469  33.569   9.212
 2815POPC   C1A38103  35.061  33.703   8.770
 2815POPC   D2A38104  35.299  33.789   8.393
 2815POPC   C3A38105  35.086  33.935   8.009
 2815POPC   C4A38106  34.952  33.699   7.675
 2815POPC   C1B38107  35.615  33.613   8.779
 2815POPC   C2B38108  35.640  33.411   8.351
 2815POPC   C3B38109  35.465  33.538   7.973
 2815POPC   C4B38110  35.519  33.909   7.721
 2816POPC   NC338111   7.186   8.107   9.681
 2816POPC   PO438112   7.665   8.456   9.497
 2816POPC   GL138113   7.531   8.224   9.139
 2816POPC   GL238114   7.204   8.254   9.192
 2816POPC   C1A38115   7.549   8.019   8.707
 2816POPC   D2A38116   7.336   8.301   8.391
 2816POPC   C3A38117   7.513   8.303   7.958
 2816POPC   C4A38118   7.844   7.989   7.800
 2816POPC   C1B38119   7.065   8.101   8.833
 2816POPC   C2B38120   6.833   8.109   8.484
 2816POPC   C3B38121   7.011   8.070   8.066
 2816POPC   C4B38122   7.065   8.378   7.722
 2817POPC   NC338123  41.355  42.517   9.578
 2817POPC   PO438124  41.259  41.965   9.345
 2817POPC   GL138125  41.508  42.233   9.138
 2817POPC   GL238126  41.641  42.580   9.179
 2817POPC   C1A38127  41.352  42.446   8.764
 2817POPC   D2A38128  41.208  42.317   8.354
 2817POPC   C3A38129  41.439  42.502   8.005
 2817POPC   C4A38130  41.390  42.467   7.552
 2817POPC   C1B38131  41.867  42.431   8.849
 2817POPC   C2B38132  41.793  42.461   8.449
 2817POPC   C3B38133  41.949  42.389   8.058
 2817POPC   C4B38134  41.857  42.558   7.669
 2818POPC   NC338135  24.415  35.170   9.631
 2818POPC   PO438136  24.700  35.726   9.683
 2818POPC   GL138137  24.771  35.584   9.218
 2818POPC   GL238138  24.644  35.272   9.144
 2818POPC   C1A38139  24.665  35.585   8.756
 2818POPC   D2A38140  24.676  35.436   8.329
 2818POPC   C3A38141  24.352  35.602   8.045
 2818POPC   C4A38142  24.584  35.613   7.673
 2818POPC   C1B38143  24.484  35.098   8.738
 2818POPC   C2B38144  24.270  35.123   8.319
 2818POPC   C3B38145  24.455  35.134   7.895
 2818POPC   C4B38146  24.265  35.256   7.493
 2819POPC   NC338147  24.929  40.304   9.468
 2819POPC   PO438148  25.465  40.653   9.712
 2819POPC   GL138149  25.186  40.724   9.286
 2819POPC   GL238150  24.813  40.682   9.122
 2819POPC   C1A38151  25.221  40.790   8.815
 2819POPC   D2A38152  25.264  40.548   8.413
 2819POPC   C3A38153  25.286  40.700   7.964
 2819POPC   C4A38154  25.232  40.934   7.564
 2819POPC   C1B38155  24.751  40.654   8.643
 2819POPC   C2B38156  24.808  40.661   8.180
 2819POPC   C3B38157  24.819  40.683   7.713
 2819POPC   C4B38158  24.892  40.733   7.229
 2820POPC   NC338159   9.103   1.536   9.588
 2820POPC   PO438160   8.941   2.153   9.377
 2820POPC   GL138161   8.801   2.049   9.002
 2820POPC   GL238162   9.046   1.880   8.838
 2820POPC   C1A38163   8.728   2.198   8.591
 2820POPC   D2A38164   8.887   1.900   8.325
 2820POPC   C3A38165   8.715   1.919   7.943
 2820POPC   C4A38166   8.834   2.329   7.918
 2820POPC   C1B38167   9.239   2.269   8.698
 2820POPC   C2B38168   9.269   2.365   8.254
 2820POPC   C3B38169   9.323   2.120   7.901
 2820POPC   C4B38170   9.173   1.718   7.821
 2821POPC   NC338171  44.765  43.946   9.611
 2821POPC   PO438172  44.393  43.400   9.456
 2821POPC   GL138173  44.604  43.681   9.195
 2821POPC   GL238174  44.986  43.662   9.124
 2821POPC   C1A38175  44.605  44.020   8.924
 2821POPC   D2A38176  44.909  44.067   8.567
 2821POPC   C3A38177  44.762  43.907   8.141
 2821POPC   C4A38178  44.939  44.076   7.728
 2821POPC   C1B38179  44.789  43.586   8.728
 2821POPC   C2B38180  44.407  43.745   8.533
 2821POPC   C3B38181  44.248  43.824   8.125
 2821POPC   C4B38182  44.455  43.901   7.720
 2822POPC   NC338183  12.279   7.404   9.791
 2822POPC   PO438184  11.916   7.849   9.555
 2822POPC   GL138185  12.142   7.574   9.283
 2822POPC   GL238186  12.214   7.221   9.179
 2822POPC   C1A38187  12.195   7.632   8.849
 2822POPC   D2A38188  12.305   7.572   8.434
 2822POPC   C3A38189  11.998   7.647   8.146
 2822POPC   C4A38190  12.121   7.657   7.736
 2822POPC   C1B38191  12.332   7.143   8.730
 2822POPC   C2B38192  12.168   7.112   8.281
 2822POPC   C3B38193  12.028   7.163   7.814
 2822POPC   C4B38194  12.027   6.964   7.352
 2823POPC   NC338195  42.006  28.705   9.614
 2823POPC   PO438196  42.664  28.660   9.474
 2823POPC   GL138197  42.397  28.445   9.169
 2823POPC   GL238198  42.361  28.072   9.222
 2823POPC   C1A38199  42.493  28.369   8.740
 2823POPC   D2A38200  42.389  28.552   8.357
 2823POPC   C3A38201  42.639  28.403   7.989
 2823POPC   C4A38202  42.553  28.489   7.554
 2823POPC   C1B38203  42.101  28.070   8.844
 2823POPC   C2B38204  42.247  28.045   8.415
 2823POPC   C3B38205  42.156  28.232   8.017
 2823POPC   C4B38206  41.950  28.019   7.702
 2824POPC   NC338207  18.618  37.390   9.225
 2824POPC   PO438208  18.268  37.099   9.664
 2824POPC   GL138209  18.242  37.072   9.172
 2824POPC   GL238210  18.414  36.784   9.125
 2824POPC   C1A38211  18.388  37.077   8.690
 2824POPC   D2A38212  18.507  37.030   8.223
 2824POPC   C3A38213  18.241  36.990   7.821
 2824POPC   C4A38214  18.326  36.952   7.367
 2824POPC   C1B38215  18.429  36.555   8.739
 2824POPC   C2B38216  18.569  36.466   8.353
 2824POPC   C3B38217  18.522  36.578   7.957
 2824POPC   C4B38218  18.270  36.487   7.615
 2825POPC   NC338219  22.553  11.110   9.634
 2825POPC   PO438220  22.873  11.581   9.462
 2825POPC   GL138221  22.757  11.539   9.072
 2825POPC   GL238222  22.748  11.182   9.154
 2825POPC   C1A38223  22.784  11.596   8.598
 2825POPC   D2A38224  23.196  11.532   8.377
 2825POPC   C3A38225  23.096  11.424   7.959
 2825POPC   C4A38226  22.778  11.579   7.680
 2825POPC   C1B38227  23.017  11.173   8.819
 2825POPC   C2B38228  22.868  11.120   8.426
 2825POPC   C3B38229  22.865  10.951   8.068
 2825POPC   C4B38230  22.842  11.060   7.667
 2826POPC   NC338231   3.578  27.771   9.777
 2826POPC   PO438232   4.198  27.727   9.405
 2826POPC   GL138233   4.534  27.662   9.129
 2826POPC   GL238234   4.758  27.937   9.107
 2826POPC   C1A38235   4.441  27.461   8.741
 2826POPC   D2A38236   4.169  27.444   8.385
 2826POPC   C3A38237   4.290  27.642   7.974
 2826POPC   C4A38238   4.307  27.483   7.568
 2826POPC   C1B38239   4.568  27.952   8.702
 2826POPC   C2B38240   4.633  27.741   8.348
 2826POPC   C3B38241   4.745  27.939   8.016
 2826POPC   C4B38242   4.656  27.868   7.596
 2827POPC   NC338243   6.061  35.630   9.373
 2827POPC   PO438244   5.538  35.341   9.683
 2827POPC   GL138245   5.718  35.253   9.244
 2827POPC   GL238246   5.728  35.546   9.017
 2827POPC   C1A38247   5.925  35.117   8.819
 2827POPC   D2A38248   6.109  35.154   8.384
 2827POPC   C3A38249   6.000  34.976   7.940
 2827POPC   C4A38250   6.083  35.102   7.462
 2827POPC   C1B38251   5.640  35.548   8.619
 2827POPC   C2B38252   5.480  35.595   8.236
 2827POPC   C3B38253   5.640  35.366   7.925
 2827POPC   C4B38254   5.662  35.384   7.500
 2828POPC   NC338255  42.037  39.772   9.641
 2828POPC   PO438256  42.302  39.136   9.777
 2828POPC   GL138257  42.423  39.143   9.309
 2828POPC   GL238258  42.431  38.803   9.135
 2828POPC   C1A38259  42.241  39.174   8.865
 2828POPC   D2A38260  42.084  39.450   8.578
 2828POPC   C3A38261  42.149  39.321   8.171
 2828POPC   C4A38262  42.132  39.188   7.701
 2828POPC   C1B38263  42.571  38.808   8.729
 2828POPC   C2B38264  42.545  39.096   8.402
 2828POPC   C3B38265  42.426  38.921   8.010
 2828POPC   C4B38266  42.560  38.694   7.651
 2829POPC   NC338267  43.191  29.641   9.545
 2829POPC   PO438268  43.222  30.341   9.639
 2829POPC   GL138269  43.314  30.082   9.252
 2829POPC   GL238270  43.030  29.883   9.106
 2829POPC   C1A38271  43.399  30.043   8.801
 2829POPC   D2A38272  43.125  29.871   8.449
 2829POPC   C3A38273  43.136  30.112   8.088
 2829POPC   C4A38274  43.152  30.114   7.629
 2829POPC   C1B38275  43.222  29.563   8.839
 2829POPC   C2B38276  43.363  29.409   8.407
 2829POPC   C3B38277  43.228  29.591   7.981
 2829POPC   C4B38278  42.838  29.764   7.864
 2830POPC   NC338279   7.175  13.417   9.482
 2830POPC   PO438280   7.349  14.045   9.265
 2830POPC   GL138281   7.266  13.762   8.933
 2830POPC   GL238282   7.309  13.406   9.008
 2830POPC   C1A38283   7.564  13.597   8.609
 2830POPC   D2A38284   7.695  13.607   8.171
 2830POPC   C3A38285   7.358  13.856   7.974
 2830POPC   C4A38286   7.256  14.073   7.582
 2830POPC   C1B38287   7.092  13.364   8.626
 2830POPC   C2B38288   7.305  13.289   8.273
 2830POPC   C3B38289   7.345  13.354   7.866
 2830POPC   C4B38290   7.097  13.581   7.612
 2831POPC   NC338291   3.577  32.523   9.376
 2831POPC   PO438292   3.604  31.914   9.700
 2831POPC   GL138293   3.437  31.991   9.264
 2831POPC   GL238294   3.224  32.245   9.148
 2831POPC   C1A38295   3.347  31.878   8.811
 2831POPC   D2A38296   3.165  31.999   8.419
 2831POPC   C3A38297   3.469  32.047   8.106
 2831POPC   C4A38298   3.670  32.049   7.712
 2831POPC   C1B38299   3.397  32.381   8.725
 2831POPC   C2B38300   3.575  32.502   8.313
 2831POPC   C3B38301   3.387  32.540   7.898
 2831POPC   C4B38302   3.476  32.458   7.431
 2832POPC   NC338303  41.914  31.386   9.376
 2832POPC   PO438304  41.320  31.584   9.447
 2832POPC   GL138305  41.531  31.528   9.068
 2832POPC   GL238306  41.818  31.789   9.101
 2832POPC   C1A38307  41.646  31.246   8.716
 2832POPC   D2A38308  41.893  31.297   8.309
 2832POPC   C3A38309  41.630  31.286   7.911
 2832POPC   C4A38310  41.538  31.653   7.638
 2832POPC   C1B38311  41.930  31.660   8.716
 2832POPC   C2B38312  41.869  31.885   8.372
 2832POPC   C3B38313  41.903  31.723   7.996
 2832POPC   C4B38314  41.951  31.953   7.612
 2833POPC   NC338315  21.424  39.870  10.003
 2833POPC   PO438316  21.268  40.218   9.452
 2833POPC   GL138317  21.222  40.159   9.050
 2833POPC   GL238318  21.535  39.958   9.029
 2833POPC   C1A38319  21.244  40.139   8.627
 2833POPC   D2A38320  21.223  39.848   8.315
 2833POPC   C3A38321  21.007  39.986   7.972
 2833POPC   C4A38322  21.017  40.426   7.839
 2833POPC   C1B38323  21.618  39.606   8.730
 2833POPC   C2B38324  21.552  39.456   8.304
 2833POPC   C3B38325  21.452  39.648   7.889
 2833POPC   C4B38326  21.550  39.588   7.455
 2834POPC   NC338327  37.002  11.089   9.377
 2834POPC   PO438328  36.736  11.730   9.415
 2834POPC   GL138329  36.981  11.510   9.069
 2834POPC   GL238330  37.174  11.213   8.920
 2834POPC   C1A38331  37.153  11.683   8.690
 2834POPC   D2A38332  37.177  11.556   8.274
 2834POPC   C3A38333  36.823  11.303   8.126
 2834POPC   C4A38334  36.715  11.223   7.701
 2834POPC   C1B38335  37.252  10.795   8.719
 2834POPC   C2B38336  37.328  10.617   8.296
 2834POPC   C3B38337  37.391  10.898   7.930
 2834POPC   C4B38338  37.242  11.308   7.819
 2835POPC   NC338339  25.345   5.516   9.957
 2835POPC   PO438340  25.580   5.869   9.427
 2835POPC   GL138341  25.233   5.753   9.150
 2835POPC   GL238342  24.935   5.539   9.247
 2835POPC   C1A38343  25.315   5.911   8.745
 2835POPC   D2A38344  25.208   6.145   8.402
 2835POPC   C3A38345  25.310   5.920   8.063
 2835POPC   C4A38346  25.273   6.083   7.729
 2835POPC   C1B38347  24.855   5.685   8.800
 2835POPC   C2B38348  25.089   5.574   8.412
 2835POPC   C3B38349  25.095   5.433   7.983
 2835POPC   C4B38350  25.091   5.625   7.590
 2836POPC   NC338351  14.895  10.913   9.467
 2836POPC   PO438352  15.439  11.291   9.444
 2836POPC   GL138353  15.403  11.360   9.007
 2836POPC   GL238354  15.031  11.270   8.953
 2836POPC   C1A38355  15.438  11.184   8.614
 2836POPC   D2A38356  15.218  11.074   8.268
 2836POPC   C3A38357  15.430  11.114   7.921
 2836POPC   C4A38358  15.208  11.007   7.550
 2836POPC   C1B38359  15.109  11.569   8.613
 2836POPC   C2B38360  15.220  11.594   8.188
 2836POPC   C3B38361  15.034  11.399   7.861
 2836POPC   C4B38362  14.793  11.340   7.485
 2837POPC   NC338363  35.025  31.736   9.708
 2837POPC   PO438364  35.186  31.193   9.442
 2837POPC   GL138365  35.272  31.580   9.247
 2837POPC   GL238366  34.982  31.811   9.195
 2837POPC   C1A38367  35.494  31.622   8.845
 2837POPC   D2A38368  35.598  31.668   8.422
 2837POPC   C3A38369  35.489  31.480   8.064
 2837POPC   C4A38370  35.546  31.760   7.720
 2837POPC   C1B38371  34.968  31.540   8.846
 2837POPC   C2B38372  35.110  31.546   8.447
 2837POPC   C3B38373  35.014  31.660   8.042
 2837POPC   C4B38374  35.125  31.484   7.700
 2838POPC   NC338375  27.705   1.829   9.515
 2838POPC   PO438376  27.317   1.654   9.035
 2838POPC   GL138377  27.639   2.001   9.048
 2838POPC   GL238378  28.045   1.911   9.136
 2838POPC   C1A38379  27.500   2.330   8.760
 2838POPC   D2A38380  27.228   2.334   8.380
 2838POPC   C3A38381  27.425   2.234   7.991
 2838POPC   C4A38382  27.341   2.033   7.572
 2838POPC   C1B38383  28.032   2.242   8.842
 2838POPC   C2B38384  27.921   2.235   8.449
 2838POPC   C3B38385  27.983   2.109   8.050
 2838POPC   C4B38386  27.836   2.191   7.671
 2839POPC   NC338387  38.684  12.947   9.524
 2839POPC   PO438388  38.326  12.362   9.655
 2839POPC   GL138389  38.265  12.555   9.238
 2839POPC   GL238390  38.597  12.594   9.128
 2839POPC   C1A38391  38.188  12.796   8.843
 2839POPC   D2A38392  38.065  12.704   8.387
 2839POPC   C3A38393  38.214  12.888   8.033
 2839POPC   C4A38394  38.335  13.011   7.609
 2839POPC   C1B38395  38.722  12.785   8.794
 2839POPC   C2B38396  38.538  12.960   8.458
 2839POPC   C3B38397  38.700  12.836   8.096
 2839POPC   C4B38398  38.794  12.799   7.693
 2840POPC   NC338399  13.197   8.661   9.456
 2840POPC   PO438400  12.668   9.093   9.466
 2840POPC   GL138401  12.856   8.956   9.118
 2840POPC   GL238402  12.909   9.258   8.991
 2840POPC   C1A38403  12.652   8.919   8.699
 2840POPC   D2A38404  12.451   8.948   8.308
 2840POPC   C3A38405  12.655   8.995   7.953
 2840POPC   C4A38406  12.939   8.709   7.809
 2840POPC   C1B38407  13.149   9.009   8.678
 2840POPC   C2B38408  13.154   9.012   8.216
 2840POPC   C3B38409  13.090   9.256   7.846
 2840POPC   C4B38410  12.720   9.399   7.643
 2841POPC   NC338411  23.243  18.699   9.466
 2841POPC   PO438412  23.859  19.080   9.463
 2841POPC   GL138413  23.714  19.201   9.109
 2841POPC   GL238414  23.386  19.133   9.191
 2841POPC   C1A38415  23.683  19.314   8.705
 2841POPC   D2A38416  23.788  19.009   8.388
 2841POPC   C3A38417  23.916  19.085   7.980
 2841POPC   C4A38418  24.110  18.776   7.708
 2841POPC   C1B38419  23.350  18.913   8.788
 2841POPC   C2B38420  23.272  19.113   8.379
 2841POPC   C3B38421  23.429  19.249   7.981
 2841POPC   C4B38422  23.469  18.977   7.627
 2842POPC   NC338423   5.644   9.367   9.565
 2842POPC   PO438424   5.993   9.921   9.501
 2842POPC   GL138425   5.919   9.584   9.196
 2842POPC   GL238426   5.722   9.787   9.005
 2842POPC   C1A38427   6.015   9.391   8.781
 2842POPC   D2A38428   5.724   9.527   8.546
 2842POPC   C3A38429   5.784   9.479   8.132
 2842POPC   C4A38430   5.622   9.629   7.748
 2842POPC   C1B38431   6.206   9.839   8.871
 2842POPC   C2B38432   6.239   9.771   8.450
 2842POPC   C3B38433   6.126   9.813   8.011
 2842POPC   C4B38434   6.140   9.407   7.786
 2843POPC   NC338435  41.222  31.124   9.507
 2843POPC   PO438436  40.831  30.548   9.486
 2843POPC   GL138437  40.785  30.618   9.082
 2843POPC   GL238438  40.958  30.895   9.121
 2843POPC   C1A38439  40.759  30.758   8.656
 2843POPC   D2A38440  40.606  30.939   8.264
 2843POPC   C3A38441  40.741  30.621   7.995
 2843POPC   C4A38442  40.744  30.375   7.636
 2843POPC   C1B38443  41.200  30.993   8.783
 2843POPC   C2B38444  41.087  31.093   8.381
 2843POPC   C3B38445  41.172  30.998   7.969
 2843POPC   C4B38446  40.952  30.868   7.607
 2844POPC   NC338447  26.252   5.616   9.548
 2844POPC   PO438448  26.380   6.304   9.697
 2844POPC   GL138449  26.354   6.021   9.289
 2844POPC   GL238450  26.020   5.909   9.179
 2844POPC   C1A38451  26.383   5.734   8.867
 2844POPC   D2A38452  26.355   5.568   8.412
 2844POPC   C3A38453  26.101   5.730   8.066
 2844POPC   C4A38454  26.062   5.838   7.622
 2844POPC   C1B38455  25.832   6.074   8.782
 2844POPC   C2B38456  25.719   5.916   8.363
 2844POPC   C3B38457  25.773   6.115   7.934
 2844POPC   C4B38458  25.701   6.172   7.474
 2845POPC   NC338459  43.534  38.913   9.505
 2845POPC   PO438460  43.993  39.383   9.608
 2845POPC   GL138461  43.862  39.216   9.233
 2845POPC   GL238462  44.192  39.072   9.174
 2845POPC   C1A38463  43.843  39.340   8.806
 2845POPC   D2A38464  43.988  39.418   8.380
 2845POPC   C3A38465  43.837  39.220   7.983
 2845POPC   C4A38466  43.801  39.389   7.571
 2845POPC   C1B38467  44.171  38.881   8.753
 2845POPC   C2B38468  44.358  38.910   8.310
 2845POPC   C3B38469  44.317  38.895   7.847
 2845POPC   C4B38470  44.135  39.003   7.453
 2846POPC   NC338471  21.862   8.826   9.358
 2846POPC   PO438472  22.537   9.092   9.531
 2846POPC   GL138473  22.303   8.939   9.154
 2846POPC   GL238474  22.105   9.217   9.112
 2846POPC   C1A38475  22.126   8.918   8.700
 2846POPC   D2A38476  22.316   9.029   8.326
 2846POPC   C3A38477  22.170   8.934   7.930
 2846POPC   C4A38478  22.361   8.922   7.495
 2846POPC   C1B38479  21.908   9.363   8.725
 2846POPC   C2B38480  21.878   9.331   8.292
 2846POPC   C3B38481  21.815   9.430   7.875
 2846POPC   C4B38482  21.894   9.144   7.556
 2847POPC   NC338483  34.844  22.118   9.454
 2847POPC   PO438484  34.160  22.313   9.531
 2847POPC   GL138485  34.389  22.070   9.228
 2847POPC   GL238486  34.588  22.362   9.060
 2847POPC   C1A38487  34.436  21.921   8.829
 2847POPC   D2A38488  34.417  22.251   8.553
 2847POPC   C3A38489  34.574  22.183   8.120
 2847POPC   C4A38490  34.564  22.082   7.691
 2847POPC   C1B38491  34.879  22.197   8.719
 2847POPC   C2B38492  35.063  22.226   8.286
 2847POPC   C3B38493  35.040  22.192   7.807
 2847POPC   C4B38494  34.908  22.200   7.317
 2848POPC   NC338495  37.272  41.695   9.637
 2848POPC   PO438496  37.895  41.582   9.450
 2848POPC   GL138497  37.732  41.597   9.048
 2848POPC   GL238498  37.563  41.289   9.005
 2848POPC   C1A38499  37.876  41.478   8.632
 2848POPC   D2A38500  37.936  41.112   8.375
 2848POPC   C3A38501  37.988  41.169   7.957
 2848POPC   C4A38502  37.611  41.200   7.729
 2848POPC   C1B38503  37.370  41.432   8.632
 2848POPC   C2B38504  37.500  41.409   8.220
 2848POPC   C3B38505  37.696  41.659   7.957
 2848POPC   C4B38506  37.500  41.787   7.626
 2849POPC   NC338507  27.916  22.624   9.436
 2849POPC   PO438508  27.614  23.248   9.416
 2849POPC   GL138509  27.790  23.056   9.086
 2849POPC   GL238510  27.561  22.772   9.099
 2849POPC   C1A38511  27.717  22.880   8.654
 2849POPC   D2A38512  27.797  22.593   8.317
 2849POPC   C3A38513  27.764  22.820   7.936
 2849POPC   C4A38514  27.505  23.156   7.823
 2849POPC   C1B38515  27.345  22.509   8.778
 2849POPC   C2B38516  27.159  22.571   8.368
 2849POPC   C3B38517  27.254  22.715   7.959
 2849POPC   C4B38518  27.429  22.634   7.568
 2850POPC   NC338519  22.733  39.523   9.821
 2850POPC   PO438520  22.970  40.082   9.494
 2850POPC   GL138521  22.856  40.029   9.113
 2850POPC   GL238522  23.211  40.031   8.989
 2850POPC   C1A38523  22.803  39.811   8.705
 2850POPC   D2A38524  23.038  39.779   8.322
 2850POPC   C3A38525  22.773  39.783   7.949
 2850POPC   C4A38526  22.976  39.931   7.582
 2850POPC   C1B38527  22.952  40.293   8.719
 2850POPC   C2B38528  22.773  40.224   8.350
 2850POPC   C3B38529  23.007  40.230   8.012
 2850POPC   C4B38530  23.052  40.429   7.613
 2851POPC   NC338531  13.626  40.479   9.393
 2851POPC   PO438532  13.897  39.889   9.533
 2851POPC   GL138533  13.692  40.029   9.153
 2851POPC   GL238534  13.328  40.084   9.093
 2851POPC   C1A38535  13.783  40.059   8.733
 2851POPC   D2A38536  13.623  39.924   8.325
 2851POPC   C3A38537  13.893  39.934   7.947
 2851POPC   C4A38538  13.863  40.232   7.608
 2851POPC   C1B38539  13.299  40.199   8.672
 2851POPC   C2B38540  13.290  40.326   8.229
 2851POPC   C3B38541  13.399  40.074   7.849
 2851POPC   C4B38542  13.439  40.044   7.378
 2852POPC   NC338543  23.793   3.095   9.534
 2852POPC   PO438544  23.405   2.509   9.580
 2852POPC   GL138545  23.488   2.726   9.192
 2852POPC   GL238546  23.348   3.037   9.193
 2852POPC   C1A38547  23.700   2.706   8.793
 2852POPC   D2A38548  24.017   2.743   8.479
 2852POPC   C3A38549  23.824   2.563   8.141
 2852POPC   C4A38550  23.782   2.699   7.746
 2852POPC   C1B38551  23.314   3.041   8.744
 2852POPC   C2B38552  23.424   2.836   8.340
 2852POPC   C3B38553  23.410   3.022   7.913
 2852POPC   C4B38554  23.471   3.022   7.443
 2853POPC   NC338555  39.804  35.407   9.538
 2853POPC   PO438556  39.107  35.337   9.534
 2853POPC   GL138557  39.114  35.162   9.149
 2853POPC   GL238558  39.465  35.181   9.094
 2853POPC   C1A38559  39.146  35.315   8.731
 2853POPC   D2A38560  39.398  35.455   8.413
 2853POPC   C3A38561  39.073  35.392   8.117
 2853POPC   C4A38562  39.087  35.521   7.673
 2853POPC   C1B38563  39.499  34.941   8.693
 2853POPC   C2B38564  39.434  34.986   8.230
 2853POPC   C3B38565  39.501  35.306   7.884
 2853POPC   C4B38566  39.456  35.253   7.418
 2854POPC   NC338567  25.457   8.518   9.483
 2854POPC   PO438568  25.561   9.193   9.477
 2854POPC   GL138569  25.180   9.078   9.189
 2854POPC   GL238570  25.106   8.723   9.164
 2854POPC   C1A38571  25.186   9.019   8.760
 2854POPC   D2A38572  25.579   8.900   8.545
 2854POPC   C3A38573  25.615   8.880   8.097
 2854POPC   C4A38574  25.382   9.015   7.760
 2854POPC   C1B38575  25.224   8.513   8.765
 2854POPC   C2B38576  25.173   8.673   8.351
 2854POPC   C3B38577  24.966   8.826   7.995
 2854POPC   C4B38578  25.095   8.602   7.648
 2855POPC   NC338579  26.377  44.515   9.428
 2855POPC   PO438580  25.948   0.042   9.534
 2855POPC   GL138581  25.987  44.716   9.157
 2855POPC   GL238582  26.313  44.764   9.002
 2855POPC   C1A38583  25.985  44.536   8.712
 2855POPC   D2A38584  25.727  44.470   8.395
 2855POPC   C3A38585  25.960  44.416   8.072
 2855POPC   C4A38586  25.991  44.528   7.653
 2855POPC   C1B38587  26.252  44.971   8.664
 2855POPC   C2B38588  26.081  44.858   8.303
 2855POPC   C3B38589  26.276  44.828   7.948
 2855POPC   C4B38590  26.230  44.935   7.532
 2856POPC   NC338591  44.873  18.383   9.488
 2856POPC   PO438592  44.408  17.941   9.633
 2856POPC   GL138593  44.552  18.051   9.206
 2856POPC   GL238594  44.493  18.423   9.154
 2856POPC   C1A38595  44.649  18.163   8.780
 2856POPC   D2A38596  44.523  18.430   8.422
 2856POPC   C3A38597  44.675  18.233   8.045
 2856POPC   C4A38598  44.619  18.054   7.641
 2856POPC   C1B38599  44.826  18.645   8.827
 2856POPC   C2B38600  44.901  18.821   8.411
 2856POPC   C3B38601  44.673  18.770   8.022
 2856POPC   C4B38602  44.689  18.559   7.637
 2857POPC   NC338603  40.010  25.706   9.433
 2857POPC   PO438604  39.862  26.287   9.700
 2857POPC   GL138605  39.982  26.211   9.230
 2857POPC   GL238606  39.922  25.920   8.995
 2857POPC   C1A38607  40.076  26.356   8.777
 2857POPC   D2A38608  39.928  26.338   8.332
 2857POPC   C3A38609  40.248  26.329   7.997
 2857POPC   C4A38610  40.340  26.122   7.616
 2857POPC   C1B38611  39.634  26.020   8.673
 2857POPC   C2B38612  39.652  25.879   8.270
 2857POPC   C3B38613  39.882  25.838   7.894
 2857POPC   C4B38614  39.700  25.588   7.581
 2858POPC   NC338615   7.839  19.096   9.495
 2858POPC   PO438616   7.188  19.312   9.523
 2858POPC   GL138617   7.494  19.326   9.185
 2858POPC   GL238618   7.500  18.970   9.116
 2858POPC   C1A38619   7.619  19.293   8.758
 2858POPC   D2A38620   7.381  19.194   8.417
 2858POPC   C3A38621   7.489  19.292   8.012
 2858POPC   C4A38622   7.534  18.953   7.760
 2858POPC   C1B38623   7.608  18.792   8.678
 2858POPC   C2B38624   7.771  18.713   8.227
 2858POPC   C3B38625   7.961  18.657   7.795
 2858POPC   C4B38626   7.912  18.885   7.397
 2859POPC   NC338627   9.129  44.342   9.755
 2859POPC   PO438628   9.125  44.987   9.593
 2859POPC   GL138629   9.162  44.670   9.241
 2859POPC   GL238630   9.083  44.309   9.229
 2859POPC   C1A38631   9.107  44.745   8.794
 2859POPC   D2A38632   9.193   0.098   8.498
 2859POPC   C3A38633   9.337   0.042   8.088
 2859POPC   C4A38634   9.175  44.697   7.935
 2859POPC   C1B38635   8.935  44.248   8.773
 2859POPC   C2B38636   8.999  44.304   8.298
 2859POPC   C3B38637   8.912  44.290   7.826
 2859POPC   C4B38638   9.021  44.148   7.395
 2860POPC   NC338639  31.281  40.867   9.554
 2860POPC   PO438640  31.832  41.054   9.487
 2860POPC   GL138641  31.665  40.809   9.153
 2860POPC   GL238642  31.823  40.514   9.166
 2860POPC   C1A38643  31.696  40.895   8.697
 2860POPC   D2A38644  31.720  41.046   8.264
 2860POPC   C3A38645  31.415  40.873   7.983
 2860POPC   C4A38646  31.146  40.627   7.727
 2860POPC   C1B38647  31.990  40.488   8.752
 2860POPC   C2B38648  32.068  40.675   8.344
 2860POPC   C3B38649  31.909  40.757   7.882
 2860POPC   C4B38650  31.829  40.515   7.480
 2861POPC   NC338651  29.862  44.613   9.610
 2861POPC   PO438652  30.351   0.028   9.385
 2861POPC   GL138653  30.080  44.784   9.126
 2861POPC   GL238654  29.740  44.721   9.140
 2861POPC   C1A38655  29.947  44.874   8.721
 2861POPC   D2A38656  29.879  44.623   8.418
 2861POPC   C3A38657  29.973  44.844   8.097
 2861POPC   C4A38658  29.993  44.644   7.711
 2861POPC   C1B38659  29.638  44.378   8.811
 2861POPC   C2B38660  29.445  44.394   8.388
 2861POPC   C3B38661  29.489  44.198   7.984
 2861POPC   C4B38662  29.568  44.400   7.590
 2862POPC   NC338663  44.072  41.920   9.179
 2862POPC   PO438664  44.244  41.358   9.472
 2862POPC   GL138665  43.987  41.409   9.138
 2862POPC   GL238666  44.174  41.489   8.874
 2862POPC   C1A38667  43.727  41.230   8.830
 2862POPC   D2A38668  43.543  41.409   8.505
 2862POPC   C3A38669  43.819  41.433   8.159
 2862POPC   C4A38670  43.760  41.573   7.733
 2862POPC   C1B38671  43.937  41.748   8.563
 2862POPC   C2B38672  44.041  41.889   8.135
 2862POPC   C3B38673  44.084  41.963   7.698
 2862POPC   C4B38674  43.995  41.811   7.292
 2863POPC   NC338675  28.903   3.722   9.673
 2863POPC   PO438676  28.271   3.832   9.264
 2863POPC   GL138677  28.115   3.463   9.047
 2863POPC   GL238678  28.448   3.474   8.889
 2863POPC   C1A38679  28.050   3.340   8.619
 2863POPC   D2A38680  28.310   3.561   8.287
 2863POPC   C3A38681  28.338   3.401   7.868
 2863POPC   C4A38682  28.085   3.014   7.827
 2863POPC   C1B38683  28.589   3.843   8.620
 2863POPC   C2B38684  28.866   3.908   8.283
 2863POPC   C3B38685  28.564   3.921   7.993
 2863POPC   C4B38686  28.722   3.749   7.668
 2864POPC   NC338687  23.739   8.737   9.264
 2864POPC   PO438688  23.693   8.272   9.684
 2864POPC   GL138689  23.626   8.267   9.175
 2864POPC   GL238690  23.990   8.280   9.098
 2864POPC   C1A38691  23.630   8.419   8.717
 2864POPC   D2A38692  23.912   8.459   8.347
 2864POPC   C3A38693  23.697   8.280   7.995
 2864POPC   C4A38694  23.668   8.198   7.492
 2864POPC   C1B38695  23.935   8.009   8.711
 2864POPC   C2B38696  23.880   7.860   8.256
 2864POPC   C3B38697  23.966   7.926   7.784
 2864POPC   C4B38698  24.060   7.938   7.302
 2865POPC   NC338699  19.787  29.230   9.412
 2865POPC   PO438700  20.242  28.714   9.238
 2865POPC   GL138701  19.863  28.934   8.994
 2865POPC   GL238702  19.513  29.155   8.974
 2865POPC   C1A38703  19.710  28.926   8.565
 2865POPC   D2A38704  19.520  28.917   8.174
 2865POPC   C3A38705  19.735  28.760   7.809
 2865POPC   C4A38706  19.886  28.856   7.365
 2865POPC   C1B38707  19.829  29.411   8.745
 2865POPC   C2B38708  19.931  29.525   8.310
 2865POPC   C3B38709  19.856  29.246   7.953
 2865POPC   C4B38710  19.630  29.241   7.582
 2866POPC   NC338711   0.284   0.490   9.526
 2866POPC   PO438712   0.910   0.734   9.564
 2866POPC   GL138713   0.639   0.699   9.178
 2866POPC   GL238714   0.603   0.352   9.128
 2866POPC   C1A38715   0.265   0.604   8.856
 2866POPC   D2A38716   0.146   0.486   8.426
 2866POPC   C3A38717   0.282   0.639   7.995
 2866POPC   C4A38718   0.343   0.530   7.531
 2866POPC   C1B38719   0.438   0.117   8.761
 2866POPC   C2B38720   0.257   0.005   8.367
 2866POPC   C3B38721   0.351   0.113   7.953
 2866POPC   C4B38722   0.098   0.078   7.624
 2867POPC   NC338723  27.199  21.439   9.850
 2867POPC   PO438724  27.822  21.516   9.522
 2867POPC   GL138725  27.571  21.352   9.160
 2867POPC   GL238726  27.252  21.165   9.061
 2867POPC   C1A38727  27.586  21.425   8.733
 2867POPC   D2A38728  27.928  21.485   8.469
 2867POPC   C3A38729  27.788  21.445   8.069
 2867POPC   C4A38730  27.813  21.773   7.795
 2867POPC   C1B38731  27.079  21.314   8.706
 2867POPC   C2B38732  27.226  21.243   8.320
 2867POPC   C3B38733  27.315  21.352   7.917
 2867POPC   C4B38734  27.582  21.370   7.571
 2868POPC   NC338735  42.069  10.760   9.699
 2868POPC   PO438736  41.506  10.373   9.606
 2868POPC   GL138737  41.375  10.424   9.173
 2868POPC   GL238738  41.139  10.182   9.059
 2868POPC   C1A38739  41.494  10.731   8.830
 2868POPC   D2A38740  41.268  11.025   8.604
 2868POPC   C3A38741  41.291  10.931   8.169
 2868POPC   C4A38742  41.390  10.622   7.855
 2868POPC   C1B38743  41.468  10.218   8.717
 2868POPC   C2B38744  41.483  10.385   8.312
 2868POPC   C3B38745  41.758  10.296   7.987
 2868POPC   C4B38746  41.912  10.377   7.586
 2869POPC   NC338747  16.561  13.611   9.481
 2869POPC   PO438748  16.975  14.037   9.456
 2869POPC   GL138749  16.833  13.847   9.092
 2869POPC   GL238750  16.862  13.460   9.085
 2869POPC   C1A38751  16.539  13.773   8.781
 2869POPC   D2A38752  16.348  13.673   8.418
 2869POPC   C3A38753  16.520  13.592   8.030
 2869POPC   C4A38754  16.399  13.744   7.654
 2869POPC   C1B38755  17.000  13.564   8.702
 2869POPC   C2B38756  16.901  13.742   8.352
 2869POPC   C3B38757  17.083  13.518   8.027
 2869POPC   C4B38758  16.859  13.429   7.683
 2870POPC   NC338759  16.310  26.978   9.498
 2870POPC   PO438760  15.871  26.566   9.636
 2870POPC   GL138761  15.832  26.764   9.181
 2870POPC   GL238762  16.012  27.071   9.102
 2870POPC   C1A38763  15.974  26.697   8.730
 2870POPC   D2A38764  16.070  26.324   8.482
 2870POPC   C3A38765  16.065  26.312   8.032
 2870POPC   C4A38766  15.883  26.448   7.661
 2870POPC   C1B38767  16.254  27.119   8.693
 2870POPC   C2B38768  16.261  27.095   8.253
 2870POPC   C3B38769  16.078  26.840   7.935
 2870POPC   C4B38770  16.086  26.854   7.477
 2871POPC   NC338771  23.205  12.464   9.535
 2871POPC   PO438772  22.716  12.908   9.449
 2871POPC   GL138773  23.034  12.806   9.175
 2871POPC   GL238774  23.156  13.103   9.136
 2871POPC   C1A38775  23.157  12.771   8.745
 2871POPC   D2A38776  23.105  12.547   8.341
 2871POPC   C3A38777  23.201  12.737   7.971
 2871POPC   C4A38778  23.165  12.583   7.563
 2871POPC   C1B38779  22.969  13.237   8.783
 2871POPC   C2B38780  23.056  13.105   8.377
 2871POPC   C3B38781  23.252  13.249   8.037
 2871POPC   C4B38782  23.055  13.325   7.663
 2872POPC   NC338783  13.708   7.859   9.764
 2872POPC   PO438784  13.338   8.381   9.821
 2872POPC   GL138785  13.497   8.189   9.388
 2872POPC   GL238786  13.279   7.965   9.197
 2872POPC   C1A38787  13.609   8.214   8.907
 2872POPC   D2A38788  13.514   8.119   8.447
 2872POPC   C3A38789  13.684   8.293   8.009
 2872POPC   C4A38790  13.624   8.212   7.549
 2872POPC   C1B38791  13.242   7.661   8.864
 2872POPC   C2B38792  13.160   7.732   8.427
 2872POPC   C3B38793  13.243   7.969   8.039
 2872POPC   C4B38794  13.118   7.785   7.666
 2873POPC   NC338795   4.067  44.214   9.573
 2873POPC   PO438796   4.528  43.824   9.596
 2873POPC   GL138797   4.376  43.781   9.174
 2873POPC   GL238798   4.277  44.109   9.108
 2873POPC   C1A38799   4.471  43.789   8.727
 2873POPC   D2A38800   4.834  43.604   8.531
 2873POPC   C3A38801   4.781  43.653   8.096
 2873POPC   C4A38802   4.376  43.715   7.906
 2873POPC   C1B38803   3.969  43.912   8.804
 2873POPC   C2B38804   3.949  43.739   8.374
 2873POPC   C3B38805   3.994  44.034   8.030
 2873POPC   C4B38806   4.142  44.070   7.627
 2874POPC   NC338807   0.353  17.742   9.581
 2874POPC   PO438808   0.965  17.944   9.514
 2874POPC   GL138809   0.749  17.681   9.171
 2874POPC   GL238810   0.364  17.670   9.083
 2874POPC   C1A38811   0.707  17.561   8.716
 2874POPC   D2A38812   0.508  17.543   8.300
 2874POPC   C3A38813   0.815  17.605   7.966
 2874POPC   C4A38814   0.781  17.570   7.517
 2874POPC   C1B38815   0.024  17.776   8.780
 2874POPC   C2B38816   0.006  17.721   8.338
 2874POPC   C3B38817   0.046  17.448   7.996
 2874POPC   C4B38818   0.343  17.595   7.764
 2875POPC   NC338819  12.403  35.920   9.284
 2875POPC   PO438820  13.014  36.281   9.516
 2875POPC   GL138821  12.805  36.218   9.157
 2875POPC   GL238822  12.917  35.883   9.144
 2875POPC   C1A38823  12.711  36.102   8.722
 2875POPC   D2A38824  12.531  36.081   8.335
 2875POPC   C3A38825  12.811  36.168   7.982
 2875POPC   C4A38826  13.261  36.302   7.825
 2875POPC   C1B38827  12.762  35.602   8.789
 2875POPC   C2B38828  12.845  35.671   8.341
 2875POPC   C3B38829  12.739  35.631   7.913
 2875POPC   C4B38830  12.913  35.471   7.525
 2876POPC   NC338831  13.035  39.982   9.492
 2876POPC   PO438832  12.529  40.395   9.388
 2876POPC   GL138833  12.803  40.206   9.105
 2876POPC   GL238834  12.773  39.870   9.076
 2876POPC   C1A38835  12.782  40.197   8.686
 2876POPC   D2A38836  12.618  40.092   8.331
 2876POPC   C3A38837  12.877  40.120   8.003
 2876POPC   C4A38838  12.565  40.188   7.748
 2876POPC   C1B38839  12.976  39.711   8.759
 2876POPC   C2B38840  13.090  39.828   8.378
 2876POPC   C3B38841  13.128  39.665   7.997
 2876POPC   C4B38842  13.029  39.778   7.599
 2877POPC   NC338843  22.296  31.318   9.567
 2877POPC   PO438844  21.686  31.527   9.457
 2877POPC   GL138845  21.902  31.614   9.082
 2877POPC   GL238846  22.216  31.436   9.086
 2877POPC   C1A38847  21.955  31.629   8.628
 2877POPC   D2A38848  22.141  31.681   8.220
 2877POPC   C3A38849  21.984  31.468   7.844
 2877POPC   C4A38850  21.998  31.363   7.408
 2877POPC   C1B38851  22.408  31.137   8.815
 2877POPC   C2B38852  22.293  31.227   8.405
 2877POPC   C3B38853  22.455  31.309   8.005
 2877POPC   C4B38854  22.375  31.117   7.611
 2878POPC   NC338855   8.408  33.239   9.526
 2878POPC   PO438856   7.966  32.692   9.543
 2878POPC   GL138857   8.107  32.936   9.207
 2878POPC   GL238858   7.908  33.201   9.295
 2878POPC   C1A38859   8.342  33.143   8.855
 2878POPC   D2A38860   8.487  33.275   8.430
 2878POPC   C3A38861   8.456  33.028   8.087
 2878POPC   C4A38862   8.183  33.000   7.785
 2878POPC   C1B38863   7.823  33.266   8.871
 2878POPC   C2B38864   7.962  33.206   8.450
 2878POPC   C3B38865   7.814  32.960   8.129
 2878POPC   C4B38866   7.680  33.119   7.734
 2879POPC   NC338867  43.692  30.255   9.565
 2879POPC   PO438868  43.969  29.680   9.569
 2879POPC   GL138869  43.798  29.851   9.221
 2879POPC   GL238870  43.564  29.614   9.195
 2879POPC   C1A38871  43.894  29.906   8.792
 2879POPC   D2A38872  43.727  30.004   8.397
 2879POPC   C3A38873  44.079  29.967   8.131
 2879POPC   C4A38874  44.057  29.805   7.731
 2879POPC   C1B38875  43.713  29.407   8.828
 2879POPC   C2B38876  43.883  29.496   8.447
 2879POPC   C3B38877  43.724  29.612   8.076
 2879POPC   C4B38878  43.594  29.992   7.860
 2880POPC   NC338879   2.164  28.039   9.444
 2880POPC   PO438880   2.006  28.666   9.635
 2880POPC   GL138881   2.003  28.492   9.232
 2880POPC   GL238882   2.289  28.633   9.063
 2880POPC   C1A38883   1.811  28.528   8.827
 2880POPC   D2A38884   1.988  28.586   8.409
 2880POPC   C3A38885   1.894  28.275   8.114
 2880POPC   C4A38886   1.662  28.158   7.737
 2880POPC   C1B38887   2.265  28.287   8.778
 2880POPC   C2B38888   2.323  28.120   8.388
 2880POPC   C3B38889   2.433  28.252   7.987
 2880POPC   C4B38890   2.143  28.246   7.646
 2881POPC   NC338891  30.778  12.947   9.434
 2881POPC   PO438892  30.168  13.226   9.272
 2881POPC   GL138893  30.407  12.905   9.097
 2881POPC   GL238894  30.417  12.542   9.181
 2881POPC   C1A38895  30.753  12.729   8.825
 2881POPC   D2A38896  30.979  12.872   8.483
 2881POPC   C3A38897  30.780  13.054   8.130
 2881POPC   C4A38898  30.944  12.843   7.786
 2881POPC   C1B38899  30.272  12.622   8.718
 2881POPC   C2B38900  30.558  12.593   8.351
 2881POPC   C3B38901  30.481  12.661   7.911
 2881POPC   C4B38902  30.278  12.960   7.619
 2882POPC   NC338903  16.392  27.899   9.413
 2882POPC   PO438904  15.973  28.447   9.526
 2882POPC   GL138905  15.852  28.359   9.091
 2882POPC   GL238906  15.994  28.025   9.034
 2882POPC   C1A38907  15.922  28.370   8.638
 2882POPC   D2A38908  15.700  28.326   8.235
 2882POPC   C3A38909  15.871  28.278   7.840
 2882POPC   C4A38910  15.932  28.243   7.433
 2882POPC   C1B38911  16.271  27.993   8.653
 2882POPC   C2B38912  16.178  28.066   8.199
 2882POPC   C3B38913  16.354  28.135   7.748
 2882POPC   C4B38914  16.416  28.166   7.300
 2883POPC   NC338915  35.506  30.824   9.394
 2883POPC   PO438916  35.080  30.298   9.403
 2883POPC   GL138917  35.385  30.410   9.112
 2883POPC   GL238918  35.144  30.677   9.016
 2883POPC   C1A38919  35.410  30.391   8.662
 2883POPC   D2A38920  35.192  30.740   8.466
 2883POPC   C3A38921  35.433  30.941   8.143
 2883POPC   C4A38922  35.415  31.084   7.738
 2883POPC   C1B38923  34.910  30.331   8.775
 2883POPC   C2B38924  34.953  30.305   8.335
 2883POPC   C3B38925  35.002  30.621   8.001
 2883POPC   C4B38926  34.817  30.775   7.640
 2884POPC   NC338927  25.672  23.439   9.507
 2884POPC   PO438928  26.346  23.711   9.519
 2884POPC   GL138929  26.129  23.482   9.241
 2884POPC   GL238930  25.901  23.739   9.164
 2884POPC   C1A38931  26.205  23.493   8.825
 2884POPC   D2A38932  26.392  23.761   8.507
 2884POPC   C3A38933  26.284  23.627   8.105
 2884POPC   C4A38934  26.224  23.574   7.712
 2884POPC   C1B38935  25.702  23.629   8.813
 2884POPC   C2B38936  25.889  23.563   8.421
 2884POPC   C3B38937  25.790  23.497   8.001
 2884POPC   C4B38938  25.637  23.661   7.631
 2885POPC   NC338939  34.885   9.440   9.434
 2885POPC   PO438940  35.400   9.896   9.558
 2885POPC   GL138941  35.413   9.735   9.139
 2885POPC   GL238942  35.113   9.879   9.006
 2885POPC   C1A38943  35.478   9.784   8.686
 2885POPC   D2A38944  35.482   9.513   8.365
 2885POPC   C3A38945  35.398   9.757   8.065
 2885POPC   C4A38946  35.441   9.580   7.703
 2885POPC   C1B38947  35.054   9.510   8.748
 2885POPC   C2B38948  34.974   9.458   8.305
 2885POPC   C3B38949  34.946   9.612   7.879
 2885POPC   C4B38950  35.044   9.882   7.541
 2886POPC   NC338951  28.249  13.819   9.421
 2886POPC   PO438952  28.540  13.292   9.388
 2886POPC   GL138953  28.346  13.466   9.055
 2886POPC   GL238954  28.613  13.723   9.047
 2886POPC   C1A38955  28.429  13.461   8.636
 2886POPC   D2A38956  28.638  13.241   8.340
 2886POPC   C3A38957  28.471  13.393   7.986
 2886POPC   C4A38958  28.182  13.696   7.803
 2886POPC   C1B38959  28.677  13.914   8.626
 2886POPC   C2B38960  28.642  13.865   8.156
 2886POPC   C3B38961  28.539  14.068   7.746
 2886POPC   C4B38962  28.639  14.009   7.285
 2887POPC   NC338963   1.563  32.287   9.371
 2887POPC   PO438964   2.221  32.053   9.220
 2887POPC   GL138965   1.971  32.304   9.036
 2887POPC   GL238966   1.728  31.998   9.004
 2887POPC   C1A38967   2.195  32.400   8.646
 2887POPC   D2A38968   2.250  32.041   8.386
 2887POPC   C3A38969   2.293  32.153   7.969
 2887POPC   C4A38970   2.197  32.363   7.562
 2887POPC   C1B38971   1.764  32.141   8.607
 2887POPC   C2B38972   1.753  32.452   8.327
 2887POPC   C3B38973   1.789  32.259   7.920
 2887POPC   C4B38974   1.701  32.233   7.500
 2888POPC   NC338975   6.974  14.115   9.500
 2888POPC   PO438976   6.488  14.566   9.381
 2888POPC   GL138977   6.676  14.303   9.067
 2888POPC   GL238978   7.022  14.424   9.080
 2888POPC   C1A38979   6.523  14.266   8.614
 2888POPC   D2A38980   6.335  14.524   8.319
 2888POPC   C3A38981   6.453  14.352   7.940
 2888POPC   C4A38982   6.282  14.438   7.548
 2888POPC   C1B38983   6.822  14.661   8.727
 2888POPC   C2B38984   6.830  14.615   8.262
 2888POPC   C3B38985   6.716  14.772   7.820
 2888POPC   C4B38986   6.895  14.837   7.394
 2889POPC   NC338987  13.459  26.871   9.522
 2889POPC   PO438988  14.004  26.497   9.382
 2889POPC   GL138989  13.834  26.823   9.060
 2889POPC   GL238990  13.548  27.052   9.058
 2889POPC   C1A38991  13.749  26.873   8.596
 2889POPC   D2A38992  13.796  27.097   8.199
 2889POPC   C3A38993  13.668  26.980   7.768
 2889POPC   C4A38994  13.606  26.787   7.365
 2889POPC   C1B38995  13.380  26.670   8.898
 2889POPC   C2B38996  13.221  26.637   8.512
 2889POPC   C3B38997  13.401  26.739   8.138
 2889POPC   C4B38998  13.330  26.577   7.753
 2890POPC   NC338999  13.869  25.209   9.747
 2890POPC   PO439000  13.413  25.361   9.268
 2890POPC   GL139001  13.380  25.173   8.925
 2890POPC   GL239002  13.529  24.883   8.983
 2890POPC   C1A39003  13.480  25.300   8.557
 2890POPC   D2A39004  13.617  25.196   8.173
 2890POPC   C3A39005  13.387  25.093   7.857
 2890POPC   C4A39006  13.582  25.287   7.514
 2890POPC   C1B39007  13.887  24.965   8.693
 2890POPC   C2B39008  14.058  24.968   8.254
 2890POPC   C3B39009  13.871  24.897   7.802
 2890POPC   C4B39010  13.948  25.010   7.327
 2891POPC   NC339011  28.849   7.736   9.449
 2891POPC   PO439012  29.296   7.421   9.778
 2891POPC   GL139013  29.200   7.424   9.290
 2891POPC   GL239014  29.400   7.663   9.147
 2891POPC   C1A39015  29.163   7.307   8.840
 2891POPC   D2A39016  29.094   7.444   8.405
 2891POPC   C3A39017  29.260   7.346   7.995
 2891POPC   C4A39018  29.225   7.379   7.551
 2891POPC   C1B39019  29.420   7.816   8.708
 2891POPC   C2B39020  29.467   7.778   8.253
 2891POPC   C3B39021  29.458   7.784   7.775
 2891POPC   C4B39022  29.534   7.733   7.309
 2892POPC   NC339023  27.896   3.621   9.481
 2892POPC   PO439024  27.268   3.830   9.409
 2892POPC   GL139025  27.538   3.754   9.094
 2892POPC   GL239026  27.804   3.975   9.130
 2892POPC   C1A39027  27.578   3.408   8.821
 2892POPC   D2A39028  27.546   3.209   8.418
 2892POPC   C3A39029  27.331   3.486   8.136
 2892POPC   C4A39030  27.488   3.529   7.747
 2892POPC   C1B39031  27.897   3.818   8.720
 2892POPC   C2B39032  27.802   3.648   8.311
 2892POPC   C3B39033  27.935   3.700   7.894
 2892POPC   C4B39034  28.227   3.815   7.571
 2893POPC   NC339035  38.250  34.456   9.458
 2893POPC   PO439036  38.925  34.666   9.500
 2893POPC   GL139037  38.714  34.472   9.186
 2893POPC   GL239038  38.469  34.748   9.086
 2893POPC   C1A39039  38.628  34.356   8.778
 2893POPC   D2A39040  38.495  34.655   8.440
 2893POPC   C3A39041  38.616  34.495   8.039
 2893POPC   C4A39042  38.469  34.231   7.736
 2893POPC   C1B39043  38.188  34.939   8.771
 2893POPC   C2B39044  38.091  34.972   8.351
 2893POPC   C3B39045  38.159  34.725   8.005
 2893POPC   C4B39046  38.422  34.802   7.654
 2894POPC   NC339047   0.254  15.246   9.396
 2894POPC   PO439048   0.854  15.590   9.317
 2894POPC   GL139049   0.584  15.408   9.015
 2894POPC   GL239050   0.578  15.061   8.965
 2894POPC   C1A39051   0.544  15.531   8.586
 2894POPC   D2A39052   0.853  15.526   8.271
 2894POPC   C3A39053   0.738  15.185   8.054
 2894POPC   C4A39054   0.450  15.224   7.776
 2894POPC   C1B39055   0.251  15.137   8.727
 2894POPC   C2B39056   0.302  15.130   8.318
 2894POPC   C3B39057   0.359  14.797   8.032
 2894POPC   C4B39058   0.226  14.774   7.577
 2895POPC   NC339059  31.277   6.091   9.537
 2895POPC   PO439060  31.485   5.500   9.381
 2895POPC   GL139061  31.492   5.829   9.122
 2895POPC   GL239062  31.144   5.915   9.090
 2895POPC   C1A39063  31.664   5.701   8.741
 2895POPC   D2A39064  31.688   5.899   8.353
 2895POPC   C3A39065  31.776   5.666   7.986
 2895POPC   C4A39066  31.608   5.953   7.680
 2895POPC   C1B39067  31.257   5.990   8.694
 2895POPC   C2B39068  31.164   5.741   8.358
 2895POPC   C3B39069  31.247   5.690   7.944
 2895POPC   C4B39070  31.018   5.975   7.678
 2896POPC   NC339071  23.748   9.201   9.616
 2896POPC   PO439072  23.292   8.679   9.237
 2896POPC   GL139073  23.518   8.960   8.902
 2896POPC   GL239074  23.779   9.215   9.038
 2896POPC   C1A39075  23.738   8.926   8.587
 2896POPC   D2A39076  23.580   9.119   8.255
 2896POPC   C3A39077  23.767   8.871   7.993
 2896POPC   C4A39078  23.604   8.654   7.682
 2896POPC   C1B39079  23.629   9.420   8.685
 2896POPC   C2B39080  23.770   9.605   8.295
 2896POPC   C3B39081  23.732   9.429   7.878
 2896POPC   C4B39082  23.429   9.204   7.703
 2897POPC   NC339083  35.702  25.088   9.462
 2897POPC   PO439084  35.036  25.301   9.391
 2897POPC   GL139085  35.311  25.129   9.111
 2897POPC   GL239086  35.540  25.377   9.077
 2897POPC   C1A39087  35.403  24.905   8.733
 2897POPC   D2A39088  35.195  24.878   8.323
 2897POPC   C3A39089  35.362  25.036   7.915
 2897POPC   C4A39090  35.342  25.319   7.557
 2897POPC   C1B39091  35.457  25.550   8.718
 2897POPC   C2B39092  35.444  25.339   8.359
 2897POPC   C3B39093  35.347  25.560   7.992
 2897POPC   C4B39094  35.630  25.731   7.671
 2898POPC   NC339095   3.870  26.371   9.788
 2898POPC   PO439096   3.343  26.003   9.841
 2898POPC   GL139097   3.402  25.911   9.321
 2898POPC   GL239098   3.672  25.743   9.322
 2898POPC   C1A39099   3.448  26.095   8.815
 2898POPC   D2A39100   3.286  26.089   8.366
 2898POPC   C3A39101   3.612  26.119   8.040
 2898POPC   C4A39102   3.803  26.218   7.634
 2898POPC   C1B39103   3.652  25.627   8.877
 2898POPC   C2B39104   3.674  25.767   8.453
 2898POPC   C3B39105   3.495  25.619   8.075
 2898POPC   C4B39106   3.508  25.802   7.644
 2899POPC   NC339107   5.569  23.024   9.381
 2899POPC   PO439108   6.295  23.077   9.476
 2899POPC   GL139109   6.021  23.194   9.135
 2899POPC   GL239110   5.981  22.839   9.090
 2899POPC   C1A39111   5.735  23.141   8.752
 2899POPC   D2A39112   5.787  22.899   8.380
 2899POPC   C3A39113   5.729  23.118   8.026
 2899POPC   C4A39114   5.862  23.185   7.643
 2899POPC   C1B39115   6.239  22.538   8.819
 2899POPC   C2B39116   6.349  22.482   8.367
 2899POPC   C3B39117   6.162  22.749   8.036
 2899POPC   C4B39118   5.994  22.703   7.601
 2900POPC   NC339119  18.353   3.316   9.515
 2900POPC   PO439120  18.502   2.562   9.465
 2900POPC   GL139121  18.346   2.880   9.173
 2900POPC   GL239122  18.503   3.144   9.066
 2900POPC   C1A39123  18.164   2.804   8.763
 2900POPC   D2A39124  18.344   2.617   8.394
 2900POPC   C3A39125  18.174   2.684   7.997
 2900POPC   C4A39126  18.334   2.698   7.581
 2900POPC   C1B39127  18.386   3.252   8.650
 2900POPC   C2B39128  18.359   3.132   8.213
 2900POPC   C3B39129  18.246   3.184   7.765
 2900POPC   C4B39130  18.406   3.150   7.322
 2901POPC   NC339131  22.778  34.813   9.324
 2901POPC   PO439132  23.235  34.396   9.626
 2901POPC   GL139133  23.113  34.425   9.211
 2901POPC   GL239134  22.791  34.322   9.235
 2901POPC   C1A39135  22.930  34.501   8.789
 2901POPC   D2A39136  22.685  34.618   8.465
 2901POPC   C3A39137  22.958  34.748   8.140
 2901POPC   C4A39138  22.960  34.637   7.708
 2901POPC   C1B39139  22.548  34.173   8.885
 2901POPC   C2B39140  22.696  34.031   8.473
 2901POPC   C3B39141  22.742  34.261   8.090
 2901POPC   C4B39142  22.535  34.314   7.711
 2902POPC   NC339143  41.985  15.732   9.448
 2902POPC   PO439144  42.591  15.946   9.301
 2902POPC   GL139145  42.227  15.928   9.065
 2902POPC   GL239146  41.957  16.174   9.131
 2902POPC   C1A39147  42.166  15.822   8.680
 2902POPC   D2A39148  42.489  15.912   8.405
 2902POPC   C3A39149  42.369  15.738   8.049
 2902POPC   C4A39150  42.254  15.907   7.693
 2902POPC   C1B39151  42.139  16.329   8.761
 2902POPC   C2B39152  42.341  16.443   8.411
 2902POPC   C3B39153  42.379  16.287   8.030
 2902POPC   C4B39154  42.104  16.392   7.727
 2903POPC   NC339155  24.346  39.496   9.557
 2903POPC   PO439156  24.306  38.882   9.604
 2903POPC   GL139157  24.255  39.272   9.135
 2903POPC   GL239158  24.614  39.383   9.110
 2903POPC   C1A39159  24.324  39.182   8.650
 2903POPC   D2A39160  24.223  38.957   8.265
 2903POPC   C3A39161  24.382  39.239   7.976
 2903POPC   C4A39162  24.200  39.514   7.719
 2903POPC   C1B39163  24.599  39.611   8.730
 2903POPC   C2B39164  24.768  39.533   8.327
 2903POPC   C3B39165  24.739  39.681   7.932
 2903POPC   C4B39166  24.686  39.438   7.612
 2904POPC   NC339167  30.194  36.675   9.693
 2904POPC   PO439168  30.757  37.070   9.537
 2904POPC   GL139169  30.711  36.824   9.100
 2904POPC   GL239170  30.372  36.599   9.129
 2904POPC   C1A39171  30.770  36.942   8.660
 2904POPC   D2A39172  30.511  37.047   8.315
 2904POPC   C3A39173  30.825  37.091   8.012
 2904POPC   C4A39174  31.016  37.143   7.623
 2904POPC   C1B39175  30.332  36.723   8.728
 2904POPC   C2B39176  30.551  36.523   8.385
 2904POPC   C3B39177  30.532  36.652   7.988
 2904POPC   C4B39178  30.800  36.675   7.698
 2905POPC   NC339179  26.006  10.374   5.397
 2905POPC   PO439180  26.529  10.765   5.194
 2905POPC   GL139181  26.154  10.764   5.659
 2905POPC   GL239182  26.228  10.425   5.865
 2905POPC   C1A39183  26.041  10.717   6.198
 2905POPC   D2A39184  26.041  10.503   6.644
 2905POPC   C3A39185  25.889  10.752   7.019
 2905POPC   C4A39186  25.907  10.817   7.534
 2905POPC   C1B39187  26.103  10.168   6.240
 2905POPC   C2B39188  25.845  10.024   6.622
 2905POPC   C3B39189  25.788  10.250   7.053
 2905POPC   C4B39190  26.204  10.476   7.289
 2906POPC   NC339191  32.162  43.269   5.542
 2906POPC   PO439192  32.634  42.856   5.305
 2906POPC   GL139193  32.515  42.932   5.764
 2906POPC   GL239194  32.164  42.918   5.914
 2906POPC   C1A39195  32.541  43.020   6.225
 2906POPC   D2A39196  32.236  42.840   6.517
 2906POPC   C3A39197  32.374  42.726   6.921
 2906POPC   C4A39198  32.593  43.026   7.193
 2906POPC   C1B39199  32.007  43.229   6.190
 2906POPC   C2B39200  31.757  43.414   6.477
 2906POPC   C3B39201  31.859  43.398   6.903
 2906POPC   C4B39202  32.080  43.074   7.150
 2907POPC   NC339203   6.166  39.508   5.117
 2907POPC   PO439204   5.668  39.160   5.447
 2907POPC   GL139205   5.847  39.212   5.782
 2907POPC   GL239206   6.165  39.316   5.659
 2907POPC   C1A39207   5.902  39.361   6.182
 2907POPC   D2A39208   5.722  39.196   6.533
 2907POPC   C3A39209   5.904  39.352   6.875
 2907POPC   C4A39210   5.731  39.193   7.268
 2907POPC   C1B39211   6.246  38.972   5.991
 2907POPC   C2B39212   6.219  39.019   6.437
 2907POPC   C3B39213   6.080  38.886   6.834
 2907POPC   C4B39214   6.194  38.987   7.243
 2908POPC   NC339215  10.349  35.165   5.475
 2908POPC   PO439216  10.419  34.484   5.452
 2908POPC   GL139217  10.629  34.494   5.844
 2908POPC   GL239218  10.570  34.874   5.872
 2908POPC   C1A39219  10.670  34.271   6.263
 2908POPC   D2A39220  10.478  34.330   6.678
 2908POPC   C3A39221  10.708  34.413   7.049
 2908POPC   C4A39222  10.623  34.556   7.465
 2908POPC   C1B39223  10.639  34.764   6.311
 2908POPC   C2B39224  10.708  34.968   6.700
 2908POPC   C3B39225  10.642  34.954   7.148
 2908POPC   C4B39226  10.964  34.908   7.500
 2909POPC   NC339227  35.171  43.666   5.463
 2909POPC   PO439228  35.611  43.985   5.041
 2909POPC   GL139229  35.620  43.982   5.576
 2909POPC   GL239230  35.285  44.105   5.763
 2909POPC   C1A39231  35.605  43.877   6.084
 2909POPC   D2A39232  35.372  43.714   6.471
 2909POPC   C3A39233  35.478  43.876   6.886
 2909POPC   C4A39234  35.518  43.970   7.354
 2909POPC   C1B39235  35.093  44.101   6.225
 2909POPC   C2B39236  34.929  44.047   6.687
 2909POPC   C3B39237  35.106  44.139   7.113
 2909POPC   C4B39238  35.048  44.094   7.576
 2910POPC   NC339239  42.176  37.295   5.068
 2910POPC   PO439240  42.446  37.951   5.322
 2910POPC   GL139241  42.508  37.834   5.744
 2910POPC   GL239242  42.146  37.877   5.773
 2910POPC   C1A39243  42.578  37.606   6.147
 2910POPC   D2A39244  42.604  37.230   6.447
 2910POPC   C3A39245  42.624  37.406   6.869
 2910POPC   C4A39246  42.328  37.435   7.220
 2910POPC   C1B39247  42.031  37.678   6.151
 2910POPC   C2B39248  41.879  37.804   6.527
 2910POPC   C3B39249  42.075  37.717   6.876
 2910POPC   C4B39250  41.952  37.777   7.265
 2911POPC   NC339251   3.683  40.186   5.443
 2911POPC   PO439252   3.079  40.054   5.344
 2911POPC   GL139253   3.340  39.994   5.762
 2911POPC   GL239254   3.594  40.235   5.948
 2911POPC   C1A39255   3.299  39.910   6.204
 2911POPC   D2A39256   3.426  40.113   6.549
 2911POPC   C3A39257   3.272  40.005   6.935
 2911POPC   C4A39258   3.406  39.648   7.175
 2911POPC   C1B39259   3.852  40.284   6.320
 2911POPC   C2B39260   4.099  40.349   6.696
 2911POPC   C3B39261   3.833  40.174   6.961
 2911POPC   C4B39262   3.635  40.063   7.287
 2912POPC   NC339263  30.296  22.046   5.113
 2912POPC   PO439264  29.818  22.417   5.261
 2912POPC   GL139265  29.825  22.198   5.677
 2912POPC   GL239266  29.701  22.402   5.916
 2912POPC   C1A39267  30.052  22.085   6.088
 2912POPC   D2A39268  29.954  21.903   6.522
 2912POPC   C3A39269  30.168  21.990   6.902
 2912POPC   C4A39270  29.930  21.944   7.294
 2912POPC   C1B39271  29.649  22.293   6.328
 2912POPC   C2B39272  29.818  22.336   6.751
 2912POPC   C3B39273  29.927  22.432   7.189
 2912POPC   C4B39274  29.868  22.621   7.605
 2913POPC   NC339275  33.157  23.706   5.405
 2913POPC   PO439276  32.562  24.000   5.630
 2913POPC   GL139277  32.939  23.907   5.857
 2913POPC   GL239278  32.976  23.566   5.882
 2913POPC   C1A39279  33.131  23.949   6.285
 2913POPC   D2A39280  32.982  24.053   6.734
 2913POPC   C3A39281  33.168  23.963   7.146
 2913POPC   C4A39282  33.151  24.186   7.528
 2913POPC   C1B39283  32.712  23.638   6.259
 2913POPC   C2B39284  32.786  23.575   6.687
 2913POPC   C3B39285  32.689  23.762   7.073
 2913POPC   C4B39286  32.881  23.554   7.377
 2914POPC   NC339287   6.229   7.403   5.425
 2914POPC   PO439288   5.936   7.971   5.612
 2914POPC   GL139289   5.977   7.549   5.876
 2914POPC   GL239290   6.166   7.199   5.866
 2914POPC   C1A39291   5.815   7.535   6.316
 2914POPC   D2A39292   5.544   7.491   6.687
 2914POPC   C3A39293   5.672   7.671   7.039
 2914POPC   C4A39294   5.425   7.905   7.306
 2914POPC   C1B39295   5.873   7.046   6.165
 2914POPC   C2B39296   5.877   7.119   6.628
 2914POPC   C3B39297   5.725   7.159   7.073
 2914POPC   C4B39298   5.571   7.396   7.462
 2915POPC   NC339299  18.475  18.348   5.414
 2915POPC   PO439300  17.891  17.967   5.530
 2915POPC   GL139301  18.214  18.198   5.847
 2915POPC   GL239302  18.536  18.439   5.902
 2915POPC   C1A39303  18.218  18.293   6.275
 2915POPC   D2A39304  18.395  18.256   6.678
 2915POPC   C3A39305  18.244  18.409   7.043
 2915POPC   C4A39306  17.901  18.186   7.152
 2915POPC   C1B39307  18.735  18.178   6.237
 2915POPC   C2B39308  18.820  18.006   6.640
 2915POPC   C3B39309  18.634  17.945   7.044
 2915POPC   C4B39310  18.616  18.208   7.385
 2916POPC   NC339311  38.977  13.392   5.241
 2916POPC   PO439312  39.305  14.002   5.121
 2916POPC   GL139313  39.186  13.784   5.558
 2916POPC   GL239314  39.261  13.461   5.724
 2916POPC   C1A39315  39.136  13.843   6.044
 2916POPC   D2A39316  39.224  13.693   6.484
 2916POPC   C3A39317  39.022  13.630   6.886
 2916POPC   C4A39318  39.211  13.790   7.262
 2916POPC   C1B39319  39.284  13.286   6.184
 2916POPC   C2B39320  39.339  13.241   6.682
 2916POPC   C3B39321  39.398  13.199   7.159
 2916POPC   C4B39322  39.757  13.117   7.463
 2917POPC   NC339323  21.881  24.466   5.239
 2917POPC   PO439324  22.294  24.875   5.482
 2917POPC   GL139325  22.140  24.515   5.690
 2917POPC   GL239326  21.856  24.663   5.699
 2917POPC   C1A39327  22.159  24.404   6.123
 2917POPC   D2A39328  22.394  24.519   6.508
 2917POPC   C3A39329  22.315  24.344   6.915
 2917POPC   C4A39330  22.274  24.595   7.257
 2917POPC   C1B39331  21.890  24.853   6.097
 2917POPC   C2B39332  21.909  24.677   6.522
 2917POPC   C3B39333  21.842  24.672   6.947
 2917POPC   C4B39334  21.854  24.293   7.151
 2918POPC   NC339335   3.020  34.371   5.569
 2918POPC   PO439336   2.436  34.439   5.246
 2918POPC   GL139337   2.543  34.631   5.710
 2918POPC   GL239338   2.848  34.801   5.892
 2918POPC   C1A39339   2.574  34.511   6.187
 2918POPC   D2A39340   2.596  34.356   6.613
 2918POPC   C3A39341   2.657  34.593   7.004
 2918POPC   C4A39342   2.706  34.563   7.475
 2918POPC   C1B39343   3.086  34.601   6.240
 2918POPC   C2B39344   3.069  34.585   6.692
 2918POPC   C3B39345   3.142  34.643   7.138
 2918POPC   C4B39346   3.128  34.847   7.566
 2919POPC   NC339347   2.943  16.498   5.280
 2919POPC   PO439348   2.847  17.119   5.395
 2919POPC   GL139349   2.959  16.793   5.695
 2919POPC   GL239350   2.638  16.815   5.882
 2919POPC   C1A39351   3.070  16.572   6.075
 2919POPC   D2A39352   2.785  16.632   6.419
 2919POPC   C3A39353   2.887  16.580   6.854
 2919POPC   C4A39354   2.624  16.629   7.204
 2919POPC   C1B39355   2.447  17.043   6.257
 2919POPC   C2B39356   2.497  17.256   6.679
 2919POPC   C3B39357   2.440  17.092   7.117
 2919POPC   C4B39358   2.629  17.084   7.570
 2920POPC   NC339359  36.855  36.407   5.188
 2920POPC   PO439360  37.221  35.952   5.309
 2920POPC   GL139361  36.936  36.137   5.641
 2920POPC   GL239362  36.801  35.833   5.745
 2920POPC   C1A39363  36.813  36.184   6.108
 2920POPC   D2A39364  37.029  36.096   6.495
 2920POPC   C3A39365  36.904  36.250   6.884
 2920POPC   C4A39366  37.188  36.500   7.094
 2920POPC   C1B39367  36.552  35.721   6.090
 2920POPC   C2B39368  36.501  35.879   6.480
 2920POPC   C3B39369  36.501  35.767   6.900
 2920POPC   C4B39370  36.638  35.997   7.244
 2921POPC   NC339371  42.658  17.179   5.406
 2921POPC   PO439372  43.308  17.455   5.440
 2921POPC   GL139373  43.061  17.464   5.789
 2921POPC   GL239374  42.785  17.650   5.701
 2921POPC   C1A39375  43.071  17.644   6.206
 2921POPC   D2A39376  43.376  17.791   6.521
 2921POPC   C3A39377  43.221  17.690   6.915
 2921POPC   C4A39378  43.415  17.730   7.307
 2921POPC   C1B39379  42.628  17.372   6.056
 2921POPC   C2B39380  42.737  17.312   6.473
 2921POPC   C3B39381  42.663  17.324   6.894
 2921POPC   C4B39382  42.890  17.438   7.243
 2922POPC   NC339383  42.352   5.841   4.901
 2922POPC   PO439384  42.730   5.887   5.483
 2922POPC   GL139385  42.618   6.192   5.754
 2922POPC   GL239386  42.280   6.228   5.688
 2922POPC   C1A39387  42.533   6.239   6.158
 2922POPC   D2A39388  42.567   5.987   6.507
 2922POPC   C3A39389  42.379   6.037   6.885
 2922POPC   C4A39390  42.497   5.816   7.209
 2922POPC   C1B39391  42.282   5.844   5.998
 2922POPC   C2B39392  42.219   5.624   6.420
 2922POPC   C3B39393  42.169   5.565   6.877
 2922POPC   C4B39394  42.036   5.636   7.312
 2923POPC   NC339395  26.587  36.859   5.395
 2923POPC   PO439396  27.141  36.698   5.664
 2923POPC   GL139397  26.775  36.665   5.880
 2923POPC   GL239398  26.638  36.987   5.893
 2923POPC   C1A39399  26.735  36.703   6.318
 2923POPC   D2A39400  26.652  36.913   6.707
 2923POPC   C3A39401  26.806  36.682   7.026
 2923POPC   C4A39402  27.175  36.583   7.232
 2923POPC   C1B39403  26.972  37.133   6.176
 2923POPC   C2B39404  27.168  36.951   6.540
 2923POPC   C3B39405  27.164  37.044   6.968
 2923POPC   C4B39406  26.806  37.296   7.037
 2924POPC   NC339407  32.942  14.798   5.542
 2924POPC   PO439408  33.104  15.439   5.949
 2924POPC   GL139409  33.005  15.060   5.964
 2924POPC   GL239410  33.307  14.947   5.878
 2924POPC   C1A39411  32.711  14.870   6.219
 2924POPC   D2A39412  32.546  15.041   6.622
 2924POPC   C3A39413  32.840  15.067   6.959
 2924POPC   C4A39414  32.928  15.448   7.187
 2924POPC   C1B39415  33.306  14.931   6.354
 2924POPC   C2B39416  33.259  15.259   6.685
 2924POPC   C3B39417  33.324  15.106   7.095
 2924POPC   C4B39418  33.189  14.716   7.233
 2925POPC   NC339419  34.035   9.341   5.480
 2925POPC   PO439420  33.644   9.855   5.218
 2925POPC   GL139421  33.681   9.705   5.664
 2925POPC   GL239422  33.440   9.916   5.771
 2925POPC   C1A39423  33.888   9.883   6.061
 2925POPC   D2A39424  34.043   9.761   6.478
 2925POPC   C3A39425  33.934   9.952   6.865
 2925POPC   C4A39426  33.759   9.602   7.047
 2925POPC   C1B39427  33.388  10.010   6.205
 2925POPC   C2B39428  33.487   9.855   6.608
 2925POPC   C3B39429  33.410   9.973   7.026
 2925POPC   C4B39430  33.717  10.071   7.336
 2926POPC   NC339431  33.397  17.234   5.471
 2926POPC   PO439432  33.659  17.712   5.182
 2926POPC   GL139433  33.775  17.541   5.659
 2926POPC   GL239434  33.988  17.760   5.925
 2926POPC   C1A39435  33.742  17.383   6.134
 2926POPC   D2A39436  33.810  17.124   6.526
 2926POPC   C3A39437  33.785  17.303   6.954
 2926POPC   C4A39438  33.719  17.671   7.175
 2926POPC   C1B39439  34.230  17.585   6.238
 2926POPC   C2B39440  34.059  17.568   6.605
 2926POPC   C3B39441  34.087  17.871   6.883
 2926POPC   C4B39442  34.241  17.809   7.269
 2927POPC   NC339443  11.754  38.483   5.536
 2927POPC   PO439444  12.385  38.268   5.533
 2927POPC   GL139445  12.215  38.549   5.797
 2927POPC   GL239446  12.079  38.865   5.719
 2927POPC   C1A39447  12.228  38.622   6.194
 2927POPC   D2A39448  12.030  38.472   6.522
 2927POPC   C3A39449  12.201  38.624   6.864
 2927POPC   C4A39450  12.039  38.601   7.233
 2927POPC   C1B39451  11.779  38.834   6.080
 2927POPC   C2B39452  11.547  38.760   6.445
 2927POPC   C3B39453  11.691  38.679   6.843
 2927POPC   C4B39454  11.565  38.804   7.235
 2928POPC   NC339455  24.569  15.553   5.236
 2928POPC   PO439456  24.347  14.907   5.411
 2928POPC   GL139457  24.530  15.069   5.764
 2928POPC   GL239458  24.284  15.309   5.754
 2928POPC   C1A39459  24.531  14.935   6.204
 2928POPC   D2A39460  24.400  15.042   6.641
 2928POPC   C3A39461  24.700  15.144   6.978
 2928POPC   C4A39462  24.743  15.075   7.454
 2928POPC   C1B39463  24.114  15.234   6.137
 2928POPC   C2B39464  24.117  15.450   6.497
 2928POPC   C3B39465  24.042  15.316   6.910
 2928POPC   C4B39466  24.281  15.163   7.243
 2929POPC   NC339467  42.952  42.976   5.421
 2929POPC   PO439468  43.567  43.187   5.120
 2929POPC   GL139469  43.380  43.205   5.636
 2929POPC   GL239470  43.058  43.081   5.885
 2929POPC   C1A39471  43.469  43.162   6.129
 2929POPC   D2A39472  43.230  43.093   6.537
 2929POPC   C3A39473  43.399  43.223   6.940
 2929POPC   C4A39474  43.301  43.576   7.186
 2929POPC   C1B39475  42.849  42.881   6.257
 2929POPC   C2B39476  42.824  42.839   6.724
 2929POPC   C3B39477  43.075  42.872   7.121
 2929POPC   C4B39478  42.902  42.932   7.551
 2930POPC   NC339479  38.861  39.328   5.638
 2930POPC   PO439480  38.329  39.055   5.433
 2930POPC   GL139481  38.474  39.072   5.862
 2930POPC   GL239482  38.463  39.452   5.945
 2930POPC   C1A39483  38.687  39.131   6.271
 2930POPC   D2A39484  38.532  39.417   6.600
 2930POPC   C3A39485  38.411  39.274   7.026
 2930POPC   C4A39486  38.481  39.120   7.442
 2930POPC   C1B39487  38.804  39.646   6.210
 2930POPC   C2B39488  39.010  39.666   6.584
 2930POPC   C3B39489  38.880  39.550   6.971
 2930POPC   C4B39490  38.755  39.564   7.387
 2931POPC   NC339491  33.559  35.451   5.486
 2931POPC   PO439492  33.981  34.932   5.240
 2931POPC   GL139493  33.992  35.109   5.654
 2931POPC   GL239494  34.304  35.283   5.809
 2931POPC   C1A39495  33.857  35.085   6.078
 2931POPC   D2A39496  33.921  34.986   6.511
 2931POPC   C3A39497  33.822  35.211   6.885
 2931POPC   C4A39498  34.038  35.147   7.270
 2931POPC   C1B39499  34.198  35.421   6.273
 2931POPC   C2B39500  34.076  35.648   6.665
 2931POPC   C3B39501  34.007  35.633   7.118
 2931POPC   C4B39502  34.074  35.935   7.410
 2932POPC   NC339503  38.290  42.027   5.436
 2932POPC   PO439504  38.690  42.531   5.376
 2932POPC   GL139505  38.626  42.464   5.804
 2932POPC   GL239506  38.623  42.084   5.821
 2932POPC   C1A39507  38.486  42.688   6.201
 2932POPC   D2A39508  38.229  42.722   6.567
 2932POPC   C3A39509  38.305  42.521   6.994
 2932POPC   C4A39510  38.274  42.380   7.440
 2932POPC   C1B39511  38.329  42.210   6.142
 2932POPC   C2B39512  38.457  42.263   6.544
 2932POPC   C3B39513  38.321  42.012   6.854
 2932POPC   C4B39514  38.033  42.053   7.140
 2933POPC   NC339515  22.726  19.175   5.524
 2933POPC   PO439516  22.825  18.503   5.603
 2933POPC   GL139517  22.841  18.864   5.902
 2933POPC   GL239518  23.083  19.195   5.887
 2933POPC   C1A39519  22.990  18.893   6.302
 2933POPC   D2A39520  23.135  18.552   6.561
 2933POPC   C3A39521  23.190  18.764   6.943
 2933POPC   C4A39522  23.090  19.064   7.261
 2933POPC   C1B39523  22.787  19.363   6.193
 2933POPC   C2B39524  22.677  19.221   6.597
 2933POPC   C3B39525  22.687  19.276   7.034
 2933POPC   C4B39526  22.615  19.085   7.442
 2934POPC   NC339527  19.652  33.933   5.461
 2934POPC   PO439528  19.831  33.301   5.391
 2934POPC   GL139529  19.684  33.570   5.815
 2934POPC   GL239530  19.810  33.886   5.944
 2934POPC   C1A39531  19.853  33.549   6.290
 2934POPC   D2A39532  19.996  33.816   6.633
 2934POPC   C3A39533  19.896  33.626   7.025
 2934POPC   C4A39534  19.900  33.352   7.394
 2934POPC   C1B39535  19.711  34.111   6.311
 2934POPC   C2B39536  19.498  34.210   6.696
 2934POPC   C3B39537  19.482  34.268   7.138
 2934POPC   C4B39538  19.883  34.232   7.342
 2935POPC   NC339539  24.997  35.052   5.301
 2935POPC   PO439540  25.175  34.363   5.403
 2935POPC   GL139541  25.162  34.707   5.741
 2935POPC   GL239542  25.505  34.857   5.795
 2935POPC   C1A39543  25.175  34.851   6.216
 2935POPC   D2A39544  25.194  34.779   6.677
 2935POPC   C3A39545  24.955  34.609   7.015
 2935POPC   C4A39546  24.970  34.259   7.316
 2935POPC   C1B39547  25.672  34.719   6.215
 2935POPC   C2B39548  25.698  34.897   6.630
 2935POPC   C3B39549  25.515  34.863   7.059
 2935POPC   C4B39550  25.373  34.555   7.345
 2936POPC   NC339551  25.048  18.257   5.726
 2936POPC   PO439552  25.662  18.361   5.467
 2936POPC   GL139553  25.549  18.246   5.838
 2936POPC   GL239554  25.404  18.547   5.957
 2936POPC   C1A39555  25.446  18.144   6.250
 2936POPC   D2A39556  25.225  18.366   6.506
 2936POPC   C3A39557  24.997  18.144   6.795
 2936POPC   C4A39558  25.246  17.937   7.128
 2936POPC   C1B39559  25.460  18.813   6.323
 2936POPC   C2B39560  25.297  18.806   6.732
 2936POPC   C3B39561  25.310  18.473   7.014
 2936POPC   C4B39562  25.608  18.349   7.286
 2937POPC   NC339563  23.002   1.653   5.207
 2937POPC   PO439564  22.867   1.076   5.547
 2937POPC   GL139565  22.845   1.228   5.879
 2937POPC   GL239566  23.155   1.424   5.839
 2937POPC   C1A39567  22.671   1.039   6.264
 2937POPC   D2A39568  22.855   1.124   6.672
 2937POPC   C3A39569  22.628   1.025   7.019
 2937POPC   C4A39570  22.763   1.180   7.408
 2937POPC   C1B39571  23.027   1.411   6.289
 2937POPC   C2B39572  23.233   1.496   6.656
 2937POPC   C3B39573  23.406   1.217   6.941
 2937POPC   C4B39574  23.265   1.169   7.338
 2938POPC   NC339575  37.180  32.355   5.415
 2938POPC   PO439576  36.480  32.358   5.269
 2938POPC   GL139577  36.739  32.156   5.682
 2938POPC   GL239578  37.074  32.064   5.830
 2938POPC   C1A39579  36.818  32.338   6.164
 2938POPC   D2A39580  37.033  32.334   6.577
 2938POPC   C3A39581  36.753  32.341   6.923
 2938POPC   C4A39582  36.850  32.272   7.341
 2938POPC   C1B39583  37.065  31.897   6.254
 2938POPC   C2B39584  37.310  31.889   6.620
 2938POPC   C3B39585  37.197  32.022   7.037
 2938POPC   C4B39586  37.075  31.781   7.382
 2939POPC   NC339587  34.833  26.439   5.372
 2939POPC   PO439588  34.314  25.912   5.469
 2939POPC   GL139589  34.674  26.008   5.750
 2939POPC   GL239590  34.743  26.346   5.870
 2939POPC   C1A39591  34.868  25.845   6.115
 2939POPC   D2A39592  34.673  25.941   6.487
 2939POPC   C3A39593  34.813  25.810   6.856
 2939POPC   C4A39594  34.701  25.917   7.253
 2939POPC   C1B39595  34.748  26.425   6.306
 2939POPC   C2B39596  34.798  26.384   6.743
 2939POPC   C3B39597  34.501  26.455   7.082
 2939POPC   C4B39598  34.397  26.268   7.467
 2940POPC   NC339599  33.403  15.512   5.602
 2940POPC   PO439600  33.578  14.941   5.233
 2940POPC   GL139601  33.745  15.083   5.681
 2940POPC   GL239602  33.965  15.347   5.749
 2940POPC   C1A39603  33.696  15.216   6.140
 2940POPC   D2A39604  33.764  15.185   6.559
 2940POPC   C3A39605  33.686  15.447   6.915
 2940POPC   C4A39606  33.782  15.226   7.268
 2940POPC   C1B39607  34.191  15.425   6.154
 2940POPC   C2B39608  34.279  15.252   6.552
 2940POPC   C3B39609  34.128  15.136   6.918
 2940POPC   C4B39610  34.243  15.388   7.270
 2941POPC   NC339611   4.116   1.885   5.476
 2941POPC   PO439612   4.755   2.132   5.330
 2941POPC   GL139613   4.520   2.078   5.734
 2941POPC   GL239614   4.235   2.292   5.866
 2941POPC   C1A39615   4.586   1.909   6.142
 2941POPC   D2A39616   4.703   2.104   6.511
 2941POPC   C3A39617   4.438   2.054   6.840
 2941POPC   C4A39618   4.524   2.065   7.267
 2941POPC   C1B39619   4.082   2.006   6.203
 2941POPC   C2B39620   3.939   2.079   6.653
 2941POPC   C3B39621   4.019   2.117   7.150
 2941POPC   C4B39622   4.127   1.885   7.543
 2942POPC   NC339623   5.280  20.859   5.376
 2942POPC   PO439624   4.709  20.458   5.462
 2942POPC   GL139625   4.973  20.635   5.766
 2942POPC   GL239626   5.340  20.574   5.775
 2942POPC   C1A39627   5.015  20.702   6.200
 2942POPC   D2A39628   4.943  20.461   6.548
 2942POPC   C3A39629   4.800  20.617   6.939
 2942POPC   C4A39630   4.988  20.396   7.276
 2942POPC   C1B39631   5.514  20.587   6.137
 2942POPC   C2B39632   5.489  20.655   6.535
 2942POPC   C3B39633   5.309  20.564   6.906
 2942POPC   C4B39634   5.214  20.841   7.225
 2943POPC   NC339635  33.278  17.909   5.011
 2943POPC   PO439636  33.271  18.439   5.414
 2943POPC   GL139637  33.060  18.276   5.795
 2943POPC   GL239638  32.840  17.984   5.743
 2943POPC   C1A39639  32.881  18.376   6.227
 2943POPC   D2A39640  32.603  18.544   6.579
 2943POPC   C3A39641  32.748  18.589   6.987
 2943POPC   C4A39642  33.130  18.394   7.093
 2943POPC   C1B39643  32.984  17.862   6.180
 2943POPC   C2B39644  33.151  17.829   6.650
 2943POPC   C3B39645  33.079  17.858   7.126
 2943POPC   C4B39646  32.945  17.944   7.592
 2944POPC   NC339647  21.389  18.153   5.323
 2944POPC   PO439648  21.356  18.731   5.361
 2944POPC   GL139649  21.543  18.498   5.729
 2944POPC   GL239650  21.525  18.114   5.801
 2944POPC   C1A39651  21.523  18.537   6.158
 2944POPC   D2A39652  21.277  18.502   6.483
 2944POPC   C3A39653  21.427  18.475   6.850
 2944POPC   C4A39654  21.384  18.485   7.242
 2944POPC   C1B39655  21.561  17.909   6.181
 2944POPC   C2B39656  21.424  18.015   6.564
 2944POPC   C3B39657  21.544  17.973   6.963
 2944POPC   C4B39658  21.830  18.233   7.192
 2945POPC   NC339659  31.915  32.521   5.292
 2945POPC   PO439660  31.335  32.121   5.243
 2945POPC   GL139661  31.357  32.002   5.726
 2945POPC   GL239662  31.713  31.914   5.871
 2945POPC   C1A39663  31.212  32.164   6.173
 2945POPC   D2A39664  31.186  32.035   6.626
 2945POPC   C3A39665  31.234  32.293   7.001
 2945POPC   C4A39666  31.320  32.426   7.441
 2945POPC   C1B39667  31.650  31.958   6.349
 2945POPC   C2B39668  31.655  31.957   6.831
 2945POPC   C3B39669  31.611  31.936   7.301
 2945POPC   C4B39670  31.761  31.763   7.711
 2946POPC   NC339671  40.269  30.862   5.453
 2946POPC   PO439672  39.763  30.385   5.420
 2946POPC   GL139673  39.869  30.687   5.724
 2946POPC   GL239674  40.144  30.472   5.779
 2946POPC   C1A39675  39.949  30.977   6.076
 2946POPC   D2A39676  40.020  31.092   6.501
 2946POPC   C3A39677  39.836  30.999   6.883
 2946POPC   C4A39678  39.980  31.067   7.301
 2946POPC   C1B39679  40.056  30.500   6.205
 2946POPC   C2B39680  40.157  30.607   6.617
 2946POPC   C3B39681  39.898  30.510   6.958
 2946POPC   C4B39682  39.768  30.337   7.305
 2947POPC   NC339683  24.888  37.961   5.752
 2947POPC   PO439684  25.148  38.394   5.348
 2947POPC   GL139685  25.184  38.390   5.757
 2947POPC   GL239686  25.478  38.177   5.800
 2947POPC   C1A39687  25.006  38.467   6.150
 2947POPC   D2A39688  25.209  38.535   6.511
 2947POPC   C3A39689  25.117  38.562   6.906
 2947POPC   C4A39690  25.472  38.656   7.129
 2947POPC   C1B39691  25.358  38.101   6.245
 2947POPC   C2B39692  25.347  38.054   6.717
 2947POPC   C3B39693  25.264  38.143   7.161
 2947POPC   C4B39694  24.805  38.213   7.162
 2948POPC   NC339695  30.955   7.363   5.132
 2948POPC   PO439696  31.469   7.522   5.550
 2948POPC   GL139697  31.441   7.381   5.931
 2948POPC   GL239698  31.103   7.520   5.975
 2948POPC   C1A39699  31.650   7.569   6.277
 2948POPC   D2A39700  31.567   7.374   6.649
 2948POPC   C3A39701  31.250   7.575   6.907
 2948POPC   C4A39702  31.410   7.471   7.281
 2948POPC   C1B39703  31.066   7.128   6.218
 2948POPC   C2B39704  31.039   7.190   6.623
 2948POPC   C3B39705  31.259   7.054   6.946
 2948POPC   C4B39706  31.052   7.090   7.283
 2949POPC   NC339707  23.402  39.111   4.993
 2949POPC   PO439708  23.871  39.450   5.416
 2949POPC   GL139709  23.887  39.183   5.741
 2949POPC   GL239710  23.551  39.088   5.795
 2949POPC   C1A39711  23.905  39.214   6.169
 2949POPC   D2A39712  23.968  39.529   6.460
 2949POPC   C3A39713  23.963  39.379   6.873
 2949POPC   C4A39714  23.796  39.500   7.230
 2949POPC   C1B39715  23.401  39.125   6.216
 2949POPC   C2B39716  23.338  38.990   6.670
 2949POPC   C3B39717  23.512  39.101   7.065
 2949POPC   C4B39718  23.368  39.225   7.454
 2950POPC   NC339719   7.250  35.085   5.610
 2950POPC   PO439720   7.632  34.450   5.463
 2950POPC   GL139721   7.461  34.651   5.813
 2950POPC   GL239722   7.230  34.388   5.890
 2950POPC   C1A39723   7.520  34.811   6.256
 2950POPC   D2A39724   7.384  34.692   6.694
 2950POPC   C3A39725   7.379  34.819   7.157
 2950POPC   C4A39726   7.576  34.699   7.541
 2950POPC   C1B39727   7.546  34.263   6.205
 2950POPC   C2B39728   7.500  34.166   6.656
 2950POPC   C3B39729   7.446  34.337   7.072
 2950POPC   C4B39730   7.291  34.280   7.506
 2951POPC   NC339731  38.796  29.385   5.386
 2951POPC   PO439732  39.402  28.946   5.352
 2951POPC   GL139733  39.206  29.150   5.692
 2951POPC   GL239734  39.370  29.483   5.658
 2951POPC   C1A39735  39.312  29.066   6.130
 2951POPC   D2A39736  39.409  28.821   6.489
 2951POPC   C3A39737  39.166  28.978   6.816
 2951POPC   C4A39738  39.069  29.083   7.220
 2951POPC   C1B39739  39.312  29.585   6.097
 2951POPC   C2B39740  39.297  29.421   6.520
 2951POPC   C3B39741  39.115  29.512   6.917
 2951POPC   C4B39742  38.943  29.596   7.304
 2952POPC   NC339743   3.441  28.957   5.172
 2952POPC   PO439744   3.725  29.562   5.435
 2952POPC   GL139745   3.630  29.376   5.853
 2952POPC   GL239746   3.678  29.073   5.794
 2952POPC   C1A39747   3.445  29.310   6.316
 2952POPC   D2A39748   3.259  29.293   6.769
 2952POPC   C3A39749   3.212  28.947   7.101
 2952POPC   C4A39750   3.147  28.822   7.584
 2952POPC   C1B39751   3.869  29.067   6.198
 2952POPC   C2B39752   3.666  28.915   6.578
 2952POPC   C3B39753   3.696  29.112   6.988
 2952POPC   C4B39754   3.486  29.498   7.187
 2953POPC   NC339755  23.112  14.795   5.044
 2953POPC   PO439756  22.795  15.208   5.504
 2953POPC   GL139757  23.094  15.363   5.765
 2953POPC   GL239758  22.815  15.324   6.035
 2953POPC   C1A39759  23.288  15.240   6.137
 2953POPC   D2A39760  23.063  15.151   6.478
 2953POPC   C3A39761  23.253  15.238   6.802
 2953POPC   C4A39762  23.091  15.314   7.180
 2953POPC   C1B39763  22.693  14.914   6.232
 2953POPC   C2B39764  22.715  14.800   6.674
 2953POPC   C3B39765  22.683  15.077   7.012
 2953POPC   C4B39766  22.596  15.118   7.455
 2954POPC   NC339767  40.305  38.752   5.581
 2954POPC   PO439768  39.703  38.538   5.276
 2954POPC   GL139769  39.801  38.536   5.714
 2954POPC   GL239770  39.694  38.209   5.802
 2954POPC   C1A39771  40.064  38.449   6.107
 2954POPC   D2A39772  40.091  38.693   6.499
 2954POPC   C3A39773  40.323  38.535   6.854
 2954POPC   C4A39774  40.163  38.715   7.207
 2954POPC   C1B39775  39.570  38.427   6.195
 2954POPC   C2B39776  39.724  38.298   6.617
 2954POPC   C3B39777  39.823  38.337   7.054
 2954POPC   C4B39778  39.957  38.140   7.461
 2955POPC   NC339779  25.618   8.262   5.111
 2955POPC   PO439780  26.291   8.319   5.341
 2955POPC   GL139781  26.212   8.272   5.798
 2955POPC   GL239782  26.198   7.944   5.919
 2955POPC   C1A39783  25.921   8.331   6.180
 2955POPC   D2A39784  25.808   8.460   6.629
 2955POPC   C3A39785  26.069   8.307   6.908
 2955POPC   C4A39786  25.989   8.303   7.327
 2955POPC   C1B39787  26.474   7.795   6.257
 2955POPC   C2B39788  26.455   7.885   6.708
 2955POPC   C3B39789  26.303   7.919   7.133
 2955POPC   C4B39790  26.490   8.092   7.522
 2956POPC   NC339791  11.800   7.252   5.349
 2956POPC   PO439792  12.403   7.616   5.319
 2956POPC   GL139793  12.201   7.441   5.661
 2956POPC   GL239794  12.290   7.756   5.812
 2956POPC   C1A39795  11.947   7.402   6.046
 2956POPC   D2A39796  11.846   7.210   6.455
 2956POPC   C3A39797  12.024   7.233   6.883
 2956POPC   C4A39798  11.935   7.441   7.307
 2956POPC   C1B39799  12.153   7.847   6.191
 2956POPC   C2B39800  12.149   7.601   6.538
 2956POPC   C3B39801  12.240   7.691   6.934
 2956POPC   C4B39802  12.380   7.711   7.301
 2957POPC   NC339803  26.630  35.963   5.303
 2957POPC   PO439804  27.120  36.447   5.158
 2957POPC   GL139805  27.072  36.203   5.637
 2957POPC   GL239806  27.242  35.908   5.814
 2957POPC   C1A39807  27.025  36.274   6.154
 2957POPC   D2A39808  27.040  36.447   6.618
 2957POPC   C3A39809  26.982  36.185   6.990
 2957POPC   C4A39810  26.600  36.250   7.215
 2957POPC   C1B39811  26.915  35.776   6.117
 2957POPC   C2B39812  26.783  35.941   6.524
 2957POPC   C3B39813  26.720  35.756   6.919
 2957POPC   C4B39814  26.456  35.753   7.260
 2958POPC   NC339815  39.565  39.822   5.543
 2958POPC   PO439816  39.051  40.197   5.356
 2958POPC   GL139817  39.120  40.031   5.784
 2958POPC   GL239818  39.358  40.285   5.911
 2958POPC   C1A39819  39.312  39.844   6.174
 2958POPC   D2A39820  39.455  40.052   6.548
 2958POPC   C3A39821  39.344  39.826   6.932
 2958POPC   C4A39822  39.489  39.926   7.353
 2958POPC   C1B39823  39.047  40.287   6.282
 2958POPC   C2B39824  38.974  40.160   6.747
 2958POPC   C3B39825  38.949  40.044   7.188
 2958POPC   C4B39826  39.098  40.240   7.554
 2959POPC   NC339827  18.107  30.777   5.455
 2959POPC   PO439828  18.467  30.256   5.479
 2959POPC   GL139829  18.454  30.551   5.865
 2959POPC   GL239830  18.695  30.831   5.949
 2959POPC   C1A39831  18.303  30.440   6.285
 2959POPC   D2A39832  18.125  30.597   6.664
 2959POPC   C3A39833  18.339  30.515   7.047
 2959POPC   C4A39834  18.235  30.651   7.460
 2959POPC   C1B39835  18.572  30.889   6.373
 2959POPC   C2B39836  18.568  30.912   6.803
 2959POPC   C3B39837  18.321  31.030   7.126
 2959POPC   C4B39838  18.379  31.139   7.531
 2960POPC   NC339839  38.258  17.092   5.404
 2960POPC   PO439840  38.234  16.439   5.395
 2960POPC   GL139841  38.452  16.655   5.746
 2960POPC   GL239842  38.428  16.989   5.894
 2960POPC   C1A39843  38.621  16.581   6.147
 2960POPC   D2A39844  38.828  16.435   6.510
 2960POPC   C3A39845  38.741  16.694   6.883
 2960POPC   C4A39846  38.530  16.602   7.282
 2960POPC   C1B39847  38.670  17.080   6.283
 2960POPC   C2B39848  38.521  17.149   6.694
 2960POPC   C3B39849  38.257  17.007   7.036
 2960POPC   C4B39850  38.233  16.987   7.477
 2961POPC   NC339851   3.509  15.097   5.439
 2961POPC   PO439852   3.856  14.625   5.818
 2961POPC   GL139853   3.736  15.064   5.905
 2961POPC   GL239854   3.414  15.299   5.886
 2961POPC   C1A39855   3.653  15.211   6.305
 2961POPC   D2A39856   3.778  15.431   6.621
 2961POPC   C3A39857   3.757  15.105   6.869
 2961POPC   C4A39858   3.797  15.210   7.251
 2961POPC   C1B39859   3.145  15.460   6.225
 2961POPC   C2B39860   3.137  15.424   6.672
 2961POPC   C3B39861   3.433  15.470   7.018
 2961POPC   C4B39862   3.389  15.417   7.477
 2962POPC   NC339863  14.092  21.948   5.365
 2962POPC   PO439864  14.605  22.494   5.384
 2962POPC   GL139865  14.307  22.306   5.705
 2962POPC   GL239866  14.321  21.924   5.814
 2962POPC   C1A39867  14.381  22.289   6.175
 2962POPC   D2A39868  14.246  22.464   6.576
 2962POPC   C3A39869  14.519  22.406   6.926
 2962POPC   C4A39870  14.446  22.346   7.353
 2962POPC   C1B39871  14.374  21.766   6.243
 2962POPC   C2B39872  14.408  21.949   6.665
 2962POPC   C3B39873  14.453  21.877   7.105
 2962POPC   C4B39874  14.702  21.642   7.410
 2963POPC   NC339875  10.596  11.746   5.143
 2963POPC   PO439876  10.570  11.114   5.327
 2963POPC   GL139877  10.449  11.271   5.726
 2963POPC   GL239878  10.759  11.204   5.941
 2963POPC   C1A39879  10.335  11.379   6.163
 2963POPC   D2A39880  10.248  11.118   6.515
 2963POPC   C3A39881  10.316  11.313   6.897
 2963POPC   C4A39882  10.350  11.627   7.189
 2963POPC   C1B39883  10.650  10.879   6.252
 2963POPC   C2B39884  10.634  10.800   6.702
 2963POPC   C3B39885  10.674  11.014   7.094
 2963POPC   C4B39886  10.620  11.301   7.439
 2964POPC   NC339887  37.793  20.305   5.434
 2964POPC   PO439888  37.513  20.887   5.247
 2964POPC   GL139889  37.445  20.839   5.757
 2964POPC   GL239890  37.555  20.471   5.857
 2964POPC   C1A39891  37.539  20.916   6.225
 2964POPC   D2A39892  37.845  20.822   6.568
 2964POPC   C3A39893  37.706  20.779   6.995
 2964POPC   C4A39894  37.724  20.686   7.440
 2964POPC   C1B39895  37.815  20.295   6.209
 2964POPC   C2B39896  37.762  20.308   6.656
 2964POPC   C3B39897  37.507  20.300   7.004
 2964POPC   C4B39898  37.637  20.190   7.396
 2965POPC   NC339899   5.334  42.801   5.250
 2965POPC   PO439900   5.141  42.173   5.149
 2965POPC   GL139901   5.089  42.165   5.632
 2965POPC   GL239902   4.760  42.076   5.742
 2965POPC   C1A39903   5.253  42.286   6.051
 2965POPC   D2A39904   5.236  42.186   6.509
 2965POPC   C3A39905   5.132  42.505   6.817
 2965POPC   C4A39906   5.119  42.513   7.243
 2965POPC   C1B39907   4.828  41.978   6.178
 2965POPC   C2B39908   4.849  41.838   6.616
 2965POPC   C3B39909   4.965  42.032   7.062
 2965POPC   C4B39910   4.694  41.972   7.515
 2966POPC   NC339911  32.930  10.567   5.566
 2966POPC   PO439912  33.424  10.990   5.693
 2966POPC   GL139913  33.144  10.738   5.994
 2966POPC   GL239914  32.756  10.757   5.987
 2966POPC   C1A39915  33.016  10.424   6.318
 2966POPC   D2A39916  32.911  10.571   6.751
 2966POPC   C3A39917  33.004  10.334   7.100
 2966POPC   C4A39918  33.238  10.205   7.440
 2966POPC   C1B39919  32.804  10.935   6.370
 2966POPC   C2B39920  32.540  10.928   6.716
 2966POPC   C3B39921  32.654  11.043   7.059
 2966POPC   C4B39922  33.064  10.884   7.152
 2967POPC   NC339923  41.745  15.155   5.248
 2967POPC   PO439924  41.136  15.471   5.435
 2967POPC   GL139925  41.434  15.331   5.804
 2967POPC   GL239926  41.736  15.102   5.769
 2967POPC   C1A39927  41.507  15.167   6.224
 2967POPC   D2A39928  41.447  15.299   6.627
 2967POPC   C3A39929  41.657  15.106   6.967
 2967POPC   C4A39930  41.490  15.142   7.385
 2967POPC   C1B39931  41.944  15.370   6.113
 2967POPC   C2B39932  41.968  15.251   6.542
 2967POPC   C3B39933  42.042  15.453   6.926
 2967POPC   C4B39934  41.924  15.382   7.366
 2968POPC   NC339935   9.567  39.410   5.492
 2968POPC   PO439936   9.988  38.804   5.404
 2968POPC   GL139937   9.952  39.121   5.730
 2968POPC   GL239938   9.630  39.000   5.788
 2968POPC   C1A39939   9.878  39.270   6.159
 2968POPC   D2A39940  10.008  39.250   6.575
 2968POPC   C3A39941   9.825  39.497   6.870
 2968POPC   C4A39942   9.892  39.295   7.235
 2968POPC   C1B39943   9.401  39.091   6.146
 2968POPC   C2B39944   9.475  39.272   6.540
 2968POPC   C3B39945   9.546  39.058   6.925
 2968POPC   C4B39946   9.397  38.921   7.342
 2969POPC   NC339947  26.364  19.457   5.448
 2969POPC   PO439948  25.795  19.284   5.646
 2969POPC   GL139949  25.732  19.088   5.989
 2969POPC   GL239950  26.097  19.038   6.013
 2969POPC   C1A39951  25.805  19.184   6.411
 2969POPC   D2A39952  26.168  19.077   6.624
 2969POPC   C3A39953  26.205  19.210   7.024
 2969POPC   C4A39954  25.973  19.128   7.361
 2969POPC   C1B39955  25.950  18.700   6.288
 2969POPC   C2B39956  25.799  18.724   6.721
 2969POPC   C3B39957  25.990  18.668   7.122
 2969POPC   C4B39958  25.937  18.632   7.573
 2970POPC   NC339959  18.198  41.720   4.936
 2970POPC   PO439960  18.333  42.286   5.281
 2970POPC   GL139961  18.407  42.343   5.724
 2970POPC   GL239962  18.464  42.020   5.883
 2970POPC   C1A39963  18.257  42.465   6.149
 2970POPC   D2A39964  18.105  42.643   6.558
 2970POPC   C3A39965  18.180  42.433   6.945
 2970POPC   C4A39966  17.927  42.314   7.293
 2970POPC   C1B39967  18.163  41.946   6.161
 2970POPC   C2B39968  18.325  42.117   6.531
 2970POPC   C3B39969  18.411  41.991   6.912
 2970POPC   C4B39970  18.302  41.965   7.286
 2971POPC   NC339971  34.800  34.208   5.555
 2971POPC   PO439972  34.585  33.572   5.458
 2971POPC   GL139973  34.567  33.786   5.851
 2971POPC   GL239974  34.278  34.036   5.876
 2971POPC   C1A39975  34.786  33.693   6.265
 2971POPC   D2A39976  35.032  33.659   6.643
 2971POPC   C3A39977  34.844  33.698   7.011
 2971POPC   C4A39978  34.741  34.007   7.281
 2971POPC   C1B39979  34.328  33.908   6.286
 2971POPC   C2B39980  34.473  33.821   6.693
 2971POPC   C3B39981  34.277  33.911   7.074
 2971POPC   C4B39982  34.296  34.201   7.437
 2972POPC   NC339983  18.785   0.249   5.402
 2972POPC   PO439984  19.230   0.806   5.204
 2972POPC   GL139985  19.073   0.663   5.680
 2972POPC   GL239986  19.116   0.297   5.803
 2972POPC   C1A39987  19.151   0.696   6.176
 2972POPC   D2A39988  19.198   0.419   6.567
 2972POPC   C3A39989  19.094   0.566   6.993
 2972POPC   C4A39990  19.246   0.951   7.182
 2972POPC   C1B39991  18.742   0.378   6.087
 2972POPC   C2B39992  18.669   0.341   6.506
 2972POPC   C3B39993  18.864   0.130   6.853
 2972POPC   C4B39994  18.746   0.141   7.261
 2973POPC   NC339995  22.858   6.755   5.304
 2973POPC   PO439996  23.483   6.776   5.290
 2973POPC   GL139997  23.181   6.728   5.706
 2973POPC   GL239998  22.942   6.493   5.833
 2973POPC   C1A39999  23.029   6.902   6.131
 2973POPC   D2A40000  23.133   6.823   6.565
 2973POPC   C3A40001  22.858   6.943   6.892
 2973POPC   C4A40002  23.006   6.788   7.207
 2973POPC   C1B40003  23.044   6.403   6.287
 2973POPC   C2B40004  23.003   6.382   6.785
 2973POPC   C3B40005  22.814   6.309   7.174
 2973POPC   C4B40006  22.603   6.598   7.477
 2974POPC   NC340007  20.919  44.432   5.518
 2974POPC   PO440008  20.486  44.005   5.164
 2974POPC   GL140009  20.364  43.918   5.632
 2974POPC   GL240010  20.403  44.205   5.836
 2974POPC   C1A40011  20.425  43.655   6.038
 2974POPC   D2A40012  20.379  43.713   6.508
 2974POPC   C3A40013  20.728  43.683   6.840
 2974POPC   C4A40014  20.874  43.448   7.202
 2974POPC   C1B40015  20.710  44.096   6.180
 2974POPC   C2B40016  20.633  44.166   6.628
 2974POPC   C3B40017  20.400  44.063   6.970
 2974POPC   C4B40018  20.454  44.153   7.396
 2975POPC   NC340019  21.656  27.973   5.366
 2975POPC   PO440020  21.204  27.399   5.296
 2975POPC   GL140021  21.350  27.443   5.692
 2975POPC   GL240022  21.306  27.784   5.752
 2975POPC   C1A40023  21.370  27.384   6.127
 2975POPC   D2A40024  21.499  27.550   6.527
 2975POPC   C3A40025  21.140  27.669   6.769
 2975POPC   C4A40026  21.120  27.705   7.190
 2975POPC   C1B40027  21.519  27.892   6.119
 2975POPC   C2B40028  21.389  28.070   6.522
 2975POPC   C3B40029  21.514  28.012   6.934
 2975POPC   C4B40030  21.378  28.157   7.318
 2976POPC   NC340031  22.686  16.115   5.413
 2976POPC   PO440032  23.308  16.053   5.584
 2976POPC   GL140033  22.972  15.867   5.842
 2976POPC   GL240034  22.665  15.687   5.719
 2976POPC   C1A40035  23.112  15.724   6.257
 2976POPC   D2A40036  23.196  16.025   6.575
 2976POPC   C3A40037  23.052  16.098   6.983
 2976POPC   C4A40038  23.191  15.802   7.267
 2976POPC   C1B40039  22.604  15.755   6.203
 2976POPC   C2B40040  22.760  15.586   6.637
 2976POPC   C3B40041  22.691  15.728   7.086
 2976POPC   C4B40042  22.623  16.166   7.281
 2977POPC   NC340043  36.782   8.604   5.329
 2977POPC   PO440044  36.052   8.585   5.335
 2977POPC   GL140045  36.305   8.830   5.617
 2977POPC   GL240046  36.440   8.561   5.746
 2977POPC   C1A40047  36.264   9.169   5.961
 2977POPC   D2A40048  35.988   9.207   6.337
 2977POPC   C3A40049  36.150   9.219   6.771
 2977POPC   C4A40050  36.054   8.978   7.146
 2977POPC   C1B40051  36.126   8.692   6.093
 2977POPC   C2B40052  36.248   8.776   6.530
 2977POPC   C3B40053  36.447   8.553   6.868
 2977POPC   C4B40054  36.305   8.552   7.277
 2978POPC   NC340055  30.395  43.540   5.347
 2978POPC   PO440056  30.907  43.052   5.207
 2978POPC   GL140057  30.748  43.221   5.640
 2978POPC   GL240058  30.442  43.125   5.810
 2978POPC   C1A40059  30.851  43.384   6.084
 2978POPC   D2A40060  30.869  43.194   6.531
 2978POPC   C3A40061  30.675  43.352   6.941
 2978POPC   C4A40062  30.534  43.271   7.407
 2978POPC   C1B40063  30.406  43.214   6.284
 2978POPC   C2B40064  30.403  42.999   6.698
 2978POPC   C3B40065  30.594  42.859   7.103
 2978POPC   C4B40066  30.424  42.763   7.551
 2979POPC   NC340067  35.594  16.891   5.490
 2979POPC   PO440068  35.053  16.463   5.400
 2979POPC   GL140069  35.201  16.639   5.793
 2979POPC   GL240070  35.508  16.508   5.862
 2979POPC   C1A40071  35.187  16.787   6.243
 2979POPC   D2A40072  34.990  16.628   6.634
 2979POPC   C3A40073  35.160  16.821   7.027
 2979POPC   C4A40074  35.543  16.987   7.188
 2979POPC   C1B40075  35.654  16.551   6.274
 2979POPC   C2B40076  35.519  16.709   6.682
 2979POPC   C3B40077  35.549  16.477   7.076
 2979POPC   C4B40078  35.591  16.558   7.514
 2980POPC   NC340079  36.201  39.681   5.293
 2980POPC   PO440080  35.677  40.199   5.380
 2980POPC   GL140081  35.907  40.175   5.771
 2980POPC   GL240082  36.249  40.067   5.688
 2980POPC   C1A40083  35.905  39.893   6.115
 2980POPC   D2A40084  36.096  39.858   6.493
 2980POPC   C3A40085  35.857  39.922   6.879
 2980POPC   C4A40086  36.040  39.926   7.291
 2980POPC   C1B40087  36.463  39.914   6.085
 2980POPC   C2B40088  36.559  40.082   6.513
 2980POPC   C3B40089  36.379  40.040   6.921
 2980POPC   C4B40090  36.470  40.194   7.345
 2981POPC   NC340091  24.969  21.062   5.369
 2981POPC   PO440092  25.489  20.650   5.390
 2981POPC   GL140093  25.307  20.473   5.732
 2981POPC   GL240094  24.995  20.632   5.725
 2981POPC   C1A40095  25.404  20.621   6.136
 2981POPC   D2A40096  25.438  20.857   6.498
 2981POPC   C3A40097  25.489  20.565   6.841
 2981POPC   C4A40098  25.560  20.459   7.262
 2981POPC   C1B40099  24.897  20.562   6.156
 2981POPC   C2B40100  24.903  20.780   6.544
 2981POPC   C3B40101  24.738  20.783   6.955
 2981POPC   C4B40102  25.066  20.595   7.166
 2982POPC   NC340103  36.320  31.945   5.397
 2982POPC   PO440104  35.905  32.464   5.471
 2982POPC   GL140105  36.061  32.184   5.791
 2982POPC   GL240106  36.336  32.372   5.884
 2982POPC   C1A40107  35.995  32.185   6.252
 2982POPC   D2A40108  35.881  32.419   6.646
 2982POPC   C3A40109  36.201  32.394   6.966
 2982POPC   C4A40110  36.222  32.241   7.401
 2982POPC   C1B40111  36.467  31.977   6.121
 2982POPC   C2B40112  36.585  31.931   6.586
 2982POPC   C3B40113  36.450  31.943   7.053
 2982POPC   C4B40114  36.565  31.895   7.516
 2983POPC   NC340115  44.109  37.268   5.506
 2983POPC   PO440116  43.611  36.843   5.389
 2983POPC   GL140117  43.848  36.877   5.752
 2983POPC   GL240118  44.227  36.817   5.723
 2983POPC   C1A40119  43.916  36.767   6.165
 2983POPC   D2A40120  43.758  36.886   6.575
 2983POPC   C3A40121  43.867  36.803   6.995
 2983POPC   C4A40122  43.616  36.556   7.234
 2983POPC   C1B40123  44.367  37.019   6.100
 2983POPC   C2B40124  44.092  37.227   6.408
 2983POPC   C3B40125  44.120  37.233   6.858
 2983POPC   C4B40126  43.888  37.250   7.262
 2984POPC   NC340127  34.402  33.150   5.368
 2984POPC   PO440128  35.069  33.059   5.166
 2984POPC   GL140129  34.926  32.989   5.614
 2984POPC   GL240130  34.607  32.858   5.710
 2984POPC   C1A40131  34.914  32.957   6.106
 2984POPC   D2A40132  34.802  33.202   6.490
 2984POPC   C3A40133  34.892  33.143   6.928
 2984POPC   C4A40134  34.833  33.336   7.353
 2984POPC   C1B40135  34.401  32.741   6.090
 2984POPC   C2B40136  34.436  32.828   6.501
 2984POPC   C3B40137  34.331  32.859   6.908
 2984POPC   C4B40138  34.599  32.900   7.260
 2985POPC   NC340139  28.994  33.863   5.634
 2985POPC   PO440140  28.363  33.583   5.512
 2985POPC   GL140141  28.400  33.550   5.918
 2985POPC   GL240142  28.722  33.437   5.926
 2985POPC   C1A40143  28.241  33.667   6.328
 2985POPC   D2A40144  28.291  33.985   6.653
 2985POPC   C3A40145  28.222  33.769   7.028
 2985POPC   C4A40146  27.994  33.464   7.214
 2985POPC   C1B40147  28.745  33.814   6.236
 2985POPC   C2B40148  28.824  34.068   6.613
 2985POPC   C3B40149  28.711  34.052   7.062
 2985POPC   C4B40150  28.538  33.748   7.408
 2986POPC   NC340151  29.499  24.935   5.527
 2986POPC   PO440152  29.880  25.398   5.269
 2986POPC   GL140153  29.684  25.379   5.677
 2986POPC   GL240154  29.947  25.337   5.879
 2986POPC   C1A40155  29.498  25.436   6.106
 2986POPC   D2A40156  29.759  25.470   6.490
 2986POPC   C3A40157  29.727  25.210   6.863
 2986POPC   C4A40158  29.864  25.264   7.291
 2986POPC   C1B40159  29.883  25.041   6.226
 2986POPC   C2B40160  30.210  25.133   6.480
 2986POPC   C3B40161  30.243  25.205   6.881
 2986POPC   C4B40162  30.247  24.941   7.220
 2987POPC   NC340163  36.942  37.348   5.592
 2987POPC   PO440164  36.849  36.854   5.091
 2987POPC   GL140165  36.818  36.778   5.567
 2987POPC   GL240166  37.134  36.863   5.690
 2987POPC   C1A40167  36.784  36.692   6.038
 2987POPC   D2A40168  36.924  36.625   6.492
 2987POPC   C3A40169  36.757  36.751   6.922
 2987POPC   C4A40170  36.736  36.573   7.349
 2987POPC   C1B40171  37.276  36.857   6.137
 2987POPC   C2B40172  37.377  36.984   6.558
 2987POPC   C3B40173  37.309  37.154   6.944
 2987POPC   C4B40174  37.161  36.957   7.298
 2988POPC   NC340175  40.912  26.516   5.561
 2988POPC   PO440176  40.817  25.916   5.225
 2988POPC   GL140177  40.959  25.803   5.611
 2988POPC   GL240178  40.712  26.027   5.751
 2988POPC   C1A40179  41.084  25.767   6.051
 2988POPC   D2A40180  40.969  25.773   6.496
 2988POPC   C3A40181  40.578  25.974   6.704
 2988POPC   C4A40182  40.578  25.998   7.180
 2988POPC   C1B40183  40.612  26.162   6.181
 2988POPC   C2B40184  40.496  26.449   6.535
 2988POPC   C3B40185  40.757  26.506   6.887
 2988POPC   C4B40186  40.956  26.476   7.273
 2989POPC   NC340187   0.833  11.234   5.467
 2989POPC   PO440188   1.516  11.158   5.541
 2989POPC   GL140189   1.298  11.436   5.838
 2989POPC   GL240190   0.931  11.555   5.861
 2989POPC   C1A40191   1.288  11.504   6.281
 2989POPC   D2A40192   1.243  11.323   6.691
 2989POPC   C3A40193   1.432  11.532   7.053
 2989POPC   C4A40194   1.580  11.527   7.493
 2989POPC   C1B40195   0.874  11.227   6.157
 2989POPC   C2B40196   0.760  11.246   6.584
 2989POPC   C3B40197   0.862  11.479   6.980
 2989POPC   C4B40198   1.060  11.346   7.351
 2990POPC   NC340199   4.538  20.893   5.528
 2990POPC   PO440200   4.165  20.373   5.292
 2990POPC   GL140201   4.227  20.449   5.728
 2990POPC   GL240202   4.105  20.781   5.789
 2990POPC   C1A40203   4.469  20.572   6.117
 2990POPC   D2A40204   4.401  20.596   6.565
 2990POPC   C3A40205   4.497  20.229   6.791
 2990POPC   C4A40206   4.540  20.208   7.264
 2990POPC   C1B40207   3.965  20.745   6.202
 2990POPC   C2B40208   3.770  20.783   6.605
 2990POPC   C3B40209   3.969  20.722   6.993
 2990POPC   C4B40210   4.230  20.613   7.325
 2991POPC   NC340211  18.985  36.031   5.334
 2991POPC   PO440212  19.565  35.708   5.508
 2991POPC   GL140213  19.297  36.014   5.754
 2991POPC   GL240214  18.941  36.117   5.832
 2991POPC   C1A40215  19.342  36.294   6.137
 2991POPC   D2A40216  19.242  36.365   6.560
 2991POPC   C3A40217  19.222  36.077   6.889
 2991POPC   C4A40218  18.932  36.363   7.067
 2991POPC   C1B40219  19.103  35.856   6.197
 2991POPC   C2B40220  19.121  35.673   6.593
 2991POPC   C3B40221  18.859  35.725   6.945
 2991POPC   C4B40222  18.780  35.953   7.334
 2992POPC   NC340223  39.920  13.141   5.434
 2992POPC   PO440224  39.901  12.518   5.436
 2992POPC   GL140225  39.828  12.797   5.800
 2992POPC   GL240226  39.958  12.696   6.111
 2992POPC   C1A40227  39.791  13.162   6.122
 2992POPC   D2A40228  39.727  12.964   6.533
 2992POPC   C3A40229  39.878  13.143   6.931
 2992POPC   C4A40230  40.315  13.087   7.067
 2992POPC   C1B40231  39.688  12.371   6.095
 2992POPC   C2B40232  39.566  12.443   6.500
 2992POPC   C3B40233  39.846  12.592   6.875
 2992POPC   C4B40234  40.041  12.719   7.268
 2993POPC   NC340235  25.725  21.069   5.424
 2993POPC   PO440236  26.298  21.410   5.253
 2993POPC   GL140237  26.131  21.364   5.707
 2993POPC   GL240238  26.195  21.058   5.918
 2993POPC   C1A40239  26.102  21.504   6.155
 2993POPC   D2A40240  26.324  21.620   6.551
 2993POPC   C3A40241  26.106  21.410   6.882
 2993POPC   C4A40242  26.003  21.551   7.316
 2993POPC   C1B40243  25.781  21.086   6.104
 2993POPC   C2B40244  25.799  21.220   6.520
 2993POPC   C3B40245  25.749  21.019   6.903
 2993POPC   C4B40246  26.008  21.061   7.249
 2994POPC   NC340247   9.268  25.952   5.386
 2994POPC   PO440248   9.940  25.834   5.437
 2994POPC   GL140249   9.667  25.853   5.798
 2994POPC   GL240250   9.500  26.171   5.783
 2994POPC   C1A40251   9.844  26.063   6.198
 2994POPC   D2A40252   9.866  26.267   6.623
 2994POPC   C3A40253   9.939  26.029   7.001
 2994POPC   C4A40254   9.729  25.865   7.352
 2994POPC   C1B40255   9.340  26.175   6.192
 2994POPC   C2B40256   9.467  25.961   6.558
 2994POPC   C3B40257   9.411  26.082   6.990
 2994POPC   C4B40258   9.475  26.324   7.356
 2995POPC   NC340259  38.042  19.425   5.392
 2995POPC   PO440260  38.224  18.838   5.116
 2995POPC   GL140261  38.353  19.100   5.636
 2995POPC   GL240262  38.110  19.244   5.850
 2995POPC   C1A40263  38.449  18.948   6.107
 2995POPC   D2A40264  38.570  19.122   6.545
 2995POPC   C3A40265  38.310  19.069   6.927
 2995POPC   C4A40266  38.216  18.917   7.364
 2995POPC   C1B40267  38.252  19.390   6.243
 2995POPC   C2B40268  38.024  19.425   6.629
 2995POPC   C3B40269  38.085  19.514   7.059
 2995POPC   C4B40270  38.073  19.446   7.531
 2996POPC   NC340271   2.245  23.461   5.524
 2996POPC   PO440272   1.710  23.828   5.615
 2996POPC   GL140273   1.786  23.740   6.016
 2996POPC   GL240274   1.858  23.388   5.909
 2996POPC   C1A40275   1.842  23.932   6.429
 2996POPC   D2A40276   2.141  23.940   6.769
 2996POPC   C3A40277   1.924  23.829   7.142
 2996POPC   C4A40278   1.687  23.438   7.165
 2996POPC   C1B40279   2.193  23.509   6.212
 2996POPC   C2B40280   2.355  23.407   6.613
 2996POPC   C3B40281   2.331  23.534   7.026
 2996POPC   C4B40282   2.526  23.934   7.155
 2997POPC   NC340283  25.081   8.139   5.457
 2997POPC   PO440284  25.780   8.117   5.512
 2997POPC   GL140285  25.435   8.326   5.825
 2997POPC   GL240286  25.111   8.114   5.959
 2997POPC   C1A40287  25.411   8.362   6.295
 2997POPC   D2A40288  25.609   8.002   6.542
 2997POPC   C3A40289  25.619   8.065   7.002
 2997POPC   C4A40290  25.297   7.861   7.238
 2997POPC   C1B40291  24.927   8.481   6.132
 2997POPC   C2B40292  24.902   8.630   6.549
 2997POPC   C3B40293  24.988   8.320   6.880
 2997POPC   C4B40294  25.273   8.362   7.243
 2998POPC   NC340295  22.536  35.876   5.545
 2998POPC   PO440296  22.034  36.181   5.339
 2998POPC   GL140297  22.159  36.181   5.730
 2998POPC   GL240298  22.054  35.836   5.795
 2998POPC   C1A40299  22.049  36.282   6.141
 2998POPC   D2A40300  22.163  36.178   6.525
 2998POPC   C3A40301  22.027  36.387   6.856
 2998POPC   C4A40302  22.039  36.277   7.271
 2998POPC   C1B40303  22.332  35.826   6.170
 2998POPC   C2B40304  22.255  35.684   6.602
 2998POPC   C3B40305  22.294  35.947   6.966
 2998POPC   C4B40306  22.408  35.914   7.396
 2999POPC   NC340307  37.659  22.805   5.361
 2999POPC   PO440308  37.762  22.154   5.361
 2999POPC   GL140309  37.702  22.155   5.797
 2999POPC   GL240310  37.799  22.494   5.753
 2999POPC   C1A40311  37.532  21.949   6.186
 2999POPC   D2A40312  37.690  21.760   6.583
 2999POPC   C3A40313  37.506  21.940   6.982
 2999POPC   C4A40314  37.409  22.276   7.280
 2999POPC   C1B40315  37.895  22.476   6.177
 2999POPC   C2B40316  37.761  22.277   6.545
 2999POPC   C3B40317  37.690  22.472   6.918
 2999POPC   C4B40318  37.890  22.571   7.308
 3000POPC   NC340319  20.104   4.428   5.603
 3000POPC   PO440320  19.551   4.081   5.403
 3000POPC   GL140321  19.770   4.089   5.810
 3000POPC   GL240322  19.659   4.427   5.882
 3000POPC   C1A40323  20.008   4.203   6.216
 3000POPC   D2A40324  19.889   4.010   6.598
 3000POPC   C3A40325  19.848   4.160   6.998
 3000POPC   C4A40326  19.780   4.300   7.411
 3000POPC   C1B40327  19.704   4.613   6.302
 3000POPC   C2B40328  19.899   4.829   6.624
 3000POPC   C3B40329  19.818   4.678   7.043
 3000POPC   C4B40330  19.399   4.649   7.238
 3001POPC   NC340331  10.755  32.178   5.407
 3001POPC   PO440332  10.123  32.273   5.466
 3001POPC   GL140333  10.479  32.379   5.775
 3001POPC   GL240334  10.771  32.605   5.734
 3001POPC   C1A40335  10.703  32.186   6.123
 3001POPC   D2A40336  10.646  32.281   6.568
 3001POPC   C3A40337  10.471  32.154   6.974
 3001POPC   C4A40338  10.419  32.119   7.419
 3001POPC   C1B40339  10.969  32.607   6.148
 3001POPC   C2B40340  11.090  32.500   6.584
 3001POPC   C3B40341  10.969  32.320   6.976
 3001POPC   C4B40342  10.820  32.452   7.367
 3002POPC   NC340343  34.291   7.246   5.337
 3002POPC   PO440344  34.721   7.749   5.458
 3002POPC   GL140345  34.458   7.623   5.814
 3002POPC   GL240346  34.372   7.250   5.838
 3002POPC   C1A40347  34.581   7.536   6.239
 3002POPC   D2A40348  34.806   7.363   6.579
 3002POPC   C3A40349  34.596   7.542   6.887
 3002POPC   C4A40350  34.511   7.547   7.299
 3002POPC   C1B40351  34.429   7.056   6.241
 3002POPC   C2B40352  34.309   7.192   6.642
 3002POPC   C3B40353  34.472   7.083   7.027
 3002POPC   C4B40354  34.880   7.203   7.222
 3003POPC   NC340355  33.540  29.412   5.144
 3003POPC   PO440356  33.903  29.936   5.364
 3003POPC   GL140357  33.917  29.828   5.797
 3003POPC   GL240358  33.613  30.002   5.838
 3003POPC   C1A40359  33.957  29.988   6.226
 3003POPC   D2A40360  34.043  30.194   6.604
 3003POPC   C3A40361  34.066  29.947   6.960
 3003POPC   C4A40362  34.038  30.140   7.352
 3003POPC   C1B40363  33.466  29.810   6.233
 3003POPC   C2B40364  33.538  29.984   6.624
 3003POPC   C3B40365  33.566  29.803   7.007
 3003POPC   C4B40366  33.453  29.743   7.431
 3004POPC   NC340367  34.425  34.999   5.328
 3004POPC   PO440368  34.339  34.318   5.453
 3004POPC   GL140369  34.482  34.527   5.828
 3004POPC   GL240370  34.640  34.869   5.800
 3004POPC   C1A40371  34.630  34.346   6.214
 3004POPC   D2A40372  34.826  34.175   6.565
 3004POPC   C3A40373  34.581  34.302   6.904
 3004POPC   C4A40374  34.694  34.529   7.261
 3004POPC   C1B40375  34.387  34.877   6.200
 3004POPC   C2B40376  34.307  34.682   6.612
 3004POPC   C3B40377  34.385  34.865   7.008
 3004POPC   C4B40378  34.506  35.035   7.435
 3005POPC   NC340379  17.961  11.222   5.359
 3005POPC   PO440380  17.308  11.231   5.423
 3005POPC   GL140381  17.480  11.359   5.836
 3005POPC   GL240382  17.822  11.439   5.805
 3005POPC   C1A40383  17.465  11.361   6.308
 3005POPC   D2A40384  17.449  11.242   6.752
 3005POPC   C3A40385  17.232  11.430   7.093
 3005POPC   C4A40386  17.377  11.288   7.512
 3005POPC   C1B40387  17.858  11.675   6.177
 3005POPC   C2B40388  17.771  11.690   6.622
 3005POPC   C3B40389  17.763  11.510   7.054
 3005POPC   C4B40390  17.837  11.494   7.507
 3006POPC   NC340391  40.569  40.246   5.527
 3006POPC   PO440392  39.855  40.386   5.465
 3006POPC   GL140393  39.987  40.073   5.787
 3006POPC   GL240394  40.032  39.693   5.765
 3006POPC   C1A40395  39.843  39.925   6.188
 3006POPC   D2A40396  40.023  40.035   6.556
 3006POPC   C3A40397  39.828  39.979   6.898
 3006POPC   C4A40398  40.029  39.865   7.219
 3006POPC   C1B40399  40.258  39.590   6.163
 3006POPC   C2B40400  40.429  39.734   6.528
 3006POPC   C3B40401  40.195  39.575   6.837
 3006POPC   C4B40402  40.225  39.370   7.219
 3007POPC   NC340403   1.743  43.258   5.532
 3007POPC   PO440404   2.207  42.993   5.110
 3007POPC   GL140405   2.200  42.907   5.613
 3007POPC   GL240406   1.842  42.783   5.768
 3007POPC   C1A40407   2.185  42.927   6.104
 3007POPC   D2A40408   2.016  42.854   6.520
 3007POPC   C3A40409   2.230  43.077   6.830
 3007POPC   C4A40410   2.109  43.148   7.224
 3007POPC   C1B40411   1.648  43.013   6.155
 3007POPC   C2B40412   1.519  42.961   6.582
 3007POPC   C3B40413   1.716  42.989   6.949
 3007POPC   C4B40414   1.695  42.881   7.377
 3008POPC   NC340415  28.630   7.686   5.582
 3008POPC   PO440416  28.164   8.126   5.339
 3008POPC   GL140417  28.290   8.188   5.808
 3008POPC   GL240418  28.372   8.541   5.889
 3008POPC   C1A40419  28.408   8.192   6.292
 3008POPC   D2A40420  28.169   8.069   6.687
 3008POPC   C3A40421  28.388   8.181   7.082
 3008POPC   C4A40422  28.436   7.943   7.525
 3008POPC   C1B40423  27.981   8.426   6.150
 3008POPC   C2B40424  27.785   8.436   6.569
 3008POPC   C3B40425  27.876   8.408   7.013
 3008POPC   C4B40426  28.033   8.508   7.422
 3009POPC   NC340427   1.690  17.911   5.746
 3009POPC   PO440428   2.000  17.351   5.476
 3009POPC   GL140429   1.952  17.471   5.876
 3009POPC   GL240430   1.584  17.415   5.847
 3009POPC   C1A40431   2.154  17.491   6.300
 3009POPC   D2A40432   2.006  17.324   6.704
 3009POPC   C3A40433   2.178  17.546   7.086
 3009POPC   C4A40434   2.257  17.402   7.516
 3009POPC   C1B40435   1.636  17.548   6.286
 3009POPC   C2B40436   1.506  17.388   6.647
 3009POPC   C3B40437   1.660  17.454   7.059
 3009POPC   C4B40438   1.750  17.470   7.488
 3010POPC   NC340439  31.142  20.758   5.638
 3010POPC   PO440440  31.617  20.459   5.195
 3010POPC   GL140441  31.485  20.381   5.739
 3010POPC   GL240442  31.620  20.636   5.899
 3010POPC   C1A40443  31.282  20.479   6.215
 3010POPC   D2A40444  31.396  20.721   6.601
 3010POPC   C3A40445  31.253  20.535   6.998
 3010POPC   C4A40446  31.538  20.338   7.271
 3010POPC   C1B40447  31.883  20.815   6.210
 3010POPC   C2B40448  31.907  20.695   6.607
 3010POPC   C3B40449  31.764  20.816   6.988
 3010POPC   C4B40450  31.454  20.959   7.287
 3011POPC   NC340451  35.925  12.328   5.516
 3011POPC   PO440452  36.534  11.972   5.577
 3011POPC   GL140453  36.292  12.234   5.860
 3011POPC   GL240454  36.076  11.945   5.869
 3011POPC   C1A40455  35.977  12.366   6.203
 3011POPC   D2A40456  35.673  12.415   6.589
 3011POPC   C3A40457  35.890  12.125   6.884
 3011POPC   C4A40458  36.230  11.930   7.115
 3011POPC   C1B40459  35.887  11.593   6.107
 3011POPC   C2B40460  35.962  11.635   6.541
 3011POPC   C3B40461  35.801  11.527   6.910
 3011POPC   C4B40462  35.758  11.713   7.270
 3012POPC   NC340463  17.348  35.929   5.469
 3012POPC   PO440464  16.996  36.488   5.369
 3012POPC   GL140465  16.860  36.429   5.799
 3012POPC   GL240466  16.956  36.080   5.801
 3012POPC   C1A40467  16.752  36.339   6.276
 3012POPC   D2A40468  16.692  36.465   6.738
 3012POPC   C3A40469  16.635  36.191   7.108
 3012POPC   C4A40470  16.540  36.296   7.560
 3012POPC   C1B40471  16.981  35.860   6.204
 3012POPC   C2B40472  16.947  36.001   6.636
 3012POPC   C3B40473  17.018  35.827   7.054
 3012POPC   C4B40474  17.218  35.664   7.451
 3013POPC   NC340475  43.650  36.378   5.338
 3013POPC   PO440476  43.522  35.926   5.779
 3013POPC   GL140477  43.878  36.195   5.928
 3013POPC   GL240478  44.222  36.071   5.879
 3013POPC   C1A40479  43.954  36.281   6.361
 3013POPC   D2A40480  43.777  36.385   6.727
 3013POPC   C3A40481  43.941  36.112   7.004
 3013POPC   C4A40482  43.844  35.946   7.377
 3013POPC   C1B40483  44.334  36.475   6.101
 3013POPC   C2B40484  44.250  36.697   6.542
 3013POPC   C3B40485  44.276  36.509   6.958
 3013POPC   C4B40486  44.154  36.423   7.374
 3014POPC   NC340487  33.156  31.959   5.419
 3014POPC   PO440488  32.699  32.464   5.623
 3014POPC   GL140489  33.060  32.302   5.828
 3014POPC   GL240490  33.399  32.480   5.844
 3014POPC   C1A40491  33.121  32.178   6.237
 3014POPC   D2A40492  33.177  32.316   6.655
 3014POPC   C3A40493  33.018  32.042   6.949
 3014POPC   C4A40494  32.998  32.153   7.349
 3014POPC   C1B40495  33.496  32.541   6.312
 3014POPC   C2B40496  33.579  32.583   6.791
 3014POPC   C3B40497  33.358  32.691   7.205
 3014POPC   C4B40498  33.243  32.474   7.637
 3015POPC   NC340499   0.202  27.273   5.650
 3015POPC   PO440500  44.635  27.698   5.428
 3015POPC   GL140501  44.812  27.593   5.798
 3015POPC   GL240502   0.073  27.832   5.776
 3015POPC   C1A40503  44.672  27.560   6.230
 3015POPC   D2A40504  44.578  27.363   6.627
 3015POPC   C3A40505  44.346  27.599   6.924
 3015POPC   C4A40506  44.247  27.362   7.292
 3015POPC   C1B40507   0.182  27.701   6.212
 3015POPC   C2B40508   0.004  27.681   6.628
 3015POPC   C3B40509   0.080  27.502   7.030
 3015POPC   C4B40510  44.729  27.585   7.267
 3016POPC   NC340511   8.048  23.929   5.191
 3016POPC   PO440512   8.123  24.578   5.183
 3016POPC   GL140513   8.073  24.482   5.676
 3016POPC   GL240514   8.351  24.666   5.873
 3016POPC   C1A40515   8.075  24.343   6.143
 3016POPC   D2A40516   8.248  24.561   6.506
 3016POPC   C3A40517   8.147  24.520   6.931
 3016POPC   C4A40518   8.155  24.341   7.334
 3016POPC   C1B40519   8.611  24.399   6.166
 3016POPC   C2B40520   8.815  24.224   6.558
 3016POPC   C3B40521   8.652  24.360   6.985
 3016POPC   C4B40522   8.633  24.489   7.436
 3017POPC   NC340523  26.072  37.307   5.356
 3017POPC   PO440524  25.601  37.751   5.368
 3017POPC   GL140525  25.961  37.746   5.686
 3017POPC   GL240526  25.993  37.434   5.849
 3017POPC   C1A40527  26.112  37.819   6.140
 3017POPC   D2A40528  26.069  37.706   6.570
 3017POPC   C3A40529  25.949  37.908   6.938
 3017POPC   C4A40530  26.046  37.885   7.345
 3017POPC   C1B40531  25.980  37.280   6.279
 3017POPC   C2B40532  26.311  37.275   6.609
 3017POPC   C3B40533  26.312  37.189   7.033
 3017POPC   C4B40534  26.018  37.393   7.261
 3018POPC   NC340535  18.265  34.773   5.453
 3018POPC   PO440536  18.435  34.342   5.184
 3018POPC   GL140537  18.501  34.411   5.728
 3018POPC   GL240538  18.670  34.709   5.915
 3018POPC   C1A40539  18.293  34.579   6.205
 3018POPC   D2A40540  18.483  34.789   6.628
 3018POPC   C3A40541  18.453  34.675   7.090
 3018POPC   C4A40542  18.573  34.552   7.557
 3018POPC   C1B40543  18.753  34.400   6.211
 3018POPC   C2B40544  18.592  34.236   6.602
 3018POPC   C3B40545  18.425  34.169   7.032
 3018POPC   C4B40546  18.539  34.048   7.438
 3019POPC   NC340547  41.989  40.837   5.190
 3019POPC   PO440548  41.458  40.437   5.259
 3019POPC   GL140549  41.558  40.506   5.725
 3019POPC   GL240550  41.248  40.511   5.936
 3019POPC   C1A40551  41.636  40.719   6.162
 3019POPC   D2A40552  41.452  40.753   6.602
 3019POPC   C3A40553  41.556  40.938   7.025
 3019POPC   C4A40554  41.236  41.197   7.304
 3019POPC   C1B40555  41.347  40.304   6.293
 3019POPC   C2B40556  41.204  40.316   6.685
 3019POPC   C3B40557  41.255  40.487   7.075
 3019POPC   C4B40558  41.483  40.617   7.452
 3020POPC   NC340559  37.096  20.944   5.415
 3020POPC   PO440560  36.581  20.542   5.362
 3020POPC   GL140561  36.704  20.650   5.777
 3020POPC   GL240562  37.039  20.519   5.811
 3020POPC   C1A40563  36.779  20.722   6.219
 3020POPC   D2A40564  36.850  20.480   6.576
 3020POPC   C3A40565  36.743  20.654   6.965
 3020POPC   C4A40566  36.816  20.410   7.304
 3020POPC   C1B40567  37.243  20.519   6.242
 3020POPC   C2B40568  37.305  20.715   6.678
 3020POPC   C3B40569  37.221  20.715   7.154
 3020POPC   C4B40570  37.251  20.468   7.569
 3021POPC   NC340571  34.114  28.716   5.575
 3021POPC   PO440572  33.787  28.250   5.266
 3021POPC   GL140573  33.678  28.274   5.716
 3021POPC   GL240574  33.342  28.373   5.790
 3021POPC   C1A40575  33.606  28.181   6.178
 3021POPC   D2A40576  33.466  28.250   6.609
 3021POPC   C3A40577  33.829  28.388   6.913
 3021POPC   C4A40578  34.143  28.711   7.122
 3021POPC   C1B40579  33.258  28.607   6.198
 3021POPC   C2B40580  33.245  28.731   6.664
 3021POPC   C3B40581  33.334  28.496   7.046
 3021POPC   C4B40582  33.589  28.406   7.369
 3022POPC   NC340583  40.876  14.668   5.164
 3022POPC   PO440584  40.471  14.352   5.622
 3022POPC   GL140585  40.891  14.254   5.751
 3022POPC   GL240586  41.016  14.560   5.693
 3022POPC   C1A40587  41.059  14.189   6.170
 3022POPC   D2A40588  40.833  14.317   6.528
 3022POPC   C3A40589  40.931  14.208   6.924
 3022POPC   C4A40590  40.624  14.393   7.181
 3022POPC   C1B40591  40.870  14.686   6.115
 3022POPC   C2B40592  41.036  14.807   6.538
 3022POPC   C3B40593  40.931  14.756   6.974
 3022POPC   C4B40594  41.104  14.517   7.301
 3023POPC   NC340595  30.413  27.185   5.436
 3023POPC   PO440596  30.748  26.941   4.894
 3023POPC   GL140597  30.791  26.855   5.421
 3023POPC   GL240598  30.913  27.143   5.653
 3023POPC   C1A40599  30.559  26.794   5.904
 3023POPC   D2A40600  30.445  26.886   6.385
 3023POPC   C3A40601  30.594  26.850   6.859
 3023POPC   C4A40602  30.429  26.961   7.272
 3023POPC   C1B40603  30.912  27.062   6.124
 3023POPC   C2B40604  30.960  27.015   6.545
 3023POPC   C3B40605  30.962  27.262   6.920
 3023POPC   C4B40606  30.927  27.064   7.252
 3024POPC   NC340607  43.184  32.700   5.231
 3024POPC   PO440608  43.028  32.004   5.195
 3024POPC   GL140609  43.007  32.160   5.682
 3024POPC   GL240610  42.824  32.519   5.697
 3024POPC   C1A40611  43.254  32.127   6.134
 3024POPC   D2A40612  43.512  32.260   6.550
 3024POPC   C3A40613  43.305  32.284   6.993
 3024POPC   C4A40614  43.094  32.402   7.405
 3024POPC   C1B40615  42.769  32.365   6.137
 3024POPC   C2B40616  42.972  32.305   6.552
 3024POPC   C3B40617  42.783  32.356   6.945
 3024POPC   C4B40618  42.798  32.053   7.210
 3025POPC   NC340619   0.874  30.517   5.457
 3025POPC   PO440620   0.239  30.452   5.171
 3025POPC   GL140621   0.383  30.681   5.591
 3025POPC   GL240622   0.536  30.446   5.838
 3025POPC   C1A40623   0.449  30.907   6.038
 3025POPC   D2A40624   0.501  31.049   6.497
 3025POPC   C3A40625   0.572  30.742   6.805
 3025POPC   C4A40626   0.461  30.656   7.205
 3025POPC   C1B40627   0.904  30.273   6.074
 3025POPC   C2B40628   1.078  30.204   6.499
 3025POPC   C3B40629   1.039  30.221   6.950
 3025POPC   C4B40630   0.802  30.321   7.329
 3026POPC   NC340631   9.126  44.861   5.216
 3026POPC   PO440632   8.855  44.230   5.228
 3026POPC   GL140633   8.821  44.489   5.659
 3026POPC   GL240634   8.888  44.847   5.781
 3026POPC   C1A40635   8.908  44.503   6.136
 3026POPC   D2A40636   8.981  44.325   6.550
 3026POPC   C3A40637   8.923  44.475   6.967
 3026POPC   C4A40638   8.942  44.639   7.404
 3026POPC   C1B40639   8.897   0.039   6.201
 3026POPC   C2B40640   9.060  44.943   6.624
 3026POPC   C3B40641   9.015   0.005   7.059
 3026POPC   C4B40642   9.246   0.045   7.478
 3027POPC   NC340643  11.949  35.963   5.481
 3027POPC   PO440644  12.221  36.407   5.268
 3027POPC   GL140645  12.295  36.199   5.756
 3027POPC   GL240646  12.008  36.042   5.965
 3027POPC   C1A40647  12.423  36.172   6.207
 3027POPC   D2A40648  12.087  36.072   6.529
 3027POPC   C3A40649  12.016  36.293   6.914
 3027POPC   C4A40650  12.358  36.107   7.125
 3027POPC   C1B40651  11.757  35.785   6.285
 3027POPC   C2B40652  11.924  35.623   6.700
 3027POPC   C3B40653  11.933  35.833   7.137
 3027POPC   C4B40654  11.959  35.874   7.596
 3028POPC   NC340655  34.451   8.106   5.568
 3028POPC   PO440656  34.872   8.592   5.625
 3028POPC   GL140657  34.615   8.367   5.963
 3028POPC   GL240658  34.222   8.390   5.925
 3028POPC   C1A40659  34.468   8.447   6.364
 3028POPC   D2A40660  34.699   8.386   6.699
 3028POPC   C3A40661  34.496   8.534   7.041
 3028POPC   C4A40662  34.765   8.375   7.367
 3028POPC   C1B40663  34.281   7.988   6.200
 3028POPC   C2B40664  34.526   7.931   6.567
 3028POPC   C3B40665  34.555   8.019   7.025
 3028POPC   C4B40666  34.191   7.948   7.254
 3029POPC   NC340667  12.366  24.962   5.565
 3029POPC   PO440668  11.785  25.071   5.396
 3029POPC   GL140669  11.916  25.127   5.855
 3029POPC   GL240670  12.255  25.283   5.956
 3029POPC   C1A40671  11.995  24.985   6.299
 3029POPC   D2A40672  12.133  25.103   6.717
 3029POPC   C3A40673  11.819  25.400   6.911
 3029POPC   C4A40674  11.811  25.676   7.243
 3029POPC   C1B40675  12.450  25.422   6.351
 3029POPC   C2B40676  12.299  25.601   6.745
 3029POPC   C3B40677  12.266  25.404   7.136
 3029POPC   C4B40678  12.331  24.998   7.300
 3030POPC   NC340679  36.968  14.438   5.073
 3030POPC   PO440680  36.940  14.102   5.601
 3030POPC   GL140681  37.003  14.487   5.848
 3030POPC   GL240682  36.655  14.586   5.945
 3030POPC   C1A40683  37.213  14.457   6.248
 3030POPC   D2A40684  37.264  14.288   6.652
 3030POPC   C3A40685  36.903  14.161   6.892
 3030POPC   C4A40686  36.960  14.247   7.306
 3030POPC   C1B40687  36.593  14.504   6.407
 3030POPC   C2B40688  36.498  14.799   6.754
 3030POPC   C3B40689  36.445  14.798   7.215
 3030POPC   C4B40690  36.584  14.553   7.542
 3031POPC   NC340691   1.612  31.117   5.393
 3031POPC   PO440692   0.896  30.985   5.544
 3031POPC   GL140693   0.945  30.770   5.903
 3031POPC   GL240694   1.294  30.771   5.794
 3031POPC   C1A40695   0.838  30.693   6.345
 3031POPC   D2A40696   1.080  30.686   6.731
 3031POPC   C3A40697   0.953  30.780   7.174
 3031POPC   C4A40698   0.772  30.846   7.609
 3031POPC   C1B40699   1.326  30.816   6.233
 3031POPC   C2B40700   1.512  31.000   6.580
 3031POPC   C3B40701   1.435  30.916   6.994
 3031POPC   C4B40702   1.384  30.515   7.184
 3032POPC   NC340703  24.316   8.590   5.473
 3032POPC   PO440704  24.677   7.964   5.582
 3032POPC   GL140705  24.559   8.171   5.960
 3032POPC   GL240706  24.217   8.290   6.013
 3032POPC   C1A40707  24.623   8.185   6.417
 3032POPC   D2A40708  24.475   8.419   6.756
 3032POPC   C3A40709  24.505   8.214   7.170
 3032POPC   C4A40710  24.644   8.344   7.593
 3032POPC   C1B40711  24.222   7.895   6.297
 3032POPC   C2B40712  24.177   7.946   6.770
 3032POPC   C3B40713  24.029   8.339   6.971
 3032POPC   C4B40714  23.967   8.619   7.298
 3033POPC   NC340715  41.199   4.371   5.097
 3033POPC   PO440716  41.773   4.362   5.386
 3033POPC   GL140717  41.871   4.405   5.842
 3033POPC   GL240718  41.796   4.101   5.986
 3033POPC   C1A40719  41.735   4.485   6.321
 3033POPC   D2A40720  41.656   4.216   6.729
 3033POPC   C3A40721  41.640   4.339   7.163
 3033POPC   C4A40722  41.696   4.678   7.484
 3033POPC   C1B40723  41.428   4.057   6.289
 3033POPC   C2B40724  41.208   3.978   6.715
 3033POPC   C3B40725  41.279   3.902   7.175
 3033POPC   C4B40726  41.172   3.761   7.617
 3034POPC   NC340727  21.982  37.588   5.317
 3034POPC   PO440728  22.508  37.610   5.723
 3034POPC   GL140729  22.090  37.781   5.780
 3034POPC   GL240730  21.811  37.547   5.835
 3034POPC   C1A40731  21.903  37.962   6.148
 3034POPC   D2A40732  21.816  37.771   6.556
 3034POPC   C3A40733  22.202  37.736   6.823
 3034POPC   C4A40734  22.284  37.896   7.244
 3034POPC   C1B40735  22.109  37.502   6.216
 3034POPC   C2B40736  22.489  37.444   6.450
 3034POPC   C3B40737  22.530  37.267   6.845
 3034POPC   C4B40738  22.291  37.350   7.211
 3035POPC   NC340739  44.991  32.588   5.528
 3035POPC   PO440740   0.571  32.100   5.501
 3035POPC   GL140741   0.313  32.091   5.873
 3035POPC   GL240742   0.172  32.425   5.958
 3035POPC   C1A40743   0.412  32.151   6.328
 3035POPC   D2A40744   0.541  31.983   6.726
 3035POPC   C3A40745   0.504  32.274   7.052
 3035POPC   C4A40746   0.294  32.203   7.427
 3035POPC   C1B40747  44.949  32.428   6.330
 3035POPC   C2B40748   0.090  32.288   6.725
 3035POPC   C3B40749   0.084  32.561   7.089
 3035POPC   C4B40750   0.311  32.685   7.466
 3036POPC   NC340751  10.625  12.182   5.533
 3036POPC   PO440752  10.200  11.614   5.323
 3036POPC   GL140753  10.375  11.788   5.799
 3036POPC   GL240754  10.325  12.189   5.957
 3036POPC   C1A40755  10.583  11.835   6.218
 3036POPC   D2A40756  10.425  11.717   6.614
 3036POPC   C3A40757  10.295  12.018   6.902
 3036POPC   C4A40758  10.683  12.031   7.154
 3036POPC   C1B40759  10.378  12.323   6.404
 3036POPC   C2B40760  10.452  12.472   6.835
 3036POPC   C3B40761  10.381  12.423   7.294
 3036POPC   C4B40762  10.362  12.463   7.753
 3037POPC   NC340763  35.411  18.454   5.453
 3037POPC   PO440764  34.823  18.046   5.512
 3037POPC   GL140765  35.190  18.163   5.803
 3037POPC   GL240766  35.543  17.980   5.837
 3037POPC   C1A40767  35.183  18.342   6.229
 3037POPC   D2A40768  34.967  18.148   6.567
 3037POPC   C3A40769  35.209  18.095   6.942
 3037POPC   C4A40770  35.090  18.309   7.293
 3037POPC   C1B40771  35.598  18.026   6.319
 3037POPC   C2B40772  35.572  18.351   6.648
 3037POPC   C3B40773  35.600  18.387   7.120
 3037POPC   C4B40774  35.509  18.059   7.450
 3038POPC   NC340775  38.809  37.652   5.488
 3038POPC   PO440776  38.221  37.276   5.454
 3038POPC   GL140777  38.348  37.558   5.751
 3038POPC   GL240778  38.123  37.485   5.996
 3038POPC   C1A40779  38.506  37.805   6.101
 3038POPC   D2A40780  38.721  38.029   6.430
 3038POPC   C3A40781  38.491  37.943   6.804
 3038POPC   C4A40782  38.539  37.764   7.236
 3038POPC   C1B40783  38.217  37.198   6.323
 3038POPC   C2B40784  38.453  37.303   6.705
 3038POPC   C3B40785  38.408  37.206   7.130
 3038POPC   C4B40786  38.120  37.345   7.398
 3039POPC   NC340787  33.757  19.372   5.238
 3039POPC   PO440788  34.122  18.912   5.643
 3039POPC   GL140789  33.821  19.099   5.861
 3039POPC   GL240790  33.591  19.358   5.733
 3039POPC   C1A40791  33.851  19.012   6.279
 3039POPC   D2A40792  33.605  18.841   6.567
 3039POPC   C3A40793  33.763  19.022   6.952
 3039POPC   C4A40794  34.131  19.170   7.147
 3039POPC   C1B40795  33.574  19.421   6.192
 3039POPC   C2B40796  33.786  19.605   6.547
 3039POPC   C3B40797  33.784  19.533   6.989
 3039POPC   C4B40798  33.433  19.327   7.200
 3040POPC   NC340799  15.233  26.264   5.466
 3040POPC   PO440800  15.744  25.749   5.440
 3040POPC   GL140801  15.504  25.994   5.808
 3040POPC   GL240802  15.111  25.950   5.860
 3040POPC   C1A40803  15.366  25.913   6.278
 3040POPC   D2A40804  15.180  26.068   6.682
 3040POPC   C3A40805  15.391  26.044   7.071
 3040POPC   C4A40806  15.175  25.943   7.444
 3040POPC   C1B40807  14.864  25.911   6.276
 3040POPC   C2B40808  14.870  25.662   6.685
 3040POPC   C3B40809  14.872  25.685   7.137
 3040POPC   C4B40810  14.883  25.539   7.602
 3041POPC   NC340811  13.563  43.439   5.425
 3041POPC   PO440812  13.822  42.788   5.282
 3041POPC   GL140813  13.721  42.970   5.687
 3041POPC   GL240814  13.372  43.088   5.767
 3041POPC   C1A40815  13.937  42.952   6.095
 3041POPC   D2A40816  14.036  43.111   6.517
 3041POPC   C3A40817  13.886  43.015   6.955
 3041POPC   C4A40818  13.854  43.279   7.354
 3041POPC   C1B40819  13.512  43.235   6.177
 3041POPC   C2B40820  13.483  43.123   6.615
 3041POPC   C3B40821  13.439  43.280   7.049
 3041POPC   C4B40822  13.406  43.093   7.454
 3042POPC   NC340823  18.587  26.866   5.502
 3042POPC   PO440824  18.026  26.658   5.540
 3042POPC   GL140825  18.099  26.918   5.893
 3042POPC   GL240826  18.438  27.056   5.926
 3042POPC   C1A40827  18.199  26.911   6.356
 3042POPC   D2A40828  17.995  27.099   6.713
 3042POPC   C3A40829  18.118  26.915   7.121
 3042POPC   C4A40830  18.163  26.537   7.389
 3042POPC   C1B40831  18.696  27.296   6.164
 3042POPC   C2B40832  18.521  27.322   6.555
 3042POPC   C3B40833  18.614  27.126   6.920
 3042POPC   C4B40834  18.559  27.312   7.299
 3043POPC   NC340835  26.119  30.476   5.025
 3043POPC   PO440836  25.759  30.876   5.474
 3043POPC   GL140837  26.162  30.794   5.739
 3043POPC   GL240838  25.917  30.783   6.002
 3043POPC   C1A40839  26.408  30.648   6.145
 3043POPC   D2A40840  26.280  30.694   6.615
 3043POPC   C3A40841  25.912  30.499   6.859
 3043POPC   C4A40842  25.815  30.454   7.323
 3043POPC   C1B40843  25.693  31.085   6.273
 3043POPC   C2B40844  25.846  31.028   6.687
 3043POPC   C3B40845  25.888  30.937   7.122
 3043POPC   C4B40846  25.895  30.901   7.576
 3044POPC   NC340847   6.565  14.583   5.354
 3044POPC   PO440848   7.008  14.178   5.302
 3044POPC   GL140849   6.779  14.249   5.732
 3044POPC   GL240850   6.593  13.941   5.831
 3044POPC   C1A40851   6.595  14.427   6.162
 3044POPC   D2A40852   6.672  14.374   6.648
 3044POPC   C3A40853   6.567  14.550   7.105
 3044POPC   C4A40854   6.776  14.347   7.501
 3044POPC   C1B40855   6.314  13.987   6.196
 3044POPC   C2B40856   6.388  13.882   6.634
 3044POPC   C3B40857   6.460  14.067   7.038
 3044POPC   C4B40858   6.419  13.968   7.458
 3045POPC   NC340859  23.530  22.460   5.464
 3045POPC   PO440860  23.981  22.031   5.667
 3045POPC   GL140861  24.020  22.413   5.882
 3045POPC   GL240862  23.665  22.360   5.953
 3045POPC   C1A40863  23.995  22.529   6.316
 3045POPC   D2A40864  23.671  22.343   6.578
 3045POPC   C3A40865  23.789  22.268   6.995
 3045POPC   C4A40866  23.857  22.616   7.259
 3045POPC   C1B40867  23.511  22.006   6.217
 3045POPC   C2B40868  23.442  21.729   6.597
 3045POPC   C3B40869  23.348  21.691   7.049
 3045POPC   C4B40870  23.480  21.957   7.391
 3046POPC   NC340871  23.099  38.655   5.410
 3046POPC   PO440872  22.481  38.604   5.619
 3046POPC   GL140873  22.831  38.441   5.818
 3046POPC   GL240874  23.151  38.304   5.761
 3046POPC   C1A40875  22.854  38.382   6.224
 3046POPC   D2A40876  22.632  38.526   6.552
 3046POPC   C3A40877  22.911  38.621   6.887
 3046POPC   C4A40878  22.773  38.615   7.328
 3046POPC   C1B40879  23.312  38.585   6.064
 3046POPC   C2B40880  23.284  38.510   6.505
 3046POPC   C3B40881  23.399  38.479   6.944
 3046POPC   C4B40882  23.291  38.710   7.313
 3047POPC   NC340883  44.235   8.249   5.424
 3047POPC   PO440884  44.673   8.594   5.372
 3047POPC   GL140885  44.535   8.422   5.811
 3047POPC   GL240886  44.187   8.507   5.864
 3047POPC   C1A40887  44.661   8.320   6.277
 3047POPC   D2A40888  44.768   8.269   6.757
 3047POPC   C3A40889  44.748   8.135   7.216
 3047POPC   C4A40890  44.634   8.097   7.672
 3047POPC   C1B40891  44.165   8.261   6.194
 3047POPC   C2B40892  44.270   8.337   6.611
 3047POPC   C3B40893  44.327   8.375   7.022
 3047POPC   C4B40894  44.245   8.112   7.333
 3048POPC   NC340895   5.677  25.602   5.560
 3048POPC   PO440896   6.093  25.141   5.216
 3048POPC   GL140897   5.878  25.131   5.676
 3048POPC   GL240898   6.117  25.181   5.927
 3048POPC   C1A40899   5.685  24.992   6.140
 3048POPC   D2A40900   5.618  25.215   6.579
 3048POPC   C3A40901   5.386  25.203   7.008
 3048POPC   C4A40902   5.455  25.329   7.477
 3048POPC   C1B40903   6.080  25.359   6.357
 3048POPC   C2B40904   6.100  25.367   6.822
 3048POPC   C3B40905   6.194  25.417   7.260
 3048POPC   C4B40906   5.894  25.607   7.547
 3049POPC   NC340907  32.205  30.950   5.411
 3049POPC   PO440908  32.715  30.523   5.337
 3049POPC   GL140909  32.324  30.607   5.763
 3049POPC   GL240910  32.078  30.930   5.872
 3049POPC   C1A40911  32.157  30.627   6.238
 3049POPC   D2A40912  32.313  30.829   6.620
 3049POPC   C3A40913  32.096  30.602   6.939
 3049POPC   C4A40914  32.270  30.335   7.257
 3049POPC   C1B40915  32.059  31.156   6.258
 3049POPC   C2B40916  31.875  31.062   6.657
 3049POPC   C3B40917  32.122  31.117   7.052
 3049POPC   C4B40918  32.354  30.845   7.305
 3050POPC   NC340919   5.442  38.827   5.224
 3050POPC   PO440920   4.825  38.625   5.500
 3050POPC   GL140921   5.217  38.516   5.668
 3050POPC   GL240922   5.339  38.842   5.728
 3050POPC   C1A40923   5.276  38.290   6.074
 3050POPC   D2A40924   5.204  38.428   6.505
 3050POPC   C3A40925   4.998  38.294   6.875
 3050POPC   C4A40926   5.195  38.343   7.274
 3050POPC   C1B40927   5.131  38.801   6.113
 3050POPC   C2B40928   5.184  38.939   6.520
 3050POPC   C3B40929   5.193  38.760   6.927
 3050POPC   C4B40930   4.865  38.722   7.236
 3051POPC   NC340931  16.931  10.984   5.345
 3051POPC   PO440932  16.351  10.964   5.316
 3051POPC   GL140933  16.599  10.863   5.742
 3051POPC   GL240934  16.993  10.879   5.836
 3051POPC   C1A40935  16.692  10.515   6.075
 3051POPC   D2A40936  16.971  10.409   6.449
 3051POPC   C3A40937  16.784  10.489   6.872
 3051POPC   C4A40938  16.374  10.641   7.030
 3051POPC   C1B40939  16.818  10.978   6.253
 3051POPC   C2B40940  16.607  10.926   6.660
 3051POPC   C3B40941  16.822  10.973   7.063
 3051POPC   C4B40942  17.283  10.921   7.151
 3052POPC   NC340943  39.691  37.303   5.172
 3052POPC   PO440944  40.218  37.046   5.533
 3052POPC   GL140945  40.053  36.853   5.879
 3052POPC   GL240946  40.214  37.078   6.050
 3052POPC   C1A40947  39.769  36.909   6.221
 3052POPC   D2A40948  39.697  36.805   6.628
 3052POPC   C3A40949  39.893  36.859   7.022
 3052POPC   C4A40950  39.667  37.020   7.398
 3052POPC   C1B40951  40.299  36.809   6.323
 3052POPC   C2B40952  40.469  36.914   6.698
 3052POPC   C3B40953  40.289  37.188   6.961
 3052POPC   C4B40954  40.208  37.081   7.365
 3053POPC   NC340955  20.772  31.668   5.252
 3053POPC   PO440956  20.209  31.470   5.482
 3053POPC   GL140957  20.615  31.428   5.717
 3053POPC   GL240958  20.783  31.709   5.754
 3053POPC   C1A40959  20.790  31.410   6.152
 3053POPC   D2A40960  20.583  31.202   6.466
 3053POPC   C3A40961  20.637  31.354   6.857
 3053POPC   C4A40962  20.622  31.465   7.267
 3053POPC   C1B40963  20.395  31.785   6.024
 3053POPC   C2B40964  20.316  31.709   6.440
 3053POPC   C3B40965  20.526  31.858   6.798
 3053POPC   C4B40966  20.370  31.884   7.189
 3054POPC   NC340967   7.280  12.232   5.551
 3054POPC   PO440968   7.719  11.796   5.265
 3054POPC   GL140969   7.722  12.131   5.723
 3054POPC   GL240970   7.709  11.937   5.992
 3054POPC   C1A40971   7.439  12.288   6.188
 3054POPC   D2A40972   7.534  12.208   6.647
 3054POPC   C3A40973   7.340  12.397   6.993
 3054POPC   C4A40974   7.018  12.285   7.254
 3054POPC   C1B40975   7.596  11.745   6.360
 3054POPC   C2B40976   7.263  11.715   6.644
 3054POPC   C3B40977   7.350  11.894   7.029
 3054POPC   C4B40978   7.710  12.140   7.222
 3055POPC   NC340979   3.950  42.769   5.390
 3055POPC   PO440980   3.574  42.242   5.145
 3055POPC   GL140981   3.504  42.311   5.681
 3055POPC   GL240982   3.595  42.675   5.804
 3055POPC   C1A40983   3.538  42.296   6.156
 3055POPC   D2A40984   3.284  42.072   6.454
 3055POPC   C3A40985   3.338  42.266   6.840
 3055POPC   C4A40986   3.222  42.327   7.246
 3055POPC   C1B40987   3.678  42.758   6.286
 3055POPC   C2B40988   3.774  42.616   6.729
 3055POPC   C3B40989   3.813  42.858   7.137
 3055POPC   C4B40990   3.504  42.739   7.443
 3056POPC   NC340991  43.580  19.412   5.358
 3056POPC   PO440992  43.883  18.762   5.242
 3056POPC   GL140993  43.941  18.964   5.678
 3056POPC   GL240994  44.248  19.157   5.745
 3056POPC   C1A40995  43.934  19.071   6.147
 3056POPC   D2A40996  43.885  19.315   6.517
 3056POPC   C3A40997  43.804  19.099   6.900
 3056POPC   C4A40998  43.721  19.378   7.239
 3056POPC   C1B40999  44.434  19.261   6.141
 3056POPC   C2B41000  44.389  19.417   6.573
 3056POPC   C3B41001  44.291  19.250   6.977
 3056POPC   C4B41002  44.170  19.220   7.417
 3057POPC   NC341003  25.372   4.777   5.529
 3057POPC   PO441004  25.363   4.159   5.412
 3057POPC   GL141005  25.265   4.116   5.860
 3057POPC   GL241006  24.930   3.984   5.817
 3057POPC   C1A41007  25.259   4.409   6.271
 3057POPC   D2A41008  25.313   4.570   6.742
 3057POPC   C3A41009  25.464   4.294   7.118
 3057POPC   C4A41010  25.420   4.164   7.593
 3057POPC   C1B41011  24.773   4.253   6.140
 3057POPC   C2B41012  24.641   4.214   6.586
 3057POPC   C3B41013  24.938   4.222   6.922
 3057POPC   C4B41014  25.010   4.277   7.349
 3058POPC   NC341015  34.418  19.945   5.650
 3058POPC   PO441016  34.008  19.778   5.156
 3058POPC   GL141017  33.814  19.818   5.588
 3058POPC   GL241018  34.031  19.623   5.833
 3058POPC   C1A41019  33.644  19.905   6.039
 3058POPC   D2A41020  33.681  20.162   6.439
 3058POPC   C3A41021  33.620  20.004   6.873
 3058POPC   C4A41022  33.566  19.999   7.344
 3058POPC   C1B41023  34.122  19.854   6.245
 3058POPC   C2B41024  34.112  19.987   6.687
 3058POPC   C3B41025  34.045  19.949   7.154
 3058POPC   C4B41026  33.881  19.627   7.493
 3059POPC   NC341027  12.753  18.161   5.488
 3059POPC   PO441028  13.190  18.553   5.635
 3059POPC   GL141029  13.015  18.282   5.947
 3059POPC   GL241030  12.664  18.156   5.973
 3059POPC   C1A41031  13.212  18.077   6.311
 3059POPC   D2A41032  13.257  18.292   6.686
 3059POPC   C3A41033  13.173  18.172   7.107
 3059POPC   C4A41034  12.948  18.259   7.475
 3059POPC   C1B41035  12.765  18.270   6.395
 3059POPC   C2B41036  12.837  18.020   6.746
 3059POPC   C3B41037  12.649  18.197   7.081
 3059POPC   C4B41038  12.367  18.093   7.379
 3060POPC   NC341039  29.524  29.178   5.371
 3060POPC   PO441040  28.926  28.958   5.413
 3060POPC   GL141041  29.173  29.086   5.752
 3060POPC   GL241042  29.027  29.405   5.765
 3060POPC   C1A41043  29.101  29.005   6.180
 3060POPC   D2A41044  29.265  28.895   6.586
 3060POPC   C3A41045  29.061  28.920   6.988
 3060POPC   C4A41046  29.229  28.962   7.378
 3060POPC   C1B41047  29.119  29.562   6.154
 3060POPC   C2B41048  29.139  29.399   6.533
 3060POPC   C3B41049  29.283  29.391   6.914
 3060POPC   C4B41050  29.105  29.516   7.265
 3061POPC   NC341051  16.544  30.334   5.230
 3061POPC   PO441052  16.697  30.942   5.415
 3061POPC   GL141053  16.662  30.650   5.774
 3061POPC   GL241054  16.352  30.480   5.716
 3061POPC   C1A41055  16.825  30.513   6.204
 3061POPC   D2A41056  17.080  30.494   6.581
 3061POPC   C3A41057  16.996  30.771   6.928
 3061POPC   C4A41058  16.830  30.936   7.315
 3061POPC   C1B41059  16.319  30.605   6.197
 3061POPC   C2B41060  16.532  30.526   6.620
 3061POPC   C3B41061  16.553  30.531   7.064
 3061POPC   C4B41062  16.479  30.596   7.490
 3062POPC   NC341063  33.782  37.518   5.135
 3062POPC   PO441064  33.893  36.891   5.395
 3062POPC   GL141065  33.907  36.975   5.796
 3062POPC   GL241066  33.728  37.250   5.761
 3062POPC   C1A41067  33.963  36.801   6.178
 3062POPC   D2A41068  33.832  36.443   6.422
 3062POPC   C3A41069  33.724  36.567   6.825
 3062POPC   C4A41070  33.825  36.853   7.151
 3062POPC   C1B41071  33.721  37.267   6.225
 3062POPC   C2B41072  33.760  37.124   6.680
 3062POPC   C3B41073  33.694  37.359   7.089
 3062POPC   C4B41074  33.759  37.220   7.524
 3063POPC   NC341075  42.212  35.157   5.285
 3063POPC   PO441076  42.724  35.413   5.462
 3063POPC   GL141077  42.449  35.458   5.767
 3063POPC   GL241078  42.330  35.130   5.777
 3063POPC   C1A41079  42.533  35.585   6.190
 3063POPC   D2A41080  42.283  35.604   6.564
 3063POPC   C3A41081  42.428  35.594   6.960
 3063POPC   C4A41082  42.170  35.385   7.267
 3063POPC   C1B41083  42.102  35.320   6.144
 3063POPC   C2B41084  42.032  35.152   6.569
 3063POPC   C3B41085  41.951  34.987   6.993
 3063POPC   C4B41086  42.201  34.871   7.362
 3064POPC   NC341087  10.450  42.596   5.318
 3064POPC   PO441088  10.898  42.078   5.218
 3064POPC   GL141089  10.736  42.345   5.655
 3064POPC   GL241090  10.390  42.460   5.802
 3064POPC   C1A41091  10.762  42.443   6.143
 3064POPC   D2A41092  10.811  42.156   6.530
 3064POPC   C3A41093  10.811  42.380   6.926
 3064POPC   C4A41094  10.867  42.249   7.385
 3064POPC   C1B41095  10.250  42.367   6.225
 3064POPC   C2B41096  10.340  42.319   6.676
 3064POPC   C3B41097  10.393  42.664   7.002
 3064POPC   C4B41098  10.659  42.701   7.343
 3065POPC   NC341099  21.489   2.747   5.233
 3065POPC   PO441100  21.081   2.367   5.482
 3065POPC   GL141101  21.220   2.750   5.746
 3065POPC   GL241102  21.535   2.989   5.696
 3065POPC   C1A41103  21.351   2.739   6.183
 3065POPC   D2A41104  21.376   2.547   6.607
 3065POPC   C3A41105  21.369   2.899   6.848
 3065POPC   C4A41106  21.188   2.894   7.193
 3065POPC   C1B41107  21.756   3.031   6.111
 3065POPC   C2B41108  21.771   2.886   6.526
 3065POPC   C3B41109  21.850   2.581   6.827
 3065POPC   C4B41110  21.683   2.709   7.208
 3066POPC   NC341111  42.664  24.676   5.359
 3066POPC   PO441112  42.005  24.633   5.486
 3066POPC   GL141113  42.224  24.612   5.849
 3066POPC   GL241114  42.350  24.301   5.877
 3066POPC   C1A41115  42.078  24.511   6.262
 3066POPC   D2A41116  42.183  24.725   6.621
 3066POPC   C3A41117  42.263  24.481   6.966
 3066POPC   C4A41118  41.914  24.414   7.200
 3066POPC   C1B41119  42.716  24.130   6.115
 3066POPC   C2B41120  42.876  24.101   6.521
 3066POPC   C3B41121  42.766  24.338   6.879
 3066POPC   C4B41122  42.638  24.284   7.289
 3067POPC   NC341123  31.568   8.891   5.405
 3067POPC   PO441124  30.939   9.000   5.567
 3067POPC   GL141125  31.346   9.047   5.850
 3067POPC   GL241126  31.705   9.212   5.772
 3067POPC   C1A41127  31.602   8.844   6.224
 3067POPC   D2A41128  31.881   8.544   6.510
 3067POPC   C3A41129  31.800   8.627   6.971
 3067POPC   C4A41130  31.418   8.833   7.141
 3067POPC   C1B41131  31.582   9.368   6.182
 3067POPC   C2B41132  31.394   9.259   6.568
 3067POPC   C3B41133  31.506   9.394   6.985
 3067POPC   C4B41134  31.821   9.150   7.232
 3068POPC   NC341135  37.107   7.905   5.388
 3068POPC   PO441136  36.510   8.256   5.303
 3068POPC   GL141137  36.856   8.265   5.689
 3068POPC   GL241138  36.827   8.023   5.983
 3068POPC   C1A41139  37.004   8.472   6.079
 3068POPC   D2A41140  36.790   8.407   6.484
 3068POPC   C3A41141  36.963   8.466   6.897
 3068POPC   C4A41142  36.698   8.243   7.220
 3068POPC   C1B41143  37.241   7.962   6.083
 3068POPC   C2B41144  37.249   7.778   6.485
 3068POPC   C3B41145  37.124   7.956   6.854
 3068POPC   C4B41146  37.195   8.146   7.242
 3069POPC   NC341147  41.014  39.528   5.409
 3069POPC   PO441148  40.598  38.985   5.304
 3069POPC   GL141149  40.637  39.278   5.701
 3069POPC   GL241150  40.981  39.323   5.867
 3069POPC   C1A41151  40.575  39.115   6.146
 3069POPC   D2A41152  40.284  39.187   6.494
 3069POPC   C3A41153  40.458  39.048   6.890
 3069POPC   C4A41154  40.854  39.133   7.078
 3069POPC   C1B41155  40.809  39.560   6.191
 3069POPC   C2B41156  40.791  39.394   6.614
 3069POPC   C3B41157  41.009  39.585   6.958
 3069POPC   C4B41158  41.011  39.760   7.356
 3070POPC   NC341159   5.995  44.249   5.570
 3070POPC   PO441160   5.661  43.653   5.736
 3070POPC   GL141161   5.983  43.885   5.937
 3070POPC   GL241162   5.754  44.135   6.002
 3070POPC   C1A41163   6.116  44.020   6.355
 3070POPC   D2A41164   6.005  43.861   6.771
 3070POPC   C3A41165   6.160  43.972   7.169
 3070POPC   C4A41166   6.349  43.886   7.588
 3070POPC   C1B41167   5.615  43.878   6.383
 3070POPC   C2B41168   5.552  43.577   6.734
 3070POPC   C3B41169   5.682  43.712   7.140
 3070POPC   C4B41170   5.665  44.165   7.130
 3071POPC   NC341171  13.751  30.728   5.381
 3071POPC   PO441172  13.614  30.075   5.416
 3071POPC   GL141173  13.562  30.382   5.736
 3071POPC   GL241174  13.881  30.537   5.843
 3071POPC   C1A41175  13.488  30.528   6.151
 3071POPC   D2A41176  13.537  30.318   6.511
 3071POPC   C3A41177  13.560  30.547   6.880
 3071POPC   C4A41178  13.361  30.926   7.064
 3071POPC   C1B41179  13.940  30.791   6.251
 3071POPC   C2B41180  13.857  30.923   6.687
 3071POPC   C3B41181  13.913  30.816   7.139
 3071POPC   C4B41182  13.706  30.961   7.554
 3072POPC   NC341183  11.451   8.209   5.421
 3072POPC   PO441184  10.818   7.921   5.508
 3072POPC   GL141185  11.141   8.069   5.842
 3072POPC   GL241186  11.196   8.441   5.862
 3072POPC   C1A41187  11.262   8.081   6.308
 3072POPC   D2A41188  11.285   7.914   6.742
 3072POPC   C3A41189  11.187   8.220   7.038
 3072POPC   C4A41190  11.055   8.411   7.420
 3072POPC   C1B41191  11.619   8.349   6.085
 3072POPC   C2B41192  11.696   8.326   6.528
 3072POPC   C3B41193  11.700   8.225   6.973
 3072POPC   C4B41194  11.552   8.294   7.416
 3073POPC   NC341195  17.237  37.414   5.423
 3073POPC   PO441196  17.674  36.896   5.267
 3073POPC   GL141197  17.636  37.102   5.674
 3073POPC   GL241198  17.366  36.898   5.782
 3073POPC   C1A41199  17.612  37.158   6.142
 3073POPC   D2A41200  17.374  36.965   6.495
 3073POPC   C3A41201  17.595  37.016   6.870
 3073POPC   C4A41202  17.428  37.193   7.213
 3073POPC   C1B41203  17.567  36.659   6.133
 3073POPC   C2B41204  17.729  36.604   6.555
 3073POPC   C3B41205  17.583  36.514   6.956
 3073POPC   C4B41206  17.367  36.669   7.297
 3074POPC   NC341207  20.191  33.538   5.643
 3074POPC   PO441208  20.818  33.607   5.434
 3074POPC   GL141209  20.693  33.811   5.808
 3074POPC   GL241210  20.930  34.066   5.872
 3074POPC   C1A41211  20.683  33.724   6.269
 3074POPC   D2A41212  20.818  33.899   6.657
 3074POPC   C3A41213  20.820  33.667   7.047
 3074POPC   C4A41214  20.673  33.830   7.459
 3074POPC   C1B41215  20.550  34.205   6.159
 3074POPC   C2B41216  20.387  34.146   6.573
 3074POPC   C3B41217  20.371  33.982   6.985
 3074POPC   C4B41218  20.397  34.234   7.309
 3075POPC   NC341219  13.265  16.725   5.654
 3075POPC   PO441220  13.810  16.841   5.237
 3075POPC   GL141221  13.740  16.951   5.648
 3075POPC   GL241222  13.748  16.614   5.791
 3075POPC   C1A41223  13.925  17.000   6.071
 3075POPC   D2A41224  14.067  16.825   6.476
 3075POPC   C3A41225  13.851  16.941   6.862
 3075POPC   C4A41226  13.683  17.009   7.302
 3075POPC   C1B41227  13.580  16.589   6.233
 3075POPC   C2B41228  13.376  16.534   6.640
 3075POPC   C3B41229  13.508  16.570   7.063
 3075POPC   C4B41230  13.539  16.560   7.511
 3076POPC   NC341231  41.657  39.877   5.474
 3076POPC   PO441232  41.035  40.274   5.534
 3076POPC   GL141233  41.304  40.015   5.816
 3076POPC   GL241234  41.671  40.066   5.949
 3076POPC   C1A41235  41.285  39.810   6.203
 3076POPC   D2A41236  41.483  39.856   6.623
 3076POPC   C3A41237  41.364  39.969   7.054
 3076POPC   C4A41238  41.331  40.143   7.485
 3076POPC   C1B41239  41.800  39.724   6.224
 3076POPC   C2B41240  41.900  39.561   6.661
 3076POPC   C3B41241  41.865  39.810   7.065
 3076POPC   C4B41242  41.794  39.910   7.532
 3077POPC   NC341243  38.600  35.376   5.357
 3077POPC   PO441244  37.984  35.536   5.514
 3077POPC   GL141245  38.315  35.398   5.785
 3077POPC   GL241246  38.450  35.061   5.849
 3077POPC   C1A41247  38.550  35.419   6.194
 3077POPC   D2A41248  38.872  35.306   6.512
 3077POPC   C3A41249  38.621  35.276   6.879
 3077POPC   C4A41250  38.484  35.582   7.166
 3077POPC   C1B41251  38.082  35.179   6.171
 3077POPC   C2B41252  37.965  35.425   6.552
 3077POPC   C3B41253  38.010  35.335   7.002
 3077POPC   C4B41254  38.281  35.124   7.288
 3078POPC   NC341255  31.300  28.500   5.320
 3078POPC   PO441256  31.455  27.917   5.523
 3078POPC   GL141257  31.515  28.234   5.800
 3078POPC   GL241258  31.174  28.329   5.796
 3078POPC   C1A41259  31.624  28.205   6.249
 3078POPC   D2A41260  31.579  28.382   6.685
 3078POPC   C3A41261  31.406  28.163   7.049
 3078POPC   C4A41262  31.311  28.100   7.526
 3078POPC   C1B41263  31.254  28.553   6.180
 3078POPC   C2B41264  31.063  28.517   6.597
 3078POPC   C3B41265  31.212  28.645   7.001
 3078POPC   C4B41266  31.109  28.573   7.439
 3079POPC   NC341267  17.516  41.839   5.433
 3079POPC   PO441268  17.211  42.413   5.458
 3079POPC   GL141269  17.177  42.324   5.857
 3079POPC   GL241270  17.212  42.008   5.831
 3079POPC   C1A41271  17.257  42.434   6.280
 3079POPC   D2A41272  17.323  42.238   6.670
 3079POPC   C3A41273  17.638  42.477   6.897
 3079POPC   C4A41274  17.602  42.754   7.260
 3079POPC   C1B41275  17.609  42.100   6.077
 3079POPC   C2B41276  17.817  42.162   6.491
 3079POPC   C3B41277  17.836  41.979   6.898
 3079POPC   C4B41278  17.462  42.047   7.177
 3080POPC   NC341279  13.707  25.324   5.396
 3080POPC   PO441280  13.086  25.153   5.372
 3080POPC   GL141281  13.366  25.050   5.730
 3080POPC   GL241282  13.491  25.393   5.840
 3080POPC   C1A41283  13.466  25.034   6.200
 3080POPC   D2A41284  13.484  25.370   6.553
 3080POPC   C3A41285  13.591  25.230   6.968
 3080POPC   C4A41286  13.375  24.922   7.208
 3080POPC   C1B41287  13.871  25.316   6.076
 3080POPC   C2B41288  13.970  25.285   6.516
 3080POPC   C3B41289  13.898  25.620   6.809
 3080POPC   C4B41290  13.937  25.537   7.236
 3081POPC   NC341291  24.940  33.060   5.436
 3081POPC   PO441292  25.589  33.175   5.652
 3081POPC   GL141293  25.210  33.101   5.856
 3081POPC   GL241294  25.171  32.733   5.789
 3081POPC   C1A41295  25.074  33.384   6.160
 3081POPC   D2A41296  25.434  33.380   6.407
 3081POPC   C3A41297  25.479  33.315   6.829
 3081POPC   C4A41298  25.319  33.303   7.226
 3081POPC   C1B41299  25.437  32.737   6.164
 3081POPC   C2B41300  25.400  32.884   6.576
 3081POPC   C3B41301  25.248  32.833   7.014
 3081POPC   C4B41302  25.449  32.798   7.427
 3082POPC   NC341303  44.984  13.553   5.349
 3082POPC   PO441304  44.345  13.785   5.518
 3082POPC   GL141305  44.690  13.562   5.800
 3082POPC   GL241306   0.023  13.339   5.806
 3082POPC   C1A41307  44.665  13.645   6.255
 3082POPC   D2A41308  44.358  13.494   6.580
 3082POPC   C3A41309  44.436  13.592   7.016
 3082POPC   C4A41310  44.772  13.866   7.200
 3082POPC   C1B41311   0.126  13.423   6.229
 3082POPC   C2B41312   0.075  13.295   6.645
 3082POPC   C3B41313  44.923  13.395   7.047
 3082POPC   C4B41314  44.643  13.245   7.352
 3083POPC   NC341315  12.343   8.065   5.385
 3083POPC   PO441316  11.865   8.441   5.490
 3083POPC   GL141317  12.040   8.223   5.815
 3083POPC   GL241318  11.831   7.932   5.690
 3083POPC   C1A41319  12.156   8.349   6.258
 3083POPC   D2A41320  12.141   8.109   6.652
 3083POPC   C3A41321  12.399   8.183   7.008
 3083POPC   C4A41322  12.148   8.371   7.272
 3083POPC   C1B41323  11.606   7.806   6.043
 3083POPC   C2B41324  11.696   7.804   6.470
 3083POPC   C3B41325  11.745   7.713   6.914
 3083POPC   C4B41326  11.916   7.933   7.339
 3084POPC   NC341327  42.127  40.945   5.763
 3084POPC   PO441328  42.390  40.594   5.245
 3084POPC   GL141329  42.383  40.454   5.709
 3084POPC   GL241330  42.052  40.441   5.875
 3084POPC   C1A41331  42.571  40.506   6.157
 3084POPC   D2A41332  42.515  40.769   6.568
 3084POPC   C3A41333  42.562  40.539   6.962
 3084POPC   C4A41334  42.450  40.472   7.413
 3084POPC   C1B41335  42.092  40.568   6.315
 3084POPC   C2B41336  41.969  40.859   6.612
 3084POPC   C3B41337  42.050  40.693   7.016
 3084POPC   C4B41338  42.110  40.854   7.404
 3085POPC   NC341339   2.996  21.809   5.489
 3085POPC   PO441340   2.514  22.213   5.427
 3085POPC   GL141341   2.691  22.311   5.799
 3085POPC   GL241342   3.036  22.289   5.719
 3085POPC   C1A41343   2.552  22.249   6.199
 3085POPC   D2A41344   2.376  21.927   6.428
 3085POPC   C3A41345   2.430  22.063   6.799
 3085POPC   C4A41346   2.645  21.905   7.147
 3085POPC   C1B41347   3.079  22.208   6.150
 3085POPC   C2B41348   2.918  22.164   6.565
 3085POPC   C3B41349   3.123  22.077   6.963
 3085POPC   C4B41350   3.027  22.106   7.411
 3086POPC   NC341351  14.613  24.904   5.336
 3086POPC   PO441352  14.355  24.337   5.538
 3086POPC   GL141353  14.233  24.447   5.894
 3086POPC   GL241354  14.323  24.770   5.872
 3086POPC   C1A41355  14.388  24.446   6.305
 3086POPC   D2A41356  14.207  24.360   6.694
 3086POPC   C3A41357  14.495  24.359   7.046
 3086POPC   C4A41358  14.892  24.226   7.220
 3086POPC   C1B41359  14.150  24.890   6.263
 3086POPC   C2B41360  14.284  24.876   6.708
 3086POPC   C3B41361  14.400  24.844   7.175
 3086POPC   C4B41362  14.157  24.572   7.494
 3087POPC   NC341363  23.616  13.227   5.554
 3087POPC   PO441364  23.660  12.532   5.440
 3087POPC   GL141365  23.659  12.779   5.839
 3087POPC   GL241366  23.910  13.039   5.965
 3087POPC   C1A41367  23.746  12.694   6.281
 3087POPC   D2A41368  23.650  12.539   6.659
 3087POPC   C3A41369  23.862  12.700   6.994
 3087POPC   C4A41370  23.567  12.625   7.275
 3087POPC   C1B41371  23.552  13.182   6.213
 3087POPC   C2B41372  23.554  13.311   6.660
 3087POPC   C3B41373  23.633  13.150   7.079
 3087POPC   C4B41374  23.880  13.261   7.443
 3088POPC   NC341375  22.710  40.204   5.422
 3088POPC   PO441376  22.882  39.488   5.271
 3088POPC   GL141377  22.930  39.724   5.696
 3088POPC   GL241378  23.107  40.027   5.761
 3088POPC   C1A41379  22.911  39.759   6.178
 3088POPC   D2A41380  23.054  39.797   6.636
 3088POPC   C3A41381  22.799  39.827   7.017
 3088POPC   C4A41382  22.726  40.211   7.219
 3088POPC   C1B41383  23.298  40.137   6.174
 3088POPC   C2B41384  23.378  40.451   6.481
 3088POPC   C3B41385  23.135  40.383   6.867
 3088POPC   C4B41386  23.227  40.137   7.205
 3089POPC   NC341387   0.378  38.048   5.264
 3089POPC   PO441388   0.409  37.375   5.187
 3089POPC   GL141389   0.517  37.562   5.628
 3089POPC   GL241390   0.697  37.897   5.704
 3089POPC   C1A41391   0.486  37.495   6.104
 3089POPC   D2A41392   0.272  37.317   6.481
 3089POPC   C3A41393   0.310  37.499   6.902
 3089POPC   C4A41394   0.430  37.490   7.366
 3089POPC   C1B41395   0.754  37.933   6.177
 3089POPC   C2B41396   0.668  37.731   6.605
 3089POPC   C3B41397   0.615  37.878   7.067
 3089POPC   C4B41398   0.587  37.986   7.545
 3090POPC   NC341399  11.032  38.362   5.452
 3090POPC   PO441400  11.475  38.848   5.495
 3090POPC   GL141401  11.174  38.757   5.761
 3090POPC   GL241402  11.349  38.467   5.878
 3090POPC   C1A41403  11.046  38.782   6.154
 3090POPC   D2A41404  11.099  38.498   6.489
 3090POPC   C3A41405  11.195  38.664   6.887
 3090POPC   C4A41406  11.251  38.375   7.222
 3090POPC   C1B41407  11.663  38.321   6.177
 3090POPC   C2B41408  11.767  38.031   6.494
 3090POPC   C3B41409  11.523  38.078   6.820
 3090POPC   C4B41410  11.727  38.234   7.123
 3091POPC   NC341411  24.804  21.785   5.406
 3091POPC   PO441412  25.337  21.345   5.336
 3091POPC   GL141413  25.409  21.323   5.797
 3091POPC   GL241414  25.364  20.986   5.786
 3091POPC   C1A41415  25.444  21.480   6.272
 3091POPC   D2A41416  25.486  21.526   6.777
 3091POPC   C3A41417  25.154  21.518   7.052
 3091POPC   C4A41418  25.135  21.524   7.488
 3091POPC   C1B41419  25.088  21.072   6.139
 3091POPC   C2B41420  25.096  21.247   6.572
 3091POPC   C3B41421  25.210  21.031   6.937
 3091POPC   C4B41422  24.976  21.077   7.316
 3092POPC   NC341423  25.349  14.937   5.351
 3092POPC   PO441424  25.076  15.546   5.433
 3092POPC   GL141425  25.177  15.318   5.820
 3092POPC   GL241426  25.042  14.968   5.805
 3092POPC   C1A41427  25.485  15.284   6.198
 3092POPC   D2A41428  25.456  15.350   6.669
 3092POPC   C3A41429  25.668  15.045   6.962
 3092POPC   C4A41430  25.713  14.831   7.380
 3092POPC   C1B41431  25.012  15.094   6.260
 3092POPC   C2B41432  25.106  14.947   6.677
 3092POPC   C3B41433  25.188  15.137   7.061
 3092POPC   C4B41434  25.074  15.425   7.349
 3093POPC   NC341435  12.301  20.066   5.540
 3093POPC   PO441436  11.658  19.892   5.449
 3093POPC   GL141437  11.949  19.814   5.826
 3093POPC   GL241438  12.324  19.650   5.855
 3093POPC   C1A41439  12.097  20.042   6.194
 3093POPC   D2A41440  12.384  20.172   6.519
 3093POPC   C3A41441  12.270  19.947   6.900
 3093POPC   C4A41442  11.858  19.914   7.145
 3093POPC   C1B41443  12.483  19.679   6.302
 3093POPC   C2B41444  12.296  19.484   6.675
 3093POPC   C3B41445  12.245  19.473   7.112
 3093POPC   C4B41446  12.443  19.426   7.502
 3094POPC   NC341447  41.060  36.286   5.623
 3094POPC   PO441448  40.578  35.957   5.201
 3094POPC   GL141449  40.539  36.170   5.634
 3094POPC   GL241450  40.543  35.970   5.950
 3094POPC   C1A41451  40.572  36.483   6.012
 3094POPC   D2A41452  40.676  36.510   6.462
 3094POPC   C3A41453  40.569  36.152   6.734
 3094POPC   C4A41454  40.616  36.174   7.162
 3094POPC   C1B41455  40.875  36.087   6.278
 3094POPC   C2B41456  41.081  36.251   6.661
 3094POPC   C3B41457  41.095  36.038   7.059
 3094POPC   C4B41458  41.063  36.029   7.491
 3095POPC   NC341459   1.216  44.856   5.421
 3095POPC   PO441460   0.947  44.211   5.558
 3095POPC   GL141461   1.141  44.488   5.846
 3095POPC   GL241462   0.924  44.295   6.047
 3095POPC   C1A41463   1.432  44.660   6.193
 3095POPC   D2A41464   1.722  44.438   6.510
 3095POPC   C3A41465   1.506  44.445   6.927
 3095POPC   C4A41466   1.375  44.869   7.124
 3095POPC   C1B41467   1.076  44.383   6.404
 3095POPC   C2B41468   0.931  44.671   6.664
 3095POPC   C3B41469   0.995  44.553   7.054
 3095POPC   C4B41470   0.951  44.732   7.455
 3096POPC   NC341471  38.475  15.366   5.394
 3096POPC   PO441472  39.097  15.340   5.465
 3096POPC   GL141473  38.811  15.278   5.853
 3096POPC   GL241474  38.454  15.212   5.869
 3096POPC   C1A41475  38.691  15.272   6.310
 3096POPC   D2A41476  38.378  15.324   6.641
 3096POPC   C3A41477  38.623  15.331   7.009
 3096POPC   C4A41478  38.823  15.063   7.266
 3096POPC   C1B41479  38.207  15.065   6.224
 3096POPC   C2B41480  38.099  14.852   6.615
 3096POPC   C3B41481  38.295  14.924   7.000
 3096POPC   C4B41482  38.139  15.295   7.179
 3097POPC   NC341483  35.073  13.614   5.099
 3097POPC   PO441484  35.591  13.411   5.432
 3097POPC   GL141485  35.435  13.690   5.718
 3097POPC   GL241486  35.634  13.709   5.982
 3097POPC   C1A41487  35.113  13.713   6.066
 3097POPC   D2A41488  35.016  13.533   6.489
 3097POPC   C3A41489  35.046  13.820   6.863
 3097POPC   C4A41490  35.171  13.831   7.310
 3097POPC   C1B41491  35.610  14.024   6.321
 3097POPC   C2B41492  35.565  13.988   6.784
 3097POPC   C3B41493  35.561  13.643   7.058
 3097POPC   C4B41494  35.797  13.501   7.400
 3098POPC   NC341495  26.437  34.437   5.550
 3098POPC   PO441496  27.025  34.841   5.459
 3098POPC   GL141497  26.810  34.669   5.832
 3098POPC   GL241498  26.514  34.886   5.897
 3098POPC   C1A41499  26.797  34.401   6.230
 3098POPC   D2A41500  26.699  34.187   6.655
 3098POPC   C3A41501  26.872  34.388   7.052
 3098POPC   C4A41502  26.667  34.506   7.443
 3098POPC   C1B41503  26.594  34.887   6.307
 3098POPC   C2B41504  26.704  34.709   6.675
 3098POPC   C3B41505  26.674  34.886   7.080
 3098POPC   C4B41506  27.043  34.855   7.278
 3099POPC   NC341507  22.355   2.392   5.405
 3099POPC   PO441508  21.928   2.905   5.315
 3099POPC   GL141509  22.065   2.740   5.719
 3099POPC   GL241510  22.389   2.872   5.833
 3099POPC   C1A41511  22.095   2.675   6.179
 3099POPC   D2A41512  22.257   3.040   6.432
 3099POPC   C3A41513  22.195   2.985   6.883
 3099POPC   C4A41514  22.204   2.659   7.200
 3099POPC   C1B41515  22.600   2.714   6.220
 3099POPC   C2B41516  22.530   2.649   6.677
 3099POPC   C3B41517  22.678   2.542   7.088
 3099POPC   C4B41518  22.819   2.528   7.521
 3100POPC   NC341519  35.283  34.893   5.385
 3100POPC   PO441520  35.268  34.268   5.605
 3100POPC   GL141521  35.504  34.244   5.971
 3100POPC   GL241522  35.182  34.370   6.119
 3100POPC   C1A41523  35.627  34.477   6.353
 3100POPC   D2A41524  35.291  34.583   6.667
 3100POPC   C3A41525  35.138  34.308   7.004
 3100POPC   C4A41526  35.533  34.266   7.279
 3100POPC   C1B41527  34.953  34.736   6.286
 3100POPC   C2B41528  34.795  34.718   6.704
 3100POPC   C3B41529  34.899  34.949   7.062
 3100POPC   C4B41530  35.269  34.753   7.203
 3101POPC   NC341531  29.373  13.252   5.517
 3101POPC   PO441532  28.897  12.736   5.468
 3101POPC   GL141533  29.194  12.830   5.798
 3101POPC   GL241534  29.004  13.096   5.897
 3101POPC   C1A41535  29.361  12.856   6.232
 3101POPC   D2A41536  29.233  12.971   6.657
 3101POPC   C3A41537  29.363  12.819   7.045
 3101POPC   C4A41538  29.503  12.456   7.290
 3101POPC   C1B41539  28.852  13.021   6.334
 3101POPC   C2B41540  28.749  13.092   6.785
 3101POPC   C3B41541  28.762  13.041   7.238
 3101POPC   C4B41542  28.815  13.125   7.684
 3102POPC   NC341543  32.318  21.032   5.721
 3102POPC   PO441544  32.408  21.649   5.391
 3102POPC   GL141545  32.197  21.536   5.784
 3102POPC   GL241546  32.538  21.497   5.881
 3102POPC   C1A41547  32.190  21.354   6.234
 3102POPC   D2A41548  32.218  21.085   6.529
 3102POPC   C3A41549  32.081  21.253   6.899
 3102POPC   C4A41550  32.125  21.106   7.290
 3102POPC   C1B41551  32.680  21.593   6.281
 3102POPC   C2B41552  32.465  21.514   6.634
 3102POPC   C3B41553  32.256  21.737   6.928
 3102POPC   C4B41554  32.373  21.580   7.290
 3103POPC   NC341555   5.761   4.712   5.223
 3103POPC   PO441556   5.669   5.391   5.331
 3103POPC   GL141557   5.699   5.139   5.792
 3103POPC   GL241558   5.899   4.835   5.793
 3103POPC   C1A41559   5.767   4.970   6.283
 3103POPC   D2A41560   5.693   4.709   6.716
 3103POPC   C3A41561   5.758   4.893   7.182
 3103POPC   C4A41562   5.948   5.236   7.497
 3103POPC   C1B41563   6.111   4.629   6.150
 3103POPC   C2B41564   6.200   4.774   6.589
 3103POPC   C3B41565   6.151   4.635   7.027
 3103POPC   C4B41566   6.073   4.725   7.522
 3104POPC   NC341567  33.323  20.733   5.410
 3104POPC   PO441568  32.555  20.775   5.413
 3104POPC   GL141569  32.742  20.543   5.789
 3104POPC   GL241570  33.125  20.457   5.802
 3104POPC   C1A41571  32.905  20.608   6.229
 3104POPC   D2A41572  33.060  20.577   6.650
 3104POPC   C3A41573  32.823  20.658   7.016
 3104POPC   C4A41574  33.006  20.915   7.241
 3104POPC   C1B41575  33.201  20.161   6.172
 3104POPC   C2B41576  33.162  20.073   6.643
 3104POPC   C3B41577  33.228  20.278   7.044
 3104POPC   C4B41578  33.144  20.472   7.402
 3105POPC   NC341579   4.633  18.450   5.502
 3105POPC   PO441580   4.110  17.997   5.512
 3105POPC   GL141581   4.277  18.188   5.835
 3105POPC   GL241582   4.237  18.539   5.852
 3105POPC   C1A41583   4.390  18.040   6.226
 3105POPC   D2A41584   4.525  18.295   6.548
 3105POPC   C3A41585   4.646  18.054   6.914
 3105POPC   C4A41586   4.454  17.798   7.241
 3105POPC   C1B41587   4.555  18.704   6.150
 3105POPC   C2B41588   4.690  18.813   6.577
 3105POPC   C3B41589   4.588  18.585   6.967
 3105POPC   C4B41590   4.485  18.323   7.330
 3106POPC   NC341591  41.084  40.256   5.077
 3106POPC   PO441592  40.642  39.796   5.285
 3106POPC   GL141593  40.817  39.851   5.740
 3106POPC   GL241594  40.523  39.838   5.838
 3106POPC   C1A41595  40.869  40.103   6.156
 3106POPC   D2A41596  40.930  39.901   6.559
 3106POPC   C3A41597  40.864  40.070   6.950
 3106POPC   C4A41598  40.854  40.248   7.349
 3106POPC   C1B41599  40.362  40.107   6.159
 3106POPC   C2B41600  40.503  40.251   6.565
 3106POPC   C3B41601  40.362  40.159   6.961
 3106POPC   C4B41602  40.531  39.776   7.176
 3107POPC   NC341603  16.610   0.679   5.004
 3107POPC   PO441604  16.933   0.066   5.099
 3107POPC   GL141605  16.873   0.056   5.581
 3107POPC   GL241606  16.708   0.374   5.625
 3107POPC   C1A41607  16.749   0.054   6.068
 3107POPC   D2A41608  16.838   0.285   6.533
 3107POPC   C3A41609  16.739   0.099   6.994
 3107POPC   C4A41610  16.564   0.131   7.435
 3107POPC   C1B41611  16.891   0.556   6.031
 3107POPC   C2B41612  16.801   0.808   6.421
 3107POPC   C3B41613  16.817   0.770   6.874
 3107POPC   C4B41614  16.751   0.585   7.284
 3108POPC   NC341615  34.880  17.586   5.345
 3108POPC   PO441616  35.529  17.343   5.430
 3108POPC   GL141617  35.250  17.317   5.803
 3108POPC   GL241618  35.136  17.649   5.777
 3108POPC   C1A41619  35.153  17.312   6.283
 3108POPC   D2A41620  35.330  17.212   6.728
 3108POPC   C3A41621  35.498  17.528   7.045
 3108POPC   C4A41622  35.550  17.526   7.493
 3108POPC   C1B41623  35.145  17.819   6.178
 3108POPC   C2B41624  35.245  17.718   6.594
 3108POPC   C3B41625  35.011  17.607   6.945
 3108POPC   C4B41626  35.095  17.765   7.371
 3109POPC   NC341627   0.844  34.195   5.359
 3109POPC   PO441628   1.317  33.577   5.356
 3109POPC   GL141629   1.099  33.785   5.742
 3109POPC   GL241630   1.103  34.158   5.789
 3109POPC   C1A41631   1.226  33.836   6.202
 3109POPC   D2A41632   1.197  33.691   6.641
 3109POPC   C3A41633   1.487  33.832   6.967
 3109POPC   C4A41634   1.441  33.984   7.418
 3109POPC   C1B41635   0.856  34.182   6.172
 3109POPC   C2B41636   0.923  34.123   6.618
 3109POPC   C3B41637   1.042  34.063   7.053
 3109POPC   C4B41638   0.915  34.229   7.459
 3110POPC   NC341639  40.102  36.585   5.455
 3110POPC   PO441640  40.027  35.940   5.595
 3110POPC   GL141641  40.089  36.262   5.891
 3110POPC   GL241642  39.763  36.429   5.839
 3110POPC   C1A41643  40.255  36.242   6.324
 3110POPC   D2A41644  40.144  36.501   6.694
 3110POPC   C3A41645  40.072  36.254   7.026
 3110POPC   C4A41646  40.212  35.868   7.170
 3110POPC   C1B41647  39.783  36.411   6.299
 3110POPC   C2B41648  39.606  36.307   6.696
 3110POPC   C3B41649  39.599  36.442   7.119
 3110POPC   C4B41650  39.763  36.189   7.448
 3111POPC   NC341651  11.536  11.724   5.482
 3111POPC   PO441652  11.050  12.112   5.346
 3111POPC   GL141653  11.158  12.130   5.782
 3111POPC   GL241654  11.486  12.214   5.774
 3111POPC   C1A41655  11.305  12.059   6.237
 3111POPC   D2A41656  11.492  11.892   6.658
 3111POPC   C3A41657  11.184  11.903   7.007
 3111POPC   C4A41658  11.102  11.817   7.453
 3111POPC   C1B41659  11.548  12.512   6.121
 3111POPC   C2B41660  11.632  12.364   6.532
 3111POPC   C3B41661  11.494  12.342   6.945
 3111POPC   C4B41662  11.608  12.517   7.365
 3112POPC   NC341663   6.303   8.349   5.112
 3112POPC   PO441664   6.734   7.962   5.520
 3112POPC   GL141665   6.742   7.994   5.956
 3112POPC   GL241666   6.716   8.349   5.988
 3112POPC   C1A41667   6.597   8.085   6.382
 3112POPC   D2A41668   6.748   8.313   6.725
 3112POPC   C3A41669   6.650   7.989   7.010
 3112POPC   C4A41670   6.316   8.036   7.313
 3112POPC   C1B41671   7.066   8.314   6.265
 3112POPC   C2B41672   7.250   8.350   6.670
 3112POPC   C3B41673   7.139   8.384   7.099
 3112POPC   C4B41674   6.740   8.392   7.287
 3113POPC   NC341675  42.314  15.467   5.537
 3113POPC   PO441676  42.662  15.955   5.184
 3113POPC   GL141677  42.522  15.959   5.621
 3113POPC   GL241678  42.149  15.945   5.673
 3113POPC   C1A41679  42.509  15.836   6.080
 3113POPC   D2A41680  42.312  15.625   6.447
 3113POPC   C3A41681  42.457  15.815   6.823
 3113POPC   C4A41682  42.362  15.683   7.242
 3113POPC   C1B41683  42.008  15.899   6.124
 3113POPC   C2B41684  42.084  16.093   6.526
 3113POPC   C3B41685  42.006  15.997   6.953
 3113POPC   C4B41686  42.259  16.187   7.281
 3114POPC   NC341687  15.445  21.409   5.484
 3114POPC   PO441688  14.896  20.990   5.633
 3114POPC   GL141689  14.993  21.036   6.042
 3114POPC   GL241690  15.297  21.223   5.928
 3114POPC   C1A41691  15.086  21.279   6.406
 3114POPC   D2A41692  15.220  21.621   6.677
 3114POPC   C3A41693  15.089  21.554   7.097
 3114POPC   C4A41694  14.978  21.156   7.305
 3114POPC   C1B41695  15.517  21.033   6.237
 3114POPC   C2B41696  15.564  21.207   6.620
 3114POPC   C3B41697  15.414  21.153   7.045
 3114POPC   C4B41698  15.398  21.369   7.486
 3115POPC   NC341699  42.872   0.060   5.486
 3115POPC   PO441700  43.222  44.531   5.170
 3115POPC   GL141701  42.963  44.554   5.657
 3115POPC   GL241702  43.114  44.840   5.868
 3115POPC   C1A41703  42.922  44.481   6.178
 3115POPC   D2A41704  42.698  44.516   6.638
 3115POPC   C3A41705  42.822  44.753   7.065
 3115POPC   C4A41706  42.682  44.574   7.537
 3115POPC   C1B41707  43.275  44.856   6.284
 3115POPC   C2B41708  43.175  44.680   6.665
 3115POPC   C3B41709  43.232  44.448   7.040
 3115POPC   C4B41710  43.554  44.437   7.349
 3116POPC   NC341711   1.372  21.838   5.316
 3116POPC   PO441712   1.051  22.526   5.508
 3116POPC   GL141713   1.366  22.372   5.795
 3116POPC   GL241714   1.286  22.081   5.747
 3116POPC   C1A41715   1.450  22.126   6.227
 3116POPC   D2A41716   1.404  21.857   6.615
 3116POPC   C3A41717   1.323  22.195   6.914
 3116POPC   C4A41718   1.422  22.216   7.349
 3116POPC   C1B41719   0.972  22.064   6.071
 3116POPC   C2B41720   0.941  21.995   6.488
 3116POPC   C3B41721   0.869  21.985   6.922
 3116POPC   C4B41722   0.898  22.314   7.213
 3117POPC   NC341723  31.365  22.574   5.631
 3117POPC   PO441724  31.741  23.121   5.624
 3117POPC   GL141725  31.545  22.909   5.979
 3117POPC   GL241726  31.175  22.985   5.925
 3117POPC   C1A41727  31.325  22.733   6.342
 3117POPC   D2A41728  31.196  22.897   6.743
 3117POPC   C3A41729  31.366  22.648   7.043
 3117POPC   C4A41730  31.788  22.739   7.124
 3117POPC   C1B41731  31.177  23.245   6.318
 3117POPC   C2B41732  31.416  23.361   6.675
 3117POPC   C3B41733  31.563  23.172   7.040
 3117POPC   C4B41734  31.361  23.010   7.420
 3118POPC   NC341735  21.169  30.764   5.115
 3118POPC   PO441736  21.492  30.701   5.690
 3118POPC   GL141737  21.355  30.538   6.012
 3118POPC   GL241738  21.444  30.220   5.921
 3118POPC   C1A41739  21.398  30.649   6.422
 3118POPC   D2A41740  21.453  30.952   6.722
 3118POPC   C3A41741  21.206  30.763   7.049
 3118POPC   C4A41742  21.338  30.665   7.435
 3118POPC   C1B41743  21.648  30.187   6.304
 3118POPC   C2B41744  21.513  30.205   6.717
 3118POPC   C3B41745  21.234  30.261   7.051
 3118POPC   C4B41746  21.266  30.184   7.490
 3119POPC   NC341747  44.955   9.777   5.605
 3119POPC   PO441748  44.430  10.247   5.444
 3119POPC   GL141749  44.482   9.988   5.828
 3119POPC   GL241750  44.353   9.690   5.729
 3119POPC   C1A41751  44.610   9.858   6.287
 3119POPC   D2A41752  44.725   9.676   6.698
 3119POPC   C3A41753  44.804   9.991   7.007
 3119POPC   C4A41754   0.176  10.189   7.155
 3119POPC   C1B41755  44.192   9.606   6.159
 3119POPC   C2B41756  44.213   9.649   6.603
 3119POPC   C3B41757  44.410   9.333   6.914
 3119POPC   C4B41758  44.609   9.569   7.225
 3120POPC   NC341759  38.924  27.967   5.601
 3120POPC   PO441760  39.382  27.515   5.435
 3120POPC   GL141761  39.302  27.433   5.825
 3120POPC   GL241762  39.304  27.781   5.884
 3120POPC   C1A41763  39.288  27.338   6.240
 3120POPC   D2A41764  39.163  27.615   6.557
 3120POPC   C3A41765  39.211  27.480   6.973
 3120POPC   C4A41766  39.121  27.552   7.391
 3120POPC   C1B41767  39.149  28.005   6.225
 3120POPC   C2B41768  38.834  28.043   6.499
 3120POPC   C3B41769  38.864  27.889   6.887
 3120POPC   C4B41770  39.013  28.019   7.246
 3121POPC   NC341771   0.842  22.116   5.449
 3121POPC   PO441772   0.160  21.972   5.426
 3121POPC   GL141773   0.450  22.030   5.783
 3121POPC   GL241774   0.685  21.762   5.770
 3121POPC   C1A41775   0.525  22.307   6.174
 3121POPC   D2A41776   0.539  22.245   6.635
 3121POPC   C3A41777   0.406  22.378   7.036
 3121POPC   C4A41778   0.072  22.209   7.269
 3121POPC   C1B41779   0.584  21.738   6.209
 3121POPC   C2B41780   0.498  21.707   6.653
 3121POPC   C3B41781   0.390  21.856   7.068
 3121POPC   C4B41782   0.525  22.041   7.466
 3122POPC   NC341783  31.758  23.582   5.597
 3122POPC   PO441784  31.232  24.093   5.554
 3122POPC   GL141785  31.400  23.840   5.855
 3122POPC   GL241786  31.692  24.039   5.894
 3122POPC   C1A41787  31.447  23.699   6.279
 3122POPC   D2A41788  31.514  23.915   6.654
 3122POPC   C3A41789  31.564  23.708   7.017
 3122POPC   C4A41790  31.243  23.509   7.204
 3122POPC   C1B41791  31.382  24.214   6.213
 3122POPC   C2B41792  31.095  24.162   6.570
 3122POPC   C3B41793  31.144  24.032   7.017
 3122POPC   C4B41794  30.959  24.194   7.387
 3123POPC   NC341795  20.374  23.030   4.983
 3123POPC   PO441796  20.765  22.504   5.235
 3123POPC   GL141797  20.787  22.699   5.686
 3123POPC   GL241798  20.520  22.920   5.829
 3123POPC   C1A41799  20.958  22.917   6.089
 3123POPC   D2A41800  20.821  23.138   6.469
 3123POPC   C3A41801  20.742  22.894   6.832
 3123POPC   C4A41802  20.927  23.010   7.183
 3123POPC   C1B41803  20.462  22.819   6.297
 3123POPC   C2B41804  20.250  22.927   6.714
 3123POPC   C3B41805  20.326  23.124   7.127
 3123POPC   C4B41806  20.159  23.188   7.566
 3124POPC   NC341807   6.038  38.901   5.339
 3124POPC   PO441808   5.722  38.282   5.328
 3124POPC   GL141809   5.716  38.407   5.784
 3124POPC   GL241810   5.830  38.712   5.754
 3124POPC   C1A41811   5.978  38.497   6.186
 3124POPC   D2A41812   6.246  38.513   6.495
 3124POPC   C3A41813   6.098  38.389   6.890
 3124POPC   C4A41814   6.194  38.483   7.286
 3124POPC   C1B41815   5.650  38.867   6.147
 3124POPC   C2B41816   5.658  38.684   6.577
 3124POPC   C3B41817   5.567  38.370   6.900
 3124POPC   C4B41818   5.697  38.386   7.324
 3125POPC   NC341819  29.288   9.507   5.382
 3125POPC   PO441820  28.736   9.815   5.336
 3125POPC   GL141821  28.918   9.679   5.774
 3125POPC   GL241822  29.281   9.618   5.893
 3125POPC   C1A41823  28.928   9.538   6.239
 3125POPC   D2A41824  29.234   9.472   6.605
 3125POPC   C3A41825  29.050   9.523   7.023
 3125POPC   C4A41826  29.135   9.636   7.456
 3125POPC   C1B41827  29.209  10.003   6.131
 3125POPC   C2B41828  29.120  10.128   6.556
 3125POPC   C3B41829  29.234  10.016   6.997
 3125POPC   C4B41830  29.033  10.122   7.384
 3126POPC   NC341831  40.595   8.492   5.296
 3126POPC   PO441832  40.993   7.962   5.380
 3126POPC   GL141833  41.110   8.100   5.804
 3126POPC   GL241834  40.894   8.368   5.721
 3126POPC   C1A41835  41.075   8.090   6.265
 3126POPC   D2A41836  40.726   8.004   6.515
 3126POPC   C3A41837  40.759   8.142   6.917
 3126POPC   C4A41838  40.836   7.954   7.314
 3126POPC   C1B41839  40.673   8.294   6.089
 3126POPC   C2B41840  40.622   8.513   6.495
 3126POPC   C3B41841  40.630   8.643   6.924
 3126POPC   C4B41842  40.643   8.442   7.316
 3127POPC   NC341843   4.046  14.890   5.506
 3127POPC   PO441844   4.585  15.216   5.472
 3127POPC   GL141845   4.359  15.082   5.847
 3127POPC   GL241846   4.155  15.384   5.910
 3127POPC   C1A41847   4.166  14.974   6.253
 3127POPC   D2A41848   4.219  15.151   6.629
 3127POPC   C3A41849   4.231  14.978   7.017
 3127POPC   C4A41850   4.293  15.319   7.284
 3127POPC   C1B41851   4.500  15.365   6.238
 3127POPC   C2B41852   4.739  15.178   6.587
 3127POPC   C3B41853   4.723  15.180   7.024
 3127POPC   C4B41854   4.857  15.279   7.450
 3128POPC   NC341855  42.663  29.965   5.071
 3128POPC   PO441856  42.161  29.944   5.450
 3128POPC   GL141857  42.060  30.098   5.824
 3128POPC   GL241858  41.988  29.761   5.934
 3128POPC   C1A41859  42.295  30.077   6.187
 3128POPC   D2A41860  42.154  29.968   6.561
 3128POPC   C3A41861  42.423  30.075   6.847
 3128POPC   C4A41862  42.395  30.116   7.265
 3128POPC   C1B41863  42.158  29.533   6.290
 3128POPC   C2B41864  42.457  29.564   6.664
 3128POPC   C3B41865  42.431  29.636   7.118
 3128POPC   C4B41866  42.462  29.681   7.558
 3129POPC   NC341867  31.486  34.070   5.314
 3129POPC   PO441868  31.109  33.539   5.579
 3129POPC   GL141869  31.241  33.910   5.845
 3129POPC   GL241870  31.583  34.032   5.836
 3129POPC   C1A41871  31.374  33.932   6.290
 3129POPC   D2A41872  31.484  33.981   6.718
 3129POPC   C3A41873  31.556  33.669   6.987
 3129POPC   C4A41874  31.285  33.618   7.318
 3129POPC   C1B41875  31.742  34.260   6.209
 3129POPC   C2B41876  31.927  34.218   6.608
 3129POPC   C3B41877  31.770  34.281   7.036
 3129POPC   C4B41878  31.663  33.997   7.375
 3130POPC   NC341879  32.892  26.140   5.393
 3130POPC   PO441880  33.301  25.715   5.164
 3130POPC   GL141881  33.066  25.748   5.690
 3130POPC   GL241882  32.895  26.096   5.903
 3130POPC   C1A41883  32.885  25.666   6.147
 3130POPC   D2A41884  32.786  26.007   6.465
 3130POPC   C3A41885  33.036  26.030   6.847
 3130POPC   C4A41886  33.261  25.649   6.971
 3130POPC   C1B41887  33.062  26.429   6.230
 3130POPC   C2B41888  33.143  26.572   6.669
 3130POPC   C3B41889  33.064  26.519   7.088
 3130POPC   C4B41890  32.760  26.259   7.240
 3131POPC   NC341891  24.940  36.201   5.618
 3131POPC   PO441892  25.579  36.022   5.386
 3131POPC   GL141893  25.358  35.908   5.752
 3131POPC   GL241894  25.074  35.731   5.855
 3131POPC   C1A41895  25.446  35.973   6.194
 3131POPC   D2A41896  25.505  36.288   6.529
 3131POPC   C3A41897  25.476  36.092   6.926
 3131POPC   C4A41898  25.183  36.227   7.215
 3131POPC   C1B41899  24.933  35.864   6.268
 3131POPC   C2B41900  25.020  35.950   6.711
 3131POPC   C3B41901  24.861  35.861   7.111
 3131POPC   C4B41902  24.899  35.983   7.576
 3132POPC   NC341903  40.667  43.344   5.511
 3132POPC   PO441904  41.141  42.813   5.447
 3132POPC   GL141905  40.901  42.943   5.744
 3132POPC   GL241906  41.114  43.239   5.791
 3132POPC   C1A41907  40.587  42.955   6.087
 3132POPC   D2A41908  40.637  42.809   6.511
 3132POPC   C3A41909  40.748  42.988   6.896
 3132POPC   C4A41910  40.677  42.854   7.299
 3132POPC   C1B41911  40.935  43.421   6.175
 3132POPC   C2B41912  40.967  43.559   6.613
 3132POPC   C3B41913  41.009  43.420   7.027
 3132POPC   C4B41914  40.623  43.364   7.236
 3133POPC   NC341915   3.459  24.174   5.535
 3133POPC   PO441916   3.336  23.588   5.338
 3133POPC   GL141917   3.558  23.685   5.760
 3133POPC   GL241918   3.388  23.942   5.971
 3133POPC   C1A41919   3.732  23.656   6.209
 3133POPC   D2A41920   3.613  23.849   6.604
 3133POPC   C3A41921   3.796  23.740   7.030
 3133POPC   C4A41922   3.863  23.950   7.462
 3133POPC   C1B41923   3.203  23.580   6.151
 3133POPC   C2B41924   3.206  23.418   6.560
 3133POPC   C3B41925   3.299  23.623   6.923
 3133POPC   C4B41926   3.401  23.481   7.267
 3134POPC   NC341927  28.498  28.778   5.459
 3134POPC   PO441928  28.005  28.416   5.308
 3134POPC   GL141929  28.215  28.448   5.729
 3134POPC   GL241930  28.310  28.144   5.907
 3134POPC   C1A41931  28.413  28.609   6.117
 3134POPC   D2A41932  28.256  28.686   6.547
 3134POPC   C3A41933  28.486  28.784   6.941
 3134POPC   C4A41934  28.205  28.704   7.303
 3134POPC   C1B41935  28.095  28.172   6.257
 3134POPC   C2B41936  28.215  28.029   6.657
 3134POPC   C3B41937  28.648  28.004   6.853
 3134POPC   C4B41938  28.471  28.295   7.147
 3135POPC   NC341939  43.515  26.370   5.594
 3135POPC   PO441940  43.035  25.845   5.498
 3135POPC   GL141941  43.129  26.040   5.850
 3135POPC   GL241942  43.465  25.954   5.890
 3135POPC   C1A41943  43.169  25.900   6.290
 3135POPC   D2A41944  42.979  25.835   6.665
 3135POPC   C3A41945  42.918  26.177   6.963
 3135POPC   C4A41946  43.040  26.154   7.396
 3135POPC   C1B41947  43.390  26.339   6.190
 3135POPC   C2B41948  43.189  26.434   6.531
 3135POPC   C3B41949  43.323  26.507   6.924
 3135POPC   C4B41950  43.159  26.622   7.302
 3136POPC   NC341951  12.921  37.821   5.267
 3136POPC   PO441952  12.508  37.346   5.458
 3136POPC   GL141953  12.870  37.601   5.736
 3136POPC   GL241954  13.124  37.894   5.723
 3136POPC   C1A41955  13.074  37.580   6.144
 3136POPC   D2A41956  12.780  37.617   6.490
 3136POPC   C3A41957  12.959  37.605   6.886
 3136POPC   C4A41958  12.807  37.383   7.235
 3136POPC   C1B41959  12.851  38.044   6.070
 3136POPC   C2B41960  12.940  38.105   6.513
 3136POPC   C3B41961  12.718  38.067   6.898
 3136POPC   C4B41962  12.844  37.910   7.284
 3137POPC   NC341963  15.860  41.521   5.377
 3137POPC   PO441964  16.437  41.892   5.471
 3137POPC   GL141965  16.172  41.791   5.808
 3137POPC   GL241966  15.834  41.885   5.735
 3137POPC   C1A41967  15.984  41.440   6.062
 3137POPC   D2A41968  15.779  41.279   6.452
 3137POPC   C3A41969  15.956  41.276   6.873
 3137POPC   C4A41970  15.742  41.208   7.285
 3137POPC   C1B41971  15.798  41.904   6.191
 3137POPC   C2B41972  15.672  41.758   6.610
 3137POPC   C3B41973  15.763  41.721   7.037
 3137POPC   C4B41974  16.024  42.000   7.256
 3138POPC   NC341975   1.261  21.056   5.434
 3138POPC   PO441976   0.920  21.689   5.299
 3138POPC   GL141977   1.165  21.597   5.750
 3138POPC   GL241978   1.303  21.266   5.884
 3138POPC   C1A41979   1.093  21.579   6.233
 3138POPC   D2A41980   0.967  21.526   6.692
 3138POPC   C3A41981   1.191  21.414   7.008
 3138POPC   C4A41982   1.336  21.761   7.174
 3138POPC   C1B41983   1.110  21.021   6.209
 3138POPC   C2B41984   1.150  21.049   6.630
 3138POPC   C3B41985   0.926  20.974   7.002
 3138POPC   C4B41986   0.923  21.143   7.423
 3139POPC   NC341987  40.512  34.832   5.477
 3139POPC   PO441988  41.132  35.037   5.404
 3139POPC   GL141989  40.926  34.777   5.750
 3139POPC   GL241990  40.819  34.440   5.731
 3139POPC   C1A41991  40.716  34.764   6.150
 3139POPC   D2A41992  40.708  34.926   6.573
 3139POPC   C3A41993  40.783  34.726   7.017
 3139POPC   C4A41994  40.835  34.791   7.518
 3139POPC   C1B41995  40.911  34.296   6.155
 3139POPC   C2B41996  40.970  34.480   6.566
 3139POPC   C3B41997  41.015  34.260   6.940
 3139POPC   C4B41998  40.803  34.281   7.327
 3140POPC   NC341999  17.318  16.152   5.456
 3140POPC   PO442000  17.665  15.652   5.240
 3140POPC   GL142001  17.733  15.783   5.730
 3140POPC   GL242002  17.477  15.942   5.881
 3140POPC   C1A42003  17.759  15.671   6.213
 3140POPC   D2A42004  17.567  15.798   6.641
 3140POPC   C3A42005  17.677  15.563   7.057
 3140POPC   C4A42006  17.678  15.763   7.509
 3140POPC   C1B42007  17.643  16.179   6.202
 3140POPC   C2B42008  17.555  16.451   6.534
 3140POPC   C3B42009  17.308  16.261   6.834
 3140POPC   C4B42010  17.559  16.069   7.127
 3141POPC   NC342011   1.838  16.947   5.354
 3141POPC   PO442012   2.067  16.347   5.444
 3141POPC   GL142013   1.987  16.626   5.830
 3141POPC   GL242014   2.112  16.971   5.820
 3141POPC   C1A42015   2.119  16.650   6.304
 3141POPC   D2A42016   2.356  16.754   6.719
 3141POPC   C3A42017   2.113  16.603   7.086
 3141POPC   C4A42018   1.691  16.413   7.040
 3141POPC   C1B42019   1.870  17.083   6.200
 3141POPC   C2B42020   1.645  16.872   6.527
 3141POPC   C3B42021   1.725  16.928   6.932
 3141POPC   C4B42022   1.965  17.071   7.257
 3142POPC   NC342023  22.844  19.961   4.927
 3142POPC   PO442024  23.098  19.443   5.401
 3142POPC   GL142025  22.843  19.656   5.729
 3142POPC   GL242026  23.095  19.886   5.872
 3142POPC   C1A42027  22.662  19.876   6.111
 3142POPC   D2A42028  22.864  20.015   6.496
 3142POPC   C3A42029  22.698  19.898   6.899
 3142POPC   C4A42030  22.846  20.028   7.321
 3142POPC   C1B42031  23.199  19.656   6.247
 3142POPC   C2B42032  23.070  19.553   6.661
 3142POPC   C3B42033  23.077  19.612   7.095
 3142POPC   C4B42034  22.920  19.483   7.502
 3143POPC   NC342035  33.649  13.005   5.227
 3143POPC   PO442036  34.062  12.457   5.396
 3143POPC   GL142037  33.985  12.887   5.671
 3143POPC   GL242038  33.648  13.061   5.742
 3143POPC   C1A42039  33.914  12.906   6.148
 3143POPC   D2A42040  33.814  12.668   6.533
 3143POPC   C3A42041  33.798  12.836   6.937
 3143POPC   C4A42042  33.739  12.703   7.321
 3143POPC   C1B42043  33.526  13.241   6.151
 3143POPC   C2B42044  33.496  13.061   6.576
 3143POPC   C3B42045  33.527  13.251   7.028
 3143POPC   C4B42046  33.459  13.126   7.449
 3144POPC   NC342047  20.964   1.912   5.397
 3144POPC   PO442048  21.626   1.981   5.124
 3144POPC   GL142049  21.489   1.861   5.608
 3144POPC   GL242050  21.222   2.039   5.823
 3144POPC   C1A42051  21.590   1.853   6.102
 3144POPC   D2A42052  21.709   2.115   6.493
 3144POPC   C3A42053  21.566   2.138   6.935
 3144POPC   C4A42054  21.886   2.243   7.261
 3144POPC   C1B42055  21.277   2.229   6.228
 3144POPC   C2B42056  21.211   1.942   6.590
 3144POPC   C3B42057  21.080   1.795   6.999
 3144POPC   C4B42058  21.263   1.970   7.360
 3145POPC   NC342059  12.749  23.162   5.349
 3145POPC   PO442060  13.044  22.554   5.517
 3145POPC   GL142061  12.837  22.798   5.817
 3145POPC   GL242062  12.474  22.834   5.764
 3145POPC   C1A42063  12.998  22.828   6.232
 3145POPC   D2A42064  13.037  23.074   6.611
 3145POPC   C3A42065  13.061  22.863   6.978
 3145POPC   C4A42066  12.715  22.921   7.215
 3145POPC   C1B42067  12.459  22.751   6.188
 3145POPC   C2B42068  12.610  22.804   6.591
 3145POPC   C3B42069  12.332  22.786   6.912
 3145POPC   C4B42070  12.331  22.569   7.290
 3146POPC   NC342071   6.686   3.081   5.543
 3146POPC   PO442072   6.843   2.437   5.286
 3146POPC   GL142073   6.601   2.603   5.681
 3146POPC   GL242074   6.897   2.650   5.859
 3146POPC   C1A42075   6.502   2.855   6.138
 3146POPC   D2A42076   6.648   3.119   6.521
 3146POPC   C3A42077   6.486   3.140   6.960
 3146POPC   C4A42078   6.550   2.954   7.394
 3146POPC   C1B42079   7.034   2.852   6.226
 3146POPC   C2B42080   7.148   3.029   6.613
 3146POPC   C3B42081   6.992   3.068   7.025
 3146POPC   C4B42082   7.008   2.763   7.291
 3147POPC   NC342083  23.659   0.057   5.667
 3147POPC   PO442084  23.531   0.671   5.370
 3147POPC   GL142085  23.667   0.550   5.827
 3147POPC   GL242086  24.031   0.443   5.748
 3147POPC   C1A42087  23.585   0.515   6.336
 3147POPC   D2A42088  23.485   0.153   6.668
 3147POPC   C3A42089  23.485   0.215   7.128
 3147POPC   C4A42090  23.544   0.660   7.216
 3147POPC   C1B42091  24.043   0.290   6.180
 3147POPC   C2B42092  24.033   0.496   6.574
 3147POPC   C3B42093  23.955   0.378   6.968
 3147POPC   C4B42094  24.061   0.603   7.304
 3148POPC   NC342095  16.537   1.561   5.285
 3148POPC   PO442096  16.792   0.883   5.392
 3148POPC   GL142097  16.883   1.083   5.818
 3148POPC   GL242098  16.962   1.446   5.783
 3148POPC   C1A42099  16.670   1.255   6.198
 3148POPC   D2A42100  16.559   1.489   6.578
 3148POPC   C3A42101  16.552   1.224   6.950
 3148POPC   C4A42102  16.574   1.328   7.375
 3148POPC   C1B42103  17.150   1.388   6.210
 3148POPC   C2B42104  17.004   1.242   6.652
 3148POPC   C3B42105  16.943   1.528   7.030
 3148POPC   C4B42106  17.005   1.556   7.488
 3149POPC   NC342107   6.161   4.399   5.499
 3149POPC   PO442108   6.810   4.291   5.430
 3149POPC   GL142109   6.561   4.064   5.708
 3149POPC   GL242110   6.477   4.354   5.890
 3149POPC   C1A42111   6.650   3.941   6.135
 3149POPC   D2A42112   6.897   4.112   6.443
 3149POPC   C3A42113   6.654   3.986   6.771
 3149POPC   C4A42114   6.670   4.163   7.179
 3149POPC   C1B42115   6.594   4.509   6.284
 3149POPC   C2B42116   6.668   4.488   6.716
 3149POPC   C3B42117   6.650   4.679   7.042
 3149POPC   C4B42118   6.546   4.586   7.443
 3150POPC   NC342119  21.124  29.396   5.500
 3150POPC   PO442120  21.212  28.778   5.215
 3150POPC   GL142121  21.370  28.949   5.665
 3150POPC   GL242122  21.492  29.253   5.807
 3150POPC   C1A42123  21.661  28.873   6.069
 3150POPC   D2A42124  21.546  28.802   6.516
 3150POPC   C3A42125  21.543  29.049   6.903
 3150POPC   C4A42126  21.333  29.018   7.305
 3150POPC   C1B42127  21.281  29.207   6.183
 3150POPC   C2B42128  21.338  29.378   6.564
 3150POPC   C3B42129  21.098  29.357   6.932
 3150POPC   C4B42130  21.035  29.420   7.357
 3151POPC   NC342131   4.627  12.761   5.436
 3151POPC   PO442132   3.932  12.938   5.551
 3151POPC   GL142133   4.187  12.706   5.830
 3151POPC   GL242134   4.450  12.949   5.877
 3151POPC   C1A42135   4.278  12.658   6.279
 3151POPC   D2A42136   4.595  12.739   6.600
 3151POPC   C3A42137   4.441  12.729   7.006
 3151POPC   C4A42138   4.067  12.514   7.075
 3151POPC   C1B42139   4.195  13.161   6.203
 3151POPC   C2B42140   4.182  13.065   6.665
 3151POPC   C3B42141   4.174  13.193   7.084
 3151POPC   C4B42142   3.838  13.242   7.399
 3152POPC   NC342143  29.954  24.252   5.492
 3152POPC   PO442144  29.959  24.925   5.603
 3152POPC   GL142145  29.998  24.578   5.898
 3152POPC   GL242146  29.779  24.309   5.963
 3152POPC   C1A42147  30.008  24.523   6.363
 3152POPC   D2A42148  29.964  24.767   6.749
 3152POPC   C3A42149  29.959  24.522   7.129
 3152POPC   C4A42150  30.107  24.200   7.378
 3152POPC   C1B42151  29.531  24.607   6.211
 3152POPC   C2B42152  29.388  24.385   6.584
 3152POPC   C3B42153  29.456  24.189   6.998
 3152POPC   C4B42154  29.556  24.375   7.400
 3153POPC   NC342155  10.759  23.740   5.289
 3153POPC   PO442156  10.256  23.376   5.479
 3153POPC   GL142157  10.426  23.639   5.812
 3153POPC   GL242158  10.761  23.690   5.836
 3153POPC   C1A42159  10.456  23.817   6.236
 3153POPC   D2A42160  10.633  23.813   6.635
 3153POPC   C3A42161  10.333  23.760   6.944
 3153POPC   C4A42162  10.338  23.876   7.357
 3153POPC   C1B42163  10.848  23.484   6.260
 3153POPC   C2B42164  10.776  23.340   6.714
 3153POPC   C3B42165  10.804  23.596   7.102
 3153POPC   C4B42166  10.843  23.740   7.544
 3154POPC   NC342167  22.156  12.231   5.323
 3154POPC   PO442168  21.879  12.729   5.730
 3154POPC   GL142169  22.024  12.285   5.835
 3154POPC   GL242170  22.147  11.920   5.726
 3154POPC   C1A42171  22.229  12.194   6.214
 3154POPC   D2A42172  22.121  12.226   6.646
 3154POPC   C3A42173  22.347  12.215   6.994
 3154POPC   C4A42174  22.117  12.248   7.350
 3154POPC   C1B42175  22.322  11.706   6.083
 3154POPC   C2B42176  22.147  11.742   6.486
 3154POPC   C3B42177  22.271  11.716   6.913
 3154POPC   C4B42178  22.415  11.824   7.331
 3155POPC   NC342179  19.165  27.946   5.625
 3155POPC   PO442180  19.304  28.589   5.348
 3155POPC   GL142181  19.169  28.666   5.816
 3155POPC   GL242182  19.054  28.350   5.883
 3155POPC   C1A42183  19.038  28.666   6.279
 3155POPC   D2A42184  19.237  28.660   6.684
 3155POPC   C3A42185  19.067  28.449   7.043
 3155POPC   C4A42186  19.188  28.369   7.466
 3155POPC   C1B42187  18.781  28.209   6.214
 3155POPC   C2B42188  18.797  28.289   6.629
 3155POPC   C3B42189  18.561  28.367   6.985
 3155POPC   C4B42190  18.680  28.358   7.402
 3156POPC   NC342191   6.447   6.278   5.601
 3156POPC   PO442192   6.629   5.660   5.412
 3156POPC   GL142193   6.663   5.869   5.821
 3156POPC   GL242194   6.868   6.187   5.900
 3156POPC   C1A42195   6.353   5.829   6.158
 3156POPC   D2A42196   6.317   5.973   6.591
 3156POPC   C3A42197   6.271   5.629   6.896
 3156POPC   C4A42198   6.261   5.694   7.324
 3156POPC   C1B42199   6.820   5.971   6.309
 3156POPC   C2B42200   6.756   5.717   6.700
 3156POPC   C3B42201   6.605   5.968   7.053
 3156POPC   C4B42202   6.781   6.283   7.276
 3157POPC   NC342203  27.912  31.819   5.438
 3157POPC   PO442204  27.552  32.374   5.540
 3157POPC   GL142205  27.714  32.251   5.916
 3157POPC   GL242206  27.828  31.908   5.929
 3157POPC   C1A42207  27.507  32.065   6.281
 3157POPC   D2A42208  27.496  31.925   6.695
 3157POPC   C3A42209  27.350  32.325   6.848
 3157POPC   C4A42210  27.373  32.464   7.248
 3157POPC   C1B42211  28.041  31.817   6.314
 3157POPC   C2B42212  28.009  32.009   6.721
 3157POPC   C3B42213  27.777  32.164   7.084
 3157POPC   C4B42214  27.738  32.137   7.528
 3158POPC   NC342215  30.453  22.495   5.554
 3158POPC   PO442216  30.725  21.949   5.262
 3158POPC   GL142217  30.582  21.855   5.715
 3158POPC   GL242218  30.676  22.168   5.898
 3158POPC   C1A42219  30.484  21.826   6.204
 3158POPC   D2A42220  30.485  22.196   6.463
 3158POPC   C3A42221  30.652  22.166   6.871
 3158POPC   C4A42222  30.438  22.272   7.234
 3158POPC   C1B42223  30.953  22.350   6.205
 3158POPC   C2B42224  30.936  22.492   6.608
 3158POPC   C3B42225  30.859  22.590   7.042
 3158POPC   C4B42226  30.994  22.278   7.314
 3159POPC   NC342227  23.865   4.512   5.273
 3159POPC   PO442228  24.106   4.025   5.470
 3159POPC   GL142229  23.826   4.173   5.786
 3159POPC   GL242230  23.738   4.511   5.840
 3159POPC   C1A42231  23.817   4.174   6.228
 3159POPC   D2A42232  23.597   4.041   6.567
 3159POPC   C3A42233  23.676   4.214   6.938
 3159POPC   C4A42234  23.671   4.179   7.386
 3159POPC   C1B42235  23.481   4.528   6.257
 3159POPC   C2B42236  23.493   4.604   6.678
 3159POPC   C3B42237  23.772   4.735   6.971
 3159POPC   C4B42238  23.640   4.683   7.345
 3160POPC   NC342239   5.852  36.144   5.346
 3160POPC   PO442240   6.086  35.551   5.391
 3160POPC   GL142241   6.088  35.844   5.769
 3160POPC   GL242242   5.982  36.217   5.809
 3160POPC   C1A42243   5.946  35.929   6.204
 3160POPC   D2A42244   6.069  36.112   6.578
 3160POPC   C3A42245   5.856  35.950   6.905
 3160POPC   C4A42246   6.043  36.129   7.241
 3160POPC   C1B42247   5.642  36.394   6.043
 3160POPC   C2B42248   5.626  36.357   6.485
 3160POPC   C3B42249   5.585  36.445   6.940
 3160POPC   C4B42250   5.338  36.302   7.265
 3161POPC   NC342251  29.064  26.246   5.369
 3161POPC   PO442252  29.520  25.819   5.517
 3161POPC   GL142253  29.384  26.049   5.844
 3161POPC   GL242254  29.042  25.981   5.798
 3161POPC   C1A42255  29.545  26.100   6.275
 3161POPC   D2A42256  29.569  25.905   6.702
 3161POPC   C3A42257  29.195  25.950   6.982
 3161POPC   C4A42258  29.144  26.298   7.245
 3161POPC   C1B42259  29.076  25.840   6.241
 3161POPC   C2B42260  28.823  25.799   6.633
 3161POPC   C3B42261  28.856  25.556   7.009
 3161POPC   C4B42262  29.036  25.599   7.419
 3162POPC   NC342263  16.982  40.088   5.252
 3162POPC   PO442264  16.311  40.171   5.378
 3162POPC   GL142265  16.512  40.133   5.766
 3162POPC   GL242266  16.894  40.069   5.756
 3162POPC   C1A42267  16.379  40.166   6.181
 3162POPC   D2A42268  16.417  39.930   6.542
 3162POPC   C3A42269  16.514  40.152   6.911
 3162POPC   C4A42270  16.675  40.080   7.288
 3162POPC   C1B42271  16.816  39.893   6.180
 3162POPC   C2B42272  16.923  39.950   6.622
 3162POPC   C3B42273  17.054  40.196   6.975
 3162POPC   C4B42274  17.271  40.249   7.382
 3163POPC   NC342275  33.869  30.407   5.321
 3163POPC   PO442276  33.312  30.662   5.262
 3163POPC   GL142277  33.422  30.634   5.732
 3163POPC   GL242278  33.252  30.375   5.848
 3163POPC   C1A42279  33.570  30.804   6.156
 3163POPC   D2A42280  33.991  30.662   6.352
 3163POPC   C3A42281  34.033  30.692   6.815
 3163POPC   C4A42282  34.166  30.660   7.248
 3163POPC   C1B42283  33.462  30.322   6.239
 3163POPC   C2B42284  33.585  30.487   6.625
 3163POPC   C3B42285  33.709  30.331   7.011
 3163POPC   C4B42286  33.695  30.524   7.402
 3164POPC   NC342287  34.244  37.239   5.505
 3164POPC   PO442288  34.877  36.957   5.559
 3164POPC   GL142289  34.692  36.722   5.893
 3164POPC   GL242290  34.431  36.969   5.903
 3164POPC   C1A42291  34.462  36.706   6.324
 3164POPC   D2A42292  34.172  36.784   6.645
 3164POPC   C3A42293  34.344  36.830   7.049
 3164POPC   C4A42294  34.593  36.835   7.411
 3164POPC   C1B42295  34.735  37.129   6.242
 3164POPC   C2B42296  34.704  36.996   6.694
 3164POPC   C3B42297  34.668  37.233   7.078
 3164POPC   C4B42298  34.822  37.285   7.494
 3165POPC   NC342299  41.936  18.788   5.564
 3165POPC   PO442300  42.403  19.212   5.374
 3165POPC   GL142301  42.259  19.153   5.787
 3165POPC   GL242302  41.965  19.366   5.727
 3165POPC   C1A42303  42.345  19.024   6.229
 3165POPC   D2A42304  42.550  19.172   6.614
 3165POPC   C3A42305  42.442  18.977   7.038
 3165POPC   C4A42306  42.137  18.848   7.349
 3165POPC   C1B42307  42.085  19.506   6.131
 3165POPC   C2B42308  42.077  19.356   6.535
 3165POPC   C3B42309  42.219  19.449   6.921
 3165POPC   C4B42310  41.932  19.489   7.200
 3166POPC   NC342311  11.049  28.921   5.012
 3166POPC   PO442312  11.490  28.865   5.363
 3166POPC   GL142313  11.468  28.889   5.821
 3166POPC   GL242314  11.698  29.168   5.901
 3166POPC   C1A42315  11.536  28.893   6.302
 3166POPC   D2A42316  11.626  29.022   6.757
 3166POPC   C3A42317  11.286  28.998   7.118
 3166POPC   C4A42318  11.135  28.776   7.508
 3166POPC   C1B42319  11.707  29.385   6.306
 3166POPC   C2B42320  11.665  29.555   6.738
 3166POPC   C3B42321  11.644  29.372   7.128
 3166POPC   C4B42322  11.428  29.398   7.465
 3167POPC   NC342323  13.861   8.566   5.382
 3167POPC   PO442324  13.436   9.062   5.361
 3167POPC   GL142325  13.502   8.867   5.740
 3167POPC   GL242326  13.199   8.991   5.837
 3167POPC   C1A42327  13.703   8.984   6.135
 3167POPC   D2A42328  13.760   9.283   6.513
 3167POPC   C3A42329  13.811   9.134   6.963
 3167POPC   C4A42330  14.114   9.065   7.323
 3167POPC   C1B42331  13.234   8.757   6.190
 3167POPC   C2B42332  13.448   8.890   6.567
 3167POPC   C3B42333  13.382   8.837   6.985
 3167POPC   C4B42334  13.617   8.698   7.344
 3168POPC   NC342335   5.548  15.989   5.385
 3168POPC   PO442336   4.902  15.807   5.463
 3168POPC   GL142337   4.892  15.865   5.850
 3168POPC   GL242338   4.605  16.111   5.808
 3168POPC   C1A42339   5.135  16.032   6.219
 3168POPC   D2A42340   5.178  16.300   6.613
 3168POPC   C3A42341   5.242  16.073   7.029
 3168POPC   C4A42342   5.054  16.001   7.452
 3168POPC   C1B42343   4.564  15.890   6.210
 3168POPC   C2B42344   4.766  15.977   6.558
 3168POPC   C3B42345   4.731  16.014   6.961
 3168POPC   C4B42346   4.704  15.680   7.209
 3169POPC   NC342347  41.957  39.227   5.267
 3169POPC   PO442348  42.536  38.828   5.514
 3169POPC   GL142349  42.233  39.018   5.787
 3169POPC   GL242350  42.118  39.347   5.788
 3169POPC   C1A42351  42.395  39.115   6.211
 3169POPC   D2A42352  42.649  39.100   6.589
 3169POPC   C3A42353  42.396  39.177   6.943
 3169POPC   C4A42354  42.098  39.004   7.227
 3169POPC   C1B42355  42.283  39.592   6.124
 3169POPC   C2B42356  42.401  39.611   6.541
 3169POPC   C3B42357  42.383  39.699   6.963
 3169POPC   C4B42358  42.207  39.510   7.304
 3170POPC   NC342359  24.119  10.819   5.424
 3170POPC   PO442360  23.747  10.265   5.460
 3170POPC   GL142361  23.802  10.579   5.777
 3170POPC   GL242362  23.512  10.744   5.816
 3170POPC   C1A42363  23.818  10.752   6.219
 3170POPC   D2A42364  23.846  10.851   6.671
 3170POPC   C3A42365  23.664  10.585   6.991
 3170POPC   C4A42366  23.587  10.784   7.368
 3170POPC   C1B42367  23.471  10.353   6.105
 3170POPC   C2B42368  23.429  10.301   6.562
 3170POPC   C3B42369  23.169  10.432   6.931
 3170POPC   C4B42370  23.313  10.352   7.372
 3171POPC   NC342371  42.057  28.651   5.417
 3171POPC   PO442372  42.425  28.058   5.493
 3171POPC   GL142373  42.261  28.326   5.792
 3171POPC   GL242374  42.368  28.668   5.854
 3171POPC   C1A42375  42.380  28.240   6.205
 3171POPC   D2A42376  42.124  28.072   6.487
 3171POPC   C3A42377  42.252  28.082   6.868
 3171POPC   C4A42378  42.180  28.211   7.295
 3171POPC   C1B42379  42.555  28.713   6.268
 3171POPC   C2B42380  42.441  28.536   6.671
 3171POPC   C3B42381  42.579  28.707   7.058
 3171POPC   C4B42382  42.818  28.884   7.396
 3172POPC   NC342383  37.144  23.518   5.070
 3172POPC   PO442384  36.584  23.764   5.455
 3172POPC   GL142385  36.850  23.858   5.802
 3172POPC   GL242386  36.768  23.520   5.868
 3172POPC   C1A42387  37.127  23.740   6.199
 3172POPC   D2A42388  37.328  23.482   6.549
 3172POPC   C3A42389  37.146  23.506   6.953
 3172POPC   C4A42390  36.979  23.934   7.028
 3172POPC   C1B42391  36.618  23.702   6.227
 3172POPC   C2B42392  36.756  23.513   6.595
 3172POPC   C3B42393  36.636  23.468   7.012
 3172POPC   C4B42394  36.547  23.805   7.242
 3173POPC   NC342395  39.038  19.476   5.477
 3173POPC   PO442396  39.168  20.124   5.392
 3173POPC   GL142397  39.190  19.860   5.771
 3173POPC   GL242398  39.454  19.552   5.764
 3173POPC   C1A42399  39.193  19.949   6.202
 3173POPC   D2A42400  38.888  20.023   6.517
 3173POPC   C3A42401  39.101  19.889   6.885
 3173POPC   C4A42402  39.451  19.957   7.120
 3173POPC   C1B42403  39.188  19.417   6.138
 3173POPC   C2B42404  39.082  19.462   6.583
 3173POPC   C3B42405  39.334  19.418   6.980
 3173POPC   C4B42406  39.252  19.564   7.394
 3174POPC   NC342407  17.100  30.688   5.478
 3174POPC   PO442408  17.750  30.464   5.315
 3174POPC   GL142409  17.513  30.419   5.692
 3174POPC   GL242410  17.707  30.717   5.814
 3174POPC   C1A42411  17.334  30.560   6.110
 3174POPC   D2A42412  17.607  30.578   6.481
 3174POPC   C3A42413  17.519  30.650   6.895
 3174POPC   C4A42414  17.837  30.767   7.172
 3174POPC   C1B42415  17.576  30.997   6.177
 3174POPC   C2B42416  17.317  30.995   6.563
 3174POPC   C3B42417  17.381  31.145   6.985
 3174POPC   C4B42418  17.415  31.349   7.403
 3175POPC   NC342419  18.349  32.718   4.805
 3175POPC   PO442420  18.362  33.040   5.370
 3175POPC   GL142421  18.474  32.951   5.789
 3175POPC   GL242422  18.702  32.674   5.779
 3175POPC   C1A42423  18.558  33.110   6.221
 3175POPC   D2A42424  18.597  33.260   6.659
 3175POPC   C3A42425  18.274  33.145   6.977
 3175POPC   C4A42426  18.180  33.143   7.425
 3175POPC   C1B42427  18.574  32.601   6.222
 3175POPC   C2B42428  18.494  32.757   6.667
 3175POPC   C3B42429  18.564  32.747   7.099
 3175POPC   C4B42430  18.544  32.449   7.440
 3176POPC   NC342431  30.613  34.551   5.391
 3176POPC   PO442432  31.012  35.157   5.404
 3176POPC   GL142433  30.981  34.771   5.706
 3176POPC   GL242434  30.898  34.370   5.767
 3176POPC   C1A42435  30.813  34.731   6.135
 3176POPC   D2A42436  30.882  34.531   6.539
 3176POPC   C3A42437  30.714  34.729   6.905
 3176POPC   C4A42438  30.869  34.608   7.308
 3176POPC   C1B42439  30.661  34.234   6.172
 3176POPC   C2B42440  30.497  34.183   6.605
 3176POPC   C3B42441  30.665  34.233   7.013
 3176POPC   C4B42442  30.545  34.274   7.477
 3177POPC   NC342443  37.365  14.236   5.541
 3177POPC   PO442444  37.982  14.211   5.301
 3177POPC   GL142445  37.907  14.523   5.678
 3177POPC   GL242446  37.613  14.427   5.934
 3177POPC   C1A42447  38.022  14.596   6.141
 3177POPC   D2A42448  37.719  14.535   6.490
 3177POPC   C3A42449  37.740  14.282   6.871
 3177POPC   C4A42450  37.409  14.455   7.138
 3177POPC   C1B42451  37.665  14.087   6.282
 3177POPC   C2B42452  37.472  13.836   6.627
 3177POPC   C3B42453  37.366  13.950   7.055
 3177POPC   C4B42454  37.672  13.964   7.413
 3178POPC   NC342455  25.392  33.947   5.343
 3178POPC   PO442456  25.074  33.418   5.166
 3178POPC   GL142457  25.109  33.602   5.657
 3178POPC   GL242458  25.052  33.976   5.725
 3178POPC   C1A42459  25.369  33.796   6.083
 3178POPC   D2A42460  25.507  33.850   6.568
 3178POPC   C3A42461  25.197  33.719   6.899
 3178POPC   C4A42462  25.219  33.814   7.335
 3178POPC   C1B42463  25.188  34.295   6.071
 3178POPC   C2B42464  25.337  34.329   6.500
 3178POPC   C3B42465  25.380  34.208   6.958
 3178POPC   C4B42466  25.633  34.128   7.355
 3179POPC   NC342467  21.457  39.178   5.214
 3179POPC   PO442468  21.081  39.304   5.740
 3179POPC   GL142469  21.519  39.202   5.751
 3179POPC   GL242470  21.642  39.567   5.751
 3179POPC   C1A42471  21.579  38.910   6.109
 3179POPC   D2A42472  21.281  38.746   6.454
 3179POPC   C3A42473  21.305  38.944   6.870
 3179POPC   C4A42474  21.617  39.055   7.173
 3179POPC   C1B42475  21.677  39.439   6.194
 3179POPC   C2B42476  21.921  39.503   6.578
 3179POPC   C3B42477  21.739  39.518   6.987
 3179POPC   C4B42478  21.292  39.449   7.039
 3180POPC   NC342479   6.680   9.205   5.468
 3180POPC   PO442480   6.561   8.545   5.479
 3180POPC   GL142481   6.724   8.822   5.817
 3180POPC   GL242482   6.918   9.139   5.950
 3180POPC   C1A42483   6.776   8.766   6.283
 3180POPC   D2A42484   6.867   9.037   6.632
 3180POPC   C3A42485   6.827   8.779   6.967
 3180POPC   C4A42486   6.471   8.830   7.237
 3180POPC   C1B42487   6.503   9.172   6.128
 3180POPC   C2B42488   6.329   9.277   6.517
 3180POPC   C3B42489   6.393   9.194   6.898
 3180POPC   C4B42490   6.320   9.315   7.310
 3181POPC   NC342491  23.353  14.026   5.401
 3181POPC   PO442492  23.810  13.498   5.230
 3181POPC   GL142493  23.810  13.690   5.659
 3181POPC   GL242494  23.489  13.755   5.807
 3181POPC   C1A42495  23.861  13.594   6.110
 3181POPC   D2A42496  23.869  13.736   6.538
 3181POPC   C3A42497  23.528  13.797   6.830
 3181POPC   C4A42498  23.715  14.050   7.163
 3181POPC   C1B42499  23.336  13.653   6.225
 3181POPC   C2B42500  23.082  13.379   6.487
 3181POPC   C3B42501  23.076  13.431   6.943
 3181POPC   C4B42502  23.381  13.543   7.291
 3182POPC   NC342503  28.036  21.946   5.353
 3182POPC   PO442504  27.462  22.224   5.479
 3182POPC   GL142505  27.670  22.158   5.843
 3182POPC   GL242506  27.804  22.465   6.000
 3182POPC   C1A42507  27.635  22.066   6.283
 3182POPC   D2A42508  27.865  22.024   6.647
 3182POPC   C3A42509  27.678  22.087   7.028
 3182POPC   C4A42510  27.683  21.775   7.294
 3182POPC   C1B42511  27.349  22.469   6.120
 3182POPC   C2B42512  27.157  22.274   6.475
 3182POPC   C3B42513  27.198  22.386   6.923
 3182POPC   C4B42514  27.211  22.217   7.321
 3183POPC   NC342515  42.954  19.817   5.446
 3183POPC   PO442516  43.541  19.826   5.566
 3183POPC   GL142517  43.227  19.666   5.837
 3183POPC   GL242518  42.918  19.884   5.939
 3183POPC   C1A42519  43.208  19.395   6.148
 3183POPC   D2A42520  43.043  19.381   6.531
 3183POPC   C3A42521  43.352  19.361   6.852
 3183POPC   C4A42522  43.242  19.591   7.189
 3183POPC   C1B42523  43.138  19.876   6.339
 3183POPC   C2B42524  43.071  19.887   6.780
 3183POPC   C3B42525  42.761  20.072   7.080
 3183POPC   C4B42526  42.838  20.218   7.524
 3184POPC   NC342527  35.149  22.272   5.357
 3184POPC   PO442528  35.766  22.725   5.463
 3184POPC   GL142529  35.627  22.353   5.692
 3184POPC   GL242530  35.606  22.035   5.797
 3184POPC   C1A42531  35.320  22.358   6.054
 3184POPC   D2A42532  35.242  22.474   6.481
 3184POPC   C3A42533  35.158  22.291   6.866
 3184POPC   C4A42534  35.347  21.976   7.106
 3184POPC   C1B42535  35.661  22.036   6.248
 3184POPC   C2B42536  35.612  21.844   6.635
 3184POPC   C3B42537  35.846  21.900   6.985
 3184POPC   C4B42538  35.847  21.698   7.326
 3185POPC   NC342539  18.796  42.272   5.223
 3185POPC   PO442540  19.239  42.705   5.225
 3185POPC   GL142541  19.054  42.564   5.672
 3185POPC   GL242542  18.909  42.218   5.734
 3185POPC   C1A42543  19.252  42.352   6.083
 3185POPC   D2A42544  19.331  42.483   6.520
 3185POPC   C3A42545  19.256  42.330   6.939
 3185POPC   C4A42546  19.207  42.259   7.389
 3185POPC   C1B42547  18.754  42.293   6.198
 3185POPC   C2B42548  18.819  42.243   6.666
 3185POPC   C3B42549  18.751  42.313   7.129
 3185POPC   C4B42550  18.753  42.049   7.500
 3186POPC   NC342551  34.364   4.520   5.235
 3186POPC   PO442552  35.014   4.544   5.282
 3186POPC   GL142553  34.827   4.553   5.723
 3186POPC   GL242554  34.452   4.611   5.749
 3186POPC   C1A42555  34.671   4.299   6.108
 3186POPC   D2A42556  34.570   4.100   6.534
 3186POPC   C3A42557  34.743   4.208   6.936
 3186POPC   C4A42558  34.546   4.361   7.299
 3186POPC   C1B42559  34.209   4.524   6.139
 3186POPC   C2B42560  34.124   4.408   6.576
 3186POPC   C3B42561  34.236   4.576   6.983
 3186POPC   C4B42562  34.118   4.588   7.445
 3187POPC   NC342563  33.570   6.629   5.394
 3187POPC   PO442564  34.194   6.828   5.534
 3187POPC   GL142565  33.932   6.600   5.769
 3187POPC   GL242566  33.642   6.800   5.878
 3187POPC   C1A42567  33.836   6.385   6.140
 3187POPC   D2A42568  34.067   6.288   6.471
 3187POPC   C3A42569  33.830   6.365   6.796
 3187POPC   C4A42570  33.871   6.433   7.190
 3187POPC   C1B42571  33.945   6.914   6.170
 3187POPC   C2B42572  34.041   6.785   6.565
 3187POPC   C3B42573  33.959   6.937   6.982
 3187POPC   C4B42574  33.636   6.876   7.282
 3188POPC   NC342575  30.271  36.279   5.537
 3188POPC   PO442576  29.597  36.232   5.304
 3188POPC   GL142577  29.764  36.098   5.744
 3188POPC   GL242578  30.012  35.883   5.807
 3188POPC   C1A42579  29.790  36.214   6.166
 3188POPC   D2A42580  29.936  36.103   6.549
 3188POPC   C3A42581  29.731  36.301   6.906
 3188POPC   C4A42582  29.903  36.559   7.229
 3188POPC   C1B42583  30.199  35.740   6.227
 3188POPC   C2B42584  30.197  35.615   6.673
 3188POPC   C3B42585  29.976  35.859   6.987
 3188POPC   C4B42586  30.067  36.088   7.357
 3189POPC   NC342587  44.120  22.406   5.442
 3189POPC   PO442588  43.715  21.797   5.495
 3189POPC   GL142589  43.746  22.151   5.740
 3189POPC   GL242590  44.070  22.076   5.835
 3189POPC   C1A42591  43.613  22.283   6.155
 3189POPC   D2A42592  43.560  22.072   6.566
 3189POPC   C3A42593  43.787  22.309   6.881
 3189POPC   C4A42594  43.713  22.482   7.267
 3189POPC   C1B42595  44.135  22.312   6.195
 3189POPC   C2B42596  44.204  22.133   6.581
 3189POPC   C3B42597  44.316  22.238   6.975
 3189POPC   C4B42598  44.071  22.144   7.308
 3190POPC   NC342599  29.800   1.583   5.012
 3190POPC   PO442600  29.865   1.046   5.428
 3190POPC   GL142601  29.824   1.216   5.832
 3190POPC   GL242602  29.553   1.379   5.748
 3190POPC   C1A42603  29.897   1.108   6.271
 3190POPC   D2A42604  29.903   1.011   6.691
 3190POPC   C3A42605  29.964   1.283   7.050
 3190POPC   C4A42606  29.866   0.988   7.335
 3190POPC   C1B42607  29.421   1.078   6.085
 3190POPC   C2B42608  29.411   1.119   6.533
 3190POPC   C3B42609  29.493   1.100   6.976
 3190POPC   C4B42610  29.440   1.257   7.396
 3191POPC   NC342611   3.115  17.501   5.319
 3191POPC   PO442612   3.723  17.404   5.345
 3191POPC   GL142613   3.696  17.291   5.795
 3191POPC   GL242614   4.025  17.209   5.880
 3191POPC   C1A42615   3.453  17.470   6.167
 3191POPC   D2A42616   3.100  17.528   6.500
 3191POPC   C3A42617   3.204  17.454   6.949
 3191POPC   C4A42618   3.506  17.736   7.135
 3191POPC   C1B42619   3.867  17.168   6.299
 3191POPC   C2B42620   3.516  17.217   6.607
 3191POPC   C3B42621   3.669  17.242   7.047
 3191POPC   C4B42622   4.026  17.121   7.299
 3192POPC   NC342623  41.382  17.936   5.629
 3192POPC   PO442624  41.425  17.343   5.236
 3192POPC   GL142625  41.564  17.378   5.697
 3192POPC   GL242626  41.887  17.160   5.746
 3192POPC   C1A42627  41.578  17.611   6.153
 3192POPC   D2A42628  41.390  17.768   6.584
 3192POPC   C3A42629  41.628  17.661   6.982
 3192POPC   C4A42630  41.771  17.780   7.412
 3192POPC   C1B42631  41.659  17.086   6.132
 3192POPC   C2B42632  41.560  17.270   6.534
 3192POPC   C3B42633  41.447  17.167   6.931
 3192POPC   C4B42634  41.473  17.331   7.357
 3193POPC   NC342635   3.727  11.014   5.601
 3193POPC   PO442636   3.223  11.338   5.330
 3193POPC   GL142637   3.417  11.443   5.689
 3193POPC   GL242638   3.132  11.522   5.853
 3193POPC   C1A42639   3.499  11.315   6.142
 3193POPC   D2A42640   3.634  11.530   6.498
 3193POPC   C3A42641   3.666  11.341   6.910
 3193POPC   C4A42642   3.460  11.179   7.300
 3193POPC   C1B42643   3.129  11.647   6.294
 3193POPC   C2B42644   3.157  11.512   6.701
 3193POPC   C3B42645   3.199  11.558   7.117
 3193POPC   C4B42646   3.041  11.440   7.491
 3194POPC   NC342647   4.947   1.636   5.645
 3194POPC   PO442648   5.468   1.877   5.383
 3194POPC   GL142649   5.383   2.140   5.752
 3194POPC   GL242650   5.031   2.116   5.812
 3194POPC   C1A42651   5.325   2.393   6.135
 3194POPC   D2A42652   5.133   2.370   6.531
 3194POPC   C3A42653   5.344   2.288   6.901
 3194POPC   C4A42654   5.257   2.209   7.313
 3194POPC   C1B42655   5.122   1.921   6.214
 3194POPC   C2B42656   5.143   1.803   6.640
 3194POPC   C3B42657   4.943   1.957   6.981
 3194POPC   C4B42658   4.927   1.806   7.395
 3195POPC   NC342659  23.376  16.495   5.480
 3195POPC   PO442660  23.976  16.847   5.574
 3195POPC   GL142661  23.792  16.997   5.931
 3195POPC   GL242662  23.448  16.892   5.914
 3195POPC   C1A42663  23.695  16.992   6.370
 3195POPC   D2A42664  23.780  16.728   6.731
 3195POPC   C3A42665  23.807  16.748   7.180
 3195POPC   C4A42666  23.850  16.478   7.550
 3195POPC   C1B42667  23.378  16.580   6.238
 3195POPC   C2B42668  23.200  16.557   6.648
 3195POPC   C3B42669  23.408  16.487   7.022
 3195POPC   C4B42670  23.360  16.279   7.392
 3196POPC   NC342671  16.843  42.138   5.477
 3196POPC   PO442672  16.660  42.742   5.249
 3196POPC   GL142673  16.765  42.582   5.717
 3196POPC   GL242674  16.561  42.289   5.860
 3196POPC   C1A42675  16.743  42.611   6.187
 3196POPC   D2A42676  16.530  42.354   6.532
 3196POPC   C3A42677  16.747  42.406   6.922
 3196POPC   C4A42678  17.159  42.465   7.121
 3196POPC   C1B42679  16.864  42.129   6.202
 3196POPC   C2B42680  16.864  41.916   6.567
 3196POPC   C3B42681  16.979  41.967   6.960
 3196POPC   C4B42682  16.959  42.035   7.352
 3197POPC   NC342683  27.799  29.493   5.467
 3197POPC   PO442684  28.047  30.155   5.346
 3197POPC   GL142685  27.865  30.026   5.746
 3197POPC   GL242686  27.506  29.929   5.774
 3197POPC   C1A42687  27.827  29.867   6.170
 3197POPC   D2A42688  27.515  29.736   6.460
 3197POPC   C3A42689  27.680  29.785   6.857
 3197POPC   C4A42690  27.673  30.032   7.173
 3197POPC   C1B42691  27.357  30.108   6.158
 3197POPC   C2B42692  27.124  30.075   6.527
 3197POPC   C3B42693  27.237  30.142   6.926
 3197POPC   C4B42694  27.179  30.151   7.337
 3198POPC   NC342695  40.989  38.643   5.274
 3198POPC   PO442696  40.435  38.312   5.455
 3198POPC   GL142697  40.736  38.482   5.749
 3198POPC   GL242698  40.838  38.811   5.764
 3198POPC   C1A42699  40.748  38.500   6.210
 3198POPC   D2A42700  40.935  38.281   6.572
 3198POPC   C3A42701  40.708  38.145   6.924
 3198POPC   C4A42702  40.796  38.318   7.285
 3198POPC   C1B42703  41.066  38.896   6.159
 3198POPC   C2B42704  40.847  38.876   6.559
 3198POPC   C3B42705  40.855  38.659   6.931
 3198POPC   C4B42706  41.185  38.744   7.259
 3199POPC   NC342707  36.231  19.492   5.470
 3199POPC   PO442708  36.095  18.797   5.344
 3199POPC   GL142709  36.258  18.844   5.777
 3199POPC   GL242710  36.066  19.162   5.811
 3199POPC   C1A42711  36.252  19.004   6.240
 3199POPC   D2A42712  36.261  19.214   6.644
 3199POPC   C3A42713  36.412  18.929   6.971
 3199POPC   C4A42714  36.053  18.709   7.151
 3199POPC   C1B42715  36.070  19.494   6.135
 3199POPC   C2B42716  35.819  19.548   6.498
 3199POPC   C3B42717  35.886  19.556   6.913
 3199POPC   C4B42718  36.068  19.242   7.162
 3200POPC   NC342719   1.644  12.505   5.591
 3200POPC   PO442720   2.309  12.783   5.472
 3200POPC   GL142721   2.005  12.850   5.799
 3200POPC   GL242722   1.780  13.148   5.742
 3200POPC   C1A42723   1.828  12.735   6.209
 3200POPC   D2A42724   1.971  12.671   6.618
 3200POPC   C3A42725   1.673  12.535   6.938
 3200POPC   C4A42726   1.936  12.453   7.272
 3200POPC   C1B42727   1.950  13.229   6.166
 3200POPC   C2B42728   1.772  13.140   6.588
 3200POPC   C3B42729   1.876  13.013   7.012
 3200POPC   C4B42730   2.218  13.138   7.338
 3201POPC   NC342731  20.366   0.037   5.494
 3201POPC   PO442732  20.805   0.543   5.327
 3201POPC   GL142733  20.574   0.494   5.692
 3201POPC   GL242734  20.765   0.257   5.845
 3201POPC   C1A42735  20.512   0.559   6.130
 3201POPC   D2A42736  20.546   0.432   6.516
 3201POPC   C3A42737  20.437   0.685   6.847
 3201POPC   C4A42738  20.689   0.909   7.158
 3201POPC   C1B42739  20.983   0.350   6.238
 3201POPC   C2B42740  20.943   0.134   6.637
 3201POPC   C3B42741  20.708   0.258   6.970
 3201POPC   C4B42742  20.540   0.443   7.310
 3202POPC   NC342743  38.111  10.367   5.452
 3202POPC   PO442744  38.855  10.477   5.483
 3202POPC   GL142745  38.652  10.546   5.849
 3202POPC   GL242746  38.480  10.252   5.800
 3202POPC   C1A42747  38.400  10.622   6.218
 3202POPC   D2A42748  38.532  10.813   6.611
 3202POPC   C3A42749  38.300  10.822   7.003
 3202POPC   C4A42750  38.617  10.891   7.311
 3202POPC   C1B42751  38.202  10.132   6.087
 3202POPC   C2B42752  38.192  10.214   6.491
 3202POPC   C3B42753  38.431  10.344   6.824
 3202POPC   C4B42754  38.401  10.343   7.249
 3203POPC   NC342755  41.130   6.591   5.146
 3203POPC   PO442756  41.820   6.809   5.316
 3203POPC   GL142757  41.708   6.879   5.755
 3203POPC   GL242758  41.850   6.530   5.798
 3203POPC   C1A42759  41.561   6.765   6.188
 3203POPC   D2A42760  41.809   6.604   6.568
 3203POPC   C3A42761  41.644   6.788   6.959
 3203POPC   C4A42762  41.261   6.770   7.225
 3203POPC   C1B42763  42.032   6.307   6.158
 3203POPC   C2B42764  41.992   6.104   6.574
 3203POPC   C3B42765  41.960   6.331   7.015
 3203POPC   C4B42766  41.709   6.537   7.407
 3204POPC   NC342767  32.205  33.478   5.316
 3204POPC   PO442768  32.317  32.806   5.289
 3204POPC   GL142769  32.369  33.071   5.706
 3204POPC   GL242770  32.092  33.307   5.791
 3204POPC   C1A42771  32.553  32.960   6.144
 3204POPC   D2A42772  32.496  32.729   6.562
 3204POPC   C3A42773  32.438  32.862   7.001
 3204POPC   C4A42774  32.027  32.863   7.229
 3204POPC   C1B42775  32.311  33.405   6.170
 3204POPC   C2B42776  32.304  33.223   6.587
 3204POPC   C3B42777  32.099  33.327   6.962
 3204POPC   C4B42778  32.366  33.300   7.269
 3205POPC   NC342779  33.528  29.524   5.642
 3205POPC   PO442780  34.063  29.193   5.351
 3205POPC   GL142781  33.865  29.149   5.757
 3205POPC   GL242782  33.634  28.820   5.763
 3205POPC   C1A42783  33.940  29.420   6.156
 3205POPC   D2A42784  33.848  29.605   6.553
 3205POPC   C3A42785  34.004  29.435   6.907
 3205POPC   C4A42786  33.771  29.385   7.236
 3205POPC   C1B42787  33.580  29.038   6.159
 3205POPC   C2B42788  33.739  29.099   6.559
 3205POPC   C3B42789  33.659  28.924   6.936
 3205POPC   C4B42790  33.700  28.889   7.336
 3206POPC   NC342791  41.537  41.689   5.453
 3206POPC   PO442792  42.031  41.239   5.422
 3206POPC   GL142793  41.761  41.311   5.810
 3206POPC   GL242794  41.610  41.606   5.937
 3206POPC   C1A42795  41.634  41.219   6.260
 3206POPC   D2A42796  41.802  41.365   6.647
 3206POPC   C3A42797  41.483  41.432   6.912
 3206POPC   C4A42798  41.203  41.670   7.091
 3206POPC   C1B42799  41.685  41.818   6.311
 3206POPC   C2B42800  41.490  41.932   6.705
 3206POPC   C3B42801  41.681  41.902   7.107
 3206POPC   C4B42802  41.753  42.095   7.509
 3207POPC   NC342803  37.234  10.180   5.351
 3207POPC   PO442804  36.710   9.767   5.321
 3207POPC   GL142805  36.812   9.965   5.686
 3207POPC   GL242806  36.486  10.119   5.750
 3207POPC   C1A42807  36.892   9.911   6.136
 3207POPC   D2A42808  36.755  10.031   6.562
 3207POPC   C3A42809  37.090   9.958   6.907
 3207POPC   C4A42810  37.330   9.571   7.117
 3207POPC   C1B42811  36.432   9.711   6.000
 3207POPC   C2B42812  36.361   9.588   6.450
 3207POPC   C3B42813  36.649   9.473   6.797
 3207POPC   C4B42814  36.814   9.638   7.197
 3208POPC   NC342815  16.151  25.504   5.387
 3208POPC   PO442816  15.836  24.987   5.434
 3208POPC   GL142817  15.896  25.320   5.800
 3208POPC   GL242818  15.627  25.521   5.899
 3208POPC   C1A42819  16.108  25.484   6.204
 3208POPC   D2A42820  16.210  25.745   6.593
 3208POPC   C3A42821  16.288  25.556   7.013
 3208POPC   C4A42822  16.181  25.516   7.463
 3208POPC   C1B42823  15.601  25.456   6.329
 3208POPC   C2B42824  15.810  25.377   6.733
 3208POPC   C3B42825  15.787  25.314   7.188
 3208POPC   C4B42826  15.750  25.312   7.655
 3209POPC   NC342827  40.513  21.545   5.538
 3209POPC   PO442828  39.961  21.134   5.610
 3209POPC   GL142829  39.964  21.424   5.944
 3209POPC   GL242830  40.302  21.488   6.017
 3209POPC   C1A42831  39.850  21.419   6.394
 3209POPC   D2A42832  39.608  21.146   6.697
 3209POPC   C3A42833  39.707  21.223   7.142
 3209POPC   C4A42834  39.933  21.143   7.527
 3209POPC   C1B42835  40.265  21.057   6.201
 3209POPC   C2B42836  40.108  20.983   6.613
 3209POPC   C3B42837  40.314  21.088   7.005
 3209POPC   C4B42838  40.405  20.979   7.432
 3210POPC   NC342839  11.238  39.877   5.253
 3210POPC   PO442840  11.464  40.433   5.534
 3210POPC   GL142841  11.183  40.305   5.820
 3210POPC   GL242842  11.283  39.964   5.831
 3210POPC   C1A42843  11.025  40.229   6.226
 3210POPC   D2A42844  11.079  40.021   6.622
 3210POPC   C3A42845  11.323  40.147   6.994
 3210POPC   C4A42846  11.054  40.168   7.371
 3210POPC   C1B42847  11.294  39.705   6.212
 3210POPC   C2B42848  11.190  39.530   6.593
 3210POPC   C3B42849  11.240  39.629   7.010
 3210POPC   C4B42850  11.053  39.655   7.383
 3211POPC   NC342851  11.474  19.288   5.392
 3211POPC   PO442852  10.986  18.747   5.413
 3211POPC   GL142853  11.001  18.978   5.829
 3211POPC   GL242854  11.356  19.063   5.884
 3211POPC   C1A42855  11.031  19.156   6.291
 3211POPC   D2A42856  11.408  19.089   6.556
 3211POPC   C3A42857  11.439  19.176   6.985
 3211POPC   C4A42858  11.534  19.447   7.300
 3211POPC   C1B42859  11.312  18.721   6.211
 3211POPC   C2B42860  11.466  18.575   6.614
 3211POPC   C3B42861  11.236  18.601   6.993
 3211POPC   C4B42862  10.990  18.961   7.067
 3212POPC   NC342863  12.274  10.798   5.648
 3212POPC   PO442864  11.827  10.337   5.390
 3212POPC   GL142865  11.958  10.445   5.880
 3212POPC   GL242866  11.860  10.813   5.968
 3212POPC   C1A42867  12.065  10.521   6.371
 3212POPC   D2A42868  12.416  10.514   6.717
 3212POPC   C3A42869  12.238  10.439   7.139
 3212POPC   C4A42870  11.806  10.476   7.361
 3212POPC   C1B42871  12.181  11.018   6.254
 3212POPC   C2B42872  12.147  10.956   6.660
 3212POPC   C3B42873  11.905  10.736   6.911
 3212POPC   C4B42874  12.065  10.895   7.284
 3213POPC   NC342875  22.492  38.052   5.587
 3213POPC   PO442876  23.125  37.961   5.381
 3213POPC   GL142877  23.000  37.715   5.753
 3213POPC   GL242878  22.837  37.933   5.936
 3213POPC   C1A42879  22.956  37.492   6.169
 3213POPC   D2A42880  23.099  37.636   6.526
 3213POPC   C3A42881  23.020  37.480   6.916
 3213POPC   C4A42882  22.708  37.655   7.136
 3213POPC   C1B42883  22.665  37.920   6.333
 3213POPC   C2B42884  22.862  38.080   6.680
 3213POPC   C3B42885  22.813  38.152   7.080
 3213POPC   C4B42886  23.108  38.249   7.362
 3214POPC   NC342887  11.247  18.373   5.403
 3214POPC   PO442888  11.747  18.037   5.447
 3214POPC   GL142889  11.584  18.212   5.818
 3214POPC   GL242890  11.532  18.557   5.798
 3214POPC   C1A42891  11.408  18.200   6.254
 3214POPC   D2A42892  11.132  18.187   6.620
 3214POPC   C3A42893  11.300  18.103   7.047
 3214POPC   C4A42894  11.071  18.258   7.402
 3214POPC   C1B42895  11.836  18.462   6.176
 3214POPC   C2B42896  11.948  18.401   6.627
 3214POPC   C3B42897  11.722  18.409   7.043
 3214POPC   C4B42898  11.543  18.797   7.325
 3215POPC   NC342899  15.453  40.904   5.289
 3215POPC   PO442900  14.820  40.977   5.264
 3215POPC   GL142901  14.899  40.877   5.717
 3215POPC   GL242902  15.174  40.654   5.714
 3215POPC   C1A42903  14.953  40.896   6.206
 3215POPC   D2A42904  14.842  40.920   6.679
 3215POPC   C3A42905  15.178  40.889   6.988
 3215POPC   C4A42906  15.215  40.944   7.454
 3215POPC   C1B42907  15.234  40.464   6.121
 3215POPC   C2B42908  15.245  40.588   6.553
 3215POPC   C3B42909  15.382  40.413   6.915
 3215POPC   C4B42910  15.287  40.240   7.325
 3216POPC   NC342911  38.475  41.116   5.377
 3216POPC   PO442912  38.084  41.720   5.170
 3216POPC   GL142913  38.184  41.551   5.627
 3216POPC   GL242914  38.422  41.277   5.848
 3216POPC   C1A42915  38.322  41.717   6.044
 3216POPC   D2A42916  38.280  41.430   6.381
 3216POPC   C3A42917  38.385  41.507   6.759
 3216POPC   C4A42918  38.247  41.563   7.149
 3216POPC   C1B42919  38.730  41.441   6.175
 3216POPC   C2B42920  38.704  41.809   6.486
 3216POPC   C3B42921  38.760  41.793   6.961
 3216POPC   C4B42922  38.718  41.362   7.119
 3217POPC   NC342923   0.595  39.533   5.283
 3217POPC   PO442924   0.847  39.054   5.638
 3217POPC   GL142925   0.486  39.207   5.909
 3217POPC   GL242926   0.369  39.541   5.851
 3217POPC   C1A42927   0.332  38.930   6.235
 3217POPC   D2A42928   0.556  38.857   6.585
 3217POPC   C3A42929   0.407  39.154   6.871
 3217POPC   C4A42930   0.255  39.344   7.210
 3217POPC   C1B42931   0.219  39.419   6.304
 3217POPC   C2B42932   0.017  39.461   6.730
 3217POPC   C3B42933   0.169  39.796   7.044
 3217POPC   C4B42934   0.246  39.774   7.527
 3218POPC   NC342935  27.763  31.029   5.611
 3218POPC   PO442936  27.408  31.599   5.396
 3218POPC   GL142937  27.420  31.578   5.850
 3218POPC   GL242938  27.389  31.233   5.894
 3218POPC   C1A42939  27.567  31.560   6.304
 3218POPC   D2A42940  27.842  31.524   6.679
 3218POPC   C3A42941  27.760  31.657   7.109
 3218POPC   C4A42942  27.762  31.314   7.418
 3218POPC   C1B42943  27.166  31.242   6.286
 3218POPC   C2B42944  27.147  31.506   6.639
 3218POPC   C3B42945  27.303  31.448   7.040
 3218POPC   C4B42946  27.270  31.228   7.422
 3219POPC   NC342947  43.323   2.985   5.479
 3219POPC   PO442948  42.846   2.490   5.475
 3219POPC   GL142949  43.036   2.651   5.836
 3219POPC   GL242950  42.935   2.943   6.035
 3219POPC   C1A42951  43.227   2.497   6.219
 3219POPC   D2A42952  43.412   2.639   6.630
 3219POPC   C3A42953  43.096   2.618   6.940
 3219POPC   C4A42954  42.856   2.891   7.181
 3219POPC   C1B42955  43.378   2.999   6.191
 3219POPC   C2B42956  43.714   3.052   6.510
 3219POPC   C3B42957  43.724   3.063   6.951
 3219POPC   C4B42958  43.508   2.766   7.225
 3220POPC   NC342959  14.361  22.909   5.428
 3220POPC   PO442960  14.834  23.466   5.426
 3220POPC   GL142961  14.645  23.152   5.784
 3220POPC   GL242962  14.651  22.746   5.854
 3220POPC   C1A42963  14.307  23.037   6.104
 3220POPC   D2A42964  14.227  22.984   6.560
 3220POPC   C3A42965  14.310  23.148   7.012
 3220POPC   C4A42966  14.462  22.838   7.296
 3220POPC   C1B42967  14.635  22.722   6.347
 3220POPC   C2B42968  14.696  22.887   6.800
 3220POPC   C3B42969  14.920  22.987   7.211
 3220POPC   C4B42970  14.785  22.992   7.677
 3221POPC   NC342971  34.712  44.553   5.514
 3221POPC   PO442972  34.067  44.862   5.399
 3221POPC   GL142973  34.419  44.878   5.825
 3221POPC   GL242974  34.809  44.956   5.822
 3221POPC   C1A42975  34.450  44.735   6.283
 3221POPC   D2A42976  34.304  44.844   6.705
 3221POPC   C3A42977  34.530  44.722   7.063
 3221POPC   C4A42978  34.316  44.522   7.399
 3221POPC   C1B42979  34.965  44.806   6.242
 3221POPC   C2B42980  34.862  44.557   6.611
 3221POPC   C3B42981  35.043  44.645   7.014
 3221POPC   C4B42982  34.947   0.006   7.286
 3222POPC   NC342983  14.241  10.858   5.296
 3222POPC   PO442984  14.634  10.329   5.326
 3222POPC   GL142985  14.427  10.511   5.735
 3222POPC   GL242986  14.324  10.855   5.802
 3222POPC   C1A42987  14.315  10.530   6.210
 3222POPC   D2A42988  14.166  10.514   6.662
 3222POPC   C3A42989  14.377  10.237   6.966
 3222POPC   C4A42990  14.670  10.342   7.287
 3222POPC   C1B42991  14.528  11.069   6.130
 3222POPC   C2B42992  14.541  10.891   6.557
 3222POPC   C3B42993  14.550  10.726   6.953
 3222POPC   C4B42994  14.189  10.650   7.204
 3223POPC   NC342995  16.467  20.289   5.019
 3223POPC   PO442996  16.488  20.129   5.690
 3223POPC   GL142997  16.694  20.400   5.990
 3223POPC   GL242998  17.040  20.546   5.878
 3223POPC   C1A42999  16.642  20.702   6.315
 3223POPC   D2A43000  16.816  20.694   6.718
 3223POPC   C3A43001  16.596  20.483   7.023
 3223POPC   C4A43002  16.505  20.809   7.275
 3223POPC   C1B43003  17.095  20.442   6.313
 3223POPC   C2B43004  17.194  20.348   6.729
 3223POPC   C3B43005  17.103  20.479   7.131
 3223POPC   C4B43006  17.054  20.232   7.483
 3224POPC   NC343007  44.062   2.982   5.428
 3224POPC   PO443008  43.702   2.436   5.473
 3224POPC   GL143009  43.563   2.657   5.820
 3224POPC   GL243010  43.739   2.980   5.836
 3224POPC   C1A43011  43.729   2.597   6.219
 3224POPC   D2A43012  44.042   2.569   6.505
 3224POPC   C3A43013  43.871   2.591   6.868
 3224POPC   C4A43014  43.972   2.517   7.252
 3224POPC   C1B43015  44.104   2.938   6.125
 3224POPC   C2B43016  44.224   3.045   6.546
 3224POPC   C3B43017  44.278   2.887   6.973
 3224POPC   C4B43018  44.081   3.036   7.331
 3225POPC   NC343019  44.221  32.045   5.343
 3225POPC   PO443020  44.879  32.194   5.314
 3225POPC   GL143021  44.809  32.065   5.761
 3225POPC   GL243022  44.647  32.365   5.843
 3225POPC   C1A43023  44.669  32.019   6.241
 3225POPC   D2A43024  44.610  32.167   6.708
 3225POPC   C3A43025  44.868  32.091   7.128
 3225POPC   C4A43026  44.946  31.851   7.541
 3225POPC   C1B43027  44.389  32.464   6.196
 3225POPC   C2B43028  44.423  32.650   6.603
 3225POPC   C3B43029  44.564  32.584   7.036
 3225POPC   C4B43030  44.341  32.366   7.353
 3226POPC   NC343031  34.348  30.011   5.283
 3226POPC   PO443032  34.857  29.637   5.332
 3226POPC   GL143033  34.740  29.892   5.716
 3226POPC   GL243034  34.404  30.015   5.782
 3226POPC   C1A43035  34.855  30.025   6.148
 3226POPC   D2A43036  34.812  29.912   6.583
 3226POPC   C3A43037  34.543  30.142   6.831
 3226POPC   C4A43038  34.535  30.045   7.253
 3226POPC   C1B43039  34.387  29.716   6.097
 3226POPC   C2B43040  34.348  29.687   6.544
 3226POPC   C3B43041  34.488  29.633   6.960
 3226POPC   C4B43042  34.248  29.627   7.352
 3227POPC   NC343043   1.155  28.775   5.440
 3227POPC   PO443044   1.356  29.384   5.598
 3227POPC   GL143045   1.088  29.303   5.946
 3227POPC   GL243046   1.086  28.966   5.920
 3227POPC   C1A43047   1.095  29.225   6.382
 3227POPC   D2A43048   1.432  29.148   6.655
 3227POPC   C3A43049   1.332  29.232   7.035
 3227POPC   C4A43050   0.999  29.205   7.267
 3227POPC   C1B43051   1.279  28.744   6.294
 3227POPC   C2B43052   1.373  28.646   6.713
 3227POPC   C3B43053   1.664  28.697   7.036
 3227POPC   C4B43054   1.829  28.680   7.475
 3228POPC   NC343055  39.168  14.278   5.465
 3228POPC   PO443056  38.736  14.798   5.332
 3228POPC   GL143057  38.932  14.655   5.754
 3228POPC   GL243058  39.322  14.603   5.814
 3228POPC   C1A43059  39.012  14.383   6.137
 3228POPC   D2A43060  39.022  14.489   6.542
 3228POPC   C3A43061  39.119  14.191   6.870
 3228POPC   C4A43062  39.297  14.387   7.230
 3228POPC   C1B43063  39.510  14.671   6.224
 3228POPC   C2B43064  39.517  14.628   6.662
 3228POPC   C3B43065  39.750  14.431   6.976
 3228POPC   C4B43066  39.662  14.060   7.189
 3229POPC   NC343067   0.951  24.727   5.059
 3229POPC   PO443068   1.306  24.224   5.313
 3229POPC   GL143069   1.231  24.563   5.599
 3229POPC   GL243070   0.945  24.453   5.815
 3229POPC   C1A43071   1.313  24.754   6.014
 3229POPC   D2A43072   1.088  24.601   6.382
 3229POPC   C3A43073   1.316  24.655   6.776
 3229POPC   C4A43074   1.279  24.520   7.200
 3229POPC   C1B43075   0.813  24.190   6.172
 3229POPC   C2B43076   0.833  24.001   6.606
 3229POPC   C3B43077   1.050  24.095   7.003
 3229POPC   C4B43078   1.000  24.114   7.447
 3230POPC   NC343079  42.929  13.784   5.393
 3230POPC   PO443080  43.088  13.110   5.287
 3230POPC   GL143081  43.189  13.459   5.702
 3230POPC   GL243082  43.321  13.841   5.698
 3230POPC   C1A43083  43.116  13.565   6.157
 3230POPC   D2A43084  43.235  13.340   6.557
 3230POPC   C3A43085  43.205  13.519   6.994
 3230POPC   C4A43086  42.973  13.829   7.233
 3230POPC   C1B43087  43.386  14.040   6.096
 3230POPC   C2B43088  43.406  13.849   6.514
 3230POPC   C3B43089  43.328  14.045   6.929
 3230POPC   C4B43090  43.491  13.935   7.323
 3231POPC   NC343091  15.138  15.488   5.147
 3231POPC   PO443092  15.014  14.863   5.315
 3231POPC   GL143093  15.313  14.854   5.675
 3231POPC   GL243094  15.066  14.746   5.901
 3231POPC   C1A43095  15.485  15.087   6.080
 3231POPC   D2A43096  15.653  15.303   6.479
 3231POPC   C3A43097  15.322  15.395   6.785
 3231POPC   C4A43098  15.233  15.144   7.160
 3231POPC   C1B43099  14.963  15.108   6.177
 3231POPC   C2B43100  14.867  15.192   6.627
 3231POPC   C3B43101  14.715  15.163   7.071
 3231POPC   C4B43102  14.883  15.397   7.419
 3232POPC   NC343103  44.931  23.344   5.486
 3232POPC   PO443104  44.512  22.734   5.437
 3232POPC   GL143105  44.636  23.017   5.774
 3232POPC   GL243106  44.954  22.959   5.880
 3232POPC   C1A43107  44.555  23.032   6.207
 3232POPC   D2A43108  44.867  22.900   6.527
 3232POPC   C3A43109  44.607  22.909   6.908
 3232POPC   C4A43110  44.583  23.080   7.309
 3232POPC   C1B43111  44.945  23.348   6.152
 3232POPC   C2B43112   0.130  23.452   6.546
 3232POPC   C3B43113   0.033  23.322   6.971
 3232POPC   C4B43114  44.872  23.494   7.350
 3233POPC   NC343115  28.648  32.467   5.359
 3233POPC   PO443116  28.381  31.830   5.367
 3233POPC   GL143117  28.232  32.139   5.702
 3233POPC   GL243118  28.488  32.339   5.802
 3233POPC   C1A43119  28.161  32.282   6.165
 3233POPC   D2A43120  28.397  32.331   6.551
 3233POPC   C3A43121  28.243  32.374   6.985
 3233POPC   C4A43122  28.242  31.970   7.198
 3233POPC   C1B43123  28.730  32.223   6.127
 3233POPC   C2B43124  28.857  32.097   6.503
 3233POPC   C3B43125  28.752  32.192   6.904
 3233POPC   C4B43126  28.639  32.292   7.310
 3234POPC   NC343127  32.760  32.877   5.425
 3234POPC   PO443128  33.398  33.071   5.425
 3234POPC   GL143129  33.159  33.221   5.777
 3234POPC   GL243130  33.027  32.879   5.916
 3234POPC   C1A43131  33.026  33.340   6.212
 3234POPC   D2A43132  32.813  33.129   6.549
 3234POPC   C3A43133  32.824  33.254   6.962
 3234POPC   C4A43134  33.195  33.182   7.187
 3234POPC   C1B43135  32.971  32.677   6.346
 3234POPC   C2B43136  32.942  32.724   6.844
 3234POPC   C3B43137  32.847  32.675   7.301
 3234POPC   C4B43138  32.763  32.620   7.750
 3235POPC   NC343139   5.901  32.890   5.514
 3235POPC   PO443140   6.283  33.420   5.398
 3235POPC   GL143141   6.053  33.302   5.818
 3235POPC   GL243142   6.010  32.934   6.004
 3235POPC   C1A43143   5.712  33.333   6.142
 3235POPC   D2A43144   5.727  33.149   6.549
 3235POPC   C3A43145   5.619  33.393   6.882
 3235POPC   C4A43146   5.576  33.240   7.279
 3235POPC   C1B43147   5.621  32.739   6.250
 3235POPC   C2B43148   5.456  32.737   6.700
 3235POPC   C3B43149   5.763  32.805   7.045
 3235POPC   C4B43150   6.162  32.530   7.087
 3236POPC   NC343151   1.158  25.706   5.299
 3236POPC   PO443152   1.265  25.003   5.305
 3236POPC   GL143153   1.215  25.242   5.708
 3236POPC   GL243154   0.861  25.353   5.788
 3236POPC   C1A43155   1.478  25.400   6.071
 3236POPC   D2A43156   1.454  25.596   6.492
 3236POPC   C3A43157   1.360  25.279   6.793
 3236POPC   C4A43158   1.415  25.027   7.151
 3236POPC   C1B43159   0.944  25.093   6.177
 3236POPC   C2B43160   0.742  24.948   6.564
 3236POPC   C3B43161   0.936  24.960   6.952
 3236POPC   C4B43162   0.988  25.346   7.158
 3237POPC   NC343163  28.725  21.863   5.504
 3237POPC   PO443164  28.269  22.425   5.436
 3237POPC   GL143165  28.187  22.155   5.807
 3237POPC   GL243166  28.520  22.095   5.908
 3237POPC   C1A43167  28.154  21.923   6.227
 3237POPC   D2A43168  28.376  21.792   6.617
 3237POPC   C3A43169  28.225  21.976   7.014
 3237POPC   C4A43170  28.379  22.346   7.190
 3237POPC   C1B43171  28.679  21.771   6.188
 3237POPC   C2B43172  28.917  21.790   6.579
 3237POPC   C3B43173  28.762  21.931   6.949
 3237POPC   C4B43174  28.600  21.655   7.178
 3238POPC   NC343175   6.032  37.266   5.449
 3238POPC   PO443176   5.901  36.611   5.330
 3238POPC   GL143177   5.905  36.753   5.747
 3238POPC   GL243178   6.219  36.665   5.812
 3238POPC   C1A43179   5.887  36.928   6.193
 3238POPC   D2A43180   5.942  37.112   6.630
 3238POPC   C3A43181   5.691  36.950   6.969
 3238POPC   C4A43182   5.473  37.188   7.278
 3238POPC   C1B43183   6.122  36.479   6.234
 3238POPC   C2B43184   6.023  36.599   6.714
 3238POPC   C3B43185   6.029  36.640   7.202
 3238POPC   C4B43186   6.090  36.671   7.688
 3239POPC   NC343187  39.923  22.343   5.232
 3239POPC   PO443188  40.449  21.955   5.347
 3239POPC   GL143189  40.188  21.916   5.730
 3239POPC   GL243190  39.984  22.221   5.835
 3239POPC   C1A43191  40.322  21.976   6.165
 3239POPC   D2A43192  40.062  22.110   6.506
 3239POPC   C3A43193  40.138  21.902   6.859
 3239POPC   C4A43194  40.286  22.025   7.246
 3239POPC   C1B43195  39.808  21.879   6.107
 3239POPC   C2B43196  39.584  21.916   6.494
 3239POPC   C3B43197  39.685  22.136   6.879
 3239POPC   C4B43198  39.784  21.912   7.243
 3240POPC   NC343199  10.741   9.215   5.311
 3240POPC   PO443200  10.349   8.762   5.443
 3240POPC   GL143201  10.495   8.998   5.725
 3240POPC   GL243202  10.753   8.775   5.785
 3240POPC   C1A43203  10.415   9.015   6.156
 3240POPC   D2A43204  10.590   9.201   6.510
 3240POPC   C3A43205  10.387   9.077   6.906
 3240POPC   C4A43206  10.546   9.113   7.331
 3240POPC   C1B43207  10.786   8.621   6.207
 3240POPC   C2B43208  10.630   8.670   6.633
 3240POPC   C3B43209  10.769   8.718   7.083
 3240POPC   C4B43210  10.607   8.615   7.517
 3241POPC   NC343211   0.947  20.031   5.188
 3241POPC   PO443212   1.382  19.765   5.583
 3241POPC   GL143213   1.131  19.961   5.889
 3241POPC   GL243214   0.924  19.677   5.966
 3241POPC   C1A43215   1.118  20.055   6.342
 3241POPC   D2A43216   1.107  19.855   6.744
 3241POPC   C3A43217   1.426  19.887   7.034
 3241POPC   C4A43218   1.577  20.140   7.326
 3241POPC   C1B43219   1.269  19.563   6.306
 3241POPC   C2B43220   1.377  19.438   6.757
 3241POPC   C3B43221   1.217  19.438   7.185
 3241POPC   C4B43222   1.009  19.438   7.595
 3242POPC   NC343223  43.473  16.669   5.514
 3242POPC   PO443224  42.766  16.644   5.353
 3242POPC   GL143225  42.981  16.633   5.760
 3242POPC   GL243226  42.754  16.869   5.914
 3242POPC   C1A43227  43.082  16.586   6.222
 3242POPC   D2A43228  42.959  16.851   6.590
 3242POPC   C3A43229  42.963  16.680   7.007
 3242POPC   C4A43230  43.107  16.362   7.308
 3242POPC   C1B43231  43.079  17.107   6.143
 3242POPC   C2B43232  43.259  17.274   6.538
 3242POPC   C3B43233  43.200  17.132   6.967
 3242POPC   C4B43234  43.165  17.010   7.402
 3243POPC   NC343235   1.003   4.008   5.334
 3243POPC   PO443236   1.549   3.875   5.473
 3243POPC   GL143237   1.286   4.183   5.751
 3243POPC   GL243238   0.924   4.148   5.826
 3243POPC   C1A43239   1.224   4.341   6.205
 3243POPC   D2A43240   0.914   4.368   6.556
 3243POPC   C3A43241   1.045   4.535   6.932
 3243POPC   C4A43242   1.381   4.370   7.165
 3243POPC   C1B43243   0.848   3.969   6.234
 3243POPC   C2B43244   0.760   3.904   6.670
 3243POPC   C3B43245   1.001   4.026   7.045
 3243POPC   C4B43246   1.076   4.116   7.487
 3244POPC   NC343247  17.977  12.411   5.471
 3244POPC   PO443248  17.951  11.678   5.372
 3244POPC   GL143249  18.232  11.792   5.741
 3244POPC   GL243250  18.238  12.150   5.820
 3244POPC   C1A43251  18.324  11.869   6.219
 3244POPC   D2A43252  18.098  12.078   6.578
 3244POPC   C3A43253  18.116  11.901   7.006
 3244POPC   C4A43254  18.521  11.931   7.208
 3244POPC   C1B43255  18.302  12.387   6.214
 3244POPC   C2B43256  18.196  12.585   6.619
 3244POPC   C3B43257  18.316  12.383   6.984
 3244POPC   C4B43258  18.481  12.428   7.374
 3245POPC   NC343259  18.103  38.815   5.484
 3245POPC   PO443260  18.230  39.458   5.484
 3245POPC   GL143261  18.010  39.199   5.826
 3245POPC   GL243262  18.329  39.023   5.927
 3245POPC   C1A43263  17.979  39.140   6.309
 3245POPC   D2A43264  18.199  39.413   6.633
 3245POPC   C3A43265  18.491  39.217   6.924
 3245POPC   C4A43266  18.516  39.160   7.359
 3245POPC   C1B43267  18.538  38.755   6.245
 3245POPC   C2B43268  18.366  38.683   6.661
 3245POPC   C3B43269  18.032  38.970   6.846
 3245POPC   C4B43270  18.021  39.242   7.207
 3246POPC   NC343271  15.376  18.856   5.421
 3246POPC   PO443272  14.867  19.305   5.443
 3246POPC   GL143273  15.096  19.135   5.762
 3246POPC   GL243274  15.401  19.202   5.814
 3246POPC   C1A43275  15.081  18.912   6.151
 3246POPC   D2A43276  15.058  19.101   6.571
 3246POPC   C3A43277  14.870  18.933   6.919
 3246POPC   C4A43278  15.048  18.922   7.329
 3246POPC   C1B43279  15.356  19.357   6.242
 3246POPC   C2B43280  15.478  19.382   6.699
 3246POPC   C3B43281  15.220  19.299   7.039
 3246POPC   C4B43282  15.292  19.400   7.463
 3247POPC   NC343283  44.549  44.792   5.346
 3247POPC   PO443284   0.018  44.351   5.476
 3247POPC   GL143285  44.687  44.551   5.816
 3247POPC   GL243286  44.446  44.861   5.832
 3247POPC   C1A43287  44.601  44.644   6.279
 3247POPC   D2A43288  44.871  44.804   6.558
 3247POPC   C3A43289  44.925  44.603   6.930
 3247POPC   C4A43290  44.774  44.789   7.286
 3247POPC   C1B43291  44.173  44.511   6.042
 3247POPC   C2B43292  44.156  44.463   6.516
 3247POPC   C3B43293  44.431  44.675   6.848
 3247POPC   C4B43294  44.294  44.962   7.229
 3248POPC   NC343295  30.241   0.741   5.424
 3248POPC   PO443296  29.877   0.096   5.345
 3248POPC   GL143297  30.040   0.308   5.719
 3248POPC   GL243298  29.700   0.322   5.778
 3248POPC   C1A43299  30.023   0.619   6.101
 3248POPC   D2A43300  30.147   0.560   6.563
 3248POPC   C3A43301  29.933   0.574   6.985
 3248POPC   C4A43302  29.999   0.258   7.305
 3248POPC   C1B43303  29.800   0.173   6.167
 3248POPC   C2B43304  29.669   0.298   6.538
 3248POPC   C3B43305  29.703   0.110   6.909
 3248POPC   C4B43306  29.486   0.240   7.273
 3249POPC   NC343307   2.000  28.467   5.039
 3249POPC   PO443308   1.951  28.585   5.676
 3249POPC   GL143309   1.767  28.504   6.028
 3249POPC   GL243310   1.893  28.166   5.996
 3249POPC   C1A43311   1.731  28.419   6.444
 3249POPC   D2A43312   2.069  28.531   6.715
 3249POPC   C3A43313   2.096  28.431   7.118
 3249POPC   C4A43314   2.357  28.604   7.399
 3249POPC   C1B43315   2.188  28.219   6.315
 3249POPC   C2B43316   2.307  28.038   6.718
 3249POPC   C3B43317   2.271  27.966   7.157
 3249POPC   C4B43318   1.863  27.967   7.328
 3250POPC   NC343319   5.885   9.649   5.247
 3250POPC   PO443320   5.314   9.971   5.219
 3250POPC   GL143321   5.543   9.715   5.611
 3250POPC   GL243322   5.908   9.863   5.711
 3250POPC   C1A43323   5.640   9.668   6.086
 3250POPC   D2A43324   5.660   9.898   6.500
 3250POPC   C3A43325   5.635   9.705   6.911
 3250POPC   C4A43326   5.707   9.875   7.309
 3250POPC   C1B43327   6.050   9.956   6.160
 3250POPC   C2B43328   6.167   9.785   6.596
 3250POPC   C3B43329   6.134   9.695   7.032
 3250POPC   C4B43330   6.175   9.803   7.485
 3251POPC   NC343331  25.933   0.915   5.287
 3251POPC   PO443332  26.028   1.562   5.209
 3251POPC   GL143333  26.020   1.323   5.649
 3251POPC   GL243334  26.275   1.123   5.743
 3251POPC   C1A43335  25.954   1.240   6.132
 3251POPC   D2A43336  26.194   1.260   6.564
 3251POPC   C3A43337  25.935   1.207   6.966
 3251POPC   C4A43338  25.742   1.079   7.386
 3251POPC   C1B43339  26.471   1.094   6.132
 3251POPC   C2B43340  26.599   0.896   6.512
 3251POPC   C3B43341  26.495   0.973   6.893
 3251POPC   C4B43342  26.369   1.161   7.227
 3252POPC   NC343343  41.003  36.305   5.123
 3252POPC   PO443344  41.625  36.086   5.342
 3252POPC   GL143345  41.497  36.022   5.810
 3252POPC   GL243346  41.523  35.656   5.934
 3252POPC   C1A43347  41.636  36.128   6.260
 3252POPC   D2A43348  41.666  36.414   6.644
 3252POPC   C3A43349  41.496  36.359   7.053
 3252POPC   C4A43350  41.754  36.204   7.396
 3252POPC   C1B43351  41.291  35.750   6.314
 3252POPC   C2B43352  41.454  35.916   6.699
 3252POPC   C3B43353  41.576  35.849   7.091
 3252POPC   C4B43354  41.502  35.788   7.516
 3253POPC   NC343355   0.822   0.526   5.466
 3253POPC   PO443356   1.453   0.297   5.426
 3253POPC   GL143357   1.366   0.629   5.777
 3253POPC   GL243358   1.020   0.648   5.913
 3253POPC   C1A43359   1.446   0.612   6.247
 3253POPC   D2A43360   1.544   0.235   6.535
 3253POPC   C3A43361   1.497   0.351   6.971
 3253POPC   C4A43362   1.330   0.728   7.109
 3253POPC   C1B43363   1.010   0.341   6.251
 3253POPC   C2B43364   1.100   0.513   6.660
 3253POPC   C3B43365   0.959   0.413   7.064
 3253POPC   C4B43366   1.155   0.217   7.430
 3254POPC   NC343367  21.939  40.257   5.389
 3254POPC   PO443368  22.456  39.765   5.436
 3254POPC   GL143369  22.298  40.040   5.726
 3254POPC   GL243370  21.958  40.000   5.814
 3254POPC   C1A43371  22.414  40.148   6.138
 3254POPC   D2A43372  22.601  40.017   6.529
 3254POPC   C3A43373  22.362  40.082   6.877
 3254POPC   C4A43374  22.219  40.112   7.306
 3254POPC   C1B43375  21.966  39.871   6.208
 3254POPC   C2B43376  21.929  40.036   6.595
 3254POPC   C3B43377  21.814  40.016   7.004
 3254POPC   C4B43378  21.730  40.077   7.423
 3255POPC   NC343379  24.199  33.613   5.505
 3255POPC   PO443380  23.504  33.979   5.453
 3255POPC   GL143381  23.634  33.745   5.799
 3255POPC   GL243382  23.961  33.845   5.894
 3255POPC   C1A43383  23.499  33.857   6.238
 3255POPC   D2A43384  23.245  33.822   6.635
 3255POPC   C3A43385  23.518  34.028   6.931
 3255POPC   C4A43386  23.634  34.053   7.335
 3255POPC   C1B43387  23.853  33.465   6.162
 3255POPC   C2B43388  23.585  33.416   6.529
 3255POPC   C3B43389  23.574  33.516   6.972
 3255POPC   C4B43390  23.944  33.630   7.235
 3256POPC   NC343391   3.898  14.202   5.661
 3256POPC   PO443392   4.491  14.225   5.372
 3256POPC   GL143393   4.400  14.498   5.747
 3256POPC   GL243394   4.696  14.685   5.794
 3256POPC   C1A43395   4.318  14.456   6.216
 3256POPC   D2A43396   4.155  14.150   6.501
 3256POPC   C3A43397   4.238  14.264   6.942
 3256POPC   C4A43398   4.559  14.115   7.243
 3256POPC   C1B43399   4.670  14.829   6.213
 3256POPC   C2B43400   4.517  14.699   6.640
 3256POPC   C3B43401   4.589  14.616   7.082
 3256POPC   C4B43402   4.537  14.888   7.439
 3257POPC   NC343403  43.665  17.595   5.189
 3257POPC   PO443404  44.301  17.500   5.329
 3257POPC   GL143405  44.145  17.511   5.748
 3257POPC   GL243406  43.792  17.628   5.749
 3257POPC   C1A43407  44.145  17.707   6.150
 3257POPC   D2A43408  43.924  17.732   6.536
 3257POPC   C3A43409  44.060  17.600   6.950
 3257POPC   C4A43410  43.900  17.568   7.372
 3257POPC   C1B43411  43.657  17.475   6.167
 3257POPC   C2B43412  43.776  17.256   6.549
 3257POPC   C3B43413  43.625  17.384   6.919
 3257POPC   C4B43414  43.696  17.125   7.239
 3258POPC   NC343415   9.862  37.613   5.334
 3258POPC   PO443416   9.268  37.355   5.519
 3258POPC   GL143417   9.643  37.426   5.771
 3258POPC   GL243418   9.710  37.814   5.785
 3258POPC   C1A43419   9.734  37.537   6.201
 3258POPC   D2A43420   9.629  37.853   6.533
 3258POPC   C3A43421   9.563  37.732   6.974
 3258POPC   C4A43422   9.837  37.520   7.247
 3258POPC   C1B43423   9.990  37.966   6.142
 3258POPC   C2B43424  10.148  37.798   6.569
 3258POPC   C3B43425  10.120  37.887   7.020
 3258POPC   C4B43426   9.827  38.010   7.367
 3259POPC   NC343427  40.924  26.802   5.106
 3259POPC   PO443428  40.521  26.771   5.650
 3259POPC   GL143429  40.813  26.927   5.901
 3259POPC   GL243430  40.717  26.674   6.125
 3259POPC   C1A43431  40.915  27.185   6.257
 3259POPC   D2A43432  40.791  26.923   6.581
 3259POPC   C3A43433  40.934  26.987   6.955
 3259POPC   C4A43434  40.744  26.925   7.333
 3259POPC   C1B43435  40.416  27.017   6.233
 3259POPC   C2B43436  40.360  27.188   6.612
 3259POPC   C3B43437  40.385  26.905   6.972
 3259POPC   C4B43438  40.390  26.515   7.233
 3260POPC   NC343439   2.257  14.125   5.379
 3260POPC   PO443440   2.044  14.799   5.342
 3260POPC   GL143441   1.966  14.465   5.650
 3260POPC   GL243442   2.291  14.436   5.820
 3260POPC   C1A43443   1.824  14.388   6.091
 3260POPC   D2A43444   2.013  14.466   6.514
 3260POPC   C3A43445   1.867  14.335   6.930
 3260POPC   C4A43446   1.956  14.502   7.341
 3260POPC   C1B43447   2.267  14.170   6.166
 3260POPC   C2B43448   2.363  14.069   6.545
 3260POPC   C3B43449   2.199  13.934   6.868
 3260POPC   C4B43450   2.194  14.069   7.245
 3261POPC   NC343451   4.644  20.167   5.081
 3261POPC   PO443452   4.246  19.713   5.377
 3261POPC   GL143453   4.272  19.684   5.833
 3261POPC   GL243454   4.110  19.954   5.895
 3261POPC   C1A43455   4.439  19.741   6.269
 3261POPC   D2A43456   4.420  19.540   6.683
 3261POPC   C3A43457   4.452  19.771   7.049
 3261POPC   C4A43458   4.536  19.743   7.511
 3261POPC   C1B43459   4.079  20.232   6.222
 3261POPC   C2B43460   3.961  20.308   6.638
 3261POPC   C3B43461   4.074  20.190   7.050
 3261POPC   C4B43462   4.104  20.102   7.498
 3262POPC   NC343463  18.671  11.925   5.425
 3262POPC   PO443464  19.216  12.325   5.307
 3262POPC   GL143465  19.085  12.102   5.665
 3262POPC   GL243466  18.769  12.266   5.816
 3262POPC   C1A43467  19.170  12.139   6.101
 3262POPC   D2A43468  19.104  12.302   6.510
 3262POPC   C3A43469  19.277  12.103   6.847
 3262POPC   C4A43470  19.058  11.891   7.207
 3262POPC   C1B43471  18.791  12.547   6.189
 3262POPC   C2B43472  18.709  12.589   6.658
 3262POPC   C3B43473  18.832  12.311   7.021
 3262POPC   C4B43474  18.934  12.296   7.513
 3263POPC   NC343475  38.500  25.681   5.436
 3263POPC   PO443476  38.817  26.334   5.453
 3263POPC   GL143477  38.691  26.211   5.859
 3263POPC   GL243478  38.389  26.050   5.802
 3263POPC   C1A43479  38.674  25.942   6.239
 3263POPC   D2A43480  38.486  26.092   6.614
 3263POPC   C3A43481  38.694  26.105   7.013
 3263POPC   C4A43482  38.616  25.921   7.419
 3263POPC   C1B43483  38.149  25.979   6.189
 3263POPC   C2B43484  37.960  25.971   6.596
 3263POPC   C3B43485  38.197  25.858   6.963
 3263POPC   C4B43486  38.206  26.154   7.252
 3264POPC   NC343487   0.098  31.029   5.236
 3264POPC   PO443488  44.569  30.591   5.420
 3264POPC   GL143489  44.634  30.509   5.820
 3264POPC   GL243490  44.985  30.477   5.905
 3264POPC   C1A43491  44.495  30.373   6.184
 3264POPC   D2A43492  44.685  30.371   6.570
 3264POPC   C3A43493  44.536  30.664   6.861
 3264POPC   C4A43494  44.688  31.038   7.007
 3264POPC   C1B43495  44.930  30.747   6.286
 3264POPC   C2B43496   0.048  30.694   6.732
 3264POPC   C3B43497  44.961  30.627   7.175
 3264POPC   C4B43498  44.929  30.480   7.604
 3265POPC   NC343499  18.169  15.636   5.555
 3265POPC   PO443500  18.293  15.083   5.165
 3265POPC   GL143501  18.390  15.049   5.740
 3265POPC   GL243502  18.678  15.031   5.850
 3265POPC   C1A43503  18.252  15.239   6.238
 3265POPC   D2A43504  17.946  15.361   6.606
 3265POPC   C3A43505  18.131  15.244   7.000
 3265POPC   C4A43506  18.461  15.431   7.215
 3265POPC   C1B43507  18.593  14.872   6.241
 3265POPC   C2B43508  18.520  15.045   6.669
 3265POPC   C3B43509  18.646  14.965   7.088
 3265POPC   C4B43510  18.818  14.883   7.490
 3266POPC   NC343511  32.340   1.418   5.259
 3266POPC   PO443512  31.737   1.021   5.421
 3266POPC   GL143513  32.010   1.316   5.686
 3266POPC   GL243514  32.358   1.283   5.759
 3266POPC   C1A43515  32.040   1.313   6.149
 3266POPC   D2A43516  32.118   1.077   6.520
 3266POPC   C3A43517  32.054   1.315   6.909
 3266POPC   C4A43518  32.021   1.303   7.344
 3266POPC   C1B43519  32.558   1.361   6.191
 3266POPC   C2B43520  32.463   1.441   6.625
 3266POPC   C3B43521  32.619   1.362   7.040
 3266POPC   C4B43522  32.707   1.470   7.452
 3267POPC   NC343523  24.036  43.191   5.559
 3267POPC   PO443524  23.555  43.043   5.132
 3267POPC   GL143525  23.555  43.008   5.643
 3267POPC   GL243526  23.413  42.708   5.805
 3267POPC   C1A43527  23.640  43.167   6.112
 3267POPC   D2A43528  23.575  43.070   6.562
 3267POPC   C3A43529  23.571  43.386   6.895
 3267POPC   C4A43530  23.745  43.221   7.283
 3267POPC   C1B43531  23.824  42.685   6.064
 3267POPC   C2B43532  24.028  42.855   6.444
 3267POPC   C3B43533  23.968  42.915   6.897
 3267POPC   C4B43534  24.109  42.761   7.281
 3268POPC   NC343535  19.340   2.845   5.444
 3268POPC   PO443536  18.723   2.467   5.396
 3268POPC   GL143537  19.030   2.600   5.762
 3268POPC   GL243538  19.049   2.979   5.865
 3268POPC   C1A43539  19.171   2.626   6.212
 3268POPC   D2A43540  19.029   2.779   6.629
 3268POPC   C3A43541  19.173   2.529   6.967
 3268POPC   C4A43542  19.228   2.603   7.419
 3268POPC   C1B43543  19.181   3.156   6.300
 3268POPC   C2B43544  19.327   3.235   6.734
 3268POPC   C3B43545  19.165   3.020   7.119
 3268POPC   C4B43546  19.249   3.086   7.616
 3269POPC   NC343547  42.081  38.287   5.157
 3269POPC   PO443548  41.435  38.446   5.400
 3269POPC   GL143549  41.327  38.579   5.824
 3269POPC   GL243550  41.619  38.686   5.979
 3269POPC   C1A43551  41.326  38.427   6.284
 3269POPC   D2A43552  41.313  38.610   6.714
 3269POPC   C3A43553  41.252  38.276   7.010
 3269POPC   C4A43554  41.604  38.115   7.237
 3269POPC   C1B43555  41.571  38.867   6.352
 3269POPC   C2B43556  41.814  38.581   6.539
 3269POPC   C3B43557  41.750  38.296   6.805
 3269POPC   C4B43558  41.863  38.543   7.177
 3270POPC   NC343559  44.173  23.985   5.604
 3270POPC   PO443560  44.655  24.484   5.358
 3270POPC   GL143561  44.604  24.495   5.794
 3270POPC   GL243562  44.785  24.187   5.828
 3270POPC   C1A43563  44.327  24.417   6.161
 3270POPC   D2A43564  44.414  24.147   6.513
 3270POPC   C3A43565  44.324  24.252   6.936
 3270POPC   C4A43566  44.397  24.616   7.148
 3270POPC   C1B43567  44.842  24.360   6.281
 3270POPC   C2B43568  44.922  24.285   6.751
 3270POPC   C3B43569  44.909  24.284   7.237
 3270POPC   C4B43570   0.027  24.368   7.674
 3271POPC   NC343571  24.278  17.162   5.423
 3271POPC   PO443572  24.700  17.755   5.368
 3271POPC   GL143573  24.496  17.523   5.731
 3271POPC   GL243574  24.180  17.692   5.839
 3271POPC   C1A43575  24.518  17.604   6.208
 3271POPC   D2A43576  24.541  17.819   6.623
 3271POPC   C3A43577  24.450  17.518   6.980
 3271POPC   C4A43578  24.586  17.138   7.245
 3271POPC   C1B43579  24.003  17.427   6.169
 3271POPC   C2B43580  24.086  17.289   6.592
 3271POPC   C3B43581  24.108  17.132   7.005
 3271POPC   C4B43582  24.123  17.326   7.383
 3272POPC   NC343583  42.573  20.515   5.345
 3272POPC   PO443584  43.234  20.692   5.370
 3272POPC   GL143585  42.996  20.460   5.678
 3272POPC   GL243586  42.791  20.753   5.765
 3272POPC   C1A43587  42.970  20.347   6.148
 3272POPC   D2A43588  42.775  20.313   6.579
 3272POPC   C3A43589  43.027  20.491   6.926
 3272POPC   C4A43590  43.214  20.606   7.310
 3272POPC   C1B43591  43.055  20.865   6.177
 3272POPC   C2B43592  43.230  20.868   6.637
 3272POPC   C3B43593  43.160  21.062   7.084
 3272POPC   C4B43594  43.149  21.066   7.584
 3273POPC   NC343595  21.625  44.388   5.510
 3273POPC   PO443596  21.178  44.726   5.206
 3273POPC   GL143597  21.302  44.722   5.715
 3273POPC   GL243598  21.229   0.055   5.821
 3273POPC   C1A43599  21.517  44.491   6.155
 3273POPC   D2A43600  21.640  44.306   6.605
 3273POPC   C3A43601  21.388  44.444   6.997
 3273POPC   C4A43602  21.342  44.691   7.419
 3273POPC   C1B43603  21.231  44.906   6.252
 3273POPC   C2B43604  21.375  44.862   6.682
 3273POPC   C3B43605  21.208   0.034   7.067
 3273POPC   C4B43606  20.853  44.914   7.307
 3274POPC   NC343607  18.820   3.631   5.294
 3274POPC   PO443608  19.463   3.278   5.230
 3274POPC   GL143609  19.157   3.397   5.546
 3274POPC   GL243610  19.361   3.653   5.676
 3274POPC   C1A43611  18.963   3.489   5.972
 3274POPC   D2A43612  18.958   3.630   6.438
 3274POPC   C3A43613  19.045   3.634   6.917
 3274POPC   C4A43614  18.962   3.841   7.309
 3274POPC   C1B43615  19.418   3.661   6.148
 3274POPC   C2B43616  19.430   3.782   6.596
 3274POPC   C3B43617  19.575   3.694   6.988
 3274POPC   C4B43618  19.424   3.440   7.293
 3275POPC   NC343619   9.256  44.047   5.101
 3275POPC   PO443620   8.785  43.650   5.410
 3275POPC   GL143621   8.761  43.955   5.720
 3275POPC   GL243622   9.105  44.059   5.757
 3275POPC   C1A43623   8.792  44.012   6.175
 3275POPC   D2A43624   8.865  43.782   6.546
 3275POPC   C3A43625   8.911  43.942   6.936
 3275POPC   C4A43626   8.735  43.694   7.277
 3275POPC   C1B43627   9.285  43.760   6.093
 3275POPC   C2B43628   9.278  43.486   6.445
 3275POPC   C3B43629   9.269  43.569   6.873
 3275POPC   C4B43630   9.255  43.720   7.276
 3276POPC   NC343631  42.788  31.668   5.007
 3276POPC   PO443632  43.135  31.645   5.601
 3276POPC   GL143633  42.978  31.613   5.971
 3276POPC   GL243634  42.984  31.258   5.914
 3276POPC   C1A43635  42.944  31.769   6.395
 3276POPC   D2A43636  43.244  31.831   6.714
 3276POPC   C3A43637  43.292  31.484   7.010
 3276POPC   C4A43638  42.942  31.588   7.265
 3276POPC   C1B43639  42.861  31.224   6.282
 3276POPC   C2B43640  43.023  31.290   6.634
 3276POPC   C3B43641  42.820  31.210   6.970
 3276POPC   C4B43642  42.999  31.107   7.322
 3277POPC   NC343643  22.633  28.578   5.117
 3277POPC   PO443644  23.222  28.281   5.187
 3277POPC   GL143645  23.189  28.298   5.709
 3277POPC   GL243646  22.876  28.189   5.867
 3277POPC   C1A43647  23.117  28.490   6.199
 3277POPC   D2A43648  22.886  28.675   6.599
 3277POPC   C3A43649  22.931  28.523   7.023
 3277POPC   C4A43650  23.199  28.334   7.375
 3277POPC   C1B43651  22.675  28.196   6.281
 3277POPC   C2B43652  22.859  28.129   6.680
 3277POPC   C3B43653  22.828  28.038   7.112
 3277POPC   C4B43654  22.876  27.975   7.558
 3278POPC   NC343655  33.891  20.231   5.218
 3278POPC   PO443656  33.831  20.837   5.521
 3278POPC   GL143657  34.045  20.466   5.682
 3278POPC   GL243658  33.710  20.315   5.745
 3278POPC   C1A43659  34.083  20.371   6.131
 3278POPC   D2A43660  33.975  20.645   6.481
 3278POPC   C3A43661  33.971  20.440   6.862
 3278POPC   C4A43662  34.190  20.445   7.270
 3278POPC   C1B43663  33.569  20.575   6.133
 3278POPC   C2B43664  33.501  20.842   6.550
 3278POPC   C3B43665  33.432  20.754   7.001
 3278POPC   C4B43666  33.670  20.472   7.251
 3279POPC   NC343667  37.879  17.762   5.259
 3279POPC   PO443668  37.778  17.174   5.362
 3279POPC   GL143669  37.645  17.464   5.642
 3279POPC   GL243670  37.974  17.598   5.758
 3279POPC   C1A43671  37.569  17.511   6.087
 3279POPC   D2A43672  37.637  17.730   6.472
 3279POPC   C3A43673  37.657  17.781   6.926
 3279POPC   C4A43674  37.548  17.708   7.357
 3279POPC   C1B43675  37.945  17.182   5.989
 3279POPC   C2B43676  37.796  17.149   6.398
 3279POPC   C3B43677  37.803  17.313   6.795
 3279POPC   C4B43678  37.823  17.223   7.214
 3280POPC   NC343679   9.084  41.873   5.402
 3280POPC   PO443680   8.866  41.322   5.218
 3280POPC   GL143681   8.971  41.481   5.714
 3280POPC   GL243682   9.208  41.702   5.861
 3280POPC   C1A43683   8.777  41.633   6.112
 3280POPC   D2A43684   8.777  41.467   6.509
 3280POPC   C3A43685   9.136  41.406   6.792
 3280POPC   C4A43686   9.068  41.349   7.230
 3280POPC   C1B43687   9.308  41.478   6.211
 3280POPC   C2B43688   9.417  41.740   6.524
 3280POPC   C3B43689   9.129  41.968   6.761
 3280POPC   C4B43690   9.215  41.816   7.146
 3281POPC   NC343691   7.381  30.684   5.042
 3281POPC   PO443692   7.381  30.881   5.471
 3281POPC   GL143693   7.447  30.712   5.920
 3281POPC   GL243694   7.152  30.533   6.083
 3281POPC   C1A43695   7.535  30.682   6.381
 3281POPC   D2A43696   7.690  30.942   6.700
 3281POPC   C3A43697   7.607  30.845   7.134
 3281POPC   C4A43698   7.728  31.001   7.555
 3281POPC   C1B43699   7.287  30.244   6.432
 3281POPC   C2B43700   7.498  30.369   6.817
 3281POPC   C3B43701   7.267  30.410   7.200
 3281POPC   C4B43702   6.875  30.355   7.466
 3282POPC   NC343703  13.711  10.412   5.133
 3282POPC   PO443704  13.863  10.922   5.560
 3282POPC   GL143705  13.668  10.587   5.830
 3282POPC   GL243706  13.769  10.259   5.692
 3282POPC   C1A43707  13.403  10.591   6.227
 3282POPC   D2A43708  13.269  10.602   6.635
 3282POPC   C3A43709  13.333  10.331   6.927
 3282POPC   C4A43710  13.412  10.487   7.300
 3282POPC   C1B43711  13.632  10.142   6.123
 3282POPC   C2B43712  13.681  10.286   6.559
 3282POPC   C3B43713  13.839  10.288   7.007
 3282POPC   C4B43714  14.062  10.044   7.322
 3283POPC   NC343715   2.774  12.965   5.474
 3283POPC   PO443716   2.912  12.258   5.393
 3283POPC   GL143717   2.812  12.474   5.788
 3283POPC   GL243718   2.465  12.549   5.907
 3283POPC   C1A43719   2.890  12.721   6.152
 3283POPC   D2A43720   2.864  12.984   6.519
 3283POPC   C3A43721   2.787  12.777   6.905
 3283POPC   C4A43722   2.716  12.960   7.305
 3283POPC   C1B43723   2.375  12.904   6.203
 3283POPC   C2B43724   2.345  13.022   6.649
 3283POPC   C3B43725   2.298  12.730   7.010
 3283POPC   C4B43726   2.384  12.614   7.423
 3284POPC   NC343727   2.128   8.682   4.916
 3284POPC   PO443728   1.903   8.383   5.369
 3284POPC   GL143729   1.971   8.298   5.842
 3284POPC   GL243730   2.099   7.954   5.867
 3284POPC   C1A43731   1.868   8.510   6.263
 3284POPC   D2A43732   1.766   8.664   6.705
 3284POPC   C3A43733   1.507   8.452   7.027
 3284POPC   C4A43734   1.465   8.483   7.506
 3284POPC   C1B43735   2.001   8.009   6.307
 3284POPC   C2B43736   2.100   8.250   6.650
 3284POPC   C3B43737   2.030   8.351   7.044
 3284POPC   C4B43738   1.783   8.131   7.305
 3285POPC   NC343739  38.788  21.447   5.475
 3285POPC   PO443740  38.149  21.455   5.457
 3285POPC   GL143741  38.390  21.469   5.839
 3285POPC   GL243742  38.543  21.773   5.787
 3285POPC   C1A43743  38.507  21.322   6.272
 3285POPC   D2A43744  38.633  21.270   6.722
 3285POPC   C3A43745  38.344  21.261   7.086
 3285POPC   C4A43746  38.283  21.713   7.248
 3285POPC   C1B43747  38.557  21.844   6.209
 3285POPC   C2B43748  38.810  21.737   6.542
 3285POPC   C3B43749  38.971  21.592   6.913
 3285POPC   C4B43750  38.757  21.496   7.243
 3286POPC   NC343751  34.896  41.311   5.420
 3286POPC   PO443752  34.271  41.610   5.448
 3286POPC   GL143753  34.556  41.679   5.785
 3286POPC   GL243754  34.837  41.776   5.641
 3286POPC   C1A43755  34.616  41.480   6.204
 3286POPC   D2A43756  34.506  41.353   6.614
 3286POPC   C3A43757  34.631  41.493   6.986
 3286POPC   C4A43758  34.336  41.708   7.223
 3286POPC   C1B43759  34.934  41.864   6.105
 3286POPC   C2B43760  34.724  41.893   6.551
 3286POPC   C3B43761  34.934  41.883   6.991
 3286POPC   C4B43762  34.770  41.924   7.436
 3287POPC   NC343763   5.468  37.903   5.513
 3287POPC   PO443764   4.799  37.901   5.369
 3287POPC   GL143765   4.984  37.533   5.626
 3287POPC   GL243766   4.711  37.475   5.835
 3287POPC   C1A43767   5.136  37.377   6.095
 3287POPC   D2A43768   5.219  37.475   6.576
 3287POPC   C3A43769   5.406  37.870   6.789
 3287POPC   C4A43770   5.453  37.903   7.230
 3287POPC   C1B43771   4.879  37.836   6.059
 3287POPC   C2B43772   4.985  37.931   6.497
 3287POPC   C3B43773   4.933  37.797   6.961
 3287POPC   C4B43774   5.033  37.394   7.182
 3288POPC   NC343775  43.908   6.368   5.520
 3288POPC   PO443776  44.181   7.030   5.297
 3288POPC   GL143777  44.007   6.858   5.721
 3288POPC   GL243778  43.645   6.913   5.770
 3288POPC   C1A43779  43.901   6.716   6.172
 3288POPC   D2A43780  43.854   6.885   6.623
 3288POPC   C3A43781  43.889   6.553   6.930
 3288POPC   C4A43782  44.204   6.351   7.166
 3288POPC   C1B43783  43.486   7.026   6.201
 3288POPC   C2B43784  43.363   6.895   6.638
 3288POPC   C3B43785  43.484   6.869   7.059
 3288POPC   C4B43786  43.509   6.576   7.417
 3289POPC   NC343787  12.475  34.494   5.510
 3289POPC   PO443788  12.820  35.047   5.520
 3289POPC   GL143789  12.594  34.895   5.875
 3289POPC   GL243790  12.285  35.036   5.991
 3289POPC   C1A43791  12.719  34.769   6.315
 3289POPC   D2A43792  12.665  34.932   6.734
 3289POPC   C3A43793  12.957  34.811   7.085
 3289POPC   C4A43794  13.220  34.490   7.306
 3289POPC   C1B43795  12.269  34.609   6.166
 3289POPC   C2B43796  12.367  34.332   6.525
 3289POPC   C3B43797  12.446  34.500   6.921
 3289POPC   C4B43798  12.725  34.363   7.235
 3290POPC   NC343799   3.955  41.979   5.173
 3290POPC   PO443800   3.399  41.674   5.484
 3290POPC   GL143801   3.397  41.530   5.895
 3290POPC   GL243802   3.406  41.863   5.970
 3290POPC   C1A43803   3.338  41.555   6.355
 3290POPC   D2A43804   3.588  41.543   6.707
 3290POPC   C3A43805   3.399  41.442   7.091
 3290POPC   C4A43806   3.762  41.444   7.312
 3290POPC   C1B43807   3.762  41.842   6.295
 3290POPC   C2B43808   3.769  42.055   6.685
 3290POPC   C3B43809   3.602  41.898   7.082
 3290POPC   C4B43810   3.846  41.932   7.469
 3291POPC   NC343811   9.134  23.558   5.441
 3291POPC   PO443812   8.496  23.836   5.299
 3291POPC   GL143813   8.745  23.730   5.708
 3291POPC   GL243814   8.987  23.987   5.803
 3291POPC   C1A43815   8.951  23.531   6.092
 3291POPC   D2A43816   9.023  23.541   6.539
 3291POPC   C3A43817   8.765  23.370   6.864
 3291POPC   C4A43818   8.703  23.440   7.267
 3291POPC   C1B43819   9.201  23.972   6.207
 3291POPC   C2B43820   9.375  23.907   6.624
 3291POPC   C3B43821   9.044  23.912   6.930
 3291POPC   C4B43822   9.007  23.825   7.357
 3292POPC   NC343823  31.732  24.351   5.470
 3292POPC   PO443824  31.334  24.797   5.212
 3292POPC   GL143825  31.465  24.772   5.673
 3292POPC   GL243826  31.765  24.651   5.923
 3292POPC   C1A43827  31.300  24.722   6.095
 3292POPC   D2A43828  31.544  24.623   6.487
 3292POPC   C3A43829  31.445  24.451   6.890
 3292POPC   C4A43830  31.652  24.612   7.271
 3292POPC   C1B43831  31.901  24.340   6.260
 3292POPC   C2B43832  31.953  24.133   6.693
 3292POPC   C3B43833  31.799  24.140   7.130
 3292POPC   C4B43834  31.850  24.228   7.595
 3293POPC   NC343835  29.592  26.727   5.578
 3293POPC   PO443836  30.015  27.210   5.190
 3293POPC   GL143837  29.992  27.083   5.665
 3293POPC   GL243838  30.046  26.762   5.842
 3293POPC   C1A43839  30.140  27.205   6.080
 3293POPC   D2A43840  29.948  27.097   6.453
 3293POPC   C3A43841  30.127  27.075   6.847
 3293POPC   C4A43842  29.850  26.980   7.170
 3293POPC   C1B43843  29.864  26.626   6.226
 3293POPC   C2B43844  30.071  26.618   6.629
 3293POPC   C3B43845  30.181  26.563   7.066
 3293POPC   C4B43846  29.914  26.501   7.431
 3294POPC   NC343847   5.431   0.553   4.931
 3294POPC   PO443848   5.928   0.446   5.356
 3294POPC   GL143849   5.740   0.235   5.694
 3294POPC   GL243850   6.024   0.332   5.883
 3294POPC   C1A43851   5.587   0.134   6.109
 3294POPC   D2A43852   5.622   0.244   6.538
 3294POPC   C3A43853   5.388   0.536   6.778
 3294POPC   C4A43854   5.417   0.289   7.174
 3294POPC   C1B43855   6.085   0.650   6.203
 3294POPC   C2B43856   5.985   0.604   6.608
 3294POPC   C3B43857   5.849   0.448   6.975
 3294POPC   C4B43858   5.946   0.568   7.390
 3295POPC   NC343859  40.277  23.961   5.458
 3295POPC   PO443860  39.802  23.481   5.517
 3295POPC   GL143861  39.917  23.778   5.788
 3295POPC   GL243862  40.245  23.620   5.840
 3295POPC   C1A43863  39.908  23.782   6.206
 3295POPC   D2A43864  40.046  23.558   6.533
 3295POPC   C3A43865  39.803  23.591   6.883
 3295POPC   C4A43866  39.840  23.826   7.205
 3295POPC   C1B43867  40.380  23.966   6.133
 3295POPC   C2B43868  40.389  23.938   6.586
 3295POPC   C3B43869  40.331  23.717   6.966
 3295POPC   C4B43870  40.334  23.963   7.313
 3296POPC   NC343871  38.725  43.905   5.315
 3296POPC   PO443872  38.115  44.281   5.422
 3296POPC   GL143873  38.204  44.169   5.832
 3296POPC   GL243874  38.519  44.036   5.801
 3296POPC   C1A43875  38.177  43.796   6.147
 3296POPC   D2A43876  38.123  43.599   6.567
 3296POPC   C3A43877  38.388  43.707   6.920
 3296POPC   C4A43878  38.385  44.101   7.177
 3296POPC   C1B43879  38.705  43.770   6.170
 3296POPC   C2B43880  38.873  43.754   6.599
 3296POPC   C3B43881  38.871  43.892   7.030
 3296POPC   C4B43882  38.910  43.841   7.472
 3297POPC   NC343883  43.445  15.670   5.490
 3297POPC   PO443884  43.203  15.114   5.139
 3297POPC   GL143885  43.114  15.002   5.605
 3297POPC   GL243886  43.368  15.207   5.733
 3297POPC   C1A43887  43.050  15.028   6.103
 3297POPC   D2A43888  43.193  15.215   6.537
 3297POPC   C3A43889  42.998  15.112   6.923
 3297POPC   C4A43890  43.125  14.861   7.247
 3297POPC   C1B43891  43.522  15.283   6.156
 3297POPC   C2B43892  43.629  15.534   6.548
 3297POPC   C3B43893  43.436  15.669   6.954
 3297POPC   C4B43894  43.099  15.522   7.251
 3298POPC   NC343895  39.775  43.661   5.428
 3298POPC   PO443896  40.130  44.279   5.379
 3298POPC   GL143897  40.010  44.005   5.758
 3298POPC   GL243898  39.642  43.916   5.851
 3298POPC   C1A43899  40.002  43.874   6.215
 3298POPC   D2A43900  40.060  43.882   6.674
 3298POPC   C3A43901  39.760  44.001   7.020
 3298POPC   C4A43902  40.107  44.019   7.319
 3298POPC   C1B43903  39.628  43.527   6.133
 3298POPC   C2B43904  39.719  43.344   6.571
 3298POPC   C3B43905  39.813  43.491   7.009
 3298POPC   C4B43906  39.784  43.663   7.451
 3299POPC   NC343907  24.650  44.772   5.238
 3299POPC   PO443908  24.065  44.847   5.562
 3299POPC   GL143909  24.386  44.611   5.776
 3299POPC   GL243910  24.758  44.676   5.720
 3299POPC   C1A43911  24.379  44.485   6.179
 3299POPC   D2A43912  24.469  44.258   6.561
 3299POPC   C3A43913  24.458  44.562   6.877
 3299POPC   C4A43914  24.293  44.675   7.260
 3299POPC   C1B43915  24.870  44.416   6.058
 3299POPC   C2B43916  24.849  44.571   6.481
 3299POPC   C3B43917  24.861  44.922   6.767
 3299POPC   C4B43918  24.770  44.893   7.214
 3300POPC   NC343919  38.563   8.785   5.404
 3300POPC   PO443920  38.434   8.118   5.347
 3300POPC   GL143921  38.445   8.321   5.756
 3300POPC   GL243922  38.274   8.631   5.790
 3300POPC   C1A43923  38.594   8.172   6.179
 3300POPC   D2A43924  38.755   8.031   6.591
 3300POPC   C3A43925  38.514   8.031   6.969
 3300POPC   C4A43926  38.637   8.191   7.342
 3300POPC   C1B43927  38.440   8.647   6.207
 3300POPC   C2B43928  38.376   8.412   6.612
 3300POPC   C3B43929  38.385   8.538   7.046
 3300POPC   C4B43930  38.342   8.580   7.488
 3301POPC   NC343931  44.928  14.522   5.508
 3301POPC   PO443932   0.199  13.970   5.342
 3301POPC   GL143933  44.792  14.056   5.674
 3301POPC   GL243934  44.515  14.362   5.747
 3301POPC   C1A43935  44.825  14.242   6.124
 3301POPC   D2A43936  44.679  14.371   6.529
 3301POPC   C3A43937  44.819  14.316   6.959
 3301POPC   C4A43938  44.722  14.491   7.358
 3301POPC   C1B43939  44.307  14.629   6.104
 3301POPC   C2B43940  44.369  14.772   6.540
 3301POPC   C3B43941  44.306  14.592   6.975
 3301POPC   C4B43942  44.314  14.826   7.372
 3302POPC   NC343943  12.972  10.113   5.439
 3302POPC   PO443944  12.727  10.706   5.623
 3302POPC   GL143945  13.005  10.578   5.919
 3302POPC   GL243946  13.223  10.285   5.849
 3302POPC   C1A43947  12.861  10.573   6.342
 3302POPC   D2A43948  12.846  10.884   6.678
 3302POPC   C3A43949  12.954  10.654   7.045
 3302POPC   C4A43950  12.670  10.667   7.352
 3302POPC   C1B43951  12.826  10.119   6.088
 3302POPC   C2B43952  12.712  10.093   6.531
 3302POPC   C3B43953  12.771  10.182   6.966
 3302POPC   C4B43954  12.593  10.176   7.397
 3303POPC   NC343955  10.263  38.349   5.398
 3303POPC   PO443956  10.742  38.842   5.448
 3303POPC   GL143957  10.669  38.552   5.826
 3303POPC   GL243958  10.444  38.250   5.869
 3303POPC   C1A43959  10.609  38.561   6.303
 3303POPC   D2A43960  10.694  38.717   6.741
 3303POPC   C3A43961  10.793  38.624   7.189
 3303POPC   C4A43962  10.786  38.380   7.575
 3303POPC   C1B43963  10.482  38.059   6.275
 3303POPC   C2B43964  10.447  38.249   6.693
 3303POPC   C3B43965  10.539  38.191   7.117
 3303POPC   C4B43966  10.301  38.161   7.467
 3304POPC   NC343967   4.269  37.302   5.676
 3304POPC   PO443968   4.075  36.617   5.550
 3304POPC   GL143969   4.268  36.656   5.939
 3304POPC   GL243970   4.451  36.951   5.989
 3304POPC   C1A43971   4.096  36.843   6.328
 3304POPC   D2A43972   4.270  37.057   6.694
 3304POPC   C3A43973   4.125  36.862   7.059
 3304POPC   C4A43974   4.254  36.722   7.448
 3304POPC   C1B43975   4.548  37.295   6.284
 3304POPC   C2B43976   4.690  37.481   6.645
 3304POPC   C3B43977   4.553  37.424   7.058
 3304POPC   C4B43978   4.373  37.214   7.412
 3305POPC   NC343979  34.342  40.249   5.402
 3305POPC   PO443980  34.661  40.906   5.438
 3305POPC   GL143981  34.674  40.645   5.793
 3305POPC   GL243982  34.364  40.558   5.846
 3305POPC   C1A43983  34.890  40.731   6.170
 3305POPC   D2A43984  34.881  41.054   6.479
 3305POPC   C3A43985  34.665  40.902   6.845
 3305POPC   C4A43986  34.744  40.510   7.104
 3305POPC   C1B43987  34.385  40.928   6.153
 3305POPC   C2B43988  34.191  40.935   6.568
 3305POPC   C3B43989  34.196  40.685   6.944
 3305POPC   C4B43990  34.353  40.744   7.342
 3306POPC   NC343991  18.648   5.216   5.363
 3306POPC   PO443992  18.030   5.328   5.350
 3306POPC   GL143993  18.230   5.138   5.697
 3306POPC   GL243994  17.948   5.135   5.919
 3306POPC   C1A43995  18.520   5.044   6.059
 3306POPC   D2A43996  18.786   4.976   6.459
 3306POPC   C3A43997  18.615   5.077   6.888
 3306POPC   C4A43998  18.653   5.396   7.187
 3306POPC   C1B43999  18.072   4.874   6.274
 3306POPC   C2B44000  18.176   4.891   6.704
 3306POPC   C3B44001  18.119   5.076   7.136
 3306POPC   C4B44002  17.910   4.951   7.545
 3307POPC   NC344003   7.092  38.439   5.511
 3307POPC   PO444004   7.736  38.155   5.333
 3307POPC   GL144005   7.675  38.429   5.696
 3307POPC   GL244006   7.408  38.674   5.826
 3307POPC   C1A44007   7.671  38.407   6.159
 3307POPC   D2A44008   7.698  38.632   6.566
 3307POPC   C3A44009   7.407  38.482   6.884
 3307POPC   C4A44010   7.343  38.367   7.304
 3307POPC   C1B44011   7.155  38.464   6.184
 3307POPC   C2B44012   6.977  38.395   6.609
 3307POPC   C3B44013   6.895  38.334   7.059
 3307POPC   C4B44014   6.871  38.398   7.521
 3308POPC   NC344015   4.074  19.272   5.400
 3308POPC   PO444016   4.700  19.590   5.609
 3308POPC   GL144017   4.546  19.237   5.878
 3308POPC   GL244018   4.190  19.099   5.862
 3308POPC   C1A44019   4.397  19.182   6.311
 3308POPC   D2A44020   4.094  19.133   6.642
 3308POPC   C3A44021   4.429  19.076   6.922
 3308POPC   C4A44022   4.510  19.306   7.243
 3308POPC   C1B44023   3.997  18.838   6.198
 3308POPC   C2B44024   4.091  18.606   6.601
 3308POPC   C3B44025   4.090  18.708   7.035
 3308POPC   C4B44026   4.020  19.105   7.202
 3309POPC   NC344027  18.863  34.344   5.332
 3309POPC   PO444028  19.521  34.286   5.213
 3309POPC   GL144029  19.267  34.590   5.563
 3309POPC   GL244030  19.069  34.375   5.794
 3309POPC   C1A44031  19.166  34.804   6.017
 3309POPC   D2A44032  18.907  34.885   6.370
 3309POPC   C3A44033  19.001  34.892   6.844
 3309POPC   C4A44034  18.891  34.827   7.275
 3309POPC   C1B44035  19.224  34.253   6.229
 3309POPC   C2B44036  19.086  34.464   6.591
 3309POPC   C3B44037  18.897  34.410   6.967
 3309POPC   C4B44038  18.984  34.317   7.353
 3310POPC   NC344039  27.799  27.199   5.448
 3310POPC   PO444040  27.629  27.920   5.430
 3310POPC   GL144041  27.834  27.787   5.832
 3310POPC   GL244042  27.910  27.413   5.889
 3310POPC   C1A44043  27.504  27.619   6.101
 3310POPC   D2A44044  27.306  27.506   6.493
 3310POPC   C3A44045  27.424  27.558   6.917
 3310POPC   C4A44046  27.269  27.524   7.334
 3310POPC   C1B44047  27.824  27.317   6.340
 3310POPC   C2B44048  27.916  27.476   6.742
 3310POPC   C3B44049  27.863  27.547   7.171
 3310POPC   C4B44050  27.735  27.448   7.533
 3311POPC   NC344051  28.040   6.915   5.541
 3311POPC   PO444052  28.615   6.643   5.358
 3311POPC   GL144053  28.474   6.686   5.777
 3311POPC   GL244054  28.127   6.575   5.906
 3311POPC   C1A44055  28.681   6.718   6.186
 3311POPC   D2A44056  28.715   6.484   6.577
 3311POPC   C3A44057  28.662   6.746   6.935
 3311POPC   C4A44058  28.452   6.798   7.326
 3311POPC   C1B44059  28.230   6.950   6.185
 3311POPC   C2B44060  28.358   7.042   6.620
 3311POPC   C3B44061  28.124   6.919   6.960
 3311POPC   C4B44062  27.971   6.973   7.363
 3312POPC   NC344063  26.414   9.456   5.424
 3312POPC   PO444064  26.976   9.874   5.115
 3312POPC   GL144065  26.731   9.859   5.562
 3312POPC   GL244066  26.994   9.754   5.772
 3312POPC   C1A44067  26.589   9.856   6.056
 3312POPC   D2A44068  26.556  10.060   6.484
 3312POPC   C3A44069  26.720   9.928   6.921
 3312POPC   C4A44070  26.594  10.158   7.282
 3312POPC   C1B44071  27.217   9.733   6.171
 3312POPC   C2B44072  27.067   9.795   6.570
 3312POPC   C3B44073  27.230   9.852   6.974
 3312POPC   C4B44074  27.055   9.770   7.370
 3313POPC   NC344075  25.052  27.109   5.218
 3313POPC   PO444076  25.313  26.484   5.346
 3313POPC   GL144077  25.396  26.557   5.801
 3313POPC   GL244078  25.130  26.806   5.855
 3313POPC   C1A44079  25.434  26.741   6.255
 3313POPC   D2A44080  25.552  26.655   6.669
 3313POPC   C3A44081  25.644  26.891   7.003
 3313POPC   C4A44082  25.470  27.024   7.395
 3313POPC   C1B44083  24.944  26.868   6.290
 3313POPC   C2B44084  25.053  26.820   6.714
 3313POPC   C3B44085  25.159  26.713   7.113
 3313POPC   C4B44086  24.998  26.887   7.491
 3314POPC   NC344087  12.443  23.604   5.499
 3314POPC   PO444088  13.026  23.543   5.369
 3314POPC   GL144089  12.892  23.620   5.783
 3314POPC   GL244090  12.695  23.316   5.843
 3314POPC   C1A44091  12.688  23.865   6.120
 3314POPC   D2A44092  12.671  23.803   6.576
 3314POPC   C3A44093  12.789  23.997   6.962
 3314POPC   C4A44094  13.167  23.881   7.161
 3314POPC   C1B44095  12.674  23.217   6.267
 3314POPC   C2B44096  12.600  23.317   6.702
 3314POPC   C3B44097  12.781  23.465   7.045
 3314POPC   C4B44098  12.493  23.374   7.383
 3315POPC   NC344099  30.995  37.008   5.250
 3315POPC   PO444100  31.627  36.858   5.287
 3315POPC   GL144101  31.560  36.941   5.708
 3315POPC   GL244102  31.238  37.093   5.693
 3315POPC   C1A44103  31.688  37.023   6.151
 3315POPC   D2A44104  31.646  37.253   6.538
 3315POPC   C3A44105  31.672  36.971   6.876
 3315POPC   C4A44106  31.688  36.711   7.249
 3315POPC   C1B44107  31.214  36.774   6.026
 3315POPC   C2B44108  31.130  36.679   6.466
 3315POPC   C3B44109  31.161  36.881   6.851
 3315POPC   C4B44110  31.290  37.021   7.223
 3316POPC   NC344111  35.258  12.302   5.483
 3316POPC   PO444112  35.736  11.851   5.476
 3316POPC   GL144113  35.571  12.006   5.852
 3316POPC   GL244114  35.568  12.355   5.900
 3316POPC   C1A44115  35.638  11.988   6.304
 3316POPC   D2A44116  35.379  11.992   6.654
 3316POPC   C3A44117  35.437  12.055   7.081
 3316POPC   C4A44118  35.263  11.920   7.442
 3316POPC   C1B44119  35.209  12.237   6.151
 3316POPC   C2B44120  35.111  12.401   6.519
 3316POPC   C3B44121  35.211  12.477   6.892
 3316POPC   C4B44122  35.124  12.395   7.295
 3317POPC   NC344123  44.778  12.180   5.021
 3317POPC   PO444124  44.288  12.179   5.471
 3317POPC   GL144125  44.568  11.990   5.783
 3317POPC   GL244126  44.309  11.735   5.878
 3317POPC   C1A44127  44.645  12.193   6.230
 3317POPC   D2A44128  44.622  12.494   6.617
 3317POPC   C3A44129  44.588  12.345   7.027
 3317POPC   C4A44130   0.009  12.332   7.147
 3317POPC   C1B44131  44.214  11.897   6.316
 3317POPC   C2B44132  44.497  11.968   6.677
 3317POPC   C3B44133  44.848  11.781   6.887
 3317POPC   C4B44134   0.012  11.805   7.297
 3318POPC   NC344135  41.365  43.944   5.382
 3318POPC   PO444136  41.849  43.500   5.285
 3318POPC   GL144137  41.808  43.736   5.690
 3318POPC   GL244138  41.886  44.055   5.848
 3318POPC   C1A44139  41.592  43.690   6.091
 3318POPC   D2A44140  41.472  43.463   6.475
 3318POPC   C3A44141  41.421  43.696   6.852
 3318POPC   C4A44142  41.603  43.865   7.222
 3318POPC   C1B44143  41.642  44.211   6.181
 3318POPC   C2B44144  41.485  44.100   6.558
 3318POPC   C3B44145  41.486  44.252   6.942
 3318POPC   C4B44146  41.256  44.359   7.292
 3319POPC   NC344147  42.077   4.699   5.443
 3319POPC   PO444148  42.519   5.070   5.606
 3319POPC   GL144149  42.593   4.895   5.960
 3319POPC   GL244150  42.320   4.675   5.899
 3319POPC   C1A44151  42.592   5.201   6.297
 3319POPC   D2A44152  42.676   5.485   6.650
 3319POPC   C3A44153  42.578   5.293   7.040
 3319POPC   C4A44154  42.441   5.373   7.432
 3319POPC   C1B44155  42.135   4.865   6.261
 3319POPC   C2B44156  42.238   5.091   6.642
 3319POPC   C3B44157  42.358   4.841   6.934
 3319POPC   C4B44158  42.113   4.638   7.206
 3320POPC   NC344159  39.413   9.421   5.392
 3320POPC   PO444160  39.023   8.913   5.344
 3320POPC   GL144161  39.282   8.913   5.764
 3320POPC   GL244162  39.465   9.233   5.885
 3320POPC   C1A44163  39.358   8.827   6.228
 3320POPC   D2A44164  39.604   8.683   6.596
 3320POPC   C3A44165  39.360   8.693   6.993
 3320POPC   C4A44166  39.418   8.831   7.432
 3320POPC   C1B44167  39.233   9.328   6.275
 3320POPC   C2B44168  39.320   9.402   6.723
 3320POPC   C3B44169  39.293   9.203   7.106
 3320POPC   C4B44170  39.240   9.352   7.521
 3321POPC   NC344171  31.120   9.762   5.375
 3321POPC   PO444172  30.536   9.810   5.139
 3321POPC   GL144173  30.669   9.726   5.634
 3321POPC   GL244174  30.945   9.478   5.752
 3321POPC   C1A44175  30.736   9.785   6.131
 3321POPC   D2A44176  30.567   9.605   6.540
 3321POPC   C3A44177  30.691   9.784   6.903
 3321POPC   C4A44178  30.600   9.905   7.314
 3321POPC   C1B44179  31.051   9.338   6.154
 3321POPC   C2B44180  30.879   9.203   6.514
 3321POPC   C3B44181  31.002   9.283   6.920
 3321POPC   C4B44182  30.969   9.543   7.252
 3322POPC   NC344183  12.210  37.828   5.509
 3322POPC   PO444184  11.562  37.630   5.254
 3322POPC   GL144185  11.725  37.711   5.678
 3322POPC   GL244186  11.830  38.042   5.795
 3322POPC   C1A44187  11.757  37.647   6.145
 3322POPC   D2A44188  12.045  37.589   6.525
 3322POPC   C3A44189  11.930  37.675   6.984
 3322POPC   C4A44190  12.073  37.332   7.280
 3322POPC   C1B44191  12.141  38.103   6.141
 3322POPC   C2B44192  12.304  38.039   6.564
 3322POPC   C3B44193  12.223  38.113   7.004
 3322POPC   C4B44194  12.350  37.767   7.293
 3323POPC   NC344195   9.378   3.722   5.378
 3323POPC   PO444196   9.910   3.281   5.288
 3323POPC   GL144197   9.899   3.465   5.693
 3323POPC   GL244198   9.573   3.399   5.804
 3323POPC   C1A44199   9.934   3.567   6.131
 3323POPC   D2A44200  10.007   3.459   6.559
 3323POPC   C3A44201   9.753   3.580   6.894
 3323POPC   C4A44202   9.903   3.590   7.342
 3323POPC   C1B44203   9.312   3.144   6.109
 3323POPC   C2B44204   9.206   3.096   6.545
 3323POPC   C3B44205   9.353   3.085   6.985
 3323POPC   C4B44206   9.459   3.353   7.342
 3324POPC   NC344207   4.548  37.539   5.250
 3324POPC   PO444208   4.103  37.955   5.560
 3324POPC   GL144209   4.252  37.761   5.897
 3324POPC   GL244210   3.925  37.615   5.913
 3324POPC   C1A44211   4.432  37.846   6.307
 3324POPC   D2A44212   4.548  38.129   6.627
 3324POPC   C3A44213   4.424  37.932   6.986
 3324POPC   C4A44214   4.299  37.746   7.355
 3324POPC   C1B44215   4.065  37.497   6.303
 3324POPC   C2B44216   4.183  37.548   6.706
 3324POPC   C3B44217   4.044  37.395   7.070
 3324POPC   C4B44218   3.901  37.489   7.510
 3325POPC   NC344219   9.360  12.837   5.218
 3325POPC   PO444220   8.754  12.820   5.255
 3325POPC   GL144221   8.897  12.548   5.637
 3325POPC   GL244222   8.661  12.731   5.881
 3325POPC   C1A44223   9.054  12.512   6.089
 3325POPC   D2A44224   8.787  12.567   6.468
 3325POPC   C3A44225   9.023  12.619   6.844
 3325POPC   C4A44226   9.168  12.796   7.234
 3325POPC   C1B44227   8.620  13.018   6.261
 3325POPC   C2B44228   8.711  13.028   6.728
 3325POPC   C3B44229   8.660  12.941   7.181
 3325POPC   C4B44230   8.410  13.111   7.534
 3326POPC   NC344231  21.739   7.781   5.514
 3326POPC   PO444232  21.360   8.354   5.494
 3326POPC   GL144233  21.345   8.067   5.837
 3326POPC   GL244234  21.415   8.320   6.014
 3326POPC   C1A44235  21.382   7.920   6.303
 3326POPC   D2A44236  21.550   8.144   6.659
 3326POPC   C3A44237  21.515   7.969   7.062
 3326POPC   C4A44238  21.128   7.866   7.253
 3326POPC   C1B44239  21.705   8.449   6.282
 3326POPC   C2B44240  21.646   8.664   6.689
 3326POPC   C3B44241  21.508   8.550   7.114
 3326POPC   C4B44242  21.537   8.733   7.537
 3327POPC   NC344243  16.727  29.673   5.439
 3327POPC   PO444244  17.001  30.277   5.275
 3327POPC   GL144245  16.767  30.149   5.653
 3327POPC   GL244246  17.021  30.263   5.824
 3327POPC   C1A44247  16.510  30.140   6.058
 3327POPC   D2A44248  16.475  29.910   6.471
 3327POPC   C3A44249  16.399  30.064   6.893
 3327POPC   C4A44250  16.321  30.081   7.347
 3327POPC   C1B44251  16.951  29.945   6.158
 3327POPC   C2B44252  16.973  29.934   6.626
 3327POPC   C3B44253  16.910  30.165   7.017
 3327POPC   C4B44254  16.969  30.454   7.373
 3328POPC   NC344255  29.500  30.166   5.467
 3328POPC   PO444256  28.797  30.126   5.400
 3328POPC   GL144257  29.006  30.148   5.782
 3328POPC   GL244258  29.202  29.885   5.767
 3328POPC   C1A44259  28.872  30.024   6.193
 3328POPC   D2A44260  28.695  29.701   6.486
 3328POPC   C3A44261  28.919  29.787   6.868
 3328POPC   C4A44262  29.063  30.030   7.233
 3328POPC   C1B44263  29.364  30.020   6.174
 3328POPC   C2B44264  29.496  29.754   6.528
 3328POPC   C3B44265  29.472  29.877   6.969
 3328POPC   C4B44266  29.495  29.787   7.441
 3329POPC   NC344267  40.354  23.235   5.368
 3329POPC   PO444268  39.887  22.741   5.463
 3329POPC   GL144269  40.178  22.985   5.777
 3329POPC   GL244270  40.232  22.701   5.910
 3329POPC   C1A44271  40.190  23.195   6.158
 3329POPC   D2A44272  39.915  23.066   6.477
 3329POPC   C3A44273  40.070  23.163   6.867
 3329POPC   C4A44274  40.008  23.005   7.240
 3329POPC   C1B44275  40.282  22.487   6.253
 3329POPC   C2B44276  40.174  22.615   6.651
 3329POPC   C3B44277  40.084  22.483   7.054
 3329POPC   C4B44278  40.196  22.592   7.481
 3330POPC   NC344279   0.480  23.399   5.076
 3330POPC   PO444280   0.300  22.911   5.466
 3330POPC   GL144281   0.398  23.206   5.818
 3330POPC   GL244282   0.751  23.278   5.929
 3330POPC   C1A44283   0.342  23.057   6.263
 3330POPC   D2A44284   0.348  22.725   6.603
 3330POPC   C3A44285   0.138  22.816   7.012
 3330POPC   C4A44286   0.373  23.000   7.349
 3330POPC   C1B44287   0.850  22.991   6.245
 3330POPC   C2B44288   0.831  22.985   6.700
 3330POPC   C3B44289   0.747  22.778   7.078
 3330POPC   C4B44290   0.796  22.724   7.531
 3331POPC   NC344291  28.521  36.613   5.587
 3331POPC   PO444292  27.948  36.286   5.256
 3331POPC   GL144293  28.175  36.160   5.679
 3331POPC   GL244294  28.396  36.294   5.933
 3331POPC   C1A44295  28.127  35.920   6.102
 3331POPC   D2A44296  28.346  36.035   6.463
 3331POPC   C3A44297  28.219  35.962   6.856
 3331POPC   C4A44298  28.401  35.870   7.228
 3331POPC   C1B44299  28.513  36.465   6.277
 3331POPC   C2B44300  28.390  36.494   6.672
 3331POPC   C3B44301  28.696  36.248   6.855
 3331POPC   C4B44302  28.847  36.577   7.152
 3332POPC   NC344303  20.098   5.954   5.394
 3332POPC   PO444304  19.722   5.484   5.254
 3332POPC   GL144305  19.989   5.502   5.645
 3332POPC   GL244306  19.754   5.410   5.852
 3332POPC   C1A44307  20.134   5.642   6.072
 3332POPC   D2A44308  20.020   5.845   6.469
 3332POPC   C3A44309  20.066   5.685   6.902
 3332POPC   C4A44310  19.846   5.495   7.238
 3332POPC   C1B44311  19.609   5.645   6.191
 3332POPC   C2B44312  19.515   5.789   6.594
 3332POPC   C3B44313  19.424   5.609   6.971
 3332POPC   C4B44314  19.075   5.691   7.143
 3333POPC   NC344315   7.991  25.190   5.282
 3333POPC   PO444316   8.588  24.975   5.457
 3333POPC   GL144317   8.275  25.154   5.715
 3333POPC   GL244318   7.939  24.998   5.772
 3333POPC   C1A44319   8.302  25.262   6.130
 3333POPC   D2A44320   8.353  25.066   6.519
 3333POPC   C3A44321   8.369  25.360   6.840
 3333POPC   C4A44322   8.294  25.457   7.257
 3333POPC   C1B44323   7.907  24.849   6.223
 3333POPC   C2B44324   7.880  24.922   6.685
 3333POPC   C3B44325   8.091  24.992   7.085
 3333POPC   C4B44326   7.969  24.811   7.465
 3334POPC   NC344327   4.849  39.071   5.432
 3334POPC   PO444328   5.315  39.390   5.139
 3334POPC   GL144329   5.250  39.335   5.659
 3334POPC   GL244330   4.966  39.260   5.860
 3334POPC   C1A44331   5.374  39.294   6.131
 3334POPC   D2A44332   5.225  39.442   6.546
 3334POPC   C3A44333   5.363  39.237   6.903
 3334POPC   C4A44334   5.237  39.304   7.300
 3334POPC   C1B44335   4.715  39.092   6.167
 3334POPC   C2B44336   4.719  39.214   6.571
 3334POPC   C3B44337   4.846  39.153   6.968
 3334POPC   C4B44338   4.730  39.341   7.352
 3335POPC   NC344339  14.077  30.085   5.370
 3335POPC   PO444340  14.610  29.642   5.371
 3335POPC   GL144341  14.486  29.870   5.709
 3335POPC   GL244342  14.229  29.677   5.814
 3335POPC   C1A44343  14.485  29.940   6.173
 3335POPC   D2A44344  14.273  29.982   6.571
 3335POPC   C3A44345  14.569  29.929   6.887
 3335POPC   C4A44346  14.665  30.026   7.257
 3335POPC   C1B44347  13.981  29.492   6.166
 3335POPC   C2B44348  14.162  29.498   6.591
 3335POPC   C3B44349  14.130  29.711   6.997
 3335POPC   C4B44350  13.850  29.777   7.300
 3336POPC   NC344351  32.926  36.306   5.567
 3336POPC   PO444352  32.294  36.125   5.422
 3336POPC   GL144353  32.166  36.232   5.818
 3336POPC   GL244354  32.502  36.113   5.900
 3336POPC   C1A44355  32.148  36.214   6.269
 3336POPC   D2A44356  32.187  36.017   6.658
 3336POPC   C3A44357  32.038  36.280   7.009
 3336POPC   C4A44358  32.079  36.217   7.445
 3336POPC   C1B44359  32.567  35.874   6.277
 3336POPC   C2B44360  32.698  35.917   6.703
 3336POPC   C3B44361  32.521  36.073   7.072
 3336POPC   C4B44362  32.463  35.874   7.470
 3337POPC   NC344363   6.071   3.422   5.307
 3337POPC   PO444364   5.724   3.950   5.295
 3337POPC   GL144365   5.720   3.660   5.692
 3337POPC   GL244366   5.744   3.271   5.705
 3337POPC   C1A44367   5.727   3.762   6.162
 3337POPC   D2A44368   5.844   3.551   6.560
 3337POPC   C3A44369   5.641   3.688   6.956
 3337POPC   C4A44370   5.922   3.811   7.288
 3337POPC   C1B44371   5.936   3.207   6.145
 3337POPC   C2B44372   6.095   3.106   6.582
 3337POPC   C3B44373   5.999   3.303   6.988
 3337POPC   C4B44374   6.077   3.312   7.422
 3338POPC   NC344375  35.752  20.352   5.644
 3338POPC   PO444376  36.210  19.971   5.363
 3338POPC   GL144377  36.331  19.891   5.767
 3338POPC   GL244378  36.004  19.945   5.860
 3338POPC   C1A44379  36.425  19.891   6.166
 3338POPC   D2A44380  36.300  19.725   6.553
 3338POPC   C3A44381  36.253  19.917   6.925
 3338POPC   C4A44382  36.162  19.737   7.316
 3338POPC   C1B44383  35.938  20.012   6.289
 3338POPC   C2B44384  35.880  20.226   6.673
 3338POPC   C3B44385  35.829  20.154   7.108
 3338POPC   C4B44386  35.522  19.903   7.282
 3339POPC   NC344387  15.604  13.724   5.441
 3339POPC   PO444388  16.306  13.543   5.229
 3339POPC   GL144389  16.149  13.504   5.659
 3339POPC   GL244390  15.930  13.746   5.826
 3339POPC   C1A44391  16.191  13.406   6.115
 3339POPC   D2A44392  16.144  13.661   6.508
 3339POPC   C3A44393  15.929  13.531   6.878
 3339POPC   C4A44394  16.088  13.655   7.257
 3339POPC   C1B44395  15.724  13.608   6.216
 3339POPC   C2B44396  15.652  13.859   6.601
 3339POPC   C3B44397  15.590  13.895   7.024
 3339POPC   C4B44398  15.577  13.564   7.316
 3340POPC   NC344399  16.181   1.060   5.047
 3340POPC   PO444400  16.081   1.551   5.364
 3340POPC   GL144401  16.050   1.460   5.793
 3340POPC   GL244402  15.753   1.289   5.898
 3340POPC   C1A44403  16.170   1.355   6.226
 3340POPC   D2A44404  16.248   1.054   6.570
 3340POPC   C3A44405  16.031   1.174   6.969
 3340POPC   C4A44406  16.063   1.314   7.379
 3340POPC   C1B44407  15.815   0.977   6.264
 3340POPC   C2B44408  15.755   0.817   6.711
 3340POPC   C3B44409  15.559   0.953   7.111
 3340POPC   C4B44410  15.546   1.289   7.446
 3341POPC   NC344411   6.030  43.423   5.575
 3341POPC   PO444412   5.388  43.298   5.273
 3341POPC   GL144413   5.531  43.125   5.696
 3341POPC   GL244414   5.858  42.966   5.717
 3341POPC   C1A44415   5.524  43.131   6.195
 3341POPC   D2A44416   5.539  43.057   6.685
 3341POPC   C3A44417   5.863  43.249   6.984
 3341POPC   C4A44418   6.271  43.475   7.104
 3341POPC   C1B44419   6.045  42.994   6.132
 3341POPC   C2B44420   6.027  42.914   6.563
 3341POPC   C3B44421   6.293  42.996   6.909
 3341POPC   C4B44422   6.207  43.014   7.342
 3342POPC   NC344423  28.603  26.740   5.427
 3342POPC   PO444424  27.922  26.428   5.512
 3342POPC   GL144425  28.340  26.642   5.848
 3342POPC   GL244426  28.553  27.009   5.845
 3342POPC   C1A44427  28.579  26.744   6.283
 3342POPC   D2A44428  28.559  26.753   6.766
 3342POPC   C3A44429  28.202  26.702   7.080
 3342POPC   C4A44430  28.155  26.677   7.528
 3342POPC   C1B44431  28.228  27.094   6.118
 3342POPC   C2B44432  28.234  27.090   6.563
 3342POPC   C3B44433  28.299  27.203   6.993
 3342POPC   C4B44434  28.140  27.173   7.409
 3343POPC   NC344435  33.251   8.837   5.358
 3343POPC   PO444436  32.799   9.393   5.484
 3343POPC   GL144437  32.928   9.013   5.744
 3343POPC   GL244438  33.270   8.930   5.863
 3343POPC   C1A44439  32.838   8.859   6.161
 3343POPC   D2A44440  32.783   9.046   6.564
 3343POPC   C3A44441  33.001   9.058   6.921
 3343POPC   C4A44442  32.767   8.861   7.203
 3343POPC   C1B44443  33.490   8.968   6.249
 3343POPC   C2B44444  33.233   8.779   6.552
 3343POPC   C3B44445  33.116   8.565   6.937
 3343POPC   C4B44446  33.270   8.798   7.292
 3344POPC   NC344447  38.555  38.658   5.532
 3344POPC   PO444448  38.835  38.107   5.458
 3344POPC   GL144449  38.530  38.273   5.881
 3344POPC   GL244450  38.188  38.506   5.866
 3344POPC   C1A44451  38.251  38.220   6.305
 3344POPC   D2A44452  38.037  38.246   6.737
 3344POPC   C3A44453  38.290  38.302   7.090
 3344POPC   C4A44454  38.767  38.243   7.130
 3344POPC   C1B44455  38.357  38.724   6.240
 3344POPC   C2B44456  38.443  38.900   6.668
 3344POPC   C3B44457  38.492  38.760   7.090
 3344POPC   C4B44458  38.234  38.681   7.476
 3345POPC   NC344459  32.766  22.787   5.357
 3345POPC   PO444460  33.281  23.206   5.401
 3345POPC   GL144461  33.199  23.094   5.820
 3345POPC   GL244462  32.840  23.084   5.789
 3345POPC   C1A44463  33.125  22.953   6.245
 3345POPC   D2A44464  33.126  22.601   6.522
 3345POPC   C3A44465  33.059  22.699   6.937
 3345POPC   C4A44466  33.018  22.730   7.360
 3345POPC   C1B44467  32.641  23.122   6.199
 3345POPC   C2B44468  32.777  23.029   6.636
 3345POPC   C3B44469  32.937  23.172   7.045
 3345POPC   C4B44470  32.656  23.093   7.397
 3346POPC   NC344471   1.723   0.717   5.401
 3346POPC   PO444472   2.306   0.314   5.504
 3346POPC   GL144473   2.022   0.508   5.780
 3346POPC   GL244474   1.993   0.873   5.845
 3346POPC   C1A44475   1.912   0.406   6.178
 3346POPC   D2A44476   1.970   0.515   6.583
 3346POPC   C3A44477   2.004   0.264   6.914
 3346POPC   C4A44478   1.875   0.282   7.334
 3346POPC   C1B44479   1.828   0.970   6.286
 3346POPC   C2B44480   1.613   0.840   6.693
 3346POPC   C3B44481   1.850   0.733   7.100
 3346POPC   C4B44482   1.972   0.773   7.576
 3347POPC   NC344483  33.602  38.496   5.418
 3347POPC   PO444484  34.112  38.108   5.481
 3347POPC   GL144485  34.006  38.213   5.907
 3347POPC   GL244486  33.745  38.474   5.905
 3347POPC   C1A44487  33.982  38.372   6.354
 3347POPC   D2A44488  33.880  38.109   6.690
 3347POPC   C3A44489  33.969  38.246   7.100
 3347POPC   C4A44490  33.882  38.696   7.113
 3347POPC   C1B44491  33.487  38.572   6.267
 3347POPC   C2B44492  33.582  38.557   6.682
 3347POPC   C3B44493  33.486  38.329   7.006
 3347POPC   C4B44494  33.492  38.404   7.420
 3348POPC   NC344495   8.420  44.263   5.425
 3348POPC   PO444496   7.962  44.806   5.297
 3348POPC   GL144497   8.056  44.727   5.695
 3348POPC   GL244498   8.392  44.785   5.630
 3348POPC   C1A44499   7.973  44.569   6.102
 3348POPC   D2A44500   8.125  44.587   6.534
 3348POPC   C3A44501   8.025  44.341   6.913
 3348POPC   C4A44502   8.007  44.244   7.355
 3348POPC   C1B44503   8.455  44.759   6.085
 3348POPC   C2B44504   8.623  44.707   6.514
 3348POPC   C3B44505   8.454  44.669   6.929
 3348POPC   C4B44506   8.298  44.802   7.297
 3349POPC   NC344507  13.229  22.055   5.353
 3349POPC   PO444508  13.817  22.319   5.418
 3349POPC   GL144509  13.822  22.123   5.809
 3349POPC   GL244510  13.518  21.955   5.810
 3349POPC   C1A44511  13.874  22.255   6.256
 3349POPC   D2A44512  13.920  22.068   6.685
 3349POPC   C3A44513  13.984  22.383   7.023
 3349POPC   C4A44514  13.576  22.575   7.165
 3349POPC   C1B44515  13.372  22.110   6.220
 3349POPC   C2B44516  13.396  22.016   6.665
 3349POPC   C3B44517  13.586  22.064   7.095
 3349POPC   C4B44518  13.783  21.838   7.450
 3350POPC   NC344519  36.312  32.733   5.487
 3350POPC   PO444520  36.321  33.358   5.280
 3350POPC   GL144521  36.087  33.208   5.643
 3350POPC   GL244522  36.402  33.111   5.823
 3350POPC   C1A44523  35.952  33.066   6.075
 3350POPC   D2A44524  35.837  33.179   6.510
 3350POPC   C3A44525  35.876  32.921   6.896
 3350POPC   C4A44526  35.858  32.630   7.269
 3350POPC   C1B44527  36.460  33.081   6.264
 3350POPC   C2B44528  36.329  33.193   6.680
 3350POPC   C3B44529  36.373  32.895   6.987
 3350POPC   C4B44530  36.480  32.656   7.313
 3351POPC   NC344531   2.965  36.065   5.384
 3351POPC   PO444532   2.573  36.552   5.342
 3351POPC   GL144533   2.622  36.364   5.697
 3351POPC   GL244534   2.953  36.466   5.775
 3351POPC   C1A44535   2.512  36.188   6.081
 3351POPC   D2A44536   2.430  36.175   6.510
 3351POPC   C3A44537   2.640  35.928   6.795
 3351POPC   C4A44538   3.039  35.957   7.028
 3351POPC   C1B44539   3.012  36.338   6.196
 3351POPC   C2B44540   2.912  36.375   6.631
 3351POPC   C3B44541   2.717  36.388   7.032
 3351POPC   C4B44542   3.006  36.375   7.367
 3352POPC   NC344543   0.163  13.092   5.164
 3352POPC   PO444544   0.168  12.402   5.146
 3352POPC   GL144545   0.278  12.509   5.651
 3352POPC   GL244546   0.404  12.855   5.722
 3352POPC   C1A44547   0.436  12.476   6.121
 3352POPC   D2A44548   0.570  12.656   6.535
 3352POPC   C3A44549   0.441  12.530   6.962
 3352POPC   C4A44550   0.333  12.735   7.381
 3352POPC   C1B44551   0.359  12.984   6.164
 3352POPC   C2B44552   0.558  13.152   6.540
 3352POPC   C3B44553   0.458  13.079   6.958
 3352POPC   C4B44554   0.316  13.255   7.325
 3353POPC   NC344555  34.678  30.950   5.372
 3353POPC   PO444556  34.312  30.473   5.264
 3353POPC   GL144557  34.554  30.499   5.676
 3353POPC   GL244558  34.871  30.704   5.800
 3353POPC   C1A44559  34.501  30.387   6.125
 3353POPC   D2A44560  34.778  30.477   6.465
 3353POPC   C3A44561  34.547  30.661   6.796
 3353POPC   C4A44562  34.671  30.534   7.190
 3353POPC   C1B44563  34.543  30.893   6.091
 3353POPC   C2B44564  34.314  31.063   6.466
 3353POPC   C3B44565  34.477  31.181   6.856
 3353POPC   C4B44566  34.557  31.015   7.254
 3354POPC   NC344567  44.476  40.832   5.677
 3354POPC   PO444568  44.934  40.375   5.567
 3354POPC   GL144569  44.863  40.527   5.966
 3354POPC   GL244570  44.943  40.846   5.856
 3354POPC   C1A44571  44.580  40.692   6.300
 3354POPC   D2A44572  44.572  40.986   6.670
 3354POPC   C3A44573  44.495  40.809   7.085
 3354POPC   C4A44574  44.702  40.567   7.411
 3354POPC   C1B44575  44.832  41.125   6.188
 3354POPC   C2B44576   0.094  41.240   6.498
 3354POPC   C3B44577   0.037  41.118   6.884
 3354POPC   C4B44578  44.728  41.250   7.202
 3355POPC   NC344579   7.707  12.276   5.208
 3355POPC   PO444580   8.458  12.145   5.378
 3355POPC   GL144581   8.219  12.013   5.726
 3355POPC   GL244582   8.000  11.704   5.659
 3355POPC   C1A44583   8.095  12.185   6.136
 3355POPC   D2A44584   7.993  12.384   6.536
 3355POPC   C3A44585   8.126  12.199   6.925
 3355POPC   C4A44586   8.361  12.194   7.312
 3355POPC   C1B44587   8.111  11.676   6.100
 3355POPC   C2B44588   8.067  11.843   6.519
 3355POPC   C3B44589   7.828  11.777   6.873
 3355POPC   C4B44590   8.101  11.738   7.234
 3356POPC   NC344591  35.024  37.230   5.198
 3356POPC   PO444592  35.580  37.545   5.507
 3356POPC   GL144593  35.535  37.775   5.872
 3356POPC   GL244594  35.170  37.813   5.864
 3356POPC   C1A44595  35.563  37.738   6.325
 3356POPC   D2A44596  35.274  37.872   6.672
 3356POPC   C3A44597  35.419  37.926   7.107
 3356POPC   C4A44598  35.745  37.680   7.265
 3356POPC   C1B44599  35.144  37.500   6.233
 3356POPC   C2B44600  34.950  37.441   6.625
 3356POPC   C3B44601  35.098  37.503   7.025
 3356POPC   C4B44602  34.960  37.825   7.277
 3357POPC   NC344603  29.403   3.349   5.497
 3357POPC   PO444604  28.760   3.607   5.408
 3357POPC   GL144605  28.935   3.379   5.728
 3357POPC   GL244606  29.151   3.662   5.824
 3357POPC   C1A44607  29.043   3.270   6.139
 3357POPC   D2A44608  28.895   3.443   6.512
 3357POPC   C3A44609  29.023   3.348   6.909
 3357POPC   C4A44610  29.023   3.525   7.317
 3357POPC   C1B44611  29.150   3.811   6.253
 3357POPC   C2B44612  29.350   3.767   6.663
 3357POPC   C3B44613  29.498   3.506   7.026
 3357POPC   C4B44614  29.488   3.388   7.475
 3358POPC   NC344615  38.304  27.524   5.135
 3358POPC   PO444616  38.470  27.980   5.563
 3358POPC   GL144617  38.464  27.556   5.680
 3358POPC   GL244618  38.808  27.466   5.695
 3358POPC   C1A44619  38.323  27.518   6.119
 3358POPC   D2A44620  38.355  27.849   6.456
 3358POPC   C3A44621  38.374  27.747   6.906
 3358POPC   C4A44622  38.313  27.539   7.347
 3358POPC   C1B44623  38.828  27.583   6.158
 3358POPC   C2B44624  38.683  27.461   6.606
 3358POPC   C3B44625  38.722  27.425   7.094
 3358POPC   C4B44626  38.746  27.267   7.568
 3359POPC   NC344627   5.557  31.231   5.349
 3359POPC   PO444628   5.932  31.791   5.419
 3359POPC   GL144629   5.800  31.492   5.752
 3359POPC   GL244630   6.103  31.345   5.916
 3359POPC   C1A44631   5.680  31.384   6.205
 3359POPC   D2A44632   5.843  31.355   6.668
 3359POPC   C3A44633   5.582  31.429   6.996
 3359POPC   C4A44634   5.441  31.824   7.013
 3359POPC   C1B44635   6.070  31.063   6.299
 3359POPC   C2B44636   6.168  30.978   6.756
 3359POPC   C3B44637   6.094  31.215   7.153
 3359POPC   C4B44638   6.125  31.157   7.609
 3360POPC   NC344639  35.311  29.527   5.309
 3360POPC   PO444640  35.794  30.053   5.309
 3360POPC   GL144641  35.543  30.051   5.711
 3360POPC   GL244642  35.266  29.803   5.738
 3360POPC   C1A44643  35.627  30.141   6.175
 3360POPC   D2A44644  35.697  29.930   6.589
 3360POPC   C3A44645  35.559  30.185   6.969
 3360POPC   C4A44646  35.380  30.163   7.397
 3360POPC   C1B44647  35.298  29.764   6.169
 3360POPC   C2B44648  35.244  29.640   6.576
 3360POPC   C3B44649  35.206  29.814   6.965
 3360POPC   C4B44650  35.006  29.843   7.340
 3361POPC   NC344651  21.184  38.020   5.436
 3361POPC   PO444652  21.514  38.683   5.378
 3361POPC   GL144653  21.469  38.391   5.735
 3361POPC   GL244654  21.627  38.050   5.705
 3361POPC   C1A44655  21.172  38.370   6.109
 3361POPC   D2A44656  20.958  38.334   6.524
 3361POPC   C3A44657  21.207  38.430   6.883
 3361POPC   C4A44658  21.498  38.567   7.162
 3361POPC   C1B44659  21.408  37.921   6.092
 3361POPC   C2B44660  21.401  38.084   6.520
 3361POPC   C3B44661  21.573  38.077   6.935
 3361POPC   C4B44662  21.848  38.208   7.267
 3362POPC   NC344663   0.652  42.367   5.587
 3362POPC   PO444664   0.350  41.823   5.415
 3362POPC   GL144665   0.130  42.088   5.765
 3362POPC   GL244666   0.145  42.458   5.748
 3362POPC   C1A44667   0.293  42.193   6.184
 3362POPC   D2A44668   0.577  42.277   6.536
 3362POPC   C3A44669   0.363  42.101   6.861
 3362POPC   C4A44670   0.276  42.124   7.301
 3362POPC   C1B44671   0.340  42.702   6.116
 3362POPC   C2B44672   0.223  42.680   6.557
 3362POPC   C3B44673   0.250  42.582   6.997
 3362POPC   C4B44674   0.318  42.953   7.219
 3363POPC   NC344675   1.529  30.181   5.281
 3363POPC   PO444676   1.972  29.703   5.347
 3363POPC   GL144677   1.861  29.977   5.681
 3363POPC   GL244678   1.573  29.810   5.807
 3363POPC   C1A44679   1.998  30.034   6.125
 3363POPC   D2A44680   2.174  29.843   6.497
 3363POPC   C3A44681   2.135  30.057   6.893
 3363POPC   C4A44682   1.968  30.096   7.296
 3363POPC   C1B44683   1.645  29.632   6.215
 3363POPC   C2B44684   1.796  29.510   6.614
 3363POPC   C3B44685   1.824  29.639   7.035
 3363POPC   C4B44686   1.502  29.596   7.361
 3364POPC   NC344687  28.447  11.887   5.387
 3364POPC   PO444688  27.994  12.325   5.336
 3364POPC   GL144689  28.282  12.225   5.726
 3364POPC   GL244690  28.185  11.877   5.822
 3364POPC   C1A44691  28.273  12.208   6.223
 3364POPC   D2A44692  28.535  12.210   6.616
 3364POPC   C3A44693  28.361  12.230   7.034
 3364POPC   C4A44694  28.591  12.172   7.417
 3364POPC   C1B44695  28.255  11.704   6.227
 3364POPC   C2B44696  28.120  11.871   6.615
 3364POPC   C3B44697  27.941  11.907   7.008
 3364POPC   C4B44698  28.109  11.977   7.414
 3365POPC   NC344699  43.538  13.204   5.467
 3365POPC   PO444700  44.164  12.814   5.674
 3365POPC   GL144701  44.139  13.038   6.011
 3365POPC   GL244702  43.820  13.119   5.899
 3365POPC   C1A44703  44.190  13.034   6.435
 3365POPC   D2A44704  43.968  12.779   6.667
 3365POPC   C3A44705  43.858  12.820   7.060
 3365POPC   C4A44706  44.049  12.481   7.265
 3365POPC   C1B44707  43.691  12.854   6.247
 3365POPC   C2B44708  43.505  12.940   6.677
 3365POPC   C3B44709  43.329  13.010   7.073
 3365POPC   C4B44710  43.406  13.058   7.525
 3366POPC   NC344711  14.306   6.595   5.305
 3366POPC   PO444712  14.739   6.925   5.545
 3366POPC   GL144713  14.383   6.752   5.815
 3366POPC   GL244714  14.173   6.424   5.774
 3366POPC   C1A44715  14.269   6.709   6.269
 3366POPC   D2A44716  14.224   6.626   6.732
 3366POPC   C3A44717  14.400   6.805   7.141
 3366POPC   C4A44718  14.185   7.023   7.497
 3366POPC   C1B44719  14.557   6.331   6.038
 3366POPC   C2B44720  14.569   6.308   6.506
 3366POPC   C3B44721  14.743   6.286   6.935
 3366POPC   C4B44722  14.588   6.338   7.331
 3367POPC   NC344723  25.597  18.818   5.550
 3367POPC   PO444724  25.550  19.300   5.140
 3367POPC   GL144725  25.315  19.275   5.688
 3367POPC   GL244726  25.207  19.002   5.889
 3367POPC   C1A44727  25.350  19.366   6.196
 3367POPC   D2A44728  25.460  19.463   6.648
 3367POPC   C3A44729  25.687  19.197   6.914
 3367POPC   C4A44730  25.529  18.898   7.183
 3367POPC   C1B44731  24.974  18.845   6.259
 3367POPC   C2B44732  24.960  19.143   6.570
 3367POPC   C3B44733  25.139  19.224   6.953
 3367POPC   C4B44734  24.916  19.371   7.237
 3368POPC   NC344735   6.484   2.161   5.207
 3368POPC   PO444736   6.987   1.788   5.454
 3368POPC   GL144737   6.801   1.870   5.871
 3368POPC   GL244738   6.532   2.083   5.739
 3368POPC   C1A44739   6.774   1.944   6.359
 3368POPC   D2A44740   6.577   2.093   6.761
 3368POPC   C3A44741   6.729   1.929   7.162
 3368POPC   C4A44742   6.889   1.675   7.499
 3368POPC   C1B44743   6.576   2.342   6.125
 3368POPC   C2B44744   6.791   2.508   6.513
 3368POPC   C3B44745   6.656   2.653   6.926
 3368POPC   C4B44746   6.567   2.460   7.329
 3369POPC   NC344747  25.658  34.515   5.434
 3369POPC   PO444748  26.224  34.840   5.487
 3369POPC   GL144749  26.026  34.687   5.830
 3369POPC   GL244750  25.970  34.336   5.825
 3369POPC   C1A44751  26.182  34.563   6.242
 3369POPC   D2A44752  26.197  34.752   6.645
 3369POPC   C3A44753  26.354  34.500   6.997
 3369POPC   C4A44754  26.246  34.752   7.359
 3369POPC   C1B44755  25.789  34.201   6.234
 3369POPC   C2B44756  25.814  34.388   6.664
 3369POPC   C3B44757  25.865  34.494   7.099
 3369POPC   C4B44758  26.119  34.266   7.437
 3370POPC   NC344759  24.089  38.802   5.475
 3370POPC   PO444760  23.494  38.684   5.182
 3370POPC   GL144761  23.626  38.508   5.660
 3370POPC   GL244762  23.844  38.688   5.912
 3370POPC   C1A44763  23.691  38.258   6.121
 3370POPC   D2A44764  23.824  38.303   6.582
 3370POPC   C3A44765  23.783  38.147   7.030
 3370POPC   C4A44766  23.951  38.225   7.465
 3370POPC   C1B44767  23.717  38.753   6.348
 3370POPC   C2B44768  23.810  38.782   6.786
 3370POPC   C3B44769  23.805  38.666   7.234
 3370POPC   C4B44770  23.652  38.851   7.628
 3371POPC   NC344771  19.690   1.425   5.074
 3371POPC   PO444772  19.392   1.078   5.656
 3371POPC   GL144773  19.644   1.267   5.944
 3371POPC   GL244774  19.901   1.034   5.917
 3371POPC   C1A44775  19.721   1.115   6.365
 3371POPC   D2A44776  19.433   0.904   6.628
 3371POPC   C3A44777  19.673   1.060   6.930
 3371POPC   C4A44778  19.857   1.413   7.132
 3371POPC   C1B44779  20.123   1.361   6.123
 3371POPC   C2B44780  20.073   1.442   6.585
 3371POPC   C3B44781  20.199   1.122   6.905
 3371POPC   C4B44782  20.216   0.866   7.306
 3372POPC   NC344783  42.299   8.458   5.678
 3372POPC   PO444784  42.472   8.989   5.350
 3372POPC   GL144785  42.582   8.961   5.757
 3372POPC   GL244786  42.761   8.650   5.847
 3372POPC   C1A44787  42.454   9.244   6.101
 3372POPC   D2A44788  42.369   9.156   6.524
 3372POPC   C3A44789  42.620   8.934   6.805
 3372POPC   C4A44790  42.517   9.010   7.208
 3372POPC   C1B44791  42.592   8.752   6.255
 3372POPC   C2B44792  42.286   8.644   6.555
 3372POPC   C3B44793  42.202   8.653   7.005
 3372POPC   C4B44794  41.954   8.950   7.255
 3373POPC   NC344795  23.439  24.758   5.628
 3373POPC   PO444796  23.966  24.447   5.404
 3373POPC   GL144797  23.845  24.430   5.804
 3373POPC   GL244798  23.994  24.771   5.838
 3373POPC   C1A44799  23.519  24.292   6.136
 3373POPC   D2A44800  23.440  24.394   6.587
 3373POPC   C3A44801  23.860  24.292   6.761
 3373POPC   C4A44802  24.077  24.288   7.144
 3373POPC   C1B44803  23.845  24.670   6.244
 3373POPC   C2B44804  23.744  24.788   6.614
 3373POPC   C3B44805  23.634  24.658   7.049
 3373POPC   C4B44806  23.281  24.886   7.213
 3374POPC   NC344807  22.448  31.604   5.549
 3374POPC   PO444808  21.837  31.327   5.468
 3374POPC   GL144809  22.019  31.357   5.848
 3374POPC   GL244810  22.306  31.137   5.837
 3374POPC   C1A44811  21.924  31.174   6.244
 3374POPC   D2A44812  22.092  31.054   6.643
 3374POPC   C3A44813  21.832  31.276   6.925
 3374POPC   C4A44814  21.612  31.024   7.209
 3374POPC   C1B44815  22.398  31.392   6.213
 3374POPC   C2B44816  22.251  31.534   6.631
 3374POPC   C3B44817  22.346  31.354   7.049
 3374POPC   C4B44818  22.461  31.602   7.434
 3375POPC   NC344819  33.969   1.121   5.503
 3375POPC   PO444820  33.477   1.492   5.692
 3375POPC   GL144821  33.689   1.173   5.944
 3375POPC   GL244822  34.012   0.972   5.979
 3375POPC   C1A44823  33.550   1.102   6.342
 3375POPC   D2A44824  33.681   1.272   6.708
 3375POPC   C3A44825  33.721   0.922   6.913
 3375POPC   C4A44826  33.370   0.766   7.106
 3375POPC   C1B44827  34.214   1.320   6.137
 3375POPC   C2B44828  34.220   1.437   6.532
 3375POPC   C3B44829  34.225   1.226   6.877
 3375POPC   C4B44830  34.049   1.126   7.238
 3376POPC   NC344831  39.017  36.922   5.312
 3376POPC   PO444832  39.701  36.863   5.390
 3376POPC   GL144833  39.485  36.875   5.802
 3376POPC   GL244834  39.175  37.028   5.776
 3376POPC   C1A44835  39.305  36.689   6.218
 3376POPC   D2A44836  39.206  36.673   6.665
 3376POPC   C3A44837  39.360  36.893   7.008
 3376POPC   C4A44838  39.118  36.636   7.245
 3376POPC   C1B44839  39.187  37.184   6.158
 3376POPC   C2B44840  39.299  37.174   6.560
 3376POPC   C3B44841  39.217  37.377   6.929
 3376POPC   C4B44842  39.366  37.407   7.314
 3377POPC   NC344843  17.614   4.268   5.394
 3377POPC   PO444844  17.208   4.595   5.618
 3377POPC   GL144845  17.508   4.370   5.887
 3377POPC   GL244846  17.294   4.108   5.813
 3377POPC   C1A44847  17.782   4.406   6.278
 3377POPC   D2A44848  17.995   4.384   6.688
 3377POPC   C3A44849  17.835   4.623   7.086
 3377POPC   C4A44850  17.520   4.526   7.462
 3377POPC   C1B44851  17.250   4.170   6.274
 3377POPC   C2B44852  17.509   4.082   6.635
 3377POPC   C3B44853  17.525   4.205   7.047
 3377POPC   C4B44854  17.322   4.040   7.370
 3378POPC   NC344855  43.753  28.433   5.384
 3378POPC   PO444856  43.939  27.732   5.420
 3378POPC   GL144857  43.985  28.088   5.722
 3378POPC   GL244858  43.706  28.311   5.869
 3378POPC   C1A44859  44.150  28.176   6.147
 3378POPC   D2A44860  44.285  28.157   6.589
 3378POPC   C3A44861  44.003  28.448   6.820
 3378POPC   C4A44862  43.963  28.572   7.263
 3378POPC   C1B44863  43.681  28.429   6.293
 3378POPC   C2B44864  43.484  28.430   6.692
 3378POPC   C3B44865  43.593  28.298   7.104
 3378POPC   C4B44866  43.520  28.412   7.552
 3379POPC   NC344867  24.911  17.347   5.427
 3379POPC   PO444868  25.272  17.921   5.483
 3379POPC   GL144869  25.328  17.780   5.863
 3379POPC   GL244870  24.987  17.694   5.890
 3379POPC   C1A44871  25.517  17.647   6.251
 3379POPC   D2A44872  25.461  17.812   6.662
 3379POPC   C3A44873  25.435  17.491   6.984
 3379POPC   C4A44874  25.391  17.497   7.434
 3379POPC   C1B44875  25.013  17.844   6.340
 3379POPC   C2B44876  24.986  17.642   6.767
 3379POPC   C3B44877  24.959  17.461   7.167
 3379POPC   C4B44878  25.087  17.009   7.315
 3380POPC   NC344879  36.406  18.438   5.353
 3380POPC   PO444880  35.787  18.098   5.382
 3380POPC   GL144881  36.010  18.364   5.710
 3380POPC   GL244882  36.370  18.276   5.829
 3380POPC   C1A44883  36.001  18.345   6.182
 3380POPC   D2A44884  36.077  18.124   6.582
 3380POPC   C3A44885  35.775  17.931   6.855
 3380POPC   C4A44886  35.963  18.009   7.244
 3380POPC   C1B44887  36.492  18.560   6.157
 3380POPC   C2B44888  36.357  18.589   6.583
 3380POPC   C3B44889  36.424  18.391   7.006
 3380POPC   C4B44890  36.484  18.574   7.435
 3381POPC   NC344891  40.066  44.855   5.327
 3381POPC   PO444892  39.510  44.748   5.636
 3381POPC   GL144893  39.865  44.505   5.789
 3381POPC   GL244894  40.145  44.720   5.829
 3381POPC   C1A44895  40.033  44.381   6.215
 3381POPC   D2A44896  39.804  44.341   6.614
 3381POPC   C3A44897  40.103  44.375   6.953
 3381POPC   C4A44898  40.053  44.503   7.424
 3381POPC   C1B44899  39.852  44.852   6.184
 3381POPC   C2B44900  40.010  44.819   6.618
 3381POPC   C3B44901  40.146  44.867   7.036
 3381POPC   C4B44902  39.963   0.013   7.354
 3382POPC   NC344903  41.799  31.047   5.405
 3382POPC   PO444904  41.325  30.495   5.471
 3382POPC   GL144905  41.398  30.676   5.821
 3382POPC   GL244906  41.761  30.638   5.792
 3382POPC   C1A44907  41.414  30.534   6.250
 3382POPC   D2A44908  41.660  30.656   6.608
 3382POPC   C3A44909  41.484  30.621   7.003
 3382POPC   C4A44910  41.165  30.932   7.147
 3382POPC   C1B44911  41.923  30.808   6.188
 3382POPC   C2B44912  41.985  31.040   6.604
 3382POPC   C3B44913  41.944  30.849   7.040
 3382POPC   C4B44914  41.989  30.946   7.483
 3383POPC   NC344915   9.930   9.514   5.328
 3383POPC   PO444916   9.406   9.779   5.328
 3383POPC   GL144917   9.629   9.834   5.735
 3383POPC   GL244918   9.954   9.645   5.834
 3383POPC   C1A44919   9.538   9.670   6.172
 3383POPC   D2A44920   9.731   9.642   6.572
 3383POPC   C3A44921   9.538   9.901   6.896
 3383POPC   C4A44922   9.660  10.011   7.313
 3383POPC   C1B44923  10.185   9.505   6.231
 3383POPC   C2B44924  10.255   9.572   6.681
 3383POPC   C3B44925  10.007   9.742   7.042
 3383POPC   C4B44926  10.044   9.733   7.529
 3384POPC   NC344927  26.035  24.562   5.091
 3384POPC   PO444928  26.291  24.135   5.530
 3384POPC   GL144929  26.171  24.466   5.828
 3384POPC   GL244930  25.884  24.587   5.915
 3384POPC   C1A44931  26.263  24.648   6.250
 3384POPC   D2A44932  26.269  24.389   6.596
 3384POPC   C3A44933  26.240  24.649   6.915
 3384POPC   C4A44934  26.032  24.652   7.278
 3384POPC   C1B44935  25.819  24.375   6.288
 3384POPC   C2B44936  25.776  24.504   6.730
 3384POPC   C3B44937  25.828  24.241   7.075
 3384POPC   C4B44938  25.682  24.223   7.504
 3385POPC   NC344939   2.156  21.888   5.394
 3385POPC   PO444940   1.538  22.264   5.302
 3385POPC   GL144941   1.826  22.165   5.705
 3385POPC   GL244942   2.157  22.339   5.785
 3385POPC   C1A44943   1.955  22.043   6.165
 3385POPC   D2A44944   1.914  21.797   6.593
 3385POPC   C3A44945   1.804  22.062   6.939
 3385POPC   C4A44946   1.777  22.466   7.096
 3385POPC   C1B44947   2.142  22.539   6.185
 3385POPC   C2B44948   2.073  22.421   6.600
 3385POPC   C3B44949   2.253  22.557   6.975
 3385POPC   C4B44950   2.273  22.262   7.234
 3386POPC   NC344951  29.931  30.879   5.190
 3386POPC   PO444952  30.001  30.195   5.358
 3386POPC   GL144953  29.951  30.488   5.741
 3386POPC   GL244954  29.850  30.837   5.770
 3386POPC   C1A44955  30.167  30.641   6.146
 3386POPC   D2A44956  29.996  30.603   6.587
 3386POPC   C3A44957  29.796  30.882   6.865
 3386POPC   C4A44958  29.669  30.800   7.262
 3386POPC   C1B44959  29.650  30.666   6.142
 3386POPC   C2B44960  29.476  30.672   6.535
 3386POPC   C3B44961  29.504  30.459   6.917
 3386POPC   C4B44962  29.552  30.289   7.297
 3387POPC   NC344963  12.211   9.577   5.353
 3387POPC   PO444964  11.732   9.403   5.729
 3387POPC   GL144965  12.085   9.633   5.888
 3387POPC   GL244966  12.247   9.931   5.739
 3387POPC   C1A44967  12.075   9.658   6.314
 3387POPC   D2A44968  12.249   9.547   6.695
 3387POPC   C3A44969  11.987   9.586   7.077
 3387POPC   C4A44970  11.758   9.589   7.470
 3387POPC   C1B44971  12.294  10.109   6.157
 3387POPC   C2B44972  12.225  10.052   6.603
 3387POPC   C3B44973  12.314   9.957   7.011
 3387POPC   C4B44974  12.018  10.022   7.351
 3388POPC   NC344975  21.791  30.007   5.316
 3388POPC   PO444976  22.385  29.704   5.528
 3388POPC   GL144977  22.243  29.843   5.882
 3388POPC   GL244978  21.901  29.936   5.877
 3388POPC   C1A44979  22.163  29.708   6.278
 3388POPC   D2A44980  22.234  29.489   6.653
 3388POPC   C3A44981  22.119  29.709   7.059
 3388POPC   C4A44982  21.996  29.674   7.498
 3388POPC   C1B44983  22.161  30.219   6.200
 3388POPC   C2B44984  22.307  30.226   6.609
 3388POPC   C3B44985  22.038  30.203   6.952
 3388POPC   C4B44986  21.718  30.044   7.180
 3389POPC   NC344987  32.896  15.738   5.668
 3389POPC   PO444988  33.310  16.195   5.328
 3389POPC   GL144989  33.305  16.056   5.782
 3389POPC   GL244990  33.022  16.066   6.004
 3389POPC   C1A44991  33.470  16.025   6.227
 3389POPC   D2A44992  33.145  15.839   6.488
 3389POPC   C3A44993  33.191  15.794   6.925
 3389POPC   C4A44994  33.121  15.922   7.327
 3389POPC   C1B44995  32.717  16.216   6.266
 3389POPC   C2B44996  32.815  16.240   6.659
 3389POPC   C3B44997  32.740  16.122   7.020
 3389POPC   C4B44998  32.774  16.322   7.395
 3390POPC   NC344999  36.329  16.495   5.518
 3390POPC   PO445000  36.196  17.186   5.362
 3390POPC   GL145001  36.266  16.973   5.774
 3390POPC   GL245002  35.979  16.768   5.842
 3390POPC   C1A45003  36.384  16.885   6.230
 3390POPC   D2A45004  36.434  17.065   6.652
 3390POPC   C3A45005  36.468  16.881   7.033
 3390POPC   C4A45006  36.416  17.148   7.390
 3390POPC   C1B45007  35.883  17.041   6.184
 3390POPC   C2B45008  35.994  16.831   6.558
 3390POPC   C3B45009  35.973  16.768   6.973
 3390POPC   C4B45010  36.109  16.424   7.193
 3391POPC   NC345011  21.190  22.623   5.375
 3391POPC   PO445012  21.752  22.387   5.431
 3391POPC   GL145013  21.628  22.585   5.848
 3391POPC   GL245014  21.259  22.538   5.884
 3391POPC   C1A45015  21.479  22.831   6.256
 3391POPC   D2A45016  21.243  22.886   6.671
 3391POPC   C3A45017  21.435  22.995   7.086
 3391POPC   C4A45018  21.336  23.138   7.514
 3391POPC   C1B45019  21.094  22.481   6.322
 3391POPC   C2B45020  21.001  22.438   6.765
 3391POPC   C3B45021  21.210  22.528   7.144
 3391POPC   C4B45022  21.291  22.315   7.534
 3392POPC   NC345023  35.743  21.561   5.732
 3392POPC   PO445024  36.209  21.290   5.314
 3392POPC   GL145025  36.199  21.293   5.803
 3392POPC   GL245026  35.880  21.161   6.011
 3392POPC   C1A45027  36.253  21.418   6.259
 3392POPC   D2A45028  36.122  21.645   6.634
 3392POPC   C3A45029  36.203  21.439   7.037
 3392POPC   C4A45030  36.486  21.093   7.169
 3392POPC   C1B45031  35.750  21.349   6.417
 3392POPC   C2B45032  35.720  21.398   6.868
 3392POPC   C3B45033  35.775  21.168   7.239
 3392POPC   C4B45034  35.778  20.944   7.663
 3393POPC   NC345035   7.799  19.946   4.993
 3393POPC   PO445036   8.254  19.707   5.467
 3393POPC   GL145037   8.143  19.804   5.886
 3393POPC   GL245038   7.885  20.046   5.910
 3393POPC   C1A45039   8.165  19.746   6.313
 3393POPC   D2A45040   8.213  19.943   6.664
 3393POPC   C3A45041   8.504  19.812   6.912
 3393POPC   C4A45042   8.405  19.596   7.252
 3393POPC   C1B45043   7.915  20.208   6.329
 3393POPC   C2B45044   7.839  20.250   6.778
 3393POPC   C3B45045   7.816  19.955   7.143
 3393POPC   C4B45046   7.591  20.070   7.517
 3394POPC   NC345047  19.053  17.992   5.242
 3394POPC   PO445048  18.876  18.615   5.371
 3394POPC   GL145049  19.040  18.394   5.712
 3394POPC   GL245050  18.902  18.071   5.761
 3394POPC   C1A45051  19.181  18.445   6.140
 3394POPC   D2A45052  19.047  18.456   6.572
 3394POPC   C3A45053  18.813  18.456   6.940
 3394POPC   C4A45054  19.046  18.459   7.310
 3394POPC   C1B45055  19.222  17.936   6.067
 3394POPC   C2B45056  19.348  18.064   6.507
 3394POPC   C3B45057  19.205  18.101   6.963
 3394POPC   C4B45058  19.105  17.960   7.398
 3395POPC   NC345059   5.619  23.725   5.378
 3395POPC   PO445060   6.220  23.455   5.585
 3395POPC   GL145061   5.887  23.697   5.841
 3395POPC   GL245062   5.581  23.874   5.935
 3395POPC   C1A45063   5.948  23.679   6.287
 3395POPC   D2A45064   6.114  23.408   6.620
 3395POPC   C3A45065   5.954  23.532   7.018
 3395POPC   C4A45066   6.148  23.956   7.100
 3395POPC   C1B45067   5.465  23.937   6.369
 3395POPC   C2B45068   5.589  23.993   6.809
 3395POPC   C3B45069   5.648  23.896   7.255
 3395POPC   C4B45070   5.560  23.919   7.701
 3396POPC   NC345071  17.121   1.192   5.362
 3396POPC   PO445072  17.728   1.451   5.373
 3396POPC   GL145073  17.491   1.418   5.739
 3396POPC   GL245074  17.413   1.065   5.778
 3396POPC   C1A45075  17.648   1.328   6.148
 3396POPC   D2A45076  17.496   1.163   6.534
 3396POPC   C3A45077  17.433   1.459   6.845
 3396POPC   C4A45078  17.439   1.401   7.278
 3396POPC   C1B45079  17.274   0.873   6.169
 3396POPC   C2B45080  17.272   0.707   6.603
 3396POPC   C3B45081  17.313   0.913   7.007
 3396POPC   C4B45082  16.999   1.078   7.245
 3397POPC   NC345083  42.148   0.384   5.484
 3397POPC   PO445084  42.804   0.513   5.469
 3397POPC   GL145085  42.479   0.642   5.785
 3397POPC   GL245086  42.474   0.285   5.944
 3397POPC   C1A45087  42.219   0.657   6.177
 3397POPC   D2A45088  42.405   0.343   6.470
 3397POPC   C3A45089  42.577   0.435   6.877
 3397POPC   C4A45090  42.380   0.413   7.283
 3397POPC   C1B45091  42.045   0.168   6.110
 3397POPC   C2B45092  41.888   0.337   6.483
 3397POPC   C3B45093  42.063   0.270   6.892
 3397POPC   C4B45094  41.944   0.098   7.303
 3398POPC   NC345095  15.863  12.047   5.404
 3398POPC   PO445096  16.005  12.722   5.356
 3398POPC   GL145097  15.886  12.451   5.752
 3398POPC   GL245098  16.069  12.120   5.866
 3398POPC   C1A45099  15.725  12.321   6.177
 3398POPC   D2A45100  15.628  12.048   6.527
 3398POPC   C3A45101  15.761  12.175   6.942
 3398POPC   C4A45102  16.050  12.163   7.268
 3398POPC   C1B45103  15.996  11.825   6.232
 3398POPC   C2B45104  15.963  11.698   6.698
 3398POPC   C3B45105  16.225  11.702   7.104
 3398POPC   C4B45106  16.338  11.859   7.546
 3399POPC   NC345107  41.344  25.015   5.139
 3399POPC   PO445108  41.590  25.538   5.392
 3399POPC   GL145109  41.315  25.416   5.712
 3399POPC   GL245110  41.381  25.072   5.777
 3399POPC   C1A45111  41.415  25.384   6.160
 3399POPC   D2A45112  41.713  25.373   6.471
 3399POPC   C3A45113  41.528  25.326   6.880
 3399POPC   C4A45114  41.733  25.306   7.271
 3399POPC   C1B45115  41.689  24.932   6.145
 3399POPC   C2B45116  41.693  24.877   6.589
 3399POPC   C3B45117  41.699  24.838   7.021
 3399POPC   C4B45118  41.383  24.935   7.299
 3400POPC   NC345119   2.558  43.308   5.350
 3400POPC   PO445120   3.107  42.875   5.436
 3400POPC   GL145121   2.833  43.015   5.719
 3400POPC   GL245122   2.825  43.339   5.798
 3400POPC   C1A45123   2.688  42.971   6.117
 3400POPC   D2A45124   2.634  43.157   6.503
 3400POPC   C3A45125   2.775  42.909   6.824
 3400POPC   C4A45126   2.620  43.069   7.198
 3400POPC   C1B45127   3.044  43.345   6.188
 3400POPC   C2B45128   3.135  43.156   6.575
 3400POPC   C3B45129   2.967  43.350   6.938
 3400POPC   C4B45130   2.900  43.454   7.357
 3401POPC   NC345131  31.728   4.610   5.333
 3401POPC   PO445132  32.246   4.251   5.504
 3401POPC   GL145133  32.200   4.469   5.884
 3401POPC   GL245134  31.905   4.719   5.842
 3401POPC   C1A45135  32.340   4.361   6.334
 3401POPC   D2A45136  32.474   4.441   6.782
 3401POPC   C3A45137  32.253   4.204   7.092
 3401POPC   C4A45138  32.428   3.798   7.190
 3401POPC   C1B45139  31.839   4.481   6.247
 3401POPC   C2B45140  31.974   4.510   6.675
 3401POPC   C3B45141  32.046   4.688   7.089
 3401POPC   C4B45142  32.126   4.555   7.533
 3402POPC   NC345143   7.957   6.148   5.534
 3402POPC   PO445144   8.500   5.655   5.436
 3402POPC   GL145145   8.477   5.844   5.849
 3402POPC   GL245146   8.161   6.043   5.980
 3402POPC   C1A45147   8.426   5.746   6.294
 3402POPC   D2A45148   8.172   6.033   6.581
 3402POPC   C3A45149   8.275   5.877   6.998
 3402POPC   C4A45150   8.260   5.508   7.298
 3402POPC   C1B45151   7.923   5.716   6.203
 3402POPC   C2B45152   8.059   5.539   6.600
 3402POPC   C3B45153   7.863   5.584   6.963
 3402POPC   C4B45154   7.726   5.542   7.348
 3403POPC   NC345155   6.312  11.983   5.565
 3403POPC   PO445156   5.933  12.248   5.031
 3403POPC   GL145157   5.881  12.215   5.552
 3403POPC   GL245158   5.792  11.854   5.694
 3403POPC   C1A45159   5.890  12.222   6.036
 3403POPC   D2A45160   5.775  12.448   6.427
 3403POPC   C3A45161   5.808  12.296   6.883
 3403POPC   C4A45162   6.094  12.101   7.201
 3403POPC   C1B45163   5.844  11.733   6.156
 3403POPC   C2B45164   6.023  11.776   6.579
 3403POPC   C3B45165   5.795  11.766   6.966
 3403POPC   C4B45166   5.683  11.481   7.242
 3404POPC   NC345167   5.586  14.186   5.375
 3404POPC   PO445168   6.126  14.698   5.353
 3404POPC   GL145169   5.925  14.512   5.716
 3404POPC   GL245170   5.606  14.591   5.761
 3404POPC   C1A45171   5.931  14.432   6.177
 3404POPC   D2A45172   6.174  14.343   6.531
 3404POPC   C3A45173   6.006  14.234   6.899
 3404POPC   C4A45174   6.005  14.583   7.159
 3404POPC   C1B45175   5.525  14.189   6.006
 3404POPC   C2B45176   5.473  14.210   6.433
 3404POPC   C3B45177   5.564  14.466   6.763
 3404POPC   C4B45178   5.556  14.289   7.152
 3405POPC   NC345179  23.435  13.299   5.048
 3405POPC   PO445180  23.024  12.852   5.284
 3405POPC   GL145181  23.058  12.798   5.737
 3405POPC   GL245182  23.056  13.122   5.936
 3405POPC   C1A45183  23.235  12.664   6.139
 3405POPC   D2A45184  23.288  12.887   6.529
 3405POPC   C3A45185  23.232  12.744   6.929
 3405POPC   C4A45186  23.168  13.038   7.259
 3405POPC   C1B45187  22.819  12.942   6.328
 3405POPC   C2B45188  22.798  12.975   6.799
 3405POPC   C3B45189  22.788  12.731   7.216
 3405POPC   C4B45190  22.797  12.883   7.681
 3406POPC   NC345191  11.049  22.077   5.621
 3406POPC   PO445192  11.709  22.155   5.472
 3406POPC   GL145193  11.513  22.186   5.830
 3406POPC   GL245194  11.465  21.833   5.919
 3406POPC   C1A45195  11.475  22.414   6.225
 3406POPC   D2A45196  11.315  22.304   6.627
 3406POPC   C3A45197  11.397  22.517   7.011
 3406POPC   C4A45198  11.504  22.283   7.407
 3406POPC   C1B45199  11.138  21.890   6.259
 3406POPC   C2B45200  11.004  21.903   6.715
 3406POPC   C3B45201  11.154  22.082   7.111
 3406POPC   C4B45202  11.032  22.050   7.578
 3407POPC   NC345203  44.657  33.267   5.538
 3407POPC   PO445204  44.854  33.801   5.065
 3407POPC   GL145205  44.795  33.975   5.531
 3407POPC   GL245206  44.487  33.866   5.658
 3407POPC   C1A45207  44.847  34.007   6.016
 3407POPC   D2A45208  44.958  34.084   6.470
 3407POPC   C3A45209  44.952  33.707   6.762
 3407POPC   C4A45210  44.738  33.527   7.134
 3407POPC   C1B45211  44.310  33.911   6.073
 3407POPC   C2B45212  44.516  33.800   6.450
 3407POPC   C3B45213  44.489  33.901   6.878
 3407POPC   C4B45214  44.683  34.087   7.214
 3408POPC   NC345215  17.849   2.699   5.525
 3408POPC   PO445216  17.580   3.237   5.167
 3408POPC   GL145217  17.540   3.113   5.644
 3408POPC   GL245218  17.225   3.193   5.852
 3408POPC   C1A45219  17.642   2.936   6.077
 3408POPC   D2A45220  17.486   2.978   6.490
 3408POPC   C3A45221  17.549   2.621   6.784
 3408POPC   C4A45222  17.534   2.747   7.202
 3408POPC   C1B45223  17.172   2.752   6.068
 3408POPC   C2B45224  17.090   2.628   6.492
 3408POPC   C3B45225  17.081   2.721   6.914
 3408POPC   C4B45226  17.156   2.386   7.193
 3409POPC   NC345227   0.643  13.903   5.498
 3409POPC   PO445228   0.385  14.626   5.471
 3409POPC   GL145229   0.508  14.387   5.790
 3409POPC   GL245230   0.265  14.158   5.820
 3409POPC   C1A45231   0.371  14.443   6.240
 3409POPC   D2A45232   0.468  14.579   6.663
 3409POPC   C3A45233   0.215  14.637   7.025
 3409POPC   C4A45234   0.541  14.534   7.253
 3409POPC   C1B45235   0.203  13.937   6.233
 3409POPC   C2B45236   0.151  14.136   6.603
 3409POPC   C3B45237   0.327  14.144   6.986
 3409POPC   C4B45238   0.162  14.247   7.410
 3410POPC   NC345239  28.683   4.035   5.597
 3410POPC   PO445240  29.178   4.516   5.414
 3410POPC   GL145241  29.036   4.526   5.855
 3410POPC   GL245242  29.102   4.184   5.859
 3410POPC   C1A45243  29.099   4.633   6.319
 3410POPC   D2A45244  29.209   4.789   6.739
 3410POPC   C3A45245  29.232   4.466   7.060
 3410POPC   C4A45246  29.407   4.033   7.108
 3410POPC   C1B45247  28.829   4.206   6.220
 3410POPC   C2B45248  28.976   4.180   6.623
 3410POPC   C3B45249  28.935   3.906   6.955
 3410POPC   C4B45250  28.925   4.082   7.359
 3411POPC   NC345251  27.081  43.031   5.645
 3411POPC   PO445252  27.413  43.556   5.410
 3411POPC   GL145253  27.474  43.385   5.857
 3411POPC   GL245254  27.530  43.022   5.886
 3411POPC   C1A45255  27.552  43.309   6.331
 3411POPC   D2A45256  27.366  43.280   6.761
 3411POPC   C3A45257  27.646  43.378   7.108
 3411POPC   C4A45258  27.989  43.111   7.237
 3411POPC   C1B45259  27.324  42.843   6.253
 3411POPC   C2B45260  27.428  42.746   6.677
 3411POPC   C3B45261  27.565  42.870   7.086
 3411POPC   C4B45262  27.602  42.897   7.537
 3412POPC   NC345263  44.548  19.661   5.320
 3412POPC   PO445264  44.791  20.187   5.039
 3412POPC   GL145265  44.770  20.073   5.528
 3412POPC   GL245266  44.937  19.740   5.632
 3412POPC   C1A45267  44.573  20.000   5.966
 3412POPC   D2A45268  44.626  20.135   6.417
 3412POPC   C3A45269  44.528  19.920   6.828
 3412POPC   C4A45270  44.853  19.923   7.162
 3412POPC   C1B45271  44.871  19.553   6.046
 3412POPC   C2B45272  44.852  19.667   6.478
 3412POPC   C3B45273  44.798  19.487   6.891
 3412POPC   C4B45274  44.543  19.546   7.281
 3413POPC   NC345275  17.652  19.754   5.295
 3413POPC   PO445276  17.373  20.226   5.563
 3413POPC   GL145277  17.345  19.916   5.904
 3413POPC   GL245278  17.483  19.621   5.769
 3413POPC   C1A45279  17.300  19.972   6.350
 3413POPC   D2A45280  17.569  20.006   6.741
 3413POPC   C3A45281  17.366  20.038   7.140
 3413POPC   C4A45282  17.115  19.743   7.402
 3413POPC   C1B45283  17.304  19.456   6.160
 3413POPC   C2B45284  17.345  19.550   6.611
 3413POPC   C3B45285  17.403  19.551   7.042
 3413POPC   C4B45286  17.649  19.667   7.388
 3414POPC   NC345287  31.603  42.075   5.427
 3414POPC   PO445288  31.172  42.529   5.500
 3414POPC   GL145289  31.363  42.267   5.861
 3414POPC   GL245290  31.662  42.022   5.914
 3414POPC   C1A45291  31.413  42.397   6.294
 3414POPC   D2A45292  31.353  42.642   6.639
 3414POPC   C3A45293  31.504  42.542   7.056
 3414POPC   C4A45294  31.304  42.696   7.422
 3414POPC   C1B45295  31.561  41.919   6.341
 3414POPC   C2B45296  31.479  42.096   6.773
 3414POPC   C3B45297  31.466  42.035   7.240
 3414POPC   C4B45298  31.541  41.833   7.674
 3415POPC   NC345299  26.859  32.777   5.177
 3415POPC   PO445300  26.631  33.378   5.490
 3415POPC   GL145301  26.680  32.992   5.753
 3415POPC   GL245302  27.043  32.917   5.817
 3415POPC   C1A45303  26.723  32.813   6.198
 3415POPC   D2A45304  26.832  33.023   6.586
 3415POPC   C3A45305  27.003  32.876   6.975
 3415POPC   C4A45306  26.718  33.109   7.212
 3415POPC   C1B45307  27.083  33.236   6.170
 3415POPC   C2B45308  27.261  33.341   6.602
 3415POPC   C3B45309  27.113  33.374   7.039
 3415POPC   C4B45310  27.086  33.267   7.497
 3416POPC   NC345311  36.282  31.076   5.434
 3416POPC   PO445312  35.838  31.607   5.338
 3416POPC   GL145313  36.023  31.665   5.732
 3416POPC   GL245314  36.023  31.321   5.803
 3416POPC   C1A45315  36.052  31.667   6.189
 3416POPC   D2A45316  36.034  31.439   6.592
 3416POPC   C3A45317  36.345  31.424   6.924
 3416POPC   C4A45318  36.189  31.603   7.334
 3416POPC   C1B45319  36.069  31.124   6.200
 3416POPC   C2B45320  35.800  30.978   6.539
 3416POPC   C3B45321  35.709  31.149   6.890
 3416POPC   C4B45322  35.975  31.156   7.215
 3417POPC   NC345323  26.883  14.547   5.448
 3417POPC   PO445324  26.489  14.036   5.371
 3417POPC   GL145325  26.628  14.218   5.747
 3417POPC   GL245326  26.415  14.481   5.856
 3417POPC   C1A45327  26.690  14.198   6.203
 3417POPC   D2A45328  26.518  14.441   6.550
 3417POPC   C3A45329  26.739  14.418   6.932
 3417POPC   C4A45330  26.869  14.490   7.352
 3417POPC   C1B45331  26.656  14.730   6.158
 3417POPC   C2B45332  26.810  14.858   6.606
 3417POPC   C3B45333  26.627  14.904   7.046
 3417POPC   C4B45334  26.614  14.932   7.500
 3418POPC   NC345335   4.475  15.658   5.545
 3418POPC   PO445336   4.258  16.270   5.392
 3418POPC   GL145337   4.134  16.292   5.809
 3418POPC   GL245338   4.095  15.926   5.913
 3418POPC   C1A45339   4.274  16.305   6.206
 3418POPC   D2A45340   4.272  16.097   6.611
 3418POPC   C3A45341   4.296  16.297   6.990
 3418POPC   C4A45342   4.071  16.218   7.340
 3418POPC   C1B45343   4.114  15.691   6.328
 3418POPC   C2B45344   4.405  15.619   6.708
 3418POPC   C3B45345   4.241  15.796   7.097
 3418POPC   C4B45346   4.256  15.759   7.557
 3419POPC   NC345347  22.173  22.529   5.546
 3419POPC   PO445348  22.368  23.173   5.364
 3419POPC   GL145349  22.386  22.970   5.762
 3419POPC   GL245350  22.042  22.940   5.846
 3419POPC   C1A45351  22.500  22.835   6.184
 3419POPC   D2A45352  22.392  22.976   6.629
 3419POPC   C3A45353  22.442  22.807   7.054
 3419POPC   C4A45354  22.307  23.020   7.430
 3419POPC   C1B45355  21.999  22.857   6.286
 3419POPC   C2B45356  21.857  22.971   6.697
 3419POPC   C3B45357  21.930  22.869   7.117
 3419POPC   C4B45358  21.693  22.576   7.354
 3420POPC   NC345359  15.676  17.972   5.373
 3420POPC   PO445360  15.619  18.561   5.686
 3420POPC   GL145361  16.006  18.305   5.841
 3420POPC   GL245362  16.038  17.948   5.831
 3420POPC   C1A45363  16.235  18.186   6.223
 3420POPC   D2A45364  15.915  18.116   6.527
 3420POPC   C3A45365  16.035  18.016   6.922
 3420POPC   C4A45366  16.147  18.326   7.226
 3420POPC   C1B45367  15.635  18.004   6.071
 3420POPC   C2B45368  15.387  18.070   6.462
 3420POPC   C3B45369  15.518  18.233   6.869
 3420POPC   C4B45370  15.676  18.125   7.270
 3421POPC   NC345371  16.409  16.375   5.408
 3421POPC   PO445372  15.739  16.665   5.188
 3421POPC   GL145373  15.816  16.713   5.663
 3421POPC   GL245374  16.107  16.706   5.767
 3421POPC   C1A45375  15.723  16.691   6.120
 3421POPC   D2A45376  15.869  16.865   6.493
 3421POPC   C3A45377  15.852  16.645   6.883
 3421POPC   C4A45378  15.861  16.925   7.223
 3421POPC   C1B45379  16.239  16.651   6.175
 3421POPC   C2B45380  16.285  16.572   6.583
 3421POPC   C3B45381  16.372  16.472   6.986
 3421POPC   C4B45382  16.088  16.345   7.284
 3422POPC   NC345383  13.475   7.085   5.570
 3422POPC   PO445384  13.853   6.635   5.182
 3422POPC   GL145385  13.654   6.598   5.570
 3422POPC   GL245386  13.899   6.852   5.689
 3422POPC   C1A45387  13.603   6.603   6.022
 3422POPC   D2A45388  13.813   6.528   6.393
 3422POPC   C3A45389  13.724   6.607   6.818
 3422POPC   C4A45390  13.966   6.543   7.182
 3422POPC   C1B45391  13.873   7.041   6.111
 3422POPC   C2B45392  13.892   7.020   6.547
 3422POPC   C3B45393  13.963   7.035   6.986
 3422POPC   C4B45394  13.620   6.912   7.229
 3423POPC   NC345395   9.966   8.517   5.399
 3423POPC   PO445396   9.514   9.016   5.333
 3423POPC   GL145397   9.722   8.859   5.697
 3423POPC   GL245398   9.982   9.106   5.658
 3423POPC   C1A45399   9.813   8.718   6.143
 3423POPC   D2A45400   9.579   8.689   6.577
 3423POPC   C3A45401   9.763   8.811   6.969
 3423POPC   C4A45402   9.616   9.065   7.278
 3423POPC   C1B45403   9.779   9.220   6.068
 3423POPC   C2B45404   9.945   9.115   6.485
 3423POPC   C3B45405   9.893   9.277   6.885
 3423POPC   C4B45406  10.070   9.289   7.276
 3424POPC   NC345407  41.382  37.867   5.522
 3424POPC   PO445408  41.829  37.442   5.357
 3424POPC   GL145409  41.701  37.539   5.784
 3424POPC   GL245410  41.367  37.437   5.828
 3424POPC   C1A45411  41.508  37.752   6.184
 3424POPC   D2A45412  41.371  37.963   6.573
 3424POPC   C3A45413  41.553  37.732   6.911
 3424POPC   C4A45414  41.441  37.641   7.325
 3424POPC   C1B45415  41.221  37.237   6.182
 3424POPC   C2B45416  41.283  37.417   6.584
 3424POPC   C3B45417  41.283  37.260   7.005
 3424POPC   C4B45418  41.074  37.297   7.419
 3425POPC   NC345419  25.316  11.062   5.168
 3425POPC   PO445420  25.440  10.346   5.404
 3425POPC   GL145421  25.482  10.566   5.797
 3425POPC   GL245422  25.489  10.907   5.663
 3425POPC   C1A45423  25.399  10.376   6.221
 3425POPC   D2A45424  25.037  10.281   6.498
 3425POPC   C3A45425  25.174  10.313   6.919
 3425POPC   C4A45426  25.019  10.557   7.269
 3425POPC   C1B45427  25.621  10.978   6.112
 3425POPC   C2B45428  25.613  10.776   6.518
 3425POPC   C3B45429  25.382  10.789   6.902
 3425POPC   C4B45430  25.496  10.647   7.326
 3426POPC   NC345431  41.762  30.222   5.426
 3426POPC   PO445432  41.215  29.731   5.429
 3426POPC   GL145433  41.514  29.834   5.764
 3426POPC   GL245434  41.525  30.177   5.883
 3426POPC   C1A45435  41.565  29.801   6.228
 3426POPC   D2A45436  41.184  29.806   6.450
 3426POPC   C3A45437  41.199  30.060   6.816
 3426POPC   C4A45438  41.452  30.087   7.193
 3426POPC   C1B45439  41.817  30.248   6.261
 3426POPC   C2B45440  41.727  30.175   6.729
 3426POPC   C3B45441  41.913  30.324   7.124
 3426POPC   C4B45442  41.700  30.431   7.519
 3427POPC   NC345443  19.653  29.590   5.380
 3427POPC   PO445444  20.054  29.065   5.359
 3427POPC   GL145445  19.784  29.145   5.737
 3427POPC   GL245446  19.396  29.161   5.772
 3427POPC   C1A45447  19.945  29.157   6.156
 3427POPC   D2A45448  20.175  29.365   6.479
 3427POPC   C3A45449  20.054  29.182   6.867
 3427POPC   C4A45450  19.998  29.342   7.231
 3427POPC   C1B45451  19.467  28.966   6.195
 3427POPC   C2B45452  19.657  28.936   6.641
 3427POPC   C3B45453  19.521  29.094   7.068
 3427POPC   C4B45454  19.338  28.851   7.449
 3428POPC   NC345455  27.160  27.872   5.515
 3428POPC   PO445456  26.700  27.386   5.281
 3428POPC   GL145457  26.796  27.487   5.737
 3428POPC   GL245458  26.773  27.846   5.852
 3428POPC   C1A45459  26.879  27.440   6.203
 3428POPC   D2A45460  26.836  27.727   6.579
 3428POPC   C3A45461  26.889  27.583   6.972
 3428POPC   C4A45462  26.662  27.278   7.132
 3428POPC   C1B45463  27.104  27.910   6.205
 3428POPC   C2B45464  27.258  28.001   6.688
 3428POPC   C3B45465  27.084  28.014   7.167
 3428POPC   C4B45466  27.143  27.936   7.655
 3429POPC   NC345467   0.239   0.066   5.388
 3429POPC   PO445468   0.380   0.707   5.513
 3429POPC   GL145469   0.221   0.529   5.858
 3429POPC   GL245470   0.462   0.254   5.814
 3429POPC   C1A45471   0.083   0.500   6.304
 3429POPC   D2A45472   0.161   0.208   6.690
 3429POPC   C3A45473   0.434   0.380   7.027
 3429POPC   C4A45474   0.604   0.784   7.145
 3429POPC   C1B45475   0.456   0.150   6.242
 3429POPC   C2B45476   0.697   0.143   6.636
 3429POPC   C3B45477   0.745  44.979   7.054
 3429POPC   C4B45478   0.645   0.139   7.475
 3430POPC   NC345479   6.772  44.233   5.472
 3430POPC   PO445480   6.206  43.845   5.455
 3430POPC   GL145481   6.487  43.942   5.785
 3430POPC   GL245482   6.803  43.757   5.805
 3430POPC   C1A45483   6.600  44.006   6.219
 3430POPC   D2A45484   6.601  43.864   6.643
 3430POPC   C3A45485   6.522  44.209   6.895
 3430POPC   C4A45486   6.526  44.305   7.335
 3430POPC   C1B45487   7.085  43.939   6.123
 3430POPC   C2B45488   7.156  43.860   6.574
 3430POPC   C3B45489   6.982  43.976   6.996
 3430POPC   C4B45490   6.647  43.812   7.200
 3431POPC   NC345491   9.593  11.870   5.180
 3431POPC   PO445492  10.136  12.100   5.504
 3431POPC   GL145493   9.836  12.267   5.793
 3431POPC   GL245494   9.705  12.006   5.982
 3431POPC   C1A45495   9.888  12.346   6.267
 3431POPC   D2A45496   9.690  12.038   6.530
 3431POPC   C3A45497   9.599  12.148   6.925
 3431POPC   C4A45498   9.937  12.377   7.069
 3431POPC   C1B45499  10.049  11.832   6.220
 3431POPC   C2B45500   9.965  11.542   6.514
 3431POPC   C3B45501   9.921  11.677   6.865
 3431POPC   C4B45502   9.895  11.855   7.236
 3432POPC   NC345503  36.639  17.121   5.187
 3432POPC   PO445504  36.766  16.486   5.361
 3432POPC   GL145505  37.031  16.699   5.697
 3432POPC   GL245506  36.739  16.747   5.897
 3432POPC   C1A45507  37.114  17.025   6.077
 3432POPC   D2A45508  36.880  16.915   6.452
 3432POPC   C3A45509  37.050  16.950   6.871
 3432POPC   C4A45510  36.899  16.915   7.316
 3432POPC   C1B45511  37.046  16.510   6.195
 3432POPC   C2B45512  37.022  16.451   6.677
 3432POPC   C3B45513  37.176  16.520   7.129
 3432POPC   C4B45514  36.923  16.421   7.526
 3433POPC   NC345515  37.047  28.471   5.031
 3433POPC   PO445516  36.794  28.116   5.532
 3433POPC   GL145517  36.996  28.214   5.873
 3433POPC   GL245518  37.027  28.546   5.803
 3433POPC   C1A45519  36.876  28.258   6.302
 3433POPC   D2A45520  37.105  28.259   6.668
 3433POPC   C3A45521  36.956  28.400   7.057
 3433POPC   C4A45522  36.757  28.141   7.369
 3433POPC   C1B45523  37.229  28.596   6.169
 3433POPC   C2B45524  37.138  28.746   6.561
 3433POPC   C3B45525  37.319  28.774   6.957
 3433POPC   C4B45526  37.101  28.810   7.331
 3434POPC   NC345527   3.902  20.013   5.436
 3434POPC   PO445528   3.600  19.438   5.328
 3434POPC   GL145529   3.562  19.704   5.697
 3434POPC   GL245530   3.813  19.514   5.801
 3434POPC   C1A45531   3.663  19.892   6.126
 3434POPC   D2A45532   3.432  19.990   6.500
 3434POPC   C3A45533   3.518  19.845   6.887
 3434POPC   C4A45534   3.702  19.938   7.245
 3434POPC   C1B45535   3.993  19.501   6.214
 3434POPC   C2B45536   3.975  19.789   6.559
 3434POPC   C3B45537   3.972  19.597   6.951
 3434POPC   C4B45538   4.068  19.604   7.367
 3435POPC   NC345539  26.762   8.430   5.374
 3435POPC   PO445540  27.340   8.569   5.629
 3435POPC   GL145541  27.038   8.299   5.846
 3435POPC   GL245542  26.715   8.084   5.809
 3435POPC   C1A45543  26.821   8.384   6.252
 3435POPC   D2A45544  26.676   8.424   6.692
 3435POPC   C3A45545  26.986   8.438   7.018
 3435POPC   C4A45546  26.916   8.390   7.444
 3435POPC   C1B45547  26.981   7.894   6.171
 3435POPC   C2B45548  26.967   7.979   6.657
 3435POPC   C3B45549  26.811   7.954   7.112
 3435POPC   C4B45550  26.884   7.776   7.556
 3436POPC   NC345551  35.329  32.703   5.305
 3436POPC   PO445552  35.541  33.311   5.505
 3436POPC   GL145553  35.339  33.191   5.852
 3436POPC   GL245554  35.036  33.425   5.890
 3436POPC   C1A45555  35.448  32.921   6.240
 3436POPC   D2A45556  35.454  32.717   6.662
 3436POPC   C3A45557  35.397  32.887   7.091
 3436POPC   C4A45558  35.097  32.921   7.410
 3436POPC   C1B45559  35.231  33.365   6.296
 3436POPC   C2B45560  35.349  33.231   6.691
 3436POPC   C3B45561  35.298  33.406   7.083
 3436POPC   C4B45562  35.338  33.391   7.508
 3437POPC   NC345563  35.876  22.635   5.013
 3437POPC   PO445564  36.331  22.893   5.405
 3437POPC   GL145565  36.195  22.911   5.795
 3437POPC   GL245566  36.419  22.656   5.899
 3437POPC   C1A45567  35.942  23.112   6.093
 3437POPC   D2A45568  35.935  23.162   6.521
 3437POPC   C3A45569  35.900  22.836   6.790
 3437POPC   C4A45570  35.826  22.879   7.199
 3437POPC   C1B45571  36.240  22.747   6.288
 3437POPC   C2B45572  36.319  22.587   6.647
 3437POPC   C3B45573  36.462  22.715   7.008
 3437POPC   C4B45574  36.293  22.612   7.349
 3438POPC   NC345575   7.677  44.458   5.405
 3438POPC   PO445576   7.081  44.574   5.619
 3438POPC   GL145577   7.474  44.680   5.820
 3438POPC   GL245578   7.604  44.996   5.640
 3438POPC   C1A45579   7.490  44.614   6.254
 3438POPC   D2A45580   7.304  44.856   6.547
 3438POPC   C3A45581   7.436  44.717   6.912
 3438POPC   C4A45582   7.296  44.693   7.316
 3438POPC   C1B45583   7.762   0.073   6.060
 3438POPC   C2B45584   7.809  44.994   6.502
 3438POPC   C3B45585   7.938  44.908   6.922
 3438POPC   C4B45586   7.796  44.690   7.257
 3439POPC   NC345587  19.821  10.644   5.166
 3439POPC   PO445588  19.628  10.876   5.715
 3439POPC   GL145589  19.894  10.597   5.987
 3439POPC   GL245590  19.976  10.242   5.898
 3439POPC   C1A45591  20.173  10.680   6.324
 3439POPC   D2A45592  20.271  10.515   6.717
 3439POPC   C3A45593  20.047  10.641   7.049
 3439POPC   C4A45594  19.996  10.468   7.409
 3439POPC   C1B45595  19.915  10.239   6.359
 3439POPC   C2B45596  19.718  10.448   6.723
 3439POPC   C3B45597  19.550  10.389   7.169
 3439POPC   C4B45598  19.374  10.512   7.601
 3440POPC   NC345599  42.764  33.952   5.501
 3440POPC   PO445600  42.141  33.756   5.451
 3440POPC   GL145601  42.309  33.711   5.846
 3440POPC   GL245602  42.625  33.550   5.854
 3440POPC   C1A45603  42.390  33.712   6.296
 3440POPC   D2A45604  42.289  33.986   6.629
 3440POPC   C3A45605  42.130  33.783   7.018
 3440POPC   C4A45606  41.936  33.447   7.243
 3440POPC   C1B45607  42.848  33.464   6.201
 3440POPC   C2B45608  42.831  33.702   6.568
 3440POPC   C3B45609  42.594  33.641   6.876
 3440POPC   C4B45610  42.541  33.611   7.282
 3441POPC   NC345611  25.874  40.801   5.321
 3441POPC   PO445612  26.223  41.194   5.467
 3441POPC   GL145613  26.009  40.875   5.827
 3441POPC   GL245614  25.990  40.499   5.724
 3441POPC   C1A45615  25.953  40.852   6.331
 3441POPC   D2A45616  26.168  40.727   6.749
 3441POPC   C3A45617  25.930  40.750   7.151
 3441POPC   C4A45618  25.640  41.077   7.298
 3441POPC   C1B45619  25.822  40.393   6.149
 3441POPC   C2B45620  25.770  40.437   6.634
 3441POPC   C3B45621  26.031  40.279   7.001
 3441POPC   C4B45622  26.018  40.296   7.448
 3442POPC   NC345623  24.656  38.409   5.247
 3442POPC   PO445624  24.151  38.357   5.625
 3442POPC   GL145625  24.503  38.401   5.896
 3442POPC   GL245626  24.711  38.621   5.740
 3442POPC   C1A45627  24.531  38.411   6.348
 3442POPC   D2A45628  24.279  38.537   6.712
 3442POPC   C3A45629  24.293  38.306   7.076
 3442POPC   C4A45630  24.419  38.443   7.468
 3442POPC   C1B45631  24.714  38.872   6.170
 3442POPC   C2B45632  24.725  38.822   6.634
 3442POPC   C3B45633  24.677  38.727   7.094
 3442POPC   C4B45634  24.899  38.584   7.493
 3443POPC   NC345635  29.456  22.546   5.506
 3443POPC   PO445636  29.306  23.083   5.130
 3443POPC   GL145637  29.517  23.112   5.572
 3443POPC   GL245638  29.289  22.935   5.788
 3443POPC   C1A45639  29.524  23.325   6.041
 3443POPC   D2A45640  29.270  23.192   6.436
 3443POPC   C3A45641  29.411  23.134   6.875
 3443POPC   C4A45642  29.139  22.937   7.192
 3443POPC   C1B45643  29.280  22.638   6.145
 3443POPC   C2B45644  29.450  22.704   6.551
 3443POPC   C3B45645  29.459  22.614   6.970
 3443POPC   C4B45646  29.427  22.527   7.377
 3444POPC   NC345647  24.470  23.808   5.407
 3444POPC   PO445648  24.740  23.216   5.399
 3444POPC   GL145649  24.558  23.433   5.798
 3444POPC   GL245650  24.459  23.796   5.904
 3444POPC   C1A45651  24.493  23.417   6.257
 3444POPC   D2A45652  24.310  23.473   6.655
 3444POPC   C3A45653  24.535  23.324   6.980
 3444POPC   C4A45654  24.711  23.585   7.275
 3444POPC   C1B45655  24.675  23.994   6.244
 3444POPC   C2B45656  24.710  23.798   6.654
 3444POPC   C3B45657  24.410  23.875   6.985
 3444POPC   C4B45658  24.437  24.005   7.402
 3445POPC   NC345659  18.124   3.660   5.494
 3445POPC   PO445660  18.548   3.369   5.002
 3445POPC   GL145661  18.552   3.340   5.586
 3445POPC   GL245662  18.502   3.666   5.815
 3445POPC   C1A45663  18.517   3.273   6.104
 3445POPC   D2A45664  18.445   3.571   6.495
 3445POPC   C3A45665  18.513   3.521   6.943
 3445POPC   C4A45666  18.483   3.873   7.200
 3445POPC   C1B45667  18.119   3.602   6.117
 3445POPC   C2B45668  17.998   3.303   6.457
 3445POPC   C3B45669  17.987   3.355   6.900
 3445POPC   C4B45670  17.899   3.114   7.257
 3446POPC   NC345671   7.124  42.194   5.393
 3446POPC   PO445672   7.753  42.398   5.301
 3446POPC   GL145673   7.676  42.501   5.722
 3446POPC   GL245674   7.322  42.446   5.806
 3446POPC   C1A45675   7.648  42.561   6.182
 3446POPC   D2A45676   7.632  42.293   6.537
 3446POPC   C3A45677   7.642  42.494   6.892
 3446POPC   C4A45678   7.648  42.413   7.280
 3446POPC   C1B45679   7.390  42.097   6.125
 3446POPC   C2B45680   7.219  41.984   6.556
 3446POPC   C3B45681   7.337  42.091   6.979
 3446POPC   C4B45682   7.189  42.211   7.390
 3447POPC   NC345683   7.248   0.361   5.388
 3447POPC   PO445684   7.851   0.511   5.466
 3447POPC   GL145685   7.537   0.515   5.775
 3447POPC   GL245686   7.261   0.774   5.740
 3447POPC   C1A45687   7.394   0.461   6.183
 3447POPC   D2A45688   7.635   0.474   6.552
 3447POPC   C3A45689   7.475   0.240   6.860
 3447POPC   C4A45690   7.562   0.155   7.257
 3447POPC   C1B45691   7.580   0.930   6.065
 3447POPC   C2B45692   7.802   0.955   6.454
 3447POPC   C3B45693   7.746   0.881   6.871
 3447POPC   C4B45694   7.451   0.716   7.148
 3448POPC   NC345695  33.341  26.967   5.475
 3448POPC   PO445696  32.794  26.601   5.411
 3448POPC   GL145697  32.912  26.893   5.765
 3448POPC   GL245698  33.188  27.110   5.926
 3448POPC   C1A45699  32.720  27.015   6.129
 3448POPC   D2A45700  32.725  26.835   6.500
 3448POPC   C3A45701  32.763  26.905   6.907
 3448POPC   C4A45702  32.955  26.997   7.273
 3448POPC   C1B45703  33.199  26.944   6.320
 3448POPC   C2B45704  33.177  27.134   6.719
 3448POPC   C3B45705  33.420  27.055   7.074
 3448POPC   C4B45706  33.397  26.792   7.428
 3449POPC   NC345707  27.222   6.341   5.491
 3449POPC   PO445708  26.636   6.668   5.352
 3449POPC   GL145709  26.728   6.776   5.778
 3449POPC   GL245710  26.872   6.545   5.795
 3449POPC   C1A45711  26.552   6.878   6.171
 3449POPC   D2A45712  26.539   6.670   6.555
 3449POPC   C3A45713  26.541   6.939   6.875
 3449POPC   C4A45714  26.624   6.797   7.266
 3449POPC   C1B45715  26.851   6.454   6.199
 3449POPC   C2B45716  27.023   6.444   6.558
 3449POPC   C3B45717  26.995   6.637   6.932
 3449POPC   C4B45718  27.259   6.537   7.259
 3450POPC   NC345719  19.803  31.164   5.506
 3450POPC   PO445720  20.071  30.569   5.501
 3450POPC   GL145721  19.940  30.526   5.927
 3450POPC   GL245722  19.723  30.794   5.890
 3450POPC   C1A45723  19.732  30.532   6.358
 3450POPC   D2A45724  19.799  30.795   6.750
 3450POPC   C3A45725  19.853  30.659   7.196
 3450POPC   C4A45726  20.061  30.763   7.569
 3450POPC   C1B45727  19.650  31.036   6.279
 3450POPC   C2B45728  19.512  31.205   6.701
 3450POPC   C3B45729  19.722  31.173   7.114
 3450POPC   C4B45730  19.627  31.020   7.542
 3451POPC   NC345731  30.184  32.913   5.349
 3451POPC   PO445732  30.874  33.001   5.363
 3451POPC   GL145733  30.761  33.143   5.795
 3451POPC   GL245734  30.391  33.164   5.782
 3451POPC   C1A45735  30.836  33.213   6.219
 3451POPC   D2A45736  30.886  32.976   6.580
 3451POPC   C3A45737  30.729  33.178   6.926
 3451POPC   C4A45738  30.837  33.381   7.264
 3451POPC   C1B45739  30.392  32.945   6.164
 3451POPC   C2B45740  30.350  33.104   6.575
 3451POPC   C3B45741  30.359  32.828   6.932
 3451POPC   C4B45742  30.585  32.860   7.327
 3452POPC   NC345743  24.921  40.520   5.432
 3452POPC   PO445744  25.574  40.475   5.388
 3452POPC   GL145745  25.494  40.673   5.822
 3452POPC   GL245746  25.142  40.831   5.814
 3452POPC   C1A45747  25.445  40.693   6.317
 3452POPC   D2A45748  25.189  40.694   6.725
 3452POPC   C3A45749  25.388  40.633   7.140
 3452POPC   C4A45750  25.218  40.390   7.524
 3452POPC   C1B45751  25.118  41.062   6.222
 3452POPC   C2B45752  24.984  41.159   6.663
 3452POPC   C3B45753  25.149  41.151   7.085
 3452POPC   C4B45754  25.186  41.443   7.433
 3453POPC   NC345755  19.460  43.506   5.501
 3453POPC   PO445756  20.026  43.178   5.227
 3453POPC   GL145757  20.065  43.399   5.714
 3453POPC   GL245758  19.753  43.507   5.910
 3453POPC   C1A45759  20.054  43.239   6.209
 3453POPC   D2A45760  20.170  43.231   6.674
 3453POPC   C3A45761  19.940  43.258   7.074
 3453POPC   C4A45762  20.037  43.320   7.533
 3453POPC   C1B45763  19.519  43.323   6.239
 3453POPC   C2B45764  19.602  43.273   6.678
 3453POPC   C3B45765  19.355  43.235   7.037
 3453POPC   C4B45766  19.586  43.040   7.355
 3454POPC   NC345767  39.760  27.847   5.412
 3454POPC   PO445768  40.247  27.374   5.387
 3454POPC   GL145769  40.089  27.403   5.808
 3454POPC   GL245770  39.796  27.619   5.865
 3454POPC   C1A45771  40.003  27.338   6.250
 3454POPC   D2A45772  40.131  27.643   6.514
 3454POPC   C3A45773  40.189  27.581   6.929
 3454POPC   C4A45774  40.373  27.858   7.228
 3454POPC   C1B45775  39.625  27.739   6.265
 3454POPC   C2B45776  39.651  27.524   6.631
 3454POPC   C3B45777  39.705  27.529   7.036
 3454POPC   C4B45778  39.611  27.445   7.438
 3455POPC   NC345779  23.281  34.893   5.376
 3455POPC   PO445780  22.681  34.537   5.346
 3455POPC   GL145781  22.873  34.574   5.774
 3455POPC   GL245782  23.102  34.841   5.851
 3455POPC   C1A45783  22.798  34.619   6.231
 3455POPC   D2A45784  22.525  34.549   6.603
 3455POPC   C3A45785  22.712  34.603   7.004
 3455POPC   C4A45786  22.568  34.715   7.400
 3455POPC   C1B45787  23.255  34.865   6.275
 3455POPC   C2B45788  23.096  34.862   6.719
 3455POPC   C3B45789  23.392  34.931   7.098
 3455POPC   C4B45790  23.328  34.956   7.554
 3456POPC   NC345791   5.063  10.141   5.572
 3456POPC   PO445792   4.735   9.537   5.388
 3456POPC   GL145793   4.948   9.677   5.751
 3456POPC   GL245794   4.803   9.456   5.956
 3456POPC   C1A45795   5.164   9.748   6.158
 3456POPC   D2A45796   5.258   9.560   6.571
 3456POPC   C3A45797   5.136   9.843   6.923
 3456POPC   C4A45798   5.231  10.005   7.346
 3456POPC   C1B45799   4.694   9.723   6.325
 3456POPC   C2B45800   4.674   9.587   6.739
 3456POPC   C3B45801   4.833   9.510   7.142
 3456POPC   C4B45802   4.735   9.915   7.321
 3457POPC   NC345803  42.368  18.011   5.461
 3457POPC   PO445804  42.355  18.619   5.665
 3457POPC   GL145805  42.375  18.266   5.922
 3457POPC   GL245806  42.072  18.163   5.849
 3457POPC   C1A45807  42.294  18.364   6.334
 3457POPC   D2A45808  42.430  18.650   6.627
 3457POPC   C3A45809  42.392  18.390   6.969
 3457POPC   C4A45810  42.497  18.412   7.376
 3457POPC   C1B45811  42.026  17.939   6.229
 3457POPC   C2B45812  42.231  17.925   6.639
 3457POPC   C3B45813  42.059  18.007   7.044
 3457POPC   C4B45814  42.251  17.975   7.477
 3458POPC   NC345815  44.528  11.557   5.433
 3458POPC   PO445816   0.033  11.135   5.405
 3458POPC   GL145817  44.903  11.019   5.793
 3458POPC   GL245818  44.590  11.221   5.802
 3458POPC   C1A45819  44.887  11.210   6.202
 3458POPC   D2A45820  44.702  11.066   6.561
 3458POPC   C3A45821  44.893  11.137   6.954
 3458POPC   C4A45822  44.676  10.917   7.264
 3458POPC   C1B45823  44.358  11.336   6.181
 3458POPC   C2B45824  44.406  11.482   6.568
 3458POPC   C3B45825  44.277  11.524   6.965
 3458POPC   C4B45826  44.614  11.456   7.231
 3459POPC   NC345827  43.653   9.317   5.391
 3459POPC   PO445828  43.959   8.630   5.443
 3459POPC   GL145829  43.970   8.967   5.756
 3459POPC   GL245830  43.639   8.968   5.758
 3459POPC   C1A45831  43.976   9.134   6.185
 3459POPC   D2A45832  43.992   9.206   6.631
 3459POPC   C3A45833  43.972   8.975   7.019
 3459POPC   C4A45834  44.295   8.820   7.257
 3459POPC   C1B45835  43.462   9.078   6.120
 3459POPC   C2B45836  43.503   9.127   6.523
 3459POPC   C3B45837  43.583   9.296   6.915
 3459POPC   C4B45838  43.544   9.083   7.313
 3460POPC   NC345839  17.867  40.780   5.094
 3460POPC   PO445840  17.256  40.483   5.278
 3460POPC   GL145841  17.293  40.496   5.759
 3460POPC   GL245842  17.641  40.479   5.919
 3460POPC   C1A45843  17.262  40.667   6.194
 3460POPC   D2A45844  17.231  40.448   6.576
 3460POPC   C3A45845  17.332  40.641   6.995
 3460POPC   C4A45846  17.362  41.097   7.107
 3460POPC   C1B45847  17.759  40.838   6.233
 3460POPC   C2B45848  18.041  40.963   6.617
 3460POPC   C3B45849  17.956  41.069   7.072
 3460POPC   C4B45850  17.698  40.817   7.357
 3461POPC   NC345851  39.215   0.079   5.496
 3461POPC   PO445852  38.943  44.353   5.439
 3461POPC   GL145853  39.053  44.645   5.792
 3461POPC   GL245854  38.915  44.974   5.914
 3461POPC   C1A45855  39.248  44.529   6.203
 3461POPC   D2A45856  39.004  44.632   6.593
 3461POPC   C3A45857  39.228  44.635   6.965
 3461POPC   C4A45858  39.638  44.539   7.139
 3461POPC   C1B45859  39.169   0.006   6.310
 3461POPC   C2B45860  39.496  44.801   6.570
 3461POPC   C3B45861  39.646   0.012   6.939
 3461POPC   C4B45862  39.465   0.118   7.330
 3462POPC   NC345863  38.999  25.076   5.444
 3462POPC   PO445864  38.370  25.252   5.254
 3462POPC   GL145865  38.394  25.205   5.687
 3462POPC   GL245866  38.606  24.929   5.770
 3462POPC   C1A45867  38.402  25.446   6.096
 3462POPC   D2A45868  38.292  25.580   6.529
 3462POPC   C3A45869  38.396  25.366   6.932
 3462POPC   C4A45870  38.183  25.252   7.308
 3462POPC   C1B45871  38.699  25.011   6.193
 3462POPC   C2B45872  38.778  25.133   6.606
 3462POPC   C3B45873  38.705  24.924   6.976
 3462POPC   C4B45874  38.614  24.989   7.383
 3463POPC   NC345875  13.885  37.843   5.534
 3463POPC   PO445876  13.299  37.480   5.364
 3463POPC   GL145877  13.536  37.582   5.813
 3463POPC   GL245878  13.840  37.362   5.844
 3463POPC   C1A45879  13.737  37.873   6.190
 3463POPC   D2A45880  14.092  37.878   6.535
 3463POPC   C3A45881  13.886  37.899   6.988
 3463POPC   C4A45882  13.435  37.817   7.152
 3463POPC   C1B45883  13.871  37.399   6.271
 3463POPC   C2B45884  13.743  37.531   6.664
 3463POPC   C3B45885  13.853  37.404   7.078
 3463POPC   C4B45886  13.633  37.428   7.458
 3464POPC   NC345887   0.010  27.773   5.165
 3464POPC   PO445888   0.586  27.445   5.437
 3464POPC   GL145889   0.557  27.675   5.832
 3464POPC   GL245890   0.550  28.075   5.788
 3464POPC   C1A45891   0.661  27.499   6.258
 3464POPC   D2A45892   0.447  27.452   6.648
 3464POPC   C3A45893   0.624  27.491   7.047
 3464POPC   C4A45894   0.469  27.446   7.434
 3464POPC   C1B45895   0.627  28.007   6.222
 3464POPC   C2B45896   0.437  27.975   6.627
 3464POPC   C3B45897   0.402  27.959   7.083
 3464POPC   C4B45898   0.152  27.845   7.432
 3465POPC   NC345899  36.039  43.935   5.221
 3465POPC   PO445900  35.913  43.397   5.620
 3465POPC   GL145901  36.050  43.758   5.864
 3465POPC   GL245902  36.213  44.074   5.780
 3465POPC   C1A45903  36.154  43.819   6.286
 3465POPC   D2A45904  36.024  43.678   6.692
 3465POPC   C3A45905  36.297  43.643   7.042
 3465POPC   C4A45906  36.200  43.598   7.484
 3465POPC   C1B45907  35.942  44.273   6.129
 3465POPC   C2B45908  35.789  44.115   6.554
 3465POPC   C3B45909  35.941  44.069   7.021
 3465POPC   C4B45910  36.260  44.128   7.353
 3466POPC   NC345911  20.890   4.359   5.291
 3466POPC   PO445912  20.428   4.068   5.626
 3466POPC   GL145913  20.511   4.423   5.906
 3466POPC   GL245914  20.819   4.556   5.809
 3466POPC   C1A45915  20.491   4.425   6.355
 3466POPC   D2A45916  20.202   4.435   6.690
 3466POPC   C3A45917  20.325   4.664   7.056
 3466POPC   C4A45918  20.274   4.287   7.256
 3466POPC   C1B45919  20.923   4.214   6.112
 3466POPC   C2B45920  20.892   4.144   6.553
 3466POPC   C3B45921  20.700   4.320   6.912
 3466POPC   C4B45922  20.743   4.146   7.327
 3467POPC   NC345923  19.519  17.604   5.490
 3467POPC   PO445924  19.755  16.996   5.385
 3467POPC   GL145925  19.877  17.293   5.765
 3467POPC   GL245926  20.054  17.628   5.707
 3467POPC   C1A45927  19.773  17.533   6.180
 3467POPC   D2A45928  19.616  17.649   6.629
 3467POPC   C3A45929  19.837  17.521   7.031
 3467POPC   C4A45930  19.619  17.195   7.297
 3467POPC   C1B45931  20.125  17.895   6.097
 3467POPC   C2B45932  20.119  17.745   6.531
 3467POPC   C3B45933  20.137  17.973   6.934
 3467POPC   C4B45934  20.163  17.866   7.377
 3468POPC   NC345935  31.020  24.591   5.482
 3468POPC   PO445936  30.450  24.175   5.420
 3468POPC   GL145937  30.542  24.444   5.769
 3468POPC   GL245938  30.476  24.806   5.681
 3468POPC   C1A45939  30.827  24.444   6.145
 3468POPC   D2A45940  31.018  24.655   6.507
 3468POPC   C3A45941  30.926  24.524   6.914
 3468POPC   C4A45942  31.119  24.662   7.274
 3468POPC   C1B45943  30.381  24.805   6.116
 3468POPC   C2B45944  30.485  24.622   6.487
 3468POPC   C3B45945  30.418  24.563   6.907
 3468POPC   C4B45946  30.582  24.531   7.318
 3469POPC   NC345947   4.677  16.479   5.346
 3469POPC   PO445948   4.244  17.007   5.478
 3469POPC   GL145949   4.342  16.781   5.810
 3469POPC   GL245950   4.664  16.702   5.813
 3469POPC   C1A45951   4.253  16.821   6.221
 3469POPC   D2A45952   4.215  16.607   6.594
 3469POPC   C3A45953   4.263  16.813   6.967
 3469POPC   C4A45954   4.432  16.655   7.334
 3469POPC   C1B45955   4.759  16.929   6.199
 3469POPC   C2B45956   4.585  16.982   6.601
 3469POPC   C3B45957   4.741  16.939   7.024
 3469POPC   C4B45958   4.818  16.973   7.493
 3470POPC   NC345959   2.242  20.374   5.342
 3470POPC   PO445960   1.722  20.706   5.573
 3470POPC   GL145961   1.867  20.497   5.933
 3470POPC   GL245962   2.176  20.654   5.830
 3470POPC   C1A45963   1.867  20.433   6.411
 3470POPC   D2A45964   1.793  20.404   6.897
 3470POPC   C3A45965   2.067  20.545   7.268
 3470POPC   C4A45966   2.253  20.716   7.653
 3470POPC   C1B45967   2.142  20.853   6.237
 3470POPC   C2B45968   2.135  20.776   6.677
 3470POPC   C3B45969   1.978  20.979   7.007
 3470POPC   C4B45970   2.183  21.279   7.217
 3471POPC   NC345971   3.950  31.772   5.490
 3471POPC   PO445972   3.288  32.088   5.567
 3471POPC   GL145973   3.644  32.177   5.813
 3471POPC   GL245974   3.832  31.890   5.963
 3471POPC   C1A45975   3.747  32.339   6.208
 3471POPC   D2A45976   3.521  32.333   6.596
 3471POPC   C3A45977   3.725  32.473   6.965
 3471POPC   C4A45978   3.896  32.694   7.290
 3471POPC   C1B45979   3.435  31.889   6.191
 3471POPC   C2B45980   3.452  31.800   6.601
 3471POPC   C3B45981   3.788  31.973   6.858
 3471POPC   C4B45982   3.574  32.013   7.222
 3472POPC   NC345983  40.086  18.255   5.132
 3472POPC   PO445984  39.523  18.470   5.516
 3472POPC   GL145985  39.871  18.220   5.737
 3472POPC   GL245986  40.149  18.393   5.935
 3472POPC   C1A45987  39.913  17.993   6.150
 3472POPC   D2A45988  40.004  18.193   6.563
 3472POPC   C3A45989  39.864  18.004   6.952
 3472POPC   C4A45990  40.157  17.927   7.274
 3472POPC   C1B45991  39.781  18.500   6.184
 3472POPC   C2B45992  39.683  18.609   6.620
 3472POPC   C3B45993  39.916  18.528   7.021
 3472POPC   C4B45994  39.955  18.481   7.488
 3473POPC   NC345995  37.206  29.825   5.432
 3473POPC   PO445996  36.584  29.729   5.248
 3473POPC   GL145997  36.834  29.843   5.751
 3473POPC   GL245998  36.974  30.190   5.750
 3473POPC   C1A45999  36.738  29.916   6.245
 3473POPC   D2A46000  36.862  30.148   6.623
 3473POPC   C3A46001  37.016  29.924   6.982
 3473POPC   C4A46002  36.661  29.953   7.246
 3473POPC   C1B46003  37.208  30.107   6.144
 3473POPC   C2B46004  37.322  30.322   6.539
 3473POPC   C3B46005  37.291  30.360   6.975
 3473POPC   C4B46006  37.072  30.222   7.366
 3474POPC   NC346007  29.152  31.800   5.481
 3474POPC   PO446008  29.135  32.469   5.341
 3474POPC   GL146009  29.080  32.266   5.735
 3474POPC   GL246010  28.947  32.576   5.841
 3474POPC   C1A46011  29.194  31.983   6.113
 3474POPC   D2A46012  29.417  31.849   6.489
 3474POPC   C3A46013  29.137  31.829   6.830
 3474POPC   C4A46014  29.189  32.114   7.169
 3474POPC   C1B46015  29.177  32.490   6.229
 3474POPC   C2B46016  29.272  32.328   6.650
 3474POPC   C3B46017  29.131  32.590   6.949
 3474POPC   C4B46018  29.055  32.590   7.363
 3475POPC   NC346019  37.818  35.104   5.584
 3475POPC   PO446020  37.425  34.578   5.377
 3475POPC   GL146021  37.661  34.513   5.729
 3475POPC   GL246022  37.872  34.261   5.572
 3475POPC   C1A46023  37.676  34.610   6.209
 3475POPC   D2A46024  37.660  34.437   6.645
 3475POPC   C3A46025  37.514  34.584   7.014
 3475POPC   C4A46026  37.558  34.557   7.471
 3475POPC   C1B46027  37.987  34.240   5.997
 3475POPC   C2B46028  38.046  34.256   6.390
 3475POPC   C3B46029  38.139  34.408   6.775
 3475POPC   C4B46030  37.905  34.266   7.126
 3476POPC   NC346031  38.042  18.745   5.529
 3476POPC   PO446032  37.721  18.194   5.267
 3476POPC   GL146033  37.635  18.285   5.737
 3476POPC   GL246034  37.350  18.502   5.883
 3476POPC   C1A46035  37.813  18.048   6.087
 3476POPC   D2A46036  37.964  18.136   6.497
 3476POPC   C3A46037  37.733  18.274   6.852
 3476POPC   C4A46038  37.858  18.142   7.292
 3476POPC   C1B46039  37.659  18.535   6.245
 3476POPC   C2B46040  38.021  18.657   6.520
 3476POPC   C3B46041  38.117  18.595   6.929
 3476POPC   C4B46042  37.805  18.644   7.219
 3477POPC   NC346043   5.818   2.517   5.392
 3477POPC   PO446044   6.222   3.061   5.547
 3477POPC   GL146045   6.051   2.752   5.849
 3477POPC   GL246046   5.762   2.481   5.886
 3477POPC   C1A46047   5.993   2.680   6.296
 3477POPC   D2A46048   5.632   2.567   6.566
 3477POPC   C3A46049   5.819   2.499   6.978
 3477POPC   C4A46050   6.128   2.809   7.146
 3477POPC   C1B46051   5.563   2.856   6.086
 3477POPC   C2B46052   5.564   3.073   6.509
 3477POPC   C3B46053   5.623   2.963   6.949
 3477POPC   C4B46054   5.680   2.848   7.403
 3478POPC   NC346055  44.088  16.284   5.570
 3478POPC   PO446056  43.430  16.180   5.446
 3478POPC   GL146057  43.722  15.977   5.790
 3478POPC   GL246058  44.081  15.834   5.875
 3478POPC   C1A46059  43.837  16.110   6.210
 3478POPC   D2A46060  43.941  16.242   6.612
 3478POPC   C3A46061  43.937  15.907   6.878
 3478POPC   C4A46062  44.116  16.157   7.189
 3478POPC   C1B46063  44.309  15.837   6.293
 3478POPC   C2B46064  44.430  15.633   6.663
 3478POPC   C3B46065  44.367  15.719   7.086
 3478POPC   C4B46066  44.025  15.678   7.375
 3479POPC   NC346067  15.909  11.037   5.390
 3479POPC   PO446068  15.620  11.639   5.419
 3479POPC   GL146069  15.686  11.566   5.877
 3479POPC   GL246070  15.765  11.210   5.962
 3479POPC   C1A46071  15.574  11.561   6.337
 3479POPC   D2A46072  15.640  11.286   6.694
 3479POPC   C3A46073  15.792  11.434   7.116
 3479POPC   C4A46074  15.831  11.741   7.465
 3479POPC   C1B46075  16.029  11.303   6.338
 3479POPC   C2B46076  16.173  11.230   6.787
 3479POPC   C3B46077  16.162  11.076   7.220
 3479POPC   C4B46078  16.027  10.706   7.475
 3480POPC   NC346079  36.922  18.036   5.358
 3480POPC   PO446080  36.841  18.600   5.582
 3480POPC   GL146081  36.885  18.276   5.921
 3480POPC   GL246082  37.146  18.027   5.834
 3480POPC   C1A46083  36.861  18.288   6.397
 3480POPC   D2A46084  36.848  18.611   6.743
 3480POPC   C3A46085  36.921  18.490   7.155
 3480POPC   C4A46086  36.730  18.135   7.371
 3480POPC   C1B46087  37.315  18.081   6.253
 3480POPC   C2B46088  37.171  17.846   6.641
 3480POPC   C3B46089  37.152  17.900   7.061
 3480POPC   C4B46090  37.363  18.231   7.227
 3481POPC   NC346091  36.710  26.624   5.259
 3481POPC   PO446092  37.077  27.199   5.397
 3481POPC   GL146093  36.883  26.889   5.692
 3481POPC   GL246094  36.812  26.519   5.750
 3481POPC   C1A46095  36.608  26.889   6.070
 3481POPC   D2A46096  36.567  27.126   6.461
 3481POPC   C3A46097  36.797  26.959   6.805
 3481POPC   C4A46098  36.670  26.966   7.237
 3481POPC   C1B46099  36.676  26.382   6.167
 3481POPC   C2B46100  36.847  26.508   6.561
 3481POPC   C3B46101  36.670  26.508   6.993
 3481POPC   C4B46102  36.932  26.418   7.338
 3482POPC   NC346103  41.023  20.885   5.076
 3482POPC   PO446104  40.584  20.445   5.392
 3482POPC   GL146105  40.716  20.726   5.743
 3482POPC   GL246106  40.482  20.583   5.979
 3482POPC   C1A46107  40.831  20.869   6.183
 3482POPC   D2A46108  40.614  20.873   6.575
 3482POPC   C3A46109  40.850  20.704   6.891
 3482POPC   C4A46110  40.846  20.772   7.315
 3482POPC   C1B46111  40.639  20.389   6.369
 3482POPC   C2B46112  40.957  20.082   6.521
 3482POPC   C3B46113  41.116  20.071   6.930
 3482POPC   C4B46114  40.810  20.254   7.215
 3483POPC   NC346115  23.569  20.438   5.423
 3483POPC   PO446116  23.800  21.088   5.468
 3483POPC   GL146117  23.827  20.740   5.773
 3483POPC   GL246118  23.466  20.672   5.895
 3483POPC   C1A46119  23.866  20.435   6.131
 3483POPC   D2A46120  23.681  20.444   6.545
 3483POPC   C3A46121  23.794  20.230   6.918
 3483POPC   C4A46122  23.666  20.428   7.285
 3483POPC   C1B46123  23.153  20.870   6.190
 3483POPC   C2B46124  23.039  20.916   6.646
 3483POPC   C3B46125  23.317  20.761   7.015
 3483POPC   C4B46126  23.490  20.876   7.457
 3484POPC   NC346127  33.932   5.700   5.129
 3484POPC   PO446128  33.479   6.198   5.258
 3484POPC   GL146129  33.691   5.945   5.626
 3484POPC   GL246130  34.011   6.090   5.755
 3484POPC   C1A46131  33.611   5.842   6.091
 3484POPC   D2A46132  33.540   6.088   6.487
 3484POPC   C3A46133  33.540   5.851   6.897
 3484POPC   C4A46134  33.561   5.596   7.309
 3484POPC   C1B46135  34.114   5.898   6.140
 3484POPC   C2B46136  33.960   5.801   6.554
 3484POPC   C3B46137  34.035   5.938   6.969
 3484POPC   C4B46138  34.205   5.681   7.236
 3485POPC   NC346139  42.866  27.975   5.456
 3485POPC   PO446140  43.299  28.500   5.399
 3485POPC   GL146141  43.147  28.511   5.836
 3485POPC   GL246142  42.843  28.275   5.881
 3485POPC   C1A46143  43.086  28.573   6.303
 3485POPC   D2A46144  42.978  28.559   6.749
 3485POPC   C3A46145  43.121  28.205   7.000
 3485POPC   C4A46146  43.014  28.253   7.469
 3485POPC   C1B46147  42.813  27.959   6.230
 3485POPC   C2B46148  42.741  28.121   6.649
 3485POPC   C3B46149  42.653  28.222   7.096
 3485POPC   C4B46150  42.640  27.847   7.246
 3486POPC   NC346151  28.321   1.289   5.398
 3486POPC   PO446152  28.878   0.815   5.432
 3486POPC   GL146153  28.562   1.023   5.746
 3486POPC   GL246154  28.206   1.120   5.846
 3486POPC   C1A46155  28.529   1.410   6.096
 3486POPC   D2A46156  28.669   1.644   6.474
 3486POPC   C3A46157  28.526   1.432   6.851
 3486POPC   C4A46158  28.261   1.556   7.227
 3486POPC   C1B46159  28.396   0.918   6.217
 3486POPC   C2B46160  28.520   0.916   6.660
 3486POPC   C3B46161  28.545   0.954   7.128
 3486POPC   C4B46162  28.270   1.098   7.457
 3487POPC   NC346163  31.077  27.671   5.598
 3487POPC   PO446164  31.538  27.212   5.444
 3487POPC   GL146165  31.516  27.477   5.813
 3487POPC   GL246166  31.244  27.393   5.980
 3487POPC   C1A46167  31.626  27.653   6.227
 3487POPC   D2A46168  31.551  27.858   6.618
 3487POPC   C3A46169  31.325  27.664   6.928
 3487POPC   C4A46170  31.600  27.711   7.272
 3487POPC   C1B46171  31.399  27.190   6.326
 3487POPC   C2B46172  31.431  27.182   6.756
 3487POPC   C3B46173  31.421  27.235   7.206
 3487POPC   C4B46174  31.201  27.210   7.632
 3488POPC   NC346175   5.389  10.495   5.271
 3488POPC   PO446176   4.777  10.742   5.560
 3488POPC   GL146177   4.850  10.493   5.874
 3488POPC   GL246178   5.218  10.593   5.785
 3488POPC   C1A46179   4.942  10.208   6.212
 3488POPC   D2A46180   5.232  10.186   6.550
 3488POPC   C3A46181   5.141  10.378   6.979
 3488POPC   C4A46182   5.458  10.464   7.333
 3488POPC   C1B46183   5.214  10.641   6.235
 3488POPC   C2B46184   4.849  10.619   6.531
 3488POPC   C3B46185   4.728  10.852   6.901
 3488POPC   C4B46186   5.077  11.002   7.179
 3489POPC   NC346187  43.332  39.492   5.452
 3489POPC   PO446188  42.861  39.927   5.365
 3489POPC   GL146189  43.143  39.898   5.745
 3489POPC   GL246190  43.496  39.992   5.803
 3489POPC   C1A46191  43.220  39.802   6.198
 3489POPC   D2A46192  43.128  40.030   6.590
 3489POPC   C3A46193  43.198  39.786   6.966
 3489POPC   C4A46194  43.197  39.832   7.402
 3489POPC   C1B46195  43.668  40.113   6.231
 3489POPC   C2B46196  43.555  40.331   6.651
 3489POPC   C3B46197  43.404  40.224   7.081
 3489POPC   C4B46198  43.434  40.260   7.544
 3490POPC   NC346199  43.972  13.991   5.357
 3490POPC   PO446200  43.819  14.615   5.333
 3490POPC   GL146201  43.962  14.509   5.753
 3490POPC   GL246202  44.047  14.169   5.811
 3490POPC   C1A46203  43.814  14.421   6.203
 3490POPC   D2A46204  43.677  14.265   6.617
 3490POPC   C3A46205  43.911  14.239   7.009
 3490POPC   C4A46206  43.943  14.467   7.405
 3490POPC   C1B46207  44.311  14.128   6.167
 3490POPC   C2B46208  44.186  14.293   6.548
 3490POPC   C3B46209  44.370  14.079   6.879
 3490POPC   C4B46210  44.348  14.140   7.306
 3491POPC   NC346211  24.320  18.846   5.512
 3491POPC   PO446212  24.995  18.689   5.570
 3491POPC   GL146213  24.678  18.801   5.871
 3491POPC   GL246214  24.484  19.104   5.921
 3491POPC   C1A46215  24.452  18.694   6.259
 3491POPC   D2A46216  24.291  18.825   6.675
 3491POPC   C3A46217  24.629  19.007   6.956
 3491POPC   C4A46218  24.966  18.811   7.185
 3491POPC   C1B46219  24.085  19.035   6.154
 3491POPC   C2B46220  23.876  19.131   6.534
 3491POPC   C3B46221  23.974  19.283   6.928
 3491POPC   C4B46222  24.334  19.402   7.185
 3492POPC   NC346223   1.841  35.757   5.440
 3492POPC   PO446224   2.168  35.121   5.477
 3492POPC   GL146225   1.920  35.368   5.786
 3492POPC   GL246226   2.141  35.680   5.830
 3492POPC   C1A46227   1.765  35.254   6.204
 3492POPC   D2A46228   1.940  35.331   6.594
 3492POPC   C3A46229   1.732  35.400   6.955
 3492POPC   C4A46230   1.901  35.311   7.348
 3492POPC   C1B46231   2.235  35.509   6.208
 3492POPC   C2B46232   2.471  35.487   6.570
 3492POPC   C3B46233   2.326  35.356   6.946
 3492POPC   C4B46234   2.408  35.379   7.342
 3493POPC   NC346235  40.066  26.901   5.520
 3493POPC   PO446236  40.558  26.433   5.260
 3493POPC   GL146237  40.279  26.330   5.727
 3493POPC   GL246238  39.871  26.385   5.783
 3493POPC   C1A46239  40.160  26.567   6.151
 3493POPC   D2A46240  40.083  26.747   6.567
 3493POPC   C3A46241  39.899  27.094   6.776
 3493POPC   C4A46242  39.997  27.156   7.203
 3493POPC   C1B46243  39.630  26.455   6.200
 3493POPC   C2B46244  39.603  26.588   6.679
 3493POPC   C3B46245  39.890  26.646   7.069
 3493POPC   C4B46246  39.964  26.505   7.520
 3494POPC   NC346247   2.817  37.678   5.220
 3494POPC   PO446248   3.273  37.206   5.453
 3494POPC   GL146249   3.091  37.557   5.705
 3494POPC   GL246250   2.824  37.844   5.706
 3494POPC   C1A46251   2.996  37.657   6.147
 3494POPC   D2A46252   3.132  37.852   6.513
 3494POPC   C3A46253   2.880  37.832   6.840
 3494POPC   C4A46254   2.954  37.747   7.247
 3494POPC   C1B46255   2.552  37.871   6.099
 3494POPC   C2B46256   2.441  37.777   6.556
 3494POPC   C3B46257   2.491  37.528   6.964
 3494POPC   C4B46258   2.667  37.312   7.315
 3495POPC   NC346259  32.125  28.581   5.509
 3495POPC   PO446260  32.233  27.933   5.469
 3495POPC   GL146261  32.371  28.121   5.839
 3495POPC   GL246262  32.035  28.239   5.913
 3495POPC   C1A46263  32.383  28.171   6.303
 3495POPC   D2A46264  32.037  28.140   6.602
 3495POPC   C3A46265  32.134  28.341   6.981
 3495POPC   C4A46266  32.472  28.373   7.257
 3495POPC   C1B46267  32.006  28.553   6.260
 3495POPC   C2B46268  31.940  28.740   6.674
 3495POPC   C3B46269  31.764  28.654   7.106
 3495POPC   C4B46270  32.056  28.592   7.447
 3496POPC   NC346271  24.013  32.432   5.589
 3496POPC   PO446272  23.415  32.072   5.445
 3496POPC   GL146273  23.605  32.197   5.838
 3496POPC   GL246274  23.880  31.972   5.901
 3496POPC   C1A46275  23.815  32.368   6.233
 3496POPC   D2A46276  23.906  32.152   6.646
 3496POPC   C3A46277  23.827  32.379   7.033
 3496POPC   C4A46278  23.797  32.688   7.382
 3496POPC   C1B46279  23.600  31.890   6.264
 3496POPC   C2B46280  23.589  31.729   6.684
 3496POPC   C3B46281  23.682  31.861   7.112
 3496POPC   C4B46282  23.485  31.810   7.541
 3497POPC   NC346283  10.683   8.455   5.351
 3497POPC   PO446284  10.128   8.137   5.192
 3497POPC   GL146285  10.323   8.313   5.688
 3497POPC   GL246286  10.654   8.272   5.823
 3497POPC   C1A46287  10.294   8.382   6.166
 3497POPC   D2A46288  10.370   8.153   6.573
 3497POPC   C3A46289  10.403   8.355   6.982
 3497POPC   C4A46290  10.470   8.157   7.357
 3497POPC   C1B46291  10.753   8.092   6.208
 3497POPC   C2B46292  10.866   8.190   6.621
 3497POPC   C3B46293  10.747   7.954   6.967
 3497POPC   C4B46294  10.919   7.913   7.347
 3498POPC   NC346295  36.985  39.415   5.463
 3498POPC   PO446296  37.428  38.959   5.410
 3498POPC   GL146297  37.180  39.036   5.791
 3498POPC   GL246298  36.816  39.046   5.761
 3498POPC   C1A46299  37.180  39.154   6.213
 3498POPC   D2A46300  36.885  39.215   6.546
 3498POPC   C3A46301  37.010  39.156   6.938
 3498POPC   C4A46302  36.992  39.463   7.218
 3498POPC   C1B46303  36.697  38.972   6.139
 3498POPC   C2B46304  36.389  39.074   6.418
 3498POPC   C3B46305  36.412  39.069   6.846
 3498POPC   C4B46306  36.598  39.142   7.235
 3499POPC   NC346307  43.236  40.171   5.284
 3499POPC   PO446308  43.357  40.830   5.350
 3499POPC   GL146309  43.211  40.794   5.769
 3499POPC   GL246310  43.351  40.469   5.740
 3499POPC   C1A46311  42.982  40.833   6.174
 3499POPC   D2A46312  42.977  40.544   6.538
 3499POPC   C3A46313  42.996  40.801   6.902
 3499POPC   C4A46314  42.902  40.678   7.325
 3499POPC   C1B46315  43.368  40.502   6.172
 3499POPC   C2B46316  43.414  40.807   6.463
 3499POPC   C3B46317  43.523  40.881   6.853
 3499POPC   C4B46318  43.409  40.711   7.214
 3500POPC   NC346319  43.060   7.845   5.247
 3500POPC   PO446320  42.637   7.370   5.449
 3500POPC   GL146321  42.784   7.379   5.857
 3500POPC   GL246322  43.148   7.289   5.889
 3500POPC   C1A46323  42.797   7.337   6.301
 3500POPC   D2A46324  43.067   7.328   6.672
 3500POPC   C3A46325  42.900   7.457   7.059
 3500POPC   C4A46326  43.022   7.560   7.494
 3500POPC   C1B46327  43.252   7.529   6.228
 3500POPC   C2B46328  43.297   7.794   6.609
 3500POPC   C3B46329  43.364   7.698   7.063
 3500POPC   C4B46330  43.461   7.355   7.367
 3501POPC   NC346331  14.523  43.680   5.562
 3501POPC   PO446332  13.892  43.754   5.531
 3501POPC   GL146333  14.147  43.771   5.943
 3501POPC   GL246334  14.379  44.059   5.901
 3501POPC   C1A46335  14.167  43.633   6.402
 3501POPC   D2A46336  14.480  43.769   6.740
 3501POPC   C3A46337  14.510  43.646   7.177
 3501POPC   C4A46338  14.189  43.641   7.502
 3501POPC   C1B46339  14.716  44.288   6.137
 3501POPC   C2B46340  14.788  44.175   6.573
 3501POPC   C3B46341  14.534  44.243   6.951
 3501POPC   C4B46342  14.312  44.599   7.149
 3502POPC   NC346343  16.111  20.042   5.448
 3502POPC   PO446344  16.153  20.619   5.065
 3502POPC   GL146345  16.098  20.573   5.566
 3502POPC   GL246346  15.803  20.430   5.740
 3502POPC   C1A46347  16.200  20.576   6.049
 3502POPC   D2A46348  16.226  20.495   6.527
 3502POPC   C3A46349  16.093  20.572   6.963
 3502POPC   C4A46350  16.203  20.258   7.295
 3502POPC   C1B46351  15.712  20.547   6.181
 3502POPC   C2B46352  15.717  20.683   6.606
 3502POPC   C3B46353  15.561  20.623   6.986
 3502POPC   C4B46354  15.753  20.477   7.346
 3503POPC   NC346355  40.706  25.484   5.220
 3503POPC   PO446356  40.913  24.847   5.138
 3503POPC   GL146357  40.890  25.154   5.552
 3503POPC   GL246358  40.634  25.417   5.700
 3503POPC   C1A46359  40.944  25.227   6.024
 3503POPC   D2A46360  41.028  25.246   6.458
 3503POPC   C3A46361  40.803  25.038   6.753
 3503POPC   C4A46362  41.029  25.198   7.086
 3503POPC   C1B46363  40.603  25.627   6.102
 3503POPC   C2B46364  40.548  25.479   6.503
 3503POPC   C3B46365  40.709  25.532   6.900
 3503POPC   C4B46366  40.583  25.403   7.279
 3504POPC   NC346367  38.427   9.314   4.997
 3504POPC   PO446368  38.200   9.072   5.537
 3504POPC   GL146369  38.438   9.125   5.890
 3504POPC   GL246370  38.771   9.022   5.811
 3504POPC   C1A46371  38.347   9.138   6.317
 3504POPC   D2A46372  38.504   8.917   6.660
 3504POPC   C3A46373  38.227   9.018   6.999
 3504POPC   C4A46374  38.448   9.060   7.371
 3504POPC   C1B46375  38.846   8.983   6.244
 3504POPC   C2B46376  39.043   8.970   6.655
 3504POPC   C3B46377  38.851   8.921   7.055
 3504POPC   C4B46378  38.931   8.972   7.485
 3505POPC   NC346379  37.647  21.294   5.420
 3505POPC   PO446380  37.934  20.797   5.744
 3505POPC   GL146381  37.913  21.244   5.873
 3505POPC   GL246382  37.793  21.620   5.809
 3505POPC   C1A46383  38.017  21.468   6.244
 3505POPC   D2A46384  38.108  21.339   6.634
 3505POPC   C3A46385  37.887  21.477   6.986
 3505POPC   C4A46386  37.865  21.157   7.318
 3505POPC   C1B46387  37.522  21.427   6.162
 3505POPC   C2B46388  37.562  21.263   6.594
 3505POPC   C3B46389  37.439  21.205   6.994
 3505POPC   C4B46390  37.481  21.515   7.289
 3506POPC   NC346391  24.266  16.441   5.447
 3506POPC   PO446392  24.689  16.951   5.383
 3506POPC   GL146393  24.482  16.883   5.805
 3506POPC   GL246394  24.240  16.616   5.914
 3506POPC   C1A46395  24.639  16.657   6.198
 3506POPC   D2A46396  24.631  16.459   6.585
 3506POPC   C3A46397  24.765  16.750   6.904
 3506POPC   C4A46398  24.751  16.583   7.293
 3506POPC   C1B46399  24.196  16.925   6.236
 3506POPC   C2B46400  24.290  16.826   6.644
 3506POPC   C3B46401  24.295  16.646   7.046
 3506POPC   C4B46402  24.256  16.822   7.428
 3507POPC   NC346403  43.618  24.885   5.146
 3507POPC   PO446404  43.113  24.532   5.364
 3507POPC   GL146405  43.143  24.548   5.785
 3507POPC   GL246406  42.797  24.595   5.884
 3507POPC   C1A46407  43.190  24.374   6.194
 3507POPC   D2A46408  43.104  24.575   6.577
 3507POPC   C3A46409  43.402  24.540   6.914
 3507POPC   C4A46410  43.190  24.235   7.160
 3507POPC   C1B46411  42.626  24.620   6.325
 3507POPC   C2B46412  42.663  24.843   6.741
 3507POPC   C3B46413  42.654  24.792   7.184
 3507POPC   C4B46414  42.731  24.602   7.675
 3508POPC   NC346415  31.291  33.130   5.524
 3508POPC   PO446416  31.883  32.854   5.630
 3508POPC   GL146417  31.614  33.115   5.925
 3508POPC   GL246418  31.586  33.484   5.808
 3508POPC   C1A46419  31.299  32.931   6.255
 3508POPC   D2A46420  31.365  32.602   6.603
 3508POPC   C3A46421  31.455  32.756   7.037
 3508POPC   C4A46422  31.091  32.873   7.242
 3508POPC   C1B46423  31.302  33.447   6.183
 3508POPC   C2B46424  31.109  33.472   6.589
 3508POPC   C3B46425  31.245  33.256   6.953
 3508POPC   C4B46426  31.615  33.221   7.243
 3509POPC   NC346427  27.861  22.634   5.527
 3509POPC   PO446428  27.594  23.215   5.487
 3509POPC   GL146429  27.517  22.954   5.879
 3509POPC   GL246430  27.218  23.109   5.924
 3509POPC   C1A46431  27.661  22.829   6.330
 3509POPC   D2A46432  27.633  22.499   6.677
 3509POPC   C3A46433  27.754  22.572   7.151
 3509POPC   C4A46434  28.002  22.548   7.568
 3509POPC   C1B46435  27.296  23.181   6.304
 3509POPC   C2B46436  27.581  23.258   6.627
 3509POPC   C3B46437  27.498  22.985   6.963
 3509POPC   C4B46438  27.297  23.049   7.343
 3510POPC   NC346439  43.740  11.662   5.300
 3510POPC   PO446440  44.194  11.218   5.483
 3510POPC   GL146441  44.006  11.217   5.829
 3510POPC   GL246442  43.680  11.350   5.754
 3510POPC   C1A46443  43.923  11.057   6.241
 3510POPC   D2A46444  43.926  11.326   6.597
 3510POPC   C3A46445  43.891  11.152   6.982
 3510POPC   C4A46446  44.201  11.091   7.267
 3510POPC   C1B46447  43.824  11.566   6.149
 3510POPC   C2B46448  43.735  11.807   6.537
 3510POPC   C3B46449  43.748  11.676   6.963
 3510POPC   C4B46450  43.696  11.529   7.379
 3511POPC   NC346451  34.529  12.545   5.346
 3511POPC   PO446452  34.715  13.212   5.457
 3511POPC   GL146453  34.733  12.977   5.815
 3511POPC   GL246454  34.406  13.083   5.936
 3511POPC   C1A46455  34.836  13.095   6.233
 3511POPC   D2A46456  34.582  13.235   6.590
 3511POPC   C3A46457  34.669  13.013   6.950
 3511POPC   C4A46458  35.026  12.884   7.162
 3511POPC   C1B46459  34.378  12.842   6.329
 3511POPC   C2B46460  34.272  12.740   6.752
 3511POPC   C3B46461  34.252  12.735   7.194
 3511POPC   C4B46462  34.306  12.670   7.637
 3512POPC   NC346463  16.549  41.435   5.595
 3512POPC   PO446464  17.244  41.453   5.520
 3512POPC   GL146465  16.981  41.554   5.862
 3512POPC   GL246466  16.729  41.802   5.878
 3512POPC   C1A46467  16.834  41.450   6.254
 3512POPC   D2A46468  17.032  41.332   6.621
 3512POPC   C3A46469  16.759  41.505   6.872
 3512POPC   C4A46470  16.674  41.556   7.257
 3512POPC   C1B46471  16.430  41.862   6.250
 3512POPC   C2B46472  16.375  41.854   6.721
 3512POPC   C3B46473  16.498  42.010   7.134
 3512POPC   C4B46474  16.411  41.843   7.576
 3513POPC   NC346475  32.612   9.840   5.493
 3513POPC   PO446476  32.134   9.410   5.460
 3513POPC   GL146477  32.297   9.587   5.809
 3513POPC   GL246478  32.217   9.921   5.824
 3513POPC   C1A46479  32.155   9.634   6.231
 3513POPC   D2A46480  32.239   9.887   6.576
 3513POPC   C3A46481  32.182   9.605   6.918
 3513POPC   C4A46482  31.889   9.643   7.248
 3513POPC   C1B46483  32.536  10.034   6.134
 3513POPC   C2B46484  32.557  10.293   6.511
 3513POPC   C3B46485  32.551  10.154   6.914
 3513POPC   C4B46486  32.274  10.006   7.208
 3514POPC   NC346487   2.174  10.740   5.370
 3514POPC   PO446488   1.616  10.470   5.239
 3514POPC   GL146489   1.745  10.461   5.656
 3514POPC   GL246490   1.766  10.773   5.751
 3514POPC   C1A46491   1.791  10.360   6.109
 3514POPC   D2A46492   1.929  10.452   6.553
 3514POPC   C3A46493   1.695  10.401   6.962
 3514POPC   C4A46494   1.764  10.291   7.419
 3514POPC   C1B46495   2.020  10.822   6.105
 3514POPC   C2B46496   2.092  10.930   6.519
 3514POPC   C3B46497   2.052  10.784   6.937
 3514POPC   C4B46498   2.214  10.473   7.228
 3515POPC   NC346499  31.319  43.615   5.285
 3515POPC   PO446500  31.685  44.223   5.216
 3515POPC   GL146501  31.509  44.166   5.679
 3515POPC   GL246502  31.311  43.851   5.726
 3515POPC   C1A46503  31.611  43.995   6.137
 3515POPC   D2A46504  31.795  43.918   6.579
 3515POPC   C3A46505  31.622  43.839   7.006
 3515POPC   C4A46506  31.703  43.922   7.462
 3515POPC   C1B46507  31.352  43.562   6.075
 3515POPC   C2B46508  31.296  43.680   6.508
 3515POPC   C3B46509  31.137  43.553   6.894
 3515POPC   C4B46510  31.338  43.508   7.263
 3516POPC   NC346511  30.563  20.255   5.529
 3516POPC   PO446512  30.992  19.688   5.312
 3516POPC   GL146513  31.023  19.877   5.737
 3516POPC   GL246514  30.685  19.853   5.815
 3516POPC   C1A46515  31.027  19.994   6.203
 3516POPC   D2A46516  31.131  20.195   6.617
 3516POPC   C3A46517  30.975  20.029   7.003
 3516POPC   C4A46518  30.687  19.659   7.042
 3516POPC   C1B46519  30.514  19.996   6.209
 3516POPC   C2B46520  30.598  20.024   6.654
 3516POPC   C3B46521  30.431  20.122   7.084
 3516POPC   C4B46522  30.046  20.168   7.307
 3517POPC   NC346523  24.067  12.022   5.349
 3517POPC   PO446524  23.366  11.912   5.311
 3517POPC   GL146525  23.626  12.045   5.673
 3517POPC   GL246526  23.630  11.780   5.922
 3517POPC   C1A46527  23.810  12.231   6.071
 3517POPC   D2A46528  24.070  12.261   6.467
 3517POPC   C3A46529  23.932  12.197   6.916
 3517POPC   C4A46530  23.964  12.282   7.371
 3517POPC   C1B46531  23.903  11.760   6.310
 3517POPC   C2B46532  23.796  11.710   6.759
 3517POPC   C3B46533  23.855  11.765   7.199
 3517POPC   C4B46534  23.982  11.820   7.625
 3518POPC   NC346535  28.013   9.371   5.638
 3518POPC   PO446536  27.615   9.083   5.288
 3518POPC   GL146537  27.595   9.008   5.717
 3518POPC   GL246538  27.245   9.050   5.778
 3518POPC   C1A46539  27.791   8.904   6.106
 3518POPC   D2A46540  27.878   9.191   6.459
 3518POPC   C3A46541  27.676   9.159   6.872
 3518POPC   C4A46542  27.764   8.908   7.229
 3518POPC   C1B46543  27.201   8.828   6.183
 3518POPC   C2B46544  27.468   8.852   6.507
 3518POPC   C3B46545  27.443   8.696   6.892
 3518POPC   C4B46546  27.209   8.923   7.154
 3519POPC   NC346547  34.975  14.254   5.248
 3519POPC   PO446548  34.366  14.475   5.413
 3519POPC   GL146549  34.642  14.253   5.699
 3519POPC   GL246550  34.591  14.552   5.914
 3519POPC   C1A46551  34.617  14.099   6.163
 3519POPC   D2A46552  34.378  14.219   6.568
 3519POPC   C3A46553  34.629  14.189   6.957
 3519POPC   C4A46554  34.543  14.412   7.320
 3519POPC   C1B46555  34.849  14.640   6.253
 3519POPC   C2B46556  34.842  14.532   6.673
 3519POPC   C3B46557  34.873  14.735   7.094
 3519POPC   C4B46558  34.827  14.856   7.555
 3520POPC   NC346559  33.059  38.837   5.508
 3520POPC   PO446560  33.263  38.178   5.340
 3520POPC   GL146561  33.309  38.200   5.791
 3520POPC   GL246562  33.213  38.494   5.843
 3520POPC   C1A46563  33.048  38.123   6.167
 3520POPC   D2A46564  32.787  38.096   6.535
 3520POPC   C3A46565  33.022  38.123   6.912
 3520POPC   C4A46566  33.041  38.521   7.136
 3520POPC   C1B46567  32.969  38.643   6.184
 3520POPC   C2B46568  33.054  38.569   6.603
 3520POPC   C3B46569  33.232  38.923   6.824
 3520POPC   C4B46570  33.432  38.889   7.211
 3521POPC   NC346571   3.483  32.478   5.391
 3521POPC   PO446572   3.701  33.169   5.541
 3521POPC   GL146573   3.353  32.946   5.788
 3521POPC   GL246574   3.218  32.579   5.795
 3521POPC   C1A46575   3.476  32.798   6.210
 3521POPC   D2A46576   3.839  32.770   6.509
 3521POPC   C3A46577   3.760  32.988   6.887
 3521POPC   C4A46578   3.838  33.204   7.268
 3521POPC   C1B46579   3.208  32.375   6.167
 3521POPC   C2B46580   3.070  32.567   6.537
 3521POPC   C3B46581   3.156  32.539   6.988
 3521POPC   C4B46582   3.296  32.900   7.203
 3522POPC   NC346583  37.927  25.346   5.384
 3522POPC   PO446584  37.197  25.305   5.349
 3522POPC   GL146585  37.536  25.148   5.694
 3522POPC   GL246586  37.667  25.442   5.807
 3522POPC   C1A46587  37.615  25.052   6.177
 3522POPC   D2A46588  37.798  25.053   6.646
 3522POPC   C3A46589  37.629  25.009   7.107
 3522POPC   C4A46590  37.777  24.956   7.559
 3522POPC   C1B46591  37.857  25.545   6.193
 3522POPC   C2B46592  37.680  25.551   6.595
 3522POPC   C3B46593  37.852  25.465   6.986
 3522POPC   C4B46594  37.725  25.439   7.436
 3523POPC   NC346595  37.248  38.575   5.562
 3523POPC   PO446596  37.847  38.193   5.590
 3523POPC   GL146597  37.652  38.431   5.915
 3523POPC   GL246598  37.660  38.789   5.840
 3523POPC   C1A46599  37.728  38.377   6.348
 3523POPC   D2A46600  37.568  38.483   6.745
 3523POPC   C3A46601  37.629  38.320   7.127
 3523POPC   C4A46602  37.433  38.352   7.542
 3523POPC   C1B46603  37.653  38.897   6.270
 3523POPC   C2B46604  37.943  38.811   6.600
 3523POPC   C3B46605  37.964  38.711   7.039
 3523POPC   C4B46606  37.722  38.741   7.443
 3524POPC   NC346607  27.270  32.000   5.577
 3524POPC   PO446608  26.725  32.387   5.400
 3524POPC   GL146609  26.687  32.251   5.785
 3524POPC   GL246610  26.774  31.913   5.733
 3524POPC   C1A46611  26.929  32.305   6.167
 3524POPC   D2A46612  26.929  32.517   6.578
 3524POPC   C3A46613  26.587  32.604   6.869
 3524POPC   C4A46614  26.852  32.425   7.197
 3524POPC   C1B46615  26.611  31.908   6.144
 3524POPC   C2B46616  26.517  32.190   6.478
 3524POPC   C3B46617  26.583  32.100   6.899
 3524POPC   C4B46618  26.632  31.943   7.276
 3525POPC   NC346619  16.946  20.104   5.657
 3525POPC   PO446620  16.506  19.857   5.207
 3525POPC   GL146621  16.659  19.670   5.707
 3525POPC   GL246622  16.980  19.529   5.713
 3525POPC   C1A46623  16.772  19.918   6.218
 3525POPC   D2A46624  16.701  20.212   6.566
 3525POPC   C3A46625  16.852  20.046   6.972
 3525POPC   C4A46626  16.652  19.951   7.349
 3525POPC   C1B46627  16.809  19.442   6.141
 3525POPC   C2B46628  16.889  19.337   6.563
 3525POPC   C3B46629  16.882  19.540   6.951
 3525POPC   C4B46630  16.532  19.471   7.211
 3526POPC   NC346631  25.039  26.161   5.536
 3526POPC   PO446632  24.373  26.153   5.423
 3526POPC   GL146633  24.449  26.200   5.817
 3526POPC   GL246634  24.171  26.412   5.904
 3526POPC   C1A46635  24.603  25.912   6.120
 3526POPC   D2A46636  24.356  25.766   6.473
 3526POPC   C3A46637  24.238  26.047   6.832
 3526POPC   C4A46638  24.166  25.861   7.233
 3526POPC   C1B46639  24.272  26.259   6.330
 3526POPC   C2B46640  24.671  26.148   6.568
 3526POPC   C3B46641  24.716  26.243   6.955
 3526POPC   C4B46642  24.582  26.108   7.308
 3527POPC   NC346643   3.049   2.927   5.365
 3527POPC   PO446644   2.486   2.665   5.266
 3527POPC   GL146645   2.723   2.654   5.686
 3527POPC   GL246646   2.625   2.374   5.871
 3527POPC   C1A46647   2.867   2.781   6.122
 3527POPC   D2A46648   2.680   2.850   6.577
 3527POPC   C3A46649   2.883   2.803   7.021
 3527POPC   C4A46650   3.171   3.090   7.317
 3527POPC   C1B46651   2.664   2.377   6.329
 3527POPC   C2B46652   2.793   2.374   6.730
 3527POPC   C3B46653   2.483   2.419   7.012
 3527POPC   C4B46654   2.467   2.617   7.372
 3528POPC   NC346655  39.036  18.632   5.520
 3528POPC   PO446656  39.003  17.947   5.424
 3528POPC   GL146657  39.103  18.225   5.819
 3528POPC   GL246658  38.831  18.494   5.954
 3528POPC   C1A46659  39.263  18.438   6.231
 3528POPC   D2A46660  39.150  18.466   6.679
 3528POPC   C3A46661  39.429  18.341   7.001
 3528POPC   C4A46662  39.459  18.529   7.396
 3528POPC   C1B46663  38.827  18.167   6.246
 3528POPC   C2B46664  38.971  18.000   6.628
 3528POPC   C3B46665  38.878  18.116   7.046
 3528POPC   C4B46666  38.985  18.499   7.231
 3529POPC   NC346667  26.360   7.870   5.438
 3529POPC   PO446668  26.113   7.184   5.383
 3529POPC   GL146669  26.082   7.472   5.699
 3529POPC   GL246670  26.439   7.502   5.780
 3529POPC   C1A46671  25.861   7.599   6.086
 3529POPC   D2A46672  26.026   7.639   6.507
 3529POPC   C3A46673  25.751   7.596   6.850
 3529POPC   C4A46674  25.907   7.542   7.212
 3529POPC   C1B46675  26.294   7.322   6.146
 3529POPC   C2B46676  26.458   7.324   6.531
 3529POPC   C3B46677  26.310   7.433   6.925
 3529POPC   C4B46678  26.251   7.146   7.255
 3530POPC   NC346679  43.194  21.157   5.357
 3530POPC   PO446680  42.842  21.743   5.420
 3530POPC   GL146681  43.011  21.496   5.764
 3530POPC   GL246682  42.698  21.290   5.778
 3530POPC   C1A46683  43.220  21.657   6.178
 3530POPC   D2A46684  43.466  21.543   6.539
 3530POPC   C3A46685  43.353  21.615   6.965
 3530POPC   C4A46686  43.361  21.474   7.409
 3530POPC   C1B46687  42.819  21.335   6.219
 3530POPC   C2B46688  42.994  21.331   6.641
 3530POPC   C3B46689  42.856  21.463   7.054
 3530POPC   C4B46690  42.686  21.322   7.432
 3531POPC   NC346691   3.658   0.238   5.471
 3531POPC   PO446692   3.793   0.895   5.294
 3531POPC   GL146693   3.586   0.710   5.685
 3531POPC   GL246694   3.774   0.882   5.872
 3531POPC   C1A46695   3.577   0.519   6.169
 3531POPC   D2A46696   3.547   0.237   6.573
 3531POPC   C3A46697   3.431   0.358   7.005
 3531POPC   C4A46698   3.384   0.114   7.448
 3531POPC   C1B46699   4.094   0.605   6.094
 3531POPC   C2B46700   4.049   0.342   6.479
 3531POPC   C3B46701   3.930   0.385   6.924
 3531POPC   C4B46702   3.788   0.414   7.355
 3532POPC   NC346703  35.524  23.693   4.919
 3532POPC   PO446704  35.110  23.384   5.411
 3532POPC   GL146705  35.310  23.564   5.768
 3532POPC   GL246706  35.439  23.914   5.746
 3532POPC   C1A46707  35.135  23.742   6.146
 3532POPC   D2A46708  35.232  23.922   6.513
 3532POPC   C3A46709  35.049  23.742   6.865
 3532POPC   C4A46710  35.104  23.645   7.286
 3532POPC   C1B46711  35.634  23.887   6.170
 3532POPC   C2B46712  35.777  23.916   6.622
 3532POPC   C3B46713  35.589  23.800   7.036
 3532POPC   C4B46714  35.417  24.025   7.398
 3533POPC   NC346715  15.339  19.574   5.417
 3533POPC   PO446716  14.925  20.174   5.418
 3533POPC   GL146717  15.144  19.987   5.796
 3533POPC   GL246718  15.419  19.718   5.897
 3533POPC   C1A46719  15.039  19.805   6.198
 3533POPC   D2A46720  15.270  19.798   6.532
 3533POPC   C3A46721  15.029  19.730   6.869
 3533POPC   C4A46722  15.033  19.817   7.282
 3533POPC   C1B46723  15.492  20.090   6.163
 3533POPC   C2B46724  15.388  20.295   6.531
 3533POPC   C3B46725  15.331  20.154   6.902
 3533POPC   C4B46726  15.343  20.209   7.289
 3534POPC   NC346727  11.162   5.520   5.149
 3534POPC   PO446728  11.462   6.155   5.298
 3534POPC   GL146729  11.432   6.047   5.718
 3534POPC   GL246730  11.470   6.409   5.775
 3534POPC   C1A46731  11.261   5.788   6.098
 3534POPC   D2A46732  10.973   5.879   6.470
 3534POPC   C3A46733  10.931   5.710   6.933
 3534POPC   C4A46734  11.325   5.709   7.133
 3534POPC   C1B46735  11.274   6.294   6.152
 3534POPC   C2B46736  11.240   6.382   6.571
 3534POPC   C3B46737  11.331   6.161   6.914
 3534POPC   C4B46738  11.171   6.161   7.308
 3535POPC   NC346739   3.862  20.736   5.336
 3535POPC   PO446740   3.428  20.196   5.500
 3535POPC   GL146741   3.712  20.328   5.823
 3535POPC   GL246742   3.604  20.660   5.823
 3535POPC   C1A46743   3.590  20.406   6.268
 3535POPC   D2A46744   3.351  20.473   6.656
 3535POPC   C3A46745   3.589  20.372   6.993
 3535POPC   C4A46746   3.727  20.454   7.415
 3535POPC   C1B46747   3.439  20.898   6.211
 3535POPC   C2B46748   3.294  20.984   6.671
 3535POPC   C3B46749   3.478  20.888   7.094
 3535POPC   C4B46750   3.789  20.947   7.433
 3536POPC   NC346751  28.128  34.003   5.553
 3536POPC   PO446752  27.441  33.961   5.427
 3536POPC   GL146753  27.573  33.666   5.763
 3536POPC   GL246754  27.891  33.711   5.917
 3536POPC   C1A46755  27.426  33.649   6.189
 3536POPC   D2A46756  27.675  33.749   6.552
 3536POPC   C3A46757  27.512  33.674   6.970
 3536POPC   C4A46758  27.519  33.476   7.375
 3536POPC   C1B46759  27.898  34.079   6.201
 3536POPC   C2B46760  27.752  34.279   6.585
 3536POPC   C3B46761  27.836  34.061   6.934
 3536POPC   C4B46762  27.771  33.924   7.346
 3537POPC   NC346763  30.490  10.595   5.351
 3537POPC   PO446764  29.819  10.506   5.213
 3537POPC   GL146765  29.860  10.649   5.673
 3537POPC   GL246766  30.166  10.532   5.785
 3537POPC   C1A46767  29.904  10.692   6.181
 3537POPC   D2A46768  30.064  10.590   6.630
 3537POPC   C3A46769  29.919  10.784   7.076
 3537POPC   C4A46770  29.955  10.734   7.558
 3537POPC   C1B46771  30.207  10.276   6.180
 3537POPC   C2B46772  30.399  10.162   6.577
 3537POPC   C3B46773  30.263  10.139   6.999
 3537POPC   C4B46774  29.976  10.310   7.279
 3538POPC   NC346775  40.220  20.732   5.533
 3538POPC   PO446776  39.659  20.426   5.324
 3538POPC   GL146777  39.774  20.568   5.757
 3538POPC   GL246778  40.057  20.341   5.849
 3538POPC   C1A46779  39.786  20.808   6.178
 3538POPC   D2A46780  39.723  20.635   6.616
 3538POPC   C3A46781  39.907  20.737   7.055
 3538POPC   C4A46782  40.027  20.647   7.514
 3538POPC   C1B46783  40.109  20.432   6.301
 3538POPC   C2B46784  40.247  20.495   6.725
 3538POPC   C3B46785  40.414  20.590   7.121
 3538POPC   C4B46786  40.479  20.428   7.561
 3539POPC   NC346787  18.177  28.544   5.528
 3539POPC   PO446788  18.781  28.157   5.426
 3539POPC   GL146789  18.539  28.296   5.782
 3539POPC   GL246790  18.626  28.631   5.894
 3539POPC   C1A46791  18.232  28.209   6.120
 3539POPC   D2A46792  18.299  28.182   6.549
 3539POPC   C3A46793  18.081  28.166   6.931
 3539POPC   C4A46794  18.171  28.355   7.333
 3539POPC   C1B46795  18.502  28.612   6.324
 3539POPC   C2B46796  18.261  28.676   6.691
 3539POPC   C3B46797  18.271  28.848   7.086
 3539POPC   C4B46798  18.396  28.796   7.497
 3540POPC   NC346799  20.044  41.742   5.329
 3540POPC   PO446800  19.535  41.260   5.212
 3540POPC   GL146801  19.664  41.487   5.607
 3540POPC   GL246802  19.431  41.452   5.908
 3540POPC   C1A46803  19.968  41.414   5.974
 3540POPC   D2A46804  20.092  41.375   6.442
 3540POPC   C3A46805  20.045  41.701   6.756
 3540POPC   C4A46806  19.917  41.621   7.146
 3540POPC   C1B46807  19.585  41.300   6.297
 3540POPC   C2B46808  19.643  41.347   6.738
 3540POPC   C3B46809  19.426  41.516   7.051
 3540POPC   C4B46810  19.515  41.939   7.168
 3541POPC   NC346811  16.871   4.311   5.497
 3541POPC   PO446812  16.312   4.624   5.567
 3541POPC   GL146813  16.530   4.295   5.869
 3541POPC   GL246814  16.876   4.401   5.996
 3541POPC   C1A46815  16.672   3.991   6.223
 3541POPC   D2A46816  16.556   4.067   6.660
 3541POPC   C3A46817  16.840   4.055   7.002
 3541POPC   C4A46818  16.993   4.383   7.261
 3541POPC   C1B46819  16.595   4.494   6.366
 3541POPC   C2B46820  16.662   4.531   6.834
 3541POPC   C3B46821  16.799   4.830   7.165
 3541POPC   C4B46822  17.019   4.775   7.596
 3542POPC   NC346823   9.433   2.757   5.122
 3542POPC   PO446824   8.852   2.709   5.344
 3542POPC   GL146825   8.955   2.798   5.794
 3542POPC   GL246826   9.286   2.735   5.821
 3542POPC   C1A46827   8.797   2.869   6.222
 3542POPC   D2A46828   8.841   2.742   6.656
 3542POPC   C3A46829   8.864   2.959   7.051
 3542POPC   C4A46830   9.093   2.985   7.438
 3542POPC   C1B46831   9.202   2.581   6.265
 3542POPC   C2B46832   9.186   2.379   6.695
 3542POPC   C3B46833   9.220   2.528   7.136
 3542POPC   C4B46834   9.490   2.341   7.455
 3543POPC   NC346835  14.790   5.705   5.667
 3543POPC   PO446836  15.246   6.047   5.297
 3543POPC   GL146837  15.292   5.851   5.718
 3543POPC   GL246838  15.062   6.090   5.874
 3543POPC   C1A46839  15.323   5.657   6.137
 3543POPC   D2A46840  15.183   5.620   6.583
 3543POPC   C3A46841  15.405   5.821   6.961
 3543POPC   C4A46842  15.540   5.728   7.430
 3543POPC   C1B46843  14.904   5.968   6.283
 3543POPC   C2B46844  14.733   5.848   6.681
 3543POPC   C3B46845  14.927   5.717   7.096
 3543POPC   C4B46846  15.136   6.028   7.366
 3544POPC   NC346847   3.772   2.818   5.370
 3544POPC   PO446848   3.162   2.464   5.397
 3544POPC   GL146849   3.400   2.705   5.712
 3544POPC   GL246850   3.739   2.573   5.801
 3544POPC   C1A46851   3.398   2.753   6.154
 3544POPC   D2A46852   3.185   2.801   6.535
 3544POPC   C3A46853   3.396   2.845   6.890
 3544POPC   C4A46854   3.307   2.609   7.236
 3544POPC   C1B46855   3.761   2.400   6.176
 3544POPC   C2B46856   3.752   2.564   6.555
 3544POPC   C3B46857   3.687   2.431   6.937
 3544POPC   C4B46858   3.810   2.641   7.282
 3545POPC   NC346859  14.492  36.122   5.327
 3545POPC   PO446860  14.923  35.673   5.541
 3545POPC   GL146861  14.563  35.914   5.811
 3545POPC   GL246862  14.481  36.288   5.804
 3545POPC   C1A46863  14.415  36.054   6.263
 3545POPC   D2A46864  14.584  36.187   6.688
 3545POPC   C3A46865  14.369  36.056   7.097
 3545POPC   C4A46866  14.195  36.198   7.526
 3545POPC   C1B46867  14.288  36.536   6.125
 3545POPC   C2B46868  14.409  36.674   6.538
 3545POPC   C3B46869  14.296  36.534   6.922
 3545POPC   C4B46870  14.532  36.503   7.287
 3546POPC   NC346871  39.462  39.040   5.356
 3546POPC   PO446872  39.142  39.638   5.449
 3546POPC   GL146873  39.344  39.441   5.823
 3546POPC   GL246874  39.356  39.079   5.850
 3546POPC   C1A46875  39.244  39.340   6.266
 3546POPC   D2A46876  39.065  39.113   6.622
 3546POPC   C3A46877  39.321  39.231   6.932
 3546POPC   C4A46878  39.269  39.466   7.297
 3546POPC   C1B46879  39.243  38.833   6.214
 3546POPC   C2B46880  39.369  38.663   6.606
 3546POPC   C3B46881  39.518  38.762   7.017
 3546POPC   C4B46882  39.366  38.986   7.413
 3547POPC   NC346883   4.154  22.444   5.267
 3547POPC   PO446884   4.598  21.950   5.364
 3547POPC   GL146885   4.219  22.047   5.700
 3547POPC   GL246886   3.888  22.313   5.731
 3547POPC   C1A46887   4.166  22.103   6.179
 3547POPC   D2A46888   4.496  21.932   6.500
 3547POPC   C3A46889   4.502  22.107   6.916
 3547POPC   C4A46890   4.598  22.024   7.324
 3547POPC   C1B46891   3.883  22.585   6.139
 3547POPC   C2B46892   3.904  22.444   6.553
 3547POPC   C3B46893   4.086  22.428   6.982
 3547POPC   C4B46894   4.135  22.223   7.407
 3548POPC   NC346895  43.455  44.606   5.564
 3548POPC   PO446896  44.090  44.743   5.345
 3548POPC   GL146897  43.942  44.859   5.740
 3548POPC   GL246898  43.636  44.862   5.939
 3548POPC   C1A46899  44.047   0.012   6.158
 3548POPC   D2A46900  43.757  44.930   6.479
 3548POPC   C3A46901  43.985  44.884   6.805
 3548POPC   C4A46902  44.008  44.549   7.108
 3548POPC   C1B46903  43.683  44.475   6.244
 3548POPC   C2B46904  43.648  44.464   6.714
 3548POPC   C3B46905  43.531  44.830   6.993
 3548POPC   C4B46906  43.784  44.980   7.276
 3549POPC   NC346907   2.477  24.344   5.456
 3549POPC   PO446908   3.154  24.528   5.470
 3549POPC   GL146909   2.817  24.636   5.783
 3549POPC   GL246910   2.594  24.385   5.937
 3549POPC   C1A46911   2.865  24.683   6.240
 3549POPC   D2A46912   2.972  24.442   6.607
 3549POPC   C3A46913   2.944  24.565   7.059
 3549POPC   C4A46914   3.053  24.309   7.439
 3549POPC   C1B46915   2.363  24.724   6.115
 3549POPC   C2B46916   2.224  24.850   6.489
 3549POPC   C3B46917   2.397  24.817   6.898
 3549POPC   C4B46918   2.250  24.810   7.307
 3550POPC   NC346919  11.905  28.888   5.528
 3550POPC   PO446920  12.453  29.131   5.410
 3550POPC   GL146921  12.232  29.213   5.795
 3550POPC   GL246922  12.295  28.878   5.883
 3550POPC   C1A46923  12.229  29.412   6.218
 3550POPC   D2A46924  12.083  29.276   6.638
 3550POPC   C3A46925  12.133  29.461   7.032
 3550POPC   C4A46926  12.039  29.174   7.390
 3550POPC   C1B46927  12.183  28.903   6.303
 3550POPC   C2B46928  12.377  28.856   6.722
 3550POPC   C3B46929  12.238  28.757   7.140
 3550POPC   C4B46930  12.088  28.661   7.568
 3551POPC   NC346931  25.155  19.477   5.270
 3551POPC   PO446932  25.451  20.063   5.266
 3551POPC   GL146933  25.427  19.972   5.730
 3551POPC   GL246934  25.736  19.817   5.877
 3551POPC   C1A46935  25.277  19.923   6.170
 3551POPC   D2A46936  25.020  19.674   6.484
 3551POPC   C3A46937  25.122  19.734   6.923
 3551POPC   C4A46938  25.059  20.108   7.079
 3551POPC   C1B46939  25.726  19.719   6.305
 3551POPC   C2B46940  25.588  19.950   6.735
 3551POPC   C3B46941  25.520  19.941   7.218
 3551POPC   C4B46942  25.578  19.940   7.683
 3552POPC   NC346943  29.481  44.913   5.525
 3552POPC   PO446944  29.180  44.351   5.377
 3552POPC   GL146945  29.312  44.545   5.830
 3552POPC   GL246946  29.337  44.953   5.990
 3552POPC   C1A46947  29.225  44.566   6.274
 3552POPC   D2A46948  29.385  44.363   6.591
 3552POPC   C3A46949  29.482  44.630   6.892
 3552POPC   C4A46950  29.241  44.539   7.233
 3552POPC   C1B46951  29.154   0.145   6.341
 3552POPC   C2B46952  29.202   0.146   6.784
 3552POPC   C3B46953  29.036   0.033   7.183
 3552POPC   C4B46954  28.877   0.194   7.569
 3553POPC   NC346955  31.296  30.746   5.352
 3553POPC   PO446956  31.884  30.403   5.447
 3553POPC   GL146957  31.638  30.685   5.733
 3553POPC   GL246958  31.267  30.650   5.843
 3553POPC   C1A46959  31.637  30.886   6.135
 3553POPC   D2A46960  31.432  30.800   6.520
 3553POPC   C3A46961  31.378  31.113   6.799
 3553POPC   C4A46962  31.637  30.948   7.115
 3553POPC   C1B46963  31.036  30.696   6.220
 3553POPC   C2B46964  31.003  30.541   6.655
 3553POPC   C3B46965  31.114  30.736   7.061
 3553POPC   C4B46966  31.300  30.747   7.472
 3554POPC   NC346967   1.463  33.997   5.451
 3554POPC   PO446968   2.110  33.652   5.482
 3554POPC   GL146969   1.885  33.917   5.733
 3554POPC   GL246970   1.595  33.729   5.855
 3554POPC   C1A46971   1.917  34.033   6.139
 3554POPC   D2A46972   2.024  33.823   6.511
 3554POPC   C3A46973   1.956  33.987   6.878
 3554POPC   C4A46974   2.222  33.791   7.078
 3554POPC   C1B46975   1.810  33.505   6.153
 3554POPC   C2B46976   1.661  33.477   6.568
 3554POPC   C3B46977   1.868  33.441   6.946
 3554POPC   C4B46978   1.810  33.630   7.342
 3555POPC   NC346979  33.684  16.349   5.103
 3555POPC   PO446980  33.739  15.852   5.614
 3555POPC   GL146981  33.943  15.870   5.997
 3555POPC   GL246982  34.075  16.216   5.941
 3555POPC   C1A46983  33.862  15.707   6.430
 3555POPC   D2A46984  33.636  15.928   6.736
 3555POPC   C3A46985  33.631  15.933   7.182
 3555POPC   C4A46986  33.888  15.695   7.467
 3555POPC   C1B46987  34.300  16.114   6.317
 3555POPC   C2B46988  34.358  15.759   6.580
 3555POPC   C3B46989  34.088  15.765   6.937
 3555POPC   C4B46990  34.096  16.139   7.225
 3556POPC   NC346991  30.106   7.310   5.506
 3556POPC   PO446992  29.353   7.385   5.632
 3556POPC   GL146993  29.706   7.297   5.817
 3556POPC   GL246994  29.817   7.612   5.799
 3556POPC   C1A46995  30.000   7.254   6.173
 3556POPC   D2A46996  30.082   7.199   6.608
 3556POPC   C3A46997  29.842   7.440   6.941
 3556POPC   C4A46998  29.616   7.235   7.268
 3556POPC   C1B46999  29.791   7.725   6.183
 3556POPC   C2B47000  30.036   7.705   6.530
 3556POPC   C3B47001  30.238   7.759   6.917
 3556POPC   C4B47002  30.035   7.861   7.316
 3557POPC   NC347003  40.234  32.395   5.080
 3557POPC   PO447004  39.941  31.913   5.484
 3557POPC   GL147005  40.023  32.153   5.806
 3557POPC   GL247006  40.148  32.472   5.655
 3557POPC   C1A47007  40.187  31.969   6.164
 3557POPC   D2A47008  39.948  31.830   6.526
 3557POPC   C3A47009  40.099  32.006   6.926
 3557POPC   C4A47010  40.328  31.879   7.315
 3557POPC   C1B47011  40.262  32.481   6.098
 3557POPC   C2B47012  40.195  32.334   6.510
 3557POPC   C3B47013  40.176  32.520   6.902
 3557POPC   C4B47014  40.175  32.357   7.301
 3558POPC   NC347015   7.779  19.788   5.502
 3558POPC   PO447016   7.413  20.179   5.127
 3558POPC   GL147017   7.338  20.077   5.645
 3558POPC   GL247018   7.176  19.781   5.787
 3558POPC   C1A47019   7.099  20.145   6.114
 3558POPC   D2A47020   7.179  19.907   6.538
 3558POPC   C3A47021   7.355  20.058   6.907
 3558POPC   C4A47022   7.146  20.227   7.259
 3558POPC   C1B47023   7.499  19.847   6.147
 3558POPC   C2B47024   7.685  19.794   6.572
 3558POPC   C3B47025   7.515  19.567   6.943
 3558POPC   C4B47026   7.207  19.701   7.244
 3559POPC   NC347027  32.492  23.647   5.358
 3559POPC   PO447028  31.947  23.957   5.414
 3559POPC   GL147029  32.149  23.781   5.840
 3559POPC   GL247030  32.445  23.541   5.844
 3559POPC   C1A47031  31.961  23.815   6.268
 3559POPC   D2A47032  31.895  23.571   6.636
 3559POPC   C3A47033  32.110  23.710   7.001
 3559POPC   C4A47034  32.227  23.968   7.335
 3559POPC   C1B47035  32.205  23.379   6.176
 3559POPC   C2B47036  32.342  23.327   6.590
 3559POPC   C3B47037  32.454  23.331   7.008
 3559POPC   C4B47038  32.375  23.514   7.441
 3560POPC   NC347039   0.694  41.524   5.556
 3560POPC   PO447040   0.071  41.283   5.601
 3560POPC   GL147041   0.264  41.602   5.894
 3560POPC   GL247042   0.568  41.865   5.898
 3560POPC   C1A47043   0.491  41.485   6.256
 3560POPC   D2A47044   0.636  41.133   6.482
 3560POPC   C3A47045   0.697  41.260   6.904
 3560POPC   C4A47046   0.372  41.350   7.201
 3560POPC   C1B47047   0.805  41.885   6.270
 3560POPC   C2B47048   0.725  41.737   6.696
 3560POPC   C3B47049   0.632  41.800   7.140
 3560POPC   C4B47050   0.823  41.948   7.524
 3561POPC   NC347051   8.909  12.036   5.301
 3561POPC   PO447052   9.515  12.335   5.235
 3561POPC   GL147053   9.309  12.160   5.690
 3561POPC   GL247054   8.957  12.038   5.803
 3561POPC   C1A47055   9.272  12.070   6.199
 3561POPC   D2A47056   9.111  12.155   6.615
 3561POPC   C3A47057   9.130  11.951   7.024
 3561POPC   C4A47058   8.775  11.878   7.298
 3561POPC   C1B47059   8.615  12.227   6.062
 3561POPC   C2B47060   8.467  12.176   6.496
 3561POPC   C3B47061   8.660  12.154   6.885
 3561POPC   C4B47062   8.821  12.394   7.248
 3562POPC   NC347063   6.235   6.790   5.308
 3562POPC   PO447064   6.830   6.453   5.432
 3562POPC   GL147065   6.717   6.660   5.829
 3562POPC   GL247066   6.812   6.976   5.858
 3562POPC   C1A47067   6.692   6.484   6.274
 3562POPC   D2A47068   6.786   6.323   6.691
 3562POPC   C3A47069   6.572   6.594   6.949
 3562POPC   C4A47070   6.252   6.439   7.194
 3562POPC   C1B47071   7.060   6.831   6.210
 3562POPC   C2B47072   7.054   6.759   6.651
 3562POPC   C3B47073   6.990   6.841   7.089
 3562POPC   C4B47074   7.035   6.648   7.513
 3563POPC   NC347075   5.772  22.079   5.127
 3563POPC   PO447076   6.165  22.575   5.338
 3563POPC   GL147077   5.769  22.438   5.601
 3563POPC   GL247078   5.702  22.065   5.702
 3563POPC   C1A47079   5.745  22.415   6.074
 3563POPC   D2A47080   5.984  22.547   6.449
 3563POPC   C3A47081   5.708  22.529   6.811
 3563POPC   C4A47082   5.699  22.445   7.241
 3563POPC   C1B47083   5.804  21.901   6.138
 3563POPC   C2B47084   5.866  22.055   6.570
 3563POPC   C3B47085   5.806  21.937   6.987
 3563POPC   C4B47086   5.874  21.735   7.352
 3564POPC   NC347087  32.652  21.224   5.266
 3564POPC   PO447088  33.302  21.209   5.400
 3564POPC   GL147089  33.033  21.366   5.738
 3564POPC   GL247090  32.825  21.065   5.801
 3564POPC   C1A47091  33.171  21.565   6.141
 3564POPC   D2A47092  33.106  21.550   6.593
 3564POPC   C3A47093  33.289  21.264   6.899
 3564POPC   C4A47094  33.061  21.389   7.252
 3564POPC   C1B47095  32.689  21.084   6.255
 3564POPC   C2B47096  32.822  21.123   6.691
 3564POPC   C3B47097  32.593  21.177   7.055
 3564POPC   C4B47098  32.616  21.210   7.513
 3565POPC   NC347099  19.670  12.361   5.330
 3565POPC   PO447100  19.921  11.707   5.402
 3565POPC   GL147101  19.956  12.037   5.691
 3565POPC   GL247102  19.592  11.975   5.734
 3565POPC   C1A47103  20.149  12.045   6.121
 3565POPC   D2A47104  20.018  12.189   6.521
 3565POPC   C3A47105  19.955  11.938   6.863
 3565POPC   C4A47106  19.844  12.101   7.240
 3565POPC   C1B47107  19.673  12.237   6.091
 3565POPC   C2B47108  19.584  12.458   6.465
 3565POPC   C3B47109  19.672  12.438   6.906
 3565POPC   C4B47110  19.394  12.322   7.274
 3566POPC   NC347111  11.362  14.225   5.416
 3566POPC   PO447112  10.835  14.276   5.667
 3566POPC   GL147113  11.119  14.163   5.959
 3566POPC   GL247114  11.433  14.279   5.911
 3566POPC   C1A47115  11.257  14.217   6.400
 3566POPC   D2A47116  11.408  14.215   6.850
 3566POPC   C3A47117  11.161  14.467   7.163
 3566POPC   C4A47118  11.184  14.438   7.623
 3566POPC   C1B47119  11.728  14.411   6.243
 3566POPC   C2B47120  11.705  14.606   6.642
 3566POPC   C3B47121  11.627  14.668   7.070
 3566POPC   C4B47122  11.615  14.345   7.357
 3567POPC   NC347123   0.969  32.381   5.505
 3567POPC   PO447124   1.609  32.192   5.590
 3567POPC   GL147125   1.274  32.180   5.856
 3567POPC   GL247126   1.333  32.532   5.859
 3567POPC   C1A47127   0.997  32.236   6.229
 3567POPC   D2A47128   0.832  32.404   6.624
 3567POPC   C3A47129   0.989  32.132   6.968
 3567POPC   C4A47130   1.373  31.876   7.059
 3567POPC   C1B47131   1.514  32.391   6.250
 3567POPC   C2B47132   1.382  32.185   6.623
 3567POPC   C3B47133   1.429  32.388   7.036
 3567POPC   C4B47134   1.435  32.638   7.394
 3568POPC   NC347135  31.653  20.948   5.280
 3568POPC   PO447136  31.465  21.675   5.347
 3568POPC   GL147137  31.286  21.326   5.625
 3568POPC   GL247138  31.572  21.130   5.744
 3568POPC   C1A47139  31.203  21.270   6.104
 3568POPC   D2A47140  31.352  21.584   6.425
 3568POPC   C3A47141  31.185  21.623   6.834
 3568POPC   C4A47142  31.263  21.575   7.259
 3568POPC   C1B47143  31.708  21.368   6.096
 3568POPC   C2B47144  31.701  21.194   6.522
 3568POPC   C3B47145  31.569  21.298   6.926
 3568POPC   C4B47146  31.728  21.401   7.350
 3569POPC   NC347147  27.633  42.270   5.305
 3569POPC   PO447148  27.128  42.600   5.477
 3569POPC   GL147149  27.477  42.500   5.802
 3569POPC   GL247150  27.662  42.170   5.843
 3569POPC   C1A47151  27.636  42.446   6.263
 3569POPC   D2A47152  27.661  42.210   6.642
 3569POPC   C3A47153  27.483  42.342   7.008
 3569POPC   C4A47154  27.259  42.550   7.337
 3569POPC   C1B47155  27.859  41.956   6.242
 3569POPC   C2B47156  27.884  41.764   6.685
 3569POPC   C3B47157  27.755  41.885   7.108
 3569POPC   C4B47158  28.034  42.043   7.467
 3570POPC   NC347159  30.483  28.978   5.173
 3570POPC   PO447160  30.661  29.475   5.571
 3570POPC   GL147161  30.649  29.013   5.710
 3570POPC   GL247162  30.988  28.828   5.831
 3570POPC   C1A47163  30.531  29.062   6.125
 3570POPC   D2A47164  30.702  29.344   6.439
 3570POPC   C3A47165  30.585  29.286   6.879
 3570POPC   C4A47166  30.383  29.435   7.267
 3570POPC   C1B47167  31.063  29.028   6.234
 3570POPC   C2B47168  31.003  29.016   6.684
 3570POPC   C3B47169  31.038  29.160   7.092
 3570POPC   C4B47170  30.931  29.034   7.494
 3571POPC   NC347171  17.170  38.471   5.671
 3571POPC   PO447172  17.611  38.845   5.364
 3571POPC   GL147173  17.715  38.680   5.788
 3571POPC   GL247174  17.609  38.369   5.844
 3571POPC   C1A47175  17.555  38.689   6.234
 3571POPC   D2A47176  17.570  38.896   6.621
 3571POPC   C3A47177  17.574  38.654   6.999
 3571POPC   C4A47178  17.736  38.819   7.355
 3571POPC   C1B47179  17.293  38.252   6.240
 3571POPC   C2B47180  17.320  38.390   6.650
 3571POPC   C3B47181  17.274  38.230   7.063
 3571POPC   C4B47182  17.230  38.023   7.510
 3572POPC   NC347183  20.054  27.875   5.411
 3572POPC   PO447184  19.393  27.618   5.143
 3572POPC   GL147185  19.551  27.586   5.660
 3572POPC   GL247186  19.882  27.467   5.674
 3572POPC   C1A47187  19.698  27.772   6.080
 3572POPC   D2A47188  19.676  27.860   6.529
 3572POPC   C3A47189  19.585  27.558   6.847
 3572POPC   C4A47190  19.727  27.806   7.210
 3572POPC   C1B47191  20.145  27.534   6.046
 3572POPC   C2B47192  20.022  27.484   6.458
 3572POPC   C3B47193  20.102  27.647   6.873
 3572POPC   C4B47194  20.045  27.422   7.252
 3573POPC   NC347195  22.479  28.240   5.565
 3573POPC   PO447196  22.181  28.515   5.031
 3573POPC   GL147197  22.058  28.548   5.561
 3573POPC   GL247198  21.950  28.226   5.758
 3573POPC   C1A47199  22.113  28.568   6.079
 3573POPC   D2A47200  22.399  28.629   6.450
 3573POPC   C3A47201  22.438  28.416   6.863
 3573POPC   C4A47202  22.270  28.544   7.260
 3573POPC   C1B47203  22.014  28.032   6.136
 3573POPC   C2B47204  22.220  28.090   6.508
 3573POPC   C3B47205  22.137  27.981   6.929
 3573POPC   C4B47206  21.893  28.136   7.272
 3574POPC   NC347207   8.681  40.280   5.528
 3574POPC   PO447208   9.251  39.806   5.462
 3574POPC   GL147209   8.982  39.857   5.825
 3574POPC   GL247210   9.048  40.174   5.857
 3574POPC   C1A47211   8.769  39.940   6.248
 3574POPC   D2A47212   8.910  40.058   6.689
 3574POPC   C3A47213   8.848  39.756   7.030
 3574POPC   C4A47214   8.752  39.789   7.505
 3574POPC   C1B47215   9.243  40.114   6.246
 3574POPC   C2B47216   9.463  40.322   6.526
 3574POPC   C3B47217   9.313  40.358   6.921
 3574POPC   C4B47218   9.109  40.126   7.239
 3575POPC   NC347219   8.417  12.604   5.454
 3575POPC   PO447220   7.777  12.687   5.422
 3575POPC   GL147221   8.035  12.552   5.778
 3575POPC   GL247222   8.149  12.894   5.792
 3575POPC   C1A47223   8.283  12.633   6.194
 3575POPC   D2A47224   8.260  12.828   6.572
 3575POPC   C3A47225   8.420  12.609   6.883
 3575POPC   C4A47226   8.224  12.678   7.269
 3575POPC   C1B47227   8.035  13.102   6.187
 3575POPC   C2B47228   7.980  13.256   6.616
 3575POPC   C3B47229   8.143  13.144   7.035
 3575POPC   C4B47230   7.905  13.207   7.430
 3576POPC   NC347231   5.057  15.373   5.445
 3576POPC   PO447232   5.327  14.713   5.367
 3576POPC   GL147233   5.136  14.935   5.788
 3576POPC   GL247234   4.870  15.226   5.900
 3576POPC   C1A47235   5.145  15.040   6.265
 3576POPC   D2A47236   5.376  14.938   6.633
 3576POPC   C3A47237   5.268  15.163   6.986
 3576POPC   C4A47238   5.346  15.152   7.456
 3576POPC   C1B47239   4.970  15.537   6.287
 3576POPC   C2B47240   5.007  15.584   6.784
 3576POPC   C3B47241   5.206  15.593   7.223
 3576POPC   C4B47242   5.197  15.566   7.698
 3577POPC   NC347243  42.960  44.063   5.481
 3577POPC   PO447244  42.642  43.457   5.385
 3577POPC   GL147245  43.038  43.601   5.732
 3577POPC   GL247246  42.932  43.888   5.954
 3577POPC   C1A47247  43.376  43.739   6.140
 3577POPC   D2A47248  43.325  44.104   6.462
 3577POPC   C3A47249  43.413  43.999   6.907
 3577POPC   C4A47250  43.200  44.043   7.350
 3577POPC   C1B47251  42.982  43.461   6.218
 3577POPC   C2B47252  43.205  43.595   6.617
 3577POPC   C3B47253  42.933  43.824   6.884
 3577POPC   C4B47254  42.748  43.794   7.264
 3578POPC   NC347255  26.548  28.700   5.142
 3578POPC   PO447256  26.855  28.230   5.492
 3578POPC   GL147257  27.060  28.303   5.862
 3578POPC   GL247258  26.772  28.508   5.951
 3578POPC   C1A47259  27.123  28.394   6.306
 3578POPC   D2A47260  26.858  28.308   6.665
 3578POPC   C3A47261  27.137  28.496   6.977
 3578POPC   C4A47262  27.002  28.735   7.318
 3578POPC   C1B47263  26.616  28.163   6.216
 3578POPC   C2B47264  26.408  27.971   6.556
 3578POPC   C3B47265  26.544  27.987   6.967
 3578POPC   C4B47266  26.674  28.380   7.154
 3579POPC   NC347267   4.507   0.102   5.572
 3579POPC   PO447268   4.427   0.738   5.375
 3579POPC   GL147269   4.528   0.816   5.796
 3579POPC   GL247270   4.751   0.559   5.788
 3579POPC   C1A47271   4.588   0.894   6.221
 3579POPC   D2A47272   4.372   0.725   6.558
 3579POPC   C3A47273   4.547   0.697   6.964
 3579POPC   C4A47274   4.216   0.698   7.257
 3579POPC   C1B47275   4.577   0.386   6.164
 3579POPC   C2B47276   4.644   0.284   6.572
 3579POPC   C3B47277   4.384   0.207   6.888
 3579POPC   C4B47278   4.529   0.277   7.271
 3580POPC   NC347279  32.606  42.377   5.457
 3580POPC   PO447280  32.039  42.121   5.546
 3580POPC   GL147281  32.175  42.432   5.776
 3580POPC   GL247282  31.833  42.525   5.854
 3580POPC   C1A47283  32.376  42.494   6.164
 3580POPC   D2A47284  32.359  42.130   6.469
 3580POPC   C3A47285  32.408  42.191   6.906
 3580POPC   C4A47286  32.569  42.138   7.330
 3580POPC   C1B47287  31.914  42.310   6.234
 3580POPC   C2B47288  31.882  42.380   6.640
 3580POPC   C3B47289  31.916  42.227   7.044
 3580POPC   C4B47290  32.016  42.575   7.257
 3581POPC   NC347291  15.617  27.773   5.425
 3581POPC   PO447292  15.115  27.392   5.545
 3581POPC   GL147293  15.360  27.579   5.838
 3581POPC   GL247294  15.506  27.277   5.949
 3581POPC   C1A47295  15.389  27.710   6.256
 3581POPC   D2A47296  15.387  27.492   6.641
 3581POPC   C3A47297  15.114  27.710   6.935
 3581POPC   C4A47298  15.174  27.761   7.387
 3581POPC   C1B47299  15.123  27.266   6.260
 3581POPC   C2B47300  14.975  27.192   6.725
 3581POPC   C3B47301  15.097  27.259   7.181
 3581POPC   C4B47302  14.927  27.315   7.643
 3582POPC   NC347303  43.192   0.749   5.414
 3582POPC   PO447304  43.408   0.062   5.462
 3582POPC   GL147305  43.248   0.349   5.770
 3582POPC   GL247306  43.424   0.679   5.841
 3582POPC   C1A47307  43.013   0.296   6.157
 3582POPC   D2A47308  42.864   0.078   6.543
 3582POPC   C3A47309  43.047   0.202   6.945
 3582POPC   C4A47310  42.919   0.486   7.278
 3582POPC   C1B47311  43.152   0.804   6.182
 3582POPC   C2B47312  42.990   0.618   6.568
 3582POPC   C3B47313  43.212   0.714   6.923
 3582POPC   C4B47314  43.119   1.043   7.195
 3583POPC   NC347315  25.054  38.845   5.315
 3583POPC   PO447316  25.146  39.391   5.426
 3583POPC   GL147317  24.913  39.290   5.818
 3583POPC   GL247318  25.062  38.969   5.813
 3583POPC   C1A47319  24.894  39.329   6.300
 3583POPC   D2A47320  24.964  39.588   6.677
 3583POPC   C3A47321  25.336  39.504   6.922
 3583POPC   C4A47322  25.612  39.180   7.099
 3583POPC   C1B47323  25.231  38.952   6.218
 3583POPC   C2B47324  25.181  39.066   6.656
 3583POPC   C3B47325  25.105  39.058   7.078
 3583POPC   C4B47326  24.958  39.068   7.453
 3584POPC   NC347327  40.976  16.568   5.398
 3584POPC   PO447328  40.530  17.023   5.182
 3584POPC   GL147329  40.519  16.780   5.587
 3584POPC   GL247330  40.607  17.078   5.773
 3584POPC   C1A47331  40.667  16.612   6.030
 3584POPC   D2A47332  40.589  16.542   6.506
 3584POPC   C3A47333  40.860  16.664   6.875
 3584POPC   C4A47334  41.063  16.940   7.170
 3584POPC   C1B47335  40.476  17.105   6.208
 3584POPC   C2B47336  40.506  17.353   6.564
 3584POPC   C3B47337  40.611  17.208   6.995
 3584POPC   C4B47338  40.466  16.802   7.183
 3585POPC   NC347339  14.391  26.621   5.527
 3585POPC   PO447340  14.121  27.307   5.612
 3585POPC   GL147341  14.040  27.048   6.014
 3585POPC   GL247342  14.102  26.685   5.979
 3585POPC   C1A47343  14.288  26.902   6.418
 3585POPC   D2A47344  14.626  26.761   6.715
 3585POPC   C3A47345  14.656  26.970   7.110
 3585POPC   C4A47346  14.643  26.790   7.490
 3585POPC   C1B47347  13.819  26.675   6.348
 3585POPC   C2B47348  13.862  26.963   6.694
 3585POPC   C3B47349  14.168  26.868   6.984
 3585POPC   C4B47350  14.009  26.539   7.164
 3586POPC   NC347351  23.496  25.394   5.211
 3586POPC   PO447352  24.065  25.177   5.498
 3586POPC   GL147353  23.698  25.207   5.717
 3586POPC   GL247354  23.826  25.506   5.828
 3586POPC   C1A47355  23.648  25.145   6.171
 3586POPC   D2A47356  23.557  25.401   6.551
 3586POPC   C3A47357  23.671  25.146   6.931
 3586POPC   C4A47358  23.715  25.141   7.346
 3586POPC   C1B47359  24.022  25.464   6.251
 3586POPC   C2B47360  24.046  25.437   6.718
 3586POPC   C3B47361  23.777  25.599   7.064
 3586POPC   C4B47362  23.837  25.606   7.535
 3587POPC   NC347363  20.211  42.906   5.565
 3587POPC   PO447364  20.824  43.235   5.553
 3587POPC   GL147365  20.660  43.003   5.867
 3587POPC   GL247366  20.743  42.666   5.992
 3587POPC   C1A47367  20.835  43.117   6.227
 3587POPC   D2A47368  20.672  43.276   6.545
 3587POPC   C3A47369  20.735  43.062   6.892
 3587POPC   C4A47370  20.432  43.138   7.189
 3587POPC   C1B47371  20.423  42.808   6.321
 3587POPC   C2B47372  20.225  42.706   6.739
 3587POPC   C3B47373  20.084  42.775   7.173
 3587POPC   C4B47374  20.400  42.790   7.558
 3588POPC   NC347375  43.616  27.453   5.238
 3588POPC   PO447376  42.962  27.520   5.447
 3588POPC   GL147377  43.095  27.740   5.833
 3588POPC   GL247378  43.317  28.019   5.705
 3588POPC   C1A47379  43.287  27.592   6.195
 3588POPC   D2A47380  43.212  27.400   6.579
 3588POPC   C3A47381  42.951  27.657   6.852
 3588POPC   C4A47382  43.041  27.542   7.262
 3588POPC   C1B47383  43.295  28.121   6.140
 3588POPC   C2B47384  43.253  27.973   6.549
 3588POPC   C3B47385  43.444  27.801   6.913
 3588POPC   C4B47386  43.370  27.917   7.336
 3589POPC   NC347387   3.400  41.198   5.459
 3589POPC   PO447388   3.434  40.548   5.573
 3589POPC   GL147389   3.586  40.896   5.812
 3589POPC   GL247390   3.264  40.998   5.926
 3589POPC   C1A47391   3.653  41.174   6.164
 3589POPC   D2A47392   3.496  41.061   6.549
 3589POPC   C3A47393   3.585  40.995   6.976
 3589POPC   C4A47394   3.229  40.936   7.254
 3589POPC   C1B47395   3.446  40.652   6.241
 3589POPC   C2B47396   3.603  40.568   6.675
 3589POPC   C3B47397   3.440  40.495   7.075
 3589POPC   C4B47398   3.432  40.489   7.515
 3590POPC   NC347399   5.241  24.314   5.472
 3590POPC   PO447400   5.466  24.964   5.391
 3590POPC   GL147401   5.177  24.826   5.780
 3590POPC   GL247402   5.048  24.478   5.908
 3590POPC   C1A47403   5.193  24.802   6.258
 3590POPC   D2A47404   5.136  24.911   6.677
 3590POPC   C3A47405   5.230  24.567   6.978
 3590POPC   C4A47406   5.237  24.349   7.406
 3590POPC   C1B47407   5.035  24.288   6.340
 3590POPC   C2B47408   4.800  24.401   6.726
 3590POPC   C3B47409   4.775  24.360   7.173
 3590POPC   C4B47410   4.749  24.459   7.646
 3591POPC   NC347411  41.421  27.559   5.053
 3591POPC   PO447412  41.739  27.475   5.685
 3591POPC   GL147413  41.496  27.658   5.964
 3591POPC   GL247414  41.432  28.011   5.818
 3591POPC   C1A47415  41.508  27.397   6.340
 3591POPC   D2A47416  41.743  27.279   6.686
 3591POPC   C3A47417  41.547  27.478   7.003
 3591POPC   C4A47418  41.330  27.913   6.968
 3591POPC   C1B47419  41.682  28.048   6.213
 3591POPC   C2B47420  41.705  27.814   6.618
 3591POPC   C3B47421  41.810  27.955   7.040
 3591POPC   C4B47422  41.584  28.172   7.367
 3592POPC   NC347423  38.638  19.009   5.195
 3592POPC   PO447424  39.205  19.057   5.396
 3592POPC   GL147425  39.217  19.047   5.793
 3592POPC   GL247426  38.850  19.100   5.795
 3592POPC   C1A47427  39.467  18.938   6.175
 3592POPC   D2A47428  39.538  19.106   6.599
 3592POPC   C3A47429  39.384  18.878   6.994
 3592POPC   C4A47430  39.269  19.028   7.433
 3592POPC   C1B47431  38.957  18.932   6.207
 3592POPC   C2B47432  39.040  18.955   6.631
 3592POPC   C3B47433  38.898  19.118   7.025
 3592POPC   C4B47434  38.749  18.915   7.393
 3593POPC   NC347435  32.255  32.565   5.694
 3593POPC   PO447436  32.014  31.936   5.436
 3593POPC   GL147437  32.243  32.045   5.788
 3593POPC   GL247438  32.597  31.982   5.739
 3593POPC   C1A47439  32.098  32.188   6.227
 3593POPC   D2A47440  32.189  32.317   6.667
 3593POPC   C3A47441  32.066  32.167   7.083
 3593POPC   C4A47442  31.832  32.414   7.399
 3593POPC   C1B47443  32.605  32.146   6.171
 3593POPC   C2B47444  32.693  32.270   6.567
 3593POPC   C3B47445  32.600  32.322   6.982
 3593POPC   C4B47446  32.528  31.944   7.235
 3594POPC   NC347447  11.124  39.176   5.466
 3594POPC   PO447448  11.599  39.732   5.502
 3594POPC   GL147449  11.411  39.440   5.784
 3594POPC   GL247450  11.039  39.495   5.842
 3594POPC   C1A47451  11.401  39.186   6.157
 3594POPC   D2A47452  11.620  39.267   6.536
 3594POPC   C3A47453  11.444  39.167   6.909
 3594POPC   C4A47454  11.635  39.319   7.296
 3594POPC   C1B47455  10.900  39.277   6.217
 3594POPC   C2B47456  11.040  39.053   6.583
 3594POPC   C3B47457  10.907  39.123   7.014
 3594POPC   C4B47458  11.166  39.163   7.368
 3595POPC   NC347459  30.823  23.906   5.455
 3595POPC   PO447460  30.589  23.353   5.359
 3595POPC   GL147461  30.575  23.576   5.798
 3595POPC   GL247462  30.395  23.893   5.826
 3595POPC   C1A47463  30.812  23.731   6.224
 3595POPC   D2A47464  31.004  23.661   6.671
 3595POPC   C3A47465  30.778  23.606   7.100
 3595POPC   C4A47466  30.932  23.715   7.571
 3595POPC   C1B47467  30.355  24.162   6.176
 3595POPC   C2B47468  30.587  24.126   6.560
 3595POPC   C3B47469  30.635  24.098   6.997
 3595POPC   C4B47470  30.516  23.922   7.404
 3596POPC   NC347471  16.020   3.788   5.457
 3596POPC   PO447472  15.548   3.286   5.499
 3596POPC   GL147473  15.733   3.568   5.812
 3596POPC   GL247474  16.096   3.456   5.839
 3596POPC   C1A47475  15.867   3.770   6.206
 3596POPC   D2A47476  16.116   3.832   6.583
 3596POPC   C3A47477  15.918   3.734   6.969
 3596POPC   C4A47478  15.518   3.890   7.185
 3596POPC   C1B47479  16.279   3.359   6.246
 3596POPC   C2B47480  16.339   3.152   6.670
 3596POPC   C3B47481  16.246   3.292   7.111
 3596POPC   C4B47482  16.250   3.201   7.564
 3597POPC   NC347483   1.737  15.104   5.503
 3597POPC   PO447484   2.362  15.392   5.476
 3597POPC   GL147485   2.108  15.268   5.807
 3597POPC   GL247486   2.106  14.925   5.829
 3597POPC   C1A47487   1.894  15.377   6.178
 3597POPC   D2A47488   2.019  15.407   6.590
 3597POPC   C3A47489   1.861  15.229   6.982
 3597POPC   C4A47490   2.136  14.915   7.125
 3597POPC   C1B47491   1.883  14.875   6.210
 3597POPC   C2B47492   1.745  14.912   6.620
 3597POPC   C3B47493   1.642  14.766   7.044
 3597POPC   C4B47494   1.733  14.946   7.454
 3598POPC   NC347495  17.696  26.352   5.627
 3598POPC   PO447496  17.702  25.739   5.766
 3598POPC   GL147497  17.503  26.040   6.028
 3598POPC   GL247498  17.343  26.373   6.002
 3598POPC   C1A47499  17.617  26.016   6.466
 3598POPC   D2A47500  17.591  25.668   6.761
 3598POPC   C3A47501  17.591  25.863   7.148
 3598POPC   C4A47502  17.789  26.269   7.129
 3598POPC   C1B47503  17.152  26.176   6.376
 3598POPC   C2B47504  17.215  26.111   6.805
 3598POPC   C3B47505  17.272  26.274   7.202
 3598POPC   C4B47506  17.336  26.106   7.571
 3599POPC   NC347507  13.885  24.250   5.541
 3599POPC   PO447508  13.293  24.513   5.460
 3599POPC   GL147509  13.522  24.538   5.845
 3599POPC   GL247510  13.800  24.766   5.881
 3599POPC   C1A47511  13.361  24.540   6.275
 3599POPC   D2A47512  13.426  24.816   6.666
 3599POPC   C3A47513  13.784  24.725   6.938
 3599POPC   C4A47514  13.689  24.538   7.351
 3599POPC   C1B47515  13.864  24.456   6.234
 3599POPC   C2B47516  13.694  24.334   6.618
 3599POPC   C3B47517  13.850  24.206   7.010
 3599POPC   C4B47518  14.169  24.104   7.328
 3600POPC   NC347519  42.824  25.420   5.433
 3600POPC   PO447520  43.395  25.178   5.422
 3600POPC   GL147521  43.129  25.133   5.770
 3600POPC   GL247522  43.177  25.495   5.873
 3600POPC   C1A47523  43.164  24.903   6.169
 3600POPC   D2A47524  43.440  24.952   6.540
 3600POPC   C3A47525  43.158  24.990   6.886
 3600POPC   C4A47526  43.072  25.281   7.184
 3600POPC   C1B47527  43.190  25.393   6.335
 3600POPC   C2B47528  43.331  25.472   6.758
 3600POPC   C3B47529  43.212  25.756   7.109
 3600POPC   C4B47530  42.947  25.663   7.509
 3601POPC   NC347531   3.655  34.402   5.266
 3601POPC   PO447532   3.125  34.830   5.483
 3601POPC   GL147533   3.412  34.616   5.809
 3601POPC   GL247534   3.666  34.391   5.768
 3601POPC   C1A47535   3.637  34.653   6.236
 3601POPC   D2A47536   3.568  34.710   6.699
 3601POPC   C3A47537   3.745  34.604   7.082
 3601POPC   C4A47538   3.543  34.597   7.463
 3601POPC   C1B47539   3.417  34.214   6.138
 3601POPC   C2B47540   3.555  34.206   6.555
 3601POPC   C3B47541   3.407  34.255   6.961
 3601POPC   C4B47542   3.618  34.133   7.330
 3602POPC   NC347543  41.450   9.005   5.347
 3602POPC   PO447544  41.780   9.606   5.551
 3602POPC   GL147545  41.815   9.297   5.875
 3602POPC   GL247546  41.648   8.976   5.833
 3602POPC   C1A47547  41.959   9.083   6.242
 3602POPC   D2A47548  41.883   8.928   6.668
 3602POPC   C3A47549  41.485   9.003   6.809
 3602POPC   C4A47550  41.429   9.021   7.227
 3602POPC   C1B47551  41.540   8.780   6.261
 3602POPC   C2B47552  41.519   8.512   6.635
 3602POPC   C3B47553  41.646   8.577   7.083
 3602POPC   C4B47554  41.589   8.665   7.572
 3603POPC   NC347555  33.166  14.838   5.033
 3603POPC   PO447556  33.025  14.308   5.474
 3603POPC   GL147557  33.057  14.191   5.899
 3603POPC   GL247558  33.027  14.534   5.968
 3603POPC   C1A47559  32.799  14.273   6.305
 3603POPC   D2A47560  32.908  14.187   6.698
 3603POPC   C3A47561  32.801  14.427   7.026
 3603POPC   C4A47562  32.989  14.250   7.386
 3603POPC   C1B47563  33.306  14.385   6.304
 3603POPC   C2B47564  33.348  14.481   6.735
 3603POPC   C3B47565  33.428  14.288   7.111
 3603POPC   C4B47566  33.596  14.462   7.457
 3604POPC   NC347567   8.769  39.581   5.452
 3604POPC   PO447568   9.231  39.025   5.459
 3604POPC   GL147569   9.139  39.339   5.769
 3604POPC   GL247570   8.816  39.230   5.813
 3604POPC   C1A47571   9.119  39.533   6.191
 3604POPC   D2A47572   8.860  39.540   6.560
 3604POPC   C3A47573   9.063  39.296   6.846
 3604POPC   C4A47574   9.326  39.421   7.192
 3604POPC   C1B47575   8.593  39.315   6.181
 3604POPC   C2B47576   8.615  39.093   6.591
 3604POPC   C3B47577   8.535  39.326   6.966
 3604POPC   C4B47578   8.826  39.321   7.281
 3605POPC   NC347579  12.709  15.936   5.391
 3605POPC   PO447580  13.094  16.477   5.297
 3605POPC   GL147581  13.029  16.230   5.706
 3605POPC   GL247582  13.114  15.858   5.738
 3605POPC   C1A47583  12.845  16.077   6.112
 3605POPC   D2A47584  13.031  16.134   6.531
 3605POPC   C3A47585  12.837  16.009   6.944
 3605POPC   C4A47586  12.948  15.669   7.219
 3605POPC   C1B47587  13.129  15.625   6.132
 3605POPC   C2B47588  13.388  15.590   6.489
 3605POPC   C3B47589  13.375  15.527   6.922
 3605POPC   C4B47590  13.448  15.715   7.308
 3606POPC   NC347591  25.174   3.753   5.429
 3606POPC   PO447592  25.624   3.326   5.605
 3606POPC   GL147593  25.321   3.511   5.847
 3606POPC   GL247594  24.999   3.401   5.758
 3606POPC   C1A47595  25.397   3.614   6.248
 3606POPC   D2A47596  25.602   3.371   6.540
 3606POPC   C3A47597  25.406   3.438   6.928
 3606POPC   C4A47598  25.410   3.753   7.261
 3606POPC   C1B47599  24.896   3.609   6.161
 3606POPC   C2B47600  25.002   3.794   6.586
 3606POPC   C3B47601  24.924   3.686   7.037
 3606POPC   C4B47602  24.965   3.802   7.492
 3607POPC   NC347603   5.257  21.770   5.422
 3607POPC   PO447604   4.885  21.176   5.371
 3607POPC   GL147605   5.063  21.141   5.788
 3607POPC   GL247606   5.176  21.461   5.834
 3607POPC   C1A47607   5.024  21.199   6.261
 3607POPC   D2A47608   5.103  21.002   6.686
 3607POPC   C3A47609   4.928  21.245   7.054
 3607POPC   C4A47610   4.682  21.375   7.416
 3607POPC   C1B47611   5.368  21.630   6.204
 3607POPC   C2B47612   5.502  21.683   6.641
 3607POPC   C3B47613   5.414  21.549   7.075
 3607POPC   C4B47614   5.461  21.531   7.549
 3608POPC   NC347615   9.102  11.087   5.052
 3608POPC   PO447616   9.256  11.626   5.468
 3608POPC   GL147617   8.966  11.506   5.837
 3608POPC   GL247618   8.768  11.138   5.763
 3608POPC   C1A47619   9.000  11.625   6.289
 3608POPC   D2A47620   8.989  11.366   6.659
 3608POPC   C3A47621   9.004  11.456   7.099
 3608POPC   C4A47622   9.215  11.250   7.433
 3608POPC   C1B47623   8.818  11.013   6.170
 3608POPC   C2B47624   8.586  11.073   6.550
 3608POPC   C3B47625   8.742  10.992   6.940
 3608POPC   C4B47626   8.746  11.092   7.338
 3609POPC   NC347627   2.565  33.247   5.423
 3609POPC   PO447628   3.007  32.692   5.255
 3609POPC   GL147629   2.829  32.879   5.672
 3609POPC   GL247630   2.888  33.222   5.838
 3609POPC   C1A47631   2.801  32.792   6.134
 3609POPC   D2A47632   2.558  32.833   6.522
 3609POPC   C3A47633   2.825  32.929   6.853
 3609POPC   C4A47634   2.763  32.922   7.253
 3609POPC   C1B47635   2.586  33.277   6.226
 3609POPC   C2B47636   2.540  33.342   6.705
 3609POPC   C3B47637   2.433  33.338   7.155
 3609POPC   C4B47638   2.574  33.257   7.574
 3610POPC   NC347639  27.000  10.265   5.372
 3610POPC   PO447640  26.632  10.784   5.710
 3610POPC   GL147641  27.011  10.790   5.894
 3610POPC   GL247642  26.986  10.418   5.854
 3610POPC   C1A47643  26.932  10.717   6.305
 3610POPC   D2A47644  26.513  10.579   6.428
 3610POPC   C3A47645  26.512  10.518   6.865
 3610POPC   C4A47646  26.748  10.684   7.197
 3610POPC   C1B47647  27.010  10.203   6.235
 3610POPC   C2B47648  26.962  10.316   6.648
 3610POPC   C3B47649  27.167  10.368   6.998
 3610POPC   C4B47650  27.051  10.286   7.389
 3611POPC   NC347651  35.496  27.839   5.048
 3611POPC   PO447652  35.419  28.346   5.525
 3611POPC   GL147653  35.299  28.090   5.844
 3611POPC   GL247654  34.988  28.072   5.924
 3611POPC   C1A47655  35.513  28.048   6.216
 3611POPC   D2A47656  35.604  28.317   6.528
 3611POPC   C3A47657  35.532  28.176   6.912
 3611POPC   C4A47658  35.589  28.432   7.259
 3611POPC   C1B47659  35.112  28.387   6.252
 3611POPC   C2B47660  35.124  28.518   6.691
 3611POPC   C3B47661  35.082  28.360   7.103
 3611POPC   C4B47662  35.102  28.565   7.481
 3612POPC   NC347663   6.306   0.691   5.532
 3612POPC   PO447664   6.876   0.366   5.640
 3612POPC   GL147665   6.863   0.524   6.019
 3612POPC   GL247666   6.507   0.490   5.966
 3612POPC   C1A47667   6.935   0.479   6.440
 3612POPC   D2A47668   6.838   0.061   6.595
 3612POPC   C3A47669   7.007   0.008   6.989
 3612POPC   C4A47670   7.058   0.416   7.123
 3612POPC   C1B47671   6.451   0.349   6.367
 3612POPC   C2B47672   6.493   0.658   6.668
 3612POPC   C3B47673   6.286   0.716   7.015
 3612POPC   C4B47674   6.309   0.278   7.085
 3613POPC   NC347675  39.266  38.289   5.351
 3613POPC   PO447676  38.983  38.874   5.561
 3613POPC   GL147677  39.222  38.512   5.800
 3613POPC   GL247678  39.200  38.088   5.806
 3613POPC   C1A47679  38.996  38.384   6.153
 3613POPC   D2A47680  38.823  38.622   6.472
 3613POPC   C3A47681  38.959  38.656   6.889
 3613POPC   C4A47682  39.129  38.575   7.283
 3613POPC   C1B47683  39.341  37.996   6.202
 3613POPC   C2B47684  39.204  38.183   6.568
 3613POPC   C3B47685  39.316  38.245   6.962
 3613POPC   C4B47686  39.444  38.206   7.399
 3614POPC   NC347687  31.203  42.984   5.543
 3614POPC   PO447688  31.710  43.372   5.504
 3614POPC   GL147689  31.653  43.032   5.872
 3614POPC   GL247690  31.390  42.769   5.946
 3614POPC   C1A47691  31.738  42.816   6.313
 3614POPC   D2A47692  31.796  42.884   6.769
 3614POPC   C3A47693  31.566  43.044   7.139
 3614POPC   C4A47694  31.759  42.918   7.524
 3614POPC   C1B47695  31.306  43.089   6.252
 3614POPC   C2B47696  31.365  43.155   6.663
 3614POPC   C3B47697  31.106  42.984   6.941
 3614POPC   C4B47698  31.007  43.140   7.255
 3615POPC   NC347699  25.498  44.273   5.421
 3615POPC   PO447700  25.243  43.725   5.047
 3615POPC   GL147701  25.174  43.869   5.519
 3615POPC   GL247702  25.500  43.841   5.721
 3615POPC   C1A47703  25.057  43.926   5.992
 3615POPC   D2A47704  25.043  43.703   6.411
 3615POPC   C3A47705  24.866  43.883   6.801
 3615POPC   C4A47706  24.985  43.780   7.258
 3615POPC   C1B47707  25.523  43.931   6.170
 3615POPC   C2B47708  25.383  44.048   6.568
 3615POPC   C3B47709  25.379  43.875   6.957
 3615POPC   C4B47710  25.568  43.825   7.349
 3616POPC   NC347711  36.207  20.806   5.286
 3616POPC   PO447712  35.679  20.797   5.709
 3616POPC   GL147713  36.127  20.743   5.780
 3616POPC   GL247714  36.247  20.398   5.699
 3616POPC   C1A47715  36.310  20.898   6.133
 3616POPC   D2A47716  36.125  20.709   6.495
 3616POPC   C3A47717  36.068  20.961   6.857
 3616POPC   C4A47718  36.096  20.777   7.274
 3616POPC   C1B47719  36.382  20.388   6.109
 3616POPC   C2B47720  36.384  20.255   6.529
 3616POPC   C3B47721  36.280  20.437   6.920
 3616POPC   C4B47722  36.289  20.283   7.317
 3617POPC   NC347723  10.732  21.386   5.488
 3617POPC   PO447724  10.168  21.758   5.373
 3617POPC   GL147725  10.314  21.559   5.769
 3617POPC   GL247726  10.508  21.258   5.937
 3617POPC   C1A47727  10.503  21.709   6.166
 3617POPC   D2A47728  10.577  21.479   6.542
 3617POPC   C3A47729  10.431  21.665   6.953
 3617POPC   C4A47730  10.240  21.529   7.365
 3617POPC   C1B47731  10.222  21.155   6.280
 3617POPC   C2B47732  10.248  20.983   6.714
 3617POPC   C3B47733  10.447  21.135   7.108
 3617POPC   C4B47734  10.716  21.280   7.453
 3618POPC   NC347735  25.127  29.682   5.427
 3618POPC   PO447736  25.607  30.099   5.607
 3618POPC   GL147737  25.399  29.795   5.863
 3618POPC   GL247738  25.147  30.030   5.931
 3618POPC   C1A47739  25.327  29.729   6.309
 3618POPC   D2A47740  25.258  29.913   6.735
 3618POPC   C3A47741  25.288  29.678   7.124
 3618POPC   C4A47742  25.184  29.817   7.550
 3618POPC   C1B47743  24.916  30.036   6.331
 3618POPC   C2B47744  24.808  30.207   6.748
 3618POPC   C3B47745  24.933  30.066   7.154
 3618POPC   C4B47746  25.072  30.310   7.551
 3619POPC   NC347747  33.758  10.291   5.336
 3619POPC   PO447748  33.512  10.847   5.186
 3619POPC   GL147749  33.790  10.665   5.652
 3619POPC   GL247750  33.536  10.437   5.809
 3619POPC   C1A47751  33.975  10.484   6.068
 3619POPC   D2A47752  34.108  10.298   6.463
 3619POPC   C3A47753  33.904  10.479   6.822
 3619POPC   C4A47754  33.953  10.545   7.256
 3619POPC   C1B47755  33.521  10.502   6.280
 3619POPC   C2B47756  33.402  10.372   6.700
 3619POPC   C3B47757  33.466  10.549   7.121
 3619POPC   C4B47758  33.523  10.612   7.578
 3620POPC   NC347759  34.073  12.039   5.635
 3620POPC   PO447760  34.786  12.157   5.416
 3620POPC   GL147761  34.518  12.225   5.791
 3620POPC   GL247762  34.381  12.571   5.828
 3620POPC   C1A47763  34.519  12.045   6.219
 3620POPC   D2A47764  34.899  11.916   6.467
 3620POPC   C3A47765  34.933  12.045   6.910
 3620POPC   C4A47766  34.782  11.868   7.288
 3620POPC   C1B47767  34.738  12.534   6.134
 3620POPC   C2B47768  34.621  12.424   6.556
 3620POPC   C3B47769  34.696  12.503   6.979
 3620POPC   C4B47770  34.538  12.318   7.323
 3621POPC   NC347771   0.957  38.862   5.225
 3621POPC   PO447772   1.413  38.504   5.560
 3621POPC   GL147773   1.121  38.492   5.874
 3621POPC   GL247774   0.909  38.753   6.039
 3621POPC   C1A47775   1.242  38.331   6.240
 3621POPC   D2A47776   1.587  38.110   6.444
 3621POPC   C3A47777   1.560  38.288   6.851
 3621POPC   C4A47778   1.188  38.418   7.116
 3621POPC   C1B47779   1.226  38.877   6.351
 3621POPC   C2B47780   1.380  38.816   6.785
 3621POPC   C3B47781   1.317  38.936   7.213
 3621POPC   C4B47782   0.990  38.793   7.483
 3622POPC   NC347783  33.128   1.542   5.398
 3622POPC   PO447784  32.642   1.039   5.379
 3622POPC   GL147785  32.871   1.217   5.746
 3622POPC   GL247786  32.774   1.574   5.778
 3622POPC   C1A47787  33.011   1.083   6.172
 3622POPC   D2A47788  32.934   1.284   6.562
 3622POPC   C3A47789  33.157   1.232   6.907
 3622POPC   C4A47790  33.019   1.106   7.292
 3622POPC   C1B47791  33.007   1.626   6.166
 3622POPC   C2B47792  33.321   1.613   6.490
 3622POPC   C3B47793  33.394   1.691   6.909
 3622POPC   C4B47794  33.150   1.631   7.237
 3623POPC   NC347795  44.345  29.106   5.567
 3623POPC   PO447796  43.723  29.374   5.355
 3623POPC   GL147797  43.828  29.131   5.737
 3623POPC   GL247798  43.583  28.829   5.716
 3623POPC   C1A47799  44.050  29.121   6.158
 3623POPC   D2A47800  44.251  29.385   6.490
 3623POPC   C3A47801  44.014  29.259   6.867
 3623POPC   C4A47802  44.056  29.072   7.270
 3623POPC   C1B47803  43.547  28.918   6.159
 3623POPC   C2B47804  43.769  28.870   6.559
 3623POPC   C3B47805  43.651  28.865   6.977
 3623POPC   C4B47806  43.566  29.251   7.160
 3624POPC   NC347807  39.377  23.444   5.327
 3624POPC   PO447808  39.158  24.047   5.258
 3624POPC   GL147809  39.404  23.877   5.674
 3624POPC   GL247810  39.430  23.524   5.867
 3624POPC   C1A47811  39.433  23.978   6.147
 3624POPC   D2A47812  39.372  24.272   6.520
 3624POPC   C3A47813  39.387  24.087   6.969
 3624POPC   C4A47814  39.005  23.931   7.194
 3624POPC   C1B47815  39.520  23.463   6.343
 3624POPC   C2B47816  39.317  23.615   6.735
 3624POPC   C3B47817  39.356  23.541   7.179
 3624POPC   C4B47818  39.666  23.355   7.448
 3625POPC   NC347819  26.294   2.206   5.359
 3625POPC   PO447820  25.674   2.157   5.669
 3625POPC   GL147821  26.085   2.094   5.838
 3625POPC   GL247822  26.196   1.782   5.727
 3625POPC   C1A47823  26.125   2.089   6.273
 3625POPC   D2A47824  25.903   1.995   6.638
 3625POPC   C3A47825  26.100   2.152   6.985
 3625POPC   C4A47826  25.827   2.072   7.322
 3625POPC   C1B47827  26.306   1.609   6.160
 3625POPC   C2B47828  26.352   1.751   6.612
 3625POPC   C3B47829  26.243   1.661   7.056
 3625POPC   C4B47830  26.315   1.953   7.424
 3626POPC   NC347831  44.622  36.597   5.481
 3626POPC   PO447832  44.467  36.014   5.339
 3626POPC   GL147833  44.697  35.939   5.723
 3626POPC   GL247834  44.969  36.165   5.714
 3626POPC   C1A47835  44.656  36.057   6.178
 3626POPC   D2A47836  44.475  36.227   6.569
 3626POPC   C3A47837  44.651  36.151   6.997
 3626POPC   C4A47838  44.361  35.952   7.277
 3626POPC   C1B47839   0.127  36.242   6.129
 3626POPC   C2B47840   0.014  36.258   6.584
 3626POPC   C3B47841   0.138  36.388   7.002
 3626POPC   C4B47842   0.089  36.305   7.424
 3627POPC   NC347843  18.010   1.035   5.300
 3627POPC   PO447844  18.513   1.503   5.234
 3627POPC   GL147845  18.381   1.252   5.630
 3627POPC   GL247846  18.032   1.316   5.774
 3627POPC   C1A47847  18.396   1.083   6.069
 3627POPC   D2A47848  18.436   0.821   6.451
 3627POPC   C3A47849  18.344   1.024   6.845
 3627POPC   C4A47850  18.357   1.319   7.198
 3627POPC   C1B47851  18.130   1.531   6.187
 3627POPC   C2B47852  18.085   1.587   6.652
 3627POPC   C3B47853  17.899   1.548   7.066
 3627POPC   C4B47854  17.915   1.385   7.491
 3628POPC   NC347855  28.156  35.707   5.483
 3628POPC   PO447856  28.536  35.093   5.299
 3628POPC   GL147857  28.504  35.295   5.714
 3628POPC   GL247858  28.760  35.543   5.807
 3628POPC   C1A47859  28.252  35.413   6.084
 3628POPC   D2A47860  28.169  35.562   6.483
 3628POPC   C3A47861  28.260  35.268   6.763
 3628POPC   C4A47862  28.306  35.021   7.112
 3628POPC   C1B47863  28.648  35.689   6.234
 3628POPC   C2B47864  28.650  35.675   6.693
 3628POPC   C3B47865  28.610  35.447   7.082
 3628POPC   C4B47866  28.710  35.559   7.517
 3629POPC   NC347867   5.218   2.233   5.278
 3629POPC   PO447868   5.458   2.843   5.327
 3629POPC   GL147869   5.254   2.654   5.682
 3629POPC   GL247870   4.907   2.562   5.630
 3629POPC   C1A47871   5.051   2.842   6.060
 3629POPC   D2A47872   5.033   3.111   6.432
 3629POPC   C3A47873   5.121   2.833   6.780
 3629POPC   C4A47874   5.235   2.717   7.184
 3629POPC   C1B47875   4.695   2.472   6.064
 3629POPC   C2B47876   4.704   2.641   6.514
 3629POPC   C3B47877   4.770   2.460   6.938
 3629POPC   C4B47878   4.823   2.507   7.391
 3630POPC   NC347879  26.002  13.296   5.153
 3630POPC   PO447880  25.987  12.611   5.206
 3630POPC   GL147881  26.197  12.748   5.653
 3630POPC   GL247882  25.968  12.849   5.885
 3630POPC   C1A47883  26.299  12.597   6.136
 3630POPC   D2A47884  26.002  12.395   6.464
 3630POPC   C3A47885  26.053  12.541   6.907
 3630POPC   C4A47886  26.162  12.886   7.218
 3630POPC   C1B47887  25.747  13.062   6.164
 3630POPC   C2B47888  25.715  13.111   6.566
 3630POPC   C3B47889  25.889  13.214   6.919
 3630POPC   C4B47890  25.713  13.100   7.257
 3631POPC   NC347891   4.316  31.220   5.323
 3631POPC   PO447892   4.281  30.611   5.424
 3631POPC   GL147893   4.167  30.676   5.821
 3631POPC   GL247894   4.136  31.039   5.778
 3631POPC   C1A47895   4.299  30.517   6.222
 3631POPC   D2A47896   4.191  30.388   6.633
 3631POPC   C3A47897   4.476  30.555   6.929
 3631POPC   C4A47898   4.503  30.674   7.370
 3631POPC   C1B47899   4.175  31.014   6.223
 3631POPC   C2B47900   4.383  30.921   6.598
 3631POPC   C3B47901   4.226  31.025   7.024
 3631POPC   C4B47902   3.983  31.068   7.418
 3632POPC   NC347903  21.816  16.533   5.150
 3632POPC   PO447904  22.116  17.100   5.467
 3632POPC   GL147905  22.226  16.875   5.839
 3632POPC   GL247906  22.502  16.641   5.820
 3632POPC   C1A47907  22.099  16.739   6.226
 3632POPC   D2A47908  21.858  16.843   6.562
 3632POPC   C3A47909  22.005  16.899   6.975
 3632POPC   C4A47910  22.089  16.839   7.447
 3632POPC   C1B47911  22.612  16.793   6.259
 3632POPC   C2B47912  22.459  16.952   6.654
 3632POPC   C3B47913  22.506  16.884   7.116
 3632POPC   C4B47914  22.537  16.639   7.507
 3633POPC   NC347915  17.666  41.250   5.577
 3633POPC   PO447916  17.963  41.817   5.323
 3633POPC   GL147917  17.846  41.701   5.819
 3633POPC   GL247918  17.504  41.603   5.916
 3633POPC   C1A47919  17.754  41.671   6.329
 3633POPC   D2A47920  17.724  41.363   6.681
 3633POPC   C3A47921  17.665  41.521   7.099
 3633POPC   C4A47922  17.841  41.790   7.397
 3633POPC   C1B47923  17.260  41.766   6.288
 3633POPC   C2B47924  17.355  41.725   6.749
 3633POPC   C3B47925  17.175  41.562   7.190
 3633POPC   C4B47926  17.180  41.279   7.591
 3634POPC   NC347927  15.660   2.855   5.438
 3634POPC   PO447928  16.307   2.720   5.476
 3634POPC   GL147929  16.091   2.916   5.843
 3634POPC   GL247930  16.002   2.590   5.925
 3634POPC   C1A47931  15.970   2.952   6.317
 3634POPC   D2A47932  16.075   2.715   6.743
 3634POPC   C3A47933  16.271   2.770   7.161
 3634POPC   C4A47934  16.197   2.698   7.615
 3634POPC   C1B47935  15.951   2.400   6.350
 3634POPC   C2B47936  15.830   2.271   6.789
 3634POPC   C3B47937  15.833   2.498   7.198
 3634POPC   C4B47938  15.828   2.945   7.359
 3635POPC   NC347939  35.184   7.685   5.436
 3635POPC   PO447940  35.412   7.058   5.671
 3635POPC   GL147941  35.341   7.466   5.898
 3635POPC   GL247942  34.985   7.602   5.900
 3635POPC   C1A47943  35.267   7.502   6.352
 3635POPC   D2A47944  35.491   7.648   6.737
 3635POPC   C3A47945  35.464   7.336   7.082
 3635POPC   C4A47946  35.285   7.215   7.519
 3635POPC   C1B47947  34.924   7.910   6.225
 3635POPC   C2B47948  35.012   7.839   6.652
 3635POPC   C3B47949  35.058   7.654   7.045
 3635POPC   C4B47950  35.006   7.641   7.487
 3636POPC   NC347951  34.205  15.738   5.567
 3636POPC   PO447952  34.098  16.340   5.343
 3636POPC   GL147953  34.491  16.204   5.636
 3636POPC   GL247954  34.693  15.866   5.669
 3636POPC   C1A47955  34.724  16.206   6.051
 3636POPC   D2A47956  34.829  16.041   6.479
 3636POPC   C3A47957  34.554  16.179   6.809
 3636POPC   C4A47958  34.619  16.368   7.208
 3636POPC   C1B47959  34.653  15.668   6.111
 3636POPC   C2B47960  34.814  15.517   6.517
 3636POPC   C3B47961  34.820  15.730   6.916
 3636POPC   C4B47962  34.503  15.844   7.201
 3637POPC   NC347963  10.112  44.143   5.609
 3637POPC   PO447964   9.660  43.770   5.228
 3637POPC   GL147965   9.726  43.804   5.731
 3637POPC   GL247966   9.611  44.146   5.788
 3637POPC   C1A47967   9.765  43.956   6.224
 3637POPC   D2A47968   9.796  44.204   6.637
 3637POPC   C3A47969   9.952  43.977   7.028
 3637POPC   C4A47970  10.192  43.571   7.026
 3637POPC   C1B47971   9.358  44.243   6.188
 3637POPC   C2B47972   9.344  43.990   6.569
 3637POPC   C3B47973   9.400  44.121   6.988
 3637POPC   C4B47974   9.596  44.079   7.386
 3638POPC   NC347975  41.459   8.008   5.436
 3638POPC   PO447976  41.738   8.627   5.428
 3638POPC   GL147977  41.791   8.295   5.770
 3638POPC   GL247978  41.796   7.915   5.810
 3638POPC   C1A47979  41.540   8.223   6.149
 3638POPC   D2A47980  41.561   7.990   6.554
 3638POPC   C3A47981  41.295   8.042   6.916
 3638POPC   C4A47982  41.345   8.221   7.316
 3638POPC   C1B47983  41.890   7.783   6.220
 3638POPC   C2B47984  42.007   7.751   6.673
 3638POPC   C3B47985  41.676   7.647   6.953
 3638POPC   C4B47986  41.566   7.747   7.312
 3639POPC   NC347987   0.199  15.043   5.335
 3639POPC   PO447988   0.686  15.486   5.340
 3639POPC   GL147989   0.555  15.192   5.703
 3639POPC   GL247990   0.204  15.291   5.778
 3639POPC   C1A47991   0.563  14.970   6.130
 3639POPC   D2A47992   0.676  15.050   6.582
 3639POPC   C3A47993   0.494  15.057   6.993
 3639POPC   C4A47994   0.693  14.993   7.402
 3639POPC   C1B47995   0.086  15.159   6.178
 3639POPC   C2B47996   0.182  15.258   6.593
 3639POPC   C3B47997  44.984  15.273   6.986
 3639POPC   C4B47998   0.188  15.288   7.366
 3640POPC   NC347999  20.104  13.899   5.386
 3640POPC   PO448000  19.668  14.494   5.459
 3640POPC   GL148001  19.723  14.144   5.761
 3640POPC   GL248002  20.086  14.153   5.861
 3640POPC   C1A48003  19.755  14.006   6.207
 3640POPC   D2A48004  19.724  14.226   6.582
 3640POPC   C3A48005  19.966  14.240   6.951
 3640POPC   C4A48006  19.987  14.247   7.373
 3640POPC   C1B48007  19.949  14.506   6.192
 3640POPC   C2B48008  19.927  14.674   6.658
 3640POPC   C3B48009  20.038  14.774   7.085
 3640POPC   C4B48010  20.026  14.714   7.568
 3641POPC   NC348011  35.907  13.062   5.443
 3641POPC   PO448012  36.302  12.553   5.390
 3641POPC   GL148013  36.237  12.757   5.753
 3641POPC   GL248014  35.911  12.738   5.865
 3641POPC   C1A48015  36.329  12.756   6.187
 3641POPC   D2A48016  36.110  12.683   6.589
 3641POPC   C3A48017  36.270  12.819   6.982
 3641POPC   C4A48018  36.229  12.497   7.287
 3641POPC   C1B48019  35.885  13.011   6.234
 3641POPC   C2B48020  36.156  13.190   6.561
 3641POPC   C3B48021  35.926  13.254   6.933
 3641POPC   C4B48022  35.847  12.998   7.258
 3642POPC   NC348023  24.680  34.422   5.518
 3642POPC   PO448024  24.515  35.067   5.292
 3642POPC   GL148025  24.639  34.930   5.721
 3642POPC   GL248026  24.312  34.778   5.824
 3642POPC   C1A48027  24.748  34.639   6.092
 3642POPC   D2A48028  24.838  34.443   6.464
 3642POPC   C3A48029  24.512  34.509   6.765
 3642POPC   C4A48030  24.492  34.376   7.185
 3642POPC   C1B48031  24.262  34.580   6.260
 3642POPC   C2B48032  24.021  34.400   6.636
 3642POPC   C3B48033  24.053  34.147   7.047
 3642POPC   C4B48034  24.073  34.284   7.499
 3643POPC   NC348035   6.439  26.961   4.962
 3643POPC   PO448036   6.457  26.553   5.500
 3643POPC   GL148037   6.699  26.591   5.864
 3643POPC   GL248038   6.819  26.272   5.949
 3643POPC   C1A48039   6.650  26.936   6.186
 3643POPC   D2A48040   6.763  27.159   6.575
 3643POPC   C3A48041   6.581  26.968   6.921
 3643POPC   C4A48042   6.763  26.630   7.140
 3643POPC   C1B48043   6.665  26.436   6.335
 3643POPC   C2B48044   6.551  26.452   6.722
 3643POPC   C3B48045   6.429  26.244   7.015
 3643POPC   C4B48046   6.133  26.393   7.225
 3644POPC   NC348047  21.182  30.394   5.510
 3644POPC   PO448048  21.416  29.754   5.379
 3644POPC   GL148049  21.401  29.742   5.796
 3644POPC   GL248050  21.071  29.859   5.786
 3644POPC   C1A48051  21.625  29.664   6.205
 3644POPC   D2A48052  21.805  29.789   6.626
 3644POPC   C3A48053  21.625  29.572   6.962
 3644POPC   C4A48054  21.301  29.784   7.177
 3644POPC   C1B48055  21.126  29.749   6.229
 3644POPC   C2B48056  21.134  29.842   6.683
 3644POPC   C3B48057  20.830  29.820   7.030
 3644POPC   C4B48058  20.806  29.957   7.462
 3645POPC   NC348059   8.451  19.274   5.428
 3645POPC   PO448060   8.071  18.724   5.507
 3645POPC   GL148061   8.028  19.062   5.808
 3645POPC   GL248062   7.949  19.353   5.690
 3645POPC   C1A48063   8.262  19.235   6.159
 3645POPC   D2A48064   8.224  18.928   6.502
 3645POPC   C3A48065   8.118  19.029   6.918
 3645POPC   C4A48066   8.489  19.129   7.110
 3645POPC   C1B48067   7.805  19.452   6.115
 3645POPC   C2B48068   7.919  19.349   6.535
 3645POPC   C3B48069   8.032  19.536   6.896
 3645POPC   C4B48070   7.927  19.380   7.262
 3646POPC   NC348071   5.186   9.516   5.302
 3646POPC   PO448072   5.348   8.747   5.382
 3646POPC   GL148073   5.185   9.022   5.768
 3646POPC   GL248074   5.324   9.327   5.838
 3646POPC   C1A48075   5.010   9.093   6.245
 3646POPC   D2A48076   4.971   9.153   6.733
 3646POPC   C3A48077   5.118   8.825   7.066
 3646POPC   C4A48078   5.249   8.718   7.491
 3646POPC   C1B48079   5.497   9.201   6.241
 3646POPC   C2B48080   5.485   9.054   6.668
 3646POPC   C3B48081   5.390   9.248   7.034
 3646POPC   C4B48082   5.336   9.516   7.304
 3647POPC   NC348083  33.827  18.635   5.424
 3647POPC   PO448084  33.936  17.999   5.511
 3647POPC   GL148085  33.884  18.312   5.827
 3647POPC   GL248086  33.564  18.441   5.828
 3647POPC   C1A48087  33.830  18.481   6.247
 3647POPC   D2A48088  33.877  18.262   6.605
 3647POPC   C3A48089  33.777  18.524   6.921
 3647POPC   C4A48090  34.026  18.691   7.261
 3647POPC   C1B48091  33.384  18.224   6.190
 3647POPC   C2B48092  33.356  18.309   6.625
 3647POPC   C3B48093  33.528  18.088   6.973
 3647POPC   C4B48094  33.884  18.169   7.246
 3648POPC   NC348095  22.998   2.302   5.434
 3648POPC   PO448096  23.421   1.737   5.425
 3648POPC   GL148097  23.152   1.935   5.751
 3648POPC   GL248098  22.818   1.807   5.781
 3648POPC   C1A48099  23.165   2.259   6.101
 3648POPC   D2A48100  22.894   2.358   6.451
 3648POPC   C3A48101  22.791   2.106   6.817
 3648POPC   C4A48102  22.893   2.102   7.265
 3648POPC   C1B48103  22.826   1.886   6.249
 3648POPC   C2B48104  22.712   1.646   6.630
 3648POPC   C3B48105  22.860   1.549   7.049
 3648POPC   C4B48106  23.050   1.648   7.453
 3649POPC   NC348107  22.156   4.881   5.399
 3649POPC   PO448108  22.158   5.576   5.372
 3649POPC   GL148109  22.254   5.458   5.782
 3649POPC   GL248110  22.334   5.129   5.803
 3649POPC   C1A48111  22.071   5.358   6.194
 3649POPC   D2A48112  22.201   5.225   6.586
 3649POPC   C3A48113  21.919   5.296   6.929
 3649POPC   C4A48114  22.001   5.075   7.303
 3649POPC   C1B48115  22.138   4.812   6.099
 3649POPC   C2B48116  22.284   4.695   6.511
 3649POPC   C3B48117  22.158   4.789   6.899
 3649POPC   C4B48118  22.337   4.659   7.322
 3650POPC   NC348119  38.675  22.955   5.434
 3650POPC   PO448120  38.011  23.115   5.482
 3650POPC   GL148121  38.306  23.126   5.802
 3650POPC   GL248122  38.659  23.124   5.906
 3650POPC   C1A48123  38.216  23.186   6.227
 3650POPC   D2A48124  38.222  22.865   6.524
 3650POPC   C3A48125  38.528  22.863   6.866
 3650POPC   C4A48126  38.365  22.756   7.276
 3650POPC   C1B48127  38.699  23.020   6.333
 3650POPC   C2B48128  38.992  23.223   6.622
 3650POPC   C3B48129  39.066  23.122   7.031
 3650POPC   C4B48130  38.741  23.090   7.293
 3651POPC   NC348131   2.389  29.805   5.535
 3651POPC   PO448132   3.016  29.630   5.445
 3651POPC   GL148133   2.826  29.856   5.813
 3651POPC   GL248134   2.971  30.173   5.811
 3651POPC   C1A48135   2.667  29.799   6.249
 3651POPC   D2A48136   2.871  29.596   6.601
 3651POPC   C3A48137   3.101  29.766   6.971
 3651POPC   C4A48138   2.906  29.767   7.349
 3651POPC   C1B48139   2.775  30.289   6.190
 3651POPC   C2B48140   2.543  30.212   6.570
 3651POPC   C3B48141   2.645  30.011   6.957
 3651POPC   C4B48142   2.459  30.000   7.384
 3652POPC   NC348143  38.311  13.033   5.323
 3652POPC   PO448144  38.833  13.184   5.622
 3652POPC   GL148145  38.494  12.927   5.779
 3652POPC   GL248146  38.576  12.599   5.821
 3652POPC   C1A48147  38.298  12.821   6.186
 3652POPC   D2A48148  38.425  12.973   6.571
 3652POPC   C3A48149  38.340  12.701   6.848
 3652POPC   C4A48150  38.128  12.785   7.181
 3652POPC   C1B48151  38.790  12.907   6.189
 3652POPC   C2B48152  38.870  13.231   6.490
 3652POPC   C3B48153  38.910  13.098   6.913
 3652POPC   C4B48154  38.598  12.984   7.175
 3653POPC   NC348155  20.035  35.571   5.567
 3653POPC   PO448156  19.626  35.039   5.531
 3653POPC   GL148157  19.881  35.187   5.864
 3653POPC   GL248158  19.683  35.472   5.944
 3653POPC   C1A48159  19.969  35.232   6.317
 3653POPC   D2A48160  19.891  34.985   6.701
 3653POPC   C3A48161  19.769  35.216   7.065
 3653POPC   C4A48162  19.541  35.331   7.418
 3653POPC   C1B48163  19.559  35.615   6.338
 3653POPC   C2B48164  19.613  35.634   6.784
 3653POPC   C3B48165  19.591  35.822   7.200
 3653POPC   C4B48166  19.503  35.756   7.683
 3654POPC   NC348167  15.986  17.049   5.308
 3654POPC   PO448168  16.068  17.719   5.388
 3654POPC   GL148169  15.757  17.539   5.689
 3654POPC   GL248170  15.809  17.201   5.769
 3654POPC   C1A48171  15.848  17.532   6.142
 3654POPC   D2A48172  15.733  17.651   6.512
 3654POPC   C3A48173  15.946  17.497   6.872
 3654POPC   C4A48174  15.891  17.661   7.286
 3654POPC   C1B48175  16.141  17.127   6.048
 3654POPC   C2B48176  16.227  17.224   6.465
 3654POPC   C3B48177  16.228  17.036   6.865
 3654POPC   C4B48178  16.246  17.278   7.238
 3655POPC   NC348179  13.654  18.580   5.603
 3655POPC   PO448180  13.849  17.905   5.310
 3655POPC   GL148181  13.882  18.135   5.702
 3655POPC   GL248182  13.516  18.167   5.863
 3655POPC   C1A48183  13.929  18.230   6.151
 3655POPC   D2A48184  13.723  18.174   6.529
 3655POPC   C3A48185  13.934  18.093   6.900
 3655POPC   C4A48186  13.755  18.422   7.090
 3655POPC   C1B48187  13.477  18.501   6.216
 3655POPC   C2B48188  13.439  18.751   6.563
 3655POPC   C3B48189  13.299  18.689   6.990
 3655POPC   C4B48190  13.373  18.553   7.395
 3656POPC   NC348191  32.764   8.102   5.437
 3656POPC   PO448192  33.427   8.206   5.323
 3656POPC   GL148193  33.157   8.367   5.681
 3656POPC   GL248194  33.125   8.047   5.826
 3656POPC   C1A48195  32.907   8.360   6.128
 3656POPC   D2A48196  32.756   8.497   6.545
 3656POPC   C3A48197  32.755   8.156   6.857
 3656POPC   C4A48198  32.756   7.948   7.271
 3656POPC   C1B48199  33.181   7.859   6.231
 3656POPC   C2B48200  33.155   7.789   6.683
 3656POPC   C3B48201  33.247   8.072   7.022
 3656POPC   C4B48202  33.457   8.335   7.293
 3657POPC   NC348203  19.872   3.060   5.457
 3657POPC   PO448204  19.597   2.458   5.457
 3657POPC   GL148205  19.586   2.632   5.848
 3657POPC   GL248206  19.933   2.683   5.830
 3657POPC   C1A48207  19.662   2.785   6.261
 3657POPC   D2A48208  19.850   2.981   6.580
 3657POPC   C3A48209  19.606   2.832   6.900
 3657POPC   C4A48210  19.619   2.939   7.301
 3657POPC   C1B48211  20.175   2.728   6.231
 3657POPC   C2B48212  20.278   2.713   6.687
 3657POPC   C3B48213  20.032   2.634   7.088
 3657POPC   C4B48214  20.045   2.828   7.519
 3658POPC   NC348215  17.997  37.891   5.537
 3658POPC   PO448216  18.471  37.400   5.419
 3658POPC   GL148217  18.354  37.579   5.788
 3658POPC   GL248218  18.015  37.441   5.814
 3658POPC   C1A48219  18.556  37.688   6.189
 3658POPC   D2A48220  18.408  37.558   6.612
 3658POPC   C3A48221  18.624  37.653   6.983
 3658POPC   C4A48222  18.627  37.364   7.338
 3658POPC   C1B48223  18.058  37.728   6.193
 3658POPC   C2B48224  18.113  37.955   6.606
 3658POPC   C3B48225  18.126  37.739   7.038
 3658POPC   C4B48226  18.078  37.691   7.496
 3659POPC   NC348227  32.452   9.045   5.551
 3659POPC   PO448228  31.874   8.612   5.655
 3659POPC   GL148229  32.198   8.773   5.937
 3659POPC   GL248230  32.175   9.130   5.992
 3659POPC   C1A48231  32.346   8.822   6.386
 3659POPC   D2A48232  32.317   9.098   6.774
 3659POPC   C3A48233  32.263   8.905   7.186
 3659POPC   C4A48234  32.041   8.594   7.442
 3659POPC   C1B48235  32.563   9.332   6.198
 3659POPC   C2B48236  32.627   9.530   6.640
 3659POPC   C3B48237  32.635   9.379   7.095
 3659POPC   C4B48238  32.574   9.227   7.535
 3660POPC   NC348239   6.382  12.332   5.091
 3660POPC   PO448240   6.853  12.272   5.420
 3660POPC   GL148241   6.862  12.104   5.840
 3660POPC   GL248242   6.715  11.799   5.828
 3660POPC   C1A48243   6.950  11.997   6.286
 3660POPC   D2A48244   6.960  12.237   6.681
 3660POPC   C3A48245   6.571  12.294   7.013
 3660POPC   C4A48246   6.616  12.293   7.543
 3660POPC   C1B48247   6.447  11.747   6.205
 3660POPC   C2B48248   6.544  11.931   6.613
 3660POPC   C3B48249   6.836  11.848   6.962
 3660POPC   C4B48250   6.540  11.864   7.243
 3661POPC   NC348251   6.317  12.945   5.669
 3661POPC   PO448252   5.739  13.090   5.290
 3661POPC   GL148253   5.644  12.898   5.696
 3661POPC   GL248254   5.916  12.666   5.817
 3661POPC   C1A48255   5.761  13.042   6.121
 3661POPC   D2A48256   6.024  12.938   6.484
 3661POPC   C3A48257   5.759  12.815   6.806
 3661POPC   C4A48258   5.776  12.720   7.209
 3661POPC   C1B48259   6.245  12.554   6.188
 3661POPC   C2B48260   6.238  12.400   6.616
 3661POPC   C3B48261   6.252  12.692   6.962
 3661POPC   C4B48262   6.226  12.561   7.379
 3662POPC   NC348263  21.199  40.451   5.447
 3662POPC   PO448264  21.610  40.908   5.294
 3662POPC   GL148265  21.408  40.858   5.711
 3662POPC   GL248266  21.185  40.638   5.917
 3662POPC   C1A48267  21.604  40.860   6.126
 3662POPC   D2A48268  21.760  40.733   6.523
 3662POPC   C3A48269  21.482  40.875   6.806
 3662POPC   C4A48270  21.518  40.940   7.223
 3662POPC   C1B48271  20.963  40.523   6.309
 3662POPC   C2B48272  21.044  40.589   6.769
 3662POPC   C3B48273  21.047  40.876   7.107
 3662POPC   C4B48274  21.165  40.857   7.574
 3663POPC   NC348275  30.319  30.539   5.405
 3663POPC   PO448276  30.969  30.425   5.442
 3663POPC   GL148277  30.725  30.581   5.804
 3663POPC   GL248278  30.499  30.891   5.763
 3663POPC   C1A48279  30.648  30.361   6.214
 3663POPC   D2A48280  30.490  30.546   6.593
 3663POPC   C3A48281  30.641  30.554   7.025
 3663POPC   C4A48282  30.869  30.266   7.270
 3663POPC   C1B48283  30.638  31.021   6.202
 3663POPC   C2B48284  30.697  31.006   6.669
 3663POPC   C3B48285  30.308  30.943   6.874
 3663POPC   C4B48286  30.180  30.685   7.186
 3664POPC   NC348287   1.125  15.657   5.419
 3664POPC   PO448288   1.288  15.001   5.571
 3664POPC   GL148289   1.355  15.356   5.842
 3664POPC   GL248290   0.992  15.462   5.864
 3664POPC   C1A48291   1.439  15.175   6.263
 3664POPC   D2A48292   1.231  14.959   6.600
 3664POPC   C3A48293   1.313  15.124   7.015
 3664POPC   C4A48294   1.233  15.055   7.460
 3664POPC   C1B48295   0.955  15.339   6.276
 3664POPC   C2B48296   1.020  15.416   6.714
 3664POPC   C3B48297   0.903  15.384   7.144
 3664POPC   C4B48298   0.900  15.429   7.617
 3665POPC   NC348299  30.330   2.319   5.409
 3665POPC   PO448300  29.786   2.720   5.256
 3665POPC   GL148301  29.970   2.622   5.686
 3665POPC   GL248302  29.684   2.736   5.910
 3665POPC   C1A48303  30.159   2.685   6.127
 3665POPC   D2A48304  30.000   2.786   6.565
 3665POPC   C3A48305  30.228   2.658   6.957
 3665POPC   C4A48306  30.072   2.661   7.374
 3665POPC   C1B48307  29.469   2.973   6.255
 3665POPC   C2B48308  29.519   3.021   6.709
 3665POPC   C3B48309  29.726   2.807   7.050
 3665POPC   C4B48310  29.676   2.915   7.524
 3666POPC   NC348311   0.195  43.344   5.185
 3666POPC   PO448312   0.534  42.806   5.444
 3666POPC   GL148313   0.430  43.092   5.795
 3666POPC   GL248314   0.175  43.350   5.725
 3666POPC   C1A48315   0.621  43.179   6.214
 3666POPC   D2A48316   0.631  43.005   6.647
 3666POPC   C3A48317   0.697  43.255   7.031
 3666POPC   C4A48318   0.583  43.430   7.450
 3666POPC   C1B48319   0.107  43.191   6.181
 3666POPC   C2B48320  44.928  43.331   6.533
 3666POPC   C3B48321   0.180  43.325   6.879
 3666POPC   C4B48322   0.096  43.437   7.288
 3667POPC   NC348323  27.485  26.567   5.675
 3667POPC   PO448324  27.626  26.894   5.152
 3667POPC   GL148325  27.875  26.847   5.783
 3667POPC   GL248326  27.868  26.508   5.997
 3667POPC   C1A48327  27.628  26.844   6.273
 3667POPC   D2A48328  27.514  27.062   6.673
 3667POPC   C3A48329  27.768  27.065   7.041
 3667POPC   C4A48330  27.468  27.049   7.345
 3667POPC   C1B48331  28.090  26.644   6.315
 3667POPC   C2B48332  27.895  26.705   6.690
 3667POPC   C3B48333  27.573  26.593   6.988
 3667POPC   C4B48334  27.627  26.558   7.439
 3668POPC   NC348335  28.166  25.847   5.539
 3668POPC   PO448336  28.648  26.307   5.538
 3668POPC   GL148337  28.599  26.203   5.955
 3668POPC   GL248338  28.595  25.870   6.022
 3668POPC   C1A48339  28.620  26.243   6.391
 3668POPC   D2A48340  28.281  26.333   6.664
 3668POPC   C3A48341  28.342  26.146   7.014
 3668POPC   C4A48342  28.714  25.981   7.229
 3668POPC   C1B48343  28.198  25.959   6.244
 3668POPC   C2B48344  28.031  25.731   6.600
 3668POPC   C3B48345  28.278  25.609   6.966
 3668POPC   C4B48346  28.248  25.796   7.358
 3669POPC   NC348347  28.520   0.414   5.561
 3669POPC   PO448348  29.184   0.325   5.299
 3669POPC   GL148349  29.197   0.403   5.739
 3669POPC   GL248350  28.931   0.596   5.890
 3669POPC   C1A48351  29.406   0.547   6.126
 3669POPC   D2A48352  29.209   0.633   6.510
 3669POPC   C3A48353  29.421   0.601   6.890
 3669POPC   C4A48354  29.408   0.733   7.309
 3669POPC   C1B48355  28.737   0.543   6.307
 3669POPC   C2B48356  28.760   0.450   6.760
 3669POPC   C3B48357  28.959   0.547   7.154
 3669POPC   C4B48358  28.855   0.718   7.584
 3670POPC   NC348359  28.814  20.545   5.212
 3670POPC   PO448360  29.419  20.707   5.258
 3670POPC   GL148361  29.289  20.713   5.712
 3670POPC   GL248362  28.963  20.876   5.699
 3670POPC   C1A48363  29.254  20.621   6.201
 3670POPC   D2A48364  29.192  20.767   6.645
 3670POPC   C3A48365  29.243  20.536   7.057
 3670POPC   C4A48366  29.174  20.520   7.518
 3670POPC   C1B48367  28.741  20.747   6.085
 3670POPC   C2B48368  28.669  20.848   6.540
 3670POPC   C3B48369  28.787  20.745   6.961
 3670POPC   C4B48370  28.758  20.791   7.380
 3671POPC   NC348371  22.565  20.392   5.558
 3671POPC   PO448372  23.172  20.206   5.291
 3671POPC   GL148373  23.082  20.383   5.693
 3671POPC   GL248374  22.949  20.731   5.718
 3671POPC   C1A48375  22.977  20.364   6.128
 3671POPC   D2A48376  23.161  20.455   6.540
 3671POPC   C3A48377  22.977  20.376   6.946
 3671POPC   C4A48378  23.160  20.459   7.391
 3671POPC   C1B48379  22.664  20.768   6.091
 3671POPC   C2B48380  22.639  20.563   6.495
 3671POPC   C3B48381  22.512  20.650   6.917
 3671POPC   C4B48382  22.725  20.683   7.291
 3672POPC   NC348383  39.948  24.896   5.328
 3672POPC   PO448384  40.262  25.502   5.337
 3672POPC   GL148385  40.179  25.200   5.660
 3672POPC   GL248386  40.432  24.904   5.663
 3672POPC   C1A48387  39.899  25.086   6.007
 3672POPC   D2A48388  39.689  25.300   6.351
 3672POPC   C3A48389  39.812  25.252   6.780
 3672POPC   C4A48390  39.735  25.555   7.087
 3672POPC   C1B48391  40.441  25.115   6.084
 3672POPC   C2B48392  40.192  25.122   6.449
 3672POPC   C3B48393  40.317  25.167   6.873
 3672POPC   C4B48394  40.105  25.215   7.252
 3673POPC   NC348395  19.926  19.541   5.548
 3673POPC   PO448396  19.714  20.133   5.342
 3673POPC   GL148397  19.724  19.985   5.727
 3673POPC   GL248398  20.053  19.979   5.843
 3673POPC   C1A48399  19.624  19.948   6.150
 3673POPC   D2A48400  19.659  19.689   6.521
 3673POPC   C3A48401  19.835  19.954   6.825
 3673POPC   C4A48402  19.669  20.118   7.191
 3673POPC   C1B48403  20.054  19.655   6.163
 3673POPC   C2B48404  20.169  19.571   6.570
 3673POPC   C3B48405  19.936  19.455   6.914
 3673POPC   C4B48406  19.839  19.651   7.276
 3674POPC   NC348407   9.342   8.574   5.424
 3674POPC   PO448408   9.850   8.128   5.627
 3674POPC   GL148409   9.584   8.168   5.905
 3674POPC   GL248410   9.395   7.856   5.827
 3674POPC   C1A48411   9.789   8.254   6.324
 3674POPC   D2A48412   9.951   8.374   6.725
 3674POPC   C3A48413   9.667   8.334   7.029
 3674POPC   C4A48414   9.291   8.445   7.068
 3674POPC   C1B48415   9.509   7.841   6.277
 3674POPC   C2B48416   9.710   7.884   6.680
 3674POPC   C3B48417   9.424   7.904   6.990
 3674POPC   C4B48418   9.235   7.615   7.225
 3675POPC   NC348419  15.785  29.346   5.360
 3675POPC   PO448420  16.153  28.734   5.387
 3675POPC   GL148421  16.130  28.985   5.802
 3675POPC   GL248422  15.817  29.174   5.849
 3675POPC   C1A48423  16.071  29.028   6.276
 3675POPC   D2A48424  16.042  28.815   6.669
 3675POPC   C3A48425  15.939  29.065   7.025
 3675POPC   C4A48426  16.137  29.167   7.380
 3675POPC   C1B48427  15.716  29.419   6.233
 3675POPC   C2B48428  15.733  29.321   6.621
 3675POPC   C3B48429  15.723  29.552   6.980
 3675POPC   C4B48430  15.756  29.506   7.374
 3676POPC   NC348431  23.475  21.427   5.305
 3676POPC   PO448432  23.459  22.016   5.323
 3676POPC   GL148433  23.575  21.741   5.761
 3676POPC   GL248434  23.567  21.372   5.812
 3676POPC   C1A48435  23.809  21.594   6.187
 3676POPC   D2A48436  23.822  21.367   6.583
 3676POPC   C3A48437  24.124  21.530   6.847
 3676POPC   C4A48438  23.866  21.744   7.145
 3676POPC   C1B48439  23.687  21.069   6.151
 3676POPC   C2B48440  23.518  20.939   6.533
 3676POPC   C3B48441  23.426  21.220   6.845
 3676POPC   C4B48442  23.747  21.227   7.136
 3677POPC   NC348443  20.719  32.576   5.494
 3677POPC   PO448444  21.087  31.966   5.413
 3677POPC   GL148445  20.932  32.188   5.771
 3677POPC   GL248446  20.571  32.173   5.752
 3677POPC   C1A48447  20.854  31.986   6.172
 3677POPC   D2A48448  21.039  31.850   6.535
 3677POPC   C3A48449  20.947  32.169   6.820
 3677POPC   C4A48450  20.676  32.270   7.125
 3677POPC   C1B48451  20.481  32.341   6.179
 3677POPC   C2B48452  20.310  32.304   6.610
 3677POPC   C3B48453  20.287  32.564   6.982
 3677POPC   C4B48454  20.534  32.727   7.308
 3678POPC   NC348455  41.182  23.607   5.432
 3678POPC   PO448456  40.543  23.633   5.242
 3678POPC   GL148457  40.747  23.576   5.714
 3678POPC   GL248458  40.997  23.831   5.854
 3678POPC   C1A48459  40.909  23.467   6.182
 3678POPC   D2A48460  40.854  23.708   6.581
 3678POPC   C3A48461  40.918  23.526   6.978
 3678POPC   C4A48462  40.724  23.664   7.336
 3678POPC   C1B48463  40.894  24.084   6.219
 3678POPC   C2B48464  40.966  24.222   6.646
 3678POPC   C3B48465  40.771  24.075   7.020
 3678POPC   C4B48466  40.788  24.149   7.481
 3679POPC   NC348467  23.506   1.117   5.216
 3679POPC   PO448468  24.207   1.163   5.313
 3679POPC   GL148469  23.922   0.955   5.635
 3679POPC   GL248470  23.554   1.059   5.744
 3679POPC   C1A48471  23.939   0.856   6.117
 3679POPC   D2A48472  23.734   0.977   6.526
 3679POPC   C3A48473  23.933   0.904   6.907
 3679POPC   C4A48474  23.803   1.110   7.275
 3679POPC   C1B48475  23.520   1.280   6.163
 3679POPC   C2B48476  23.725   1.561   6.477
 3679POPC   C3B48477  23.701   1.633   6.908
 3679POPC   C4B48478  23.565   1.587   7.323
 3680POPC   NC348479  31.169   4.606   5.557
 3680POPC   PO448480  31.566   4.131   5.341
 3680POPC   GL148481  31.574   4.059   5.810
 3680POPC   GL248482  31.446   4.391   5.931
 3680POPC   C1A48483  31.531   4.030   6.294
 3680POPC   D2A48484  31.466   4.363   6.616
 3680POPC   C3A48485  31.673   4.278   7.001
 3680POPC   C4A48486  31.481   4.107   7.302
 3680POPC   C1B48487  31.097   4.295   6.241
 3680POPC   C2B48488  31.021   3.994   6.594
 3680POPC   C3B48489  31.069   4.108   7.022
 3680POPC   C4B48490  31.222   4.533   7.062
 3681POPC   NC348491  27.024  44.930   5.432
 3681POPC   PO448492  26.492   0.118   5.724
 3681POPC   GL148493  26.704  44.674   5.770
 3681POPC   GL248494  27.025  44.503   5.902
 3681POPC   C1A48495  26.592  44.439   6.138
 3681POPC   D2A48496  26.609  44.657   6.540
 3681POPC   C3A48497  26.850  44.459   6.847
 3681POPC   C4A48498  26.934  44.453   7.269
 3681POPC   C1B48499  27.009  44.831   6.216
 3681POPC   C2B48500  27.192  44.983   6.618
 3681POPC   C3B48501  27.006  44.924   7.034
 3681POPC   C4B48502  27.138  44.866   7.483
 3682POPC   NC348503   5.466   8.302   5.475
 3682POPC   PO448504   5.161   7.721   5.502
 3682POPC   GL148505   5.317   7.976   5.855
 3682POPC   GL248506   5.630   7.914   6.012
 3682POPC   C1A48507   5.375   8.333   6.160
 3682POPC   D2A48508   5.548   8.576   6.506
 3682POPC   C3A48509   5.455   8.421   6.941
 3682POPC   C4A48510   5.107   8.304   7.229
 3682POPC   C1B48511   5.354   7.837   6.364
 3682POPC   C2B48512   5.250   7.917   6.818
 3682POPC   C3B48513   4.955   7.809   7.174
 3682POPC   C4B48514   5.103   7.610   7.570
 3683POPC   NC348515   1.290  10.738   5.450
 3683POPC   PO448516   1.266  10.195   5.710
 3683POPC   GL148517   1.327  10.560   5.958
 3683POPC   GL248518   1.276  10.923   5.959
 3683POPC   C1A48519   1.467  10.660   6.376
 3683POPC   D2A48520   1.237  10.797   6.710
 3683POPC   C3A48521   1.195  10.541   7.076
 3683POPC   C4A48522   1.331  10.138   7.220
 3683POPC   C1B48523   0.945  10.734   6.278
 3683POPC   C2B48524   0.741  10.760   6.681
 3683POPC   C3B48525   0.897  10.961   7.061
 3683POPC   C4B48526   0.921  10.803   7.486
 3684POPC   NC348527   6.872  35.986   5.502
 3684POPC   PO448528   6.309  36.169   5.402
 3684POPC   GL148529   6.491  36.210   5.794
 3684POPC   GL248530   6.739  36.456   5.738
 3684POPC   C1A48531   6.448  36.014   6.203
 3684POPC   D2A48532   6.643  35.897   6.598
 3684POPC   C3A48533   6.675  36.148   6.972
 3684POPC   C4A48534   6.542  35.994   7.339
 3684POPC   C1B48535   6.794  36.393   6.175
 3684POPC   C2B48536   6.511  36.398   6.550
 3684POPC   C3B48537   6.488  36.627   6.946
 3684POPC   C4B48538   6.494  36.499   7.390
 3685POPC   NC348539  44.714  42.685   5.452
 3685POPC   PO448540  44.751  43.401   5.316
 3685POPC   GL148541  44.676  43.170   5.729
 3685POPC   GL248542  44.921  42.910   5.835
 3685POPC   C1A48543  44.590  43.113   6.196
 3685POPC   D2A48544  44.415  43.163   6.644
 3685POPC   C3A48545  44.666  43.364   6.991
 3685POPC   C4A48546  44.608  43.480   7.436
 3685POPC   C1B48547  44.838  42.646   6.194
 3685POPC   C2B48548  44.663  42.679   6.588
 3685POPC   C3B48549  44.865  42.914   6.892
 3685POPC   C4B48550  44.814  43.001   7.329
 3686POPC   NC348551   2.703  26.304   5.454
 3686POPC   PO448552   2.908  25.667   5.535
 3686POPC   GL148553   2.709  25.923   5.838
 3686POPC   GL248554   2.939  26.240   5.896
 3686POPC   C1A48555   2.557  25.759   6.240
 3686POPC   D2A48556   2.801  25.612   6.599
 3686POPC   C3A48557   2.784  25.809   7.011
 3686POPC   C4A48558   3.072  25.778   7.375
 3686POPC   C1B48559   2.602  26.273   6.201
 3686POPC   C2B48560   2.624  26.131   6.626
 3686POPC   C3B48561   2.626  26.314   7.023
 3686POPC   C4B48562   2.420  26.701   7.044
 3687POPC   NC348563  34.378  18.062   5.306
 3687POPC   PO448564  34.190  18.729   5.148
 3687POPC   GL148565  34.368  18.469   5.630
 3687POPC   GL248566  34.362  18.121   5.798
 3687POPC   C1A48567  34.670  18.427   6.060
 3687POPC   D2A48568  34.727  18.642   6.495
 3687POPC   C3A48569  34.768  18.455   6.924
 3687POPC   C4A48570  34.703  18.010   7.046
 3687POPC   C1B48571  34.234  18.138   6.209
 3687POPC   C2B48572  34.432  18.163   6.591
 3687POPC   C3B48573  34.270  18.349   6.928
 3687POPC   C4B48574  34.378  18.312   7.295
 3688POPC   NC348575   6.357  20.462   5.418
 3688POPC   PO448576   5.738  20.787   5.441
 3688POPC   GL148577   5.901  20.709   5.823
 3688POPC   GL248578   5.963  20.352   5.740
 3688POPC   C1A48579   5.928  20.856   6.268
 3688POPC   D2A48580   6.074  21.004   6.665
 3688POPC   C3A48581   6.029  20.724   7.012
 3688POPC   C4A48582   5.692  20.599   7.235
 3688POPC   C1B48583   6.091  20.364   6.170
 3688POPC   C2B48584   5.951  20.409   6.588
 3688POPC   C3B48585   6.102  20.204   6.961
 3688POPC   C4B48586   5.853  20.131   7.314
 3689POPC   NC348587   7.483  20.644   5.123
 3689POPC   PO448588   7.038  20.790   5.600
 3689POPC   GL148589   7.396  20.576   5.645
 3689POPC   GL248590   7.565  20.832   5.682
 3689POPC   C1A48591   7.537  20.410   6.036
 3689POPC   D2A48592   7.416  20.358   6.485
 3689POPC   C3A48593   7.452  20.558   6.927
 3689POPC   C4A48594   7.814  20.477   7.240
 3689POPC   C1B48595   7.446  20.924   6.107
 3689POPC   C2B48596   7.333  20.876   6.523
 3689POPC   C3B48597   6.980  20.881   6.794
 3689POPC   C4B48598   6.990  20.717   7.198
 3690POPC   NC348599  22.072  32.428   5.400
 3690POPC   PO448600  22.624  32.706   5.578
 3690POPC   GL148601  22.336  32.438   5.831
 3690POPC   GL248602  22.233  32.071   5.783
 3690POPC   C1A48603  22.202  32.402   6.233
 3690POPC   D2A48604  22.347  32.290   6.628
 3690POPC   C3A48605  22.096  32.428   6.976
 3690POPC   C4A48606  22.107  32.274   7.400
 3690POPC   C1B48607  22.027  31.916   6.189
 3690POPC   C2B48608  21.954  31.957   6.653
 3690POPC   C3B48609  21.988  31.773   7.071
 3690POPC   C4B48610  21.839  31.837   7.490
 3691POPC   NC348611  22.349  44.394   5.283
 3691POPC   PO448612  21.850  44.798   5.582
 3691POPC   GL148613  22.031  44.482   5.846
 3691POPC   GL248614  22.390  44.526   5.823
 3691POPC   C1A48615  22.076  44.381   6.298
 3691POPC   D2A48616  22.205  44.627   6.679
 3691POPC   C3A48617  21.840  44.737   6.917
 3691POPC   C4A48618  21.793  44.501   7.287
 3691POPC   C1B48619  22.575  44.862   6.108
 3691POPC   C2B48620  22.568   0.047   6.534
 3691POPC   C3B48621  22.580  44.958   6.971
 3691POPC   C4B48622  22.254  44.752   7.220
 3692POPC   NC348623  18.018  29.302   5.463
 3692POPC   PO448624  18.479  28.901   5.490
 3692POPC   GL148625  18.205  28.964   5.842
 3692POPC   GL248626  18.399  29.281   5.901
 3692POPC   C1A48627  18.189  29.018   6.298
 3692POPC   D2A48628  18.354  29.416   6.486
 3692POPC   C3A48629  18.526  29.266   6.838
 3692POPC   C4A48630  18.562  29.267   7.264
 3692POPC   C1B48631  18.017  29.428   6.079
 3692POPC   C2B48632  17.845  29.355   6.488
 3692POPC   C3B48633  18.024  29.271   6.881
 3692POPC   C4B48634  18.061  29.306   7.306
 3693POPC   NC348635  17.847  27.062   5.376
 3693POPC   PO448636  17.330  26.636   5.524
 3693POPC   GL148637  17.576  26.821   5.805
 3693POPC   GL248638  17.490  27.112   5.746
 3693POPC   C1A48639  17.702  26.759   6.212
 3693POPC   D2A48640  17.485  26.540   6.532
 3693POPC   C3A48641  17.644  26.721   6.881
 3693POPC   C4A48642  17.538  26.685   7.252
 3693POPC   C1B48643  17.482  27.262   6.144
 3693POPC   C2B48644  17.456  27.088   6.560
 3693POPC   C3B48645  17.311  27.124   6.992
 3693POPC   C4B48646  17.340  27.099   7.431
 3694POPC   NC348647  16.243  40.607   5.611
 3694POPC   PO448648  15.877  41.072   5.350
 3694POPC   GL148649  15.843  40.968   5.787
 3694POPC   GL248650  15.689  40.646   5.846
 3694POPC   C1A48651  16.057  40.923   6.196
 3694POPC   D2A48652  16.300  40.624   6.384
 3694POPC   C3A48653  16.317  40.621   6.820
 3694POPC   C4A48654  16.071  40.830   7.105
 3694POPC   C1B48655  15.560  40.849   6.262
 3694POPC   C2B48656  15.641  40.871   6.764
 3694POPC   C3B48657  15.608  40.710   7.229
 3694POPC   C4B48658  15.509  40.584   7.651
 3695POPC   NC348659  26.981  43.439   5.235
 3695POPC   PO448660  26.624  42.959   5.554
 3695POPC   GL148661  26.663  43.282   5.884
 3695POPC   GL248662  26.962  43.499   5.843
 3695POPC   C1A48663  26.536  43.196   6.321
 3695POPC   D2A48664  26.320  43.086   6.684
 3695POPC   C3A48665  26.578  43.093   7.021
 3695POPC   C4A48666  26.751  43.036   7.448
 3695POPC   C1B48667  27.052  43.267   6.248
 3695POPC   C2B48668  26.946  42.984   6.609
 3695POPC   C3B48669  27.066  42.947   7.036
 3695POPC   C4B48670  27.245  43.195   7.358
 3696POPC   NC348671   3.589  36.845   5.409
 3696POPC   PO448672   3.966  37.395   5.352
 3696POPC   GL148673   3.748  37.182   5.742
 3696POPC   GL248674   3.788  36.853   5.889
 3696POPC   C1A48675   3.630  37.247   6.177
 3696POPC   D2A48676   3.783  37.186   6.589
 3696POPC   C3A48677   3.564  37.276   6.927
 3696POPC   C4A48678   3.712  37.084   7.266
 3696POPC   C1B48679   3.388  36.739   6.077
 3696POPC   C2B48680   3.361  36.882   6.501
 3696POPC   C3B48681   3.587  36.775   6.865
 3696POPC   C4B48682   3.398  36.678   7.252
 3697POPC   NC348683  20.615   6.808   5.342
 3697POPC   PO448684  20.439   6.249   5.458
 3697POPC   GL148685  20.738   6.499   5.748
 3697POPC   GL248686  20.767   6.215   5.920
 3697POPC   C1A48687  20.908   6.578   6.217
 3697POPC   D2A48688  20.791   6.247   6.556
 3697POPC   C3A48689  20.656   6.463   6.939
 3697POPC   C4A48690  20.880   6.711   7.226
 3697POPC   C1B48691  20.429   6.381   6.195
 3697POPC   C2B48692  20.273   6.270   6.624
 3697POPC   C3B48693  20.140   6.441   7.036
 3697POPC   C4B48694  20.280   6.621   7.442
 3698POPC   NC348695  26.735  37.845   5.314
 3698POPC   PO448696  26.469  37.224   5.102
 3698POPC   GL148697  26.481  37.405   5.626
 3698POPC   GL248698  26.476  37.763   5.791
 3698POPC   C1A48699  26.478  37.398   6.132
 3698POPC   D2A48700  26.762  37.486   6.517
 3698POPC   C3A48701  26.511  37.681   6.841
 3698POPC   C4A48702  26.485  37.640   7.247
 3698POPC   C1B48703  26.595  37.912   6.260
 3698POPC   C2B48704  26.830  38.028   6.661
 3698POPC   C3B48705  26.924  37.891   7.113
 3698POPC   C4B48706  27.194  37.949   7.516
 3699POPC   NC348707   5.792   0.910   5.373
 3699POPC   PO448708   5.293   1.355   5.529
 3699POPC   GL148709   5.703   1.161   5.805
 3699POPC   GL248710   5.743   0.760   5.845
 3699POPC   C1A48711   6.072   1.150   6.113
 3699POPC   D2A48712   6.206   1.091   6.564
 3699POPC   C3A48713   5.984   1.399   6.808
 3699POPC   C4A48714   5.822   1.500   7.223
 3699POPC   C1B48715   5.577   0.677   6.255
 3699POPC   C2B48716   5.660   0.994   6.580
 3699POPC   C3B48717   5.799   0.966   6.993
 3699POPC   C4B48718   5.511   0.783   7.233
 3700POPC   NC348719  23.101  14.871   5.551
 3700POPC   PO448720  22.941  14.225   5.392
 3700POPC   GL148721  22.871  14.253   5.787
 3700POPC   GL248722  23.210  14.332   5.863
 3700POPC   C1A48723  22.754  14.399   6.185
 3700POPC   D2A48724  23.000  14.397   6.535
 3700POPC   C3A48725  22.850  14.348   6.946
 3700POPC   C4A48726  22.602  14.609   7.214
 3700POPC   C1B48727  23.192  14.708   6.164
 3700POPC   C2B48728  23.378  14.749   6.562
 3700POPC   C3B48729  23.173  14.765   6.959
 3700POPC   C4B48730  23.113  14.590   7.345
 3701POPC   NC348731  44.416  25.751   5.374
 3701POPC   PO448732  43.827  26.080   5.430
 3701POPC   GL148733  44.113  26.199   5.743
 3701POPC   GL248734  43.869  26.256   5.984
 3701POPC   C1A48735  44.295  26.010   6.135
 3701POPC   D2A48736  44.389  26.143   6.577
 3701POPC   C3A48737  44.118  25.979   6.909
 3701POPC   C4A48738  43.785  25.680   6.822
 3701POPC   C1B48739  43.730  25.978   6.334
 3701POPC   C2B48740  43.457  26.038   6.708
 3701POPC   C3B48741  43.612  26.117   7.123
 3701POPC   C4B48742  43.996  26.343   7.263
 3702POPC   NC348743  23.694  43.561   4.981
 3702POPC   PO448744  23.586  43.942   5.569
 3702POPC   GL148745  23.842  43.904   5.887
 3702POPC   GL248746  24.159  44.076   5.827
 3702POPC   C1A48747  23.814  43.668   6.266
 3702POPC   D2A48748  23.856  43.852   6.677
 3702POPC   C3A48749  23.550  43.910   6.975
 3702POPC   C4A48750  23.745  43.729   7.304
 3702POPC   C1B48751  24.043  44.133   6.280
 3702POPC   C2B48752  23.987  44.426   6.613
 3702POPC   C3B48753  24.012  44.315   7.031
 3702POPC   C4B48754  23.766  44.240   7.357
 3703POPC   NC348755  13.196   5.483   5.560
 3703POPC   PO448756  13.605   5.073   5.190
 3703POPC   GL148757  13.680   5.154   5.644
 3703POPC   GL248758  13.669   4.833   5.823
 3703POPC   C1A48759  13.722   5.246   6.112
 3703POPC   D2A48760  13.849   5.220   6.544
 3703POPC   C3A48761  13.575   5.212   6.876
 3703POPC   C4A48762  13.573   5.013   7.272
 3703POPC   C1B48763  13.826   4.762   6.280
 3703POPC   C2B48764  13.714   4.741   6.742
 3703POPC   C3B48765  13.278   4.779   6.939
 3703POPC   C4B48766  13.030   4.721   7.333
 3704POPC   NC348767   2.732   2.254   5.364
 3704POPC   PO448768   3.072   1.667   5.212
 3704POPC   GL148769   3.137   1.689   5.673
 3704POPC   GL248770   2.931   1.970   5.773
 3704POPC   C1A48771   3.129   1.676   6.149
 3704POPC   D2A48772   2.944   1.954   6.488
 3704POPC   C3A48773   2.806   1.877   6.921
 3704POPC   C4A48774   3.155   1.758   7.185
 3704POPC   C1B48775   2.613   1.928   6.112
 3704POPC   C2B48776   2.430   1.975   6.554
 3704POPC   C3B48777   2.238   1.985   6.966
 3704POPC   C4B48778   2.452   1.940   7.373
 3705POPC   NC348779  40.068  38.265   5.180
 3705POPC   PO448780  40.055  37.613   5.422
 3705POPC   GL148781  40.048  37.803   5.836
 3705POPC   GL248782  40.000  37.530   6.045
 3705POPC   C1A48783  39.864  37.963   6.244
 3705POPC   D2A48784  39.928  37.794   6.676
 3705POPC   C3A48785  40.199  38.015   6.972
 3705POPC   C4A48786  40.445  37.968   7.368
 3705POPC   C1B48787  39.973  37.309   6.442
 3705POPC   C2B48788  39.726  37.302   6.794
 3705POPC   C3B48789  39.856  37.399   7.149
 3705POPC   C4B48790  40.069  37.662   7.323
 3706POPC   NC348791   4.533  44.118   5.398
 3706POPC   PO448792   4.586  43.562   5.758
 3706POPC   GL148793   4.459  43.977   5.917
 3706POPC   GL248794   4.140  44.170   5.868
 3706POPC   C1A48795   4.335  43.913   6.340
 3706POPC   D2A48796   4.050  43.882   6.687
 3706POPC   C3A48797   4.314  43.712   6.965
 3706POPC   C4A48798   4.341  43.685   7.364
 3706POPC   C1B48799   4.269  44.402   6.241
 3706POPC   C2B48800   4.355  44.316   6.671
 3706POPC   C3B48801   4.339  44.221   7.097
 3706POPC   C4B48802   4.586  44.194   7.436
 3707POPC   NC348803  44.272  27.416   5.561
 3707POPC   PO448804  43.874  27.056   5.217
 3707POPC   GL148805  43.765  27.228   5.671
 3707POPC   GL248806  43.574  27.559   5.754
 3707POPC   C1A48807  43.857  27.339   6.103
 3707POPC   D2A48808  44.112  27.560   6.416
 3707POPC   C3A48809  43.861  27.499   6.760
 3707POPC   C4A48810  43.684  27.155   6.992
 3707POPC   C1B48811  43.734  27.846   6.119
 3707POPC   C2B48812  43.791  28.003   6.563
 3707POPC   C3B48813  43.948  27.947   6.998
 3707POPC   C4B48814  43.790  27.602   7.248
 3708POPC   NC348815  35.691  32.035   5.433
 3708POPC   PO448816  35.089  32.307   5.293
 3708POPC   GL148817  35.243  32.360   5.731
 3708POPC   GL248818  35.541  32.183   5.883
 3708POPC   C1A48819  35.235  32.422   6.205
 3708POPC   D2A48820  35.393  32.216   6.593
 3708POPC   C3A48821  35.266  32.338   7.002
 3708POPC   C4A48822  35.306  32.048   7.342
 3708POPC   C1B48823  35.570  31.893   6.232
 3708POPC   C2B48824  35.783  31.889   6.656
 3708POPC   C3B48825  35.760  32.123   7.077
 3708POPC   C4B48826  35.750  32.188   7.543
 3709POPC   NC348827  31.082  29.195   5.522
 3709POPC   PO448828  31.688  28.790   5.406
 3709POPC   GL148829  31.504  28.970   5.765
 3709POPC   GL248830  31.585  29.320   5.847
 3709POPC   C1A48831  31.634  28.965   6.198
 3709POPC   D2A48832  31.460  28.863   6.559
 3709POPC   C3A48833  31.544  29.073   6.920
 3709POPC   C4A48834  31.423  28.952   7.355
 3709POPC   C1B48835  31.352  29.472   6.226
 3709POPC   C2B48836  31.204  29.476   6.676
 3709POPC   C3B48837  31.398  29.517   7.102
 3709POPC   C4B48838  31.323  29.389   7.578
 3710POPC   NC348839  42.455  16.365   5.120
 3710POPC   PO448840  41.786  16.485   5.228
 3710POPC   GL148841  42.065  16.671   5.588
 3710POPC   GL248842  42.370  16.461   5.649
 3710POPC   C1A48843  42.235  16.833   6.022
 3710POPC   D2A48844  42.307  17.029   6.468
 3710POPC   C3A48845  42.360  16.889   6.927
 3710POPC   C4A48846  42.456  17.112   7.330
 3710POPC   C1B48847  42.620  16.359   6.023
 3710POPC   C2B48848  42.624  16.471   6.474
 3710POPC   C3B48849  42.525  16.393   6.904
 3710POPC   C4B48850  42.576  16.590   7.323
 3711POPC   NC348851  26.406  28.344   5.595
 3711POPC   PO448852  25.979  27.985   5.168
 3711POPC   GL148853  25.960  28.433   5.781
 3711POPC   GL248854  26.266  28.618   5.988
 3711POPC   C1A48855  26.066  28.244   6.249
 3711POPC   D2A48856  26.313  28.483   6.559
 3711POPC   C3A48857  26.186  28.425   6.991
 3711POPC   C4A48858  26.136  28.082   7.274
 3711POPC   C1B48859  25.888  28.723   6.220
 3711POPC   C2B48860  25.783  28.557   6.622
 3711POPC   C3B48861  25.811  28.778   7.000
 3711POPC   C4B48862  25.844  28.722   7.452
 3712POPC   NC348863   3.574  26.511   5.291
 3712POPC   PO448864   3.671  27.190   5.349
 3712POPC   GL148865   3.480  26.900   5.649
 3712POPC   GL248866   3.231  27.049   5.842
 3712POPC   C1A48867   3.377  26.556   5.980
 3712POPC   D2A48868   3.645  26.374   6.336
 3712POPC   C3A48869   3.567  26.411   6.806
 3712POPC   C4A48870   3.567  26.549   7.255
 3712POPC   C1B48871   3.248  27.017   6.295
 3712POPC   C2B48872   3.228  27.139   6.709
 3712POPC   C3B48873   3.425  27.005   7.054
 3712POPC   C4B48874   3.294  26.931   7.475
 3713POPC   NC348875   0.211  19.141   5.570
 3713POPC   PO448876   0.780  18.968   5.526
 3713POPC   GL148877   0.627  19.263   5.841
 3713POPC   GL248878   0.411  19.554   5.770
 3713POPC   C1A48879   0.450  19.034   6.197
 3713POPC   D2A48880   0.637  18.870   6.576
 3713POPC   C3A48881   0.325  18.783   6.888
 3713POPC   C4A48882   0.393  18.850   7.306
 3713POPC   C1B48883   0.370  19.627   6.161
 3713POPC   C2B48884   0.314  19.405   6.525
 3713POPC   C3B48885   0.321  19.285   6.936
 3713POPC   C4B48886   0.023  19.207   7.246
 3714POPC   NC348887  33.223  42.330   5.495
 3714POPC   PO448888  32.654  41.860   5.390
 3714POPC   GL148889  32.930  41.986   5.788
 3714POPC   GL248890  33.193  42.225   5.980
 3714POPC   C1A48891  33.055  41.799   6.209
 3714POPC   D2A48892  32.839  41.883   6.632
 3714POPC   C3A48893  33.128  42.091   6.891
 3714POPC   C4A48894  33.080  42.106   7.324
 3714POPC   C1B48895  32.808  42.234   6.238
 3714POPC   C2B48896  32.712  42.485   6.581
 3714POPC   C3B48897  32.822  42.484   7.004
 3714POPC   C4B48898  32.858  42.590   7.417
 3715POPC   NC348899  41.405  11.815   5.489
 3715POPC   PO448900  41.315  12.518   5.556
 3715POPC   GL148901  41.484  12.263   5.799
 3715POPC   GL248902  41.175  12.103   5.838
 3715POPC   C1A48903  41.805  12.248   6.101
 3715POPC   D2A48904  41.793  12.057   6.510
 3715POPC   C3A48905  41.817  12.258   6.893
 3715POPC   C4A48906  41.708  12.047   7.244
 3715POPC   C1B48907  41.376  11.943   6.200
 3715POPC   C2B48908  41.152  11.759   6.519
 3715POPC   C3B48909  41.008  11.886   6.885
 3715POPC   C4B48910  41.211  12.058   7.207
 3716POPC   NC348911  32.135  35.683   5.479
 3716POPC   PO448912  32.482  35.172   5.658
 3716POPC   GL148913  32.119  35.339   5.877
 3716POPC   GL248914  31.993  35.022   5.923
 3716POPC   C1A48915  32.163  35.561   6.285
 3716POPC   D2A48916  32.533  35.436   6.577
 3716POPC   C3A48917  32.494  35.559   7.012
 3716POPC   C4A48918  32.107  35.772   7.101
 3716POPC   C1B48919  32.216  35.063   6.322
 3716POPC   C2B48920  32.027  35.222   6.684
 3716POPC   C3B48921  32.109  35.246   7.107
 3716POPC   C4B48922  32.491  35.054   7.296
 3717POPC   NC348923  15.421  27.044   5.483
 3717POPC   PO448924  14.772  26.884   5.483
 3717POPC   GL148925  15.112  26.921   5.863
 3717POPC   GL248926  15.316  26.628   5.831
 3717POPC   C1A48927  15.452  26.873   6.257
 3717POPC   D2A48928  15.443  26.974   6.724
 3717POPC   C3A48929  15.118  26.772   7.002
 3717POPC   C4A48930  14.984  26.356   7.130
 3717POPC   C1B48931  15.635  26.408   6.096
 3717POPC   C2B48932  15.581  26.335   6.513
 3717POPC   C3B48933  15.532  26.506   6.918
 3717POPC   C4B48934  15.445  26.484   7.372
 3718POPC   NC348935  42.571  39.313   5.499
 3718POPC   PO448936  43.207  39.087   5.235
 3718POPC   GL148937  42.965  39.071   5.669
 3718POPC   GL248938  42.946  39.425   5.811
 3718POPC   C1A48939  42.894  38.991   6.123
 3718POPC   D2A48940  43.172  38.981   6.495
 3718POPC   C3A48941  43.371  39.303   6.784
 3718POPC   C4A48942  43.359  39.388   7.235
 3718POPC   C1B48943  42.789  39.481   6.218
 3718POPC   C2B48944  42.897  39.549   6.648
 3718POPC   C3B48945  42.845  39.395   7.091
 3718POPC   C4B48946  42.577  39.188   7.445
 3719POPC   NC348947  30.560  35.416   5.414
 3719POPC   PO448948  30.923  35.936   5.570
 3719POPC   GL148949  30.941  35.551   5.825
 3719POPC   GL248950  30.737  35.229   5.840
 3719POPC   C1A48951  30.877  35.461   6.280
 3719POPC   D2A48952  30.729  35.658   6.680
 3719POPC   C3A48953  30.902  35.430   7.029
 3719POPC   C4A48954  31.114  35.011   7.076
 3719POPC   C1B48955  30.475  35.132   6.178
 3719POPC   C2B48956  30.610  35.148   6.592
 3719POPC   C3B48957  30.442  35.224   6.957
 3719POPC   C4B48958  30.388  34.944   7.266
 3720POPC   NC348959  34.590  39.577   5.506
 3720POPC   PO448960  34.842  40.189   5.393
 3720POPC   GL148961  34.742  40.129   5.831
 3720POPC   GL248962  34.667  39.789   5.964
 3720POPC   C1A48963  34.566  40.256   6.237
 3720POPC   D2A48964  34.235  40.011   6.455
 3720POPC   C3A48965  34.104  40.196   6.820
 3720POPC   C4A48966  34.333  40.227   7.204
 3720POPC   C1B48967  34.932  39.867   6.335
 3720POPC   C2B48968  34.832  39.976   6.791
 3720POPC   C3B48969  34.684  39.758   7.176
 3720POPC   C4B48970  34.669  39.647   7.633
 3721POPC   NC348971   0.231  20.040   5.132
 3721POPC   PO448972   0.752  19.712   5.454
 3721POPC   GL148973   0.659  20.038   5.688
 3721POPC   GL248974   0.324  20.054   5.699
 3721POPC   C1A48975   0.628  20.087   6.133
 3721POPC   D2A48976   0.641  19.843   6.521
 3721POPC   C3A48977   0.672  20.003   6.935
 3721POPC   C4A48978   0.818  19.738   7.231
 3721POPC   C1B48979   0.073  20.058   6.085
 3721POPC   C2B48980   0.129  20.106   6.548
 3721POPC   C3B48981   0.217  19.796   6.836
 3721POPC   C4B48982   0.319  19.691   7.243
 3722POPC   NC348983  23.162  31.685   5.315
 3722POPC   PO448984  22.686  31.204   5.504
 3722POPC   GL148985  22.816  31.314   5.879
 3722POPC   GL248986  22.929  31.638   5.796
 3722POPC   C1A48987  22.874  31.123   6.271
 3722POPC   D2A48988  22.653  31.212   6.634
 3722POPC   C3A48989  22.774  31.551   6.869
 3722POPC   C4A48990  22.932  31.287   7.179
 3722POPC   C1B48991  23.088  31.942   6.115
 3722POPC   C2B48992  23.109  31.855   6.572
 3722POPC   C3B48993  23.178  31.812   7.027
 3722POPC   C4B48994  22.984  31.744   7.413
 3723POPC   NC348995  27.507  36.471   5.459
 3723POPC   PO448996  28.120  36.840   5.518
 3723POPC   GL148997  27.874  36.960   5.935
 3723POPC   GL248998  27.519  36.977   5.868
 3723POPC   C1A48999  27.642  36.736   6.298
 3723POPC   D2A49000  27.506  36.611   6.706
 3723POPC   C3A49001  27.629  36.811   7.062
 3723POPC   C4A49002  27.645  36.567   7.390
 3723POPC   C1B49003  27.515  37.226   6.265
 3723POPC   C2B49004  27.601  37.190   6.716
 3723POPC   C3B49005  27.560  37.349   7.151
 3723POPC   C4B49006  27.470  37.503   7.587
 3724POPC   NC349007  32.380  26.816   5.395
 3724POPC   PO449008  31.803  26.522   5.489
 3724POPC   GL149009  32.092  26.752   5.809
 3724POPC   GL249010  32.473  26.608   5.853
 3724POPC   C1A49011  32.238  26.871   6.216
 3724POPC   D2A49012  32.238  26.691   6.594
 3724POPC   C3A49013  32.258  27.056   6.850
 3724POPC   C4A49014  32.428  27.111   7.232
 3724POPC   C1B49015  32.549  26.427   6.267
 3724POPC   C2B49016  32.631  26.408   6.746
 3724POPC   C3B49017  32.402  26.601   7.100
 3724POPC   C4B49018  32.606  26.694   7.486
 3725POPC   NC349019  21.897   0.254   5.523
 3725POPC   PO449020  22.584   0.468   5.476
 3725POPC   GL149021  22.283   0.511   5.828
 3725POPC   GL249022  21.996   0.751   5.713
 3725POPC   C1A49023  22.177   0.299   6.232
 3725POPC   D2A49024  22.264   0.450   6.660
 3725POPC   C3A49025  22.144   0.211   7.025
 3725POPC   C4A49026  22.394   0.199   7.407
 3725POPC   C1B49027  21.871   0.693   6.122
 3725POPC   C2B49028  21.797   0.658   6.573
 3725POPC   C3B49029  21.957   0.674   7.009
 3725POPC   C4B49030  22.035   0.548   7.450
 3726POPC   NC349031  20.221  16.186   5.565
 3726POPC   PO449032  19.531  16.021   5.370
 3726POPC   GL149033  19.726  16.138   5.751
 3726POPC   GL249034  19.809  15.809   5.761
 3726POPC   C1A49035  19.917  16.057   6.197
 3726POPC   D2A49036  19.709  16.122   6.579
 3726POPC   C3A49037  19.936  16.326   6.874
 3726POPC   C4A49038  19.883  16.247   7.350
 3726POPC   C1B49039  19.669  15.610   6.151
 3726POPC   C2B49040  19.814  15.628   6.579
 3726POPC   C3B49041  19.753  15.831   6.997
 3726POPC   C4B49042  19.916  15.723   7.391
 3727POPC   NC349043  18.226   1.774   5.500
 3727POPC   PO449044  18.056   2.386   5.239
 3727POPC   GL149045  18.287   2.431   5.681
 3727POPC   GL249046  18.411   2.152   5.806
 3727POPC   C1A49047  18.303   2.444   6.190
 3727POPC   D2A49048  18.081   2.231   6.565
 3727POPC   C3A49049  18.215   2.013   6.957
 3727POPC   C4A49050  18.210   1.803   7.380
 3727POPC   C1B49051  18.443   1.960   6.284
 3727POPC   C2B49052  18.575   1.733   6.679
 3727POPC   C3B49053  18.656   1.771   7.142
 3727POPC   C4B49054  18.692   1.874   7.615
 3728POPC   NC349055  25.136  24.311   5.450
 3728POPC   PO449056  25.719  24.534   5.426
 3728POPC   GL149057  25.443  24.379   5.844
 3728POPC   GL249058  25.161  24.591   5.892
 3728POPC   C1A49059  25.186  24.152   6.206
 3728POPC   D2A49060  24.975  24.254   6.637
 3728POPC   C3A49061  25.303  24.297   7.008
 3728POPC   C4A49062  25.531  24.649   7.219
 3728POPC   C1B49063  24.808  24.505   6.165
 3728POPC   C2B49064  24.640  24.709   6.509
 3728POPC   C3B49065  24.813  24.851   6.867
 3728POPC   C4B49066  25.027  24.690   7.214
 3729POPC   NC349067  40.484  11.416   5.346
 3729POPC   PO449068  41.020  11.632   5.693
 3729POPC   GL149069  40.730  11.487   5.988
 3729POPC   GL249070  40.511  11.237   5.860
 3729POPC   C1A49071  40.897  11.244   6.316
 3729POPC   D2A49072  41.175  11.259   6.637
 3729POPC   C3A49073  40.954  11.375   6.952
 3729POPC   C4A49074  41.032  11.216   7.336
 3729POPC   C1B49075  40.400  11.110   6.276
 3729POPC   C2B49076  40.378  11.266   6.726
 3729POPC   C3B49077  40.508  11.196   7.144
 3729POPC   C4B49078  40.568  11.183   7.580
 3730POPC   NC349079  35.364   3.086   5.451
 3730POPC   PO449080  35.151   3.695   5.337
 3730POPC   GL149081  35.143   3.542   5.766
 3730POPC   GL249082  35.480   3.446   5.826
 3730POPC   C1A49083  35.228   3.677   6.212
 3730POPC   D2A49084  35.476   3.678   6.613
 3730POPC   C3A49085  35.348   3.686   7.054
 3730POPC   C4A49086  35.052   3.556   7.311
 3730POPC   C1B49087  35.565   3.290   6.259
 3730POPC   C2B49088  35.529   3.154   6.690
 3730POPC   C3B49089  35.496   3.198   7.122
 3730POPC   C4B49090  35.500   3.408   7.513
 3731POPC   NC349091  28.690   4.708   5.508
 3731POPC   PO449092  28.294   4.165   5.380
 3731POPC   GL149093  28.202   4.285   5.805
 3731POPC   GL249094  28.508   4.440   5.892
 3731POPC   C1A49095  28.299   4.169   6.267
 3731POPC   D2A49096  28.128   4.050   6.690
 3731POPC   C3A49097  28.179   4.409   6.991
 3731POPC   C4A49098  28.366   4.653   7.318
 3731POPC   C1B49099  28.562   4.674   6.265
 3731POPC   C2B49100  28.671   4.731   6.709
 3731POPC   C3B49101  28.704   4.395   7.026
 3731POPC   C4B49102  28.455   3.999   7.144
 3732POPC   NC349103  12.990  27.142   5.301
 3732POPC   PO449104  12.720  27.729   5.475
 3732POPC   GL149105  12.988  27.583   5.835
 3732POPC   GL249106  13.205  27.253   5.786
 3732POPC   C1A49107  12.844  27.694   6.275
 3732POPC   D2A49108  12.654  27.583   6.668
 3732POPC   C3A49109  12.798  27.754   7.018
 3732POPC   C4A49110  12.584  27.964   7.354
 3732POPC   C1B49111  13.017  27.227   6.223
 3732POPC   C2B49112  13.087  27.337   6.670
 3732POPC   C3B49113  12.951  27.246   7.090
 3732POPC   C4B49114  12.815  27.258   7.514
 3733POPC   NC349115  31.448  34.958   5.426
 3733POPC   PO449116  31.161  34.432   5.258
 3733POPC   GL149117  31.394  34.465   5.668
 3733POPC   GL249118  31.694  34.629   5.792
 3733POPC   C1A49119  31.260  34.417   6.122
 3733POPC   D2A49120  31.402  34.456   6.564
 3733POPC   C3A49121  31.172  34.343   6.942
 3733POPC   C4A49122  31.292  34.336   7.365
 3733POPC   C1B49123  31.650  34.781   6.232
 3733POPC   C2B49124  31.832  34.713   6.664
 3733POPC   C3B49125  31.557  34.741   7.032
 3733POPC   C4B49126  31.636  35.105   7.255
 3734POPC   NC349127   0.327  36.050   5.241
 3734POPC   PO449128   0.076  36.620   5.531
 3734POPC   GL149129   0.473  36.421   5.671
 3734POPC   GL249130   0.485  36.079   5.766
 3734POPC   C1A49131   0.606  36.438   6.112
 3734POPC   D2A49132   0.520  36.221   6.485
 3734POPC   C3A49133   0.647  36.297   6.885
 3734POPC   C4A49134   0.566  36.168   7.288
 3734POPC   C1B49135   0.640  35.852   6.128
 3734POPC   C2B49136   0.528  35.706   6.549
 3734POPC   C3B49137   0.299  35.910   6.873
 3734POPC   C4B49138   0.224  35.805   7.291
 3735POPC   NC349139  24.680  14.596   5.540
 3735POPC   PO449140  24.198  14.154   5.483
 3735POPC   GL149141  24.244  14.457   5.838
 3735POPC   GL249142  24.094  14.799   5.843
 3735POPC   C1A49143  24.540  14.420   6.198
 3735POPC   D2A49144  24.833  14.509   6.563
 3735POPC   C3A49145  24.690  14.276   6.930
 3735POPC   C4A49146  24.598  14.286   7.379
 3735POPC   C1B49147  24.086  14.672   6.293
 3735POPC   C2B49148  24.327  14.541   6.662
 3735POPC   C3B49149  24.412  14.690   7.085
 3735POPC   C4B49150  24.409  14.716   7.539
 3736POPC   NC349151  20.020   2.239   5.356
 3736POPC   PO449152  20.069   1.611   5.303
 3736POPC   GL149153  20.002   1.831   5.718
 3736POPC   GL249154  20.157   2.165   5.829
 3736POPC   C1A49155  19.830   1.779   6.145
 3736POPC   D2A49156  19.595   1.963   6.490
 3736POPC   C3A49157  19.774   1.835   6.863
 3736POPC   C4A49158  19.632   1.844   7.291
 3736POPC   C1B49159  19.902   2.296   6.185
 3736POPC   C2B49160  19.839   2.434   6.616
 3736POPC   C3B49161  19.631   2.311   6.998
 3736POPC   C4B49162  19.707   2.394   7.420
 3737POPC   NC349163  21.346   7.132   5.467
 3737POPC   PO449164  21.279   7.732   5.437
 3737POPC   GL149165  21.363   7.558   5.842
 3737POPC   GL249166  21.070   7.637   6.009
 3737POPC   C1A49167  21.600   7.460   6.234
 3737POPC   D2A49168  21.804   7.466   6.653
 3737POPC   C3A49169  21.606   7.180   6.967
 3737POPC   C4A49170  21.392   7.427   7.280
 3737POPC   C1B49171  21.164   7.171   6.155
 3737POPC   C2B49172  21.142   6.963   6.585
 3737POPC   C3B49173  21.058   7.142   7.033
 3737POPC   C4B49174  20.917   7.417   7.436
 3738POPC   NC349175  42.704  36.686   5.367
 3738POPC   PO449176  43.222  36.171   5.247
 3738POPC   GL149177  43.144  36.307   5.699
 3738POPC   GL249178  43.456  36.465   5.823
 3738POPC   C1A49179  43.087  36.203   6.184
 3738POPC   D2A49180  43.367  36.076   6.567
 3738POPC   C3A49181  43.203  35.815   6.938
 3738POPC   C4A49182  42.849  35.972   7.175
 3738POPC   C1B49183  43.476  36.538   6.282
 3738POPC   C2B49184  43.318  36.628   6.704
 3738POPC   C3B49185  43.219  36.318   7.024
 3738POPC   C4B49186  43.352  36.154   7.430
 3739POPC   NC349187  44.107  34.801   5.478
 3739POPC   PO449188  43.737  34.300   5.359
 3739POPC   GL149189  43.725  34.506   5.785
 3739POPC   GL249190  44.042  34.649   5.956
 3739POPC   C1A49191  43.606  34.688   6.206
 3739POPC   D2A49192  43.825  34.540   6.583
 3739POPC   C3A49193  43.681  34.533   7.009
 3739POPC   C4A49194  43.775  34.328   7.392
 3739POPC   C1B49195  44.380  34.786   6.227
 3739POPC   C2B49196  44.307  34.777   6.677
 3739POPC   C3B49197  44.127  34.931   7.090
 3739POPC   C4B49198  44.182  35.087   7.560
 3740POPC   NC349199  42.884   9.551   5.251
 3740POPC   PO449200  43.517   9.840   5.445
 3740POPC   GL149201  43.307   9.820   5.778
 3740POPC   GL249202  43.341   9.461   5.808
 3740POPC   C1A49203  43.407  10.000   6.152
 3740POPC   D2A49204  43.200  10.061   6.510
 3740POPC   C3A49205  43.202   9.688   6.745
 3740POPC   C4A49206  42.947   9.808   7.060
 3740POPC   C1B49207  43.150   9.548   6.227
 3740POPC   C2B49208  42.812   9.410   6.500
 3740POPC   C3B49209  42.627   9.439   6.909
 3740POPC   C4B49210  42.783   9.420   7.346
 3741POPC   NC349211  42.127  44.395   5.549
 3741POPC   PO449212  42.413  44.991   5.537
 3741POPC   GL149213  42.320  44.752   5.901
 3741POPC   GL249214  42.466  44.401   5.942
 3741POPC   C1A49215  42.404  44.828   6.336
 3741POPC   D2A49216  42.430  44.932   6.790
 3741POPC   C3A49217  42.331  44.603   7.092
 3741POPC   C4A49218  42.177  44.642   7.526
 3741POPC   C1B49219  42.175  44.204   6.253
 3741POPC   C2B49220  41.958  44.307   6.644
 3741POPC   C3B49221  42.009  44.171   7.063
 3741POPC   C4B49222  42.361  44.187   7.407
 3742POPC   NC349223  15.017  17.952   5.204
 3742POPC   PO449224  15.416  18.449   5.184
 3742POPC   GL149225  15.239  18.217   5.619
 3742POPC   GL249226  14.884  18.066   5.695
 3742POPC   C1A49227  15.134  18.357   6.091
 3742POPC   D2A49228  15.188  18.574   6.532
 3742POPC   C3A49229  15.076  18.464   6.966
 3742POPC   C4A49230  15.384  18.536   7.293
 3742POPC   C1B49231  14.933  17.896   6.129
 3742POPC   C2B49232  14.831  17.957   6.565
 3742POPC   C3B49233  15.029  17.931   6.979
 3742POPC   C4B49234  15.060  18.153   7.386
 3743POPC   NC349235  39.832   7.146   5.302
 3743POPC   PO449236  40.311   7.603   5.261
 3743POPC   GL149237  40.303   7.438   5.666
 3743POPC   GL249238  40.134   7.736   5.724
 3743POPC   C1A49239  40.243   7.341   6.124
 3743POPC   D2A49240  39.955   7.381   6.493
 3743POPC   C3A49241  40.134   7.287   6.911
 3743POPC   C4A49242  39.953   7.040   7.231
 3743POPC   C1B49243  39.940   7.778   6.110
 3743POPC   C2B49244  39.845   7.902   6.504
 3743POPC   C3B49245  39.956   7.772   6.896
 3743POPC   C4B49246  39.803   7.547   7.231
 3744POPC   NC349247  18.792  27.336   5.194
 3744POPC   PO449248  19.253  26.826   5.401
 3744POPC   GL149249  19.006  26.814   5.773
 3744POPC   GL249250  18.936  27.143   5.722
 3744POPC   C1A49251  18.824  26.790   6.221
 3744POPC   D2A49252  19.135  26.723   6.580
 3744POPC   C3A49253  18.994  26.677   7.008
 3744POPC   C4A49254  19.179  26.680   7.442
 3744POPC   C1B49255  19.193  27.110   6.122
 3744POPC   C2B49256  19.024  27.209   6.540
 3744POPC   C3B49257  19.202  27.164   6.901
 3744POPC   C4B49258  19.018  27.118   7.252
 3745POPC   NC349259  22.723  22.828   5.359
 3745POPC   PO449260  23.309  22.977   5.090
 3745POPC   GL149261  23.154  23.078   5.575
 3745POPC   GL249262  23.322  23.296   5.774
 3745POPC   C1A49263  23.092  22.960   6.081
 3745POPC   D2A49264  22.889  22.989   6.501
 3745POPC   C3A49265  22.925  22.728   6.893
 3745POPC   C4A49266  22.909  22.953   7.264
 3745POPC   C1B49267  23.521  23.273   6.128
 3745POPC   C2B49268  23.396  23.214   6.527
 3745POPC   C3B49269  23.167  23.186   6.884
 3745POPC   C4B49270  23.312  23.252   7.271
 3746POPC   NC349271  27.784  32.795   5.558
 3746POPC   PO449272  27.351  33.201   5.520
 3746POPC   GL149273  27.549  33.175   5.919
 3746POPC   GL249274  27.540  32.840   6.011
 3746POPC   C1A49275  27.832  33.319   6.254
 3746POPC   D2A49276  27.992  33.351   6.691
 3746POPC   C3A49277  27.656  33.178   6.959
 3746POPC   C4A49278  27.423  32.963   7.271
 3746POPC   C1B49279  27.955  32.760   6.207
 3746POPC   C2B49280  27.929  32.527   6.589
 3746POPC   C3B49281  27.784  32.669   6.981
 3746POPC   C4B49282  27.915  32.583   7.380
 3747POPC   NC349283  29.580   6.255   5.349
 3747POPC   PO449284  29.850   6.932   5.390
 3747POPC   GL149285  30.031   6.819   5.780
 3747POPC   GL249286  29.965   6.471   5.781
 3747POPC   C1A49287  30.087   6.749   6.255
 3747POPC   D2A49288  30.009   6.678   6.722
 3747POPC   C3A49289  30.014   6.977   7.056
 3747POPC   C4A49290  30.019   6.988   7.491
 3747POPC   C1B49291  29.653   6.339   6.117
 3747POPC   C2B49292  29.523   6.283   6.566
 3747POPC   C3B49293  29.637   6.403   6.988
 3747POPC   C4B49294  30.010   6.508   7.238
 3748POPC   NC349295   0.581  20.920   5.451
 3748POPC   PO449296   0.116  20.414   5.403
 3748POPC   GL149297   0.201  20.539   5.806
 3748POPC   GL249298   0.545  20.527   5.789
 3748POPC   C1A49299   0.314  20.475   6.246
 3748POPC   D2A49300   0.207  20.802   6.487
 3748POPC   C3A49301   0.196  20.673   6.910
 3748POPC   C4A49302   0.263  20.260   7.082
 3748POPC   C1B49303   0.589  20.855   6.105
 3748POPC   C2B49304   0.729  20.763   6.534
 3748POPC   C3B49305   0.706  20.520   6.907
 3748POPC   C4B49306   0.564  20.713   7.282
 3749POPC   NC349307   1.788  31.817   5.397
 3749POPC   PO449308   2.085  31.223   5.448
 3749POPC   GL149309   1.840  31.413   5.743
 3749POPC   GL249310   2.108  31.646   5.744
 3749POPC   C1A49311   1.712  31.175   6.119
 3749POPC   D2A49312   2.008  31.026   6.445
 3749POPC   C3A49313   1.913  31.145   6.874
 3749POPC   C4A49314   1.976  31.300   7.336
 3749POPC   C1B49315   2.129  31.470   6.167
 3749POPC   C2B49316   1.825  31.547   6.512
 3749POPC   C3B49317   1.919  31.630   6.939
 3749POPC   C4B49318   2.348  31.519   7.082
 3750POPC   NC349319  30.227   6.694   5.283
 3750POPC   PO449320  30.851   6.829   5.429
 3750POPC   GL149321  30.830   6.578   5.743
 3750POPC   GL249322  30.483   6.472   5.678
 3750POPC   C1A49323  30.984   6.592   6.160
 3750POPC   D2A49324  31.061   6.692   6.570
 3750POPC   C3A49325  30.889   6.681   6.972
 3750POPC   C4A49326  30.824   6.664   7.445
 3750POPC   C1B49327  30.536   6.357   6.115
 3750POPC   C2B49328  30.573   6.492   6.530
 3750POPC   C3B49329  30.427   6.503   6.935
 3750POPC   C4B49330  30.473   6.244   7.272
 3751POPC   NC349331  21.147  43.529   5.429
 3751POPC   PO449332  21.263  44.128   5.657
 3751POPC   GL149333  21.522  43.884   5.914
 3751POPC   GL249334  21.807  44.048   6.015
 3751POPC   C1A49335  21.372  43.922   6.336
 3751POPC   D2A49336  21.138  44.170   6.627
 3751POPC   C3A49337  21.068  44.028   7.040
 3751POPC   C4A49338  21.302  43.729   7.266
 3751POPC   C1B49339  21.837  43.731   6.359
 3751POPC   C2B49340  21.606  43.745   6.765
 3751POPC   C3B49341  21.712  44.009   7.098
 3751POPC   C4B49342  21.881  44.057   7.504
 3752POPC   NC349343   7.873  42.856   5.370
 3752POPC   PO449344   7.359  43.290   5.459
 3752POPC   GL149345   7.565  43.272   5.836
 3752POPC   GL249346   7.485  42.945   5.868
 3752POPC   C1A49347   7.546  43.185   6.306
 3752POPC   D2A49348   7.547  42.980   6.701
 3752POPC   C3A49349   7.573  43.260   7.038
 3752POPC   C4A49350   7.506  43.427   7.461
 3752POPC   C1B49351   7.181  42.834   6.218
 3752POPC   C2B49352   7.203  42.609   6.631
 3752POPC   C3B49353   7.258  42.730   7.105
 3752POPC   C4B49354   7.624  42.903   7.388
 3753POPC   NC349355   6.787  26.183   5.444
 3753POPC   PO449356   6.232  25.857   5.236
 3753POPC   GL149357   6.379  26.052   5.691
 3753POPC   GL249358   6.648  25.815   5.794
 3753POPC   C1A49359   6.377  26.046   6.179
 3753POPC   D2A49360   6.613  25.969   6.571
 3753POPC   C3A49361   6.535  25.682   6.901
 3753POPC   C4A49362   6.573  25.864   7.303
 3753POPC   C1B49363   6.909  25.820   6.182
 3753POPC   C2B49364   7.076  25.746   6.629
 3753POPC   C3B49365   7.056  25.714   7.104
 3753POPC   C4B49366   7.173  25.840   7.534
 3754POPC   NC349367  15.866  40.188   5.240
 3754POPC   PO449368  15.655  39.588   5.166
 3754POPC   GL149369  15.967  39.836   5.589
 3754POPC   GL249370  15.926  40.180   5.737
 3754POPC   C1A49371  16.029  39.817   6.083
 3754POPC   D2A49372  15.913  39.927   6.553
 3754POPC   C3A49373  16.138  39.799   6.972
 3754POPC   C4A49374  15.887  39.557   7.286
 3754POPC   C1B49375  15.714  40.227   6.131
 3754POPC   C2B49376  15.804  40.456   6.509
 3754POPC   C3B49377  15.891  40.337   6.927
 3754POPC   C4B49378  15.669  39.972   7.059
 3755POPC   NC349379  42.146   3.096   5.421
 3755POPC   PO449380  42.373   3.662   5.412
 3755POPC   GL149381  42.470   3.632   5.829
 3755POPC   GL249382  42.182   3.758   6.017
 3755POPC   C1A49383  42.445   3.368   6.193
 3755POPC   D2A49384  42.120   3.401   6.526
 3755POPC   C3A49385  42.275   3.355   6.943
 3755POPC   C4A49386  42.712   3.363   7.078
 3755POPC   C1B49387  42.587   3.926   6.232
 3755POPC   C2B49388  42.728   3.939   6.683
 3755POPC   C3B49389  42.495   3.842   7.091
 3755POPC   C4B49390  42.057   3.718   7.270
 3756POPC   NC349391   3.340  35.261   5.455
 3756POPC   PO449392   3.985  35.280   5.399
 3756POPC   GL149393   3.686  35.336   5.821
 3756POPC   GL249394   3.369  35.099   5.930
 3756POPC   C1A49395   3.436  35.504   6.213
 3756POPC   D2A49396   3.561  35.418   6.641
 3756POPC   C3A49397   3.340  35.518   7.019
 3756POPC   C4A49398   3.735  35.497   7.226
 3756POPC   C1B49399   3.325  35.032   6.383
 3756POPC   C2B49400   3.204  35.068   6.813
 3756POPC   C3B49401   3.438  35.046   7.183
 3756POPC   C4B49402   3.583  35.074   7.591
 3757POPC   NC349403   5.741  14.948   5.360
 3757POPC   PO449404   5.527  15.526   5.429
 3757POPC   GL149405   5.582  15.174   5.804
 3757POPC   GL249406   5.925  15.033   5.848
 3757POPC   C1A49407   5.609  14.846   6.185
 3757POPC   D2A49408   5.903  14.808   6.547
 3757POPC   C3A49409   5.782  14.985   6.938
 3757POPC   C4A49410   5.523  14.778   7.183
 3757POPC   C1B49411   5.870  15.270   6.284
 3757POPC   C2B49412   5.983  15.404   6.742
 3757POPC   C3B49413   6.187  15.315   7.164
 3757POPC   C4B49414   6.179  15.445   7.609
 3758POPC   NC349415  31.997  25.233   5.460
 3758POPC   PO449416  32.488  25.627   5.555
 3758POPC   GL149417  32.309  25.409   5.887
 3758POPC   GL249418  32.202  25.072   5.892
 3758POPC   C1A49419  32.523  25.295   6.272
 3758POPC   D2A49420  32.510  25.590   6.613
 3758POPC   C3A49421  32.256  25.482   7.000
 3758POPC   C4A49422  32.367  25.170   7.292
 3758POPC   C1B49423  32.008  25.166   6.283
 3758POPC   C2B49424  31.872  24.991   6.673
 3758POPC   C3B49425  31.909  25.030   7.098
 3758POPC   C4B49426  31.881  25.252   7.478
 3759POPC   NC349427  37.508   0.596   5.335
 3759POPC   PO449428  38.053   0.848   5.671
 3759POPC   GL149429  37.780   0.474   5.767
 3759POPC   GL249430  37.558   0.689   5.846
 3759POPC   C1A49431  37.495   0.341   6.172
 3759POPC   D2A49432  37.463   0.141   6.555
 3759POPC   C3A49433  37.423   0.435   6.908
 3759POPC   C4A49434  37.556   0.428   7.337
 3759POPC   C1B49435  37.939   0.550   6.235
 3759POPC   C2B49436  37.924   0.443   6.710
 3759POPC   C3B49437  37.942   0.656   7.125
 3759POPC   C4B49438  37.829   0.837   7.523
 3760POPC   NC349439  31.118   8.167   5.420
 3760POPC   PO449440  31.653   8.440   5.199
 3760POPC   GL149441  31.567   8.218   5.642
 3760POPC   GL249442  31.777   7.922   5.747
 3760POPC   C1A49443  31.356   8.401   6.037
 3760POPC   D2A49444  31.153   8.330   6.452
 3760POPC   C3A49445  31.363   8.303   6.883
 3760POPC   C4A49446  31.190   8.050   7.233
 3760POPC   C1B49447  31.788   8.134   6.154
 3760POPC   C2B49448  31.771   8.017   6.592
 3760POPC   C3B49449  31.728   7.767   6.954
 3760POPC   C4B49450  31.662   7.897   7.354
 3761POPC   NC349451  37.921  29.868   5.353
 3761POPC   PO449452  37.409  30.262   5.440
 3761POPC   GL149453  37.575  29.972   5.775
 3761POPC   GL249454  37.918  30.074   5.821
 3761POPC   C1A49455  37.517  29.629   6.115
 3761POPC   D2A49456  37.697  29.498   6.543
 3761POPC   C3A49457  37.480  29.673   6.905
 3761POPC   C4A49458  37.517  29.985   7.267
 3761POPC   C1B49459  38.144  30.216   6.187
 3761POPC   C2B49460  38.153  30.339   6.619
 3761POPC   C3B49461  38.194  30.143   7.030
 3761POPC   C4B49462  38.159  30.293   7.454
 3762POPC   NC349463  32.197  41.700   5.500
 3762POPC   PO449464  32.523  41.139   5.520
 3762POPC   GL149465  32.595  41.566   5.807
 3762POPC   GL249466  32.424  41.958   5.871
 3762POPC   C1A49467  32.569  41.670   6.251
 3762POPC   D2A49468  32.356  41.515   6.577
 3762POPC   C3A49469  32.339  41.680   6.980
 3762POPC   C4A49470  32.158  41.394   7.239
 3762POPC   C1B49471  32.077  41.812   6.179
 3762POPC   C2B49472  31.963  41.852   6.637
 3762POPC   C3B49473  31.811  41.712   7.026
 3762POPC   C4B49474  31.974  41.847   7.417
 3763POPC   NC349475   1.237  17.144   5.486
 3763POPC   PO449476   1.397  17.743   5.421
 3763POPC   GL149477   1.099  17.605   5.787
 3763POPC   GL249478   0.986  17.253   5.898
 3763POPC   C1A49479   1.123  17.593   6.254
 3763POPC   D2A49480   1.244  17.828   6.596
 3763POPC   C3A49481   1.174  17.663   6.991
 3763POPC   C4A49482   1.249  17.487   7.362
 3763POPC   C1B49483   0.726  17.272   6.267
 3763POPC   C2B49484   0.786  17.457   6.692
 3763POPC   C3B49485   0.782  17.272   7.117
 3763POPC   C4B49486   0.986  17.027   7.486
 3764POPC   NC349487  14.828  37.007   5.380
 3764POPC   PO449488  15.462  37.081   5.146
 3764POPC   GL149489  15.289  37.139   5.576
 3764POPC   GL249490  15.448  37.367   5.798
 3764POPC   C1A49491  15.218  36.974   6.027
 3764POPC   D2A49492  15.433  36.863   6.443
 3764POPC   C3A49493  15.179  36.806   6.861
 3764POPC   C4A49494  14.981  36.765   7.304
 3764POPC   C1B49495  15.430  37.381   6.263
 3764POPC   C2B49496  15.107  37.233   6.562
 3764POPC   C3B49497  15.021  37.283   6.980
 3764POPC   C4B49498  15.349  37.118   7.260
 3765POPC   NC349499  24.361  37.465   5.398
 3765POPC   PO449500  24.743  37.952   5.309
 3765POPC   GL149501  24.409  37.900   5.726
 3765POPC   GL249502  24.185  37.664   5.820
 3765POPC   C1A49503  24.524  37.833   6.236
 3765POPC   D2A49504  24.778  38.032   6.591
 3765POPC   C3A49505  24.554  37.837   6.921
 3765POPC   C4A49506  24.638  37.395   7.078
 3765POPC   C1B49507  24.029  37.867   6.167
 3765POPC   C2B49508  24.042  37.662   6.566
 3765POPC   C3B49509  24.155  37.495   6.953
 3765POPC   C4B49510  24.181  37.809   7.263
 3766POPC   NC349511   6.984  20.385   5.371
 3766POPC   PO449512   6.475  20.946   5.449
 3766POPC   GL149513   6.602  20.845   5.870
 3766POPC   GL249514   6.744  20.511   5.918
 3766POPC   C1A49515   6.444  20.776   6.278
 3766POPC   D2A49516   6.441  20.597   6.685
 3766POPC   C3A49517   6.520  20.860   7.057
 3766POPC   C4A49518   6.535  20.875   7.483
 3766POPC   C1B49519   6.941  20.581   6.339
 3766POPC   C2B49520   6.964  20.381   6.752
 3766POPC   C3B49521   6.658  20.371   7.088
 3766POPC   C4B49522   6.755  20.406   7.562
 3767POPC   NC349523  21.562  41.311   5.089
 3767POPC   PO449524  21.186  41.739   5.416
 3767POPC   GL149525  21.518  41.636   5.709
 3767POPC   GL249526  21.654  41.293   5.677
 3767POPC   C1A49527  21.502  41.756   6.141
 3767POPC   D2A49528  21.344  41.601   6.551
 3767POPC   C3A49529  21.343  41.822   6.934
 3767POPC   C4A49530  21.547  41.780   7.324
 3767POPC   C1B49531  21.819  41.314   6.101
 3767POPC   C2B49532  21.752  41.291   6.548
 3767POPC   C3B49533  21.608  41.377   6.963
 3767POPC   C4B49534  21.839  41.345   7.338
 3768POPC   NC349535  25.941   4.011   5.314
 3768POPC   PO449536  26.008   4.727   5.185
 3768POPC   GL149537  25.942   4.635   5.653
 3768POPC   GL249538  25.838   4.282   5.773
 3768POPC   C1A49539  25.802   4.699   6.102
 3768POPC   D2A49540  25.747   4.419   6.466
 3768POPC   C3A49541  25.911   4.461   6.888
 3768POPC   C4A49542  25.972   4.325   7.319
 3768POPC   C1B49543  26.159   4.332   6.134
 3768POPC   C2B49544  26.385   4.175   6.477
 3768POPC   C3B49545  26.361   4.167   6.902
 3768POPC   C4B49546  26.500   4.342   7.279
 3769POPC   NC349547  24.659  11.366   5.308
 3769POPC   PO449548  24.098  11.651   5.619
 3769POPC   GL149549  24.475  11.433   5.780
 3769POPC   GL249550  24.519  11.057   5.678
 3769POPC   C1A49551  24.747  11.381   6.159
 3769POPC   D2A49552  24.655  11.547   6.563
 3769POPC   C3A49553  24.542  11.406   6.965
 3769POPC   C4A49554  24.275  11.455   7.284
 3769POPC   C1B49555  24.403  11.029   6.096
 3769POPC   C2B49556  24.290  10.820   6.430
 3769POPC   C3B49557  24.336  10.943   6.837
 3769POPC   C4B49558  24.598  10.943   7.173
 3770POPC   NC349559  25.674  32.744   5.472
 3770POPC   PO449560  25.081  32.437   5.363
 3770POPC   GL149561  25.096  32.189   5.753
 3770POPC   GL249562  25.362  32.257   5.957
 3770POPC   C1A49563  25.019  31.912   6.117
 3770POPC   D2A49564  25.044  31.822   6.558
 3770POPC   C3A49565  25.105  32.065   6.925
 3770POPC   C4A49566  25.073  31.948   7.352
 3770POPC   C1B49567  24.994  32.422   6.179
 3770POPC   C2B49568  25.092  32.477   6.590
 3770POPC   C3B49569  25.489  32.434   6.800
 3770POPC   C4B49570  25.456  32.310   7.228
 3771POPC   NC349571  21.824  26.046   5.478
 3771POPC   PO449572  22.390  26.237   5.230
 3771POPC   GL149573  22.294  26.282   5.731
 3771POPC   GL249574  22.067  26.039   5.907
 3771POPC   C1A49575  22.306  26.309   6.236
 3771POPC   D2A49576  22.299  26.073   6.636
 3771POPC   C3A49577  22.251  26.179   7.055
 3771POPC   C4A49578  22.149  26.306   7.458
 3771POPC   C1B49579  22.053  25.798   6.282
 3771POPC   C2B49580  21.972  25.671   6.711
 3771POPC   C3B49581  21.901  25.766   7.137
 3771POPC   C4B49582  21.497  25.774   7.255
 3772POPC   NC349583  32.191  34.870   5.474
 3772POPC   PO449584  31.876  34.282   5.469
 3772POPC   GL149585  32.074  34.249   5.842
 3772POPC   GL249586  32.274  34.506   5.816
 3772POPC   C1A49587  32.265  34.121   6.225
 3772POPC   D2A49588  32.446  34.068   6.637
 3772POPC   C3A49589  32.291  34.303   6.972
 3772POPC   C4A49590  32.485  34.525   7.291
 3772POPC   C1B49591  32.115  34.598   6.191
 3772POPC   C2B49592  32.317  34.572   6.531
 3772POPC   C3B49593  32.328  34.811   6.875
 3772POPC   C4B49594  32.037  34.755   7.205
 3773POPC   NC349595  38.314   0.513   5.497
 3773POPC   PO449596  38.675   1.116   5.522
 3773POPC   GL149597  38.556   0.751   5.895
 3773POPC   GL249598  38.467   0.367   5.942
 3773POPC   C1A49599  38.463   0.611   6.367
 3773POPC   D2A49600  38.626   0.357   6.721
 3773POPC   C3A49601  38.430   0.526   7.090
 3773POPC   C4A49602  38.347   0.875   7.388
 3773POPC   C1B49603  38.537   0.094   6.273
 3773POPC   C2B49604  38.223   0.049   6.573
 3773POPC   C3B49605  38.297   0.004   6.988
 3773POPC   C4B49606  38.041   0.179   7.269
 3774POPC   NC349607  35.782  24.168   5.452
 3774POPC   PO449608  36.343  24.522   5.266
 3774POPC   GL149609  36.207  24.409   5.659
 3774POPC   GL249610  36.454  24.188   5.717
 3774POPC   C1A49611  36.091  24.545   6.086
 3774POPC   D2A49612  36.083  24.354   6.492
 3774POPC   C3A49613  35.949  24.570   6.861
 3774POPC   C4A49614  35.791  24.295   7.174
 3774POPC   C1B49615  36.569  24.227   6.158
 3774POPC   C2B49616  36.498  24.062   6.594
 3774POPC   C3B49617  36.329  24.229   6.992
 3774POPC   C4B49618  36.488  24.289   7.414
 3775POPC   NC349619  43.054  12.683   5.136
 3775POPC   PO449620  43.583  12.762   5.542
 3775POPC   GL149621  43.241  12.877   5.851
 3775POPC   GL249622  42.869  12.745   5.909
 3775POPC   C1A49623  43.189  12.760   6.299
 3775POPC   D2A49624  43.011  12.823   6.648
 3775POPC   C3A49625  43.167  12.545   6.918
 3775POPC   C4A49626  43.046  12.663   7.315
 3775POPC   C1B49627  42.846  13.124   6.208
 3775POPC   C2B49628  42.721  13.232   6.654
 3775POPC   C3B49629  42.728  12.978   7.046
 3775POPC   C4B49630  42.926  13.167   7.385
 3776POPC   NC349631  30.461   3.993   5.542
 3776POPC   PO449632  30.719   4.640   5.499
 3776POPC   GL149633  30.736   4.442   5.906
 3776POPC   GL249634  30.699   4.082   5.980
 3776POPC   C1A49635  30.593   4.439   6.349
 3776POPC   D2A49636  30.837   4.455   6.717
 3776POPC   C3A49637  30.703   4.460   7.166
 3776POPC   C4A49638  30.804   4.757   7.516
 3776POPC   C1B49639  30.266   4.058   6.198
 3776POPC   C2B49640  30.284   4.039   6.623
 3776POPC   C3B49641  30.598   3.968   6.887
 3776POPC   C4B49642  30.627   3.966   7.318
 3777POPC   NC349643  11.923  42.795   5.663
 3777POPC   PO449644  12.162  42.245   5.338
 3777POPC   GL149645  12.143  42.318   5.794
 3777POPC   GL249646  11.936  42.045   5.988
 3777POPC   C1A49647  12.079  42.495   6.213
 3777POPC   D2A49648  11.878  42.290   6.534
 3777POPC   C3A49649  12.196  42.257   6.839
 3777POPC   C4A49650  12.240  42.514   7.198
 3777POPC   C1B49651  12.347  42.048   6.195
 3777POPC   C2B49652  12.648  42.111   6.531
 3777POPC   C3B49653  12.535  41.851   6.853
 3777POPC   C4B49654  12.200  41.885   7.190
 3778POPC   NC349655  32.028   8.241   5.412
 3778POPC   PO449656  32.660   8.591   5.468
 3778POPC   GL149657  32.482   8.347   5.813
 3778POPC   GL249658  32.291   8.028   5.815
 3778POPC   C1A49659  32.279   8.325   6.214
 3778POPC   D2A49660  32.267   8.154   6.600
 3778POPC   C3A49661  32.318   8.513   6.840
 3778POPC   C4A49662  32.484   8.420   7.215
 3778POPC   C1B49663  32.154   7.781   6.188
 3778POPC   C2B49664  32.086   7.587   6.587
 3778POPC   C3B49665  32.241   7.769   6.987
 3778POPC   C4B49666  32.037   8.171   7.109
 3779POPC   NC349667   3.969   4.349   5.200
 3779POPC   PO449668   3.408   4.102   5.081
 3779POPC   GL149669   3.403   4.222   5.577
 3779POPC   GL249670   3.571   4.496   5.736
 3779POPC   C1A49671   3.412   4.080   6.065
 3779POPC   D2A49672   3.516   3.928   6.542
 3779POPC   C3A49673   3.466   4.102   7.000
 3779POPC   C4A49674   3.712   4.042   7.412
 3779POPC   C1B49675   3.799   4.408   6.130
 3779POPC   C2B49676   3.735   4.412   6.604
 3779POPC   C3B49677   3.927   4.328   7.033
 3779POPC   C4B49678   4.058   4.419   7.475
 3780POPC   NC349679  21.567   3.625   5.339
 3780POPC   PO449680  21.134   3.053   5.321
 3780POPC   GL149681  21.156   3.363   5.659
 3780POPC   GL249682  21.310   3.686   5.786
 3780POPC   C1A49683  21.309   3.272   6.079
 3780POPC   D2A49684  21.378   3.298   6.512
 3780POPC   C3A49685  21.207   3.615   6.796
 3780POPC   C4A49686  21.294   3.406   7.164
 3780POPC   C1B49687  21.227   3.767   6.230
 3780POPC   C2B49688  21.587   3.799   6.483
 3780POPC   C3B49689  21.696   3.759   6.897
 3780POPC   C4B49690  21.435   3.893   7.238
 3781POPC   NC349691  30.159  36.884   5.142
 3781POPC   PO449692  29.900  36.555   5.592
 3781POPC   GL149693  30.013  36.912   5.740
 3781POPC   GL249694  30.324  36.797   5.859
 3781POPC   C1A49695  29.795  37.040   6.112
 3781POPC   D2A49696  29.611  36.822   6.473
 3781POPC   C3A49697  29.718  37.049   6.849
 3781POPC   C4A49698  29.927  37.063   7.229
 3781POPC   C1B49699  30.088  36.647   6.244
 3781POPC   C2B49700  30.048  36.656   6.703
 3781POPC   C3B49701  30.317  36.816   7.038
 3781POPC   C4B49702  30.348  36.875   7.504
 3782POPC   NC349703  17.057  27.713   5.372
 3782POPC   PO449704  16.580  27.293   5.456
 3782POPC   GL149705  16.760  27.530   5.775
 3782POPC   GL249706  17.058  27.375   5.779
 3782POPC   C1A49707  16.658  27.658   6.190
 3782POPC   D2A49708  16.796  27.781   6.620
 3782POPC   C3A49709  16.693  27.643   7.073
 3782POPC   C4A49710  16.623  27.717   7.531
 3782POPC   C1B49711  16.965  27.253   6.187
 3782POPC   C2B49712  16.737  27.270   6.557
 3782POPC   C3B49713  16.789  27.105   6.962
 3782POPC   C4B49714  16.844  27.255   7.378
 3783POPC   NC349715  42.520  14.534   5.322
 3783POPC   PO449716  42.092  14.065   5.423
 3783POPC   GL149717  42.252  14.184   5.823
 3783POPC   GL249718  42.597  14.326   5.794
 3783POPC   C1A49719  42.277  14.385   6.237
 3783POPC   D2A49720  42.507  14.355   6.628
 3783POPC   C3A49721  42.268  14.290   6.988
 3783POPC   C4A49722  42.127  14.001   7.362
 3783POPC   C1B49723  42.630  14.706   6.070
 3783POPC   C2B49724  42.812  14.761   6.510
 3783POPC   C3B49725  42.601  14.777   6.935
 3783POPC   C4B49726  42.674  14.688   7.370
 3784POPC   NC349727  24.021  21.593   5.549
 3784POPC   PO449728  24.638  21.281   5.597
 3784POPC   GL149729  24.449  21.364   5.907
 3784POPC   GL249730  24.097  21.262   5.904
 3784POPC   C1A49731  24.728  21.450   6.270
 3784POPC   D2A49732  24.758  21.638   6.690
 3784POPC   C3A49733  24.647  21.414   7.072
 3784POPC   C4A49734  24.628  21.509   7.514
 3784POPC   C1B49735  24.246  21.322   6.343
 3784POPC   C2B49736  24.505  21.136   6.630
 3784POPC   C3B49737  24.293  21.058   6.989
 3784POPC   C4B49738  24.187  21.367   7.327
 3785POPC   NC349739  42.530  10.311   5.483
 3785POPC   PO449740  42.252  10.926   5.401
 3785POPC   GL149741  42.202  10.616   5.781
 3785POPC   GL249742  42.111  10.221   5.768
 3785POPC   C1A49743  42.386  10.571   6.220
 3785POPC   D2A49744  42.306  10.656   6.681
 3785POPC   C3A49745  42.597  10.557   7.053
 3785POPC   C4A49746  42.838  10.233   7.292
 3785POPC   C1B49747  42.157  10.110   6.213
 3785POPC   C2B49748  42.219  10.150   6.657
 3785POPC   C3B49749  42.111  10.332   7.073
 3785POPC   C4B49750  42.374  10.294   7.456
 3786POPC   NC349751  11.044  37.725   5.433
 3786POPC   PO449752  11.460  38.146   5.442
 3786POPC   GL149753  11.296  37.951   5.851
 3786POPC   GL249754  11.271  37.578   5.871
 3786POPC   C1A49755  11.316  37.857   6.325
 3786POPC   D2A49756  11.548  37.567   6.648
 3786POPC   C3A49757  11.389  37.652   7.053
 3786POPC   C4A49758  11.018  37.942   7.101
 3786POPC   C1B49759  11.315  37.354   6.246
 3786POPC   C2B49760  11.057  37.417   6.603
 3786POPC   C3B49761  10.971  37.365   7.010
 3786POPC   C4B49762  11.025  37.539   7.406
 3787POPC   NC349763  36.969  15.551   5.622
 3787POPC   PO449764  36.793  14.922   5.272
 3787POPC   GL149765  36.736  15.071   5.726
 3787POPC   GL249766  37.076  15.047   5.851
 3787POPC   C1A49767  36.668  15.328   6.137
 3787POPC   D2A49768  36.897  15.511   6.512
 3787POPC   C3A49769  36.924  15.199   6.864
 3787POPC   C4A49770  36.845  15.135   7.312
 3787POPC   C1B49771  36.924  14.902   6.250
 3787POPC   C2B49772  37.000  14.723   6.640
 3787POPC   C3B49773  36.946  14.696   7.054
 3787POPC   C4B49774  37.284  14.948   7.170
 3788POPC   NC349775  43.076  11.774   5.552
 3788POPC   PO449776  42.727  12.373   5.282
 3788POPC   GL149777  43.097  12.383   5.605
 3788POPC   GL249778  42.927  12.175   5.863
 3788POPC   C1A49779  43.350  12.364   6.042
 3788POPC   D2A49780  43.142  12.166   6.411
 3788POPC   C3A49781  43.302  11.994   6.803
 3788POPC   C4A49782  43.265  11.706   7.157
 3788POPC   C1B49783  42.756  11.880   6.198
 3788POPC   C2B49784  42.683  11.884   6.658
 3788POPC   C3B49785  42.763  11.885   7.110
 3788POPC   C4B49786  42.869  11.711   7.525
 3789POPC   NC349787   7.846   0.975   5.414
 3789POPC   PO449788   8.187   1.548   5.448
 3789POPC   GL149789   8.294   1.388   5.805
 3789POPC   GL249790   8.446   1.080   5.772
 3789POPC   C1A49791   8.177   1.547   6.193
 3789POPC   D2A49792   7.954   1.432   6.518
 3789POPC   C3A49793   8.089   1.329   6.925
 3789POPC   C4A49794   8.067   1.030   7.245
 3789POPC   C1B49795   8.230   1.023   6.169
 3789POPC   C2B49796   8.383   1.064   6.590
 3789POPC   C3B49797   8.471   0.865   6.991
 3789POPC   C4B49798   8.555   0.875   7.439
 3790POPC   NC349799  10.022  43.476   5.086
 3790POPC   PO449800  10.079  42.883   5.419
 3790POPC   GL149801  10.011  42.877   5.856
 3790POPC   GL249802   9.782  43.171   5.875
 3790POPC   C1A49803  10.014  43.006   6.311
 3790POPC   D2A49804   9.869  43.175   6.714
 3790POPC   C3A49805   9.955  42.938   7.092
 3790POPC   C4A49806   9.640  42.663   7.223
 3790POPC   C1B49807   9.759  43.457   6.243
 3790POPC   C2B49808   9.739  43.666   6.676
 3790POPC   C3B49809   9.710  43.488   7.131
 3790POPC   C4B49810  10.001  43.300   7.462
 3791POPC   NC349811  40.105  35.841   5.147
 3791POPC   PO449812  40.254  35.211   5.405
 3791POPC   GL149813  40.054  35.260   5.795
 3791POPC   GL249814  39.820  35.527   5.830
 3791POPC   C1A49815  39.908  35.198   6.236
 3791POPC   D2A49816  39.901  34.935   6.624
 3791POPC   C3A49817  39.770  35.071   7.021
 3791POPC   C4A49818  39.903  34.997   7.416
 3791POPC   C1B49819  40.162  35.648   6.172
 3791POPC   C2B49820  40.190  35.778   6.604
 3791POPC   C3B49821  39.874  35.594   6.881
 3791POPC   C4B49822  39.882  35.499   7.306
 3792POPC   NC349823  29.239  12.405   5.491
 3792POPC   PO449824  28.898  11.794   5.433
 3792POPC   GL149825  29.080  11.986   5.797
 3792POPC   GL249826  28.808  12.232   5.792
 3792POPC   C1A49827  29.185  12.291   6.158
 3792POPC   D2A49828  28.993  12.520   6.523
 3792POPC   C3A49829  29.219  12.367   6.871
 3792POPC   C4A49830  29.376  11.996   7.059
 3792POPC   C1B49831  28.759  12.004   6.195
 3792POPC   C2B49832  29.017  11.981   6.579
 3792POPC   C3B49833  28.867  11.995   6.999
 3792POPC   C4B49834  28.982  11.708   7.318
 3793POPC   NC349835  37.536  15.260   5.189
 3793POPC   PO449836  38.120  15.060   5.354
 3793POPC   GL149837  37.959  15.044   5.777
 3793POPC   GL249838  37.607  14.940   5.797
 3793POPC   C1A49839  37.775  15.349   6.088
 3793POPC   D2A49840  37.518  15.415   6.453
 3793POPC   C3A49841  37.797  15.427   6.814
 3793POPC   C4A49842  37.588  15.359   7.184
 3793POPC   C1B49843  37.476  14.921   6.246
 3793POPC   C2B49844  37.547  14.963   6.717
 3793POPC   C3B49845  37.778  14.874   7.109
 3793POPC   C4B49846  37.606  14.804   7.561
 3794POPC   NC349847  42.020   8.330   5.220
 3794POPC   PO449848  42.679   8.292   5.487
 3794POPC   GL149849  42.601   8.139   5.925
 3794POPC   GL249850  42.239   8.111   6.026
 3794POPC   C1A49851  42.566   8.239   6.372
 3794POPC   D2A49852  42.627   8.347   6.792
 3794POPC   C3A49853  42.369   8.084   7.006
 3794POPC   C4A49854  42.426   8.169   7.414
 3794POPC   C1B49855  42.005   8.291   6.320
 3794POPC   C2B49856  41.962   8.289   6.737
 3794POPC   C3B49857  41.833   8.103   7.071
 3794POPC   C4B49858  42.052   7.827   7.336
 3795POPC   NC349859  28.485  25.096   5.397
 3795POPC   PO449860  28.696  25.730   5.472
 3795POPC   GL149861  28.490  25.446   5.782
 3795POPC   GL249862  28.585  25.113   5.903
 3795POPC   C1A49863  28.276  25.442   6.182
 3795POPC   D2A49864  28.316  25.249   6.570
 3795POPC   C3A49865  27.940  25.245   6.809
 3795POPC   C4A49866  27.904  25.312   7.231
 3795POPC   C1B49867  28.635  24.899   6.306
 3795POPC   C2B49868  28.551  24.846   6.777
 3795POPC   C3B49869  28.510  25.112   7.100
 3795POPC   C4B49870  28.557  25.417   7.384
 3796POPC   NC349871   1.244  37.089   5.355
 3796POPC   PO449872   1.587  36.441   5.472
 3796POPC   GL149873   1.339  36.773   5.754
 3796POPC   GL249874   1.431  37.155   5.814
 3796POPC   C1A49875   1.085  36.817   6.108
 3796POPC   D2A49876   0.947  36.552   6.469
 3796POPC   C3A49877   0.910  36.728   6.873
 3796POPC   C4A49878   1.035  36.741   7.304
 3796POPC   C1B49879   1.461  37.158   6.235
 3796POPC   C2B49880   1.234  36.996   6.568
 3796POPC   C3B49881   1.282  37.062   6.979
 3796POPC   C4B49882   1.589  36.964   7.283
 3797POPC   NC349883  21.058  10.973   5.549
 3797POPC   PO449884  21.542  11.392   5.434
 3797POPC   GL149885  21.263  11.441   5.743
 3797POPC   GL249886  21.417  11.195   5.924
 3797POPC   C1A49887  21.264  11.634   6.152
 3797POPC   D2A49888  21.146  11.456   6.536
 3797POPC   C3A49889  21.229  11.606   6.948
 3797POPC   C4A49890  21.412  11.316   7.226
 3797POPC   C1B49891  21.731  10.981   6.177
 3797POPC   C2B49892  21.621  11.041   6.608
 3797POPC   C3B49893  21.757  10.985   7.046
 3797POPC   C4B49894  21.645  10.908   7.495
 3798POPC   NC349895  24.179  27.450   5.322
 3798POPC   PO449896  23.576  27.711   5.479
 3798POPC   GL149897  23.798  27.511   5.794
 3798POPC   GL249898  23.587  27.254   5.824
 3798POPC   C1A49899  23.862  27.379   6.257
 3798POPC   D2A49900  23.900  27.322   6.724
 3798POPC   C3A49901  24.109  27.606   7.032
 3798POPC   C4A49902  23.864  27.832   7.380
 3798POPC   C1B49903  23.422  27.607   6.123
 3798POPC   C2B49904  23.387  27.793   6.525
 3798POPC   C3B49905  23.526  27.677   6.933
 3798POPC   C4B49906  23.276  27.807   7.283
 3799POPC   NC349907  29.319  28.211   5.390
 3799POPC   PO449908  28.620  28.031   5.510
 3799POPC   GL149909  28.981  28.201   5.788
 3799POPC   GL249910  29.206  28.547   5.768
 3799POPC   C1A49911  29.148  28.283   6.211
 3799POPC   D2A49912  29.172  28.163   6.631
 3799POPC   C3A49913  28.924  28.427   6.909
 3799POPC   C4A49914  28.953  28.208   7.278
 3799POPC   C1B49915  29.494  28.673   6.135
 3799POPC   C2B49916  29.562  28.488   6.562
 3799POPC   C3B49917  29.417  28.500   6.981
 3799POPC   C4B49918  29.649  28.578   7.314
 3800POPC   NC349919  43.344  17.872   5.631
 3800POPC   PO449920  42.987  18.399   5.368
 3800POPC   GL149921  42.833  18.433   5.757
 3800POPC   GL249922  42.915  18.112   5.898
 3800POPC   C1A49923  42.767  18.530   6.186
 3800POPC   D2A49924  42.816  18.307   6.557
 3800POPC   C3A49925  42.889  18.395   6.988
 3800POPC   C4A49926  43.013  18.043   7.224
 3800POPC   C1B49927  43.270  18.411   6.017
 3800POPC   C2B49928  43.369  18.507   6.422
 3800POPC   C3B49929  43.336  18.285   6.800
 3800POPC   C4B49930  43.381  18.412   7.239
 3801POPC   NC349931  28.186  34.811   5.475
 3801POPC   PO449932  28.640  34.146   5.510
 3801POPC   GL149933  28.429  34.415   5.789
 3801POPC   GL249934  28.603  34.733   5.777
 3801POPC   C1A49935  28.342  34.509   6.227
 3801POPC   D2A49936  28.323  34.782   6.613
 3801POPC   C3A49937  28.427  34.529   6.977
 3801POPC   C4A49938  28.195  34.267   7.259
 3801POPC   C1B49939  28.557  34.995   6.147
 3801POPC   C2B49940  28.720  35.176   6.524
 3801POPC   C3B49941  28.760  34.965   6.905
 3801POPC   C4B49942  28.820  35.066   7.332
 3802POPC   NC349943  32.601   7.379   5.370
 3802POPC   PO449944  33.133   7.730   5.431
 3802POPC   GL149945  33.113   7.516   5.856
 3802POPC   GL249946  32.780   7.425   5.840
 3802POPC   C1A49947  32.970   7.378   6.320
 3802POPC   D2A49948  33.010   7.043   6.673
 3802POPC   C3A49949  33.255   7.206   6.998
 3802POPC   C4A49950  33.224   7.618   7.235
 3802POPC   C1B49951  32.670   7.769   6.113
 3802POPC   C2B49952  32.612   7.728   6.578
 3802POPC   C3B49953  32.811   7.524   6.957
 3802POPC   C4B49954  32.788   7.081   7.144
 3803POPC   NC349955  44.015  10.036   5.380
 3803POPC   PO449956  44.121   9.359   5.409
 3803POPC   GL149957  43.862   9.501   5.807
 3803POPC   GL249958  43.860   9.888   5.870
 3803POPC   C1A49959  43.682   9.562   6.248
 3803POPC   D2A49960  43.705   9.922   6.562
 3803POPC   C3A49961  43.660   9.826   6.991
 3803POPC   C4A49962  43.998   9.577   7.079
 3803POPC   C1B49963  44.119  10.087   6.256
 3803POPC   C2B49964  44.357  10.141   6.673
 3803POPC   C3B49965  44.320  10.018   7.139
 3803POPC   C4B49966  44.200   9.780   7.528
 3804POPC   NC349967  24.377  32.924   5.066
 3804POPC   PO449968  24.635  33.414   5.470
 3804POPC   GL149969  24.437  33.126   5.710
 3804POPC   GL249970  24.703  32.951   5.890
 3804POPC   C1A49971  24.302  33.180   6.122
 3804POPC   D2A49972  24.504  33.037   6.489
 3804POPC   C3A49973  24.355  33.028   6.899
 3804POPC   C4A49974  24.474  32.777   7.241
 3804POPC   C1B49975  24.954  32.915   6.279
 3804POPC   C2B49976  24.994  33.196   6.651
 3804POPC   C3B49977  24.851  33.167   7.066
 3804POPC   C4B49978  24.931  32.929   7.451
 3805POPC   NC349979  36.544  42.914   5.380
 3805POPC   PO449980  36.995  42.337   5.258
 3805POPC   GL149981  36.908  42.408   5.723
 3805POPC   GL249982  36.660  42.166   5.799
 3805POPC   C1A49983  36.848  42.539   6.189
 3805POPC   D2A49984  36.668  42.656   6.611
 3805POPC   C3A49985  36.722  42.461   7.018
 3805POPC   C4A49986  36.461  42.458   7.392
 3805POPC   C1B49987  36.981  42.047   6.123
 3805POPC   C2B49988  36.799  42.137   6.527
 3805POPC   C3B49989  36.799  41.973   6.941
 3805POPC   C4B49990  36.677  42.009   7.369
 3806POPC   NC349991  41.941  31.825   5.271
 3806POPC   PO449992  41.421  31.401   5.317
 3806POPC   GL149993  41.446  31.217   5.748
 3806POPC   GL249994  41.563  31.480   6.018
 3806POPC   C1A49995  41.454  31.030   6.178
 3806POPC   D2A49996  41.497  31.291   6.514
 3806POPC   C3A49997  41.548  31.118   6.882
 3806POPC   C4A49998  41.641  31.290   7.281
 3806POPC   C1B49999  41.971  31.572   6.226
 3806POPC   C2B50000  42.120  31.729   6.585
 3806POPC   C3B50001  41.882  31.516   6.873
 3806POPC   C4B50002  41.710  31.805   7.179
 3807POPC   NC350003  15.299  37.775   5.526
 3807POPC   PO450004  14.735  37.431   5.531
 3807POPC   GL150005  14.788  37.666   5.892
 3807POPC   GL250006  14.906  38.003   5.857
 3807POPC   C1A50007  14.922  37.623   6.306
 3807POPC   D2A50008  15.248  37.730   6.609
 3807POPC   C3A50009  15.062  37.923   6.931
 3807POPC   C4A50010  14.795  37.704   7.195
 3807POPC   C1B50011  15.279  37.965   6.149
 3807POPC   C2B50012  15.604  38.078   6.475
 3807POPC   C3B50013  15.622  37.961   6.928
 3807POPC   C4B50014  15.432  37.584   7.079
 3808POPC   NC350015   2.289  39.089   5.542
 3808POPC   PO450016   2.923  39.353   5.496
 3808POPC   GL150017   2.676  39.285   5.828
 3808POPC   GL250018   2.475  39.527   5.778
 3808POPC   C1A50019   2.697  39.131   6.227
 3808POPC   D2A50020   3.038  39.154   6.484
 3808POPC   C3A50021   2.863  39.200   6.874
 3808POPC   C4A50022   2.708  39.040   7.240
 3808POPC   C1B50023   2.351  39.583   6.195
 3808POPC   C2B50024   2.562  39.550   6.585
 3808POPC   C3B50025   2.441  39.470   6.980
 3808POPC   C4B50026   2.466  39.473   7.394
 3809POPC   NC350027  28.694  10.921   5.340
 3809POPC   PO450028  28.211  11.482   5.461
 3809POPC   GL150029  28.397  11.376   5.865
 3809POPC   GL250030  28.659  11.624   5.853
 3809POPC   C1A50031  28.364  11.199   6.326
 3809POPC   D2A50032  28.426  10.957   6.750
 3809POPC   C3A50033  28.146  11.078   7.128
 3809POPC   C4A50034  28.088  11.485   7.332
 3809POPC   C1B50035  28.786  11.504   6.275
 3809POPC   C2B50036  28.600  11.697   6.628
 3809POPC   C3B50037  28.434  11.724   7.023
 3809POPC   C4B50038  28.597  11.369   7.163
 3810POPC   NC350039  16.727   2.528   5.453
 3810POPC   PO450040  16.994   1.862   5.401
 3810POPC   GL150041  16.736   1.931   5.745
 3810POPC   GL250042  16.857   2.243   5.903
 3810POPC   C1A50043  16.791   1.780   6.176
 3810POPC   D2A50044  17.011   1.760   6.564
 3810POPC   C3A50045  16.800   2.007   6.875
 3810POPC   C4A50046  16.821   1.999   7.317
 3810POPC   C1B50047  16.716   2.284   6.360
 3810POPC   C2B50048  16.361   2.264   6.669
 3810POPC   C3B50049  16.229   2.184   7.096
 3810POPC   C4B50050  16.084   2.193   7.543
 3811POPC   NC350051   3.343   1.314   5.315
 3811POPC   PO450052   2.800   0.990   5.350
 3811POPC   GL150053   2.892   1.193   5.749
 3811POPC   GL250054   2.705   1.491   5.873
 3811POPC   C1A50055   2.783   1.025   6.151
 3811POPC   D2A50056   2.779   1.028   6.573
 3811POPC   C3A50057   2.844   0.706   6.867
 3811POPC   C4A50058   2.754   0.834   7.277
 3811POPC   C1B50059   2.702   1.498   6.360
 3811POPC   C2B50060   3.017   1.458   6.716
 3811POPC   C3B50061   2.965   1.287   7.147
 3811POPC   C4B50062   2.695   1.394   7.503
 3812POPC   NC350063   8.600   6.846   5.595
 3812POPC   PO450064   8.054   6.538   5.292
 3812POPC   GL150065   8.155   6.573   5.783
 3812POPC   GL250066   8.200   6.925   5.931
 3812POPC   C1A50067   8.041   6.529   6.257
 3812POPC   D2A50068   7.905   6.625   6.721
 3812POPC   C3A50069   8.014   6.321   7.051
 3812POPC   C4A50070   8.408   6.334   7.264
 3812POPC   C1B50071   8.517   7.051   6.267
 3812POPC   C2B50072   8.693   6.927   6.703
 3812POPC   C3B50073   8.431   6.827   7.069
 3812POPC   C4B50074   8.023   6.796   7.234
 3813POPC   NC350075   6.775  23.762   5.293
 3813POPC   PO450076   7.556  23.755   5.213
 3813POPC   GL150077   7.461  23.712   5.688
 3813POPC   GL250078   7.294  23.988   5.858
 3813POPC   C1A50079   7.484  23.589   6.156
 3813POPC   D2A50080   7.216  23.483   6.536
 3813POPC   C3A50081   7.444  23.552   6.902
 3813POPC   C4A50082   7.589  23.772   7.257
 3813POPC   C1B50083   7.125  23.961   6.264
 3813POPC   C2B50084   7.370  24.001   6.621
 3813POPC   C3B50085   7.313  24.134   7.014
 3813POPC   C4B50086   7.184  24.005   7.425
 3814POPC   NC350087  41.026  18.406   5.436
 3814POPC   PO450088  41.729  18.051   5.363
 3814POPC   GL150089  41.641  18.375   5.720
 3814POPC   GL250090  41.326  18.425   5.857
 3814POPC   C1A50091  41.784  18.457   6.165
 3814POPC   D2A50092  41.838  18.266   6.587
 3814POPC   C3A50093  41.904  18.510   6.963
 3814POPC   C4A50094  41.971  18.376   7.385
 3814POPC   C1B50095  41.297  18.255   6.296
 3814POPC   C2B50096  40.966  18.195   6.627
 3814POPC   C3B50097  41.067  18.105   7.070
 3814POPC   C4B50098  41.443  18.271   7.320
 3815POPC   NC350099   4.499  34.222   5.503
 3815POPC   PO450100   4.538  33.520   5.499
 3815POPC   GL150101   4.327  33.766   5.803
 3815POPC   GL250102   4.076  34.037   5.752
 3815POPC   C1A50103   4.447  33.923   6.191
 3815POPC   D2A50104   4.140  33.932   6.516
 3815POPC   C3A50105   4.099  33.653   6.871
 3815POPC   C4A50106   4.366  33.717   7.210
 3815POPC   C1B50107   3.964  34.256   6.143
 3815POPC   C2B50108   4.008  34.440   6.552
 3815POPC   C3B50109   3.947  34.176   6.921
 3815POPC   C4B50110   4.113  34.141   7.325
 3816POPC   NC350111  13.992  27.757   5.640
 3816POPC   PO450112  13.419  27.464   5.308
 3816POPC   GL150113  13.509  27.652   5.739
 3816POPC   GL250114  13.468  28.003   5.888
 3816POPC   C1A50115  13.694  27.463   6.128
 3816POPC   D2A50116  13.583  27.390   6.564
 3816POPC   C3A50117  13.774  27.654   6.884
 3816POPC   C4A50118  13.732  27.869   7.305
 3816POPC   C1B50119  13.336  27.778   6.260
 3816POPC   C2B50120  13.266  27.829   6.701
 3816POPC   C3B50121  13.299  27.623   7.111
 3816POPC   C4B50122  13.024  27.722   7.477
 3817POPC   NC350123  12.041  24.263   5.440
 3817POPC   PO450124  12.394  24.639   5.879
 3817POPC   GL150125  12.261  24.228   5.976
 3817POPC   GL250126  11.886  24.215   5.926
 3817POPC   C1A50127  12.330  24.157   6.410
 3817POPC   D2A50128  12.321  24.559   6.624
 3817POPC   C3A50129  12.238  24.533   7.060
 3817POPC   C4A50130  12.488  24.262   7.316
 3817POPC   C1B50131  11.899  24.447   6.314
 3817POPC   C2B50132  11.829  24.676   6.697
 3817POPC   C3B50133  11.862  24.877   7.094
 3817POPC   C4B50134  11.938  24.707   7.496
 3818POPC   NC350135   5.473  39.721   5.433
 3818POPC   PO450136   6.102  39.975   5.338
 3818POPC   GL150137   5.831  40.020   5.742
 3818POPC   GL250138   5.778  39.704   5.818
 3818POPC   C1A50139   5.972  39.988   6.182
 3818POPC   D2A50140   6.153  40.095   6.546
 3818POPC   C3A50141   5.983  39.910   6.889
 3818POPC   C4A50142   5.897  39.676   7.240
 3818POPC   C1B50143   5.498  39.783   6.150
 3818POPC   C2B50144   5.671  39.701   6.528
 3818POPC   C3B50145   5.503  39.717   6.908
 3818POPC   C4B50146   5.411  39.872   7.261
 3819POPC   NC350147  14.180  15.748   5.319
 3819POPC   PO450148  14.484  16.231   5.653
 3819POPC   GL150149  14.402  15.882   5.892
 3819POPC   GL250150  14.576  15.617   5.716
 3819POPC   C1A50151  14.483  15.967   6.332
 3819POPC   D2A50152  14.597  16.018   6.767
 3819POPC   C3A50153  14.254  16.133   7.032
 3819POPC   C4A50154  14.155  15.868   7.356
 3819POPC   C1B50155  14.805  15.619   6.135
 3819POPC   C2B50156  14.981  15.737   6.543
 3819POPC   C3B50157  14.876  15.625   6.954
 3819POPC   C4B50158  14.657  15.851   7.256
 3820POPC   NC350159  13.216  12.013   5.594
 3820POPC   PO450160  13.826  12.071   5.542
 3820POPC   GL150161  13.635  12.182   5.869
 3820POPC   GL250162  13.561  11.856   5.939
 3820POPC   C1A50163  13.457  12.302   6.246
 3820POPC   D2A50164  13.466  12.463   6.662
 3820POPC   C3A50165  13.827  12.312   6.880
 3820POPC   C4A50166  13.829  11.958   7.145
 3820POPC   C1B50167  13.233  11.767   6.202
 3820POPC   C2B50168  13.279  11.603   6.593
 3820POPC   C3B50169  13.354  11.818   6.970
 3820POPC   C4B50170  13.278  11.558   7.308
 3821POPC   NC350171   8.117  42.128   5.422
 3821POPC   PO450172   8.334  42.807   5.504
 3821POPC   GL150173   8.268  42.441   5.820
 3821POPC   GL250174   7.996  42.149   5.902
 3821POPC   C1A50175   8.155  42.487   6.246
 3821POPC   D2A50176   7.972  42.696   6.581
 3821POPC   C3A50177   8.143  42.537   6.975
 3821POPC   C4A50178   8.438  42.534   7.298
 3821POPC   C1B50179   7.912  41.955   6.276
 3821POPC   C2B50180   8.127  42.114   6.636
 3821POPC   C3B50181   8.327  42.065   7.025
 3821POPC   C4B50182   7.991  42.007   7.306
 3822POPC   NC350183  40.892   1.243   5.409
 3822POPC   PO450184  40.216   1.158   5.297
 3822POPC   GL150185  40.487   1.085   5.743
 3822POPC   GL250186  40.865   1.062   5.876
 3822POPC   C1A50187  40.531   1.096   6.247
 3822POPC   D2A50188  40.430   1.085   6.717
 3822POPC   C3A50189  40.516   1.344   7.091
 3822POPC   C4A50190  40.605   1.196   7.518
 3822POPC   C1B50191  41.116   1.194   6.226
 3822POPC   C2B50192  41.270   1.064   6.627
 3822POPC   C3B50193  41.239   1.262   7.032
 3822POPC   C4B50194  40.974   1.516   7.300
 3823POPC   NC350195  37.874  16.156   5.349
 3823POPC   PO450196  37.310  15.646   5.340
 3823POPC   GL150197  37.620  15.836   5.656
 3823POPC   GL250198  37.452  16.128   5.805
 3823POPC   C1A50199  37.847  15.911   6.060
 3823POPC   D2A50200  37.816  15.820   6.478
 3823POPC   C3A50201  37.884  16.015   6.868
 3823POPC   C4A50202  37.913  15.746   7.252
 3823POPC   C1B50203  37.535  16.304   6.210
 3823POPC   C2B50204  37.372  16.086   6.564
 3823POPC   C3B50205  37.399  15.769   6.858
 3823POPC   C4B50206  37.487  15.993   7.207
 3824POPC   NC350207  25.542  22.501   5.589
 3824POPC   PO450208  24.915  22.236   5.492
 3824POPC   GL150209  24.972  22.024   5.875
 3824POPC   GL250210  25.278  22.222   5.971
 3824POPC   C1A50211  25.071  21.846   6.290
 3824POPC   D2A50212  25.386  22.019   6.564
 3824POPC   C3A50213  25.255  22.011   6.971
 3824POPC   C4A50214  25.258  22.011   7.428
 3824POPC   C1B50215  25.002  22.356   6.308
 3824POPC   C2B50216  25.051  22.431   6.750
 3824POPC   C3B50217  25.015  22.413   7.213
 3824POPC   C4B50218  25.137  22.427   7.674
 3825POPC   NC350219   6.337   8.185   5.697
 3825POPC   PO450220   5.867   8.389   5.263
 3825POPC   GL150221   5.933   8.499   5.697
 3825POPC   GL250222   6.150   8.808   5.645
 3825POPC   C1A50223   5.892   8.363   6.182
 3825POPC   D2A50224   5.739   8.098   6.591
 3825POPC   C3A50225   5.875   8.129   7.061
 3825POPC   C4A50226   5.865   7.902   7.521
 3825POPC   C1B50227   6.279   8.707   6.090
 3825POPC   C2B50228   6.288   8.502   6.511
 3825POPC   C3B50229   6.312   8.422   6.963
 3825POPC   C4B50230   6.081   8.511   7.337
 3826POPC   NC350231  16.488  17.898   5.467
 3826POPC   PO450232  17.047  17.576   5.475
 3826POPC   GL150233  16.742  17.476   5.773
 3826POPC   GL250234  16.388  17.372   5.656
 3826POPC   C1A50235  16.834  17.460   6.230
 3826POPC   D2A50236  16.699  17.329   6.649
 3826POPC   C3A50237  16.886  17.506   7.013
 3826POPC   C4A50238  16.718  17.502   7.404
 3826POPC   C1B50239  16.350  17.601   6.077
 3826POPC   C2B50240  16.281  17.734   6.507
 3826POPC   C3B50241  16.420  17.676   6.930
 3826POPC   C4B50242  16.388  17.888   7.298
 3827POPC   NC350243  12.536  12.676   5.344
 3827POPC   PO450244  11.986  13.053   5.236
 3827POPC   GL150245  12.096  12.949   5.649
 3827POPC   GL250246  11.809  12.763   5.698
 3827POPC   C1A50247  12.341  12.933   6.027
 3827POPC   D2A50248  12.399  12.947   6.476
 3827POPC   C3A50249  12.088  13.082   6.759
 3827POPC   C4A50250  12.162  12.874   7.168
 3827POPC   C1B50251  11.806  12.985   6.122
 3827POPC   C2B50252  11.660  12.855   6.546
 3827POPC   C3B50253  11.713  12.812   6.980
 3827POPC   C4B50254  11.714  13.021   7.409
 3828POPC   NC350255  27.422  35.482   5.338
 3828POPC   PO450256  28.040  35.258   5.468
 3828POPC   GL150257  27.815  35.341   5.836
 3828POPC   GL250258  27.472  35.446   5.903
 3828POPC   C1A50259  27.809  35.182   6.258
 3828POPC   D2A50260  27.758  35.310   6.667
 3828POPC   C3A50261  27.785  35.058   7.023
 3828POPC   C4A50262  27.424  35.202   7.194
 3828POPC   C1B50263  27.684  35.698   6.233
 3828POPC   C2B50264  27.762  35.829   6.645
 3828POPC   C3B50265  27.657  35.650   7.032
 3828POPC   C4B50266  28.049  35.488   7.183
 3829POPC   NC350267  10.772  35.595   5.006
 3829POPC   PO450268  10.685  35.410   5.670
 3829POPC   GL150269  10.507  35.432   6.003
 3829POPC   GL250270  10.231  35.644   5.870
 3829POPC   C1A50271  10.751  35.642   6.303
 3829POPC   D2A50272  10.932  35.711   6.694
 3829POPC   C3A50273  10.667  35.625   7.030
 3829POPC   C4A50274  10.742  35.382   7.400
 3829POPC   C1B50275  10.101  35.546   6.278
 3829POPC   C2B50276  10.378  35.386   6.620
 3829POPC   C3B50277  10.178  35.452   6.997
 3829POPC   C4B50278  10.133  35.561   7.397
 3830POPC   NC350279   6.849  24.590   5.396
 3830POPC   PO450280   6.372  24.182   5.269
 3830POPC   GL150281   6.487  24.404   5.713
 3830POPC   GL250282   6.416  24.784   5.752
 3830POPC   C1A50283   6.798  24.529   6.074
 3830POPC   D2A50284   7.108  24.463   6.426
 3830POPC   C3A50285   6.990  24.542   6.845
 3830POPC   C4A50286   6.834  24.230   7.135
 3830POPC   C1B50287   6.439  24.902   6.196
 3830POPC   C2B50288   6.512  24.602   6.522
 3830POPC   C3B50289   6.446  24.505   6.936
 3830POPC   C4B50290   6.719  24.701   7.256
 3831POPC   NC350291  40.361  43.916   5.150
 3831POPC   PO450292  40.944  43.725   5.444
 3831POPC   GL150293  40.906  43.952   5.821
 3831POPC   GL250294  41.251  44.090   5.866
 3831POPC   C1A50295  40.648  43.919   6.211
 3831POPC   D2A50296  40.484  44.204   6.517
 3831POPC   C3A50297  40.511  44.023   6.912
 3831POPC   C4A50298  40.582  43.857   7.307
 3831POPC   C1B50299  41.155  43.887   6.260
 3831POPC   C2B50300  40.986  44.055   6.651
 3831POPC   C3B50301  41.030  43.949   7.074
 3831POPC   C4B50302  41.158  43.729   7.425
 3832POPC   NC350303   7.889  22.576   5.704
 3832POPC   PO450304   8.155  22.901   5.210
 3832POPC   GL150305   8.315  22.932   5.637
 3832POPC   GL250306   8.015  23.100   5.727
 3832POPC   C1A50307   8.404  23.080   6.071
 3832POPC   D2A50308   8.219  22.949   6.452
 3832POPC   C3A50309   8.416  22.915   6.839
 3832POPC   C4A50310   8.237  22.804   7.240
 3832POPC   C1B50311   7.801  23.120   6.129
 3832POPC   C2B50312   7.733  23.263   6.536
 3832POPC   C3B50313   7.936  23.103   6.883
 3832POPC   C4B50314   8.226  23.298   7.172
 3833POPC   NC350315  43.926  26.586   5.123
 3833POPC   PO450316  44.441  26.869   5.472
 3833POPC   GL150317  44.174  26.932   5.782
 3833POPC   GL250318  43.918  26.704   5.669
 3833POPC   C1A50319  44.250  27.042   6.209
 3833POPC   D2A50320  43.941  27.046   6.525
 3833POPC   C3A50321  44.188  27.080   6.867
 3833POPC   C4A50322  44.147  26.876   7.238
 3833POPC   C1B50323  43.794  26.744   6.116
 3833POPC   C2B50324  43.763  26.497   6.496
 3833POPC   C3B50325  43.831  26.653   6.885
 3833POPC   C4B50326  43.649  26.725   7.263
 3834POPC   NC350327  30.460  26.450   5.339
 3834POPC   PO450328  30.515  25.742   5.459
 3834POPC   GL150329  30.416  25.915   5.848
 3834POPC   GL250330  30.491  26.280   5.855
 3834POPC   C1A50331  30.545  25.977   6.278
 3834POPC   D2A50332  30.715  25.905   6.646
 3834POPC   C3A50333  30.462  25.900   7.004
 3834POPC   C4A50334  30.754  25.849   7.301
 3834POPC   C1B50335  30.721  26.451   6.241
 3834POPC   C2B50336  30.545  26.385   6.652
 3834POPC   C3B50337  30.656  26.367   7.086
 3834POPC   C4B50338  30.861  26.589   7.392
 3835POPC   NC350339  27.019   3.629   4.935
 3835POPC   PO450340  26.602   3.361   5.402
 3835POPC   GL150341  26.671   3.530   5.825
 3835POPC   GL250342  27.047   3.610   5.782
 3835POPC   C1A50343  26.593   3.470   6.275
 3835POPC   D2A50344  26.681   3.769   6.629
 3835POPC   C3A50345  27.055   3.759   6.863
 3835POPC   C4A50346  26.861   3.652   7.215
 3835POPC   C1B50347  27.095   3.364   6.167
 3835POPC   C2B50348  26.956   3.316   6.594
 3835POPC   C3B50349  27.112   3.224   6.989
 3835POPC   C4B50350  27.330   3.405   7.289
 3836POPC   NC350351   2.081  34.682   5.422
 3836POPC   PO450352   1.461  34.464   5.466
 3836POPC   GL150353   1.770  34.504   5.784
 3836POPC   GL250354   1.798  34.863   5.842
 3836POPC   C1A50355   2.069  34.539   6.128
 3836POPC   D2A50356   2.028  34.347   6.522
 3836POPC   C3A50357   2.178  34.475   6.908
 3836POPC   C4A50358   2.378  34.234   7.252
 3836POPC   C1B50359   1.623  34.755   6.252
 3836POPC   C2B50360   1.829  34.805   6.623
 3836POPC   C3B50361   2.013  34.962   6.969
 3836POPC   C4B50362   2.325  34.875   7.262
 3837POPC   NC350363  10.427  39.882   5.442
 3837POPC   PO450364  10.706  40.476   5.339
 3837POPC   GL150365  10.668  40.301   5.746
 3837POPC   GL250366  10.778  39.945   5.806
 3837POPC   C1A50367  10.462  40.219   6.135
 3837POPC   D2A50368  10.591  40.177   6.551
 3837POPC   C3A50369  10.332  40.261   6.893
 3837POPC   C4A50370  10.511  40.331   7.285
 3837POPC   C1B50371  10.784  39.778   6.237
 3837POPC   C2B50372  10.699  39.673   6.679
 3837POPC   C3B50373  10.698  39.893   7.083
 3837POPC   C4B50374  10.628  39.927   7.558
 3838POPC   NC350375  19.228  35.339   5.447
 3838POPC   PO450376  18.734  34.807   5.445
 3838POPC   GL150377  18.888  35.175   5.803
 3838POPC   GL250378  18.928  35.582   5.798
 3838POPC   C1A50379  19.164  35.302   6.185
 3838POPC   D2A50380  19.380  35.170   6.588
 3838POPC   C3A50381  19.236  35.330   6.998
 3838POPC   C4A50382  19.148  35.623   7.341
 3838POPC   C1B50383  18.717  35.537   6.251
 3838POPC   C2B50384  18.799  35.296   6.640
 3838POPC   C3B50385  18.724  35.270   7.083
 3838POPC   C4B50386  18.415  35.574   7.199
 3839POPC   NC350387  36.104   8.055   5.309
 3839POPC   PO450388  36.689   7.797   5.569
 3839POPC   GL150389  36.359   8.043   5.770
 3839POPC   GL250390  36.034   8.238   5.774
 3839POPC   C1A50391  36.406   8.270   6.148
 3839POPC   D2A50392  36.206   8.269   6.512
 3839POPC   C3A50393  36.406   8.052   6.834
 3839POPC   C4A50394  36.173   8.076   7.200
 3839POPC   C1B50395  35.730   8.357   6.101
 3839POPC   C2B50396  35.781   8.590   6.489
 3839POPC   C3B50397  35.945   8.495   6.898
 3839POPC   C4B50398  35.806   8.421   7.301
 3840POPC   NC350399   2.313  44.050   5.523
 3840POPC   PO450400   2.898  43.658   5.402
 3840POPC   GL150401   3.010  43.808   5.819
 3840POPC   GL250402   2.657  43.832   5.857
 3840POPC   C1A50403   2.974  43.842   6.274
 3840POPC   D2A50404   2.793  43.721   6.653
 3840POPC   C3A50405   3.037  43.848   7.033
 3840POPC   C4A50406   3.051  43.893   7.501
 3840POPC   C1B50407   2.549  43.564   6.205
 3840POPC   C2B50408   2.310  43.543   6.596
 3840POPC   C3B50409   2.462  43.535   7.027
 3840POPC   C4B50410   2.542  43.827   7.369
 3841POPC   NC350411  34.230   0.263   5.554
 3841POPC   PO450412  34.830   0.505   5.449
 3841POPC   GL150413  34.680   0.465   5.845
 3841POPC   GL250414  34.417   0.689   5.786
 3841POPC   C1A50415  34.636   0.223   6.240
 3841POPC   D2A50416  34.751   0.064   6.650
 3841POPC   C3A50417  34.528   0.244   7.002
 3841POPC   C4A50418  34.782   0.494   7.239
 3841POPC   C1B50419  34.312   0.609   6.215
 3841POPC   C2B50420  34.202   0.433   6.616
 3841POPC   C3B50421  34.219   0.712   6.946
 3841POPC   C4B50422  34.287   0.690   7.355
 3842POPC   NC350423  41.181  40.756   5.498
 3842POPC   PO450424  40.495  40.697   5.353
 3842POPC   GL150425  40.620  40.901   5.754
 3842POPC   GL250426  40.765  40.609   5.813
 3842POPC   C1A50427  40.956  40.970   6.124
 3842POPC   D2A50428  41.167  41.176   6.501
 3842POPC   C3A50429  41.050  40.962   6.894
 3842POPC   C4A50430  40.618  41.022   7.061
 3842POPC   C1B50431  40.591  40.592   6.190
 3842POPC   C2B50432  40.832  40.658   6.546
 3842POPC   C3B50433  40.734  40.550   6.958
 3842POPC   C4B50434  40.505  40.621   7.353
 3843POPC   NC350435  39.638  11.333   5.424
 3843POPC   PO450436  38.961  11.402   5.568
 3843POPC   GL150437  39.158  11.262   5.951
 3843POPC   GL250438  39.521  11.175   5.922
 3843POPC   C1A50439  39.119  11.468   6.362
 3843POPC   D2A50440  38.984  11.613   6.760
 3843POPC   C3A50441  39.032  11.427   7.151
 3843POPC   C4A50442  38.989  11.749   7.502
 3843POPC   C1B50443  39.451  11.083   6.366
 3843POPC   C2B50444  39.468  11.307   6.784
 3843POPC   C3B50445  39.530  11.286   7.248
 3843POPC   C4B50446  39.486  11.101   7.675
 3844POPC   NC350447  35.824  42.958   5.195
 3844POPC   PO450448  35.216  43.180   5.483
 3844POPC   GL150449  35.071  43.236   5.866
 3844POPC   GL250450  35.408  43.161   6.033
 3844POPC   C1A50451  34.968  43.253   6.267
 3844POPC   D2A50452  35.224  43.081   6.578
 3844POPC   C3A50453  35.100  43.219   6.976
 3844POPC   C4A50454  35.285  43.526   7.217
 3844POPC   C1B50455  35.609  42.821   6.314
 3844POPC   C2B50456  35.687  42.582   6.666
 3844POPC   C3B50457  35.763  42.841   6.977
 3844POPC   C4B50458  35.587  43.102   7.254
 3845POPC   NC350459  27.129  23.270   5.466
 3845POPC   PO450460  26.682  22.806   5.448
 3845POPC   GL150461  26.749  22.938   5.822
 3845POPC   GL250462  26.666  23.294   5.744
 3845POPC   C1A50463  26.947  22.793   6.212
 3845POPC   D2A50464  27.201  22.777   6.578
 3845POPC   C3A50465  26.995  22.887   6.942
 3845POPC   C4A50466  26.930  22.662   7.304
 3845POPC   C1B50467  26.799  23.310   6.158
 3845POPC   C2B50468  26.821  23.162   6.543
 3845POPC   C3B50469  26.701  23.326   6.898
 3845POPC   C4B50470  26.883  23.314   7.246
 3846POPC   NC350471   7.350  23.341   5.328
 3846POPC   PO450472   7.500  22.631   5.448
 3846POPC   GL150473   7.221  22.849   5.773
 3846POPC   GL250474   7.012  22.598   5.941
 3846POPC   C1A50475   7.280  23.102   6.190
 3846POPC   D2A50476   7.353  22.941   6.636
 3846POPC   C3A50477   7.347  23.062   7.072
 3846POPC   C4A50478   7.674  23.262   7.279
 3846POPC   C1B50479   7.418  22.619   6.213
 3846POPC   C2B50480   7.780  22.694   6.509
 3846POPC   C3B50481   7.668  22.667   6.950
 3846POPC   C4B50482   7.265  22.551   7.183
 3847POPC   NC350483   4.241  35.591   5.172
 3847POPC   PO450484   4.730  35.372   5.487
 3847POPC   GL150485   4.534  35.635   5.806
 3847POPC   GL250486   4.213  35.447   5.834
 3847POPC   C1A50487   4.372  35.739   6.249
 3847POPC   D2A50488   4.090  35.506   6.531
 3847POPC   C3A50489   4.236  35.440   6.959
 3847POPC   C4A50490   4.387  35.517   7.359
 3847POPC   C1B50491   4.449  35.237   6.164
 3847POPC   C2B50492   4.505  35.182   6.584
 3847POPC   C3B50493   4.621  35.013   6.964
 3847POPC   C4B50494   4.409  35.029   7.303
 3848POPC   NC350495   0.798  35.522   5.122
 3848POPC   PO450496   1.386  35.461   5.490
 3848POPC   GL150497   1.361  35.349   5.903
 3848POPC   GL250498   1.082  35.142   5.896
 3848POPC   C1A50499   1.338  35.515   6.333
 3848POPC   D2A50500   1.511  35.818   6.619
 3848POPC   C3A50501   1.289  35.737   6.966
 3848POPC   C4A50502   1.271  35.344   7.139
 3848POPC   C1B50503   1.191  35.035   6.294
 3848POPC   C2B50504   1.424  35.117   6.650
 3848POPC   C3B50505   1.496  34.893   7.017
 3848POPC   C4B50506   1.321  34.923   7.420
 3849POPC   NC350507   6.503  33.823   5.318
 3849POPC   PO450508   6.965  34.312   5.444
 3849POPC   GL150509   6.857  33.951   5.707
 3849POPC   GL250510   6.698  33.610   5.726
 3849POPC   C1A50511   6.885  33.871   6.137
 3849POPC   D2A50512   6.922  34.061   6.539
 3849POPC   C3A50513   6.807  33.873   6.923
 3849POPC   C4A50514   6.858  34.042   7.380
 3849POPC   C1B50515   6.498  33.532   6.098
 3849POPC   C2B50516   6.429  33.713   6.505
 3849POPC   C3B50517   6.467  33.485   6.893
 3849POPC   C4B50518   6.494  33.692   7.285
 3850POPC   NC350519  27.015  29.376   5.638
 3850POPC   PO450520  26.479  29.137   5.301
 3850POPC   GL150521  26.601  28.994   5.712
 3850POPC   GL250522  26.521  29.335   5.788
 3850POPC   C1A50523  26.744  28.970   6.162
 3850POPC   D2A50524  26.974  28.819   6.548
 3850POPC   C3A50525  27.110  29.064   6.897
 3850POPC   C4A50526  26.999  29.237   7.279
 3850POPC   C1B50527  26.608  29.461   6.211
 3850POPC   C2B50528  26.604  29.236   6.590
 3850POPC   C3B50529  26.664  29.430   6.958
 3850POPC   C4B50530  26.499  29.351   7.351
 3851POPC   NC350531   3.344  23.181   5.552
 3851POPC   PO450532   3.842  22.783   5.320
 3851POPC   GL150533   3.699  22.826   5.723
 3851POPC   GL250534   3.413  22.632   5.646
 3851POPC   C1A50535   3.667  23.062   6.135
 3851POPC   D2A50536   3.790  22.959   6.556
 3851POPC   C3A50537   3.558  23.159   6.871
 3851POPC   C4A50538   3.470  22.982   7.256
 3851POPC   C1B50539   3.348  22.657   6.094
 3851POPC   C2B50540   3.267  22.903   6.491
 3851POPC   C3B50541   3.107  22.832   6.919
 3851POPC   C4B50542   3.213  22.534   7.253
 3852POPC   NC350543  37.516  27.114   5.593
 3852POPC   PO450544  37.875  26.599   5.456
 3852POPC   GL150545  37.673  26.612   5.814
 3852POPC   GL250546  37.344  26.544   5.777
 3852POPC   C1A50547  37.736  26.786   6.199
 3852POPC   D2A50548  37.765  27.045   6.541
 3852POPC   C3A50549  37.858  26.850   6.928
 3852POPC   C4A50550  37.693  27.092   7.255
 3852POPC   C1B50551  37.170  26.766   6.094
 3852POPC   C2B50552  37.234  26.883   6.483
 3852POPC   C3B50553  37.343  26.970   6.867
 3852POPC   C4B50554  37.338  26.707   7.182
 3853POPC   NC350555   9.158   9.370   5.350
 3853POPC   PO450556   8.882   8.767   5.467
 3853POPC   GL150557   8.893   9.028   5.802
 3853POPC   GL250558   9.241   9.061   5.778
 3853POPC   C1A50559   8.852   8.840   6.201
 3853POPC   D2A50560   9.034   8.669   6.594
 3853POPC   C3A50561   9.217   8.921   6.937
 3853POPC   C4A50562   9.139   8.829   7.381
 3853POPC   C1B50563   9.358   8.941   6.199
 3853POPC   C2B50564   9.449   9.208   6.561
 3853POPC   C3B50565   9.399   9.410   6.965
 3853POPC   C4B50566   9.186   9.334   7.341
 3854POPC   NC350567   7.021  11.596   5.467
 3854POPC   PO450568   6.364  11.527   5.394
 3854POPC   GL150569   6.533  11.325   5.754
 3854POPC   GL250570   6.764  11.043   5.709
 3854POPC   C1A50571   6.832  11.389   6.104
 3854POPC   D2A50572   6.820  11.248   6.506
 3854POPC   C3A50573   6.556  11.447   6.824
 3854POPC   C4A50574   6.754  11.402   7.223
 3854POPC   C1B50575   6.523  10.971   6.129
 3854POPC   C2B50576   6.347  11.047   6.558
 3854POPC   C3B50577   6.470  10.983   7.017
 3854POPC   C4B50578   6.768  10.909   7.387
 3855POPC   NC350579  10.523  36.783   5.338
 3855POPC   PO450580  10.931  37.310   5.588
 3855POPC   GL150581  10.654  37.142   5.958
 3855POPC   GL250582  10.440  36.869   5.829
 3855POPC   C1A50583  10.504  36.882   6.333
 3855POPC   D2A50584  10.718  36.671   6.672
 3855POPC   C3A50585  10.634  36.976   6.976
 3855POPC   C4A50586  10.735  37.128   7.389
 3855POPC   C1B50587  10.255  36.510   6.081
 3855POPC   C2B50588  10.331  36.389   6.536
 3855POPC   C3B50589  10.195  36.535   6.963
 3855POPC   C4B50590  10.352  36.789   7.350
 3856POPC   NC350591   1.298  38.051   5.624
 3856POPC   PO450592   1.385  37.521   5.377
 3856POPC   GL150593   1.149  37.581   5.780
 3856POPC   GL250594   0.935  37.285   5.761
 3856POPC   C1A50595   1.255  37.769   6.219
 3856POPC   D2A50596   1.108  38.002   6.595
 3856POPC   C3A50597   1.275  37.869   6.964
 3856POPC   C4A50598   1.044  37.917   7.321
 3856POPC   C1B50599   0.979  37.341   6.229
 3856POPC   C2B50600   1.135  37.492   6.649
 3856POPC   C3B50601   0.981  37.456   7.100
 3856POPC   C4B50602   1.168  37.217   7.457
 3857POPC   NC350603  38.282  12.264   5.423
 3857POPC   PO450604  38.932  12.293   5.519
 3857POPC   GL150605  38.670  12.086   5.823
 3857POPC   GL250606  38.353  11.886   5.763
 3857POPC   C1A50607  38.448  12.258   6.169
 3857POPC   D2A50608  38.224  12.295   6.545
 3857POPC   C3A50609  38.483  12.225   6.933
 3857POPC   C4A50610  38.887  12.024   7.064
 3857POPC   C1B50611  38.485  11.735   6.161
 3857POPC   C2B50612  38.586  11.899   6.560
 3857POPC   C3B50613  38.462  11.727   6.958
 3857POPC   C4B50614  38.139  11.711   7.291
 3858POPC   NC350615  24.657  43.772   5.216
 3858POPC   PO450616  24.468  44.359   5.349
 3858POPC   GL150617  24.663  44.107   5.688
 3858POPC   GL250618  24.707  43.718   5.714
 3858POPC   C1A50619  24.554  43.992   6.134
 3858POPC   D2A50620  24.329  43.742   6.464
 3858POPC   C3A50621  24.312  43.915   6.892
 3858POPC   C4A50622  24.587  44.160   7.155
 3858POPC   C1B50623  24.677  43.504   6.140
 3858POPC   C2B50624  24.653  43.359   6.604
 3858POPC   C3B50625  24.582  43.526   7.058
 3858POPC   C4B50626  24.289  43.753   7.387
 3859POPC   NC350627  37.767  30.563   5.545
 3859POPC   PO450628  37.435  31.085   5.439
 3859POPC   GL150629  37.471  30.867   5.849
 3859POPC   GL250630  37.357  30.537   5.864
 3859POPC   C1A50631  37.523  30.834   6.302
 3859POPC   D2A50632  37.712  30.618   6.663
 3859POPC   C3A50633  37.537  30.850   7.006
 3859POPC   C4A50634  37.216  30.762   7.273
 3859POPC   C1B50635  37.653  30.365   6.148
 3859POPC   C2B50636  37.703  30.026   6.412
 3859POPC   C3B50637  37.733  30.107   6.827
 3859POPC   C4B50638  37.765  30.423   7.163
 3860POPC   NC350639  28.940  35.279   5.371
 3860POPC   PO450640  29.506  35.594   5.467
 3860POPC   GL150641  29.267  35.333   5.785
 3860POPC   GL250642  28.981  35.076   5.834
 3860POPC   C1A50643  29.088  35.422   6.197
 3860POPC   D2A50644  29.164  35.605   6.582
 3860POPC   C3A50645  29.084  35.376   6.912
 3860POPC   C4A50646  29.184  35.462   7.309
 3860POPC   C1B50647  29.066  34.903   6.238
 3860POPC   C2B50648  29.216  34.920   6.673
 3860POPC   C3B50649  29.377  35.000   7.115
 3860POPC   C4B50650  29.258  35.020   7.575
 3861POPC   NC350651  28.935  33.678   5.059
 3861POPC   PO450652  29.434  33.953   5.467
 3861POPC   GL150653  29.412  34.004   5.906
 3861POPC   GL250654  29.415  33.645   5.907
 3861POPC   C1A50655  29.260  33.916   6.323
 3861POPC   D2A50656  29.119  33.617   6.643
 3861POPC   C3A50657  29.388  33.417   6.917
 3861POPC   C4A50658  29.442  33.703   7.204
 3861POPC   C1B50659  29.149  33.418   6.181
 3861POPC   C2B50660  28.726  33.349   6.444
 3861POPC   C3B50661  28.646  33.590   6.812
 3861POPC   C4B50662  28.952  33.592   7.153
 3862POPC   NC350663  42.678  12.945   5.475
 3862POPC   PO450664  42.015  13.069   5.381
 3862POPC   GL150665  42.177  12.910   5.745
 3862POPC   GL250666  42.432  13.121   5.893
 3862POPC   C1A50667  42.147  12.780   6.167
 3862POPC   D2A50668  42.485  12.831   6.430
 3862POPC   C3A50669  42.361  12.707   6.802
 3862POPC   C4A50670  42.224  12.573   7.179
 3862POPC   C1B50671  42.352  13.333   6.274
 3862POPC   C2B50672  42.231  13.373   6.703
 3862POPC   C3B50673  42.224  13.121   7.073
 3862POPC   C4B50674  42.404  13.176   7.482
 3863POPC   NC350675   5.412  13.470   5.312
 3863POPC   PO450676   4.778  13.268   5.402
 3863POPC   GL150677   5.042  13.503   5.730
 3863POPC   GL250678   5.359  13.339   5.798
 3863POPC   C1A50679   5.086  13.683   6.177
 3863POPC   D2A50680   5.084  13.470   6.625
 3863POPC   C3A50681   5.139  13.692   7.030
 3863POPC   C4A50682   5.106  13.747   7.483
 3863POPC   C1B50683   5.266  13.204   6.190
 3863POPC   C2B50684   5.522  13.192   6.559
 3863POPC   C3B50685   5.485  13.271   7.003
 3863POPC   C4B50686   5.131  13.263   7.301
 3864POPC   NC350687   2.291  15.921   5.421
 3864POPC   PO450688   1.598  15.752   5.490
 3864POPC   GL150689   1.750  15.776   5.906
 3864POPC   GL250690   2.095  15.780   5.876
 3864POPC   C1A50691   1.836  15.850   6.373
 3864POPC   D2A50692   1.726  15.944   6.817
 3864POPC   C3A50693   2.067  16.080   7.100
 3864POPC   C4A50694   2.002  16.148   7.542
 3864POPC   C1B50695   2.333  15.672   6.244
 3864POPC   C2B50696   2.329  15.828   6.666
 3864POPC   C3B50697   2.210  15.599   7.013
 3864POPC   C4B50698   1.833  15.653   7.250
 3865POPC   NC350699  20.138   9.866   5.427
 3865POPC   PO450700  20.768   9.690   5.339
 3865POPC   GL150701  20.775   9.880   5.763
 3865POPC   GL250702  20.426   9.983   5.844
 3865POPC   C1A50703  20.756   9.822   6.211
 3865POPC   D2A50704  20.810   9.466   6.517
 3865POPC   C3A50705  20.830   9.567   6.958
 3865POPC   C4A50706  20.866   9.958   7.138
 3865POPC   C1B50707  20.453  10.245   6.250
 3865POPC   C2B50708  20.646  10.174   6.702
 3865POPC   C3B50709  20.437  10.240   7.172
 3865POPC   C4B50710  20.219  10.040   7.583
 3866POPC   NC350711  25.759  20.399   5.111
 3866POPC   PO450712  26.177  20.893   5.452
 3866POPC   GL150713  26.174  20.495   5.698
 3866POPC   GL250714  25.823  20.330   5.752
 3866POPC   C1A50715  26.148  20.472   6.152
 3866POPC   D2A50716  26.123  20.838   6.407
 3866POPC   C3A50717  26.243  20.860   6.820
 3866POPC   C4A50718  26.066  20.594   7.140
 3866POPC   C1B50719  25.724  20.224   6.225
 3866POPC   C2B50720  25.948  20.322   6.652
 3866POPC   C3B50721  25.986  20.114   7.087
 3866POPC   C4B50722  25.938  20.306   7.556
 3867POPC   NC350723  41.652  14.171   5.395
 3867POPC   PO450724  41.338  14.704   5.270
 3867POPC   GL150725  41.522  14.615   5.687
 3867POPC   GL250726  41.444  14.270   5.846
 3867POPC   C1A50727  41.382  14.696   6.111
 3867POPC   D2A50728  41.561  14.756   6.516
 3867POPC   C3A50729  41.380  14.483   6.800
 3867POPC   C4A50730  41.552  14.633   7.143
 3867POPC   C1B50731  41.770  14.360   6.163
 3867POPC   C2B50732  41.912  14.387   6.610
 3867POPC   C3B50733  41.776  14.188   7.000
 3867POPC   C4B50734  41.389  14.114   7.211
 3868POPC   NC350735  21.803  42.903   5.340
 3868POPC   PO450736  22.480  43.126   5.304
 3868POPC   GL150737  22.257  43.033   5.710
 3868POPC   GL250738  21.949  42.835   5.825
 3868POPC   C1A50739  22.346  42.979   6.166
 3868POPC   D2A50740  22.101  42.866   6.546
 3868POPC   C3A50741  22.265  42.901   6.978
 3868POPC   C4A50742  22.186  43.213   7.300
 3868POPC   C1B50743  21.839  43.147   6.146
 3868POPC   C2B50744  21.679  43.250   6.566
 3868POPC   C3B50745  21.752  43.115   6.998
 3868POPC   C4B50746  21.733  42.996   7.437
 3869POPC   NC350747   5.890  25.569   5.084
 3869POPC   PO450748   6.092  25.657   5.752
 3869POPC   GL150749   5.818  25.817   6.001
 3869POPC   GL250750   5.659  25.489   6.044
 3869POPC   C1A50751   5.856  26.167   6.271
 3869POPC   D2A50752   6.050  26.328   6.638
 3869POPC   C3A50753   5.795  26.146   6.961
 3869POPC   C4A50754   6.080  25.894   7.170
 3869POPC   C1B50755   5.525  25.701   6.394
 3869POPC   C2B50756   5.808  25.744   6.667
 3869POPC   C3B50757   5.703  25.590   7.057
 3869POPC   C4B50758   5.482  25.811   7.337
 3870POPC   NC350759  17.376  28.565   5.674
 3870POPC   PO450760  17.939  28.106   5.525
 3870POPC   GL150761  17.674  28.194   5.861
 3870POPC   GL250762  17.817  28.512   5.967
 3870POPC   C1A50763  17.393  28.218   6.230
 3870POPC   D2A50764  17.505  28.413   6.627
 3870POPC   C3A50765  17.319  28.294   7.013
 3870POPC   C4A50766  17.588  28.108   7.298
 3870POPC   C1B50767  17.680  28.847   6.254
 3870POPC   C2B50768  17.777  28.854   6.701
 3870POPC   C3B50769  17.768  28.566   7.076
 3870POPC   C4B50770  17.683  28.609   7.550
 3871POPC   NC350771   9.832  42.502   5.524
 3871POPC   PO450772   9.204  42.326   5.394
 3871POPC   GL150773   9.451  42.137   5.746
 3871POPC   GL250774   9.815  42.140   5.909
 3871POPC   C1A50775   9.391  42.113   6.188
 3871POPC   D2A50776   9.726  42.150   6.507
 3871POPC   C3A50777   9.597  42.083   6.919
 3871POPC   C4A50778   9.696  41.916   7.316
 3871POPC   C1B50779   9.773  42.537   6.187
 3871POPC   C2B50780   9.909  42.616   6.642
 3871POPC   C3B50781   9.984  42.369   7.031
 3871POPC   C4B50782  10.140  42.521   7.429
 3872POPC   NC350783  30.262   8.267   5.551
 3872POPC   PO450784  30.874   7.815   5.261
 3872POPC   GL150785  30.665   7.900   5.692
 3872POPC   GL250786  30.311   7.773   5.703
 3872POPC   C1A50787  30.709   8.233   6.071
 3872POPC   D2A50788  30.646   8.538   6.441
 3872POPC   C3A50789  30.837   8.415   6.842
 3872POPC   C4A50790  30.783   8.354   7.274
 3872POPC   C1B50791  30.364   7.846   6.158
 3872POPC   C2B50792  30.626   8.006   6.525
 3872POPC   C3B50793  30.772   7.908   6.933
 3872POPC   C4B50794  30.534   7.876   7.294
 3873POPC   NC350795  12.812   6.258   5.434
 3873POPC   PO450796  13.155   6.822   5.331
 3873POPC   GL150797  13.039   6.685   5.728
 3873POPC   GL250798  13.208   6.367   5.762
 3873POPC   C1A50799  12.771   6.814   6.101
 3873POPC   D2A50800  12.916   6.936   6.531
 3873POPC   C3A50801  12.814   6.682   6.898
 3873POPC   C4A50802  12.672   6.848   7.293
 3873POPC   C1B50803  13.150   6.494   6.204
 3873POPC   C2B50804  13.264   6.572   6.624
 3873POPC   C3B50805  13.294   6.505   7.079
 3873POPC   C4B50806  13.101   6.277   7.428
 3874POPC   NC350807  14.581  23.945   5.347
 3874POPC   PO450808  13.933  23.866   5.259
 3874POPC   GL150809  14.170  23.868   5.685
 3874POPC   GL250810  14.425  23.628   5.752
 3874POPC   C1A50811  14.130  23.994   6.139
 3874POPC   D2A50812  13.947  23.896   6.557
 3874POPC   C3A50813  14.161  23.775   6.941
 3874POPC   C4A50814  14.554  23.831   7.126
 3874POPC   C1B50815  14.335  23.531   6.207
 3874POPC   C2B50816  14.473  23.464   6.636
 3874POPC   C3B50817  14.766  23.399   6.972
 3874POPC   C4B50818  14.682  23.409   7.424
 3875POPC   NC350819  22.261  19.499   5.036
 3875POPC   PO450820  22.194  20.076   5.421
 3875POPC   GL150821  22.255  19.883   5.776
 3875POPC   GL250822  22.313  19.526   5.620
 3875POPC   C1A50823  22.135  19.992   6.217
 3875POPC   D2A50824  21.986  20.050   6.663
 3875POPC   C3A50825  22.094  19.985   7.117
 3875POPC   C4A50826  21.934  19.621   7.342
 3875POPC   C1B50827  22.303  19.493   6.082
 3875POPC   C2B50828  22.400  19.656   6.505
 3875POPC   C3B50829  22.263  19.547   6.909
 3875POPC   C4B50830  22.460  19.654   7.301
 3876POPC   NC350831   4.724  41.478   5.427
 3876POPC   PO450832   5.392  41.625   5.412
 3876POPC   GL150833   5.076  41.625   5.767
 3876POPC   GL250834   5.105  41.262   5.773
 3876POPC   C1A50835   4.843  41.461   6.173
 3876POPC   D2A50836   4.755  41.292   6.605
 3876POPC   C3A50837   5.009  41.493   6.931
 3876POPC   C4A50838   4.937  41.599   7.318
 3876POPC   C1B50839   5.322  41.252   6.191
 3876POPC   C2B50840   5.259  41.113   6.644
 3876POPC   C3B50841   5.434  41.220   7.086
 3876POPC   C4B50842   5.188  41.224   7.499
 3877POPC   NC350843   0.840  10.235   5.517
 3877POPC   PO450844   0.517   9.558   5.526
 3877POPC   GL150845   0.396   9.735   5.891
 3877POPC   GL250846   0.420  10.071   5.812
 3877POPC   C1A50847   0.141   9.862   6.254
 3877POPC   D2A50848   0.191   9.935   6.693
 3877POPC   C3A50849   0.215   9.672   7.078
 3877POPC   C4A50850   0.517   9.384   7.299
 3877POPC   C1B50851   0.629  10.097   6.188
 3877POPC   C2B50852   0.868  10.286   6.523
 3877POPC   C3B50853   0.862  10.169   6.952
 3877POPC   C4B50854   0.742   9.848   7.266
 3878POPC   NC350855  25.533  26.254   5.020
 3878POPC   PO450856  25.296  25.768   5.431
 3878POPC   GL150857  25.303  25.835   5.849
 3878POPC   GL250858  25.573  26.047   5.894
 3878POPC   C1A50859  25.090  26.065   6.199
 3878POPC   D2A50860  25.136  26.382   6.482
 3878POPC   C3A50861  25.210  26.226   6.879
 3878POPC   C4A50862  25.018  25.862   7.112
 3878POPC   C1B50863  25.514  25.797   6.304
 3878POPC   C2B50864  25.355  25.738   6.706
 3878POPC   C3B50865  25.525  25.855   7.074
 3878POPC   C4B50866  25.541  26.270   7.260
 3879POPC   NC350867   6.452  35.276   5.292
 3879POPC   PO450868   7.083  35.539   5.462
 3879POPC   GL150869   6.794  35.371   5.727
 3879POPC   GL250870   6.592  35.679   5.797
 3879POPC   C1A50871   6.697  35.157   6.118
 3879POPC   D2A50872   6.541  35.277   6.537
 3879POPC   C3A50873   6.685  35.284   6.964
 3879POPC   C4A50874   6.524  35.357   7.369
 3879POPC   C1B50875   6.842  35.637   6.192
 3879POPC   C2B50876   6.982  35.525   6.625
 3879POPC   C3B50877   6.941  35.719   7.067
 3879POPC   C4B50878   6.890  35.673   7.531
 3880POPC   NC350879  26.567  21.155   5.526
 3880POPC   PO450880  26.885  21.827   5.484
 3880POPC   GL150881  26.643  21.617   5.766
 3880POPC   GL250882  26.981  21.468   5.847
 3880POPC   C1A50883  26.603  21.413   6.166
 3880POPC   D2A50884  26.878  21.409   6.516
 3880POPC   C3A50885  26.606  21.276   6.833
 3880POPC   C4A50886  26.445  21.293   7.229
 3880POPC   C1B50887  27.007  21.089   6.102
 3880POPC   C2B50888  27.132  20.947   6.494
 3880POPC   C3B50889  27.144  21.132   6.869
 3880POPC   C4B50890  26.917  21.144   7.203
 3881POPC   NC350891  44.729  24.018   5.225
 3881POPC   PO450892  44.539  23.534   5.647
 3881POPC   GL150893  44.399  23.583   5.970
 3881POPC   GL250894  44.417  23.925   6.039
 3881POPC   C1A50895  44.462  23.515   6.341
 3881POPC   D2A50896  44.644  23.328   6.617
 3881POPC   C3A50897  44.518  23.431   6.958
 3881POPC   C4A50898  44.366  23.577   7.331
 3881POPC   C1B50899  44.831  23.848   6.214
 3881POPC   C2B50900  44.776  23.811   6.632
 3881POPC   C3B50901  44.681  23.891   7.032
 3881POPC   C4B50902   0.107  23.834   7.051
 3882POPC   NC350903  33.631  40.221   5.539
 3882POPC   PO450904  34.149  39.770   5.477
 3882POPC   GL150905  33.968  39.966   5.789
 3882POPC   GL250906  34.223  40.058   5.935
 3882POPC   C1A50907  33.780  40.057   6.198
 3882POPC   D2A50908  33.730  39.847   6.554
 3882POPC   C3A50909  33.615  40.040   6.869
 3882POPC   C4A50910  33.859  40.011   7.235
 3882POPC   C1B50911  34.060  39.630   6.145
 3882POPC   C2B50912  34.099  39.499   6.571
 3882POPC   C3B50913  34.237  39.706   6.900
 3882POPC   C4B50914  34.179  39.617   7.283
 3883POPC   NC350915  16.655  44.706   5.228
 3883POPC   PO450916  17.010  44.181   5.556
 3883POPC   GL150917  16.925  44.555   5.798
 3883POPC   GL250918  16.584  44.648   5.742
 3883POPC   C1A50919  16.993  44.628   6.261
 3883POPC   D2A50920  17.111  44.438   6.664
 3883POPC   C3A50921  17.132  44.748   7.011
 3883POPC   C4A50922  16.897  44.756   7.394
 3883POPC   C1B50923  16.556  44.390   6.126
 3883POPC   C2B50924  16.520  44.471   6.579
 3883POPC   C3B50925  16.693  44.425   7.002
 3883POPC   C4B50926  16.420  44.665   7.250
 3884POPC   NC350927   9.194  34.121   5.394
 3884POPC   PO450928   9.039  33.533   5.236
 3884POPC   GL150929   9.106  33.698   5.676
 3884POPC   GL250930   8.786  33.863   5.707
 3884POPC   C1A50931   9.140  33.888   6.122
 3884POPC   D2A50932   9.053  33.741   6.505
 3884POPC   C3A50933   9.282  33.748   6.821
 3884POPC   C4A50934   9.128  33.757   7.213
 3884POPC   C1B50935   8.699  33.674   6.127
 3884POPC   C2B50936   8.544  33.770   6.531
 3884POPC   C3B50937   8.710  33.965   6.921
 3884POPC   C4B50938   8.636  33.734   7.297
 3885POPC   NC350939  19.714  42.764   5.279
 3885POPC   PO450940  20.018  42.190   5.387
 3885POPC   GL150941  19.906  42.469   5.776
 3885POPC   GL250942  19.562  42.618   5.762
 3885POPC   C1A50943  19.761  42.349   6.246
 3885POPC   D2A50944  19.661  42.110   6.680
 3885POPC   C3A50945  19.965  42.162   7.044
 3885POPC   C4A50946  20.167  42.357   7.434
 3885POPC   C1B50947  19.572  42.815   6.173
 3885POPC   C2B50948  19.754  42.806   6.550
 3885POPC   C3B50949  19.555  42.764   6.926
 3885POPC   C4B50950  19.644  42.501   7.262
 3886POPC   NC350951  30.480  27.334   4.870
 3886POPC   PO450952  30.616  27.596   5.498
 3886POPC   GL150953  30.721  27.560   5.936
 3886POPC   GL250954  30.990  27.822   6.085
 3886POPC   C1A50955  30.434  27.608   6.244
 3886POPC   D2A50956  30.523  27.840   6.598
 3886POPC   C3A50957  30.775  27.756   6.946
 3886POPC   C4A50958  30.571  27.873   7.354
 3886POPC   C1B50959  30.920  27.510   6.426
 3886POPC   C2B50960  30.545  27.327   6.652
 3886POPC   C3B50961  30.423  27.428   7.076
 3886POPC   C4B50962  30.633  27.404   7.480
 3887POPC   NC350963  34.605  21.681   5.463
 3887POPC   PO450964  34.761  20.991   5.412
 3887POPC   GL150965  34.610  21.205   5.792
 3887POPC   GL250966  34.860  21.442   5.881
 3887POPC   C1A50967  34.420  21.376   6.216
 3887POPC   D2A50968  34.648  21.432   6.614
 3887POPC   C3A50969  34.472  21.333   6.996
 3887POPC   C4A50970  34.610  21.376   7.425
 3887POPC   C1B50971  34.840  21.125   6.245
 3887POPC   C2B50972  34.897  20.987   6.692
 3887POPC   C3B50973  34.882  21.029   7.146
 3887POPC   C4B50974  34.848  20.979   7.615
 3888POPC   NC350975  34.354  22.472   5.418
 3888POPC   PO450976  34.768  22.024   5.208
 3888POPC   GL150977  34.814  22.048   5.741
 3888POPC   GL250978  35.071  21.939   5.923
 3888POPC   C1A50979  34.809  22.303   6.188
 3888POPC   D2A50980  34.501  22.470   6.510
 3888POPC   C3A50981  34.499  22.264   6.915
 3888POPC   C4A50982  34.436  22.404   7.332
 3888POPC   C1B50983  34.727  21.792   6.216
 3888POPC   C2B50984  34.382  21.847   6.504
 3888POPC   C3B50985  34.208  21.794   6.914
 3888POPC   C4B50986  34.531  21.836   7.231
 3889POPC   NC350987  44.762  16.344   5.115
 3889POPC   PO450988  44.482  16.077   5.707
 3889POPC   GL150989  44.721  15.899   5.977
 3889POPC   GL250990  44.751  15.538   5.882
 3889POPC   C1A50991  44.756  16.100   6.395
 3889POPC   D2A50992  44.460  16.131   6.757
 3889POPC   C3A50993  44.640  16.160   7.175
 3889POPC   C4A50994  44.450  16.369   7.520
 3889POPC   C1B50995  44.852  15.579   6.322
 3889POPC   C2B50996   0.106  15.779   6.587
 3889POPC   C3B50997  44.870  15.789   6.905
 3889POPC   C4B50998  44.832  15.661   7.298
 3890POPC   NC350999  44.440  24.936   5.451
 3890POPC   PO451000  44.737  25.464   5.530
 3890POPC   GL151001  44.664  25.261   5.893
 3890POPC   GL251002  44.834  24.974   5.791
 3890POPC   C1A51003  44.893  25.259   6.284
 3890POPC   D2A51004  44.784  25.155   6.717
 3890POPC   C3A51005  44.660  25.455   7.047
 3890POPC   C4A51006  44.822  25.734   7.353
 3890POPC   C1B51007  44.613  24.834   6.199
 3890POPC   C2B51008  44.596  24.663   6.632
 3890POPC   C3B51009  44.868  24.735   6.987
 3890POPC   C4B51010   0.063  25.104   7.156
 3891POPC   NC351011  39.409  35.523   5.425
 3891POPC   PO451012  38.890  35.045   5.517
 3891POPC   GL151013  39.211  35.212   5.797
 3891POPC   GL251014  39.023  35.363   6.020
 3891POPC   C1A51015  39.396  35.096   6.227
 3891POPC   D2A51016  39.510  35.265   6.620
 3891POPC   C3A51017  39.245  35.120   6.936
 3891POPC   C4A51018  38.999  35.343   7.202
 3891POPC   C1B51019  39.388  35.605   6.251
 3891POPC   C2B51020  39.424  35.789   6.684
 3891POPC   C3B51021  39.398  35.711   7.150
 3891POPC   C4B51022  39.538  35.750   7.604
 3892POPC   NC351023  31.784  13.707   5.102
 3892POPC   PO451024  31.242  13.437   5.245
 3892POPC   GL151025  31.206  13.615   5.691
 3892POPC   GL251026  31.272  13.308   5.871
 3892POPC   C1A51027  31.460  13.790   6.080
 3892POPC   D2A51028  31.654  13.493   6.415
 3892POPC   C3A51029  31.620  13.557   6.871
 3892POPC   C4A51030  31.544  13.958   7.135
 3892POPC   C1B51031  31.040  13.531   6.188
 3892POPC   C2B51032  31.203  13.738   6.548
 3892POPC   C3B51033  31.141  13.637   6.978
 3892POPC   C4B51034  31.291  13.370   7.269
 3893POPC   NC351035   5.970  10.600   5.519
 3893POPC   PO451036   5.516  10.204   5.629
 3893POPC   GL151037   5.690  10.449   5.932
 3893POPC   GL251038   5.659  10.810   5.976
 3893POPC   C1A51039   5.715  10.393   6.346
 3893POPC   D2A51040   6.085  10.293   6.559
 3893POPC   C3A51041   5.916  10.163   6.931
 3893POPC   C4A51042   6.004  10.276   7.344
 3893POPC   C1B51043   6.015  10.794   6.240
 3893POPC   C2B51044   5.924  10.770   6.678
 3893POPC   C3B51045   5.909  10.723   7.100
 3893POPC   C4B51046   6.070  11.033   7.329
 3894POPC   NC351047  15.360  20.359   5.489
 3894POPC   PO451048  15.545  20.957   5.450
 3894POPC   GL151049  15.347  20.723   5.828
 3894POPC   GL251050  14.994  20.518   5.811
 3894POPC   C1A51051  15.201  20.643   6.245
 3894POPC   D2A51052  15.227  20.831   6.626
 3894POPC   C3A51053  15.034  20.762   6.982
 3894POPC   C4A51054  15.228  20.703   7.365
 3894POPC   C1B51055  14.853  20.284   6.184
 3894POPC   C2B51056  14.905  20.402   6.631
 3894POPC   C3B51057  14.861  20.285   7.073
 3894POPC   C4B51058  14.729  20.606   7.370
 3895POPC   NC351059  23.787   7.125   5.281
 3895POPC   PO451060  23.853   6.394   5.484
 3895POPC   GL151061  23.688   6.715   5.759
 3895POPC   GL251062  23.947   6.722   5.933
 3895POPC   C1A51063  23.505   6.724   6.200
 3895POPC   D2A51064  23.498   6.411   6.554
 3895POPC   C3A51065  23.422   6.573   6.967
 3895POPC   C4A51066  23.528   6.752   7.338
 3895POPC   C1B51067  23.855   6.342   6.150
 3895POPC   C2B51068  24.033   6.250   6.548
 3895POPC   C3B51069  23.901   6.438   6.906
 3895POPC   C4B51070  23.768   6.326   7.301
 3896POPC   NC351071   8.681  25.441   5.543
 3896POPC   PO451072   8.839  26.108   5.359
 3896POPC   GL151073   8.980  26.091   5.802
 3896POPC   GL251074   9.031  25.752   5.819
 3896POPC   C1A51075   8.837  26.143   6.258
 3896POPC   D2A51076   8.997  26.074   6.669
 3896POPC   C3A51077   8.911  26.243   7.087
 3896POPC   C4A51078   8.984  26.232   7.564
 3896POPC   C1B51079   9.302  25.671   6.153
 3896POPC   C2B51080   9.273  25.482   6.569
 3896POPC   C3B51081   9.102  25.668   6.941
 3896POPC   C4B51082   8.957  25.763   7.365
 3897POPC   NC351083  23.231  42.275   5.349
 3897POPC   PO451084  22.638  42.114   5.186
 3897POPC   GL151085  22.860  42.045   5.658
 3897POPC   GL251086  22.810  42.347   5.826
 3897POPC   C1A51087  23.014  42.051   6.153
 3897POPC   D2A51088  23.083  42.266   6.553
 3897POPC   C3A51089  22.842  42.136   6.910
 3897POPC   C4A51090  22.948  42.179   7.325
 3897POPC   C1B51091  23.016  42.595   6.160
 3897POPC   C2B51092  23.148  42.775   6.561
 3897POPC   C3B51093  23.190  42.584   6.993
 3897POPC   C4B51094  23.085  42.645   7.452
 3898POPC   NC351095  39.188  36.185   5.395
 3898POPC   PO451096  39.641  35.885   5.190
 3898POPC   GL151097  39.518  35.949   5.705
 3898POPC   GL251098  39.179  35.819   5.853
 3898POPC   C1A51099  39.374  36.172   6.129
 3898POPC   D2A51100  39.128  36.186   6.520
 3898POPC   C3A51101  39.170  36.183   6.971
 3898POPC   C4A51102  39.259  36.161   7.414
 3898POPC   C1B51103  38.917  35.794   6.291
 3898POPC   C2B51104  38.914  35.747   6.804
 3898POPC   C3B51105  38.899  35.834   7.287
 3898POPC   C4B51106  38.890  35.984   7.748
 3899POPC   NC351107   9.720   2.023   5.228
 3899POPC   PO451108   9.539   1.708   5.759
 3899POPC   GL151109   9.692   2.086   5.855
 3899POPC   GL251110   9.413   2.250   5.904
 3899POPC   C1A51111   9.938   2.114   6.230
 3899POPC   D2A51112  10.156   1.899   6.564
 3899POPC   C3A51113   9.883   1.889   6.890
 3899POPC   C4A51114   9.913   2.179   7.217
 3899POPC   C1B51115   9.377   2.097   6.290
 3899POPC   C2B51116   9.420   1.895   6.655
 3899POPC   C3B51117   9.439   2.065   7.042
 3899POPC   C4B51118   9.448   1.815   7.409
 3900POPC   NC351119   0.904  29.520   5.527
 3900POPC   PO451120   1.034  30.155   5.199
 3900POPC   GL151121   1.102  30.021   5.672
 3900POPC   GL251122   1.356  30.270   5.802
 3900POPC   C1A51123   1.094  29.798   6.142
 3900POPC   D2A51124   1.275  29.671   6.589
 3900POPC   C3A51125   1.109  29.720   7.037
 3900POPC   C4A51126   1.140  29.963   7.462
 3900POPC   C1B51127   1.505  30.136   6.226
 3900POPC   C2B51128   1.665  30.004   6.656
 3900POPC   C3B51129   1.512  30.043   7.098
 3900POPC   C4B51130   1.573  30.202   7.576
 3901POPC   NC351131  37.752  40.632   5.258
 3901POPC   PO451132  37.214  40.521   5.720
 3901POPC   GL151133  37.554  40.508   5.983
 3901POPC   GL251134  37.762  40.721   5.782
 3901POPC   C1A51135  37.658  40.528   6.441
 3901POPC   D2A51136  37.652  40.835   6.783
 3901POPC   C3A51137  37.549  40.686   7.155
 3901POPC   C4A51138  37.646  40.330   7.308
 3901POPC   C1B51139  37.630  40.993   6.143
 3901POPC   C2B51140  37.892  41.137   6.464
 3901POPC   C3B51141  38.013  41.183   6.892
 3901POPC   C4B51142  37.765  41.148   7.248
 3902POPC   NC351143  37.160  31.451   5.493
 3902POPC   PO451144  36.447  31.509   5.471
 3902POPC   GL151145  36.515  31.521   5.888
 3902POPC   GL251146  36.883  31.561   5.923
 3902POPC   C1A51147  36.520  31.472   6.327
 3902POPC   D2A51148  36.905  31.507   6.563
 3902POPC   C3A51149  36.835  31.645   6.954
 3902POPC   C4A51150  36.682  31.454   7.318
 3902POPC   C1B51151  37.258  31.416   6.185
 3902POPC   C2B51152  37.368  31.264   6.579
 3902POPC   C3B51153  37.304  31.478   6.947
 3902POPC   C4B51154  37.189  31.290   7.314
 3903POPC   NC351155  35.903   9.016   5.357
 3903POPC   PO451156  35.220   9.085   5.355
 3903POPC   GL151157  35.470   9.052   5.707
 3903POPC   GL251158  35.170   8.901   5.895
 3903POPC   C1A51159  35.613   8.898   6.120
 3903POPC   D2A51160  35.303   8.785   6.467
 3903POPC   C3A51161  35.472   8.679   6.889
 3903POPC   C4A51162  35.555   8.860   7.285
 3903POPC   C1B51163  34.983   9.149   6.216
 3903POPC   C2B51164  35.006   9.333   6.621
 3903POPC   C3B51165  35.121   9.176   7.030
 3903POPC   C4B51166  35.240   9.211   7.460
 3904POPC   NC351167  11.209  33.577   5.388
 3904POPC   PO451168  11.123  34.265   5.406
 3904POPC   GL151169  11.065  34.053   5.836
 3904POPC   GL251170  11.282  33.736   5.889
 3904POPC   C1A51171  11.122  34.035   6.293
 3904POPC   D2A51172  11.421  33.940   6.602
 3904POPC   C3A51173  11.331  33.835   7.009
 3904POPC   C4A51174  10.951  33.975   7.180
 3904POPC   C1B51175  11.239  33.508   6.303
 3904POPC   C2B51176  11.314  33.388   6.735
 3904POPC   C3B51177  11.351  33.300   7.177
 3904POPC   C4B51178  11.012  33.259   7.499
 3905POPC   NC351179  29.331  11.640   5.478
 3905POPC   PO451180  29.245  10.953   5.284
 3905POPC   GL151181  29.045  11.138   5.697
 3905POPC   GL251182  29.154  11.455   5.909
 3905POPC   C1A51183  29.029  11.037   6.155
 3905POPC   D2A51184  29.240  11.291   6.476
 3905POPC   C3A51185  29.029  11.453   6.849
 3905POPC   C4A51186  29.067  11.149   7.203
 3905POPC   C1B51187  29.335  11.746   6.238
 3905POPC   C2B51188  29.524  11.670   6.685
 3905POPC   C3B51189  29.464  11.496   7.138
 3905POPC   C4B51190  29.452  11.783   7.512
 3906POPC   NC351191  36.285  30.112   5.168
 3906POPC   PO451192  36.353  29.847   5.741
 3906POPC   GL151193  36.012  29.971   5.920
 3906POPC   GL251194  35.775  29.670   5.983
 3906POPC   C1A51195  36.113  30.161   6.318
 3906POPC   D2A51196  36.341  30.045   6.639
 3906POPC   C3A51197  36.060  30.112   6.930
 3906POPC   C4A51198  36.224  30.222   7.262
 3906POPC   C1B51199  36.119  29.654   6.315
 3906POPC   C2B51200  36.417  29.532   6.627
 3906POPC   C3B51201  36.263  29.658   7.027
 3906POPC   C4B51202  35.830  29.605   7.160
 3907POPC   NC351203  42.025  20.632   5.476
 3907POPC   PO451204  42.577  20.073   5.473
 3907POPC   GL151205  42.555  20.277   5.874
 3907POPC   GL251206  42.317  20.455   5.823
 3907POPC   C1A51207  42.576  20.670   6.206
 3907POPC   D2A51208  42.691  20.895   6.582
 3907POPC   C3A51209  42.553  20.679   6.960
 3907POPC   C4A51210  42.751  20.822   7.334
 3907POPC   C1B51211  42.124  20.463   6.226
 3907POPC   C2B51212  42.188  20.776   6.555
 3907POPC   C3B51213  42.053  20.842   6.959
 3907POPC   C4B51214  42.157  20.578   7.289
 3908POPC   NC351215  33.557   7.862   5.623
 3908POPC   PO451216  33.832   7.386   5.178
 3908POPC   GL151217  33.836   7.241   5.635
 3908POPC   GL251218  33.942   7.532   5.798
 3908POPC   C1A51219  33.597   7.286   6.062
 3908POPC   D2A51220  33.698   7.207   6.519
 3908POPC   C3A51221  33.619   7.523   6.838
 3908POPC   C4A51222  33.666   7.373   7.250
 3908POPC   C1B51223  34.073   7.458   6.223
 3908POPC   C2B51224  34.102   7.655   6.633
 3908POPC   C3B51225  34.095   7.486   7.049
 3908POPC   C4B51226  34.028   7.567   7.551
 3909POPC   NC351227  40.392  35.649   5.561
 3909POPC   PO451228  41.023  35.809   5.707
 3909POPC   GL151229  40.803  35.521   5.939
 3909POPC   GL251230  40.694  35.242   5.743
 3909POPC   C1A51231  40.654  35.626   6.348
 3909POPC   D2A51232  40.915  35.707   6.685
 3909POPC   C3A51233  40.871  35.294   6.865
 3909POPC   C4A51234  40.692  35.175   7.243
 3909POPC   C1B51235  40.441  35.195   6.130
 3909POPC   C2B51236  40.307  35.254   6.559
 3909POPC   C3B51237  40.369  35.431   6.956
 3909POPC   C4B51238  40.715  35.685   7.156
 3910POPC   NC351239  24.570   4.124   5.444
 3910POPC   PO451240  24.514   4.657   5.232
 3910POPC   GL151241  24.525   4.556   5.733
 3910POPC   GL251242  24.309   4.306   5.840
 3910POPC   C1A51243  24.393   4.614   6.213
 3910POPC   D2A51244  24.036   4.538   6.529
 3910POPC   C3A51245  24.253   4.565   6.927
 3910POPC   C4A51246  24.531   4.349   7.213
 3910POPC   C1B51247  24.304   4.074   6.216
 3910POPC   C2B51248  24.131   4.043   6.649
 3910POPC   C3B51249  24.119   4.098   7.113
 3910POPC   C4B51250  24.116   4.052   7.599
 3911POPC   NC351251  28.756   6.219   5.493
 3911POPC   PO451252  29.347   5.822   5.358
 3911POPC   GL151253  29.097   5.863   5.709
 3911POPC   GL251254  29.213   6.177   5.832
 3911POPC   C1A51255  29.194   5.666   6.107
 3911POPC   D2A51256  29.436   5.750   6.465
 3911POPC   C3A51257  29.238   5.654   6.863
 3911POPC   C4A51258  28.931   5.681   7.194
 3911POPC   C1B51259  29.004   6.136   6.259
 3911POPC   C2B51260  29.029   6.107   6.723
 3911POPC   C3B51261  28.752   6.203   7.095
 3911POPC   C4B51262  28.814   6.158   7.574
 3912POPC   NC351263  35.712  26.916   5.364
 3912POPC   PO451264  36.383  26.939   5.350
 3912POPC   GL151265  36.162  26.747   5.677
 3912POPC   GL251266  35.970  27.030   5.775
 3912POPC   C1A51267  36.120  26.705   6.134
 3912POPC   D2A51268  36.369  26.661   6.504
 3912POPC   C3A51269  36.299  26.867   6.883
 3912POPC   C4A51270  36.206  26.626   7.241
 3912POPC   C1B51271  35.755  27.100   6.162
 3912POPC   C2B51272  35.921  26.966   6.540
 3912POPC   C3B51273  35.788  26.822   6.924
 3912POPC   C4B51274  35.931  27.114   7.179
 3913POPC   NC351275  14.437  39.497   5.433
 3913POPC   PO451276  13.910  39.060   5.489
 3913POPC   GL151277  14.244  39.161   5.829
 3913POPC   GL251278  14.596  39.192   5.836
 3913POPC   C1A51279  14.402  39.155   6.296
 3913POPC   D2A51280  14.486  39.492   6.569
 3913POPC   C3A51281  14.465  39.402   6.976
 3913POPC   C4A51282  14.316  39.367   7.399
 3913POPC   C1B51283  14.862  38.980   6.146
 3913POPC   C2B51284  14.881  39.178   6.553
 3913POPC   C3B51285  14.986  39.383   6.920
 3913POPC   C4B51286  14.829  39.335   7.326
 3914POPC   NC351287  10.319   7.854   5.497
 3914POPC   PO451288  10.512   7.198   5.430
 3914POPC   GL151289  10.608   7.371   5.842
 3914POPC   GL251290  10.598   7.714   5.904
 3914POPC   C1A51291  10.615   7.354   6.286
 3914POPC   D2A51292  10.456   7.071   6.560
 3914POPC   C3A51293  10.581   7.176   6.941
 3914POPC   C4A51294  10.742   7.452   7.230
 3914POPC   C1B51295  10.321   7.765   6.247
 3914POPC   C2B51296  10.446   7.637   6.683
 3914POPC   C3B51297  10.300   7.685   7.094
 3914POPC   C4B51298  10.026   8.014   7.139
 3915POPC   NC351299  44.071  14.982   5.276
 3915POPC   PO451300  43.979  15.597   5.441
 3915POPC   GL151301  43.857  15.384   5.788
 3915POPC   GL251302  43.865  15.026   5.762
 3915POPC   C1A51303  44.014  15.429   6.206
 3915POPC   D2A51304  44.115  15.227   6.599
 3915POPC   C3A51305  43.897  15.380   6.965
 3915POPC   C4A51306  43.492  15.191   7.126
 3915POPC   C1B51307  43.908  14.927   6.216
 3915POPC   C2B51308  43.872  14.741   6.649
 3915POPC   C3B51309  43.889  14.872   7.082
 3915POPC   C4B51310  43.931  15.179   7.434
 3916POPC   NC351311  35.866   2.165   5.455
 3916POPC   PO451312  35.155   2.048   5.445
 3916POPC   GL151313  35.239   1.948   5.840
 3916POPC   GL251314  35.529   2.143   5.881
 3916POPC   C1A51315  35.266   1.747   6.220
 3916POPC   D2A51316  35.060   1.758   6.619
 3916POPC   C3A51317  35.332   1.746   6.967
 3916POPC   C4A51318  35.372   1.723   7.411
 3916POPC   C1B51319  35.282   2.304   6.256
 3916POPC   C2B51320  35.252   2.268   6.735
 3916POPC   C3B51321  35.145   2.192   7.165
 3916POPC   C4B51322  35.285   2.183   7.606
 3917POPC   NC351323   5.551   6.497   5.409
 3917POPC   PO451324   5.882   7.100   5.378
 3917POPC   GL151325   5.887   6.775   5.699
 3917POPC   GL251326   6.197   6.671   5.797
 3917POPC   C1A51327   5.792   6.543   6.087
 3917POPC   D2A51328   5.667   6.676   6.508
 3917POPC   C3A51329   5.856   6.514   6.853
 3917POPC   C4A51330   5.788   6.619   7.264
 3917POPC   C1B51331   6.344   6.836   6.167
 3917POPC   C2B51332   6.236   6.736   6.580
 3917POPC   C3B51333   6.163   6.904   6.985
 3917POPC   C4B51334   6.451   7.035   7.224
 3918POPC   NC351335  39.476   8.486   5.428
 3918POPC   PO451336  39.400   7.868   5.415
 3918POPC   GL151337  39.200   8.122   5.780
 3918POPC   GL251338  39.384   8.413   5.919
 3918POPC   C1A51339  39.145   8.130   6.270
 3918POPC   D2A51340  39.309   8.267   6.697
 3918POPC   C3A51341  39.250   8.078   7.142
 3918POPC   C4A51342  39.454   7.794   7.502
 3918POPC   C1B51343  38.952   8.538   6.024
 3918POPC   C2B51344  38.860   8.526   6.481
 3918POPC   C3B51345  38.876   8.424   6.928
 3918POPC   C4B51346  39.032   8.496   7.359
 3919POPC   NC351347  39.467  30.805   5.376
 3919POPC   PO451348  38.885  30.562   5.585
 3919POPC   GL151349  39.165  30.805   5.791
 3919POPC   GL251350  39.390  30.524   5.803
 3919POPC   C1A51351  39.438  30.903   6.161
 3919POPC   D2A51352  39.198  30.941   6.562
 3919POPC   C3A51353  39.220  30.929   7.012
 3919POPC   C4A51354  39.547  30.793   7.264
 3919POPC   C1B51355  39.135  30.479   6.195
 3919POPC   C2B51356  39.105  30.392   6.623
 3919POPC   C3B51357  39.351  30.408   6.987
 3919POPC   C4B51358  39.064  30.519   7.302
 3920POPC   NC351359  10.089  44.390   5.040
 3920POPC   PO451360   9.693  44.764   5.340
 3920POPC   GL151361   9.661  44.662   5.773
 3920POPC   GL251362   9.317  44.571   5.789
 3920POPC   C1A51363   9.842  44.474   6.160
 3920POPC   D2A51364  10.128  44.587   6.502
 3920POPC   C3A51365   9.922  44.669   6.893
 3920POPC   C4A51366   9.714   0.003   7.146
 3920POPC   C1B51367   9.360  44.745   6.226
 3920POPC   C2B51368   9.425  44.563   6.659
 3920POPC   C3B51369   9.391  44.620   7.120
 3920POPC   C4B51370   9.409  44.506   7.556
 3921POPC   NC351371   2.023   2.748   5.256
 3921POPC   PO451372   1.619   2.169   5.252
 3921POPC   GL151373   1.814   2.371   5.654
 3921POPC   GL251374   2.153   2.531   5.710
 3921POPC   C1A51375   1.765   2.507   6.110
 3921POPC   D2A51376   1.700   2.653   6.563
 3921POPC   C3A51377   1.906   2.595   6.993
 3921POPC   C4A51378   1.763   2.611   7.413
 3921POPC   C1B51379   2.294   2.686   6.134
 3921POPC   C2B51380   2.239   2.605   6.596
 3921POPC   C3B51381   2.344   2.912   6.985
 3921POPC   C4B51382   2.619   3.092   7.369
 3922POPC   NC351383  15.567  39.181   5.421
 3922POPC   PO451384  14.830  39.139   5.408
 3922POPC   GL151385  15.139  39.202   5.760
 3922POPC   GL251386  15.345  38.900   5.803
 3922POPC   C1A51387  15.251  39.324   6.213
 3922POPC   D2A51388  15.544  39.273   6.570
 3922POPC   C3A51389  15.492  39.510   6.925
 3922POPC   C4A51390  15.377  39.337   7.297
 3922POPC   C1B51391  15.569  38.920   6.177
 3922POPC   C2B51392  15.253  38.849   6.512
 3922POPC   C3B51393  15.316  38.970   6.931
 3922POPC   C4B51394  15.503  38.828   7.330
 3923POPC   NC351395   4.572   0.055   5.051
 3923POPC   PO451396   4.050  44.944   5.465
 3923POPC   GL151397   4.079  44.749   5.850
 3923POPC   GL251398   4.381  44.616   5.802
 3923POPC   C1A51399   4.098  44.877   6.263
 3923POPC   D2A51400   3.906  44.849   6.654
 3923POPC   C3A51401   4.198  44.713   6.965
 3923POPC   C4A51402   4.248  44.890   7.349
 3923POPC   C1B51403   4.601  44.847   6.149
 3923POPC   C2B51404   4.504  44.799   6.563
 3923POPC   C3B51405   4.725  44.856   6.922
 3923POPC   C4B51406   4.681  44.663   7.287
 3924POPC   NC351407  38.318  33.556   5.403
 3924POPC   PO451408  38.106  34.068   5.124
 3924POPC   GL151409  38.317  34.040   5.680
 3924POPC   GL251410  38.616  33.962   5.815
 3924POPC   C1A51411  38.229  33.773   6.176
 3924POPC   D2A51412  38.217  33.508   6.649
 3924POPC   C3A51413  38.411  33.565   7.112
 3924POPC   C4A51414  38.228  33.843   7.488
 3924POPC   C1B51415  38.488  34.197   6.182
 3924POPC   C2B51416  38.439  34.014   6.604
 3924POPC   C3B51417  38.357  34.039   7.026
 3924POPC   C4B51418  38.690  34.034   7.327
 3925POPC   NC351419   6.571  39.952   5.391
 3925POPC   PO451420   7.108  39.976   5.734
 3925POPC   GL151421   6.709  40.174   5.853
 3925POPC   GL251422   6.335  40.094   5.823
 3925POPC   C1A51423   6.561  40.292   6.226
 3925POPC   D2A51424   6.661  40.084   6.602
 3925POPC   C3A51425   6.820  40.331   6.898
 3925POPC   C4A51426   6.869  40.178   7.289
 3925POPC   C1B51427   6.434  39.775   6.198
 3925POPC   C2B51428   6.398  39.653   6.678
 3925POPC   C3B51429   6.450  39.929   7.084
 3925POPC   C4B51430   6.265  39.845   7.520
 3926POPC   NC351431  35.052   4.968   5.493
 3926POPC   PO451432  34.287   4.954   5.358
 3926POPC   GL151433  34.372   5.122   5.793
 3926POPC   GL251434  34.726   5.071   5.871
 3926POPC   C1A51435  34.392   5.049   6.270
 3926POPC   D2A51436  34.674   5.129   6.649
 3926POPC   C3A51437  34.447   5.245   7.026
 3926POPC   C4A51438  34.438   4.937   7.333
 3926POPC   C1B51439  34.832   4.771   6.193
 3926POPC   C2B51440  34.706   4.606   6.592
 3926POPC   C3B51441  34.804   4.732   7.023
 3926POPC   C4B51442  34.863   4.708   7.483
 3927POPC   NC351443  25.104  10.164   5.022
 3927POPC   PO451444  25.204   9.565   5.303
 3927POPC   GL151445  25.176   9.578   5.742
 3927POPC   GL251446  25.396   9.276   5.797
 3927POPC   C1A51447  25.167   9.862   6.149
 3927POPC   D2A51448  25.365   9.897   6.584
 3927POPC   C3A51449  25.237   9.796   7.027
 3927POPC   C4A51450  24.881  10.030   7.234
 3927POPC   C1B51451  25.199   9.362   6.208
 3927POPC   C2B51452  25.173   9.436   6.638
 3927POPC   C3B51453  25.408   9.274   6.975
 3927POPC   C4B51454  25.310   9.361   7.377
 3928POPC   NC351455  23.540  30.047   5.417
 3928POPC   PO451456  24.121  29.717   5.574
 3928POPC   GL151457  23.881  29.881   5.872
 3928POPC   GL251458  23.538  29.838   5.889
 3928POPC   C1A51459  23.902  30.129   6.209
 3928POPC   D2A51460  23.628  30.228   6.562
 3928POPC   C3A51461  23.779  30.023   6.907
 3928POPC   C4A51462  23.870  30.047   7.350
 3928POPC   C1B51463  23.538  29.759   6.319
 3928POPC   C2B51464  23.584  29.499   6.679
 3928POPC   C3B51465  23.447  29.674   7.044
 3928POPC   C4B51466  23.369  30.077   7.202
 3929POPC   NC351467  28.285   5.309   5.155
 3929POPC   PO451468  28.249   4.813   5.634
 3929POPC   GL151469  28.478   5.067   5.857
 3929POPC   GL251470  28.566   5.310   5.596
 3929POPC   C1A51471  28.368   5.157   6.289
 3929POPC   D2A51472  28.087   5.222   6.647
 3929POPC   C3A51473  28.185   5.036   7.039
 3929POPC   C4A51474  28.102   5.096   7.486
 3929POPC   C1B51475  28.719   5.514   5.979
 3929POPC   C2B51476  28.722   5.488   6.464
 3929POPC   C3B51477  28.501   5.446   6.878
 3929POPC   C4B51478  28.580   5.277   7.291
 3930POPC   NC351479   4.977  43.398   5.525
 3930POPC   PO451480   5.014  42.680   5.561
 3930POPC   GL151481   5.195  42.800   5.915
 3930POPC   GL251482   5.005  43.115   5.991
 3930POPC   C1A51483   5.172  42.735   6.349
 3930POPC   D2A51484   5.023  43.008   6.657
 3930POPC   C3A51485   5.169  42.988   7.046
 3930POPC   C4A51486   5.362  43.319   7.178
 3930POPC   C1B51487   4.732  43.305   6.347
 3930POPC   C2B51488   4.600  43.287   6.786
 3930POPC   C3B51489   4.803  43.400   7.191
 3930POPC   C4B51490   5.030  43.326   7.593
 3931POPC   NC351491  18.622  44.511   5.568
 3931POPC   PO451492  19.143  44.843   5.457
 3931POPC   GL151493  19.030  44.748   5.856
 3931POPC   GL251494  18.726  44.933   5.849
 3931POPC   C1A51495  19.223  44.802   6.268
 3931POPC   D2A51496  19.536  44.619   6.537
 3931POPC   C3A51497  19.325  44.497   6.883
 3931POPC   C4A51498  19.042  44.722   7.146
 3931POPC   C1B51499  18.713  44.852   6.283
 3931POPC   C2B51500  18.846  44.649   6.676
 3931POPC   C3B51501  18.569  44.572   7.061
 3931POPC   C4B51502  18.672  44.685   7.500
 3932POPC   NC351503  42.685  31.487   5.553
 3932POPC   PO451504  41.951  31.460   5.589
 3932POPC   GL151505  42.288  31.433   5.854
 3932POPC   GL251506  42.465  31.106   5.815
 3932POPC   C1A51507  42.502  31.582   6.208
 3932POPC   D2A51508  42.546  31.454   6.612
 3932POPC   C3A51509  42.525  31.700   6.954
 3932POPC   C4A51510  42.201  31.678   7.216
 3932POPC   C1B51511  42.366  31.087   6.248
 3932POPC   C2B51512  42.493  30.940   6.652
 3932POPC   C3B51513  42.314  31.190   7.007
 3932POPC   C4B51514  42.493  31.277   7.402
 3933POPC   NC351515   0.958   9.472   5.456
 3933POPC   PO451516   1.628   9.513   5.531
 3933POPC   GL151517   1.355   9.214   5.821
 3933POPC   GL251518   0.996   9.307   5.957
 3933POPC   C1A51519   1.365   9.114   6.274
 3933POPC   D2A51520   1.167   9.389   6.584
 3933POPC   C3A51521   1.332   9.285   7.001
 3933POPC   C4A51522   1.490   8.923   7.209
 3933POPC   C1B51523   0.871   9.042   6.325
 3933POPC   C2B51524   1.083   8.895   6.722
 3933POPC   C3B51525   0.930   8.978   7.161
 3933POPC   C4B51526   0.734   9.016   7.603
 3934POPC   NC351527  27.531   7.038   4.891
 3934POPC   PO451528  27.625   6.517   5.349
 3934POPC   GL151529  27.618   6.706   5.751
 3934POPC   GL251530  27.358   6.560   5.910
 3934POPC   C1A51531  27.725   6.741   6.194
 3934POPC   D2A51532  27.422   6.793   6.549
 3934POPC   C3A51533  27.598   6.805   6.966
 3934POPC   C4A51534  27.805   6.489   7.224
 3934POPC   C1B51535  27.435   6.320   6.222
 3934POPC   C2B51536  27.702   6.338   6.560
 3934POPC   C3B51537  27.435   6.324   6.843
 3934POPC   C4B51538  27.046   6.114   6.976
 3935POPC   NC351539  28.380   3.750   5.196
 3935POPC   PO451540  28.262   3.126   5.315
 3935POPC   GL151541  28.375   3.448   5.689
 3935POPC   GL251542  28.058   3.377   5.849
 3935POPC   C1A51543  28.633   3.649   6.096
 3935POPC   D2A51544  28.580   3.838   6.533
 3935POPC   C3A51545  28.555   3.559   6.891
 3935POPC   C4A51546  28.511   3.450   7.328
 3935POPC   C1B51547  28.110   3.657   6.214
 3935POPC   C2B51548  28.088   3.516   6.639
 3935POPC   C3B51549  28.081   3.629   7.072
 3935POPC   C4B51550  28.014   3.384   7.458
 3936POPC   NC351551   2.509  31.568   5.351
 3936POPC   PO451552   2.944  31.019   5.417
 3936POPC   GL151553   2.875  31.417   5.706
 3936POPC   GL251554   2.588  31.539   5.875
 3936POPC   C1A51555   2.995  31.437   6.177
 3936POPC   D2A51556   2.980  31.189   6.565
 3936POPC   C3A51557   3.127  31.379   6.942
 3936POPC   C4A51558   2.852  31.549   7.244
 3936POPC   C1B51559   2.564  31.671   6.336
 3936POPC   C2B51560   2.412  31.922   6.709
 3936POPC   C3B51561   2.562  31.971   7.151
 3936POPC   C4B51562   2.353  31.863   7.547
 3937POPC   NC351563  34.171  41.117   5.481
 3937POPC   PO451564  33.902  40.527   5.344
 3937POPC   GL151565  33.855  40.711   5.730
 3937POPC   GL251566  33.876  40.457   5.910
 3937POPC   C1A51567  33.870  40.942   6.127
 3937POPC   D2A51568  33.688  41.110   6.485
 3937POPC   C3A51569  33.771  40.956   6.879
 3937POPC   C4A51570  33.888  40.930   7.313
 3937POPC   C1B51571  34.034  40.489   6.319
 3937POPC   C2B51572  33.730  40.506   6.649
 3937POPC   C3B51573  33.735  40.487   7.112
 3937POPC   C4B51574  33.964  40.429   7.508
 3938POPC   NC351575   9.301   6.882   5.305
 3938POPC   PO451576   8.811   6.448   5.543
 3938POPC   GL151577   8.938   6.605   5.894
 3938POPC   GL251578   9.085   6.899   5.780
 3938POPC   C1A51579   8.766   6.599   6.279
 3938POPC   D2A51580   9.005   6.488   6.592
 3938POPC   C3A51581   8.779   6.452   6.944
 3938POPC   C4A51582   8.937   6.324   7.327
 3938POPC   C1B51583   9.130   6.968   6.218
 3938POPC   C2B51584   9.297   6.889   6.618
 3938POPC   C3B51585   9.161   6.761   7.017
 3938POPC   C4B51586   9.154   6.781   7.448
 3939POPC   NC351587   2.457  17.293   5.573
 3939POPC   PO451588   2.810  17.787   5.485
 3939POPC   GL151589   2.881  17.471   5.819
 3939POPC   GL251590   3.171  17.247   5.788
 3939POPC   C1A51591   2.672  17.503   6.222
 3939POPC   D2A51592   2.541  17.763   6.562
 3939POPC   C3A51593   2.799  17.765   6.938
 3939POPC   C4A51594   2.717  17.484   7.259
 3939POPC   C1B51595   2.970  17.087   6.203
 3939POPC   C2B51596   2.956  17.068   6.679
 3939POPC   C3B51597   2.946  17.042   7.154
 3939POPC   C4B51598   3.123  17.097   7.585
 3940POPC   NC351599  26.850  26.943   5.373
 3940POPC   PO451600  27.431  27.033   5.707
 3940POPC   GL151601  27.051  26.787   5.858
 3940POPC   GL251602  26.725  26.615   5.764
 3940POPC   C1A51603  26.908  26.758   6.269
 3940POPC   D2A51604  27.151  26.646   6.626
 3940POPC   C3A51605  27.075  26.909   6.972
 3940POPC   C4A51606  27.144  26.663   7.285
 3940POPC   C1B51607  26.441  26.571   6.126
 3940POPC   C2B51608  26.418  26.904   6.438
 3940POPC   C3B51609  26.553  26.868   6.841
 3940POPC   C4B51610  26.597  26.808   7.249
 3941POPC   NC351611   1.655  43.524   4.979
 3941POPC   PO451612   1.991  43.676   5.477
 3941POPC   GL151613   2.157  43.707   5.858
 3941POPC   GL251614   2.292  43.372   5.827
 3941POPC   C1A51615   2.182  43.920   6.256
 3941POPC   D2A51616   1.918  43.938   6.617
 3941POPC   C3A51617   2.080  44.061   7.045
 3941POPC   C4A51618   1.835  44.354   7.326
 3941POPC   C1B51619   1.985  43.399   6.199
 3941POPC   C2B51620   1.799  43.389   6.588
 3941POPC   C3B51621   1.930  43.550   6.944
 3941POPC   C4B51622   2.059  43.629   7.336
 3942POPC   NC351623  36.300  38.690   5.379
 3942POPC   PO451624  35.929  38.143   5.382
 3942POPC   GL151625  36.068  38.433   5.776
 3942POPC   GL251626  36.369  38.675   5.881
 3942POPC   C1A51627  36.076  38.494   6.236
 3942POPC   D2A51628  36.190  38.255   6.562
 3942POPC   C3A51629  35.964  38.406   6.868
 3942POPC   C4A51630  36.091  38.348   7.254
 3942POPC   C1B51631  36.571  38.524   6.311
 3942POPC   C2B51632  36.761  38.726   6.663
 3942POPC   C3B51633  36.704  38.618   7.090
 3942POPC   C4B51634  36.568  38.200   7.247
 3943POPC   NC351635  38.649  30.166   5.566
 3943POPC   PO451636  38.310  29.603   5.328
 3943POPC   GL151637  38.310  29.710   5.752
 3943POPC   GL251638  37.994  29.552   5.784
 3943POPC   C1A51639  38.523  29.852   6.158
 3943POPC   D2A51640  38.595  30.067   6.570
 3943POPC   C3A51641  38.576  29.796   6.929
 3943POPC   C4A51642  38.550  29.947   7.354
 3943POPC   C1B51643  38.024  29.708   6.189
 3943POPC   C2B51644  38.134  29.819   6.605
 3943POPC   C3B51645  38.015  29.628   6.995
 3943POPC   C4B51646  38.049  29.762   7.415
 3944POPC   NC351647   5.409   4.073   5.632
 3944POPC   PO451648   5.312   4.602   5.237
 3944POPC   GL151649   5.322   4.678   5.760
 3944POPC   GL251650   5.122   4.407   5.900
 3944POPC   C1A51651   5.365   4.667   6.257
 3944POPC   D2A51652   5.153   4.680   6.689
 3944POPC   C3A51653   5.339   4.596   7.119
 3944POPC   C4A51654   5.254   4.581   7.591
 3944POPC   C1B51655   5.271   4.139   6.277
 3944POPC   C2B51656   5.301   4.183   6.733
 3944POPC   C3B51657   4.966   4.269   7.027
 3944POPC   C4B51658   4.923   4.225   7.463
 3945POPC   NC351659  40.488  28.529   5.477
 3945POPC   PO451660  40.954  28.050   5.404
 3945POPC   GL151661  40.962  28.237   5.838
 3945POPC   GL251662  41.019  28.589   5.870
 3945POPC   C1A51663  40.856  28.146   6.293
 3945POPC   D2A51664  40.484  28.119   6.603
 3945POPC   C3A51665  40.626  28.274   7.015
 3945POPC   C4A51666  41.085  28.349   7.146
 3945POPC   C1B51667  40.679  28.612   6.179
 3945POPC   C2B51668  40.680  28.610   6.636
 3945POPC   C3B51669  40.710  28.790   7.078
 3945POPC   C4B51670  41.004  28.833   7.460
 3946POPC   NC351671   9.484  20.478   5.033
 3946POPC   PO451672   8.893  20.474   5.447
 3946POPC   GL151673   8.877  20.611   5.835
 3946POPC   GL251674   9.075  20.921   5.821
 3946POPC   C1A51675   8.931  20.515   6.260
 3946POPC   D2A51676   9.183  20.546   6.598
 3946POPC   C3A51677   8.947  20.656   6.934
 3946POPC   C4A51678   8.665  20.508   7.231
 3946POPC   C1B51679   9.360  20.815   6.161
 3946POPC   C2B51680   9.449  20.968   6.567
 3946POPC   C3B51681   9.450  20.814   6.983
 3946POPC   C4B51682   9.182  20.784   7.364
 3947POPC   NC351683  18.366   2.724   5.256
 3947POPC   PO451684  18.066   3.211   5.513
 3947POPC   GL151685  18.248   2.941   5.761
 3947POPC   GL251686  18.575   2.847   5.731
 3947POPC   C1A51687  18.152   2.922   6.150
 3947POPC   D2A51688  17.933   2.715   6.449
 3947POPC   C3A51689  17.997   2.841   6.849
 3947POPC   C4A51690  18.016   2.564   7.211
 3947POPC   C1B51691  18.680   2.798   6.171
 3947POPC   C2B51692  18.442   2.812   6.552
 3947POPC   C3B51693  18.391   2.522   6.870
 3947POPC   C4B51694  18.695   2.624   7.150
 3948POPC   NC351695   6.381  36.609   5.344
 3948POPC   PO451696   6.482  37.168   5.518
 3948POPC   GL151697   6.681  36.963   5.784
 3948POPC   GL251698   7.041  36.914   5.718
 3948POPC   C1A51699   6.529  36.807   6.151
 3948POPC   D2A51700   6.357  36.893   6.473
 3948POPC   C3A51701   6.522  37.127   6.779
 3948POPC   C4A51702   6.362  37.081   7.179
 3948POPC   C1B51703   6.999  36.951   6.173
 3948POPC   C2B51704   6.855  36.756   6.560
 3948POPC   C3B51705   7.007  36.668   6.980
 3948POPC   C4B51706   6.854  37.003   7.239
 3949POPC   NC351707  21.320  15.075   5.306
 3949POPC   PO451708  21.049  15.728   5.286
 3949POPC   GL151709  21.174  15.514   5.723
 3949POPC   GL251710  21.475  15.280   5.751
 3949POPC   C1A51711  21.153  15.295   6.164
 3949POPC   D2A51712  21.368  15.136   6.553
 3949POPC   C3A51713  21.319  15.359   6.921
 3949POPC   C4A51714  21.192  15.375   7.340
 3949POPC   C1B51715  21.667  15.051   6.129
 3949POPC   C2B51716  21.859  14.973   6.554
 3949POPC   C3B51717  21.759  15.035   6.993
 3949POPC   C4B51718  21.689  15.090   7.437
 3950POPC   NC351719  30.306  12.857   5.145
 3950POPC   PO451720  29.813  13.132   5.420
 3950POPC   GL151721  29.951  12.888   5.798
 3950POPC   GL251722  30.298  12.803   5.850
 3950POPC   C1A51723  29.861  12.644   6.201
 3950POPC   D2A51724  29.671  12.709   6.627
 3950POPC   C3A51725  29.871  12.710   7.025
 3950POPC   C4A51726  29.832  12.826   7.433
 3950POPC   C1B51727  30.206  13.021   6.257
 3950POPC   C2B51728  30.138  13.025   6.720
 3950POPC   C3B51729  30.210  13.195   7.153
 3950POPC   C4B51730  30.345  13.516   7.513
 3951POPC   NC351731  27.893   2.193   5.394
 3951POPC   PO451732  27.629   1.738   5.089
 3951POPC   GL151733  27.704   1.768   5.597
 3951POPC   GL251734  28.072   1.689   5.648
 3951POPC   C1A51735  27.584   1.878   6.090
 3951POPC   D2A51736  27.380   2.027   6.515
 3951POPC   C3A51737  27.454   1.980   6.970
 3951POPC   C4A51738  27.610   2.318   7.247
 3951POPC   C1B51739  28.014   1.599   6.098
 3951POPC   C2B51740  27.735   1.555   6.480
 3951POPC   C3B51741  27.892   1.670   6.881
 3951POPC   C4B51742  27.832   1.835   7.307
 3952POPC   NC351743  21.165   4.877   5.533
 3952POPC   PO451744  21.632   5.270   5.453
 3952POPC   GL151745  21.374   5.301   5.838
 3952POPC   GL251746  20.986   5.254   5.809
 3952POPC   C1A51747  21.556   5.151   6.247
 3952POPC   D2A51748  21.525   4.783   6.542
 3952POPC   C3A51749  21.571   4.916   6.972
 3952POPC   C4A51750  21.377   4.782   7.342
 3952POPC   C1B51751  21.050   5.136   6.238
 3952POPC   C2B51752  21.203   5.186   6.676
 3952POPC   C3B51753  21.167   5.221   7.135
 3952POPC   C4B51754  21.160   5.492   7.501
 3953POPC   NC351755  16.815  12.350   5.434
 3953POPC   PO451756  16.331  11.956   5.445
 3953POPC   GL151757  16.605  12.030   5.777
 3953POPC   GL251758  16.457  11.765   5.963
 3953POPC   C1A51759  16.898  11.994   6.115
 3953POPC   D2A51760  16.789  11.923   6.538
 3953POPC   C3A51761  17.024  12.126   6.827
 3953POPC   C4A51762  17.044  12.071   7.240
 3953POPC   C1B51763  16.402  12.130   6.263
 3953POPC   C2B51764  16.303  12.077   6.701
 3953POPC   C3B51765  16.540  12.137   7.077
 3953POPC   C4B51766  16.480  12.460   7.360
 3954POPC   NC351767  19.302  19.867   5.304
 3954POPC   PO451768  18.768  19.486   5.448
 3954POPC   GL151769  18.960  19.693   5.821
 3954POPC   GL251770  19.211  19.952   5.795
 3954POPC   C1A51771  19.195  19.706   6.252
 3954POPC   D2A51772  19.179  19.543   6.664
 3954POPC   C3A51773  19.355  19.685   7.073
 3954POPC   C4A51774  18.926  19.556   7.241
 3954POPC   C1B51775  18.932  20.111   6.113
 3954POPC   C2B51776  19.063  20.174   6.519
 3954POPC   C3B51777  19.001  19.986   6.897
 3954POPC   C4B51778  18.797  20.048   7.282
 3955POPC   NC351779   6.145  23.013   5.496
 3955POPC   PO451780   5.451  23.212   5.349
 3955POPC   GL151781   5.609  23.011   5.734
 3955POPC   GL251782   5.856  23.199   5.875
 3955POPC   C1A51783   5.616  22.895   6.194
 3955POPC   D2A51784   5.802  23.006   6.598
 3955POPC   C3A51785   5.521  23.044   6.948
 3955POPC   C4A51786   5.541  22.924   7.371
 3955POPC   C1B51787   6.137  22.985   6.161
 3955POPC   C2B51788   6.439  23.030   6.480
 3955POPC   C3B51789   6.328  23.006   6.883
 3955POPC   C4B51790   5.971  22.894   7.111
 3956POPC   NC351791  17.493  13.285   5.517
 3956POPC   PO451792  18.103  13.515   5.483
 3956POPC   GL151793  17.734  13.689   5.764
 3956POPC   GL251794  17.618  14.017   5.924
 3956POPC   C1A51795  17.467  13.584   6.153
 3956POPC   D2A51796  17.612  13.589   6.586
 3956POPC   C3A51797  17.467  13.603   7.019
 3956POPC   C4A51798  17.174  13.397   7.270
 3956POPC   C1B51799  17.901  13.915   6.240
 3956POPC   C2B51800  18.070  13.795   6.626
 3956POPC   C3B51801  17.895  13.994   6.972
 3956POPC   C4B51802  17.610  13.993   7.330
 3957POPC   NC351803  11.596  34.495   5.464
 3957POPC   PO451804  12.170  34.824   5.520
 3957POPC   GL151805  11.907  34.723   5.811
 3957POPC   GL251806  11.912  34.415   5.863
 3957POPC   C1A51807  11.778  34.768   6.241
 3957POPC   D2A51808  12.012  34.683   6.626
 3957POPC   C3A51809  11.923  34.549   7.048
 3957POPC   C4A51810  12.241  34.717   7.349
 3957POPC   C1B51811  11.927  34.252   6.268
 3957POPC   C2B51812  11.884  34.108   6.664
 3957POPC   C3B51813  12.121  34.073   6.944
 3957POPC   C4B51814  12.244  34.206   7.283
 3958POPC   NC351815   8.476  10.727   5.280
 3958POPC   PO451816   8.087  10.198   5.186
 3958POPC   GL151817   8.064  10.423   5.634
 3958POPC   GL251818   8.301  10.717   5.750
 3958POPC   C1A51819   7.991  10.470   6.106
 3958POPC   D2A51820   7.959  10.238   6.516
 3958POPC   C3A51821   8.046  10.408   6.934
 3958POPC   C4A51822   8.377  10.217   7.213
 3958POPC   C1B51823   8.297  10.907   6.152
 3958POPC   C2B51824   8.060  10.819   6.519
 3958POPC   C3B51825   8.244  10.859   6.903
 3958POPC   C4B51826   8.416  10.715   7.291
 3959POPC   NC351827  32.156   6.240   5.342
 3959POPC   PO451828  32.312   6.993   5.453
 3959POPC   GL151829  32.139   6.815   5.836
 3959POPC   GL251830  31.865   6.582   5.735
 3959POPC   C1A51831  32.267   6.745   6.266
 3959POPC   D2A51832  32.419   6.627   6.681
 3959POPC   C3A51833  32.324   6.840   7.042
 3959POPC   C4A51834  32.500   6.783   7.450
 3959POPC   C1B51835  31.849   6.460   6.164
 3959POPC   C2B51836  31.917   6.509   6.606
 3959POPC   C3B51837  32.050   6.417   7.036
 3959POPC   C4B51838  31.963   6.105   7.325
 3960POPC   NC351839  36.122  35.151   5.393
 3960POPC   PO451840  35.703  35.712   5.434
 3960POPC   GL151841  35.843  35.456   5.784
 3960POPC   GL251842  36.195  35.336   5.865
 3960POPC   C1A51843  35.839  35.385   6.221
 3960POPC   D2A51844  36.211  35.401   6.439
 3960POPC   C3A51845  36.061  35.496   6.834
 3960POPC   C4A51846  36.210  35.429   7.215
 3960POPC   C1B51847  36.379  34.951   6.029
 3960POPC   C2B51848  36.364  34.849   6.458
 3960POPC   C3B51849  36.379  35.087   6.841
 3960POPC   C4B51850  36.192  34.932   7.208
 3961POPC   NC351851  21.554  33.201   5.287
 3961POPC   PO451852  21.047  32.854   5.303
 3961POPC   GL151853  21.410  33.001   5.748
 3961POPC   GL251854  21.736  33.231   5.758
 3961POPC   C1A51855  21.369  32.870   6.295
 3961POPC   D2A51856  21.251  33.068   6.711
 3961POPC   C3A51857  21.520  32.983   7.056
 3961POPC   C4A51858  21.538  32.683   7.324
 3961POPC   C1B51859  21.573  33.296   6.175
 3961POPC   C2B51860  21.733  33.275   6.600
 3961POPC   C3B51861  21.579  33.474   6.970
 3961POPC   C4B51862  21.199  33.356   7.174
 3962POPC   NC351863   1.622   9.989   5.475
 3962POPC   PO451864   0.984   9.876   5.262
 3962POPC   GL151865   0.919   9.827   5.798
 3962POPC   GL251866   1.259   9.715   5.825
 3962POPC   C1A51867   1.079   9.880   6.269
 3962POPC   D2A51868   1.293  10.040   6.660
 3962POPC   C3A51869   1.146   9.749   6.956
 3962POPC   C4A51870   1.222   9.677   7.388
 3962POPC   C1B51871   1.496   9.600   6.203
 3962POPC   C2B51872   1.607   9.633   6.654
 3962POPC   C3B51873   1.637   9.728   7.092
 3962POPC   C4B51874   1.679   9.378   7.379
 3963POPC   NC351875   4.550  20.030   5.580
 3963POPC   PO451876   5.107  20.074   5.138
 3963POPC   GL151877   5.108  20.123   5.614
 3963POPC   GL251878   5.148  19.786   5.767
 3963POPC   C1A51879   5.119  20.198   6.088
 3963POPC   D2A51880   4.898  19.954   6.435
 3963POPC   C3A51881   4.961  20.046   6.860
 3963POPC   C4A51882   4.938  19.864   7.227
 3963POPC   C1B51883   5.301  19.722   6.217
 3963POPC   C2B51884   5.341  19.615   6.686
 3963POPC   C3B51885   5.335  19.549   7.161
 3963POPC   C4B51886   5.428  19.383   7.617
 3964POPC   NC351887  29.311  36.001   5.574
 3964POPC   PO451888  28.675  36.015   5.624
 3964POPC   GL151889  28.903  36.094   5.988
 3964POPC   GL251890  29.259  36.276   6.006
 3964POPC   C1A51891  28.982  36.055   6.413
 3964POPC   D2A51892  29.425  36.048   6.536
 3964POPC   C3A51893  29.371  35.923   6.974
 3964POPC   C4A51894  28.939  35.858   7.100
 3964POPC   C1B51895  29.167  36.527   6.397
 3964POPC   C2B51896  29.188  36.385   6.815
 3964POPC   C3B51897  29.324  36.404   7.226
 3964POPC   C4B51898  29.085  36.429   7.594
 3965POPC   NC351899   7.918  39.643   5.420
 3965POPC   PO451900   8.481  39.884   5.649
 3965POPC   GL151901   8.131  39.964   5.789
 3965POPC   GL251902   8.204  40.299   5.868
 3965POPC   C1A51903   7.986  39.772   6.123
 3965POPC   D2A51904   7.962  39.855   6.536
 3965POPC   C3A51905   8.358  39.880   6.777
 3965POPC   C4A51906   8.353  39.745   7.203
 3965POPC   C1B51907   8.307  40.173   6.303
 3965POPC   C2B51908   8.114  40.354   6.691
 3965POPC   C3B51909   8.159  40.242   7.123
 3965POPC   C4B51910   8.599  40.189   7.182
 3966POPC   NC351911  40.676  15.609   5.437
 3966POPC   PO451912  40.597  16.308   5.347
 3966POPC   GL151913  40.685  16.146   5.776
 3966POPC   GL251914  40.756  15.791   5.896
 3966POPC   C1A51915  40.565  16.097   6.236
 3966POPC   D2A51916  40.707  15.921   6.627
 3966POPC   C3A51917  40.573  16.198   6.922
 3966POPC   C4A51918  40.707  16.341   7.302
 3966POPC   C1B51919  41.005  15.690   6.262
 3966POPC   C2B51920  41.223  15.794   6.653
 3966POPC   C3B51921  41.011  15.711   7.038
 3966POPC   C4B51922  40.615  15.797   7.261
 3967POPC   NC351923   7.394  36.749   5.368
 3967POPC   PO451924   7.267  37.359   5.522
 3967POPC   GL151925   7.562  37.104   5.764
 3967POPC   GL251926   7.528  36.726   5.838
 3967POPC   C1A51927   7.482  37.054   6.203
 3967POPC   D2A51928   7.325  36.894   6.582
 3967POPC   C3A51929   7.308  37.101   6.973
 3967POPC   C4A51930   7.327  36.951   7.392
 3967POPC   C1B51931   7.326  36.540   6.184
 3967POPC   C2B51932   7.512  36.416   6.546
 3967POPC   C3B51933   7.551  36.609   6.931
 3967POPC   C4B51934   7.454  36.468   7.319
 3968POPC   NC351935  21.642  42.040   5.408
 3968POPC   PO451936  21.141  42.393   5.325
 3968POPC   GL151937  21.267  42.211   5.745
 3968POPC   GL251938  21.629  42.268   5.884
 3968POPC   C1A51939  21.236  42.224   6.216
 3968POPC   D2A51940  21.164  42.465   6.616
 3968POPC   C3A51941  21.357  42.329   7.022
 3968POPC   C4A51942  21.264  42.175   7.465
 3968POPC   C1B51943  21.692  42.614   6.220
 3968POPC   C2B51944  21.619  42.726   6.669
 3968POPC   C3B51945  21.825  42.612   7.060
 3968POPC   C4B51946  21.759  42.333   7.386
 3969POPC   NC351947  44.068  33.962   5.412
 3969POPC   PO451948  43.463  33.720   5.478
 3969POPC   GL151949  43.738  33.908   5.811
 3969POPC   GL251950  43.957  33.636   5.812
 3969POPC   C1A51951  43.849  34.163   6.200
 3969POPC   D2A51952  44.122  34.123   6.598
 3969POPC   C3A51953  43.996  33.995   7.050
 3969POPC   C4A51954  43.846  33.818   7.478
 3969POPC   C1B51955  44.138  33.441   6.178
 3969POPC   C2B51956  44.079  33.593   6.599
 3969POPC   C3B51957  44.186  33.518   6.997
 3969POPC   C4B51958  44.016  33.358   7.343
 3970POPC   NC351959  44.264  43.450   5.343
 3970POPC   PO451960  44.249  42.775   5.363
 3970POPC   GL151961  44.167  43.076   5.731
 3970POPC   GL251962  43.873  43.263   5.765
 3970POPC   C1A51963  44.079  43.077   6.208
 3970POPC   D2A51964  43.746  43.069   6.552
 3970POPC   C3A51965  43.891  43.049   6.979
 3970POPC   C4A51966  44.212  43.266   7.189
 3970POPC   C1B51967  43.828  43.520   6.173
 3970POPC   C2B51968  44.006  43.502   6.583
 3970POPC   C3B51969  43.806  43.570   6.976
 3970POPC   C4B51970  43.769  43.453   7.407
 3971POPC   NC351971   0.806  26.321   5.586
 3971POPC   PO451972   1.483  26.052   5.327
 3971POPC   GL151973   1.259  26.078   5.700
 3971POPC   GL251974   1.181  25.758   5.816
 3971POPC   C1A51975   1.150  26.157   6.133
 3971POPC   D2A51976   1.163  26.056   6.545
 3971POPC   C3A51977   1.084  26.318   6.908
 3971POPC   C4A51978   1.215  26.149   7.291
 3971POPC   C1B51979   1.012  25.611   6.211
 3971POPC   C2B51980   0.893  25.620   6.657
 3971POPC   C3B51981   1.183  25.764   6.963
 3971POPC   C4B51982   1.545  25.611   7.165
 3972POPC   NC351983  36.092  10.937   4.878
 3972POPC   PO451984  36.124  10.401   5.336
 3972POPC   GL151985  36.090  10.534   5.746
 3972POPC   GL251986  35.804  10.668   5.782
 3972POPC   C1A51987  36.201  10.642   6.189
 3972POPC   D2A51988  36.466  10.486   6.510
 3972POPC   C3A51989  36.317  10.605   6.913
 3972POPC   C4A51990  36.407  10.381   7.254
 3972POPC   C1B51991  35.785  10.378   6.149
 3972POPC   C2B51992  35.902  10.508   6.601
 3972POPC   C3B51993  35.778  10.733   7.011
 3972POPC   C4B51994  36.043  10.735   7.389
 3973POPC   NC351995  31.467  40.479   5.308
 3973POPC   PO451996  31.641  39.924   5.354
 3973POPC   GL151997  31.744  39.973   5.773
 3973POPC   GL251998  31.712  40.348   5.745
 3973POPC   C1A51999  31.794  39.828   6.240
 3973POPC   D2A52000  31.599  39.875   6.675
 3973POPC   C3A52001  31.539  39.816   7.127
 3973POPC   C4A52002  31.143  39.821   7.353
 3973POPC   C1B52003  31.530  40.273   6.146
 3973POPC   C2B52004  31.477  40.364   6.586
 3973POPC   C3B52005  31.287  40.223   6.966
 3973POPC   C4B52006  31.404  40.280   7.388
 3974POPC   NC352007  18.923  37.553   5.497
 3974POPC   PO452008  19.078  38.184   5.285
 3974POPC   GL152009  19.218  37.941   5.726
 3974POPC   GL252010  19.365  37.564   5.755
 3974POPC   C1A52011  19.067  37.723   6.139
 3974POPC   D2A52012  18.914  37.566   6.536
 3974POPC   C3A52013  19.126  37.638   6.896
 3974POPC   C4A52014  19.043  37.702   7.286
 3974POPC   C1B52015  19.343  37.282   6.125
 3974POPC   C2B52016  19.384  37.359   6.566
 3974POPC   C3B52017  19.431  37.273   7.036
 3974POPC   C4B52018  19.149  37.204   7.395
 3975POPC   NC352019  22.880  11.668   5.379
 3975POPC   PO452020  23.347  11.180   5.510
 3975POPC   GL152021  23.162  11.450   5.856
 3975POPC   GL252022  22.783  11.506   5.860
 3975POPC   C1A52023  22.978  11.333   6.295
 3975POPC   D2A52024  22.611  11.507   6.511
 3975POPC   C3A52025  22.687  11.420   6.925
 3975POPC   C4A52026  22.970  11.297   7.244
 3975POPC   C1B52027  22.855  11.799   6.160
 3975POPC   C2B52028  23.092  11.804   6.519
 3975POPC   C3B52029  23.204  11.581   6.875
 3975POPC   C4B52030  23.370  11.618   7.307
 3976POPC   NC352031  32.992  36.053   5.119
 3976POPC   PO452032  33.379  36.418   5.510
 3976POPC   GL152033  33.327  36.034   5.750
 3976POPC   GL252034  32.987  35.938   5.904
 3976POPC   C1A52035  33.398  35.995   6.181
 3976POPC   D2A52036  33.174  35.870   6.555
 3976POPC   C3A52037  33.204  36.085   6.941
 3976POPC   C4A52038  32.988  35.979   7.316
 3976POPC   C1B52039  32.920  36.235   6.259
 3976POPC   C2B52040  32.820  36.409   6.678
 3976POPC   C3B52041  32.861  36.436   7.137
 3976POPC   C4B52042  32.589  36.373   7.482
 3977POPC   NC352043  31.836   7.260   5.399
 3977POPC   PO452044  32.381   7.796   5.379
 3977POPC   GL152045  32.262   7.511   5.731
 3977POPC   GL252046  31.945   7.444   5.858
 3977POPC   C1A52047  32.378   7.299   6.126
 3977POPC   D2A52048  32.542   7.113   6.488
 3977POPC   C3A52049  32.401   7.290   6.836
 3977POPC   C4A52050  32.363   7.316   7.257
 3977POPC   C1B52051  31.899   7.120   6.194
 3977POPC   C2B52052  32.014   7.044   6.627
 3977POPC   C3B52053  31.910   7.275   7.023
 3977POPC   C4B52054  31.910   7.463   7.434
 3978POPC   NC352055  35.759   1.333   5.387
 3978POPC   PO452056  35.129   1.310   5.435
 3978POPC   GL152057  35.362   1.444   5.767
 3978POPC   GL252058  35.125   1.310   5.972
 3978POPC   C1A52059  35.635   1.351   6.134
 3978POPC   D2A52060  35.643   1.479   6.582
 3978POPC   C3A52061  35.408   1.239   6.908
 3978POPC   C4A52062  35.492   1.249   7.357
 3978POPC   C1B52063  35.194   1.273   6.407
 3978POPC   C2B52064  35.128   0.919   6.607
 3978POPC   C3B52065  35.108   0.729   6.927
 3978POPC   C4B52066  35.133   0.910   7.251
 3979POPC   NC352067  17.036  27.001   5.399
 3979POPC   PO452068  16.484  26.554   5.344
 3979POPC   GL152069  16.650  26.828   5.724
 3979POPC   GL252070  17.001  26.844   5.861
 3979POPC   C1A52071  16.599  26.893   6.184
 3979POPC   D2A52072  16.401  26.655   6.498
 3979POPC   C3A52073  16.459  26.699   6.942
 3979POPC   C4A52074  16.563  26.832   7.347
 3979POPC   C1B52075  17.189  26.805   6.200
 3979POPC   C2B52076  16.993  26.817   6.551
 3979POPC   C3B52077  17.119  26.648   6.891
 3979POPC   C4B52078  17.035  26.737   7.269
 3980POPC   NC352079   1.407  44.192   5.500
 3980POPC   PO452080   1.339  43.483   5.313
 3980POPC   GL152081   1.500  43.720   5.682
 3980POPC   GL252082   1.207  43.895   5.885
 3980POPC   C1A52083   1.672  43.827   6.106
 3980POPC   D2A52084   1.421  44.009   6.439
 3980POPC   C3A52085   1.455  43.862   6.859
 3980POPC   C4A52086   1.640  43.899   7.243
 3980POPC   C1B52087   0.918  43.839   6.278
 3980POPC   C2B52088   0.851  43.627   6.688
 3980POPC   C3B52089   0.996  43.724   7.098
 3980POPC   C4B52090   1.170  44.136   7.272
 3981POPC   NC352091  24.707  27.690   5.503
 3981POPC   PO452092  24.141  27.905   5.308
 3981POPC   GL152093  24.295  27.598   5.809
 3981POPC   GL252094  24.675  27.645   5.991
 3981POPC   C1A52095  24.316  27.596   6.330
 3981POPC   D2A52096  24.690  27.617   6.645
 3981POPC   C3A52097  24.658  27.664   7.113
 3981POPC   C4A52098  24.376  27.830   7.431
 3981POPC   C1B52099  24.639  27.246   6.137
 3981POPC   C2B52100  24.576  27.126   6.548
 3981POPC   C3B52101  24.766  27.182   6.936
 3981POPC   C4B52102  24.613  27.190   7.327
 3982POPC   NC352103   1.309  42.377   5.273
 3982POPC   PO452104   0.978  41.921   5.583
 3982POPC   GL152105   1.196  42.128   5.924
 3982POPC   GL252106   1.500  42.307   5.779
 3982POPC   C1A52107   1.117  42.264   6.376
 3982POPC   D2A52108   1.133  42.056   6.797
 3982POPC   C3A52109   0.867  42.280   7.091
 3982POPC   C4A52110   0.748  42.723   7.059
 3982POPC   C1B52111   1.509  42.528   6.183
 3982POPC   C2B52112   1.550  42.414   6.625
 3982POPC   C3B52113   1.419  42.444   7.066
 3982POPC   C4B52114   1.492  42.432   7.511
 3983POPC   NC352115  44.841   3.179   5.486
 3983POPC   PO452116  44.864   3.807   5.445
 3983POPC   GL152117  44.589   3.629   5.755
 3983POPC   GL252118  44.362   3.349   5.661
 3983POPC   C1A52119  44.597   3.770   6.188
 3983POPC   D2A52120  44.546   4.034   6.544
 3983POPC   C3A52121  44.577   3.775   6.893
 3983POPC   C4A52122  44.833   3.762   7.232
 3983POPC   C1B52123  44.236   3.426   6.094
 3983POPC   C2B52124  44.223   3.585   6.526
 3983POPC   C3B52125  44.217   3.399   6.932
 3983POPC   C4B52126  44.535   3.320   7.235
 3984POPC   NC352127  30.562  44.255   5.415
 3984POPC   PO452128  30.874  43.667   5.401
 3984POPC   GL152129  30.691  43.881   5.750
 3984POPC   GL252130  30.915  44.186   5.775
 3984POPC   C1A52131  30.542  43.843   6.164
 3984POPC   D2A52132  30.764  43.687   6.511
 3984POPC   C3A52133  30.711  43.881   6.885
 3984POPC   C4A52134  30.519  43.759   7.226
 3984POPC   C1B52135  31.032  43.968   6.142
 3984POPC   C2B52136  30.997  44.150   6.524
 3984POPC   C3B52137  31.187  44.067   6.876
 3984POPC   C4B52138  31.042  43.917   7.275
 3985POPC   NC352139   2.254  19.645   5.420
 3985POPC   PO452140   1.865  20.121   5.247
 3985POPC   GL152141   1.975  20.037   5.690
 3985POPC   GL252142   2.266  20.147   5.867
 3985POPC   C1A52143   1.760  20.004   6.120
 3985POPC   D2A52144   1.710  19.967   6.594
 3985POPC   C3A52145   1.855  19.609   6.865
 3985POPC   C4A52146   1.712  19.508   7.257
 3985POPC   C1B52147   2.235  20.046   6.323
 3985POPC   C2B52148   2.256  19.913   6.764
 3985POPC   C3B52149   2.198  20.063   7.188
 3985POPC   C4B52150   2.308  20.214   7.633
 3986POPC   NC352151   8.805  33.135   5.268
 3986POPC   PO452152   9.359  32.791   5.471
 3986POPC   GL152153   9.001  32.977   5.762
 3986POPC   GL252154   8.777  33.303   5.740
 3986POPC   C1A52155   8.982  32.878   6.222
 3986POPC   D2A52156   8.690  32.828   6.589
 3986POPC   C3A52157   8.874  32.970   7.008
 3986POPC   C4A52158   8.934  33.291   7.347
 3986POPC   C1B52159   8.604  33.183   6.129
 3986POPC   C2B52160   8.822  33.304   6.487
 3986POPC   C3B52161   8.786  33.458   6.887
 3986POPC   C4B52162   8.467  33.242   7.169
 3987POPC   NC352163  31.432  14.877   5.517
 3987POPC   PO452164  31.860  15.500   5.365
 3987POPC   GL152165  31.670  15.324   5.753
 3987POPC   GL252166  31.823  15.023   5.817
 3987POPC   C1A52167  31.445  15.239   6.168
 3987POPC   D2A52168  31.241  15.088   6.554
 3987POPC   C3A52169  31.295  15.296   6.951
 3987POPC   C4A52170  31.027  15.266   7.321
 3987POPC   C1B52171  31.709  14.796   6.171
 3987POPC   C2B52172  31.716  14.921   6.566
 3987POPC   C3B52173  31.492  14.841   6.946
 3987POPC   C4B52174  31.529  15.056   7.335
 3988POPC   NC352175  25.751  36.394   5.104
 3988POPC   PO452176  26.072  36.882   5.520
 3988POPC   GL152177  26.133  36.929   5.922
 3988POPC   GL252178  26.059  36.576   5.979
 3988POPC   C1A52179  26.265  36.860   6.335
 3988POPC   D2A52180  26.061  36.859   6.721
 3988POPC   C3A52181  26.285  36.613   7.002
 3988POPC   C4A52182  26.441  36.801   7.359
 3988POPC   C1B52183  25.770  36.745   6.277
 3988POPC   C2B52184  25.550  36.837   6.647
 3988POPC   C3B52185  25.684  37.114   6.966
 3988POPC   C4B52186  25.933  36.891   7.254
 3989POPC   NC352187  11.402  25.227   5.590
 3989POPC   PO452188  10.899  24.710   5.659
 3989POPC   GL152189  11.085  24.962   5.980
 3989POPC   GL252190  11.157  25.323   6.013
 3989POPC   C1A52191  11.463  24.948   6.222
 3989POPC   D2A52192  11.570  25.104   6.598
 3989POPC   C3A52193  11.381  24.993   6.983
 3989POPC   C4A52194  11.561  25.209   7.337
 3989POPC   C1B52195  11.517  25.482   6.226
 3989POPC   C2B52196  11.422  25.616   6.624
 3989POPC   C3B52197  11.280  25.496   7.022
 3989POPC   C4B52198  11.196  25.534   7.465
 3990POPC   NC352199  13.446  12.659   5.415
 3990POPC   PO452200  12.894  13.028   5.305
 3990POPC   GL152201  12.816  13.055   5.754
 3990POPC   GL252202  13.108  12.853   5.759
 3990POPC   C1A52203  12.847  13.007   6.233
 3990POPC   D2A52204  12.841  13.112   6.699
 3990POPC   C3A52205  12.656  12.807   7.013
 3990POPC   C4A52206  12.564  12.901   7.475
 3990POPC   C1B52207  13.035  12.553   6.105
 3990POPC   C2B52208  12.958  12.618   6.561
 3990POPC   C3B52209  13.157  12.745   6.942
 3990POPC   C4B52210  13.345  12.440   7.222
 3991POPC   NC352211  12.564  22.396   5.488
 3991POPC   PO452212  12.844  21.792   5.343
 3991POPC   GL152213  12.714  22.005   5.775
 3991POPC   GL252214  13.030  22.112   5.835
 3991POPC   C1A52215  12.790  22.356   6.179
 3991POPC   D2A52216  12.999  22.443   6.597
 3991POPC   C3A52217  12.707  22.444   6.945
 3991POPC   C4A52218  12.592  22.126   7.225
 3991POPC   C1B52219  12.871  21.856   6.244
 3991POPC   C2B52220  12.745  21.978   6.696
 3991POPC   C3B52221  13.060  22.091   7.043
 3991POPC   C4B52222  13.101  22.442   7.286
 3992POPC   NC352223   3.803  16.209   5.422
 3992POPC   PO452224   3.639  15.541   5.480
 3992POPC   GL152225   3.582  15.844   5.808
 3992POPC   GL252226   3.647  16.212   5.925
 3992POPC   C1A52227   3.602  15.711   6.213
 3992POPC   D2A52228   3.446  15.836   6.618
 3992POPC   C3A52229   3.760  15.845   6.952
 3992POPC   C4A52230   3.776  15.750   7.401
 3992POPC   C1B52231   3.805  16.142   6.372
 3992POPC   C2B52232   3.714  16.320   6.799
 3992POPC   C3B52233   3.566  16.226   7.269
 3992POPC   C4B52234   3.732  16.192   7.711
 3993POPC   NC352235  13.680  37.261   5.188
 3993POPC   PO452236  13.743  36.680   5.402
 3993POPC   GL152237  13.632  36.850   5.779
 3993POPC   GL252238  13.442  37.095   5.671
 3993POPC   C1A52239  13.604  36.689   6.184
 3993POPC   D2A52240  13.910  36.649   6.479
 3993POPC   C3A52241  13.778  36.635   6.862
 3993POPC   C4A52242  13.638  36.934   7.102
 3993POPC   C1B52243  13.422  37.165   6.136
 3993POPC   C2B52244  13.563  37.062   6.583
 3993POPC   C3B52245  13.372  37.320   6.952
 3993POPC   C4B52246  13.243  37.148   7.326
 3994POPC   NC352247  24.030  14.565   5.370
 3994POPC   PO452248  23.416  14.545   5.360
 3994POPC   GL152249  23.655  14.554   5.727
 3994POPC   GL252250  23.755  14.212   5.733
 3994POPC   C1A52251  23.626  14.451   6.170
 3994POPC   D2A52252  23.443  14.138   6.416
 3994POPC   C3A52253  23.386  14.287   6.841
 3994POPC   C4A52254  23.208  14.048   7.182
 3994POPC   C1B52255  23.988  14.107   6.145
 3994POPC   C2B52256  23.915  14.248   6.580
 3994POPC   C3B52257  23.913  14.482   6.952
 3994POPC   C4B52258  23.591  14.546   7.235
 3995POPC   NC352259  31.924  36.517   5.430
 3995POPC   PO452260  31.368  36.070   5.204
 3995POPC   GL152261  31.352  36.189   5.669
 3995POPC   GL252262  31.605  36.423   5.828
 3995POPC   C1A52263  31.185  36.266   6.102
 3995POPC   D2A52264  31.459  36.227   6.454
 3995POPC   C3A52265  31.405  36.425   6.845
 3995POPC   C4A52266  31.123  36.440   7.170
 3995POPC   C1B52267  31.722  36.020   6.039
 3995POPC   C2B52268  31.742  35.799   6.456
 3995POPC   C3B52269  31.667  35.961   6.871
 3995POPC   C4B52270  31.594  36.206   7.275
 3996POPC   NC352271  26.161   6.737   5.263
 3996POPC   PO452272  26.145   6.162   5.382
 3996POPC   GL152273  26.305   6.489   5.731
 3996POPC   GL252274  26.233   6.858   5.755
 3996POPC   C1A52275  26.179   6.508   6.219
 3996POPC   D2A52276  26.121   6.412   6.713
 3996POPC   C3A52277  26.040   6.640   7.141
 3996POPC   C4A52278  25.717   6.670   7.541
 3996POPC   C1B52279  25.959   6.952   6.086
 3996POPC   C2B52280  26.094   6.950   6.505
 3996POPC   C3B52281  25.931   7.106   6.851
 3996POPC   C4B52282  25.759   7.064   7.244
 3997POPC   NC352283  14.763  19.748   5.537
 3997POPC   PO452284  14.109  19.664   5.408
 3997POPC   GL152285  14.275  19.799   5.788
 3997POPC   GL252286  14.311  19.476   5.858
 3997POPC   C1A52287  14.533  19.779   6.193
 3997POPC   D2A52288  14.661  19.972   6.591
 3997POPC   C3A52289  14.555  19.858   7.027
 3997POPC   C4A52290  14.580  19.864   7.486
 3997POPC   C1B52291  14.059  19.602   6.226
 3997POPC   C2B52292  14.205  19.634   6.648
 3997POPC   C3B52293  14.058  19.719   7.053
 3997POPC   C4B52294  14.239  19.522   7.395
 3998POPC   NC352295  10.063  41.689   5.488
 3998POPC   PO452296   9.434  41.418   5.506
 3998POPC   GL152297   9.711  41.585   5.857
 3998POPC   GL252298  10.006  41.360   5.880
 3998POPC   C1A52299   9.917  41.731   6.247
 3998POPC   D2A52300  10.008  41.771   6.708
 3998POPC   C3A52301   9.664  41.580   6.936
 3998POPC   C4A52302   9.578  41.293   7.223
 3998POPC   C1B52303  10.170  41.242   6.282
 3998POPC   C2B52304   9.981  41.244   6.675
 3998POPC   C3B52305  10.087  41.343   7.104
 3998POPC   C4B52306  10.185  41.734   7.198
 3999POPC   NC352307  43.490  25.697   5.442
 3999POPC   PO452308  43.942  25.087   5.439
 3999POPC   GL152309  43.736  25.376   5.757
 3999POPC   GL252310  43.906  25.716   5.792
 3999POPC   C1A52311  43.670  25.471   6.187
 3999POPC   D2A52312  43.880  25.250   6.516
 3999POPC   C3A52313  43.724  25.164   6.928
 3999POPC   C4A52314  43.495  25.010   7.281
 3999POPC   C1B52315  44.199  25.467   6.041
 3999POPC   C2B52316  44.387  25.251   6.404
 3999POPC   C3B52317  44.271  25.137   6.836
 3999POPC   C4B52318  44.125  25.469   7.116
 4000POPC   NC352319  22.319   7.350   5.394
 4000POPC   PO452320  21.744   7.314   5.610
 4000POPC   GL152321  22.109   7.481   5.886
 4000POPC   GL252322  22.476   7.602   5.806
 4000POPC   C1A52323  22.363   7.271   6.264
 4000POPC   D2A52324  22.379   7.061   6.709
 4000POPC   C3A52325  22.129   7.226   7.090
 4000POPC   C4A52326  21.874   7.589   7.165
 4000POPC   C1B52327  22.373   7.785   6.215
 4000POPC   C2B52328  22.559   7.658   6.604
 4000POPC   C3B52329  22.563   7.458   6.986
 4000POPC   C4B52330  22.512   7.636   7.394
 4001POPC   NC352331   7.491  35.627   5.257
 4001POPC   PO452332   7.704  35.071   5.522
 4001POPC   GL152333   7.554  35.344   5.904
 4001POPC   GL252334   7.289  35.628   5.903
 4001POPC   C1A52335   7.224  35.243   6.243
 4001POPC   D2A52336   7.406  35.243   6.661
 4001POPC   C3A52337   7.202  35.272   7.065
 4001POPC   C4A52338   7.486  35.219   7.469
 4001POPC   C1B52339   7.475  35.667   6.293
 4001POPC   C2B52340   7.385  35.818   6.658
 4001POPC   C3B52341   7.463  35.698   7.068
 4001POPC   C4B52342   7.393  35.712   7.497
 4002POPC   NC352343  20.716  35.106   5.388
 4002POPC   PO452344  20.458  35.639   5.759
 4002POPC   GL152345  20.429  35.235   5.882
 4002POPC   GL252346  20.791  35.188   5.881
 4002POPC   C1A52347  20.501  35.284   6.313
 4002POPC   D2A52348  20.724  35.592   6.570
 4002POPC   C3A52349  20.572  35.565   6.996
 4002POPC   C4A52350  20.297  35.229   7.194
 4002POPC   C1B52351  20.945  35.001   6.254
 4002POPC   C2B52352  20.799  35.084   6.672
 4002POPC   C3B52353  20.788  35.073   7.080
 4002POPC   C4B52354  20.937  34.926   7.466
 4003POPC   NC352355   3.192  27.355   5.415
 4003POPC   PO452356   2.489  27.364   5.404
 4003POPC   GL152357   2.668  27.620   5.778
 4003POPC   GL252358   3.033  27.557   5.840
 4003POPC   C1A52359   2.766  27.671   6.247
 4003POPC   D2A52360   2.726  27.428   6.604
 4003POPC   C3A52361   2.522  27.588   6.913
 4003POPC   C4A52362   2.549  27.496   7.286
 4003POPC   C1B52363   3.279  27.749   6.159
 4003POPC   C2B52364   3.187  27.643   6.575
 4003POPC   C3B52365   3.051  27.547   7.004
 4003POPC   C4B52366   3.027  27.361   7.416
 4004POPC   NC352367  35.736  34.233   5.489
 4004POPC   PO452368  36.144  34.725   5.216
 4004POPC   GL152369  36.081  34.696   5.680
 4004POPC   GL252370  35.736  34.655   5.805
 4004POPC   C1A52371  36.121  34.439   6.078
 4004POPC   D2A52372  36.245  34.231   6.460
 4004POPC   C3A52373  36.165  34.489   6.808
 4004POPC   C4A52374  36.163  34.435   7.240
 4004POPC   C1B52375  35.889  34.893   6.163
 4004POPC   C2B52376  35.873  35.013   6.609
 4004POPC   C3B52377  35.729  34.753   6.946
 4004POPC   C4B52378  35.761  34.731   7.379
 4005POPC   NC352379  23.620  24.071   5.459
 4005POPC   PO452380  24.079  23.519   5.428
 4005POPC   GL152381  23.766  23.586   5.750
 4005POPC   GL252382  23.938  23.906   5.838
 4005POPC   C1A52383  23.546  23.774   6.141
 4005POPC   D2A52384  23.564  23.901   6.557
 4005POPC   C3A52385  23.441  23.614   6.888
 4005POPC   C4A52386  23.640  23.618   7.293
 4005POPC   C1B52387  24.028  23.590   6.166
 4005POPC   C2B52388  23.827  23.474   6.527
 4005POPC   C3B52389  23.933  23.718   6.896
 4005POPC   C4B52390  24.139  23.528   7.243
 4006POPC   NC352391  22.978  25.678   5.567
 4006POPC   PO452392  23.201  25.103   5.429
 4006POPC   GL152393  23.012  25.220   5.802
 4006POPC   GL252394  23.277  25.437   5.941
 4006POPC   C1A52395  22.816  25.449   6.158
 4006POPC   D2A52396  22.991  25.547   6.565
 4006POPC   C3A52397  22.790  25.343   6.947
 4006POPC   C4A52398  22.729  25.518   7.373
 4006POPC   C1B52399  23.163  25.100   6.275
 4006POPC   C2B52400  23.193  25.076   6.719
 4006POPC   C3B52401  23.273  25.435   6.999
 4006POPC   C4B52402  23.202  25.332   7.416
 4007POPC   NC352403  13.659  44.662   5.399
 4007POPC   PO452404  13.178  44.423   5.320
 4007POPC   GL152405  13.428  44.412   5.769
 4007POPC   GL252406  13.466  44.779   5.869
 4007POPC   C1A52407  13.727  44.283   6.174
 4007POPC   D2A52408  13.795  44.097   6.622
 4007POPC   C3A52409  13.848  44.335   7.045
 4007POPC   C4A52410  13.689  44.302   7.489
 4007POPC   C1B52411  13.338  44.596   6.257
 4007POPC   C2B52412  13.556  44.557   6.645
 4007POPC   C3B52413  13.485  44.699   7.063
 4007POPC   C4B52414  13.663  44.867   7.445
 4008POPC   NC352415  34.615  16.622   5.344
 4008POPC   PO452416  34.539  17.242   5.329
 4008POPC   GL152417  34.600  17.004   5.724
 4008POPC   GL252418  34.270  16.846   5.642
 4008POPC   C1A52419  34.712  17.020   6.200
 4008POPC   D2A52420  34.817  17.141   6.655
 4008POPC   C3A52421  34.667  16.847   6.983
 4008POPC   C4A52422  34.664  16.887   7.433
 4008POPC   C1B52423  34.412  16.616   6.033
 4008POPC   C2B52424  34.464  16.605   6.516
 4008POPC   C3B52425  34.237  16.573   6.944
 4008POPC   C4B52426  34.230  16.597   7.454
 4009POPC   NC352427  39.949  12.212   5.064
 4009POPC   PO452428  39.924  11.672   5.548
 4009POPC   GL152429  39.993  11.932   5.919
 4009POPC   GL252430  40.138  12.270   5.868
 4009POPC   C1A52431  39.978  12.028   6.358
 4009POPC   D2A52432  39.835  12.103   6.764
 4009POPC   C3A52433  39.856  11.937   7.150
 4009POPC   C4A52434  39.792  12.284   7.412
 4009POPC   C1B52435  40.339  12.394   6.224
 4009POPC   C2B52436  40.266  12.679   6.555
 4009POPC   C3B52437  40.380  12.561   6.936
 4009POPC   C4B52438  40.289  12.185   7.177
 4010POPC   NC352439  30.185   3.124   5.271
 4010POPC   PO452440  29.752   3.696   5.472
 4010POPC   GL152441  29.935   3.482   5.820
 4010POPC   GL252442  29.607   3.384   5.981
 4010POPC   C1A52443  30.065   3.553   6.258
 4010POPC   D2A52444  29.778   3.454   6.557
 4010POPC   C3A52445  30.002   3.227   6.846
 4010POPC   C4A52446  29.910   3.252   7.230
 4010POPC   C1B52447  29.647   3.811   6.129
 4010POPC   C2B52448  29.802   3.975   6.501
 4010POPC   C3B52449  29.904   3.821   6.933
 4010POPC   C4B52450  29.787   3.796   7.384
 4011POPC   NC352451  23.130  36.571   5.493
 4011POPC   PO452452  22.984  35.870   5.316
 4011POPC   GL152453  23.002  36.067   5.757
 4011POPC   GL252454  22.677  36.185   5.910
 4011POPC   C1A52455  23.107  36.277   6.185
 4011POPC   D2A52456  23.190  36.070   6.609
 4011POPC   C3A52457  23.171  36.209   7.058
 4011POPC   C4A52458  23.140  35.877   7.397
 4011POPC   C1B52459  22.578  36.417   6.283
 4011POPC   C2B52460  22.537  36.473   6.735
 4011POPC   C3B52461  22.527  36.379   7.156
 4011POPC   C4B52462  22.812  36.245   7.451
 4012POPC   NC352463  13.503  22.570   5.635
 4012POPC   PO452464  13.909  23.097   5.515
 4012POPC   GL152465  13.576  23.067   5.844
 4012POPC   GL252466  13.218  23.181   5.742
 4012POPC   C1A52467  13.530  22.834   6.262
 4012POPC   D2A52468  13.717  22.601   6.616
 4012POPC   C3A52469  13.873  22.887   6.908
 4012POPC   C4A52470  13.960  22.881   7.350
 4012POPC   C1B52471  13.263  23.272   6.195
 4012POPC   C2B52472  13.496  23.230   6.627
 4012POPC   C3B52473  13.320  23.328   7.036
 4012POPC   C4B52474  13.423  23.057   7.323
 4013POPC   NC352475  33.566   2.977   5.232
 4013POPC   PO452476  32.973   2.618   5.227
 4013POPC   GL152477  33.011   2.750   5.677
 4013POPC   GL252478  33.152   2.452   5.798
 4013POPC   C1A52479  33.142   2.960   6.103
 4013POPC   D2A52480  33.340   3.052   6.527
 4013POPC   C3A52481  33.115   2.965   6.885
 4013POPC   C4A52482  33.202   3.109   7.280
 4013POPC   C1B52483  32.943   2.486   6.198
 4013POPC   C2B52484  32.986   2.515   6.651
 4013POPC   C3B52485  32.758   2.391   6.984
 4013POPC   C4B52486  32.871   2.334   7.407
 4014POPC   NC352487  25.648   1.776   5.413
 4014POPC   PO452488  25.585   1.169   5.467
 4014POPC   GL152489  25.318   1.172   5.801
 4014POPC   GL252490  25.267   1.517   5.803
 4014POPC   C1A52491  25.187   1.164   6.229
 4014POPC   D2A52492  25.234   1.402   6.626
 4014POPC   C3A52493  25.401   1.171   6.962
 4014POPC   C4A52494  25.079   0.931   7.132
 4014POPC   C1B52495  25.514   1.577   6.175
 4014POPC   C2B52496  25.742   1.509   6.577
 4014POPC   C3B52497  25.641   1.653   7.002
 4014POPC   C4B52498  25.207   1.725   7.123
 4015POPC   NC352499  14.992  29.862   5.217
 4015POPC   PO452500  15.517  29.574   5.664
 4015POPC   GL152501  15.131  29.816   5.734
 4015POPC   GL252502  14.874  29.579   5.873
 4015POPC   C1A52503  14.972  30.061   6.074
 4015POPC   D2A52504  14.907  29.971   6.514
 4015POPC   C3A52505  15.045  30.169   6.918
 4015POPC   C4A52506  15.092  30.244   7.379
 4015POPC   C1B52507  15.164  29.576   6.238
 4015POPC   C2B52508  15.247  29.594   6.685
 4015POPC   C3B52509  15.039  29.656   7.062
 4015POPC   C4B52510  15.368  29.829   7.306
 4016POPC   NC352511  20.406  44.488   5.058
 4016POPC   PO452512  20.803  44.876   5.540
 4016POPC   GL152513  20.559  44.699   5.849
 4016POPC   GL252514  20.867  44.656   6.001
 4016POPC   C1A52515  20.465  44.525   6.282
 4016POPC   D2A52516  20.893  44.603   6.500
 4016POPC   C3A52517  20.906  44.589   6.909
 4016POPC   C4A52518  20.524  44.540   7.092
 4016POPC   C1B52519  20.626  44.989   6.264
 4016POPC   C2B52520  20.494  44.886   6.710
 4016POPC   C3B52521  20.310  44.982   7.159
 4016POPC   C4B52522  20.200   0.143   7.584
 4017POPC   NC352523  17.477   1.871   5.432
 4017POPC   PO452524  17.810   2.307   5.770
 4017POPC   GL152525  17.596   1.898   5.955
 4017POPC   GL252526  17.237   1.859   5.908
 4017POPC   C1A52527  17.502   1.753   6.395
 4017POPC   D2A52528  17.712   1.917   6.761
 4017POPC   C3A52529  17.682   2.195   7.102
 4017POPC   C4A52530  17.708   1.891   7.423
 4017POPC   C1B52531  17.212   2.158   6.269
 4017POPC   C2B52532  17.269   2.177   6.732
 4017POPC   C3B52533  17.282   1.892   7.120
 4017POPC   C4B52534  17.242   1.972   7.598
 4018POPC   NC352535   9.545  35.291   5.248
 4018POPC   PO452536  10.128  35.632   5.361
 4018POPC   GL152537   9.873  35.345   5.648
 4018POPC   GL252538  10.079  35.150   5.894
 4018POPC   C1A52539   9.606  35.292   6.013
 4018POPC   D2A52540   9.600  35.424   6.434
 4018POPC   C3A52541   9.451  35.263   6.824
 4018POPC   C4A52542   9.667  35.425   7.168
 4018POPC   C1B52543  10.213  35.039   6.292
 4018POPC   C2B52544   9.947  35.087   6.687
 4018POPC   C3B52545   9.946  34.984   7.145
 4018POPC   C4B52546  10.199  34.856   7.540
 4019POPC   NC352547  16.410   3.174   5.531
 4019POPC   PO452548  17.008   2.915   5.452
 4019POPC   GL152549  16.749   2.936   5.833
 4019POPC   GL252550  16.544   2.659   5.921
 4019POPC   C1A52551  16.777   2.991   6.292
 4019POPC   D2A52552  16.931   3.175   6.689
 4019POPC   C3A52553  16.690   3.036   7.064
 4019POPC   C4A52554  16.711   2.848   7.487
 4019POPC   C1B52555  16.386   2.679   6.317
 4019POPC   C2B52556  16.605   2.708   6.692
 4019POPC   C3B52557  16.668   2.472   7.057
 4019POPC   C4B52558  16.537   2.375   7.449
 4020POPC   NC352559  41.567   0.776   5.356
 4020POPC   PO452560  41.669   0.135   5.345
 4020POPC   GL152561  41.467   0.326   5.682
 4020POPC   GL252562  41.236   0.073   5.768
 4020POPC   C1A52563  41.587   0.478   6.087
 4020POPC   D2A52564  41.387   0.569   6.508
 4020POPC   C3A52565  41.689   0.653   6.830
 4020POPC   C4A52566  41.917   0.615   7.231
 4020POPC   C1B52567  41.203   0.171   6.161
 4020POPC   C2B52568  41.441   0.069   6.477
 4020POPC   C3B52569  41.580   0.134   6.858
 4020POPC   C4B52570  41.490   0.343   7.190
 4021POPC   NC352571  40.657  37.183   5.444
 4021POPC   PO452572  40.763  36.588   5.399
 4021POPC   GL152573  40.981  36.801   5.760
 4021POPC   GL252574  40.708  36.979   5.929
 4021POPC   C1A52575  41.073  36.745   6.227
 4021POPC   D2A52576  41.031  36.839   6.694
 4021POPC   C3A52577  40.802  36.584   6.951
 4021POPC   C4A52578  40.389  36.645   7.158
 4021POPC   C1B52579  40.709  37.225   6.321
 4021POPC   C2B52580  40.812  37.289   6.767
 4021POPC   C3B52581  40.743  37.041   7.145
 4021POPC   C4B52582  40.665  37.017   7.604
 4022POPC   NC352583  16.747  14.851   5.583
 4022POPC   PO452584  16.792  14.312   5.323
 4022POPC   GL152585  16.591  14.325   5.724
 4022POPC   GL252586  16.335  14.066   5.737
 4022POPC   C1A52587  16.715  14.473   6.140
 4022POPC   D2A52588  16.960  14.445   6.518
 4022POPC   C3A52589  16.698  14.584   6.847
 4022POPC   C4A52590  16.755  14.458   7.240
 4022POPC   C1B52591  16.302  13.997   6.158
 4022POPC   C2B52592  16.497  14.180   6.524
 4022POPC   C3B52593  16.647  14.069   6.897
 4022POPC   C4B52594  16.427  14.059   7.249
 4023POPC   NC352595   3.801  16.957   5.410
 4023POPC   PO452596   3.415  16.453   5.355
 4023POPC   GL152597   3.480  16.713   5.730
 4023POPC   GL252598   3.829  16.715   5.862
 4023POPC   C1A52599   3.442  16.949   6.112
 4023POPC   D2A52600   3.310  16.754   6.496
 4023POPC   C3A52601   3.351  16.847   6.922
 4023POPC   C4A52602   3.248  16.642   7.239
 4023POPC   C1B52603   3.783  16.640   6.312
 4023POPC   C2B52604   3.805  16.829   6.734
 4023POPC   C3B52605   3.825  16.658   7.170
 4023POPC   C4B52606   3.993  16.645   7.615
 4024POPC   NC352607  34.524  27.852   5.282
 4024POPC   PO452608  34.325  27.470   5.716
 4024POPC   GL152609  34.622  27.381   5.974
 4024POPC   GL252610  34.846  27.598   5.825
 4024POPC   C1A52611  34.509  27.327   6.398
 4024POPC   D2A52612  34.468  27.677   6.671
 4024POPC   C3A52613  34.384  27.505   7.051
 4024POPC   C4A52614  34.202  27.756   7.346
 4024POPC   C1B52615  34.871  27.687   6.300
 4024POPC   C2B52616  34.961  27.388   6.649
 4024POPC   C3B52617  34.899  27.512   7.064
 4024POPC   C4B52618  34.715  27.941   7.176
 4025POPC   NC352619  13.449  42.461   5.253
 4025POPC   PO452620  13.956  42.143   5.519
 4025POPC   GL152621  13.645  42.255   5.795
 4025POPC   GL252622  13.436  42.543   5.746
 4025POPC   C1A52623  13.703  42.208   6.225
 4025POPC   D2A52624  13.477  42.237   6.572
 4025POPC   C3A52625  13.596  42.162   6.996
 4025POPC   C4A52626  13.376  42.075   7.369
 4025POPC   C1B52627  13.493  42.697   6.140
 4025POPC   C2B52628  13.727  42.680   6.506
 4025POPC   C3B52629  13.470  42.665   6.863
 4025POPC   C4B52630  13.581  42.664   7.261
 4026POPC   NC352631   6.261  40.888   5.221
 4026POPC   PO452632   6.718  40.439   5.423
 4026POPC   GL152633   6.437  40.628   5.767
 4026POPC   GL252634   6.084  40.572   5.750
 4026POPC   C1A52635   6.472  40.831   6.193
 4026POPC   D2A52636   6.775  40.912   6.552
 4026POPC   C3A52637   6.717  40.830   6.996
 4026POPC   C4A52638   7.075  40.659   7.225
 4026POPC   C1B52639   6.078  40.509   6.226
 4026POPC   C2B52640   6.386  40.534   6.626
 4026POPC   C3B52641   6.339  40.443   7.050
 4026POPC   C4B52642   6.254  40.780   7.311
 4027POPC   NC352643  21.961  25.197   5.405
 4027POPC   PO452644  22.619  25.513   5.335
 4027POPC   GL152645  22.385  25.351   5.725
 4027POPC   GL252646  22.045  25.528   5.798
 4027POPC   C1A52647  22.320  25.346   6.203
 4027POPC   D2A52648  22.467  25.585   6.596
 4027POPC   C3A52649  22.326  25.503   7.032
 4027POPC   C4A52650  22.384  25.100   7.231
 4027POPC   C1B52651  21.806  25.366   6.156
 4027POPC   C2B52652  21.967  25.182   6.551
 4027POPC   C3B52653  21.904  25.195   7.001
 4027POPC   C4B52654  21.593  25.265   7.296
 4028POPC   NC352655   9.353  20.557   5.553
 4028POPC   PO452656   9.921  20.436   5.217
 4028POPC   GL152657   9.893  20.651   5.641
 4028POPC   GL252658   9.751  20.377   5.820
 4028POPC   C1A52659   9.881  20.734   6.145
 4028POPC   D2A52660   9.740  20.563   6.575
 4028POPC   C3A52661   9.937  20.586   7.000
 4028POPC   C4A52662   9.938  20.895   7.353
 4028POPC   C1B52663   9.466  20.304   6.194
 4028POPC   C2B52664   9.468  20.136   6.634
 4028POPC   C3B52665   9.355  20.314   7.032
 4028POPC   C4B52666   9.576  20.480   7.392
 4029POPC   NC352667   0.347  35.062   5.395
 4029POPC   PO452668   0.360  34.334   5.400
 4029POPC   GL152669   0.244  34.439   5.818
 4029POPC   GL252670   0.412  34.749   5.803
 4029POPC   C1A52671   0.404  34.455   6.250
 4029POPC   D2A52672   0.298  34.483   6.669
 4029POPC   C3A52673   0.605  34.347   6.992
 4029POPC   C4A52674   0.401  34.407   7.404
 4029POPC   C1B52675   0.314  34.967   6.203
 4029POPC   C2B52676   0.481  34.986   6.630
 4029POPC   C3B52677   0.437  34.813   7.046
 4029POPC   C4B52678   0.819  34.705   7.334
 4030POPC   NC352679  36.755  12.535   5.489
 4030POPC   PO452680  37.125  13.126   5.487
 4030POPC   GL152681  37.046  12.917   5.864
 4030POPC   GL252682  37.207  12.613   5.812
 4030POPC   C1A52683  36.867  12.692   6.224
 4030POPC   D2A52684  36.624  12.749   6.596
 4030POPC   C3A52685  36.877  12.730   6.937
 4030POPC   C4A52686  36.701  12.800   7.278
 4030POPC   C1B52687  37.401  12.585   6.204
 4030POPC   C2B52688  37.371  12.587   6.655
 4030POPC   C3B52689  37.394  12.838   7.020
 4030POPC   C4B52690  37.104  13.128   7.191
 4031POPC   NC352691  38.685  30.951   5.463
 4031POPC   PO452692  38.197  30.417   5.497
 4031POPC   GL152693  38.414  30.613   5.814
 4031POPC   GL252694  38.323  30.998   5.824
 4031POPC   C1A52695  38.601  30.437   6.188
 4031POPC   D2A52696  38.754  30.717   6.439
 4031POPC   C3A52697  38.770  30.704   6.882
 4031POPC   C4A52698  38.571  30.453   7.184
 4031POPC   C1B52699  38.223  30.831   6.245
 4031POPC   C2B52700  38.307  30.827   6.671
 4031POPC   C3B52701  38.154  30.754   7.066
 4031POPC   C4B52702  38.153  31.110   7.305
 4032POPC   NC352703  32.382  12.321   5.199
 4032POPC   PO452704  32.330  12.943   5.407
 4032POPC   GL152705  32.500  12.851   5.768
 4032POPC   GL252706  32.544  12.505   5.706
 4032POPC   C1A52707  32.324  12.962   6.143
 4032POPC   D2A52708  32.053  13.101   6.408
 4032POPC   C3A52709  32.155  12.950   6.801
 4032POPC   C4A52710  32.200  13.091   7.195
 4032POPC   C1B52711  32.372  12.468   6.101
 4032POPC   C2B52712  32.093  12.569   6.442
 4032POPC   C3B52713  32.059  12.435   6.879
 4032POPC   C4B52714  32.239  12.595   7.246
 4033POPC   NC352715  32.320  30.313   5.345
 4033POPC   PO452716  32.180  29.660   5.409
 4033POPC   GL152717  32.330  29.959   5.724
 4033POPC   GL252718  32.622  29.803   5.730
 4033POPC   C1A52719  32.176  30.100   6.135
 4033POPC   D2A52720  32.063  29.837   6.493
 4033POPC   C3A52721  32.178  29.991   6.887
 4033POPC   C4A52722  32.143  29.838   7.310
 4033POPC   C1B52723  32.499  29.708   6.144
 4033POPC   C2B52724  32.572  29.851   6.529
 4033POPC   C3B52725  32.584  29.677   6.929
 4033POPC   C4B52726  32.624  29.761   7.359
 4034POPC   NC352727   4.997  39.711   5.080
 4034POPC   PO452728   5.376  40.230   5.367
 4034POPC   GL152729   5.280  40.072   5.777
 4034POPC   GL252730   5.042  39.783   5.789
 4034POPC   C1A52731   5.085  40.125   6.198
 4034POPC   D2A52732   5.182  39.949   6.581
 4034POPC   C3A52733   5.109  40.162   6.952
 4034POPC   C4A52734   5.239  40.359   7.339
 4034POPC   C1B52735   4.892  39.612   6.205
 4034POPC   C2B52736   4.712  39.723   6.618
 4034POPC   C3B52737   4.968  39.658   6.985
 4034POPC   C4B52738   4.933  39.868   7.365
 4035POPC   NC352739   8.756  38.828   5.432
 4035POPC   PO452740   8.886  38.146   5.419
 4035POPC   GL152741   8.760  38.443   5.773
 4035POPC   GL252742   9.049  38.707   5.832
 4035POPC   C1A52743   8.696  38.436   6.228
 4035POPC   D2A52744   8.915  38.293   6.625
 4035POPC   C3A52745   8.774  38.362   7.052
 4035POPC   C4A52746   9.048  38.444   7.429
 4035POPC   C1B52747   8.929  38.909   6.209
 4035POPC   C2B52748   9.177  38.854   6.583
 4035POPC   C3B52749   9.050  38.794   6.994
 4035POPC   C4B52750   8.616  38.836   7.057
 4036POPC   NC352751  20.109  40.024   5.550
 4036POPC   PO452752  19.529  40.264   5.305
 4036POPC   GL152753  19.582  40.135   5.784
 4036POPC   GL252754  19.739  39.819   5.855
 4036POPC   C1A52755  19.701  40.165   6.259
 4036POPC   D2A52756  19.752  39.822   6.600
 4036POPC   C3A52757  19.671  39.945   7.037
 4036POPC   C4A52758  19.923  40.154   7.359
 4036POPC   C1B52759  20.104  39.874   6.165
 4036POPC   C2B52760  20.179  40.118   6.516
 4036POPC   C3B52761  20.169  39.921   6.899
 4036POPC   C4B52762  20.393  39.916   7.242
 4037POPC   NC352763  10.684  19.534   5.304
 4037POPC   PO452764  10.373  20.054   5.572
 4037POPC   GL152765  10.557  19.793   5.908
 4037POPC   GL252766  10.480  20.062   6.108
 4037POPC   C1A52767  10.769  19.621   6.331
 4037POPC   D2A52768  10.721  19.338   6.725
 4037POPC   C3A52769  10.543  19.562   7.091
 4037POPC   C4A52770  10.820  19.912   7.164
 4037POPC   C1B52771  10.305  19.824   6.402
 4037POPC   C2B52772  10.476  19.949   6.769
 4037POPC   C3B52773  10.288  20.036   7.149
 4037POPC   C4B52774  10.170  19.933   7.535
 4038POPC   NC352775  12.938  28.954   5.423
 4038POPC   PO452776  13.023  29.558   5.186
 4038POPC   GL152777  12.953  29.401   5.700
 4038POPC   GL252778  12.735  29.160   5.850
 4038POPC   C1A52779  13.152  29.158   6.122
 4038POPC   D2A52780  13.234  29.035   6.571
 4038POPC   C3A52781  13.030  29.103   6.974
 4038POPC   C4A52782  12.917  29.237   7.418
 4038POPC   C1B52783  12.655  29.142   6.306
 4038POPC   C2B52784  12.596  29.324   6.705
 4038POPC   C3B52785  12.528  29.176   7.120
 4038POPC   C4B52786  12.487  28.987   7.536
 4039POPC   NC352787  37.645  35.884   5.509
 4039POPC   PO452788  37.982  36.510   5.405
 4039POPC   GL152789  37.617  36.395   5.675
 4039POPC   GL252790  37.809  36.189   5.906
 4039POPC   C1A52791  37.347  36.339   6.083
 4039POPC   D2A52792  37.405  36.466   6.531
 4039POPC   C3A52793  37.442  36.127   6.836
 4039POPC   C4A52794  37.656  36.178   7.230
 4039POPC   C1B52795  37.800  36.184   6.376
 4039POPC   C2B52796  37.902  35.905   6.754
 4039POPC   C3B52797  38.040  35.823   7.203
 4039POPC   C4B52798  37.904  35.937   7.633
 4040POPC   NC352799  10.155   1.138   5.395
 4040POPC   PO452800  10.184   0.553   5.485
 4040POPC   GL152801  10.163   0.898   5.852
 4040POPC   GL252802  10.416   1.196   5.871
 4040POPC   C1A52803  10.245   1.014   6.314
 4040POPC   D2A52804  10.194   1.075   6.754
 4040POPC   C3A52805  10.276   1.372   7.093
 4040POPC   C4A52806  10.471   1.598   7.474
 4040POPC   C1B52807  10.666   1.297   6.298
 4040POPC   C2B52808  10.706   1.149   6.756
 4040POPC   C3B52809  10.787   1.334   7.166
 4040POPC   C4B52810  10.892   1.307   7.601
 4041POPC   NC352811  30.369  13.256   5.610
 4041POPC   PO452812  30.753  12.827   5.250
 4041POPC   GL152813  30.799  12.759   5.727
 4041POPC   GL252814  30.781  13.108   5.870
 4041POPC   C1A52815  30.669  12.669   6.190
 4041POPC   D2A52816  30.655  12.952   6.576
 4041POPC   C3A52817  30.552  12.814   7.008
 4041POPC   C4A52818  30.653  12.679   7.420
 4041POPC   C1B52819  31.050  13.017   6.222
 4041POPC   C2B52820  31.155  13.226   6.608
 4041POPC   C3B52821  30.905  13.189   6.974
 4041POPC   C4B52822  30.696  13.169   7.386
 4042POPC   NC352823  18.420  13.849   5.496
 4042POPC   PO452824  18.784  13.217   5.439
 4042POPC   GL152825  18.491  13.369   5.838
 4042POPC   GL252826  18.262  13.688   5.942
 4042POPC   C1A52827  18.427  13.408   6.317
 4042POPC   D2A52828  18.563  13.708   6.617
 4042POPC   C3A52829  18.422  13.666   7.028
 4042POPC   C4A52830  18.331  13.294   7.232
 4042POPC   C1B52831  17.951  13.405   6.142
 4042POPC   C2B52832  17.938  13.174   6.521
 4042POPC   C3B52833  17.930  13.355   6.924
 4042POPC   C4B52834  17.964  13.618   7.292
 4043POPC   NC352835  14.759  20.651   5.372
 4043POPC   PO452836  14.021  20.596   5.352
 4043POPC   GL152837  14.327  20.615   5.684
 4043POPC   GL252838  14.514  20.303   5.673
 4043POPC   C1A52839  14.509  20.715   6.111
 4043POPC   D2A52840  14.409  20.543   6.544
 4043POPC   C3A52841  14.422  20.776   6.959
 4043POPC   C4A52842  14.119  21.082   7.137
 4043POPC   C1B52843  14.366  20.228   6.053
 4043POPC   C2B52844  14.201  20.102   6.404
 4043POPC   C3B52845  14.184  20.161   6.824
 4043POPC   C4B52846  14.361  20.297   7.187
 4044POPC   NC352847  20.207  38.122   5.624
 4044POPC   PO452848  20.091  37.490   5.633
 4044POPC   GL152849  19.815  37.750   5.898
 4044POPC   GL252850  19.784  38.122   5.952
 4044POPC   C1A52851  19.557  37.776   6.280
 4044POPC   D2A52852  19.740  37.704   6.687
 4044POPC   C3A52853  19.583  37.780   7.097
 4044POPC   C4A52854  19.515  37.565   7.500
 4044POPC   C1B52855  20.036  37.966   6.310
 4044POPC   C2B52856  20.070  38.082   6.740
 4044POPC   C3B52857  20.165  37.901   7.104
 4044POPC   C4B52858  20.007  37.780   7.475
 4045POPC   NC352859   5.853  34.488   5.148
 4045POPC   PO452860   5.459  34.841   5.550
 4045POPC   GL152861   5.710  34.725   5.884
 4045POPC   GL252862   5.964  34.541   5.681
 4045POPC   C1A52863   5.720  34.776   6.338
 4045POPC   D2A52864   5.891  34.679   6.743
 4045POPC   C3A52865   5.614  34.544   7.095
 4045POPC   C4A52866   5.344  34.201   7.211
 4045POPC   C1B52867   5.984  34.351   6.112
 4045POPC   C2B52868   5.902  34.149   6.528
 4045POPC   C3B52869   6.013  34.232   6.996
 4045POPC   C4B52870   6.150  34.654   7.188
 4046POPC   NC352871  18.453  19.318   5.168
 4046POPC   PO452872  18.126  18.765   5.454
 4046POPC   GL152873  18.434  19.012   5.659
 4046POPC   GL252874  18.190  19.087   5.932
 4046POPC   C1A52875  18.653  18.924   6.069
 4046POPC   D2A52876  18.606  18.660   6.451
 4046POPC   C3A52877  18.477  18.834   6.865
 4046POPC   C4A52878  18.515  19.205   7.146
 4046POPC   C1B52879  18.139  18.885   6.363
 4046POPC   C2B52880  18.052  19.091   6.782
 4046POPC   C3B52881  18.030  19.382   7.155
 4046POPC   C4B52882  17.971  19.341   7.615
 4047POPC   NC352883   0.574  26.981   5.291
 4047POPC   PO452884   0.333  26.489   5.587
 4047POPC   GL152885   0.243  26.812   5.867
 4047POPC   GL252886   0.077  26.643   6.084
 4047POPC   C1A52887   0.333  27.070   6.274
 4047POPC   D2A52888   0.632  26.987   6.626
 4047POPC   C3A52889   0.453  27.015   7.053
 4047POPC   C4A52890   0.742  27.021   7.395
 4047POPC   C1B52891   0.398  26.563   6.358
 4047POPC   C2B52892   0.342  26.598   6.768
 4047POPC   C3B52893   0.614  26.520   7.097
 4047POPC   C4B52894   0.307  26.497   7.378
 4048POPC   NC352895  17.589  39.328   5.370
 4048POPC   PO452896  17.065  38.914   5.610
 4048POPC   GL152897  17.416  39.093   5.827
 4048POPC   GL252898  17.497  39.466   5.863
 4048POPC   C1A52899  17.288  39.134   6.253
 4048POPC   D2A52900  17.187  39.321   6.664
 4048POPC   C3A52901  17.258  39.031   7.021
 4048POPC   C4A52902  17.274  39.008   7.497
 4048POPC   C1B52903  17.616  39.513   6.323
 4048POPC   C2B52904  17.684  39.382   6.792
 4048POPC   C3B52905  17.532  39.395   7.253
 4048POPC   C4B52906  17.681  39.323   7.687
 4049POPC   NC352907  12.888  11.109   5.471
 4049POPC   PO452908  12.485  11.559   5.162
 4049POPC   GL152909  12.704  11.504   5.702
 4049POPC   GL252910  12.645  11.147   5.915
 4049POPC   C1A52911  12.763  11.559   6.168
 4049POPC   D2A52912  12.705  11.753   6.596
 4049POPC   C3A52913  12.898  11.546   6.943
 4049POPC   C4A52914  12.765  11.513   7.388
 4049POPC   C1B52915  13.020  11.050   6.158
 4049POPC   C2B52916  13.327  11.081   6.466
 4049POPC   C3B52917  13.302  11.064   6.900
 4049POPC   C4B52918  12.993  11.121   7.206
 4050POPC   NC352919  26.472   3.797   5.439
 4050POPC   PO452920  25.965   3.406   5.153
 4050POPC   GL152921  26.132   3.413   5.623
 4050POPC   GL252922  26.032   3.742   5.737
 4050POPC   C1A52923  26.108   3.312   6.113
 4050POPC   D2A52924  26.081   3.104   6.558
 4050POPC   C3A52925  25.927   3.372   6.937
 4050POPC   C4A52926  26.038   3.411   7.376
 4050POPC   C1B52927  26.230   3.811   6.133
 4050POPC   C2B52928  26.196   3.624   6.565
 4050POPC   C3B52929  26.385   3.582   7.000
 4050POPC   C4B52930  26.268   3.874   7.306
 4051POPC   NC352931  34.087  42.669   5.543
 4051POPC   PO452932  33.621  42.982   5.203
 4051POPC   GL152933  33.702  43.000   5.692
 4051POPC   GL252934  33.486  42.729   5.838
 4051POPC   C1A52935  33.998  43.094   6.068
 4051POPC   D2A52936  34.173  42.888   6.470
 4051POPC   C3A52937  33.991  43.004   6.889
 4051POPC   C4A52938  34.045  43.189   7.297
 4051POPC   C1B52939  33.506  43.037   6.214
 4051POPC   C2B52940  33.459  43.089   6.668
 4051POPC   C3B52941  33.536  43.142   7.092
 4051POPC   C4B52942  33.702  42.802   7.273
 4052POPC   NC352943  10.505  33.137   5.273
 4052POPC   PO452944  10.836  33.636   5.643
 4052POPC   GL152945  10.535  33.393   5.828
 4052POPC   GL252946  10.511  33.051   5.773
 4052POPC   C1A52947  10.536  33.248   6.245
 4052POPC   D2A52948  10.792  33.279   6.591
 4052POPC   C3A52949  10.549  33.170   6.968
 4052POPC   C4A52950  10.611  32.964   7.372
 4052POPC   C1B52951  10.476  32.762   6.129
 4052POPC   C2B52952  10.669  32.794   6.531
 4052POPC   C3B52953  10.596  32.663   6.941
 4052POPC   C4B52954  10.273  32.596   7.238
 4053POPC   NC352955  44.923  43.878   5.372
 4053POPC   PO452956  44.238  43.905   5.304
 4053POPC   GL152957  44.541  43.745   5.672
 4053POPC   GL252958  44.762  44.032   5.823
 4053POPC   C1A52959  44.815  43.583   6.032
 4053POPC   D2A52960  44.943  43.856   6.358
 4053POPC   C3A52961  44.894  43.777   6.807
 4053POPC   C4A52962  44.824  43.892   7.240
 4053POPC   C1B52963  44.542  44.136   6.197
 4053POPC   C2B52964  44.598  44.199   6.641
 4053POPC   C3B52965  44.442  44.212   7.058
 4053POPC   C4B52966  44.626  44.322   7.425
 4054POPC   NC352967  29.867  28.542   4.933
 4054POPC   PO452968  29.780  28.143   5.462
 4054POPC   GL152969  29.738  28.316   5.854
 4054POPC   GL252970  29.488  28.092   5.888
 4054POPC   C1A52971  29.967  28.479   6.237
 4054POPC   D2A52972  29.981  28.774   6.611
 4054POPC   C3A52973  30.212  28.615   6.919
 4054POPC   C4A52974  30.113  28.374   7.241
 4054POPC   C1B52975  29.604  28.054   6.308
 4054POPC   C2B52976  29.627  27.852   6.705
 4054POPC   C3B52977  29.676  28.050   7.091
 4054POPC   C4B52978  29.422  28.013   7.435
 4055POPC   NC352979  28.461  24.058   4.949
 4055POPC   PO452980  28.456  24.636   5.280
 4055POPC   GL152981  28.582  24.646   5.689
 4055POPC   GL252982  28.234  24.668   5.807
 4055POPC   C1A52983  28.569  24.418   6.079
 4055POPC   D2A52984  28.437  24.461   6.479
 4055POPC   C3A52985  28.572  24.342   6.870
 4055POPC   C4A52986  28.588  24.173   7.247
 4055POPC   C1B52987  28.138  24.903   6.199
 4055POPC   C2B52988  28.047  24.778   6.630
 4055POPC   C3B52989  28.087  24.813   7.055
 4055POPC   C4B52990  28.356  24.636   7.318
 4056POPC   NC352991  28.702   3.053   5.412
 4056POPC   PO452992  28.206   2.531   5.334
 4056POPC   GL152993  28.384   2.666   5.729
 4056POPC   GL252994  28.408   2.969   5.829
 4056POPC   C1A52995  28.418   2.474   6.141
 4056POPC   D2A52996  28.187   2.497   6.543
 4056POPC   C3A52997  28.418   2.657   6.884
 4056POPC   C4A52998  28.583   2.565   7.273
 4056POPC   C1B52999  28.414   3.214   6.203
 4056POPC   C2B53000  28.486   3.121   6.620
 4056POPC   C3B53001  28.253   3.140   6.994
 4056POPC   C4B53002  28.320   2.980   7.383
 4057POPC   NC353003  23.854  34.253   5.574
 4057POPC   PO453004  23.753  34.945   5.391
 4057POPC   GL153005  23.609  34.700   5.776
 4057POPC   GL253006  23.365  34.430   5.667
 4057POPC   C1A53007  23.709  34.583   6.234
 4057POPC   D2A53008  23.598  34.750   6.651
 4057POPC   C3A53009  23.735  34.557   7.033
 4057POPC   C4A53010  24.129  34.733   7.136
 4057POPC   C1B53011  23.259  34.372   6.102
 4057POPC   C2B53012  23.319  34.338   6.547
 4057POPC   C3B53013  23.223  34.441   6.983
 4057POPC   C4B53014  23.344  34.462   7.415
 4058POPC   NC353015  21.120  38.859   5.614
 4058POPC   PO453016  20.954  39.364   5.184
 4058POPC   GL153017  20.592  39.341   5.624
 4058POPC   GL253018  20.382  39.046   5.799
 4058POPC   C1A53019  20.428  39.499   6.059
 4058POPC   D2A53020  20.442  39.659   6.520
 4058POPC   C3A53021  20.434  39.471   6.960
 4058POPC   C4A53022  20.527  39.384   7.412
 4058POPC   C1B53023  20.678  39.083   6.179
 4058POPC   C2B53024  20.925  39.146   6.577
 4058POPC   C3B53025  20.844  39.169   7.030
 4058POPC   C4B53026  20.440  38.962   7.119
 4059POPC   NC353027  31.408  26.758   5.416
 4059POPC   PO453028  30.880  26.358   5.522
 4059POPC   GL153029  31.079  26.677   5.829
 4059POPC   GL253030  31.421  26.910   5.893
 4059POPC   C1A53031  31.262  26.557   6.212
 4059POPC   D2A53032  31.358  26.692   6.588
 4059POPC   C3A53033  31.115  26.706   6.941
 4059POPC   C4A53034  31.351  26.740   7.331
 4059POPC   C1B53035  31.732  26.809   6.260
 4059POPC   C2B53036  31.798  26.841   6.761
 4059POPC   C3B53037  31.868  26.838   7.205
 4059POPC   C4B53038  31.696  27.041   7.590
 4060POPC   NC353039   3.960  44.464   5.446
 4060POPC   PO453040   3.312  44.431   5.448
 4060POPC   GL153041   3.564  44.742   5.694
 4060POPC   GL253042   3.331  44.645   5.945
 4060POPC   C1A53043   3.624  44.980   6.134
 4060POPC   D2A53044   3.412  44.707   6.492
 4060POPC   C3A53045   3.420  44.836   6.927
 4060POPC   C4A53046   3.779  44.949   7.149
 4060POPC   C1B53047   3.742  44.489   6.153
 4060POPC   C2B53048   3.824  44.339   6.561
 4060POPC   C3B53049   3.749  44.434   6.984
 4060POPC   C4B53050   3.974  44.467   7.371
 4061POPC   NC353051  21.509   1.079   5.301
 4061POPC   PO453052  20.941   1.373   5.480
 4061POPC   GL153053  21.189   1.190   5.843
 4061POPC   GL253054  21.559   1.044   5.812
 4061POPC   C1A53055  21.429   1.375   6.214
 4061POPC   D2A53056  21.625   1.605   6.567
 4061POPC   C3A53057  21.505   1.449   6.942
 4061POPC   C4A53058  21.311   1.461   7.332
 4061POPC   C1B53059  21.409   0.864   6.199
 4061POPC   C2B53060  21.359   0.980   6.589
 4061POPC   C3B53061  21.463   0.815   6.965
 4061POPC   C4B53062  21.678   0.965   7.316
 4062POPC   NC353063  43.837  41.581   5.400
 4062POPC   PO453064  44.109  41.087   5.791
 4062POPC   GL153065  43.911  41.466   5.928
 4062POPC   GL253066  43.526  41.473   5.914
 4062POPC   C1A53067  43.959  41.640   6.354
 4062POPC   D2A53068  44.001  41.693   6.799
 4062POPC   C3A53069  44.237  41.390   7.092
 4062POPC   C4A53070  44.184  41.383   7.550
 4062POPC   C1B53071  43.430  41.641   6.367
 4062POPC   C2B53072  43.389  41.686   6.854
 4062POPC   C3B53073  43.486  41.749   7.312
 4062POPC   C4B53074  43.383  41.950   7.759
 4063POPC   NC353075  34.481  35.786   5.294
 4063POPC   PO453076  34.881  35.150   5.338
 4063POPC   GL153077  34.870  35.348   5.751
 4063POPC   GL253078  34.705  35.666   5.733
 4063POPC   C1A53079  34.690  35.344   6.170
 4063POPC   D2A53080  34.622  35.177   6.589
 4063POPC   C3A53081  34.445  35.385   6.944
 4063POPC   C4A53082  34.472  35.547   7.348
 4063POPC   C1B53083  34.939  35.793   6.093
 4063POPC   C2B53084  35.099  35.531   6.424
 4063POPC   C3B53085  34.959  35.502   6.849
 4063POPC   C4B53086  34.895  35.822   7.116
 4064POPC   NC353087  43.073   6.208   5.513
 4064POPC   PO453088  43.246   5.517   5.435
 4064POPC   GL153089  43.132   5.761   5.763
 4064POPC   GL253090  43.355   5.741   5.979
 4064POPC   C1A53091  42.907   5.874   6.140
 4064POPC   D2A53092  43.108   6.019   6.513
 4064POPC   C3A53093  42.893   6.067   6.909
 4064POPC   C4A53094  42.941   5.986   7.327
 4064POPC   C1B53095  43.552   5.809   6.334
 4064POPC   C2B53096  43.493   5.797   6.753
 4064POPC   C3B53097  43.250   5.689   7.048
 4064POPC   C4B53098  43.542   5.549   7.288
 4065POPC   NC353099   5.240  44.825   5.431
 4065POPC   PO453100   4.601  44.696   5.350
 4065POPC   GL153101   4.874  44.601   5.723
 4065POPC   GL253102   5.199  44.444   5.769
 4065POPC   C1A53103   4.830  44.403   6.122
 4065POPC   D2A53104   4.968  44.600   6.512
 4065POPC   C3A53105   4.845  44.361   6.888
 4065POPC   C4A53106   5.085  44.305   7.259
 4065POPC   C1B53107   5.252  44.741   6.090
 4065POPC   C2B53108   5.494  44.746   6.473
 4065POPC   C3B53109   5.512  44.723   6.912
 4065POPC   C4B53110   5.167  44.837   7.166
 4066POPC   NC353111  32.470  13.347   5.570
 4066POPC   PO453112  32.112  13.918   5.359
 4066POPC   GL153113  32.151  13.897   5.848
 4066POPC   GL253114  32.190  13.534   5.948
 4066POPC   C1A53115  32.070  13.835   6.320
 4066POPC   D2A53116  32.141  13.536   6.647
 4066POPC   C3A53117  32.075  13.733   7.009
 4066POPC   C4A53118  32.269  13.695   7.352
 4066POPC   C1B53119  32.506  13.413   6.250
 4066POPC   C2B53120  32.597  13.242   6.632
 4066POPC   C3B53121  32.539  13.413   7.024
 4066POPC   C4B53122  32.596  13.326   7.479
 4067POPC   NC353123  21.207   9.487   5.327
 4067POPC   PO453124  21.562   9.966   5.103
 4067POPC   GL153125  21.460   9.892   5.599
 4067POPC   GL253126  21.441   9.552   5.778
 4067POPC   C1A53127  21.247   9.944   6.047
 4067POPC   D2A53128  21.142   9.877   6.528
 4067POPC   C3A53129  21.290  10.108   6.893
 4067POPC   C4A53130  21.365   9.975   7.293
 4067POPC   C1B53131  21.340   9.469   6.217
 4067POPC   C2B53132  21.486   9.494   6.639
 4067POPC   C3B53133  21.324   9.513   7.061
 4067POPC   C4B53134  21.495   9.488   7.475
 4068POPC   NC353135  11.819   6.483   5.382
 4068POPC   PO453136  12.171   6.988   5.326
 4068POPC   GL153137  11.958   6.951   5.746
 4068POPC   GL253138  11.937   6.604   5.860
 4068POPC   C1A53139  12.168   6.937   6.173
 4068POPC   D2A53140  12.428   6.751   6.517
 4068POPC   C3A53141  12.275   6.734   6.958
 4068POPC   C4A53142  12.341   6.448   7.317
 4068POPC   C1B53143  11.769   6.525   6.271
 4068POPC   C2B53144  11.756   6.229   6.612
 4068POPC   C3B53145  12.006   6.256   6.961
 4068POPC   C4B53146  11.833   6.515   7.271
 4069POPC   NC353147  13.625  20.479   5.124
 4069POPC   PO453148  13.391  20.983   5.554
 4069POPC   GL153149  13.663  20.772   5.797
 4069POPC   GL253150  13.727  20.425   5.747
 4069POPC   C1A53151  13.503  20.651   6.200
 4069POPC   D2A53152  13.297  20.814   6.557
 4069POPC   C3A53153  13.365  20.567   6.929
 4069POPC   C4A53154  13.281  20.788   7.308
 4069POPC   C1B53155  13.981  20.530   6.137
 4069POPC   C2B53156  13.837  20.461   6.572
 4069POPC   C3B53157  13.921  20.591   7.009
 4069POPC   C4B53158  13.912  20.348   7.401
 4070POPC   NC353159   4.337  28.570   5.389
 4070POPC   PO453160   4.276  27.877   5.304
 4070POPC   GL153161   4.373  28.149   5.687
 4070POPC   GL253162   4.066  28.309   5.789
 4070POPC   C1A53163   4.525  28.462   6.021
 4070POPC   D2A53164   4.518  28.507   6.488
 4070POPC   C3A53165   4.763  28.305   6.841
 4070POPC   C4A53166   4.793  28.236   7.275
 4070POPC   C1B53167   4.180  28.102   6.189
 4070POPC   C2B53168   4.322  28.061   6.626
 4070POPC   C3B53169   4.272  28.403   6.944
 4070POPC   C4B53170   4.333  28.461   7.369
 4071POPC   NC353171   4.189   0.979   5.059
 4071POPC   PO453172   4.626   1.290   5.550
 4071POPC   GL153173   4.321   1.438   5.894
 4071POPC   GL253174   4.170   1.136   6.070
 4071POPC   C1A53175   4.239   1.530   6.361
 4071POPC   D2A53176   4.164   1.191   6.679
 4071POPC   C3A53177   4.451   1.206   7.021
 4071POPC   C4A53178   4.468   1.539   7.352
 4071POPC   C1B53179   3.830   0.974   6.351
 4071POPC   C2B53180   3.676   0.739   6.667
 4071POPC   C3B53181   3.746   0.857   7.080
 4071POPC   C4B53182   3.981   1.199   7.210
 4072POPC   NC353183  21.254  19.157   5.201
 4072POPC   PO453184  21.886  19.312   5.352
 4072POPC   GL153185  21.551  19.102   5.668
 4072POPC   GL253186  21.152  19.113   5.695
 4072POPC   C1A53187  21.452  19.066   6.127
 4072POPC   D2A53188  21.529  18.945   6.568
 4072POPC   C3A53189  21.335  18.986   6.991
 4072POPC   C4A53190  21.459  18.936   7.429
 4072POPC   C1B53191  21.031  18.784   6.030
 4072POPC   C2B53192  20.988  18.901   6.487
 4072POPC   C3B53193  20.948  18.660   6.899
 4072POPC   C4B53194  20.983  18.814   7.351
 4073POPC   NC353195  37.304  22.199   5.452
 4073POPC   PO453196  36.590  22.218   5.395
 4073POPC   GL153197  36.824  22.154   5.778
 4073POPC   GL253198  37.005  21.856   5.705
 4073POPC   C1A53199  37.036  22.153   6.200
 4073POPC   D2A53200  37.175  22.162   6.651
 4073POPC   C3A53201  36.815  22.102   6.946
 4073POPC   C4A53202  36.611  22.186   7.364
 4073POPC   C1B53203  37.071  21.643   6.089
 4073POPC   C2B53204  37.181  21.655   6.508
 4073POPC   C3B53205  37.122  21.613   6.924
 4073POPC   C4B53206  37.089  21.862   7.287
 4074POPC   NC353207  10.396   6.101   5.422
 4074POPC   PO453208  10.689   5.523   5.235
 4074POPC   GL153209  10.735   5.757   5.666
 4074POPC   GL253210  10.919   6.089   5.598
 4074POPC   C1A53211  10.532   5.728   6.133
 4074POPC   D2A53212  10.195   5.817   6.487
 4074POPC   C3A53213  10.364   5.913   6.914
 4074POPC   C4A53214  10.495   5.686   7.313
 4074POPC   C1B53215  10.783   6.160   6.039
 4074POPC   C2B53216  10.599   6.219   6.468
 4074POPC   C3B53217  10.804   6.188   6.851
 4074POPC   C4B53218  10.666   6.159   7.267
 4075POPC   NC353219   9.734  33.491   5.379
 4075POPC   PO453220   9.553  34.030   5.658
 4075POPC   GL153221   9.559  33.729   5.931
 4075POPC   GL253222   9.827  33.610   5.906
 4075POPC   C1A53223   9.579  33.684   6.379
 4075POPC   D2A53224   9.881  33.459   6.624
 4075POPC   C3A53225  10.010  33.646   7.013
 4075POPC   C4A53226   9.630  33.744   7.189
 4075POPC   C1B53227   9.919  34.026   6.185
 4075POPC   C2B53228  10.042  34.035   6.637
 4075POPC   C3B53229   9.878  34.168   7.058
 4075POPC   C4B53230   9.840  34.053   7.517
 4076POPC   NC353231   6.125  13.313   5.172
 4076POPC   PO453232   5.748  13.780   5.239
 4076POPC   GL153233   5.723  13.697   5.694
 4076POPC   GL253234   6.067  13.657   5.880
 4076POPC   C1A53235   5.627  13.696   6.154
 4076POPC   D2A53236   5.875  13.888   6.510
 4076POPC   C3A53237   5.649  13.843   6.908
 4076POPC   C4A53238   5.586  13.667   7.324
 4076POPC   C1B53239   6.053  13.438   6.306
 4076POPC   C2B53240   5.957  13.418   6.761
 4076POPC   C3B53241   6.068  13.619   7.158
 4076POPC   C4B53242   6.103  13.600   7.616
 4077POPC   NC353243  14.922  16.375   5.556
 4077POPC   PO453244  15.347  16.022   5.193
 4077POPC   GL153245  15.256  15.988   5.692
 4077POPC   GL253246  15.245  16.279   5.954
 4077POPC   C1A53247  15.322  15.839   6.167
 4077POPC   D2A53248  15.387  16.120   6.550
 4077POPC   C3A53249  15.205  16.009   6.959
 4077POPC   C4A53250  15.307  15.661   7.237
 4077POPC   C1B53251  14.940  16.237   6.303
 4077POPC   C2B53252  14.945  16.396   6.739
 4077POPC   C3B53253  14.716  16.360   7.167
 4077POPC   C4B53254  14.870  16.373   7.639
 4078POPC   NC353255  26.627  35.105   5.449
 4078POPC   PO453256  27.036  35.752   5.380
 4078POPC   GL153257  26.995  35.414   5.717
 4078POPC   GL253258  26.682  35.444   5.818
 4078POPC   C1A53259  26.988  35.249   6.224
 4078POPC   D2A53260  27.014  35.108   6.739
 4078POPC   C3A53261  26.918  35.340   7.141
 4078POPC   C4A53262  27.166  35.662   7.334
 4078POPC   C1B53263  26.482  35.368   6.172
 4078POPC   C2B53264  26.591  35.335   6.586
 4078POPC   C3B53265  26.425  35.332   6.965
 4078POPC   C4B53266  26.379  35.243   7.379
 4079POPC   NC353267  31.402  11.371   5.178
 4079POPC   PO453268  31.870  11.004   5.270
 4079POPC   GL153269  31.650  11.202   5.607
 4079POPC   GL253270  31.361  10.962   5.615
 4079POPC   C1A53271  31.584  11.154   6.045
 4079POPC   D2A53272  31.776  11.171   6.431
 4079POPC   C3A53273  31.609  11.180   6.844
 4079POPC   C4A53274  31.459  11.381   7.217
 4079POPC   C1B53275  31.186  10.852   6.061
 4079POPC   C2B53276  31.235  11.079   6.460
 4079POPC   C3B53277  31.158  10.937   6.890
 4079POPC   C4B53278  31.055  11.090   7.281
 4080POPC   NC353279   1.304   2.288   5.591
 4080POPC   PO453280   1.603   2.933   5.399
 4080POPC   GL153281   1.388   2.759   5.807
 4080POPC   GL253282   1.056   2.927   5.858
 4080POPC   C1A53283   1.243   2.573   6.235
 4080POPC   D2A53284   1.263   2.409   6.681
 4080POPC   C3A53285   1.373   2.759   6.984
 4080POPC   C4A53286   1.271   2.740   7.436
 4080POPC   C1B53287   0.962   3.013   6.290
 4080POPC   C2B53288   0.895   2.765   6.675
 4080POPC   C3B53289   0.875   2.646   7.106
 4080POPC   C4B53290   0.772   2.822   7.529
 4081POPC   NC353291  25.716   5.052   5.061
 4081POPC   PO453292  25.105   5.118   5.367
 4081POPC   GL153293  25.162   5.169   5.805
 4081POPC   GL253294  25.484   5.079   5.911
 4081POPC   C1A53295  25.042   5.332   6.183
 4081POPC   D2A53296  25.135   5.464   6.608
 4081POPC   C3A53297  24.882   5.317   6.962
 4081POPC   C4A53298  25.150   4.996   7.151
 4081POPC   C1B53299  25.410   4.959   6.329
 4081POPC   C2B53300  25.711   4.910   6.664
 4081POPC   C3B53301  25.636   4.827   7.114
 4081POPC   C4B53302  25.368   4.666   7.475
 4082POPC   NC353303  16.894  18.752   5.528
 4082POPC   PO453304  16.364  18.333   5.464
 4082POPC   GL153305  16.703  18.310   5.759
 4082POPC   GL253306  16.918  18.003   5.742
 4082POPC   C1A53307  16.700  18.488   6.182
 4082POPC   D2A53308  16.899  18.304   6.547
 4082POPC   C3A53309  16.563  18.233   6.880
 4082POPC   C4A53310  16.581  18.596   7.150
 4082POPC   C1B53311  16.715  17.963   6.160
 4082POPC   C2B53312  16.798  17.825   6.595
 4082POPC   C3B53313  16.996  17.998   6.969
 4082POPC   C4B53314  16.877  17.963   7.383
 4083POPC   NC353315  23.573  37.989   5.269
 4083POPC   PO453316  23.910  37.372   5.460
 4083POPC   GL153317  23.681  37.629   5.836
 4083POPC   GL253318  23.470  37.912   5.801
 4083POPC   C1A53319  23.575  37.700   6.295
 4083POPC   D2A53320  23.551  37.549   6.717
 4083POPC   C3A53321  23.705  37.642   7.098
 4083POPC   C4A53322  23.394  37.463   7.337
 4083POPC   C1B53323  23.236  38.051   6.209
 4083POPC   C2B53324  23.383  38.039   6.644
 4083POPC   C3B53325  23.277  37.905   7.037
 4083POPC   C4B53326  23.493  37.941   7.434
 4084POPC   NC353327  20.598  34.254   5.511
 4084POPC   PO453328  20.313  34.881   5.318
 4084POPC   GL153329  20.475  34.735   5.715
 4084POPC   GL253330  20.841  34.702   5.737
 4084POPC   C1A53331  20.516  34.758   6.152
 4084POPC   D2A53332  20.354  34.861   6.546
 4084POPC   C3A53333  20.392  34.583   6.883
 4084POPC   C4A53334  20.497  34.716   7.268
 4084POPC   C1B53335  20.951  34.505   6.134
 4084POPC   C2B53336  20.778  34.553   6.547
 4084POPC   C3B53337  20.899  34.556   6.978
 4084POPC   C4B53338  20.887  34.157   7.137
 4085POPC   NC353339  12.898  24.748   5.516
 4085POPC   PO453340  12.530  25.407   5.536
 4085POPC   GL153341  12.769  25.156   5.812
 4085POPC   GL253342  12.980  25.371   5.835
 4085POPC   C1A53343  12.886  24.961   6.203
 4085POPC   D2A53344  12.657  24.955   6.591
 4085POPC   C3A53345  12.967  24.997   6.900
 4085POPC   C4A53346  12.744  25.251   7.112
 4085POPC   C1B53347  13.144  25.417   6.189
 4085POPC   C2B53348  12.956  25.375   6.540
 4085POPC   C3B53349  13.118  25.532   6.870
 4085POPC   C4B53350  13.194  25.435   7.235
 4086POPC   NC353351   8.496   9.066   5.464
 4086POPC   PO453352   7.888   9.300   5.462
 4086POPC   GL153353   8.067   9.021   5.813
 4086POPC   GL253354   8.407   8.808   5.892
 4086POPC   C1A53355   8.058   9.194   6.216
 4086POPC   D2A53356   7.899   8.952   6.539
 4086POPC   C3A53357   8.033   8.867   6.938
 4086POPC   C4A53358   8.099   9.274   7.111
 4086POPC   C1B53359   8.360   8.809   6.334
 4086POPC   C2B53360   8.423   9.087   6.680
 4086POPC   C3B53361   8.509   8.966   7.102
 4086POPC   C4B53362   8.311   8.647   7.314
 4087POPC   NC353363  35.448  10.516   5.438
 4087POPC   PO453364  34.859  10.534   5.736
 4087POPC   GL153365  35.040  10.251   5.971
 4087POPC   GL253366  35.334  10.492   5.967
 4087POPC   C1A53367  35.119  10.295   6.402
 4087POPC   D2A53368  34.980  10.709   6.660
 4087POPC   C3A53369  35.167  10.737   7.094
 4087POPC   C4A53370  35.175  10.299   7.267
 4087POPC   C1B53371  35.456  10.671   6.390
 4087POPC   C2B53372  35.421  10.453   6.780
 4087POPC   C3B53373  35.674  10.259   7.098
 4087POPC   C4B53374  35.599  10.494   7.505
 4088POPC   NC353375  11.827  15.847   5.573
 4088POPC   PO453376  11.320  15.576   5.479
 4088POPC   GL153377  11.426  15.780   5.896
 4088POPC   GL253378  11.135  15.939   6.043
 4088POPC   C1A53379  11.610  16.002   6.282
 4088POPC   D2A53380  11.440  16.093   6.724
 4088POPC   C3A53381  11.532  16.270   7.150
 4088POPC   C4A53382  11.411  16.242   7.600
 4088POPC   C1B53383  11.235  15.675   6.418
 4088POPC   C2B53384  11.274  15.647   6.885
 4088POPC   C3B53385  11.143  15.930   7.228
 4088POPC   C4B53386  11.062  15.788   7.642
 4089POPC   NC353387  39.303  26.267   5.463
 4089POPC   PO453388  39.034  25.572   5.549
 4089POPC   GL153389  39.130  25.933   5.822
 4089POPC   GL253390  39.473  26.027   5.884
 4089POPC   C1A53391  39.127  26.207   6.203
 4089POPC   D2A53392  39.049  26.083   6.625
 4089POPC   C3A53393  39.228  26.273   6.996
 4089POPC   C4A53394  39.047  26.250   7.417
 4089POPC   C1B53395  39.660  25.844   6.235
 4089POPC   C2B53396  39.541  25.717   6.629
 4089POPC   C3B53397  39.254  25.742   6.954
 4089POPC   C4B53398  39.391  25.892   7.327
 4090POPC   NC353399  41.194  13.284   5.452
 4090POPC   PO453400  41.610  13.739   5.274
 4090POPC   GL153401  41.636  13.753   5.709
 4090POPC   GL253402  41.270  13.791   5.752
 4090POPC   C1A53403  41.722  13.841   6.143
 4090POPC   D2A53404  41.534  14.030   6.524
 4090POPC   C3A53405  41.546  13.745   6.874
 4090POPC   C4A53406  41.480  13.465   7.250
 4090POPC   C1B53407  41.229  13.680   6.188
 4090POPC   C2B53408  41.413  13.403   6.479
 4090POPC   C3B53409  41.190  13.356   6.849
 4090POPC   C4B53410  41.084  13.735   7.090
 4091POPC   NC353411  33.789  34.521   5.351
 4091POPC   PO453412  33.362  35.027   5.586
 4091POPC   GL153413  33.602  34.712   5.820
 4091POPC   GL253414  33.968  34.602   5.825
 4091POPC   C1A53415  33.653  34.624   6.259
 4091POPC   D2A53416  33.713  34.482   6.688
 4091POPC   C3A53417  33.708  34.738   7.073
 4091POPC   C4A53418  33.634  34.884   7.491
 4091POPC   C1B53419  34.120  34.401   6.215
 4091POPC   C2B53420  34.128  34.203   6.638
 4091POPC   C3B53421  34.091  34.405   7.033
 4091POPC   C4B53422  34.128  34.672   7.401
 4092POPC   NC353423  44.512  35.549   5.359
 4092POPC   PO453424  44.890  34.936   5.423
 4092POPC   GL153425  44.853  35.162   5.784
 4092POPC   GL253426  44.474  35.103   5.782
 4092POPC   C1A53427  44.764  35.145   6.231
 4092POPC   D2A53428  44.419  35.254   6.527
 4092POPC   C3A53429  44.594  35.136   6.931
 4092POPC   C4A53430   0.027  35.131   7.082
 4092POPC   C1B53431  44.360  35.489   6.026
 4092POPC   C2B53432  44.261  35.771   6.385
 4092POPC   C3B53433  44.356  35.710   6.828
 4092POPC   C4B53434  44.277  35.440   7.187
 4093POPC   NC353435  18.938  12.684   5.425
 4093POPC   PO453436  19.528  13.010   5.502
 4093POPC   GL153437  19.177  12.973   5.806
 4093POPC   GL253438  18.784  12.917   5.843
 4093POPC   C1A53439  19.240  12.814   6.222
 4093POPC   D2A53440  19.424  12.910   6.619
 4093POPC   C3A53441  19.212  12.651   6.879
 4093POPC   C4A53442  19.012  12.721   7.233
 4093POPC   C1B53443  18.867  13.183   6.167
 4093POPC   C2B53444  18.926  13.051   6.579
 4093POPC   C3B53445  19.099  13.153   6.960
 4093POPC   C4B53446  18.817  13.199   7.269
 4094POPC   NC353447  32.577  17.603   5.447
 4094POPC   PO453448  32.180  17.131   5.133
 4094POPC   GL153449  32.224  17.261   5.617
 4094POPC   GL253450  32.270  17.590   5.843
 4094POPC   C1A53451  32.254  17.115   6.055
 4094POPC   D2A53452  32.455  17.133   6.461
 4094POPC   C3A53453  32.323  17.074   6.876
 4094POPC   C4A53454  32.512  17.103   7.275
 4094POPC   C1B53455  32.315  17.614   6.294
 4094POPC   C2B53456  32.333  17.571   6.741
 4094POPC   C3B53457  32.423  17.629   7.166
 4094POPC   C4B53458  32.211  17.939   7.371
 4095POPC   NC353459  18.575  17.429   5.415
 4095POPC   PO453460  19.190  17.538   5.170
 4095POPC   GL153461  19.067  17.405   5.632
 4095POPC   GL253462  18.802  17.570   5.864
 4095POPC   C1A53463  19.191  17.332   6.098
 4095POPC   D2A53464  19.062  17.623   6.437
 4095POPC   C3A53465  19.012  17.601   6.889
 4095POPC   C4A53466  19.356  17.612   7.130
 4095POPC   C1B53467  18.684  17.326   6.261
 4095POPC   C2B53468  18.958  17.146   6.609
 4095POPC   C3B53469  19.155  17.123   7.031
 4095POPC   C4B53470  18.910  17.290   7.352
 4096POPC   NC353471  36.383  17.484   5.653
 4096POPC   PO453472  37.009  17.327   5.381
 4096POPC   GL153473  36.897  17.571   5.781
 4096POPC   GL253474  36.645  17.787   5.979
 4096POPC   C1A53475  37.090  17.596   6.204
 4096POPC   D2A53476  37.320  17.304   6.505
 4096POPC   C3A53477  37.303  17.403   6.941
 4096POPC   C4A53478  37.143  17.378   7.344
 4096POPC   C1B53479  36.645  17.366   6.236
 4096POPC   C2B53480  36.840  17.382   6.636
 4096POPC   C3B53481  36.737  17.327   7.028
 4096POPC   C4B53482  36.692  17.696   7.158
 4097POPC   NC353483  28.988   1.660   5.263
 4097POPC   PO453484  29.108   2.347   5.290
 4097POPC   GL153485  29.032   2.039   5.633
 4097POPC   GL253486  29.279   1.799   5.661
 4097POPC   C1A53487  28.898   2.027   6.097
 4097POPC   D2A53488  29.071   2.167   6.505
 4097POPC   C3A53489  28.916   1.925   6.873
 4097POPC   C4A53490  29.127   1.870   7.279
 4097POPC   C1B53491  29.398   1.984   6.057
 4097POPC   C2B53492  29.584   1.999   6.466
 4097POPC   C3B53493  29.431   2.030   6.871
 4097POPC   C4B53494  29.549   2.279   7.232
 4098POPC   NC353495  30.802  14.882   5.357
 4098POPC   PO453496  31.203  15.281   5.511
 4098POPC   GL153497  30.954  15.073   5.859
 4098POPC   GL253498  30.573  15.007   5.817
 4098POPC   C1A53499  30.794  15.113   6.307
 4098POPC   D2A53500  30.811  15.316   6.753
 4098POPC   C3A53501  30.539  15.321   7.152
 4098POPC   C4A53502  30.585  15.371   7.627
 4098POPC   C1B53503  30.377  14.815   6.187
 4098POPC   C2B53504  30.480  14.868   6.635
 4098POPC   C3B53505  30.753  14.875   6.998
 4098POPC   C4B53506  30.648  14.901   7.429
 4099POPC   NC353507  23.005  33.996   5.373
 4099POPC   PO453508  23.034  33.349   5.256
 4099POPC   GL153509  23.122  33.578   5.697
 4099POPC   GL253510  23.168  33.941   5.835
 4099POPC   C1A53511  23.057  33.606   6.185
 4099POPC   D2A53512  23.100  33.297   6.535
 4099POPC   C3A53513  23.021  33.462   6.959
 4099POPC   C4A53514  23.130  33.793   7.230
 4099POPC   C1B53515  22.829  34.111   6.041
 4099POPC   C2B53516  22.835  34.156   6.476
 4099POPC   C3B53517  22.835  34.099   6.917
 4099POPC   C4B53518  22.897  34.248   7.356
 4100POPC   NC353519  10.869  26.903   5.087
 4100POPC   PO453520  11.374  26.655   5.282
 4100POPC   GL153521  11.462  26.640   5.729
 4100POPC   GL253522  11.127  26.551   5.787
 4100POPC   C1A53523  11.467  26.907   6.105
 4100POPC   D2A53524  11.133  26.948   6.444
 4100POPC   C3A53525  11.236  26.877   6.907
 4100POPC   C4A53526  11.587  26.939   7.190
 4100POPC   C1B53527  11.279  26.445   6.197
 4100POPC   C2B53528  11.507  26.617   6.546
 4100POPC   C3B53529  11.546  26.472   6.966
 4100POPC   C4B53530  11.203  26.441   7.278
 4101POPC   NC353531  25.738  17.908   5.458
 4101POPC   PO453532  26.185  17.510   5.417
 4101POPC   GL153533  26.028  17.642   5.846
 4101POPC   GL253534  25.990  17.992   5.913
 4101POPC   C1A53535  26.014  17.510   6.300
 4101POPC   D2A53536  25.781  17.298   6.647
 4101POPC   C3A53537  25.887  17.327   7.105
 4101POPC   C4A53538  25.734  17.136   7.473
 4101POPC   C1B53539  25.917  17.996   6.375
 4101POPC   C2B53540  25.960  17.754   6.775
 4101POPC   C3B53541  25.769  17.853   7.168
 4101POPC   C4B53542  25.966  18.094   7.521
 4102POPC   NC353543   7.359  34.060   5.519
 4102POPC   PO453544   7.072  33.452   5.427
 4102POPC   GL153545   7.266  33.646   5.806
 4102POPC   GL253546   7.612  33.624   5.727
 4102POPC   C1A53547   7.362  33.770   6.266
 4102POPC   D2A53548   7.290  33.712   6.701
 4102POPC   C3A53549   7.294  33.869   7.064
 4102POPC   C4A53550   7.108  33.615   7.263
 4102POPC   C1B53551   7.834  33.805   6.083
 4102POPC   C2B53552   7.880  33.809   6.543
 4102POPC   C3B53553   7.742  33.648   6.946
 4102POPC   C4B53554   7.597  33.487   7.338
 4103POPC   NC353555  41.438   5.812   5.306
 4103POPC   PO453556  42.073   5.932   5.266
 4103POPC   GL153557  41.853   5.961   5.697
 4103POPC   GL253558  41.549   6.101   5.750
 4103POPC   C1A53559  41.797   5.841   6.163
 4103POPC   D2A53560  41.725   5.652   6.587
 4103POPC   C3A53561  41.741   5.877   6.980
 4103POPC   C4A53562  41.736   6.035   7.420
 4103POPC   C1B53563  41.520   6.263   6.174
 4103POPC   C2B53564  41.497   6.174   6.618
 4103POPC   C3B53565  41.438   6.301   7.046
 4103POPC   C4B53566  41.262   6.292   7.476
 4104POPC   NC353567   6.638  38.903   4.989
 4104POPC   PO453568   6.599  39.488   5.287
 4104POPC   GL153569   6.685  39.221   5.699
 4104POPC   GL253570   6.917  38.908   5.710
 4104POPC   C1A53571   6.662  39.256   6.173
 4104POPC   D2A53572   6.880  39.283   6.592
 4104POPC   C3A53573   6.526  39.176   6.868
 4104POPC   C4A53574   6.391  39.446   7.213
 4104POPC   C1B53575   7.076  38.965   6.141
 4104POPC   C2B53576   7.231  38.870   6.551
 4104POPC   C3B53577   7.022  38.861   6.935
 4104POPC   C4B53578   6.865  39.176   7.236
 4105POPC   NC353579   8.607  22.642   5.332
 4105POPC   PO453580   8.766  23.253   5.531
 4105POPC   GL153581   9.118  23.091   5.729
 4105POPC   GL253582   8.918  22.781   5.790
 4105POPC   C1A53583   9.180  23.079   6.175
 4105POPC   D2A53584   8.817  23.045   6.456
 4105POPC   C3A53585   8.927  22.877   6.851
 4105POPC   C4A53586   8.733  22.944   7.236
 4105POPC   C1B53587   8.660  22.639   6.161
 4105POPC   C2B53588   8.657  22.499   6.610
 4105POPC   C3B53589   8.683  22.473   7.077
 4105POPC   C4B53590   9.125  22.498   7.244
 4106POPC   NC353591  13.190  31.435   5.381
 4106POPC   PO453592  12.575  31.640   5.413
 4106POPC   GL153593  12.668  31.358   5.806
 4106POPC   GL253594  13.047  31.290   5.876
 4106POPC   C1A53595  12.697  31.429   6.275
 4106POPC   D2A53596  12.598  31.674   6.654
 4106POPC   C3A53597  12.593  31.420   7.015
 4106POPC   C4A53598  12.935  31.354   7.303
 4106POPC   C1B53599  13.197  31.443   6.312
 4106POPC   C2B53600  13.109  31.728   6.662
 4106POPC   C3B53601  12.996  31.829   7.105
 4106POPC   C4B53602  13.222  31.738   7.511
 4107POPC   NC353603   6.264  42.664   5.591
 4107POPC   PO453604   6.678  42.237   5.269
 4107POPC   GL153605   6.792  42.467   5.707
 4107POPC   GL253606   6.613  42.730   5.959
 4107POPC   C1A53607   6.941  42.379   6.156
 4107POPC   D2A53608   6.738  42.413   6.560
 4107POPC   C3A53609   6.898  42.372   6.973
 4107POPC   C4A53610   6.652  42.150   7.223
 4107POPC   C1B53611   6.289  42.543   6.276
 4107POPC   C2B53612   6.270  42.501   6.757
 4107POPC   C3B53613   6.462  42.605   7.179
 4107POPC   C4B53614   6.413  42.405   7.612
 4108POPC   NC353615  22.737  33.159   5.553
 4108POPC   PO453616  23.346  32.833   5.553
 4108POPC   GL153617  23.032  32.857   5.868
 4108POPC   GL253618  23.008  33.160   5.975
 4108POPC   C1A53619  22.856  32.773   6.288
 4108POPC   D2A53620  23.066  32.664   6.658
 4108POPC   C3A53621  23.007  32.959   6.938
 4108POPC   C4A53622  22.911  33.005   7.334
 4108POPC   C1B53623  22.673  33.260   6.232
 4108POPC   C2B53624  22.643  33.123   6.628
 4108POPC   C3B53625  22.537  33.196   7.024
 4108POPC   C4B53626  22.682  33.478   7.355
 4109POPC   NC353627  32.347  11.531   5.465
 4109POPC   PO453628  32.556  10.886   5.478
 4109POPC   GL153629  32.430  11.173   5.858
 4109POPC   GL253630  32.112  11.382   5.889
 4109POPC   C1A53631  32.358  11.189   6.324
 4109POPC   D2A53632  32.572  11.462   6.639
 4109POPC   C3A53633  32.438  11.505   7.069
 4109POPC   C4A53634  32.305  11.208   7.403
 4109POPC   C1B53635  32.212  11.655   6.270
 4109POPC   C2B53636  32.043  11.514   6.674
 4109POPC   C3B53637  31.938  11.487   7.107
 4109POPC   C4B53638  32.063  11.661   7.475
 4110POPC   NC353639  37.565  23.265   5.571
 4110POPC   PO453640  37.267  22.632   5.575
 4110POPC   GL153641  37.458  22.860   5.891
 4110POPC   GL253642  37.808  22.972   5.935
 4110POPC   C1A53643  37.483  22.761   6.306
 4110POPC   D2A53644  37.720  22.916   6.623
 4110POPC   C3A53645  37.500  23.104   6.959
 4110POPC   C4A53646  37.416  22.787   7.250
 4110POPC   C1B53647  37.687  23.282   6.244
 4110POPC   C2B53648  37.834  23.417   6.650
 4110POPC   C3B53649  38.038  23.139   6.969
 4110POPC   C4B53650  38.024  23.130   7.432
 4111POPC   NC353651  43.536   4.526   5.548
 4111POPC   PO453652  44.017   4.180   5.455
 4111POPC   GL153653  43.888   4.304   5.848
 4111POPC   GL253654  43.600   4.113   5.893
 4111POPC   C1A53655  43.889   4.532   6.237
 4111POPC   D2A53656  43.840   4.675   6.658
 4111POPC   C3A53657  43.887   4.385   7.002
 4111POPC   C4A53658  43.718   4.409   7.412
 4111POPC   C1B53659  43.592   4.160   6.345
 4111POPC   C2B53660  43.464   4.302   6.737
 4111POPC   C3B53661  43.479   4.060   7.122
 4111POPC   C4B53662  43.781   3.919   7.430
 4112POPC   NC353663  12.748  40.401   5.475
 4112POPC   PO453664  13.091  39.751   5.503
 4112POPC   GL153665  12.801  39.817   5.852
 4112POPC   GL253666  12.753  40.161   5.911
 4112POPC   C1A53667  12.734  39.890   6.327
 4112POPC   D2A53668  12.933  40.044   6.677
 4112POPC   C3A53669  13.021  39.840   7.062
 4112POPC   C4A53670  12.673  39.968   7.300
 4112POPC   C1B53671  12.975  40.348   6.252
 4112POPC   C2B53672  12.981  40.545   6.666
 4112POPC   C3B53673  12.947  40.376   7.082
 4112POPC   C4B53674  13.012  40.280   7.523
 4113POPC   NC353675  34.253  13.989   5.357
 4113POPC   PO453676  33.826  13.418   5.383
 4113POPC   GL153677  33.771  13.596   5.799
 4113POPC   GL253678  33.988  13.406   5.942
 4113POPC   C1A53679  33.638  13.749   6.214
 4113POPC   D2A53680  33.632  13.535   6.598
 4113POPC   C3A53681  33.791  13.670   6.994
 4113POPC   C4A53682  33.807  13.991   7.305
 4113POPC   C1B53683  34.159  13.352   6.301
 4113POPC   C2B53684  34.026  13.182   6.633
 4113POPC   C3B53685  34.175  13.224   7.023
 4113POPC   C4B53686  33.984  13.152   7.411
 4114POPC   NC353687  25.641   9.546   5.417
 4114POPC   PO453688  26.181   9.929   5.452
 4114POPC   GL153689  26.160   9.659   5.834
 4114POPC   GL253690  25.836   9.536   5.885
 4114POPC   C1A53691  26.101   9.657   6.307
 4114POPC   D2A53692  26.264   9.716   6.711
 4114POPC   C3A53693  26.242  10.079   6.922
 4114POPC   C4A53694  26.124   9.966   7.316
 4114POPC   C1B53695  25.716   9.299   6.219
 4114POPC   C2B53696  25.696   9.471   6.599
 4114POPC   C3B53697  25.836   9.599   6.982
 4114POPC   C4B53698  25.651   9.755   7.348
 4115POPC   NC353699  43.726  38.044   5.657
 4115POPC   PO453700  44.069  38.599   5.374
 4115POPC   GL153701  44.060  38.447   5.801
 4115POPC   GL253702  44.221  38.100   5.869
 4115POPC   C1A53703  43.851  38.532   6.190
 4115POPC   D2A53704  43.792  38.720   6.592
 4115POPC   C3A53705  43.765  38.428   6.909
 4115POPC   C4A53706  43.914  38.579   7.283
 4115POPC   C1B53707  44.231  38.193   6.315
 4115POPC   C2B53708  44.266  38.221   6.773
 4115POPC   C3B53709  44.093  38.137   7.181
 4115POPC   C4B53710  43.633  38.108   7.329
 4116POPC   NC353711   8.226   4.586   5.462
 4116POPC   PO453712   8.124   3.959   5.297
 4116POPC   GL153713   8.139   3.935   5.769
 4116POPC   GL253714   8.433   4.123   5.850
 4116POPC   C1A53715   8.025   4.104   6.227
 4116POPC   D2A53716   8.061   4.492   6.535
 4116POPC   C3A53717   8.026   4.441   7.000
 4116POPC   C4A53718   8.279   4.258   7.352
 4116POPC   C1B53719   8.520   4.261   6.305
 4116POPC   C2B53720   8.482   4.255   6.775
 4116POPC   C3B53721   8.665   4.516   7.111
 4116POPC   C4B53722   8.663   4.621   7.577
 4117POPC   NC353723  11.559  12.465   5.314
 4117POPC   PO453724  11.311  13.122   5.428
 4117POPC   GL153725  11.378  12.982   5.814
 4117POPC   GL253726  11.267  12.666   5.706
 4117POPC   C1A53727  11.283  12.968   6.228
 4117POPC   D2A53728  11.029  12.969   6.572
 4117POPC   C3A53729  11.231  12.794   6.874
 4117POPC   C4A53730  11.259  12.866   7.278
 4117POPC   C1B53731  11.043  12.539   6.066
 4117POPC   C2B53732  11.138  12.484   6.475
 4117POPC   C3B53733  10.966  12.345   6.841
 4117POPC   C4B53734  11.090  12.380   7.256
 4118POPC   NC353735  35.250  44.263   5.040
 4118POPC   PO453736  35.173  44.795   5.428
 4118POPC   GL153737  35.219  44.618   5.823
 4118POPC   GL253738  35.348  44.924   5.935
 4118POPC   C1A53739  35.448  44.496   6.226
 4118POPC   D2A53740  35.336  44.334   6.636
 4118POPC   C3A53741  35.542  44.401   7.019
 4118POPC   C4A53742  35.377  44.464   7.459
 4118POPC   C1B53743  35.560   0.010   6.329
 4118POPC   C2B53744  35.470  44.829   6.730
 4118POPC   C3B53745  35.476  44.891   7.183
 4118POPC   C4B53746  35.360  44.966   7.590
 4119POPC   NC353747  40.181  33.194   5.476
 4119POPC   PO453748  39.853  32.671   5.182
 4119POPC   GL153749  39.785  32.843   5.638
 4119POPC   GL253750  39.737  33.206   5.717
 4119POPC   C1A53751  39.828  32.754   6.115
 4119POPC   D2A53752  40.204  32.874   6.430
 4119POPC   C3A53753  40.156  33.025   6.882
 4119POPC   C4A53754  39.890  32.830   7.246
 4119POPC   C1B53755  39.984  33.236   6.093
 4119POPC   C2B53756  39.876  33.261   6.508
 4119POPC   C3B53757  39.682  33.218   6.899
 4119POPC   C4B53758  39.816  33.356   7.276
 4120POPC   NC353759   4.128  39.147   5.323
 4120POPC   PO453760   4.673  39.519   5.388
 4120POPC   GL153761   4.456  39.289   5.737
 4120POPC   GL253762   4.422  38.900   5.665
 4120POPC   C1A53763   4.351  39.452   6.189
 4120POPC   D2A53764   4.115  39.437   6.587
 4120POPC   C3A53765   4.358  39.344   6.955
 4120POPC   C4A53766   4.236  39.375   7.419
 4120POPC   C1B53767   4.219  38.957   6.035
 4120POPC   C2B53768   4.273  38.976   6.464
 4120POPC   C3B53769   4.121  38.898   6.886
 4120POPC   C4B53770   4.377  38.910   7.246
 4121POPC   NC353771  27.551   1.295   5.114
 4121POPC   PO453772  27.600   0.833   5.492
 4121POPC   GL153773  27.435   1.077   5.807
 4121POPC   GL253774  27.712   1.290   5.783
 4121POPC   C1A53775  27.354   1.312   6.193
 4121POPC   D2A53776  27.214   1.537   6.553
 4121POPC   C3A53777  27.422   1.437   6.917
 4121POPC   C4A53778  27.304   1.189   7.259
 4121POPC   C1B53779  27.846   1.127   6.191
 4121POPC   C2B53780  28.140   1.245   6.520
 4121POPC   C3B53781  28.098   1.145   6.951
 4121POPC   C4B53782  27.816   1.298   7.231
 4122POPC   NC353783   9.120  37.798   5.619
 4122POPC   PO453784   8.547  37.480   5.343
 4122POPC   GL153785   8.625  37.654   5.773
 4122POPC   GL253786   8.868  37.403   5.832
 4122POPC   C1A53787   8.766  37.625   6.260
 4122POPC   D2A53788   8.712  37.769   6.704
 4122POPC   C3A53789   9.008  37.918   7.018
 4122POPC   C4A53790   8.783  38.010   7.418
 4122POPC   C1B53791   9.217  37.351   6.173
 4122POPC   C2B53792   9.201  37.542   6.588
 4122POPC   C3B53793   9.132  37.425   7.007
 4122POPC   C4B53794   9.352  37.456   7.400
 4123POPC   NC353795   5.530  42.070   5.407
 4123POPC   PO453796   5.890  42.642   5.305
 4123POPC   GL153797   5.584  42.544   5.659
 4123POPC   GL253798   5.779  42.296   5.807
 4123POPC   C1A53799   5.650  42.641   6.143
 4123POPC   D2A53800   5.601  42.556   6.605
 4123POPC   C3A53801   5.835  42.673   7.003
 4123POPC   C4A53802   6.053  42.319   7.220
 4123POPC   C1B53803   5.713  42.120   6.238
 4123POPC   C2B53804   5.717  42.053   6.686
 4123POPC   C3B53805   5.511  42.208   7.063
 4123POPC   C4B53806   5.627  42.284   7.490
 4124POPC   NC353807   7.867  22.527   5.135
 4124POPC   PO453808   8.295  22.373   5.583
 4124POPC   GL153809   8.171  22.201   5.947
 4124POPC   GL253810   8.171  21.876   5.771
 4124POPC   C1A53811   8.208  22.382   6.383
 4124POPC   D2A53812   8.211  22.430   6.852
 4124POPC   C3A53813   7.972  22.388   7.236
 4124POPC   C4A53814   8.027  22.373   7.679
 4124POPC   C1B53815   8.277  21.752   6.185
 4124POPC   C2B53816   8.170  21.895   6.571
 4124POPC   C3B53817   8.023  21.954   6.978
 4124POPC   C4B53818   7.926  21.920   7.432
 4125POPC   NC353819  44.905  22.436   5.447
 4125POPC   PO453820  44.386  21.959   5.428
 4125POPC   GL153821  44.603  22.098   5.755
 4125POPC   GL253822  44.469  22.409   5.809
 4125POPC   C1A53823  44.588  22.074   6.212
 4125POPC   D2A53824  44.900  22.057   6.552
 4125POPC   C3A53825  44.771  21.912   6.963
 4125POPC   C4A53826  44.606  22.046   7.348
 4125POPC   C1B53827  44.688  22.561   6.123
 4125POPC   C2B53828  44.571  22.487   6.541
 4125POPC   C3B53829  44.797  22.434   6.903
 4125POPC   C4B53830  44.674  22.568   7.300
 4126POPC   NC353831   5.770  41.382   5.503
 4126POPC   PO453832   6.076  42.029   5.467
 4126POPC   GL153833   5.892  41.782   5.826
 4126POPC   GL253834   5.547  41.830   5.848
 4126POPC   C1A53835   5.761  41.552   6.227
 4126POPC   D2A53836   5.726  41.291   6.604
 4126POPC   C3A53837   5.938  41.446   6.957
 4126POPC   C4A53838   5.902  41.827   7.192
 4126POPC   C1B53839   5.300  41.785   6.186
 4126POPC   C2B53840   5.331  41.635   6.561
 4126POPC   C3B53841   5.466  41.706   6.957
 4126POPC   C4B53842   5.440  41.719   7.391
 4127POPC   NC353843  21.811  19.757   5.516
 4127POPC   PO453844  21.119  19.635   5.406
 4127POPC   GL153845  21.338  19.835   5.733
 4127POPC   GL253846  21.431  19.548   5.862
 4127POPC   C1A53847  21.522  19.949   6.167
 4127POPC   D2A53848  21.471  20.063   6.614
 4127POPC   C3A53849  21.591  19.836   6.982
 4127POPC   C4A53850  21.368  20.026   7.310
 4127POPC   C1B53851  21.786  19.492   6.155
 4127POPC   C2B53852  21.839  19.550   6.602
 4127POPC   C3B53853  21.748  19.313   6.980
 4127POPC   C4B53854  21.454  19.443   7.324
 4128POPC   NC353855  28.738  27.585   5.467
 4128POPC   PO453856  29.303  27.792   5.208
 4128POPC   GL153857  29.205  27.725   5.669
 4128POPC   GL253858  29.066  27.395   5.795
 4128POPC   C1A53859  29.230  27.738   6.149
 4128POPC   D2A53860  29.094  27.616   6.578
 4128POPC   C3A53861  29.195  27.795   6.992
 4128POPC   C4A53862  28.997  27.711   7.361
 4128POPC   C1B53863  29.114  27.226   6.192
 4128POPC   C2B53864  29.443  27.230   6.461
 4128POPC   C3B53865  29.478  27.363   6.861
 4128POPC   C4B53866  29.199  27.264   7.176
 4129POPC   NC353867  20.805   2.734   5.419
 4129POPC   PO453868  20.150   2.685   5.340
 4129POPC   GL153869  20.436   2.612   5.760
 4129POPC   GL253870  20.691   2.327   5.828
 4129POPC   C1A53871  20.693   2.757   6.142
 4129POPC   D2A53872  20.969   2.862   6.498
 4129POPC   C3A53873  20.783   2.790   6.893
 4129POPC   C4A53874  20.440   2.905   7.162
 4129POPC   C1B53875  20.442   2.289   6.222
 4129POPC   C2B53876  20.324   2.204   6.646
 4129POPC   C3B53877  20.484   2.386   7.042
 4129POPC   C4B53878  20.362   2.433   7.484
 4130POPC   NC353879  33.124   5.052   5.399
 4130POPC   PO453880  32.717   5.598   5.343
 4130POPC   GL153881  32.783   5.333   5.716
 4130POPC   GL253882  33.128   5.351   5.806
 4130POPC   C1A53883  32.807   5.104   6.123
 4130POPC   D2A53884  32.715   5.200   6.557
 4130POPC   C3A53885  32.934   5.184   6.957
 4130POPC   C4A53886  32.666   5.372   7.231
 4130POPC   C1B53887  33.366   5.212   6.146
 4130POPC   C2B53888  33.250   4.974   6.498
 4130POPC   C3B53889  33.428   5.034   6.880
 4130POPC   C4B53890  33.357   5.095   7.309
 4131POPC   NC353891   0.403   3.765   5.437
 4131POPC   PO453892   0.287   3.065   5.506
 4131POPC   GL153893   0.504   3.365   5.798
 4131POPC   GL253894   0.559   3.102   5.995
 4131POPC   C1A53895   0.606   3.514   6.278
 4131POPC   D2A53896   0.432   3.534   6.709
 4131POPC   C3A53897   0.735   3.588   7.071
 4131POPC   C4A53898   0.686   3.773   7.483
 4131POPC   C1B53899   0.153   3.349   6.174
 4131POPC   C2B53900  44.916   3.496   6.533
 4131POPC   C3B53901   0.015   3.385   6.960
 4131POPC   C4B53902   0.276   3.521   7.266
 4132POPC   NC353903  25.160  25.303   5.326
 4132POPC   PO453904  25.790  25.236   5.436
 4132POPC   GL153905  25.438  25.327   5.762
 4132POPC   GL253906  25.107  25.104   5.788
 4132POPC   C1A53907  25.459  25.283   6.213
 4132POPC   D2A53908  25.637  25.320   6.646
 4132POPC   C3A53909  25.440  25.347   7.090
 4132POPC   C4A53910  25.122  25.482   7.426
 4132POPC   C1B53911  24.952  25.037   6.206
 4132POPC   C2B53912  25.124  25.230   6.601
 4132POPC   C3B53913  24.938  25.340   6.978
 4132POPC   C4B53914  24.769  25.105   7.331
 4133POPC   NC353915  42.431  11.993   5.297
 4133POPC   PO453916  41.772  12.099   5.388
 4133POPC   GL153917  42.072  11.932   5.761
 4133POPC   GL253918  42.439  12.028   5.803
 4133POPC   C1A53919  42.217  11.939   6.242
 4133POPC   D2A53920  42.271  12.214   6.642
 4133POPC   C3A53921  42.242  12.067   7.102
 4133POPC   C4A53922  42.058  12.250   7.547
 4133POPC   C1B53923  42.531  12.353   6.169
 4133POPC   C2B53924  42.737  12.403   6.596
 4133POPC   C3B53925  42.690  12.391   7.057
 4133POPC   C4B53926  42.734  12.231   7.495
 4134POPC   NC353927  14.474   4.196   5.340
 4134POPC   PO453928  14.049   4.526   5.687
 4134POPC   GL153929  14.491   4.417   5.862
 4134POPC   GL253930  14.738   4.140   5.772
 4134POPC   C1A53931  14.470   4.438   6.303
 4134POPC   D2A53932  14.199   4.585   6.621
 4134POPC   C3A53933  14.250   4.497   7.015
 4134POPC   C4A53934  13.992   4.230   7.192
 4134POPC   C1B53935  14.909   4.211   6.178
 4134POPC   C2B53936  14.903   4.320   6.627
 4134POPC   C3B53937  14.723   4.313   7.076
 4134POPC   C4B53938  14.712   4.101   7.478
 4135POPC   NC353939  24.712  28.525   5.416
 4135POPC   PO453940  24.482  28.045   5.740
 4135POPC   GL153941  24.548  28.463   5.957
 4135POPC   GL253942  24.345  28.697   5.777
 4135POPC   C1A53943  24.605  28.576   6.421
 4135POPC   D2A53944  24.782  28.487   6.826
 4135POPC   C3A53945  24.509  28.178   7.033
 4135POPC   C4A53946  24.203  28.282   7.333
 4135POPC   C1B53947  24.212  28.824   6.197
 4135POPC   C2B53948  24.137  28.687   6.642
 4135POPC   C3B53949  24.329  28.748   7.050
 4135POPC   C4B53950  24.129  28.754   7.495
 4136POPC   NC353951   3.055  30.549   5.492
 4136POPC   PO453952   2.458  30.335   5.607
 4136POPC   GL153953   2.710  30.685   5.869
 4136POPC   GL253954   2.956  30.974   5.910
 4136POPC   C1A53955   2.841  30.768   6.323
 4136POPC   D2A53956   2.912  30.554   6.610
 4136POPC   C3A53957   2.735  30.562   6.951
 4136POPC   C4A53958   2.819  30.356   7.297
 4136POPC   C1B53959   2.545  31.132   6.165
 4136POPC   C2B53960   2.450  31.245   6.621
 4136POPC   C3B53961   2.677  31.099   7.002
 4136POPC   C4B53962   2.858  30.867   7.350
 4137POPC   NC353963   5.525  28.046   5.412
 4137POPC   PO453964   4.745  28.284   5.327
 4137POPC   GL153965   4.896  28.225   5.744
 4137POPC   GL253966   5.104  27.956   5.706
 4137POPC   C1A53967   4.977  28.321   6.207
 4137POPC   D2A53968   5.324  28.510   6.445
 4137POPC   C3A53969   5.279  28.681   6.857
 4137POPC   C4A53970   5.157  28.575   7.246
 4137POPC   C1B53971   5.326  27.961   6.085
 4137POPC   C2B53972   5.308  27.865   6.537
 4137POPC   C3B53973   5.252  28.135   6.915
 4137POPC   C4B53974   5.490  28.196   7.303
 4138POPC   NC353975  33.644  43.437   5.265
 4138POPC   PO453976  33.556  44.101   5.210
 4138POPC   GL153977  33.755  44.104   5.639
 4138POPC   GL253978  33.769  43.744   5.707
 4138POPC   C1A53979  33.773  44.104   6.113
 4138POPC   D2A53980  33.948  43.908   6.515
 4138POPC   C3A53981  33.797  44.023   6.918
 4138POPC   C4A53982  34.126  44.075   7.219
 4138POPC   C1B53983  33.941  43.597   6.109
 4138POPC   C2B53984  33.874  43.355   6.484
 4138POPC   C3B53985  33.859  43.500   6.886
 4138POPC   C4B53986  33.791  43.639   7.270
 4139POPC   NC353987  31.974  21.911   5.391
 4139POPC   PO453988  32.447  22.444   5.420
 4139POPC   GL153989  32.179  22.309   5.740
 4139POPC   GL253990  32.360  22.018   5.835
 4139POPC   C1A53991  32.249  22.366   6.206
 4139POPC   D2A53992  32.084  22.172   6.589
 4139POPC   C3A53993  32.223  22.310   6.970
 4139POPC   C4A53994  32.465  22.085   7.236
 4139POPC   C1B53995  32.239  21.846   6.240
 4139POPC   C2B53996  31.910  21.672   6.551
 4139POPC   C3B53997  31.754  21.774   6.992
 4139POPC   C4B53998  31.976  21.854   7.418
 4140POPC   NC353999  31.213  35.653   5.365
 4140POPC   PO454000  31.821  35.245   5.443
 4140POPC   GL154001  31.579  35.314   5.803
 4140POPC   GL254002  31.473  35.650   5.800
 4140POPC   C1A54003  31.685  35.312   6.248
 4140POPC   D2A54004  31.514  35.115   6.635
 4140POPC   C3A54005  31.417  35.420   6.928
 4140POPC   C4A54006  31.646  35.614   7.239
 4140POPC   C1B54007  31.287  35.767   6.191
 4140POPC   C2B54008  31.229  35.791   6.637
 4140POPC   C3B54009  31.212  35.870   7.095
 4140POPC   C4B54010  30.922  35.753   7.427
 4141POPC   NC354011  15.942  20.999   5.212
 4141POPC   PO454012  15.837  21.545   5.274
 4141POPC   GL154013  15.882  21.309   5.716
 4141POPC   GL254014  15.856  20.956   5.867
 4141POPC   C1A54015  15.854  21.406   6.176
 4141POPC   D2A54016  16.046  21.382   6.609
 4141POPC   C3A54017  15.916  21.075   6.947
 4141POPC   C4A54018  15.862  21.391   7.270
 4141POPC   C1B54019  16.029  20.951   6.331
 4141POPC   C2B54020  16.354  20.979   6.687
 4141POPC   C3B54021  16.365  21.256   7.083
 4141POPC   C4B54022  16.224  21.171   7.550
 4142POPC   NC354023  32.669  22.032   5.433
 4142POPC   PO454024  33.242  22.207   5.380
 4142POPC   GL154025  33.022  22.229   5.784
 4142POPC   GL254026  32.880  21.895   5.878
 4142POPC   C1A54027  33.201  22.203   6.201
 4142POPC   D2A54028  33.102  22.058   6.619
 4142POPC   C3A54029  32.932  22.215   6.999
 4142POPC   C4A54030  33.228  22.236   7.283
 4142POPC   C1B54031  32.696  22.106   6.234
 4142POPC   C2B54032  32.587  22.004   6.650
 4142POPC   C3B54033  32.778  21.730   6.977
 4142POPC   C4B54034  32.862  21.803   7.418
 4143POPC   NC354035  21.304  11.763   5.308
 4143POPC   PO454036  20.684  11.977   5.342
 4143POPC   GL154037  20.767  12.172   5.749
 4143POPC   GL254038  20.437  12.303   5.796
 4143POPC   C1A54039  20.778  12.026   6.179
 4143POPC   D2A54040  20.519  12.008   6.556
 4143POPC   C3A54041  20.762  11.975   6.924
 4143POPC   C4A54042  20.716  12.149   7.341
 4143POPC   C1B54043  20.485  12.434   6.224
 4143POPC   C2B54044  20.378  12.511   6.656
 4143POPC   C3B54045  20.306  12.252   7.046
 4143POPC   C4B54046  20.231  12.146   7.532
 4144POPC   NC354047  14.842  21.419   5.761
 4144POPC   PO454048  14.244  21.496   5.456
 4144POPC   GL154049  14.366  21.216   5.839
 4144POPC   GL254050  14.093  21.004   5.957
 4144POPC   C1A54051  14.559  21.229   6.301
 4144POPC   D2A54052  14.701  21.517   6.660
 4144POPC   C3A54053  14.551  21.332   7.045
 4144POPC   C4A54054  14.521  21.139   7.482
 4144POPC   C1B54055  14.069  21.334   6.246
 4144POPC   C2B54056  14.193  21.455   6.643
 4144POPC   C3B54057  14.043  21.604   7.014
 4144POPC   C4B54058  14.203  21.521   7.412
 4145POPC   NC354059  11.036   4.126   5.415
 4145POPC   PO454060  10.516   4.539   5.286
 4145POPC   GL154061  10.426   4.505   5.711
 4145POPC   GL254062  10.686   4.277   5.769
 4145POPC   C1A54063  10.219   4.615   6.115
 4145POPC   D2A54064  10.051   4.375   6.464
 4145POPC   C3A54065  10.146   4.541   6.867
 4145POPC   C4A54066  10.202   4.415   7.270
 4145POPC   C1B54067  10.607   4.286   6.202
 4145POPC   C2B54068  10.595   4.422   6.609
 4145POPC   C3B54069  10.521   4.181   6.954
 4145POPC   C4B54070  10.690   4.230   7.343
 4146POPC   NC354071  27.725  29.027   5.264
 4146POPC   PO454072  27.321  29.630   5.395
 4146POPC   GL154073  27.448  29.453   5.876
 4146POPC   GL254074  27.202  29.227   6.075
 4146POPC   C1A54075  27.734  29.285   6.161
 4146POPC   D2A54076  27.834  29.377   6.583
 4146POPC   C3A54077  27.596  29.279   6.964
 4146POPC   C4A54078  27.803  29.214   7.395
 4146POPC   C1B54079  27.407  28.856   6.190
 4146POPC   C2B54080  27.689  28.898   6.522
 4146POPC   C3B54081  27.579  28.767   6.890
 4146POPC   C4B54082  27.467  28.868   7.282
 4147POPC   NC354083  29.465   8.718   5.428
 4147POPC   PO454084  30.123   8.702   5.451
 4147POPC   GL154085  29.861   8.671   5.822
 4147POPC   GL254086  29.605   8.946   5.852
 4147POPC   C1A54087  29.791   8.644   6.265
 4147POPC   D2A54088  29.739   8.473   6.672
 4147POPC   C3A54089  29.789   8.800   6.985
 4147POPC   C4A54090  30.063   9.120   7.074
 4147POPC   C1B54091  29.869   9.148   6.154
 4147POPC   C2B54092  30.025   9.250   6.563
 4147POPC   C3B54093  29.738   9.433   6.834
 4147POPC   C4B54094  29.537   9.493   7.203
 4148POPC   NC354095  10.894  13.848   5.521
 4148POPC   PO454096  10.445  13.434   5.308
 4148POPC   GL154097  10.619  13.421   5.725
 4148POPC   GL254098  10.387  13.137   5.762
 4148POPC   C1A54099  10.619  13.693   6.111
 4148POPC   D2A54100  10.383  13.749   6.498
 4148POPC   C3A54101  10.656  13.819   6.855
 4148POPC   C4A54102  10.749  13.645   7.262
 4148POPC   C1B54103  10.370  13.248   6.199
 4148POPC   C2B54104  10.164  13.271   6.584
 4148POPC   C3B54105  10.341  13.403   6.960
 4148POPC   C4B54106  10.520  13.165   7.247
 4149POPC   NC354107  13.747   9.430   5.315
 4149POPC   PO454108  13.425  10.052   5.334
 4149POPC   GL154109  13.603   9.771   5.675
 4149POPC   GL254110  13.438   9.435   5.742
 4149POPC   C1A54111  13.745   9.630   6.089
 4149POPC   D2A54112  13.548   9.741   6.465
 4149POPC   C3A54113  13.719   9.687   6.841
 4149POPC   C4A54114  13.588   9.824   7.202
 4149POPC   C1B54115  13.332   9.329   6.199
 4149POPC   C2B54116  13.236   9.335   6.639
 4149POPC   C3B54117  13.359   9.371   7.036
 4149POPC   C4B54118  13.151   9.497   7.370
 4150POPC   NC354119  35.914  42.138   5.356
 4150POPC   PO454120  36.120  42.752   5.507
 4150POPC   GL154121  36.321  42.572   5.849
 4150POPC   GL254122  36.032  42.687   6.040
 4150POPC   C1A54123  36.374  42.324   6.266
 4150POPC   D2A54124  36.335  42.195   6.724
 4150POPC   C3A54125  36.176  42.532   6.976
 4150POPC   C4A54126  35.989  42.648   7.380
 4150POPC   C1B54127  35.839  42.297   6.167
 4150POPC   C2B54128  35.702  42.096   6.539
 4150POPC   C3B54129  35.856  42.122   6.943
 4150POPC   C4B54130  35.810  41.967   7.347
 4151POPC   NC354131  31.968   3.861   5.507
 4151POPC   PO454132  32.444   3.281   5.363
 4151POPC   GL154133  32.191   3.435   5.706
 4151POPC   GL254134  32.323   3.766   5.857
 4151POPC   C1A54135  32.186   3.330   6.149
 4151POPC   D2A54136  32.467   3.357   6.504
 4151POPC   C3A54137  32.246   3.451   6.852
 4151POPC   C4A54138  32.176   3.326   7.244
 4151POPC   C1B54139  32.040   3.929   6.205
 4151POPC   C2B54140  31.926   3.977   6.669
 4151POPC   C3B54141  31.904   3.780   7.101
 4151POPC   C4B54142  31.870   3.616   7.545
 4152POPC   NC354143  20.122   5.240   5.230
 4152POPC   PO454144  19.735   4.779   5.511
 4152POPC   GL154145  19.783   4.914   5.897
 4152POPC   GL254146  20.096   4.733   6.013
 4152POPC   C1A54147  19.665   5.130   6.276
 4152POPC   D2A54148  19.704   5.324   6.661
 4152POPC   C3A54149  19.584   5.118   7.045
 4152POPC   C4A54150  19.718   4.989   7.472
 4152POPC   C1B54151  20.157   5.143   6.146
 4152POPC   C2B54152  20.199   5.353   6.528
 4152POPC   C3B54153  20.112   5.159   6.940
 4152POPC   C4B54154  20.204   5.119   7.357
 4153POPC   NC354155  28.374  36.852   5.141
 4153POPC   PO454156  28.756  37.010   5.690
 4153POPC   GL154157  28.416  36.925   5.955
 4153POPC   GL254158  28.295  37.240   5.866
 4153POPC   C1A54159  28.205  36.870   6.326
 4153POPC   D2A54160  27.981  36.831   6.682
 4153POPC   C3A54161  28.222  36.878   7.059
 4153POPC   C4A54162  28.461  36.979   7.410
 4153POPC   C1B54163  28.480  37.309   6.294
 4153POPC   C2B54164  28.309  37.251   6.705
 4153POPC   C3B54165  28.388  37.388   7.129
 4153POPC   C4B54166  28.236  37.441   7.563
 4154POPC   NC354167  40.174  14.864   5.559
 4154POPC   PO454168  39.639  14.418   5.467
 4154POPC   GL154169  39.968  14.190   5.709
 4154POPC   GL254170  39.915  14.461   5.925
 4154POPC   C1A54171  40.023  14.049   6.176
 4154POPC   D2A54172  39.944  14.403   6.461
 4154POPC   C3A54173  40.242  14.475   6.793
 4154POPC   C4A54174  40.178  14.609   7.214
 4154POPC   C1B54175  39.543  14.189   6.089
 4154POPC   C2B54176  39.556  14.070   6.533
 4154POPC   C3B54177  39.932  13.979   6.762
 4154POPC   C4B54178  40.161  14.107   7.153
 4155POPC   NC354179  11.520   9.206   5.369
 4155POPC   PO454180  11.025   8.780   5.297
 4155POPC   GL154181  11.127   9.079   5.661
 4155POPC   GL254182  11.434   8.931   5.803
 4155POPC   C1A54183  11.019   9.094   6.122
 4155POPC   D2A54184  11.068   8.946   6.564
 4155POPC   C3A54185  11.281   9.200   6.888
 4155POPC   C4A54186  11.066   9.211   7.248
 4155POPC   C1B54187  11.469   8.813   6.246
 4155POPC   C2B54188  11.566   8.796   6.697
 4155POPC   C3B54189  11.289   8.717   7.048
 4155POPC   C4B54190  11.330   8.835   7.480
 4156POPC   NC354191  12.306  25.821   5.475
 4156POPC   PO454192  11.830  26.315   5.521
 4156POPC   GL154193  12.064  26.096   5.870
 4156POPC   GL254194  12.401  26.242   5.787
 4156POPC   C1A54195  12.057  25.825   6.286
 4156POPC   D2A54196  11.834  25.901   6.684
 4156POPC   C3A54197  11.943  26.150   7.032
 4156POPC   C4A54198  12.257  25.933   7.153
 4156POPC   C1B54199  12.459  26.119   6.223
 4156POPC   C2B54200  12.336  26.109   6.656
 4156POPC   C3B54201  12.456  26.378   6.971
 4156POPC   C4B54202  12.327  26.414   7.378
 4157POPC   NC354203   3.776  21.528   5.400
 4157POPC   PO454204   3.349  20.946   5.365
 4157POPC   GL154205   3.612  21.148   5.687
 4157POPC   GL254206   3.408  21.458   5.748
 4157POPC   C1A54207   3.839  21.248   6.080
 4157POPC   D2A54208   3.649  21.316   6.496
 4157POPC   C3A54209   3.840  21.218   6.880
 4157POPC   C4A54210   3.848  21.438   7.229
 4157POPC   C1B54211   3.306  21.699   6.128
 4157POPC   C2B54212   3.343  21.853   6.536
 4157POPC   C3B54213   3.509  21.680   6.912
 4157POPC   C4B54214   3.410  21.789   7.315
 4158POPC   NC354215  42.558  38.355   5.571
 4158POPC   PO454216  42.079  38.752   5.249
 4158POPC   GL154217  42.084  38.526   5.671
 4158POPC   GL254218  41.817  38.283   5.716
 4158POPC   C1A54219  42.107  38.655   6.114
 4158POPC   D2A54220  42.390  38.665   6.438
 4158POPC   C3A54221  42.279  38.666   6.857
 4158POPC   C4A54222  42.630  38.661   7.144
 4158POPC   C1B54223  41.878  38.197   6.184
 4158POPC   C2B54224  42.191  38.206   6.571
 4158POPC   C3B54225  42.202  38.183   7.054
 4158POPC   C4B54226  42.036  38.208   7.518
 4159POPC   NC354227   1.857   1.771   5.390
 4159POPC   PO454228   2.537   1.839   5.470
 4159POPC   GL154229   2.242   2.031   5.761
 4159POPC   GL254230   1.900   1.908   5.874
 4159POPC   C1A54231   2.165   2.202   6.177
 4159POPC   D2A54232   1.765   2.050   6.374
 4159POPC   C3A54233   1.727   2.156   6.799
 4159POPC   C4A54234   1.799   2.127   7.240
 4159POPC   C1B54235   2.166   1.697   6.194
 4159POPC   C2B54236   2.011   1.663   6.611
 4159POPC   C3B54237   1.820   1.668   7.007
 4159POPC   C4B54238   2.192   1.535   7.205
 4160POPC   NC354239  23.509   5.322   5.106
 4160POPC   PO454240  22.846   5.158   5.347
 4160POPC   GL154241  22.881   5.097   5.794
 4160POPC   GL254242  22.716   4.778   5.781
 4160POPC   C1A54243  23.017   5.256   6.238
 4160POPC   D2A54244  23.212   5.010   6.589
 4160POPC   C3A54245  23.189   5.084   7.037
 4160POPC   C4A54246  23.147   5.252   7.432
 4160POPC   C1B54247  22.593   4.988   6.214
 4160POPC   C2B54248  22.702   5.127   6.635
 4160POPC   C3B54249  22.587   5.027   7.025
 4160POPC   C4B54250  22.721   4.972   7.418
 4161POPC   NC354251  23.194  44.194   5.471
 4161POPC   PO454252  22.833  43.670   5.271
 4161POPC   GL154253  22.991  43.709   5.686
 4161POPC   GL254254  22.755  43.961   5.720
 4161POPC   C1A54255  23.246  43.618   6.083
 4161POPC   D2A54256  23.368  43.786   6.500
 4161POPC   C3A54257  23.079  43.690   6.846
 4161POPC   C4A54258  23.141  43.568   7.244
 4161POPC   C1B54259  22.811  43.890   6.179
 4161POPC   C2B54260  23.010  44.149   6.532
 4161POPC   C3B54261  23.038  44.174   6.996
 4161POPC   C4B54262  22.668  43.966   7.172
 4162POPC   NC354263  34.150  27.003   4.909
 4162POPC   PO454264  33.781  26.758   5.439
 4162POPC   GL154265  33.682  26.900   5.839
 4162POPC   GL254266  33.396  26.647   5.879
 4162POPC   C1A54267  33.622  27.191   6.180
 4162POPC   D2A54268  33.639  27.361   6.604
 4162POPC   C3A54269  33.955  27.153   6.853
 4162POPC   C4A54270  33.886  26.909   7.218
 4162POPC   C1B54271  33.616  26.635   6.266
 4162POPC   C2B54272  33.601  26.801   6.666
 4162POPC   C3B54273  33.577  26.543   7.030
 4162POPC   C4B54274  33.956  26.400   7.254
 4163POPC   NC354275  41.159  29.267   5.401
 4163POPC   PO454276  41.602  28.810   5.374
 4163POPC   GL154277  41.385  28.959   5.760
 4163POPC   GL254278  41.563  29.281   5.752
 4163POPC   C1A54279  41.576  28.976   6.200
 4163POPC   D2A54280  41.461  28.823   6.616
 4163POPC   C3A54281  41.597  29.068   6.979
 4163POPC   C4A54282  41.807  29.040   7.385
 4163POPC   C1B54283  41.289  29.409   6.075
 4163POPC   C2B54284  41.366  29.330   6.502
 4163POPC   C3B54285  41.320  29.532   6.866
 4163POPC   C4B54286  41.624  29.570   7.146
 4164POPC   NC354287  13.516  16.476   5.148
 4164POPC   PO454288  13.757  15.846   5.149
 4164POPC   GL154289  13.695  15.826   5.635
 4164POPC   GL254290  13.536  16.155   5.671
 4164POPC   C1A54291  13.877  15.878   6.101
 4164POPC   D2A54292  14.045  15.797   6.556
 4164POPC   C3A54293  13.818  15.819   6.941
 4164POPC   C4A54294  13.740  16.151   7.245
 4164POPC   C1B54295  13.388  16.101   6.111
 4164POPC   C2B54296  13.564  16.066   6.534
 4164POPC   C3B54297  13.349  16.065   6.932
 4164POPC   C4B54298  13.233  16.158   7.360
 4165POPC   NC354299  28.454  12.964   5.342
 4165POPC   PO454300  27.798  12.903   5.398
 4165POPC   GL154301  28.086  12.733   5.656
 4165POPC   GL254302  28.141  13.061   5.774
 4165POPC   C1A54303  28.148  12.676   6.103
 4165POPC   D2A54304  28.063  12.694   6.556
 4165POPC   C3A54305  28.452  12.681   6.805
 4165POPC   C4A54306  28.790  12.533   7.092
 4165POPC   C1B54307  28.380  13.122   6.163
 4165POPC   C2B54308  28.263  13.160   6.599
 4165POPC   C3B54309  28.258  13.097   7.036
 4165POPC   C4B54310  28.199  12.695   7.264
 4166POPC   NC354311  33.744   4.836   5.339
 4166POPC   PO454312  33.453   5.498   5.454
 4166POPC   GL154313  33.840   5.291   5.654
 4166POPC   GL254314  34.074   5.564   5.734
 4166POPC   C1A54315  33.928   4.942   5.974
 4166POPC   D2A54316  33.766   4.815   6.386
 4166POPC   C3A54317  33.937   4.934   6.779
 4166POPC   C4A54318  33.754   4.747   7.143
 4166POPC   C1B54319  33.986   5.409   6.169
 4166POPC   C2B54320  33.709   5.347   6.528
 4166POPC   C3B54321  33.853   5.418   6.941
 4166POPC   C4B54322  33.982   5.194   7.320
 4167POPC   NC354323  27.005  24.459   5.310
 4167POPC   PO454324  26.409  24.784   5.263
 4167POPC   GL154325  26.631  24.566   5.662
 4167POPC   GL254326  26.874  24.269   5.735
 4167POPC   C1A54327  26.570  24.297   6.107
 4167POPC   D2A54328  26.753  24.206   6.494
 4167POPC   C3A54329  26.679  24.366   6.908
 4167POPC   C4A54330  26.351  24.211   7.161
 4167POPC   C1B54331  26.979  24.601   6.059
 4167POPC   C2B54332  27.023  24.710   6.521
 4167POPC   C3B54333  27.128  24.601   6.962
 4167POPC   C4B54334  27.049  24.776   7.384
 4168POPC   NC354335   4.499  10.415   5.388
 4168POPC   PO454336   3.974  10.755   5.307
 4168POPC   GL154337   4.280  10.742   5.719
 4168POPC   GL254338   4.311  10.384   5.871
 4168POPC   C1A54339   4.475  10.742   6.171
 4168POPC   D2A54340   4.313  10.590   6.577
 4168POPC   C3A54341   4.030  10.843   6.833
 4168POPC   C4A54342   4.231  10.739   7.226
 4168POPC   C1B54343   4.444  10.196   6.279
 4168POPC   C2B54344   4.725  10.148   6.682
 4168POPC   C3B54345   4.617  10.368   7.076
 4168POPC   C4B54346   4.437  10.348   7.499
 4169POPC   NC354347  42.646  23.415   5.370
 4169POPC   PO454348  42.517  24.120   5.438
 4169POPC   GL154349  42.528  23.790   5.749
 4169POPC   GL254350  42.172  23.801   5.809
 4169POPC   C1A54351  42.548  23.564   6.154
 4169POPC   D2A54352  42.672  23.578   6.606
 4169POPC   C3A54353  42.452  23.387   6.987
 4169POPC   C4A54354  42.378  23.543   7.418
 4169POPC   C1B54355  42.251  23.957   6.230
 4169POPC   C2B54356  42.364  24.151   6.578
 4169POPC   C3B54357  42.432  23.927   6.958
 4169POPC   C4B54358  42.179  23.989   7.311
 4170POPC   NC354359   4.901   0.900   5.441
 4170POPC   PO454360   4.937   0.186   5.325
 4170POPC   GL154361   5.010   0.117   5.793
 4170POPC   GL254362   5.250   0.399   5.842
 4170POPC   C1A54363   5.041   0.160   6.262
 4170POPC   D2A54364   5.144   0.077   6.691
 4170POPC   C3A54365   4.948   0.338   7.004
 4170POPC   C4A54366   4.988   0.224   7.466
 4170POPC   C1B54367   5.059   0.667   6.173
 4170POPC   C2B54368   4.924   0.728   6.592
 4170POPC   C3B54369   5.050   0.909   6.983
 4170POPC   C4B54370   5.038   0.721   7.380
 4171POPC   NC354371  25.899  26.671   5.517
 4171POPC   PO454372  25.938  27.260   5.313
 4171POPC   GL154373  26.020  27.133   5.752
 4171POPC   GL254374  25.756  26.935   5.926
 4171POPC   C1A54375  26.060  27.243   6.195
 4171POPC   D2A54376  25.793  27.177   6.550
 4171POPC   C3A54377  26.085  27.081   6.842
 4171POPC   C4A54378  26.157  27.095   7.269
 4171POPC   C1B54379  25.951  26.738   6.302
 4171POPC   C2B54380  26.106  26.578   6.687
 4171POPC   C3B54381  26.117  26.626   7.098
 4171POPC   C4B54382  25.832  26.649   7.409
 4172POPC   NC354383   9.268  11.162   5.630
 4172POPC   PO454384   8.956  10.680   5.291
 4172POPC   GL154385   8.916  10.637   5.734
 4172POPC   GL254386   9.268  10.507   5.768
 4172POPC   C1A54387   8.647  10.527   6.125
 4172POPC   D2A54388   8.516  10.561   6.592
 4172POPC   C3A54389   8.799  10.468   6.982
 4172POPC   C4A54390   9.221  10.261   7.135
 4172POPC   C1B54391   9.156  10.614   6.197
 4172POPC   C2B54392   9.126  10.882   6.561
 4172POPC   C3B54393   9.267  11.027   6.951
 4172POPC   C4B54394   9.127  10.748   7.276
 4173POPC   NC354395  15.318  16.470   5.022
 4173POPC   PO454396  15.323  16.634   5.619
 4173POPC   GL154397  15.162  16.858   5.897
 4173POPC   GL254398  15.299  17.174   5.851
 4173POPC   C1A54399  15.061  16.755   6.301
 4173POPC   D2A54400  15.390  16.668   6.581
 4173POPC   C3A54401  15.325  16.833   6.977
 4173POPC   C4A54402  15.082  16.678   7.293
 4173POPC   C1B54403  15.462  17.117   6.280
 4173POPC   C2B54404  15.553  17.217   6.722
 4173POPC   C3B54405  15.509  17.274   7.178
 4173POPC   C4B54406  15.426  16.973   7.514
 4174POPC   NC354407  28.699   8.660   5.483
 4174POPC   PO454408  29.207   9.064   5.275
 4174POPC   GL154409  29.116   9.149   5.733
 4174POPC   GL254410  29.070   8.828   5.820
 4174POPC   C1A54411  29.288   9.156   6.185
 4174POPC   D2A54412  29.524   8.980   6.554
 4174POPC   C3A54413  29.360   9.100   6.960
 4174POPC   C4A54414  29.229   9.131   7.397
 4174POPC   C1B54415  29.302   8.634   6.133
 4174POPC   C2B54416  29.264   8.483   6.530
 4174POPC   C3B54417  29.281   8.614   6.950
 4174POPC   C4B54418  29.475   8.654   7.384
 4175POPC   NC354419  15.021  22.312   5.422
 4175POPC   PO454420  15.172  21.735   5.702
 4175POPC   GL154421  14.822  21.897   5.964
 4175POPC   GL254422  14.779  22.227   5.866
 4175POPC   C1A54423  14.827  22.052   6.385
 4175POPC   D2A54424  15.231  22.139   6.581
 4175POPC   C3A54425  15.248  22.041   7.004
 4175POPC   C4A54426  14.891  22.081   7.234
 4175POPC   C1B54427  15.038  22.461   6.152
 4175POPC   C2B54428  15.085  22.625   6.586
 4175POPC   C3B54429  15.021  22.520   7.025
 4175POPC   C4B54430  14.899  22.540   7.477
 4176POPC   NC354431  44.659  28.114   5.610
 4176POPC   PO454432  44.285  28.656   5.443
 4176POPC   GL154433  44.583  28.574   5.837
 4176POPC   GL254434  44.886  28.800   5.860
 4176POPC   C1A54435  44.673  28.282   6.240
 4176POPC   D2A54436  44.973  28.218   6.627
 4176POPC   C3A54437  44.755  28.013   6.956
 4176POPC   C4A54438  44.382  28.224   7.092
 4176POPC   C1B54439  44.965  28.679   6.326
 4176POPC   C2B54440  44.621  28.614   6.662
 4176POPC   C3B54441  44.400  28.722   7.063
 4176POPC   C4B54442  44.655  28.609   7.448
 4177POPC   NC354443  27.954  44.603   5.408
 4177POPC   PO454444  27.230  44.505   5.442
 4177POPC   GL154445  27.483  44.707   5.775
 4177POPC   GL254446  27.751  44.497   5.862
 4177POPC   C1A54447  27.525  44.747   6.244
 4177POPC   D2A54448  27.757  44.871   6.641
 4177POPC   C3A54449  27.532  44.865   7.053
 4177POPC   C4A54450  27.635  44.845   7.508
 4177POPC   C1B54451  27.922  44.260   6.190
 4177POPC   C2B54452  27.746  44.239   6.591
 4177POPC   C3B54453  27.859  44.440   6.954
 4177POPC   C4B54454  27.859  44.376   7.388
 4178POPC   NC354455  17.021  39.371   5.622
 4178POPC   PO454456  16.430  39.181   5.310
 4178POPC   GL154457  16.524  39.201   5.737
 4178POPC   GL254458  16.379  39.545   5.730
 4178POPC   C1A54459  16.684  39.089   6.154
 4178POPC   D2A54460  16.578  38.925   6.541
 4178POPC   C3A54461  16.751  39.138   6.873
 4178POPC   C4A54462  16.904  39.285   7.244
 4178POPC   C1B54463  16.432  39.527   6.171
 4178POPC   C2B54464  16.680  39.490   6.528
 4178POPC   C3B54465  16.695  39.657   6.962
 4178POPC   C4B54466  17.079  39.755   7.236
 4179POPC   NC354467  12.396   3.183   5.258
 4179POPC   PO454468  12.171   3.688   5.237
 4179POPC   GL154469  12.065   3.733   5.711
 4179POPC   GL254470  11.855   3.479   5.868
 4179POPC   C1A54471  12.234   3.649   6.180
 4179POPC   D2A54472  12.027   3.516   6.574
 4179POPC   C3A54473  12.155   3.588   7.000
 4179POPC   C4A54474  11.863   3.562   7.356
 4179POPC   C1B54475  12.044   3.169   6.190
 4179POPC   C2B54476  12.042   2.995   6.632
 4179POPC   C3B54477  11.998   3.104   7.093
 4179POPC   C4B54478  11.908   3.061   7.554
 4180POPC   NC354479  39.736  14.024   5.253
 4180POPC   PO454480  40.138  13.552   5.440
 4180POPC   GL154481  40.013  13.654   5.827
 4180POPC   GL254482  39.679  13.777   5.729
 4180POPC   C1A54483  40.157  13.560   6.249
 4180POPC   D2A54484  40.308  13.449   6.657
 4180POPC   C3A54485  40.155  13.599   7.036
 4180POPC   C4A54486  40.170  13.425   7.433
 4180POPC   C1B54487  39.633  13.675   6.159
 4180POPC   C2B54488  39.746  13.520   6.547
 4180POPC   C3B54489  39.579  13.628   6.918
 4180POPC   C4B54490  39.711  13.591   7.321
 4181POPC   NC354491  42.708  26.310   5.556
 4181POPC   PO454492  42.228  26.209   5.032
 4181POPC   GL154493  42.244  26.069   5.524
 4181POPC   GL254494  42.536  25.820   5.652
 4181POPC   C1A54495  42.163  25.956   5.995
 4181POPC   D2A54496  42.079  25.734   6.411
 4181POPC   C3A54497  42.081  25.979   6.804
 4181POPC   C4A54498  42.068  26.126   7.229
 4181POPC   C1B54499  42.678  25.840   6.102
 4181POPC   C2B54500  42.520  25.967   6.521
 4181POPC   C3B54501  42.535  25.792   6.945
 4181POPC   C4B54502  42.562  25.974   7.343
 4182POPC   NC354503  23.804  28.120   5.526
 4182POPC   PO454504  23.868  28.825   5.587
 4182POPC   GL154505  23.831  28.526   5.941
 4182POPC   GL254506  24.064  28.266   5.949
 4182POPC   C1A54507  23.642  28.331   6.342
 4182POPC   D2A54508  23.310  28.380   6.680
 4182POPC   C3A54509  23.434  28.667   6.999
 4182POPC   C4A54510  23.857  28.590   7.097
 4182POPC   C1B54511  23.887  27.892   6.149
 4182POPC   C2B54512  23.909  27.811   6.580
 4182POPC   C3B54513  23.945  28.083   6.922
 4182POPC   C4B54514  23.571  28.171   7.091
 4183POPC   NC354515   2.743  11.376   5.278
 4183POPC   PO454516   2.619  10.812   5.421
 4183POPC   GL154517   2.888  11.092   5.691
 4183POPC   GL254518   2.646  11.379   5.770
 4183POPC   C1A54519   2.998  11.144   6.167
 4183POPC   D2A54520   2.877  11.088   6.624
 4183POPC   C3A54521   3.019  11.055   7.063
 4183POPC   C4A54522   2.679  11.141   7.398
 4183POPC   C1B54523   2.650  11.607   6.147
 4183POPC   C2B54524   2.572  11.485   6.559
 4183POPC   C3B54525   2.711  11.461   6.986
 4183POPC   C4B54526   2.793  11.846   7.211
 4184POPC   NC354527  41.819  10.880   5.186
 4184POPC   PO454528  41.627  10.246   5.244
 4184POPC   GL154529  41.689  10.493   5.656
 4184POPC   GL254530  41.401  10.400   5.867
 4184POPC   C1A54531  41.829  10.521   6.132
 4184POPC   D2A54532  41.805  10.458   6.591
 4184POPC   C3A54533  41.863  10.790   6.917
 4184POPC   C4A54534  41.759  10.808   7.363
 4184POPC   C1B54535  41.249  10.355   6.297
 4184POPC   C2B54536  41.340  10.255   6.720
 4184POPC   C3B54537  41.546  10.417   7.073
 4184POPC   C4B54538  41.442  10.287   7.470
 4185POPC   NC354539  29.820  42.876   5.461
 4185POPC   PO454540  29.971  43.396   5.172
 4185POPC   GL154541  30.005  43.352   5.640
 4185POPC   GL254542  30.233  43.574   5.848
 4185POPC   C1A54543  29.939  43.197   6.072
 4185POPC   D2A54544  29.946  43.242   6.543
 4185POPC   C3A54545  29.908  42.905   6.812
 4185POPC   C4A54546  30.086  42.775   7.177
 4185POPC   C1B54547  30.090  43.657   6.284
 4185POPC   C2B54548  30.286  43.592   6.707
 4185POPC   C3B54549  30.168  43.315   7.045
 4185POPC   C4B54550  29.739  43.293   7.167
 4186POPC   NC354551  36.140  24.933   5.332
 4186POPC   PO454552  36.209  25.600   5.210
 4186POPC   GL154553  36.102  25.426   5.704
 4186POPC   GL254554  35.768  25.488   5.861
 4186POPC   C1A54555  36.334  25.371   6.139
 4186POPC   D2A54556  36.580  25.180   6.480
 4186POPC   C3A54557  36.420  25.227   6.906
 4186POPC   C4A54558  36.225  25.155   7.302
 4186POPC   C1B54559  35.886  25.124   6.117
 4186POPC   C2B54560  36.049  25.149   6.547
 4186POPC   C3B54561  35.847  25.120   6.955
 4186POPC   C4B54562  35.740  25.407   7.278
 4187POPC   NC354563  21.126  16.148   5.487
 4187POPC   PO454564  21.782  16.113   5.409
 4187POPC   GL154565  21.527  15.908   5.731
 4187POPC   GL254566  21.743  15.676   5.905
 4187POPC   C1A54567  21.287  15.853   6.116
 4187POPC   D2A54568  21.183  16.062   6.516
 4187POPC   C3A54569  21.222  15.903   6.950
 4187POPC   C4A54570  21.179  16.288   7.165
 4187POPC   C1B54571  21.627  15.529   6.326
 4187POPC   C2B54572  21.826  15.478   6.733
 4187POPC   C3B54573  21.710  15.624   7.141
 4187POPC   C4B54574  21.588  15.573   7.566
 4188POPC   NC354575  39.996  41.991   5.437
 4188POPC   PO454576  40.270  42.652   5.459
 4188POPC   GL154577  40.030  42.384   5.764
 4188POPC   GL254578  40.231  42.070   5.878
 4188POPC   C1A54579  39.816  42.190   6.128
 4188POPC   D2A54580  39.847  42.002   6.522
 4188POPC   C3A54581  39.912  42.208   6.890
 4188POPC   C4A54582  39.879  42.285   7.300
 4188POPC   C1B54583  40.342  42.390   6.171
 4188POPC   C2B54584  40.236  42.481   6.575
 4188POPC   C3B54585  40.352  42.635   6.962
 4188POPC   C4B54586  40.158  42.741   7.343
 4189POPC   NC354587  30.962  36.291   5.278
 4189POPC   PO454588  30.384  35.876   5.326
 4189POPC   GL154589  30.510  35.888   5.824
 4189POPC   GL254590  30.659  36.252   5.847
 4189POPC   C1A54591  30.788  35.957   6.241
 4189POPC   D2A54592  30.945  36.210   6.604
 4189POPC   C3A54593  30.768  36.084   7.016
 4189POPC   C4A54594  30.461  35.781   7.109
 4189POPC   C1B54595  30.359  36.222   6.193
 4189POPC   C2B54596  30.430  36.080   6.613
 4189POPC   C3B54597  30.302  36.291   6.963
 4189POPC   C4B54598  30.528  36.441   7.323
 4190POPC   NC354599  39.591  31.597   5.421
 4190POPC   PO454600  39.111  31.133   5.294
 4190POPC   GL154601  39.319  31.283   5.718
 4190POPC   GL254602  39.236  31.643   5.788
 4190POPC   C1A54603  39.139  31.310   6.167
 4190POPC   D2A54604  39.187  31.477   6.569
 4190POPC   C3A54605  39.034  31.414   6.970
 4190POPC   C4A54606  39.087  31.308   7.391
 4190POPC   C1B54607  39.340  31.800   6.193
 4190POPC   C2B54608  39.371  31.948   6.598
 4190POPC   C3B54609  39.391  31.827   7.031
 4190POPC   C4B54610  39.017  31.816   7.298
 4191POPC   NC354611  44.047   2.130   5.428
 4191POPC   PO454612  44.417   1.687   5.562
 4191POPC   GL154613  44.097   1.891   5.880
 4191POPC   GL254614  43.703   1.997   5.794
 4191POPC   C1A54615  44.041   2.091   6.297
 4191POPC   D2A54616  43.678   2.186   6.572
 4191POPC   C3A54617  43.803   2.103   6.981
 4191POPC   C4A54618  44.036   1.773   7.149
 4191POPC   C1B54619  43.657   1.768   6.192
 4191POPC   C2B54620  43.727   1.655   6.628
 4191POPC   C3B54621  43.554   1.679   7.035
 4191POPC   C4B54622  43.595   1.615   7.508
 4192POPC   NC354623  35.265  39.981   5.358
 4192POPC   PO454624  35.745  39.579   5.295
 4192POPC   GL154625  35.557  39.796   5.722
 4192POPC   GL254626  35.178  39.751   5.823
 4192POPC   C1A54627  35.443  40.129   6.046
 4192POPC   D2A54628  35.572  40.127   6.491
 4192POPC   C3A54629  35.376  40.289   6.875
 4192POPC   C4A54630  35.581  40.178   7.265
 4192POPC   C1B54631  35.422  39.637   6.211
 4192POPC   C2B54632  35.481  39.612   6.662
 4192POPC   C3B54633  35.273  39.802   7.014
 4192POPC   C4B54634  35.142  39.753   7.453
 4193POPC   NC354635  37.604  12.395   5.399
 4193POPC   PO454636  38.045  11.862   5.353
 4193POPC   GL154637  37.767  11.926   5.672
 4193POPC   GL254638  37.921  12.210   5.762
 4193POPC   C1A54639  37.515  12.089   6.032
 4193POPC   D2A54640  37.662  12.199   6.461
 4193POPC   C3A54641  37.525  11.940   6.806
 4193POPC   C4A54642  37.656  11.876   7.250
 4193POPC   C1B54643  38.019  11.983   6.140
 4193POPC   C2B54644  38.068  11.765   6.529
 4193POPC   C3B54645  38.016  12.002   6.901
 4193POPC   C4B54646  38.077  12.274   7.251
 4194POPC   NC354647  32.585  14.286   5.251
 4194POPC   PO454648  32.110  14.707   5.524
 4194POPC   GL154649  32.330  14.514   5.848
 4194POPC   GL254650  32.561  14.249   5.772
 4194POPC   C1A54651  32.285  14.286   6.213
 4194POPC   D2A54652  32.393  14.305   6.626
 4194POPC   C3A54653  32.115  14.247   6.950
 4194POPC   C4A54654  32.287  14.501   7.198
 4194POPC   C1B54655  32.614  13.877   6.066
 4194POPC   C2B54656  32.565  13.827   6.545
 4194POPC   C3B54657  32.529  13.983   7.004
 4194POPC   C4B54658  32.502  14.122   7.471
 4195POPC   NC354659  18.032  15.938   5.165
 4195POPC   PO454660  18.629  15.686   5.503
 4195POPC   GL154661  18.442  15.906   5.871
 4195POPC   GL254662  18.201  16.119   5.722
 4195POPC   C1A54663  18.334  15.776   6.269
 4195POPC   D2A54664  18.405  15.574   6.656
 4195POPC   C3A54665  18.163  15.779   6.979
 4195POPC   C4A54666  18.301  16.052   7.311
 4195POPC   C1B54667  18.128  16.252   6.146
 4195POPC   C2B54668  18.000  16.059   6.545
 4195POPC   C3B54669  17.994  16.280   6.911
 4195POPC   C4B54670  17.926  16.364   7.317
 4196POPC   NC354671  25.437  42.422   5.470
 4196POPC   PO454672  24.855  41.994   5.480
 4196POPC   GL154673  25.055  42.243   5.846
 4196POPC   GL254674  25.179  42.593   5.882
 4196POPC   C1A54675  25.087  42.194   6.314
 4196POPC   D2A54676  25.087  42.021   6.758
 4196POPC   C3A54677  25.015  42.306   7.081
 4196POPC   C4A54678  24.979  42.754   7.126
 4196POPC   C1B54679  24.997  42.695   6.255
 4196POPC   C2B54680  25.111  42.598   6.658
 4196POPC   C3B54681  25.439  42.564   6.962
 4196POPC   C4B54682  25.523  42.132   7.130
 4197POPC   NC354683  34.260  32.162   5.310
 4197POPC   PO454684  33.608  32.093   5.431
 4197POPC   GL154685  33.887  32.294   5.710
 4197POPC   GL254686  34.002  31.984   5.830
 4197POPC   C1A54687  33.995  32.397   6.155
 4197POPC   D2A54688  33.906  32.119   6.542
 4197POPC   C3A54689  33.990  32.287   6.955
 4197POPC   C4A54690  33.897  32.673   7.201
 4197POPC   C1B54691  33.612  32.060   6.112
 4197POPC   C2B54692  33.427  31.902   6.544
 4197POPC   C3B54693  33.524  32.070   6.950
 4197POPC   C4B54694  33.584  32.264   7.321
 4198POPC   NC354695  24.187   5.975   5.408
 4198POPC   PO454696  24.658   5.574   5.166
 4198POPC   GL154697  24.617   5.860   5.638
 4198POPC   GL254698  24.831   6.102   5.770
 4198POPC   C1A54699  24.656   5.790   6.122
 4198POPC   D2A54700  24.773   5.870   6.578
 4198POPC   C3A54701  24.466   5.699   6.898
 4198POPC   C4A54702  24.507   5.477   7.311
 4198POPC   C1B54703  24.744   6.315   6.170
 4198POPC   C2B54704  24.581   6.360   6.603
 4198POPC   C3B54705  24.716   6.230   6.992
 4198POPC   C4B54706  24.818   5.866   7.219
 4199POPC   NC354707  17.466  36.473   5.240
 4199POPC   PO454708  17.792  35.964   5.609
 4199POPC   GL154709  17.680  36.227   5.890
 4199POPC   GL254710  17.382  36.376   5.741
 4199POPC   C1A54711  17.748  36.152   6.339
 4199POPC   D2A54712  17.462  36.072   6.685
 4199POPC   C3A54713  17.496  36.010   7.133
 4199POPC   C4A54714  17.532  36.019   7.607
 4199POPC   C1B54715  17.250  36.286   6.176
 4199POPC   C2B54716  17.188  36.486   6.567
 4199POPC   C3B54717  17.120  36.326   6.987
 4199POPC   C4B54718  17.099  36.198   7.413
 4200POPC   NC354719  38.728  32.859   5.353
 4200POPC   PO454720  38.085  33.105   5.339
 4200POPC   GL154721  38.134  33.251   5.761
 4200POPC   GL254722  38.410  32.965   5.816
 4200POPC   C1A54723  38.168  33.225   6.211
 4200POPC   D2A54724  38.433  32.966   6.478
 4200POPC   C3A54725  38.315  32.927   6.904
 4200POPC   C4A54726  38.074  33.199   7.181
 4200POPC   C1B54727  38.596  32.637   6.106
 4200POPC   C2B54728  38.907  32.683   6.440
 4200POPC   C3B54729  38.891  32.854   6.855
 4200POPC   C4B54730  38.677  32.751   7.238
 4201POPC   NC354731  31.607  31.696   5.348
 4201POPC   PO454732  31.131  31.169   5.377
 4201POPC   GL154733  31.336  31.153   5.778
 4201POPC   GL254734  31.422  31.483   5.786
 4201POPC   C1A54735  31.260  31.209   6.248
 4201POPC   D2A54736  31.374  31.570   6.566
 4201POPC   C3A54737  31.301  31.590   7.041
 4201POPC   C4A54738  31.209  31.202   7.274
 4201POPC   C1B54739  31.683  31.475   6.145
 4201POPC   C2B54740  31.896  31.562   6.553
 4201POPC   C3B54741  31.770  31.466   6.943
 4201POPC   C4B54742  31.681  31.396   7.357
 4202POPC   NC354743  36.564  28.526   5.531
 4202POPC   PO454744  35.993  28.183   5.421
 4202POPC   GL154745  36.159  28.339   5.791
 4202POPC   GL254746  36.474  28.208   5.924
 4202POPC   C1A54747  36.016  28.275   6.192
 4202POPC   D2A54748  36.086  28.510   6.572
 4202POPC   C3A54749  36.028  28.267   6.916
 4202POPC   C4A54750  36.131  28.394   7.303
 4202POPC   C1B54751  36.470  28.572   6.204
 4202POPC   C2B54752  36.633  28.606   6.628
 4202POPC   C3B54753  36.502  28.640   7.060
 4202POPC   C4B54754  36.621  28.616   7.511
 4203POPC   NC354755  10.839  44.092   5.344
 4203POPC   PO454756  10.229  43.722   5.434
 4203POPC   GL154757  10.328  43.733   5.861
 4203POPC   GL254758  10.634  43.848   5.763
 4203POPC   C1A54759  10.258  43.887   6.291
 4203POPC   D2A54760  10.299  44.144   6.682
 4203POPC   C3A54761  10.494  43.974   7.037
 4203POPC   C4A54762  10.458  43.777   7.438
 4203POPC   C1B54763  10.765  43.857   6.184
 4203POPC   C2B54764  10.785  44.045   6.603
 4203POPC   C3B54765  11.003  44.001   6.989
 4203POPC   C4B54766  11.217  43.890   7.381
 4204POPC   NC354767  14.615  11.521   5.050
 4204POPC   PO454768  14.046  11.227   5.112
 4204POPC   GL154769  14.232  11.295   5.573
 4204POPC   GL254770  14.479  11.490   5.670
 4204POPC   C1A54771  14.099  11.330   6.049
 4204POPC   D2A54772  14.289  11.344   6.499
 4204POPC   C3A54773  14.166  11.077   6.846
 4204POPC   C4A54774  14.422  11.129   7.221
 4204POPC   C1B54775  14.528  11.601   6.127
 4204POPC   C2B54776  14.643  11.732   6.578
 4204POPC   C3B54777  14.468  11.579   6.983
 4204POPC   C4B54778  14.251  11.773   7.359
 4205POPC   NC354779   0.278  11.528   5.309
 4205POPC   PO454780   0.606  10.927   5.197
 4205POPC   GL154781   0.436  11.035   5.692
 4205POPC   GL254782   0.429  11.380   5.775
 4205POPC   C1A54783   0.387  11.023   6.161
 4205POPC   D2A54784   0.245  11.223   6.567
 4205POPC   C3A54785   0.413  11.049   6.942
 4205POPC   C4A54786   0.478  11.031   7.393
 4205POPC   C1B54787   0.470  11.544   6.198
 4205POPC   C2B54788   0.514  11.677   6.634
 4205POPC   C3B54789   0.374  11.528   7.080
 4205POPC   C4B54790   0.603  11.517   7.507
 4206POPC   NC354791  35.671  41.370   5.574
 4206POPC   PO454792  35.232  41.857   5.322
 4206POPC   GL154793  35.338  41.810   5.744
 4206POPC   GL254794  35.224  41.473   5.803
 4206POPC   C1A54795  35.513  41.801   6.154
 4206POPC   D2A54796  35.609  41.584   6.531
 4206POPC   C3A54797  35.546  41.673   6.983
 4206POPC   C4A54798  35.874  41.429   7.247
 4206POPC   C1B54799  35.169  41.414   6.228
 4206POPC   C2B54800  35.059  41.515   6.636
 4206POPC   C3B54801  35.112  41.291   7.010
 4206POPC   C4B54802  35.110  41.509   7.369
 4207POPC   NC354803  30.267  25.250   5.473
 4207POPC   PO454804  30.925  25.044   5.558
 4207POPC   GL154805  30.801  25.413   5.762
 4207POPC   GL254806  30.498  25.298   5.942
 4207POPC   C1A54807  30.853  25.592   6.168
 4207POPC   D2A54808  30.620  25.438   6.487
 4207POPC   C3A54809  30.686  25.461   6.923
 4207POPC   C4A54810  30.433  25.430   7.290
 4207POPC   C1B54811  30.800  25.046   6.242
 4207POPC   C2B54812  30.711  24.991   6.734
 4207POPC   C3B54813  30.761  25.021   7.197
 4207POPC   C4B54814  30.575  24.984   7.616
 4208POPC   NC354815  40.490  44.315   5.673
 4208POPC   PO454816  40.893  44.811   5.474
 4208POPC   GL154817  40.991  44.553   5.801
 4208POPC   GL254818  40.855  44.818   6.015
 4208POPC   C1A54819  40.943  44.353   6.210
 4208POPC   D2A54820  40.998  44.558   6.583
 4208POPC   C3A54821  40.861  44.425   6.989
 4208POPC   C4A54822  40.525  44.392   7.259
 4208POPC   C1B54823  40.523  44.678   6.288
 4208POPC   C2B54824  40.495  44.666   6.730
 4208POPC   C3B54825  40.678  44.903   7.068
 4208POPC   C4B54826  41.055   0.051   7.226
 4209POPC   NC354827  37.461  42.569   5.295
 4209POPC   PO454828  37.842  42.046   5.591
 4209POPC   GL154829  37.732  42.503   5.770
 4209POPC   GL254830  37.364  42.686   5.783
 4209POPC   C1A54831  37.929  42.546   6.191
 4209POPC   D2A54832  37.944  42.297   6.617
 4209POPC   C3A54833  37.768  42.466   7.013
 4209POPC   C4A54834  37.556  42.188   7.305
 4209POPC   C1B54835  37.366  42.451   6.165
 4209POPC   C2B54836  37.272  42.315   6.575
 4209POPC   C3B54837  37.235  42.474   6.975
 4209POPC   C4B54838  37.354  42.693   7.325
 4210POPC   NC354839  32.093  18.520   5.404
 4210POPC   PO454840  32.174  17.855   5.400
 4210POPC   GL154841  32.345  18.136   5.704
 4210POPC   GL254842  32.567  18.440   5.717
 4210POPC   C1A54843  32.452  18.109   6.134
 4210POPC   D2A54844  32.621  17.999   6.530
 4210POPC   C3A54845  32.415  18.142   6.894
 4210POPC   C4A54846  32.659  18.145   7.233
 4210POPC   C1B54847  32.406  18.640   6.112
 4210POPC   C2B54848  32.109  18.591   6.510
 4210POPC   C3B54849  32.026  18.499   6.973
 4210POPC   C4B54850  32.252  18.450   7.373
 4211POPC   NC354851  34.511  37.949   5.666
 4211POPC   PO454852  34.954  38.359   5.372
 4211POPC   GL154853  34.671  38.464   5.715
 4211POPC   GL254854  34.774  38.268   5.999
 4211POPC   C1A54855  34.363  38.595   6.041
 4211POPC   D2A54856  34.548  38.616   6.456
 4211POPC   C3A54857  34.351  38.654   6.866
 4211POPC   C4A54858  34.669  38.616   7.177
 4211POPC   C1B54859  34.435  38.151   6.288
 4211POPC   C2B54860  34.392  38.163   6.725
 4211POPC   C3B54861  34.467  38.150   7.155
 4211POPC   C4B54862  34.287  38.100   7.517
 4212POPC   NC354863  16.783  26.155   5.268
 4212POPC   PO454864  17.440  25.890   5.085
 4212POPC   GL154865  17.234  26.089   5.564
 4212POPC   GL254866  16.935  26.362   5.692
 4212POPC   C1A54867  16.957  25.947   5.959
 4212POPC   D2A54868  16.633  25.958   6.343
 4212POPC   C3A54869  16.686  25.886   6.831
 4212POPC   C4A54870  16.994  25.862   7.214
 4212POPC   C1B54871  16.790  26.430   6.148
 4212POPC   C2B54872  16.767  26.357   6.644
 4212POPC   C3B54873  16.763  26.319   7.098
 4212POPC   C4B54874  16.856  26.329   7.533
 4213POPC   NC354875  37.858  11.433   5.298
 4213POPC   PO454876  37.204  11.306   5.533
 4213POPC   GL154877  37.572  11.441   5.736
 4213POPC   GL254878  37.836  11.198   5.759
 4213POPC   C1A54879  37.688  11.587   6.153
 4213POPC   D2A54880  37.687  11.368   6.562
 4213POPC   C3A54881  37.511  11.445   6.979
 4213POPC   C4A54882  37.525  11.269   7.387
 4213POPC   C1B54883  37.667  11.029   6.139
 4213POPC   C2B54884  37.561  10.851   6.544
 4213POPC   C3B54885  37.753  10.962   6.934
 4213POPC   C4B54886  37.696  10.801   7.323
 4214POPC   NC354887  25.363  13.915   5.276
 4214POPC   PO454888  25.112  14.547   5.386
 4214POPC   GL154889  25.189  14.458   5.820
 4214POPC   GL254890  25.403  14.151   5.790
 4214POPC   C1A54891  25.267  14.616   6.254
 4214POPC   D2A54892  25.498  14.480   6.635
 4214POPC   C3A54893  25.355  14.638   7.024
 4214POPC   C4A54894  24.934  14.673   7.186
 4214POPC   C1B54895  25.664  13.982   6.130
 4214POPC   C2B54896  25.789  14.038   6.560
 4214POPC   C3B54897  25.585  14.069   6.962
 4214POPC   C4B54898  25.163  14.163   7.107
 4215POPC   NC354899   7.427   1.836   5.281
 4215POPC   PO454900   7.333   1.150   5.313
 4215POPC   GL154901   7.441   1.292   5.695
 4215POPC   GL254902   7.139   1.276   5.888
 4215POPC   C1A54903   7.638   1.443   6.067
 4215POPC   D2A54904   7.443   1.319   6.438
 4215POPC   C3A54905   7.549   1.541   6.790
 4215POPC   C4A54906   7.619   1.293   7.146
 4215POPC   C1B54907   7.082   0.961   6.194
 4215POPC   C2B54908   7.281   0.843   6.558
 4215POPC   C3B54909   7.232   1.108   6.876
 4215POPC   C4B54910   7.156   1.129   7.293
 4216POPC   NC354911  15.590  12.826   5.540
 4216POPC   PO454912  15.200  13.312   5.419
 4216POPC   GL154913  15.186  13.024   5.743
 4216POPC   GL254914  15.010  12.753   5.568
 4216POPC   C1A54915  15.306  13.009   6.176
 4216POPC   D2A54916  15.481  12.900   6.557
 4216POPC   C3A54917  15.522  13.199   6.888
 4216POPC   C4A54918  15.419  13.035   7.282
 4216POPC   C1B54919  14.872  12.745   6.024
 4216POPC   C2B54920  14.922  12.781   6.484
 4216POPC   C3B54921  15.019  13.003   6.865
 4216POPC   C4B54922  14.859  12.989   7.283
 4217POPC   NC354923  41.760   1.314   5.477
 4217POPC   PO454924  41.153   0.872   5.499
 4217POPC   GL154925  41.413   0.911   5.873
 4217POPC   GL254926  41.502   1.238   5.907
 4217POPC   C1A54927  41.673   0.939   6.293
 4217POPC   D2A54928  41.787   1.141   6.705
 4217POPC   C3A54929  41.700   1.058   7.146
 4217POPC   C4A54930  41.510   0.795   7.468
 4217POPC   C1B54931  41.573   1.440   6.326
 4217POPC   C2B54932  41.820   1.636   6.685
 4217POPC   C3B54933  41.735   1.566   7.172
 4217POPC   C4B54934  41.804   1.567   7.695
 4218POPC   NC354935   5.419  22.749   5.299
 4218POPC   PO454936   4.762  22.917   5.366
 4218POPC   GL154937   5.088  22.931   5.676
 4218POPC   GL254938   5.283  22.621   5.780
 4218POPC   C1A54939   5.135  23.104   6.076
 4218POPC   D2A54940   5.256  23.074   6.512
 4218POPC   C3A54941   5.029  23.222   6.871
 4218POPC   C4A54942   5.108  23.198   7.292
 4218POPC   C1B54943   5.181  22.610   6.226
 4218POPC   C2B54944   5.178  22.584   6.684
 4218POPC   C3B54945   5.144  22.723   7.104
 4218POPC   C4B54946   5.266  22.529   7.509
 4219POPC   NC354947   8.335  36.372   5.519
 4219POPC   PO454948   7.939  35.838   5.222
 4219POPC   GL154949   7.978  36.017   5.687
 4219POPC   GL254950   7.881  36.375   5.746
 4219POPC   C1A54951   8.179  36.128   6.116
 4219POPC   D2A54952   8.350  35.889   6.467
 4219POPC   C3A54953   8.237  36.018   6.901
 4219POPC   C4A54954   8.316  36.094   7.343
 4219POPC   C1B54955   7.877  36.548   6.190
 4219POPC   C2B54956   8.037  36.469   6.641
 4219POPC   C3B54957   8.000  36.449   7.109
 4219POPC   C4B54958   7.891  36.449   7.564
 4220POPC   NC354959  17.670  40.323   5.425
 4220POPC   PO454960  17.262  39.723   5.425
 4220POPC   GL154961  17.421  39.992   5.733
 4220POPC   GL254962  17.785  39.906   5.745
 4220POPC   C1A54963  17.269  40.145   6.133
 4220POPC   D2A54964  17.403  39.955   6.505
 4220POPC   C3A54965  17.561  40.157   6.838
 4220POPC   C4A54966  17.563  39.888   7.141
 4220POPC   C1B54967  17.767  40.064   6.167
 4220POPC   C2B54968  17.891  40.384   6.482
 4220POPC   C3B54969  17.841  40.577   6.895
 4220POPC   C4B54970  17.786  40.325   7.277
 4221POPC   NC354971   3.385   1.985   5.340
 4221POPC   PO454972   4.001   2.340   5.416
 4221POPC   GL154973   3.731   2.067   5.752
 4221POPC   GL254974   3.392   2.192   5.793
 4221POPC   C1A54975   3.567   1.936   6.200
 4221POPC   D2A54976   3.410   1.786   6.608
 4221POPC   C3A54977   3.627   1.827   6.989
 4221POPC   C4A54978   3.619   1.829   7.439
 4221POPC   C1B54979   3.148   2.294   6.135
 4221POPC   C2B54980   3.319   2.305   6.539
 4221POPC   C3B54981   3.230   2.194   6.946
 4221POPC   C4B54982   2.896   2.276   7.249
 4222POPC   NC354983  22.798  30.761   5.431
 4222POPC   PO454984  23.379  30.483   5.478
 4222POPC   GL154985  23.015  30.457   5.818
 4222POPC   GL254986  22.733  30.742   5.922
 4222POPC   C1A54987  23.109  30.620   6.235
 4222POPC   D2A54988  23.060  30.784   6.619
 4222POPC   C3A54989  23.270  30.531   6.915
 4222POPC   C4A54990  23.261  30.879   7.240
 4222POPC   C1B54991  22.656  30.395   6.227
 4222POPC   C2B54992  22.817  30.320   6.671
 4222POPC   C3B54993  22.794  30.638   7.031
 4222POPC   C4B54994  22.744  30.845   7.408
 4223POPC   NC354995  41.072  19.286   5.492
 4223POPC   PO454996  41.490  18.792   5.472
 4223POPC   GL154997  41.499  19.045   5.812
 4223POPC   GL254998  41.152  18.911   5.851
 4223POPC   C1A54999  41.805  19.059   6.170
 4223POPC   D2A55000  41.943  18.819   6.534
 4223POPC   C3A55001  41.870  19.033   6.933
 4223POPC   C4A55002  41.541  19.171   7.216
 4223POPC   C1B55003  41.383  18.770   6.222
 4223POPC   C2B55004  41.464  18.609   6.626
 4223POPC   C3B55005  41.442  18.701   7.032
 4223POPC   C4B55006  41.204  18.797   7.369
 4224POPC   NC355007  12.990  19.766   5.419
 4224POPC   PO455008  12.645  20.176   5.816
 4224POPC   GL155009  12.844  19.745   5.923
 4224POPC   GL255010  13.188  19.572   5.851
 4224POPC   C1A55011  13.026  19.747   6.338
 4224POPC   D2A55012  12.775  19.927   6.720
 4224POPC   C3A55013  12.699  19.743   7.132
 4224POPC   C4A55014  12.843  19.755   7.568
 4224POPC   C1B55015  13.293  20.017   5.981
 4224POPC   C2B55016  13.379  20.176   6.383
 4224POPC   C3B55017  13.281  19.935   6.751
 4224POPC   C4B55018  13.168  19.961   7.181
 4225POPC   NC355019  42.621   7.833   5.522
 4225POPC   PO455020  43.136   8.290   5.238
 4225POPC   GL155021  43.175   8.138   5.679
 4225POPC   GL255022  43.054   7.810   5.788
 4225POPC   C1A55023  43.269   8.116   6.126
 4225POPC   D2A55024  43.057   8.235   6.521
 4225POPC   C3A55025  43.312   8.241   6.906
 4225POPC   C4A55026  43.291   8.131   7.345
 4225POPC   C1B55027  42.860   7.837   6.223
 4225POPC   C2B55028  42.762   7.819   6.683
 4225POPC   C3B55029  42.881   7.986   7.099
 4225POPC   C4B55030  42.867   8.028   7.600
 4226POPC   NC355031   7.962   7.227   5.273
 4226POPC   PO455032   8.355   7.838   5.343
 4226POPC   GL155033   8.267   7.535   5.731
 4226POPC   GL255034   7.918   7.458   5.735
 4226POPC   C1A55035   8.187   7.496   6.217
 4226POPC   D2A55036   8.394   7.406   6.636
 4226POPC   C3A55037   8.311   7.602   7.035
 4226POPC   C4A55038   8.294   7.287   7.321
 4226POPC   C1B55039   7.784   7.171   6.071
 4226POPC   C2B55040   8.012   7.034   6.432
 4226POPC   C3B55041   8.006   7.148   6.872
 4226POPC   C4B55042   7.781   7.247   7.254
 4227POPC   NC355043  35.549   5.871   5.453
 4227POPC   PO455044  34.888   6.214   5.563
 4227POPC   GL155045  34.982   5.912   5.921
 4227POPC   GL255046  35.298   5.800   5.883
 4227POPC   C1A55047  35.035   5.773   6.376
 4227POPC   D2A55048  35.294   5.902   6.762
 4227POPC   C3A55049  35.133   5.915   7.177
 4227POPC   C4A55050  35.170   5.573   7.542
 4227POPC   C1B55051  35.502   5.615   6.250
 4227POPC   C2B55052  35.367   5.421   6.637
 4227POPC   C3B55053  35.450   5.525   7.087
 4227POPC   C4B55054  35.585   5.862   7.428
 4228POPC   NC355055  43.725  42.824   5.395
 4228POPC   PO455056  43.740  42.084   5.406
 4228POPC   GL155057  43.657  42.360   5.755
 4228POPC   GL255058  43.920  42.621   5.818
 4228POPC   C1A55059  43.574  42.200   6.180
 4228POPC   D2A55060  43.876  42.125   6.526
 4228POPC   C3A55061  43.715  42.106   6.957
 4228POPC   C4A55062  43.662  42.231   7.391
 4228POPC   C1B55063  43.782  42.663   6.232
 4228POPC   C2B55064  43.982  42.613   6.639
 4228POPC   C3B55065  43.972  42.548   7.079
 4228POPC   C4B55066  44.318  42.766   7.252
 4229POPC   NC355067  26.259  27.577   5.208
 4229POPC   PO455068  25.900  27.983   5.661
 4229POPC   GL155069  25.961  27.665   5.920
 4229POPC   GL255070  26.272  27.584   5.728
 4229POPC   C1A55071  25.970  27.727   6.394
 4229POPC   D2A55072  25.964  28.013   6.771
 4229POPC   C3A55073  25.758  27.791   7.054
 4229POPC   C4A55074  25.735  27.381   7.159
 4229POPC   C1B55075  26.418  27.643   6.155
 4229POPC   C2B55076  26.395  27.435   6.561
 4229POPC   C3B55077  26.218  27.568   6.938
 4229POPC   C4B55078  26.356  27.616   7.334
 4230POPC   NC355079  15.814  14.756   5.234
 4230POPC   PO455080  15.702  14.177   5.420
 4230POPC   GL155081  15.856  14.271   5.754
 4230POPC   GL255082  16.109  14.501   5.591
 4230POPC   C1A55083  15.780  14.123   6.160
 4230POPC   D2A55084  15.997  14.241   6.507
 4230POPC   C3A55085  16.083  14.023   6.869
 4230POPC   C4A55086  15.940  14.144   7.269
 4230POPC   C1B55087  16.192  14.504   6.056
 4230POPC   C2B55088  16.323  14.649   6.471
 4230POPC   C3B55089  16.196  14.522   6.889
 4230POPC   C4B55090  16.270  14.546   7.302
 4231POPC   NC355091  39.086  11.854   5.554
 4231POPC   PO455092  39.522  12.152   5.223
 4231POPC   GL155093  39.538  12.052   5.706
 4231POPC   GL255094  39.503  11.679   5.819
 4231POPC   C1A55095  39.321  12.022   6.160
 4231POPC   D2A55096  39.067  12.115   6.546
 4231POPC   C3A55097  39.317  12.247   6.881
 4231POPC   C4A55098  39.309  12.240   7.279
 4231POPC   C1B55099  39.623  11.597   6.258
 4231POPC   C2B55100  39.458  11.792   6.631
 4231POPC   C3B55101  39.387  11.770   7.083
 4231POPC   C4B55102  39.518  11.847   7.535
 4232POPC   NC355103   7.835  33.181   5.494
 4232POPC   PO455104   8.387  32.862   5.244
 4232POPC   GL155105   8.480  32.854   5.700
 4232POPC   GL255106   8.225  33.069   5.812
 4232POPC   C1A55107   8.408  32.706   6.159
 4232POPC   D2A55108   8.134  32.688   6.527
 4232POPC   C3A55109   8.297  32.809   6.913
 4232POPC   C4A55110   8.173  32.824   7.324
 4232POPC   C1B55111   7.959  33.032   6.184
 4232POPC   C2B55112   7.844  33.274   6.574
 4232POPC   C3B55113   7.950  33.189   7.013
 4232POPC   C4B55114   8.049  33.322   7.436
 4233POPC   NC355115  38.765  10.977   5.554
 4233POPC   PO455116  38.101  10.870   5.466
 4233POPC   GL155117  38.332  10.988   5.835
 4233POPC   GL255118  38.413  11.355   5.772
 4233POPC   C1A55119  38.609  11.114   6.191
 4233POPC   D2A55120  38.595  11.386   6.531
 4233POPC   C3A55121  38.595  11.241   6.944
 4233POPC   C4A55122  38.572  11.441   7.372
 4233POPC   C1B55123  38.142  11.343   6.152
 4233POPC   C2B55124  38.144  11.159   6.543
 4233POPC   C3B55125  38.083  11.365   6.911
 4233POPC   C4B55126  38.095  11.201   7.307
 4234POPC   NC355127  36.158   0.508   5.380
 4234POPC   PO455128  36.553  44.985   5.359
 4234POPC   GL155129  36.293   0.177   5.778
 4234POPC   GL255130  36.086   0.542   5.863
 4234POPC   C1A55131  36.250   0.278   6.248
 4234POPC   D2A55132  36.208   0.049   6.623
 4234POPC   C3A55133  36.257   0.288   6.996
 4234POPC   C4A55134  36.095   0.687   7.141
 4234POPC   C1B55135  35.751   0.499   6.165
 4234POPC   C2B55136  35.837   0.415   6.558
 4234POPC   C3B55137  35.704   0.259   6.900
 4234POPC   C4B55138  35.829   0.282   7.293
 4235POPC   NC355139  11.696  23.595   5.606
 4235POPC   PO455140  11.123  23.444   5.329
 4235POPC   GL155141  11.213  23.455   5.752
 4235POPC   GL255142  11.248  23.807   5.763
 4235POPC   C1A55143  11.356  23.426   6.178
 4235POPC   D2A55144  11.251  23.566   6.590
 4235POPC   C3A55145  11.548  23.533   6.936
 4235POPC   C4A55146  11.272  23.500   7.322
 4235POPC   C1B55147  11.451  23.937   6.142
 4235POPC   C2B55148  11.426  24.052   6.586
 4235POPC   C3B55149  11.250  23.952   6.986
 4235POPC   C4B55150  11.559  23.920   7.295
 4236POPC   NC355151  11.491  32.023   5.480
 4236POPC   PO455152  11.067  32.522   5.324
 4236POPC   GL155153  11.291  32.561   5.735
 4236POPC   GL255154  11.186  32.242   5.835
 4236POPC   C1A55155  11.467  32.573   6.205
 4236POPC   D2A55156  11.541  32.317   6.636
 4236POPC   C3A55157  11.452  32.483   7.019
 4236POPC   C4A55158  11.315  32.230   7.335
 4236POPC   C1B55159  11.314  32.059   6.224
 4236POPC   C2B55160  11.141  31.973   6.628
 4236POPC   C3B55161  11.141  31.828   7.062
 4236POPC   C4B55162  10.917  31.950   7.440
 4237POPC   NC355163  36.450  25.777   5.559
 4237POPC   PO455164  35.879  26.058   5.548
 4237POPC   GL155165  36.083  25.914   5.892
 4237POPC   GL255166  36.314  26.212   5.848
 4237POPC   C1A55167  35.989  25.714   6.296
 4237POPC   D2A55168  36.010  25.889   6.713
 4237POPC   C3A55169  36.128  25.668   7.099
 4237POPC   C4A55170  36.055  25.971   7.481
 4237POPC   C1B55171  36.188  26.217   6.296
 4237POPC   C2B55172  36.452  26.166   6.649
 4237POPC   C3B55173  36.326  26.137   7.065
 4237POPC   C4B55174  36.486  26.224   7.453
 4238POPC   NC355175  23.192  35.519   5.575
 4238POPC   PO455176  23.816  35.593   5.347
 4238POPC   GL155177  23.701  35.359   5.748
 4238POPC   GL255178  23.808  35.602   5.994
 4238POPC   C1A55179  23.886  35.051   6.112
 4238POPC   D2A55180  24.079  34.957   6.552
 4238POPC   C3A55181  23.853  35.131   6.917
 4238POPC   C4A55182  23.885  35.521   7.140
 4238POPC   C1B55183  23.479  35.345   6.204
 4238POPC   C2B55184  23.408  35.249   6.615
 4238POPC   C3B55185  23.171  35.384   6.946
 4238POPC   C4B55186  23.349  35.418   7.344
 4239POPC   NC355187  37.469  19.535   5.313
 4239POPC   PO455188  38.055  19.901   5.339
 4239POPC   GL155189  37.804  19.736   5.724
 4239POPC   GL255190  37.442  19.627   5.814
 4239POPC   C1A55191  37.801  19.591   6.162
 4239POPC   D2A55192  37.606  19.734   6.508
 4239POPC   C3A55193  37.695  19.811   6.889
 4239POPC   C4A55194  37.641  19.690   7.295
 4239POPC   C1B55195  37.398  19.997   6.119
 4239POPC   C2B55196  37.276  20.122   6.541
 4239POPC   C3B55197  37.194  19.902   6.883
 4239POPC   C4B55198  37.165  19.994   7.275
 4240POPC   NC355199   6.213  22.043   5.527
 4240POPC   PO455200   6.750  22.394   5.430
 4240POPC   GL155201   6.578  22.288   5.811
 4240POPC   GL255202   6.217  22.448   5.833
 4240POPC   C1A55203   6.786  22.213   6.223
 4240POPC   D2A55204   6.953  22.292   6.637
 4240POPC   C3A55205   6.685  22.069   6.939
 4240POPC   C4A55206   6.618  22.112   7.373
 4240POPC   C1B55207   6.243  22.182   6.184
 4240POPC   C2B55208   6.365  22.027   6.555
 4240POPC   C3B55209   6.204  22.274   6.893
 4240POPC   C4B55210   6.136  22.181   7.280
 4241POPC   NC355211  17.320   0.214   5.302
 4241POPC   PO455212  17.756   0.651   5.351
 4241POPC   GL155213  17.587   0.544   5.779
 4241POPC   GL255214  17.360   0.257   5.811
 4241POPC   C1A55215  17.613   0.475   6.233
 4241POPC   D2A55216  17.782   0.666   6.586
 4241POPC   C3A55217  17.651   0.531   6.961
 4241POPC   C4A55218  17.572   0.404   7.389
 4241POPC   C1B55219  17.224   0.142   6.214
 4241POPC   C2B55220  17.336   0.199   6.634
 4241POPC   C3B55221  17.170   0.384   7.013
 4241POPC   C4B55222  17.082   0.221   7.402
 4242POPC   NC355223   8.427  20.549   5.486
 4242POPC   PO455224   7.876  20.316   5.331
 4242POPC   GL155225   7.977  20.530   5.767
 4242POPC   GL255226   8.281  20.362   5.947
 4242POPC   C1A55227   7.919  20.720   6.211
 4242POPC   D2A55228   7.843  20.813   6.686
 4242POPC   C3A55229   8.198  20.751   7.035
 4242POPC   C4A55230   8.258  20.679   7.508
 4242POPC   C1B55231   8.510  20.175   6.308
 4242POPC   C2B55232   8.543  20.319   6.761
 4242POPC   C3B55233   8.258  20.225   7.118
 4242POPC   C4B55234   8.138  20.185   7.559
 4243POPC   NC355235  44.378  17.095   5.532
 4243POPC   PO455236  43.878  16.683   5.720
 4243POPC   GL155237  43.850  17.093   5.851
 4243POPC   GL255238  43.490  17.135   5.830
 4243POPC   C1A55239  44.132  17.195   6.185
 4243POPC   D2A55240  44.275  16.955   6.561
 4243POPC   C3A55241  43.942  16.840   6.869
 4243POPC   C4A55242  43.941  16.648   7.290
 4243POPC   C1B55243  43.532  16.905   6.261
 4243POPC   C2B55244  43.447  16.681   6.683
 4243POPC   C3B55245  43.465  16.678   7.151
 4243POPC   C4B55246  43.554  16.392   7.559
 4244POPC   NC355247  41.216  22.725   5.491
 4244POPC   PO455248  40.505  22.800   5.467
 4244POPC   GL155249  40.727  22.835   5.841
 4244POPC   GL255250  40.970  23.099   5.804
 4244POPC   C1A55251  40.601  22.880   6.275
 4244POPC   D2A55252  40.702  22.649   6.657
 4244POPC   C3A55253  40.468  22.875   6.986
 4244POPC   C4A55254  40.492  23.251   7.187
 4244POPC   C1B55255  41.093  22.952   6.229
 4244POPC   C2B55256  40.981  23.118   6.629
 4244POPC   C3B55257  40.958  23.002   7.061
 4244POPC   C4B55258  40.999  23.246   7.426
 4245POPC   NC355259   7.163   6.757   5.543
 4245POPC   PO455260   7.516   7.356   5.384
 4245POPC   GL155261   7.415   7.457   5.798
 4245POPC   GL255262   7.313   7.125   5.863
 4245POPC   C1A55263   7.637   7.648   6.151
 4245POPC   D2A55264   7.728   7.444   6.546
 4245POPC   C3A55265   7.812   7.652   6.947
 4245POPC   C4A55266   7.590   7.714   7.336
 4245POPC   C1B55267   7.282   7.290   6.263
 4245POPC   C2B55268   7.135   7.377   6.642
 4245POPC   C3B55269   7.338   7.367   7.024
 4245POPC   C4B55270   7.148   7.503   7.420
 4246POPC   NC355271  25.458  43.417   5.373
 4246POPC   PO455272  25.152  42.805   5.429
 4246POPC   GL155273  25.028  43.088   5.804
 4246POPC   GL255274  25.174  43.430   5.811
 4246POPC   C1A55275  25.059  43.198   6.251
 4246POPC   D2A55276  25.154  43.106   6.640
 4246POPC   C3A55277  25.076  43.420   6.898
 4246POPC   C4A55278  24.957  43.241   7.235
 4246POPC   C1B55279  25.491  43.432   6.156
 4246POPC   C2B55280  25.476  43.516   6.597
 4246POPC   C3B55281  25.566  43.382   7.057
 4246POPC   C4B55282  25.779  43.369   7.469
 4247POPC   NC355283   2.559  25.394   5.381
 4247POPC   PO455284   3.129  25.157   5.317
 4247POPC   GL155285   2.844  25.194   5.746
 4247POPC   GL255286   2.483  25.062   5.760
 4247POPC   C1A55287   2.928  25.290   6.191
 4247POPC   D2A55288   3.041  25.032   6.577
 4247POPC   C3A55289   2.860  25.116   6.978
 4247POPC   C4A55290   2.811  25.334   7.363
 4247POPC   C1B55291   2.422  25.244   6.195
 4247POPC   C2B55292   2.413  25.296   6.655
 4247POPC   C3B55293   2.355  25.289   7.103
 4247POPC   C4B55294   2.292  25.279   7.547
 4248POPC   NC355295  41.573  25.981   5.257
 4248POPC   PO455296  41.486  26.510   5.623
 4248POPC   GL155297  41.734  26.189   5.780
 4248POPC   GL255298  41.483  25.913   5.760
 4248POPC   C1A55299  41.851  26.307   6.211
 4248POPC   D2A55300  41.546  26.403   6.511
 4248POPC   C3A55301  41.711  26.320   6.906
 4248POPC   C4A55302  41.674  26.492   7.288
 4248POPC   C1B55303  41.618  25.850   6.190
 4248POPC   C2B55304  41.605  25.853   6.649
 4248POPC   C3B55305  41.669  25.816   7.101
 4248POPC   C4B55306  41.500  25.712   7.501
 4249POPC   NC355307  22.530   8.376   5.656
 4249POPC   PO455308  22.270   7.818   5.336
 4249POPC   GL155309  22.169   8.022   5.774
 4249POPC   GL255310  21.855   8.204   5.806
 4249POPC   C1A55311  22.216   8.278   6.211
 4249POPC   D2A55312  22.485   8.161   6.605
 4249POPC   C3A55313  22.293   7.905   6.981
 4249POPC   C4A55314  22.321   8.180   7.308
 4249POPC   C1B55315  21.861   7.910   6.157
 4249POPC   C2B55316  22.006   7.958   6.574
 4249POPC   C3B55317  21.944   8.273   6.947
 4249POPC   C4B55318  21.814   8.236   7.398
 4250POPC   NC355319  40.917  33.285   5.399
 4250POPC   PO455320  40.429  32.775   5.348
 4250POPC   GL155321  40.614  33.013   5.727
 4250POPC   GL255322  40.985  32.921   5.770
 4250POPC   C1A55323  40.557  33.225   6.162
 4250POPC   D2A55324  40.655  33.094   6.607
 4250POPC   C3A55325  40.569  33.318   7.014
 4250POPC   C4A55326  40.323  33.127   7.371
 4250POPC   C1B55327  41.158  32.967   6.188
 4250POPC   C2B55328  41.184  33.133   6.591
 4250POPC   C3B55329  41.088  33.256   7.020
 4250POPC   C4B55330  41.020  32.988   7.387
 4251POPC   NC355331  13.922  21.135   5.490
 4251POPC   PO455332  13.502  21.685   5.375
 4251POPC   GL155333  13.591  21.435   5.748
 4251POPC   GL255334  13.904  21.578   5.811
 4251POPC   C1A55335  13.598  21.173   6.159
 4251POPC   D2A55336  13.806  20.979   6.534
 4251POPC   C3A55337  13.636  21.050   6.965
 4251POPC   C4A55338  13.730  21.337   7.350
 4251POPC   C1B55339  13.813  21.763   6.190
 4251POPC   C2B55340  13.711  21.600   6.566
 4251POPC   C3B55341  13.543  21.565   6.954
 4251POPC   C4B55342  13.232  21.280   7.187
 4252POPC   NC355343  22.388  43.611   5.280
 4252POPC   PO455344  22.042  44.145   5.030
 4252POPC   GL155345  22.067  44.057   5.535
 4252POPC   GL255346  22.019  43.715   5.663
 4252POPC   C1A55347  22.313  44.041   5.957
 4252POPC   D2A55348  22.336  43.886   6.391
 4252POPC   C3A55349  22.093  44.060   6.740
 4252POPC   C4A55350  22.218  44.249   7.141
 4252POPC   C1B55351  22.232  43.503   6.021
 4252POPC   C2B55352  22.196  43.377   6.465
 4252POPC   C3B55353  22.060  43.517   6.872
 4252POPC   C4B55354  22.199  43.740   7.237
 4253POPC   NC355355  19.479   5.175   5.493
 4253POPC   PO455356  18.876   4.813   5.490
 4253POPC   GL155357  19.230   4.858   5.818
 4253POPC   GL255358  19.274   5.224   5.953
 4253POPC   C1A55359  19.247   4.828   6.256
 4253POPC   D2A55360  19.380   4.862   6.657
 4253POPC   C3A55361  19.032   4.747   6.890
 4253POPC   C4A55362  18.862   4.769   7.286
 4253POPC   C1B55363  19.215   5.362   6.400
 4253POPC   C2B55364  19.076   5.267   6.804
 4253POPC   C3B55365  19.127   5.197   7.226
 4253POPC   C4B55366  19.406   5.429   7.494
 4254POPC   NC355367  11.854  44.000   5.192
 4254POPC   PO455368  11.217  43.804   5.300
 4254POPC   GL155369  11.142  43.895   5.744
 4254POPC   GL255370  11.122  43.573   5.806
 4254POPC   C1A55371  11.295  43.908   6.200
 4254POPC   D2A55372  11.568  43.789   6.574
 4254POPC   C3A55373  11.533  44.015   6.980
 4254POPC   C4A55374  11.696  44.144   7.402
 4254POPC   C1B55375  11.065  43.435   6.196
 4254POPC   C2B55376  11.064  43.630   6.578
 4254POPC   C3B55377  11.262  43.561   6.953
 4254POPC   C4B55378  11.337  43.384   7.324
 4255POPC   NC355379  10.261  22.274   5.357
 4255POPC   PO455380  10.802  22.464   5.689
 4255POPC   GL155381  10.375  22.425   5.857
 4255POPC   GL255382  10.184  22.074   5.812
 4255POPC   C1A55383  10.493  22.509   6.285
 4255POPC   D2A55384  10.810  22.352   6.569
 4255POPC   C3A55385  10.685  22.198   6.973
 4255POPC   C4A55386  10.705  22.371   7.337
 4255POPC   C1B55387  10.171  22.106   6.229
 4255POPC   C2B55388  10.331  22.155   6.620
 4255POPC   C3B55389  10.190  22.282   7.006
 4255POPC   C4B55390  10.312  22.030   7.338
 4256POPC   NC355391   4.618  27.950   5.003
 4256POPC   PO455392   4.461  27.360   5.340
 4256POPC   GL155393   4.358  27.278   5.793
 4256POPC   GL255394   3.981  27.176   5.810
 4256POPC   C1A55395   4.575  27.266   6.237
 4256POPC   D2A55396   4.467  27.547   6.574
 4256POPC   C3A55397   4.442  27.512   7.021
 4256POPC   C4A55398   4.401  27.945   7.149
 4256POPC   C1B55399   4.070  27.369   6.218
 4256POPC   C2B55400   4.099  27.201   6.629
 4256POPC   C3B55401   3.951  27.317   7.004
 4256POPC   C4B55402   3.984  27.663   7.227
 4257POPC   NC355403  36.438   1.468   5.360
 4257POPC   PO455404  36.066   0.974   5.348
 4257POPC   GL155405  36.036   1.102   5.779
 4257POPC   GL255406  36.320   1.315   5.841
 4257POPC   C1A55407  36.047   0.937   6.205
 4257POPC   D2A55408  36.089   0.848   6.653
 4257POPC   C3A55409  35.918   1.144   6.953
 4257POPC   C4A55410  35.993   1.131   7.397
 4257POPC   C1B55411  36.144   1.444   6.246
 4257POPC   C2B55412  36.145   1.536   6.693
 4257POPC   C3B55413  36.336   1.424   7.088
 4257POPC   C4B55414  36.449   1.347   7.495
 4258POPC   NC355415  40.364  25.998   5.306
 4258POPC   PO455416  39.695  26.020   5.423
 4258POPC   GL155417  39.946  25.876   5.767
 4258POPC   GL255418  40.263  25.773   5.759
 4258POPC   C1A55419  40.120  26.049   6.162
 4258POPC   D2A55420  39.981  26.241   6.531
 4258POPC   C3A55421  40.134  26.176   6.939
 4258POPC   C4A55422  39.899  26.032   7.307
 4258POPC   C1B55423  40.102  25.540   6.132
 4258POPC   C2B55424  40.064  25.663   6.573
 4258POPC   C3B55425  40.222  25.668   7.003
 4258POPC   C4B55426  40.187  25.658   7.476
 4259POPC   NC355427  30.772  42.617   5.298
 4259POPC   PO455428  30.194  42.691   5.626
 4259POPC   GL155429  30.687  42.690   5.793
 4259POPC   GL255430  30.827  42.365   5.852
 4259POPC   C1A55431  30.947  42.725   6.198
 4259POPC   D2A55432  30.820  42.692   6.635
 4259POPC   C3A55433  30.983  42.488   7.011
 4259POPC   C4A55434  30.843  42.515   7.431
 4259POPC   C1B55435  30.524  42.435   6.236
 4259POPC   C2B55436  30.362  42.473   6.693
 4259POPC   C3B55437  30.449  42.372   7.136
 4259POPC   C4B55438  30.480  42.177   7.558
 4260POPC   NC355439   6.091  44.961   5.393
 4260POPC   PO455440   5.586  44.511   5.444
 4260POPC   GL155441   5.714  44.649   5.857
 4260POPC   GL255442   6.026  44.823   5.885
 4260POPC   C1A55443   5.897  44.525   6.264
 4260POPC   D2A55444   5.811  44.330   6.629
 4260POPC   C3A55445   6.064  44.439   6.950
 4260POPC   C4A55446   6.021  44.406   7.403
 4260POPC   C1B55447   6.043   0.014   6.329
 4260POPC   C2B55448   5.970  44.946   6.799
 4260POPC   C3B55449   5.878   0.015   7.264
 4260POPC   C4B55450   6.231   0.141   7.563
 4261POPC   NC355451  38.017   7.947   5.425
 4261POPC   PO455452  37.474   8.393   5.404
 4261POPC   GL155453  37.838   8.360   5.693
 4261POPC   GL255454  37.677   8.074   5.803
 4261POPC   C1A55455  38.058   8.242   6.106
 4261POPC   D2A55456  37.866   8.301   6.525
 4261POPC   C3A55457  38.017   8.155   6.942
 4261POPC   C4A55458  37.780   8.265   7.291
 4261POPC   C1B55459  37.536   8.390   6.111
 4261POPC   C2B55460  37.326   8.304   6.486
 4261POPC   C3B55461  37.491   8.312   6.879
 4261POPC   C4B55462  37.408   8.621   7.210
 4262POPC   NC355463   8.237   9.757   5.325
 4262POPC   PO455464   7.710  10.008   5.629
 4262POPC   GL155465   8.100   9.807   5.818
 4262POPC   GL255466   8.304   9.468   5.774
 4262POPC   C1A55467   8.209   9.688   6.243
 4262POPC   D2A55468   8.071   9.528   6.651
 4262POPC   C3A55469   8.087   9.899   6.923
 4262POPC   C4A55470   7.836  10.083   7.260
 4262POPC   C1B55471   8.559   9.311   6.172
 4262POPC   C2B55472   8.595   9.554   6.590
 4262POPC   C3B55473   8.487   9.617   7.035
 4262POPC   C4B55474   8.620   9.816   7.424
 4263POPC   NC355475  23.806   5.441   5.639
 4263POPC   PO455476  23.563   4.882   5.281
 4263POPC   GL155477  23.560   4.979   5.718
 4263POPC   GL255478  23.927   4.998   5.885
 4263POPC   C1A55479  23.489   5.034   6.155
 4263POPC   D2A55480  23.764   4.998   6.504
 4263POPC   C3A55481  23.652   5.221   6.859
 4263POPC   C4A55482  23.666   5.180   7.302
 4263POPC   C1B55483  24.064   5.308   6.232
 4263POPC   C2B55484  24.027   5.506   6.645
 4263POPC   C3B55485  24.036   5.472   7.101
 4263POPC   C4B55486  24.056   5.401   7.555
 4264POPC   NC355487   4.035  31.581   4.868
 4264POPC   PO455488   4.408  31.658   5.461
 4264POPC   GL155489   4.472  31.428   5.769
 4264POPC   GL255490   4.697  31.131   5.707
 4264POPC   C1A55491   4.232  31.493   6.104
 4264POPC   D2A55492   4.364  31.421   6.510
 4264POPC   C3A55493   4.503  31.444   6.938
 4264POPC   C4A55494   4.291  31.507   7.325
 4264POPC   C1B55495   4.687  31.199   6.165
 4264POPC   C2B55496   4.816  31.229   6.594
 4264POPC   C3B55497   4.747  30.997   6.976
 4264POPC   C4B55498   4.651  31.145   7.350
 4265POPC   NC355499  30.011   5.563   5.263
 4265POPC   PO455500  30.078   6.238   5.321
 4265POPC   GL155501  29.894   5.932   5.611
 4265POPC   GL255502  30.200   5.738   5.715
 4265POPC   C1A55503  29.754   5.740   6.029
 4265POPC   D2A55504  29.982   5.752   6.455
 4265POPC   C3A55505  29.761   5.732   6.861
 4265POPC   C4A55506  29.573   5.684   7.256
 4265POPC   C1B55507  30.132   6.072   6.040
 4265POPC   C2B55508  30.059   6.270   6.427
 4265POPC   C3B55509  30.073   6.150   6.848
 4265POPC   C4B55510  30.097   5.904   7.211
 4266POPC   NC355511  31.595   2.398   5.471
 4266POPC   PO455512  31.459   3.118   5.314
 4266POPC   GL155513  31.386   2.882   5.717
 4266POPC   GL255514  31.714   2.788   5.767
 4266POPC   C1A55515  31.244   2.807   6.187
 4266POPC   D2A55516  31.368   2.618   6.618
 4266POPC   C3A55517  31.398   2.874   7.017
 4266POPC   C4A55518  31.317   2.907   7.498
 4266POPC   C1B55519  31.685   2.515   6.154
 4266POPC   C2B55520  31.899   2.527   6.548
 4266POPC   C3B55521  31.784   2.540   6.982
 4266POPC   C4B55522  31.412   2.368   7.148
 4267POPC   NC355523  15.686  12.945   5.001
 4267POPC   PO455524  15.681  13.275   5.635
 4267POPC   GL155525  15.978  13.001   5.813
 4267POPC   GL255526  16.311  13.012   5.699
 4267POPC   C1A55527  15.896  12.851   6.202
 4267POPC   D2A55528  15.916  13.175   6.499
 4267POPC   C3A55529  16.040  13.035   6.881
 4267POPC   C4A55530  15.923  13.167   7.260
 4267POPC   C1B55531  16.418  12.905   6.136
 4267POPC   C2B55532  16.296  12.745   6.534
 4267POPC   C3B55533  16.195  12.528   6.917
 4267POPC   C4B55534  15.904  12.645   7.237
 4268POPC   NC355535  17.490  11.655   5.406
 4268POPC   PO455536  17.262  12.228   5.353
 4268POPC   GL155537  17.376  12.007   5.761
 4268POPC   GL255538  17.739  11.971   5.754
 4268POPC   C1A55539  17.395  11.886   6.211
 4268POPC   D2A55540  17.267  11.727   6.621
 4268POPC   C3A55541  17.468  11.923   6.970
 4268POPC   C4A55542  17.450  11.794   7.374
 4268POPC   C1B55543  17.809  12.194   6.147
 4268POPC   C2B55544  17.606  12.216   6.566
 4268POPC   C3B55545  17.821  12.319   6.962
 4268POPC   C4B55546  17.972  12.431   7.405
 4269POPC   NC355547   5.037  33.393   5.483
 4269POPC   PO455548   5.439  33.952   5.464
 4269POPC   GL155549   5.218  33.794   5.827
 4269POPC   GL255550   4.854  33.769   5.805
 4269POPC   C1A55551   5.063  34.049   6.177
 4269POPC   D2A55552   5.090  34.057   6.623
 4269POPC   C3A55553   5.152  33.641   6.803
 4269POPC   C4A55554   5.125  33.736   7.196
 4269POPC   C1B55555   4.881  33.571   6.222
 4269POPC   C2B55556   4.677  33.654   6.630
 4269POPC   C3B55557   4.740  33.443   7.035
 4269POPC   C4B55558   4.773  33.579   7.514
 4270POPC   NC355559  10.064  11.167   5.313
 4270POPC   PO455560  10.204  10.472   5.382
 4270POPC   GL155561   9.849  10.446   5.700
 4270POPC   GL255562   9.681  10.773   5.601
 4270POPC   C1A55563   9.816  10.254   6.146
 4270POPC   D2A55564  10.054  10.058   6.518
 4270POPC   C3A55565   9.949  10.255   6.916
 4270POPC   C4A55566   9.973  10.519   7.296
 4270POPC   C1B55567   9.644  10.752   6.069
 4270POPC   C2B55568   9.585  10.611   6.500
 4270POPC   C3B55569   9.635  10.667   6.938
 4270POPC   C4B55570   9.629  10.911   7.312
 4271POPC   NC355571  37.977  32.601   5.301
 4271POPC   PO455572  37.962  31.965   5.591
 4271POPC   GL155573  37.602  32.166   5.741
 4271POPC   GL255574  37.607  32.451   5.647
 4271POPC   C1A55575  37.473  32.206   6.166
 4271POPC   D2A55576  37.770  32.325   6.483
 4271POPC   C3A55577  37.565  32.322   6.856
 4271POPC   C4A55578  37.768  32.282   7.261
 4271POPC   C1B55579  37.497  32.688   6.011
 4271POPC   C2B55580  37.396  32.683   6.442
 4271POPC   C3B55581  37.347  32.818   6.855
 4271POPC   C4B55582  37.324  32.568   7.238
 4272POPC   NC355583  31.351  19.996   5.329
 4272POPC   PO455584  31.953  19.833   5.547
 4272POPC   GL155585  31.597  19.865   5.773
 4272POPC   GL255586  31.431  19.573   5.628
 4272POPC   C1A55587  31.532  20.046   6.178
 4272POPC   D2A55588  31.646  20.232   6.591
 4272POPC   C3A55589  31.538  19.963   6.937
 4272POPC   C4A55590  31.660  19.650   7.255
 4272POPC   C1B55591  31.310  19.571   6.080
 4272POPC   C2B55592  31.309  19.701   6.539
 4272POPC   C3B55593  31.224  19.558   6.988
 4272POPC   C4B55594  31.042  19.463   7.410
 4273POPC   NC355595  21.907  30.887   5.593
 4273POPC   PO455596  22.448  30.468   5.515
 4273POPC   GL155597  22.238  30.603   5.866
 4273POPC   GL255598  21.910  30.439   5.823
 4273POPC   C1A55599  22.343  30.837   6.239
 4273POPC   D2A55600  22.533  30.729   6.592
 4273POPC   C3A55601  22.291  30.650   6.934
 4273POPC   C4A55602  22.106  30.903   7.194
 4273POPC   C1B55603  21.867  30.655   6.219
 4273POPC   C2B55604  21.883  30.574   6.623
 4273POPC   C3B55605  21.693  30.575   7.012
 4273POPC   C4B55606  21.806  30.490   7.410
 4274POPC   NC355607  13.038  18.916   5.401
 4274POPC   PO455608  12.596  19.483   5.421
 4274POPC   GL155609  12.785  19.245   5.756
 4274POPC   GL255610  12.715  18.891   5.805
 4274POPC   C1A55611  12.837  19.268   6.204
 4274POPC   D2A55612  12.803  19.427   6.646
 4274POPC   C3A55613  12.707  19.246   7.005
 4274POPC   C4A55614  12.894  19.272   7.375
 4274POPC   C1B55615  12.827  18.740   6.203
 4274POPC   C2B55616  12.932  18.807   6.633
 4274POPC   C3B55617  12.782  18.713   7.043
 4274POPC   C4B55618  12.936  18.776   7.455
 4275POPC   NC355619  13.238  38.562   5.282
 4275POPC   PO455620  13.841  38.305   5.526
 4275POPC   GL155621  13.773  38.474   5.911
 4275POPC   GL255622  13.613  38.753   5.779
 4275POPC   C1A55623  13.694  38.380   6.346
 4275POPC   D2A55624  13.521  38.121   6.701
 4275POPC   C3A55625  13.631  38.320   7.135
 4275POPC   C4A55626  13.925  38.200   7.454
 4275POPC   C1B55627  13.528  38.845   6.212
 4275POPC   C2B55628  13.640  38.872   6.637
 4275POPC   C3B55629  13.770  38.823   7.049
 4275POPC   C4B55630  13.430  38.796   7.334
 4276POPC   NC355631  19.529  36.858   5.479
 4276POPC   PO455632  20.096  36.511   5.429
 4276POPC   GL155633  19.955  36.817   5.796
 4276POPC   GL255634  19.755  37.168   5.821
 4276POPC   C1A55635  19.671  36.830   6.175
 4276POPC   D2A55636  19.632  36.682   6.574
 4276POPC   C3A55637  19.939  36.686   6.864
 4276POPC   C4A55638  19.768  36.922   7.184
 4276POPC   C1B55639  19.843  37.323   6.263
 4276POPC   C2B55640  19.830  37.183   6.704
 4276POPC   C3B55641  19.951  37.401   7.066
 4276POPC   C4B55642  20.058  37.289   7.464
 4277POPC   NC355643  41.030  30.899   5.510
 4277POPC   PO455644  40.544  30.473   5.440
 4277POPC   GL155645  40.848  30.501   5.797
 4277POPC   GL255646  40.587  30.454   6.020
 4277POPC   C1A55647  40.980  30.789   6.171
 4277POPC   D2A55648  41.172  30.832   6.598
 4277POPC   C3A55649  40.991  30.533   6.873
 4277POPC   C4A55650  40.738  30.634   7.207
 4277POPC   C1B55651  40.473  30.833   6.263
 4277POPC   C2B55652  40.614  30.894   6.702
 4277POPC   C3B55653  40.328  30.842   7.031
 4277POPC   C4B55654  40.245  30.522   7.336
 4278POPC   NC355655  37.427  34.112   5.359
 4278POPC   PO455656  37.944  33.738   5.589
 4278POPC   GL155657  37.693  33.680   5.914
 4278POPC   GL255658  37.520  33.997   5.853
 4278POPC   C1A55659  37.779  33.605   6.370
 4278POPC   D2A55660  37.885  33.908   6.717
 4278POPC   C3A55661  37.863  33.691   7.086
 4278POPC   C4A55662  37.445  33.494   7.194
 4278POPC   C1B55663  37.586  34.063   6.276
 4278POPC   C2B55664  37.346  34.055   6.626
 4278POPC   C3B55665  37.456  34.020   7.031
 4278POPC   C4B55666  37.268  34.175   7.365
 4279POPC   NC355667  29.529   2.407   5.509
 4279POPC   PO455668  30.015   1.934   5.210
 4279POPC   GL155669  29.759   1.983   5.649
 4279POPC   GL255670  29.838   1.758   5.927
 4279POPC   C1A55671  29.831   2.256   6.070
 4279POPC   D2A55672  30.086   2.283   6.450
 4279POPC   C3A55673  29.868   2.315   6.827
 4279POPC   C4A55674  30.053   2.187   7.213
 4279POPC   C1B55675  29.609   1.533   6.241
 4279POPC   C2B55676  29.692   1.534   6.683
 4279POPC   C3B55677  30.027   1.776   6.903
 4279POPC   C4B55678  30.215   1.713   7.324
 4280POPC   NC355679  16.097  39.487   5.257
 4280POPC   PO455680  15.578  39.561   5.681
 4280POPC   GL155681  15.908  39.341   5.843
 4280POPC   GL255682  16.031  39.064   5.632
 4280POPC   C1A55683  15.965  39.349   6.300
 4280POPC   D2A55684  16.073  39.352   6.735
 4280POPC   C3A55685  15.819  39.113   7.025
 4280POPC   C4A55686  15.926  39.063   7.470
 4280POPC   C1B55687  16.167  38.953   6.072
 4280POPC   C2B55688  16.070  38.863   6.535
 4280POPC   C3B55689  16.284  38.913   6.954
 4280POPC   C4B55690  16.356  39.281   7.199
 4281POPC   NC355691  22.883  23.974   5.506
 4281POPC   PO455692  23.369  23.675   5.451
 4281POPC   GL155693  23.134  23.759   5.872
 4281POPC   GL255694  23.071  24.107   5.964
 4281POPC   C1A55695  22.818  23.683   6.205
 4281POPC   D2A55696  23.029  23.580   6.572
 4281POPC   C3A55697  22.874  23.611   6.976
 4281POPC   C4A55698  22.604  23.322   7.140
 4281POPC   C1B55699  23.106  24.065   6.384
 4281POPC   C2B55700  23.142  24.024   6.811
 4281POPC   C3B55701  23.206  23.910   7.240
 4281POPC   C4B55702  23.047  24.086   7.608
 4282POPC   NC355703  30.399   4.807   5.790
 4282POPC   PO455704  29.951   5.149   5.434
 4282POPC   GL155705  29.970   5.268   5.842
 4282POPC   GL255706  29.866   4.939   5.950
 4282POPC   C1A55707  30.142   5.279   6.274
 4282POPC   D2A55708  30.181   5.059   6.691
 4282POPC   C3A55709  30.046   5.306   7.063
 4282POPC   C4A55710  30.374   5.462   7.345
 4282POPC   C1B55711  29.615   4.786   6.314
 4282POPC   C2B55712  29.732   4.797   6.727
 4282POPC   C3B55713  29.978   4.771   7.081
 4282POPC   C4B55714  29.683   4.877   7.304
 4283POPC   NC355715  35.649  11.382   5.516
 4283POPC   PO455716  35.023  11.187   5.368
 4283POPC   GL155717  35.196  11.294   5.766
 4283POPC   GL255718  35.421  11.010   5.834
 4283POPC   C1A55719  35.342  11.597   6.103
 4283POPC   D2A55720  35.474  11.512   6.521
 4283POPC   C3A55721  35.257  11.579   6.946
 4283POPC   C4A55722  35.003  11.330   7.249
 4283POPC   C1B55723  35.257  11.110   6.255
 4283POPC   C2B55724  35.320  11.074   6.720
 4283POPC   C3B55725  35.482  11.142   7.117
 4283POPC   C4B55726  35.553  10.976   7.550
 4284POPC   NC355727  18.933  28.899   5.433
 4284POPC   PO455728  19.201  29.577   5.464
 4284POPC   GL155729  18.942  29.457   5.820
 4284POPC   GL255730  18.879  29.090   5.915
 4284POPC   C1A55731  19.135  29.408   6.229
 4284POPC   D2A55732  19.177  29.145   6.592
 4284POPC   C3A55733  19.014  29.227   6.979
 4284POPC   C4A55734  19.119  29.321   7.375
 4284POPC   C1B55735  18.724  29.070   6.369
 4284POPC   C2B55736  18.760  28.814   6.789
 4284POPC   C3B55737  18.847  28.846   7.279
 4284POPC   C4B55738  18.750  29.117   7.695
 4285POPC   NC355739  15.148   3.845   5.463
 4285POPC   PO455740  14.806   4.533   5.417
 4285POPC   GL155741  15.098   4.528   5.794
 4285POPC   GL255742  15.307   4.236   5.822
 4285POPC   C1A55743  15.248   4.574   6.240
 4285POPC   D2A55744  15.431   4.608   6.672
 4285POPC   C3A55745  15.272   4.332   6.992
 4285POPC   C4A55746  15.164   4.344   7.400
 4285POPC   C1B55747  15.347   3.943   6.182
 4285POPC   C2B55748  15.273   3.944   6.661
 4285POPC   C3B55749  15.018   3.894   7.088
 4285POPC   C4B55750  15.146   3.848   7.552
 4286POPC   NC355751  15.711  29.936   5.455
 4286POPC   PO455752  16.353  29.947   5.380
 4286POPC   GL155753  16.133  29.988   5.760
 4286POPC   GL255754  16.004  29.659   5.834
 4286POPC   C1A55755  16.029  30.037   6.217
 4286POPC   D2A55756  15.955  29.832   6.625
 4286POPC   C3A55757  15.901  30.046   7.047
 4286POPC   C4A55758  16.059  30.479   7.189
 4286POPC   C1B55759  16.214  29.532   6.239
 4286POPC   C2B55760  16.242  29.423   6.708
 4286POPC   C3B55761  16.227  29.611   7.156
 4286POPC   C4B55762  16.148  29.622   7.658
 4287POPC   NC355763  16.384  31.283   5.336
 4287POPC   PO455764  15.950  31.607   5.389
 4287POPC   GL155765  15.986  31.425   5.816
 4287POPC   GL255766  16.215  31.123   5.788
 4287POPC   C1A55767  15.811  31.478   6.274
 4287POPC   D2A55768  15.920  31.676   6.676
 4287POPC   C3A55769  16.105  31.410   6.966
 4287POPC   C4A55770  16.002  31.000   7.165
 4287POPC   C1B55771  16.277  31.235   6.217
 4287POPC   C2B55772  16.209  31.025   6.611
 4287POPC   C3B55773  16.472  31.028   6.956
 4287POPC   C4B55774  16.425  31.246   7.347
 4288POPC   NC355775  23.769  30.950   5.288
 4288POPC   PO455776  23.992  30.279   5.278
 4288POPC   GL155777  23.818  30.368   5.723
 4288POPC   GL255778  23.815  30.698   5.714
 4288POPC   C1A55779  23.608  30.520   6.137
 4288POPC   D2A55780  23.846  30.699   6.499
 4288POPC   C3A55781  23.865  30.526   6.934
 4288POPC   C4A55782  23.604  30.510   7.292
 4288POPC   C1B55783  23.772  30.991   6.040
 4288POPC   C2B55784  23.451  31.001   6.360
 4288POPC   C3B55785  23.532  30.958   6.807
 4288POPC   C4B55786  23.838  30.981   7.140
 4289POPC   NC355787  23.895   1.862   5.484
 4289POPC   PO455788  23.510   2.428   5.426
 4289POPC   GL155789  23.616   2.145   5.843
 4289POPC   GL255790  23.622   1.751   5.901
 4289POPC   C1A55791  23.715   2.102   6.315
 4289POPC   D2A55792  23.772   2.281   6.744
 4289POPC   C3A55793  23.860   2.067   7.132
 4289POPC   C4A55794  23.971   2.317   7.459
 4289POPC   C1B55795  23.334   1.789   6.209
 4289POPC   C2B55796  23.264   2.015   6.580
 4289POPC   C3B55797  23.275   1.904   7.002
 4289POPC   C4B55798  23.411   2.084   7.382
 4290POPC   NC355799  33.529  27.856   5.380
 4290POPC   PO455800  34.062  27.393   5.184
 4290POPC   GL155801  33.827  27.520   5.685
 4290POPC   GL255802  33.577  27.775   5.862
 4290POPC   C1A55803  33.911  27.609   6.185
 4290POPC   D2A55804  33.825  27.874   6.537
 4290POPC   C3A55805  33.943  27.678   6.888
 4290POPC   C4A55806  33.738  27.449   7.204
 4290POPC   C1B55807  33.398  27.698   6.266
 4290POPC   C2B55808  33.227  27.674   6.680
 4290POPC   C3B55809  33.480  27.876   6.964
 4290POPC   C4B55810  33.738  27.945   7.279
 4291POPC   NC355811  18.367  40.819   5.326
 4291POPC   PO455812  17.664  40.792   5.510
 4291POPC   GL155813  18.084  40.711   5.759
 4291POPC   GL255814  18.469  40.840   5.802
 4291POPC   C1A55815  18.236  40.693   6.211
 4291POPC   D2A55816  18.419  40.484   6.535
 4291POPC   C3A55817  18.363  40.669   6.897
 4291POPC   C4A55818  18.181  40.653   7.275
 4291POPC   C1B55819  18.545  41.095   6.164
 4291POPC   C2B55820  18.482  41.227   6.569
 4291POPC   C3B55821  18.465  41.163   6.975
 4291POPC   C4B55822  18.523  41.054   7.369
 4292POPC   NC355823  25.483  32.004   5.479
 4292POPC   PO455824  24.921  31.653   5.494
 4292POPC   GL155825  25.151  31.473   5.841
 4292POPC   GL255826  25.535  31.436   5.791
 4292POPC   C1A55827  25.316  31.508   6.249
 4292POPC   D2A55828  25.484  31.527   6.628
 4292POPC   C3A55829  25.259  31.569   6.984
 4292POPC   C4A55830  25.057  31.304   7.226
 4292POPC   C1B55831  25.700  31.784   6.080
 4292POPC   C2B55832  25.512  32.023   6.429
 4292POPC   C3B55833  25.611  31.944   6.863
 4292POPC   C4B55834  25.603  31.809   7.275
 4293POPC   NC355835  23.457   8.273   5.268
 4293POPC   PO455836  24.095   8.189   5.514
 4293POPC   GL155837  23.659   8.048   5.691
 4293POPC   GL255838  23.499   8.380   5.765
 4293POPC   C1A55839  23.467   8.004   6.122
 4293POPC   D2A55840  23.772   8.092   6.487
 4293POPC   C3A55841  23.648   8.021   6.939
 4293POPC   C4A55842  23.289   7.941   7.202
 4293POPC   C1B55843  23.541   8.505   6.211
 4293POPC   C2B55844  23.410   8.400   6.665
 4293POPC   C3B55845  23.500   8.483   7.111
 4293POPC   C4B55846  23.525   8.913   7.278
 4294POPC   NC355847  33.084  44.220   5.423
 4294POPC   PO455848  33.236  43.545   5.450
 4294POPC   GL155849  33.005  43.751   5.742
 4294POPC   GL255850  33.284  43.966   5.826
 4294POPC   C1A55851  32.807  43.919   6.120
 4294POPC   D2A55852  32.737  43.758   6.531
 4294POPC   C3A55853  32.935  43.925   6.903
 4294POPC   C4A55854  32.759  44.005   7.310
 4294POPC   C1B55855  33.421  43.640   6.114
 4294POPC   C2B55856  33.482  43.675   6.554
 4294POPC   C3B55857  33.353  43.599   6.959
 4294POPC   C4B55858  33.267  43.809   7.332
 4295POPC   NC355859   4.587  11.090   5.311
 4295POPC   PO455860   3.887  11.336   5.292
 4295POPC   GL155861   4.197  11.251   5.648
 4295POPC   GL255862   4.428  11.523   5.773
 4295POPC   C1A55863   4.224  11.195   6.136
 4295POPC   D2A55864   4.256  11.383   6.591
 4295POPC   C3A55865   4.319  11.202   7.006
 4295POPC   C4A55866   3.957  11.154   7.285
 4295POPC   C1B55867   4.518  11.647   6.222
 4295POPC   C2B55868   4.524  11.831   6.647
 4295POPC   C3B55869   4.401  11.700   7.045
 4295POPC   C4B55870   4.631  11.428   7.323
 4296POPC   NC355871  42.772  11.062   5.430
 4296POPC   PO455872  43.357  11.398   5.342
 4296POPC   GL155873  43.138  11.279   5.726
 4296POPC   GL255874  43.280  10.939   5.749
 4296POPC   C1A55875  42.944  11.381   6.156
 4296POPC   D2A55876  43.074  11.546   6.601
 4296POPC   C3A55877  42.896  11.397   7.014
 4296POPC   C4A55878  43.089  11.262   7.435
 4296POPC   C1B55879  43.410  11.166   6.148
 4296POPC   C2B55880  43.445  11.165   6.589
 4296POPC   C3B55881  43.396  11.245   7.014
 4296POPC   C4B55882  43.545  11.051   7.391
 4297POPC   NC355883  32.754  12.006   4.984
 4297POPC   PO455884  32.126  11.965   5.380
 4297POPC   GL155885  32.228  11.959   5.785
 4297POPC   GL255886  32.579  11.966   5.696
 4297POPC   C1A55887  32.007  12.108   6.160
 4297POPC   D2A55888  31.866  12.029   6.579
 4297POPC   C3A55889  32.182  11.934   6.908
 4297POPC   C4A55890  32.245  12.093   7.300
 4297POPC   C1B55891  32.569  12.009   6.168
 4297POPC   C2B55892  32.436  12.208   6.551
 4297POPC   C3B55893  32.580  12.308   6.974
 4297POPC   C4B55894  32.721  11.963   7.258
 4298POPC   NC355895  18.613  19.944   5.497
 4298POPC   PO455896  18.089  19.592   5.271
 4298POPC   GL155897  18.297  19.530   5.666
 4298POPC   GL255898  17.992  19.564   5.856
 4298POPC   C1A55899  18.525  19.531   6.090
 4298POPC   D2A55900  18.726  19.778   6.473
 4298POPC   C3A55901  18.494  19.867   6.887
 4298POPC   C4A55902  18.407  19.701   7.311
 4298POPC   C1B55903  17.762  19.654   6.260
 4298POPC   C2B55904  17.847  19.579   6.720
 4298POPC   C3B55905  17.969  19.892   7.069
 4298POPC   C4B55906  17.789  20.172   7.404
 4299POPC   NC355907  37.039  16.118   5.313
 4299POPC   PO455908  36.529  15.666   5.542
 4299POPC   GL155909  36.760  15.909   5.896
 4299POPC   GL255910  36.789  16.245   5.831
 4299POPC   C1A55911  36.910  16.014   6.316
 4299POPC   D2A55912  36.679  16.029   6.702
 4299POPC   C3A55913  36.735  15.664   6.991
 4299POPC   C4A55914  37.119  15.578   7.261
 4299POPC   C1B55915  36.550  16.384   6.239
 4299POPC   C2B55916  36.408  16.493   6.688
 4299POPC   C3B55917  36.646  16.380   7.082
 4299POPC   C4B55918  37.004  16.068   7.097
 4300POPC   NC355919  38.349  24.776   5.350
 4300POPC   PO455920  38.191  24.091   5.363
 4300POPC   GL155921  38.409  24.373   5.698
 4300POPC   GL255922  38.218  24.603   5.821
 4300POPC   C1A55923  38.599  24.507   6.117
 4300POPC   D2A55924  38.648  24.609   6.563
 4300POPC   C3A55925  38.473  24.463   6.979
 4300POPC   C4A55926  38.659  24.297   7.382
 4300POPC   C1B55927  38.183  24.825   6.219
 4300POPC   C2B55928  38.287  24.948   6.652
 4300POPC   C3B55929  38.121  24.813   7.067
 4300POPC   C4B55930  38.274  24.616   7.472
 4301POPC   NC355931  39.344  12.514   5.439
 4301POPC   PO455932  39.472  13.149   5.290
 4301POPC   GL155933  39.348  12.961   5.715
 4301POPC   GL255934  39.056  12.746   5.780
 4301POPC   C1A55935  39.401  12.793   6.146
 4301POPC   D2A55936  39.154  12.775   6.526
 4301POPC   C3A55937  39.366  12.765   6.885
 4301POPC   C4A55938  39.540  12.696   7.276
 4301POPC   C1B55939  38.976  12.443   6.148
 4301POPC   C2B55940  38.717  12.499   6.533
 4301POPC   C3B55941  38.874  12.551   6.938
 4301POPC   C4B55942  39.043  12.718   7.279
 4302POPC   NC355943  12.149  32.775   5.441
 4302POPC   PO455944  11.724  33.276   5.355
 4302POPC   GL155945  11.856  33.161   5.729
 4302POPC   GL255946  11.729  32.830   5.729
 4302POPC   C1A55947  11.956  33.343   6.138
 4302POPC   D2A55948  12.146  33.139   6.503
 4302POPC   C3A55949  12.019  33.181   6.930
 4302POPC   C4A55950  12.250  33.018   7.300
 4302POPC   C1B55951  11.929  32.794   6.116
 4302POPC   C2B55952  11.895  32.655   6.521
 4302POPC   C3B55953  11.953  32.611   6.929
 4302POPC   C4B55954  12.036  32.521   7.344
 4303POPC   NC355955  41.846  25.066   5.524
 4303POPC   PO455956  42.496  25.116   5.348
 4303POPC   GL155957  42.540  25.036   5.791
 4303POPC   GL255958  42.666  25.345   5.922
 4303POPC   C1A55959  42.265  25.019   6.186
 4303POPC   D2A55960  42.314  25.237   6.602
 4303POPC   C3A55961  42.039  25.467   6.869
 4303POPC   C4A55962  42.127  25.629   7.262
 4303POPC   C1B55963  42.745  25.157   6.324
 4303POPC   C2B55964  42.813  25.351   6.736
 4303POPC   C3B55965  42.546  25.290   7.091
 4303POPC   C4B55966  42.189  25.005   7.060
 4304POPC   NC355967  16.346  42.395   5.402
 4304POPC   PO455968  15.688  42.549   5.350
 4304POPC   GL155969  15.932  42.406   5.704
 4304POPC   GL255970  15.690  42.351   5.869
 4304POPC   C1A55971  16.137  42.285   6.129
 4304POPC   D2A55972  16.018  42.193   6.571
 4304POPC   C3A55973  16.188  42.400   6.954
 4304POPC   C4A55974  15.847  42.467   7.247
 4304POPC   C1B55975  15.408  42.227   6.116
 4304POPC   C2B55976  15.479  42.246   6.531
 4304POPC   C3B55977  15.446  42.294   6.960
 4304POPC   C4B55978  15.509  42.069   7.311
 4305POPC   NC355979  43.272   2.305   5.524
 4305POPC   PO455980  42.949   1.812   5.261
 4305POPC   GL155981  43.094   1.862   5.675
 4305POPC   GL255982  42.878   2.099   5.790
 4305POPC   C1A55983  43.163   1.898   6.156
 4305POPC   D2A55984  43.219   1.677   6.550
 4305POPC   C3A55985  43.197   1.994   6.872
 4305POPC   C4A55986  43.369   2.272   7.184
 4305POPC   C1B55987  42.705   1.733   6.002
 4305POPC   C2B55988  42.705   1.715   6.465
 4305POPC   C3B55989  42.678   1.914   6.874
 4305POPC   C4B55990  42.874   2.023   7.271
 4306POPC   NC355991   3.353  33.452   5.354
 4306POPC   PO455992   3.357  34.103   5.442
 4306POPC   GL155993   3.576  33.885   5.795
 4306POPC   GL255994   3.758  33.603   5.788
 4306POPC   C1A55995   3.723  33.814   6.237
 4306POPC   D2A55996   3.462  33.688   6.561
 4306POPC   C3A55997   3.584  33.789   6.948
 4306POPC   C4A55998   3.229  33.820   7.214
 4306POPC   C1B55999   3.454  33.378   6.112
 4306POPC   C2B56000   3.346  33.176   6.538
 4306POPC   C3B56001   3.391  33.331   6.958
 4306POPC   C4B56002   3.403  33.394   7.412
 4307POPC   NC356003  40.758  10.338   5.157
 4307POPC   PO456004  40.624  10.953   5.446
 4307POPC   GL156005  40.796  10.773   5.860
 4307POPC   GL256006  40.866  10.416   5.893
 4307POPC   C1A56007  40.855  10.741   6.292
 4307POPC   D2A56008  40.640  10.837   6.640
 4307POPC   C3A56009  40.866  10.842   6.983
 4307POPC   C4A56010  40.753  10.763   7.374
 4307POPC   C1B56011  40.735  10.251   6.319
 4307POPC   C2B56012  40.837  10.366   6.737
 4307POPC   C3B56013  41.020  10.334   7.158
 4307POPC   C4B56014  40.947  10.364   7.619
 4308POPC   NC356015  39.495  25.626   5.525
 4308POPC   PO456016  39.475  24.948   5.381
 4308POPC   GL156017  39.343  25.144   5.823
 4308POPC   GL256018  39.370  25.493   5.989
 4308POPC   C1A56019  39.209  25.114   6.280
 4308POPC   D2A56020  39.276  25.282   6.698
 4308POPC   C3A56021  39.428  24.999   6.993
 4308POPC   C4A56022  39.126  24.862   7.266
 4308POPC   C1B56023  39.104  25.651   6.337
 4308POPC   C2B56024  38.800  25.636   6.713
 4308POPC   C3B56025  38.892  25.397   7.118
 4308POPC   C4B56026  39.308  25.372   7.310
 4309POPC   NC356027  41.413   9.885   5.456
 4309POPC   PO456028  40.727   9.909   5.324
 4309POPC   GL156029  40.786   9.689   5.708
 4309POPC   GL256030  40.637   9.962   5.913
 4309POPC   C1A56031  40.731   9.537   6.143
 4309POPC   D2A56032  40.634   9.773   6.500
 4309POPC   C3A56033  40.574   9.520   6.846
 4309POPC   C4A56034  40.756   9.525   7.227
 4309POPC   C1B56035  41.059   9.937   6.077
 4309POPC   C2B56036  41.247   9.814   6.467
 4309POPC   C3B56037  41.013   9.824   6.860
 4309POPC   C4B56038  40.646   9.986   7.035
 4310POPC   NC356039   4.169  17.489   5.434
 4310POPC   PO456040   4.858  17.358   5.332
 4310POPC   GL156041   4.570  17.334   5.749
 4310POPC   GL256042   4.379  17.674   5.841
 4310POPC   C1A56043   4.400  17.318   6.196
 4310POPC   D2A56044   4.323  17.611   6.538
 4310POPC   C3A56045   4.347  17.338   6.885
 4310POPC   C4A56046   4.496  17.291   7.266
 4310POPC   C1B56047   3.997  17.672   6.126
 4310POPC   C2B56048   3.810  17.626   6.554
 4310POPC   C3B56049   3.988  17.682   6.973
 4310POPC   C4B56050   3.945  17.872   7.365
 4311POPC   NC356051  23.404  39.516   5.428
 4311POPC   PO456052  23.562  40.156   5.573
 4311POPC   GL156053  23.731  39.957   5.922
 4311POPC   GL256054  23.649  39.614   5.892
 4311POPC   C1A56055  23.757  39.998   6.372
 4311POPC   D2A56056  23.501  40.012   6.711
 4311POPC   C3A56057  23.687  39.978   7.063
 4311POPC   C4A56058  23.684  40.267   7.356
 4311POPC   C1B56059  23.420  39.629   6.282
 4311POPC   C2B56060  23.466  39.490   6.707
 4311POPC   C3B56061  23.293  39.618   7.099
 4311POPC   C4B56062  23.444  39.731   7.485
 4312POPC   NC356063  19.078  15.830   5.355
 4312POPC   PO456064  18.476  16.066   5.173
 4312POPC   GL156065  18.797  16.154   5.620
 4312POPC   GL256066  19.175  16.187   5.714
 4312POPC   C1A56067  18.910  15.930   6.065
 4312POPC   D2A56068  18.812  15.882   6.524
 4312POPC   C3A56069  18.673  15.938   6.963
 4312POPC   C4A56070  18.752  15.822   7.383
 4312POPC   C1B56071  19.394  16.061   6.140
 4312POPC   C2B56072  19.317  15.797   6.539
 4312POPC   C3B56073  19.203  15.830   6.997
 4312POPC   C4B56074  19.170  16.117   7.341
 4313POPC   NC356075  28.919  24.493   5.299
 4313POPC   PO456076  29.539  24.479   5.539
 4313POPC   GL156077  29.149  24.592   5.777
 4313POPC   GL256078  28.939  24.288   5.773
 4313POPC   C1A56079  29.027  24.551   6.225
 4313POPC   D2A56080  29.027  24.744   6.611
 4313POPC   C3A56081  29.162  24.601   6.990
 4313POPC   C4A56082  28.826  24.668   7.194
 4313POPC   C1B56083  28.950  24.061   6.153
 4313POPC   C2B56084  28.925  24.132   6.562
 4313POPC   C3B56085  28.975  23.992   6.974
 4313POPC   C4B56086  29.068  24.243   7.349
 4314POPC   NC356087   3.286  31.635   5.528
 4314POPC   PO456088   3.872  31.328   5.280
 4314POPC   GL156089   3.733  31.377   5.754
 4314POPC   GL256090   3.381  31.304   5.876
 4314POPC   C1A56091   3.728  31.450   6.230
 4314POPC   D2A56092   3.890  31.506   6.654
 4314POPC   C3A56093   3.618  31.525   7.025
 4314POPC   C4A56094   3.794  31.565   7.421
 4314POPC   C1B56095   3.372  31.079   6.250
 4314POPC   C2B56096   3.512  31.156   6.647
 4314POPC   C3B56097   3.653  31.024   7.046
 4314POPC   C4B56098   3.445  31.169   7.443
 4315POPC   NC356099  27.759  13.333   5.241
 4315POPC   PO456100  27.302  13.777   5.384
 4315POPC   GL156101  27.582  13.635   5.734
 4315POPC   GL256102  27.644  13.287   5.772
 4315POPC   C1A56103  27.572  13.632   6.199
 4315POPC   D2A56104  27.422  13.540   6.650
 4315POPC   C3A56105  27.685  13.526   7.049
 4315POPC   C4A56106  27.838  13.915   7.281
 4315POPC   C1B56107  27.370  13.176   6.180
 4315POPC   C2B56108  27.190  13.096   6.591
 4315POPC   C3B56109  27.311  13.164   7.043
 4315POPC   C4B56110  27.293  13.299   7.489
 4316POPC   NC356111  12.362  27.448   5.396
 4316POPC   PO456112  11.853  27.236   5.545
 4316POPC   GL156113  12.226  27.273   5.850
 4316POPC   GL256114  12.194  27.621   5.937
 4316POPC   C1A56115  12.439  27.337   6.270
 4316POPC   D2A56116  12.168  27.447   6.628
 4316POPC   C3A56117  12.292  27.608   7.068
 4316POPC   C4A56118  12.137  27.757   7.486
 4316POPC   C1B56119  12.356  27.850   6.333
 4316POPC   C2B56120  12.355  28.013   6.779
 4316POPC   C3B56121  12.098  28.140   7.155
 4316POPC   C4B56122  11.833  28.198   7.543
 4317POPC   NC356123  24.921   7.341   5.260
 4317POPC   PO456124  24.261   7.211   5.386
 4317POPC   GL156125  24.416   7.299   5.788
 4317POPC   GL256126  24.713   7.490   5.765
 4317POPC   C1A56127  24.330   7.367   6.227
 4317POPC   D2A56128  24.161   7.301   6.653
 4317POPC   C3A56129  24.430   7.137   6.993
 4317POPC   C4A56130  24.381   7.080   7.434
 4317POPC   C1B56131  24.734   7.701   6.193
 4317POPC   C2B56132  24.571   7.630   6.631
 4317POPC   C3B56133  24.481   7.651   7.092
 4317POPC   C4B56134  24.826   7.693   7.372
 4318POPC   NC356135  10.000  19.803   5.447
 4318POPC   PO456136   9.394  20.118   5.376
 4318POPC   GL156137   9.592  19.896   5.779
 4318POPC   GL256138   9.977  19.927   5.934
 4318POPC   C1A56139   9.579  19.804   6.250
 4318POPC   D2A56140   9.660  19.669   6.695
 4318POPC   C3A56141   9.315  19.755   6.967
 4318POPC   C4A56142   9.327  19.905   7.356
 4318POPC   C1B56143   9.980  20.209   6.285
 4318POPC   C2B56144   9.976  20.128   6.730
 4318POPC   C3B56145   9.778  20.050   7.122
 4318POPC   C4B56146   9.773  19.655   7.325
 4319POPC   NC356147  42.271  43.624   5.107
 4319POPC   PO456148  42.476  44.076   5.528
 4319POPC   GL156149  42.353  43.836   5.847
 4319POPC   GL256150  42.555  43.561   5.906
 4319POPC   C1A56151  42.103  43.657   6.177
 4319POPC   D2A56152  41.878  43.802   6.522
 4319POPC   C3A56153  41.941  43.637   6.922
 4319POPC   C4A56154  42.256  43.749   7.173
 4319POPC   C1B56155  42.583  43.765   6.306
 4319POPC   C2B56156  42.389  43.739   6.673
 4319POPC   C3B56157  42.475  44.111   6.889
 4319POPC   C4B56158  42.781  44.269   7.138
 4320POPC   NC356159  33.699  16.332   5.610
 4320POPC   PO456160  33.801  17.012   5.362
 4320POPC   GL156161  33.763  17.019   5.784
 4320POPC   GL256162  33.864  16.711   5.901
 4320POPC   C1A56163  33.481  16.929   6.155
 4320POPC   D2A56164  33.525  16.715   6.538
 4320POPC   C3A56165  33.469  16.897   6.912
 4320POPC   C4A56166  33.427  16.752   7.315
 4320POPC   C1B56167  33.986  16.652   6.313
 4320POPC   C2B56168  33.907  16.334   6.606
 4320POPC   C3B56169  33.724  16.442   6.987
 4320POPC   C4B56170  33.890  16.846   7.178
 4321POPC   NC356171  26.598   6.119   5.406
 4321POPC   PO456172  27.258   5.887   5.417
 4321POPC   GL156173  27.008   6.053   5.850
 4321POPC   GL256174  26.630   6.117   5.913
 4321POPC   C1A56175  26.929   5.960   6.312
 4321POPC   D2A56176  26.644   5.676   6.566
 4321POPC   C3A56177  26.714   5.721   7.021
 4321POPC   C4A56178  27.071   5.709   7.314
 4321POPC   C1B56179  26.425   6.074   6.318
 4321POPC   C2B56180  26.592   6.175   6.720
 4321POPC   C3B56181  26.574   6.277   7.155
 4321POPC   C4B56182  26.535   5.974   7.489
 4322POPC   NC356183  33.849  11.092   5.405
 4322POPC   PO456184  33.483  11.658   5.232
 4322POPC   GL156185  33.656  11.434   5.692
 4322POPC   GL256186  33.987  11.527   5.719
 4322POPC   C1A56187  33.937  11.150   6.053
 4322POPC   D2A56188  33.867  10.872   6.424
 4322POPC   C3A56189  33.909  11.012   6.873
 4322POPC   C4A56190  33.730  11.000   7.280
 4322POPC   C1B56191  34.017  11.647   6.171
 4322POPC   C2B56192  33.821  11.817   6.535
 4322POPC   C3B56193  34.109  11.754   6.875
 4322POPC   C4B56194  33.952  11.475   7.180
 4323POPC   NC356195  44.068  18.353   5.380
 4323POPC   PO456196  44.704  18.302   5.377
 4323POPC   GL156197  44.552  18.195   5.780
 4323POPC   GL256198  44.226  18.011   5.712
 4323POPC   C1A56199  44.630  18.385   6.195
 4323POPC   D2A56200  44.836  18.619   6.510
 4323POPC   C3A56201  44.590  18.448   6.806
 4323POPC   C4A56202  44.551  18.326   7.199
 4323POPC   C1B56203  44.157  18.212   6.112
 4323POPC   C2B56204  44.329  18.075   6.504
 4323POPC   C3B56205  44.187  18.105   6.915
 4323POPC   C4B56206  44.321  17.881   7.273
 4324POPC   NC356207  21.981  22.022   5.260
 4324POPC   PO456208  22.531  22.389   5.312
 4324POPC   GL156209  22.362  22.054   5.673
 4324POPC   GL256210  22.016  22.120   5.824
 4324POPC   C1A56211  22.338  21.869   6.142
 4324POPC   D2A56212  22.285  22.040   6.605
 4324POPC   C3A56213  22.348  21.900   7.072
 4324POPC   C4A56214  22.169  22.050   7.504
 4324POPC   C1B56215  22.205  22.378   6.210
 4324POPC   C2B56216  22.163  22.528   6.674
 4324POPC   C3B56217  22.128  22.393   7.117
 4324POPC   C4B56218  22.164  22.563   7.568
 4325POPC   NC356219  22.776  37.327   5.471
 4325POPC   PO456220  22.669  36.631   5.594
 4325POPC   GL156221  22.839  36.969   5.868
 4325POPC   GL256222  23.153  37.169   5.839
 4325POPC   C1A56223  22.972  36.914   6.303
 4325POPC   D2A56224  23.137  36.592   6.603
 4325POPC   C3A56225  22.937  36.647   6.996
 4325POPC   C4A56226  22.665  36.914   7.212
 4325POPC   C1B56227  23.387  37.220   6.274
 4325POPC   C2B56228  23.307  37.088   6.716
 4325POPC   C3B56229  23.163  37.061   7.172
 4325POPC   C4B56230  22.888  37.290   7.463
 4326POPC   NC356231  23.136   8.961   5.383
 4326POPC   PO456232  22.504   8.787   5.415
 4326POPC   GL156233  22.761   8.944   5.777
 4326POPC   GL256234  23.121   9.126   5.862
 4326POPC   C1A56235  22.888   8.825   6.202
 4326POPC   D2A56236  23.285   8.888   6.459
 4326POPC   C3A56237  23.216   8.830   6.888
 4326POPC   C4A56238  22.918   8.816   7.215
 4326POPC   C1B56239  23.004   9.301   6.291
 4326POPC   C2B56240  22.985   9.263   6.787
 4326POPC   C3B56241  23.131   9.252   7.249
 4326POPC   C4B56242  22.807   9.198   7.635
 4327POPC   NC356243  35.503  20.106   5.167
 4327POPC   PO456244  35.689  19.632   5.588
 4327POPC   GL156245  35.528  19.749   5.945
 4327POPC   GL256246  35.385  20.029   5.827
 4327POPC   C1A56247  35.436  19.863   6.348
 4327POPC   D2A56248  35.492  19.862   6.771
 4327POPC   C3A56249  35.212  19.577   7.000
 4327POPC   C4A56250  35.142  19.566   7.450
 4327POPC   C1B56251  35.085  20.175   6.133
 4327POPC   C2B56252  34.983  20.089   6.585
 4327POPC   C3B56253  35.104  20.111   7.015
 4327POPC   C4B56254  35.053  20.066   7.445
 4328POPC   NC356255  39.160  22.366   5.470
 4328POPC   PO456256  39.743  21.978   5.438
 4328POPC   GL156257  39.467  22.081   5.778
 4328POPC   GL256258  39.149  21.880   5.745
 4328POPC   C1A56259  39.535  22.317   6.158
 4328POPC   D2A56260  39.353  22.391   6.549
 4328POPC   C3A56261  39.178  22.070   6.803
 4328POPC   C4A56262  39.303  22.172   7.216
 4328POPC   C1B56263  39.129  21.980   6.193
 4328POPC   C2B56264  38.854  22.239   6.430
 4328POPC   C3B56265  38.704  22.304   6.843
 4328POPC   C4B56266  38.808  22.012   7.178
 4329POPC   NC356267   0.573  30.184   4.989
 4329POPC   PO456268   0.476  29.740   5.450
 4329POPC   GL156269   0.592  29.916   5.822
 4329POPC   GL256270   0.245  30.028   5.837
 4329POPC   C1A56271   0.560  29.945   6.274
 4329POPC   D2A56272   0.758  29.799   6.643
 4329POPC   C3A56273   0.587  29.984   7.033
 4329POPC   C4A56274   0.268  30.197   7.308
 4329POPC   C1B56275   0.187  29.650   6.076
 4329POPC   C2B56276   0.230  29.582   6.512
 4329POPC   C3B56277   0.194  29.697   6.923
 4329POPC   C4B56278   0.279  29.690   7.342
 4330POPC   NC356279  44.144  30.403   5.468
 4330POPC   PO456280  43.725  30.918   5.417
 4330POPC   GL156281  43.628  30.688   5.795
 4330POPC   GL256282  43.344  30.889   5.895
 4330POPC   C1A56283  43.956  30.643   6.112
 4330POPC   D2A56284  44.180  30.644   6.499
 4330POPC   C3A56285  44.005  30.744   6.900
 4330POPC   C4A56286  44.219  30.931   7.245
 4330POPC   C1B56287  43.676  31.077   6.141
 4330POPC   C2B56288  43.683  30.835   6.513
 4330POPC   C3B56289  43.525  31.012   6.884
 4330POPC   C4B56290  43.514  30.969   7.315
 4331POPC   NC356291   1.753  39.522   5.199
 4331POPC   PO456292   1.822  38.950   5.529
 4331POPC   GL156293   1.704  39.238   5.808
 4331POPC   GL256294   2.019  39.325   5.898
 4331POPC   C1A56295   1.672  39.131   6.240
 4331POPC   D2A56296   1.833  38.981   6.636
 4331POPC   C3A56297   1.725  39.168   6.991
 4331POPC   C4A56298   1.983  39.425   7.200
 4331POPC   C1B56299   2.187  39.091   6.258
 4331POPC   C2B56300   2.373  39.031   6.695
 4331POPC   C3B56301   2.222  38.999   7.142
 4331POPC   C4B56302   2.321  39.054   7.618
 4332POPC   NC356303  41.843  26.701   5.247
 4332POPC   PO456304  42.466  26.709   5.618
 4332POPC   GL156305  42.489  26.972   5.975
 4332POPC   GL256306  42.125  26.915   5.956
 4332POPC   C1A56307  42.406  26.814   6.392
 4332POPC   D2A56308  42.249  26.415   6.555
 4332POPC   C3A56309  42.420  26.365   6.953
 4332POPC   C4A56310  42.162  26.637   7.203
 4332POPC   C1B56311  42.079  27.252   6.207
 4332POPC   C2B56312  42.238  27.254   6.561
 4332POPC   C3B56313  42.226  27.055   6.930
 4332POPC   C4B56314  42.108  27.209   7.346
 4333POPC   NC356315   7.646  10.336   5.321
 4333POPC   PO456316   7.357  10.953   5.423
 4333POPC   GL156317   7.514  10.768   5.802
 4333POPC   GL256318   7.459  10.404   5.839
 4333POPC   C1A56319   7.598  10.782   6.236
 4333POPC   D2A56320   7.604  10.587   6.650
 4333POPC   C3A56321   7.718  10.827   7.037
 4333POPC   C4A56322   7.566  10.665   7.429
 4333POPC   C1B56323   7.246  10.404   6.242
 4333POPC   C2B56324   7.109  10.382   6.677
 4333POPC   C3B56325   7.332  10.397   7.057
 4333POPC   C4B56326   7.179  10.362   7.459
 4334POPC   NC356327  33.871   3.285   5.615
 4334POPC   PO456328  33.951   2.711   5.232
 4334POPC   GL156329  33.831   2.763   5.679
 4334POPC   GL256330  33.517   2.923   5.763
 4334POPC   C1A56331  33.724   2.566   6.085
 4334POPC   D2A56332  33.410   2.572   6.371
 4334POPC   C3A56333  33.484   2.598   6.817
 4334POPC   C4A56334  33.886   2.615   6.999
 4334POPC   C1B56335  33.712   3.069   6.177
 4334POPC   C2B56336  33.831   2.895   6.556
 4334POPC   C3B56337  33.723   3.098   6.948
 4334POPC   C4B56338  33.678   2.927   7.349
 4335POPC   NC356339  40.199  16.307   5.599
 4335POPC   PO456340  39.904  15.881   5.229
 4335POPC   GL156341  39.893  15.874   5.692
 4335POPC   GL256342  39.705  16.194   5.750
 4335POPC   C1A56343  40.139  15.795   6.104
 4335POPC   D2A56344  40.009  15.682   6.548
 4335POPC   C3A56345  40.126  15.899   6.953
 4335POPC   C4A56346  40.133  15.630   7.323
 4335POPC   C1B56347  39.706  16.059   6.192
 4335POPC   C2B56348  39.904  16.197   6.572
 4335POPC   C3B56349  39.735  16.295   6.990
 4335POPC   C4B56350  39.770  15.997   7.350
 4336POPC   NC356351  24.206  19.732   5.454
 4336POPC   PO456352  24.875  19.833   5.369
 4336POPC   GL156353  24.721  20.105   5.716
 4336POPC   GL256354  24.348  20.065   5.804
 4336POPC   C1A56355  24.774  20.058   6.158
 4336POPC   D2A56356  24.718  20.201   6.578
 4336POPC   C3A56357  24.620  19.851   6.814
 4336POPC   C4A56358  24.662  19.793   7.217
 4336POPC   C1B56359  24.292  19.849   6.226
 4336POPC   C2B56360  24.109  19.760   6.665
 4336POPC   C3B56361  24.180  19.919   7.092
 4336POPC   C4B56362  24.255  19.811   7.538
 4337POPC   NC356363  36.262   9.949   5.314
 4337POPC   PO456364  35.796   9.457   5.366
 4337POPC   GL156365  36.019   9.681   5.709
 4337POPC   GL256366  35.962  10.040   5.767
 4337POPC   C1A56367  35.923   9.712   6.178
 4337POPC   D2A56368  35.815   9.613   6.624
 4337POPC   C3A56369  36.028   9.673   7.013
 4337POPC   C4A56370  36.346   9.433   7.204
 4337POPC   C1B56371  36.217  10.128   6.186
 4337POPC   C2B56372  36.184  10.050   6.635
 4337POPC   C3B56373  36.463   9.951   6.984
 4337POPC   C4B56374  36.423   9.882   7.434
 4338POPC   NC356375   4.900  35.854   5.444
 4338POPC   PO456376   5.059  36.535   5.464
 4338POPC   GL156377   5.191  36.157   5.745
 4338POPC   GL256378   4.917  35.979   5.952
 4338POPC   C1A56379   5.451  35.893   6.049
 4338POPC   D2A56380   5.558  35.755   6.486
 4338POPC   C3A56381   5.347  36.016   6.779
 4338POPC   C4A56382   5.029  35.944   7.053
 4338POPC   C1B56383   5.160  36.282   6.239
 4338POPC   C2B56384   5.166  36.558   6.593
 4338POPC   C3B56385   4.850  36.481   6.845
 4338POPC   C4B56386   4.822  36.411   7.230
 4339POPC   NC356387  11.530  10.550   5.106
 4339POPC   PO456388  11.153  10.515   5.695
 4339POPC   GL156389  11.462  10.458   5.987
 4339POPC   GL256390  11.551  10.130   6.022
 4339POPC   C1A56391  11.519  10.533   6.411
 4339POPC   D2A56392  11.129  10.634   6.563
 4339POPC   C3A56393  11.143  10.924   6.877
 4339POPC   C4A56394  11.085  10.766   7.280
 4339POPC   C1B56395  11.781  10.090   6.365
 4339POPC   C2B56396  11.795  10.258   6.782
 4339POPC   C3B56397  11.458  10.486   6.971
 4339POPC   C4B56398  11.211  10.259   7.221
 4340POPC   NC356399  20.788  10.162   5.336
 4340POPC   PO456400  20.092  10.327   5.384
 4340POPC   GL156401  20.388  10.506   5.753
 4340POPC   GL256402  20.698  10.400   5.801
 4340POPC   C1A56403  20.597  10.811   6.074
 4340POPC   D2A56404  20.696  10.666   6.479
 4340POPC   C3A56405  20.636  10.893   6.853
 4340POPC   C4A56406  20.505  10.757   7.225
 4340POPC   C1B56407  20.947  10.335   6.140
 4340POPC   C2B56408  21.142  10.407   6.509
 4340POPC   C3B56409  20.969  10.515   6.918
 4340POPC   C4B56410  21.009  10.397   7.338
 4341POPC   NC356411  14.125  40.360   5.411
 4341POPC   PO456412  14.748  39.981   5.316
 4341POPC   GL156413  14.493  40.065   5.648
 4341POPC   GL256414  14.651  39.772   5.805
 4341POPC   C1A56415  14.274  40.018   6.051
 4341POPC   D2A56416  14.457  39.975   6.448
 4341POPC   C3A56417  14.232  39.868   6.854
 4341POPC   C4A56418  14.207  40.183   7.189
 4341POPC   C1B56419  14.794  39.550   6.149
 4341POPC   C2B56420  14.959  39.698   6.517
 4341POPC   C3B56421  14.727  39.867   6.878
 4341POPC   C4B56422  14.562  39.798   7.274
 4342POPC   NC356423   5.207  11.108   5.365
 4342POPC   PO456424   4.668  11.553   5.305
 4342POPC   GL156425   4.940  11.477   5.676
 4342POPC   GL256426   5.237  11.690   5.784
 4342POPC   C1A56427   4.879  11.278   6.087
 4342POPC   D2A56428   4.997  11.128   6.509
 4342POPC   C3A56429   4.867  11.372   6.868
 4342POPC   C4A56430   5.190  11.491   7.167
 4342POPC   C1B56431   5.011  11.788   6.207
 4342POPC   C2B56432   5.038  11.807   6.661
 4342POPC   C3B56433   4.879  11.872   7.105
 4342POPC   C4B56434   4.959  11.705   7.562
 4343POPC   NC356435  13.755  11.363   5.440
 4343POPC   PO456436  13.125  11.582   5.423
 4343POPC   GL156437  13.257  11.398   5.835
 4343POPC   GL256438  13.444  11.058   5.856
 4343POPC   C1A56439  13.591  11.417   6.178
 4343POPC   D2A56440  13.782  11.322   6.567
 4343POPC   C3A56441  13.679  11.407   6.987
 4343POPC   C4A56442  13.963  11.260   7.271
 4343POPC   C1B56443  13.771  10.940   6.209
 4343POPC   C2B56444  13.745  10.803   6.643
 4343POPC   C3B56445  13.727  10.838   7.079
 4343POPC   C4B56446  13.500  11.088   7.390
 4344POPC   NC356447  13.795   6.188   5.267
 4344POPC   PO456448  13.318   5.780   5.206
 4344POPC   GL156449  13.520   5.949   5.638
 4344POPC   GL256450  13.623   5.671   5.853
 4344POPC   C1A56451  13.478   6.094   6.117
 4344POPC   D2A56452  13.555   6.140   6.585
 4344POPC   C3A56453  13.708   6.126   6.998
 4344POPC   C4A56454  13.485   5.914   7.288
 4344POPC   C1B56455  13.765   5.717   6.318
 4344POPC   C2B56456  13.821   5.685   6.779
 4344POPC   C3B56457  13.806   5.535   7.203
 4344POPC   C4B56458  13.451   5.456   7.521
 4345POPC   NC356459  39.684  28.598   5.532
 4345POPC   PO456460  40.177  28.122   5.424
 4345POPC   GL156461  40.078  28.361   5.770
 4345POPC   GL256462  39.807  28.149   5.835
 4345POPC   C1A56463  39.960  28.591   6.138
 4345POPC   D2A56464  39.851  28.584   6.563
 4345POPC   C3A56465  40.137  28.437   6.825
 4345POPC   C4A56466  40.239  28.588   7.182
 4345POPC   C1B56467  40.013  28.078   6.224
 4345POPC   C2B56468  39.854  28.039   6.628
 4345POPC   C3B56469  39.922  28.018   7.043
 4345POPC   C4B56470  39.759  28.351   7.257
 4346POPC   NC356471  26.367  11.211   5.359
 4346POPC   PO456472  25.755  11.157   5.282
 4346POPC   GL156473  25.899  11.204   5.748
 4346POPC   GL256474  26.277  11.241   5.852
 4346POPC   C1A56475  25.911  11.408   6.160
 4346POPC   D2A56476  26.089  11.502   6.555
 4346POPC   C3A56477  25.942  11.386   6.965
 4346POPC   C4A56478  25.635  11.138   7.219
 4346POPC   C1B56479  26.339  11.112   6.279
 4346POPC   C2B56480  26.174  11.000   6.668
 4346POPC   C3B56481  26.327  10.994   7.097
 4346POPC   C4B56482  26.409  10.909   7.534
 4347POPC   NC356483  36.500  44.519   5.360
 4347POPC   PO456484  37.173  44.536   5.325
 4347POPC   GL156485  36.883  44.675   5.676
 4347POPC   GL256486  36.791  44.996   5.790
 4347POPC   C1A56487  36.899  44.513   6.120
 4347POPC   D2A56488  36.884  44.271   6.514
 4347POPC   C3A56489  36.952  44.468   6.901
 4347POPC   C4A56490  37.086  44.632   7.298
 4347POPC   C1B56491  36.586  44.903   6.173
 4347POPC   C2B56492  36.550  44.672   6.548
 4347POPC   C3B56493  36.592  44.879   6.939
 4347POPC   C4B56494  36.689   0.132   7.303
 4348POPC   NC356495   4.722  22.389   5.539
 4348POPC   PO456496   5.380  22.226   5.330
 4348POPC   GL156497   5.136  22.134   5.740
 4348POPC   GL256498   4.874  21.872   5.767
 4348POPC   C1A56499   5.086  22.093   6.183
 4348POPC   D2A56500   5.411  22.184   6.446
 4348POPC   C3A56501   5.354  22.131   6.888
 4348POPC   C4A56502   5.030  22.228   7.146
 4348POPC   C1B56503   4.809  21.653   6.150
 4348POPC   C2B56504   4.975  21.610   6.567
 4348POPC   C3B56505   4.923  21.766   6.963
 4348POPC   C4B56506   5.028  21.727   7.383
 4349POPC   NC356507  21.065  20.786   5.478
 4349POPC   PO456508  21.475  20.222   5.395
 4349POPC   GL156509  21.421  20.342   5.839
 4349POPC   GL256510  21.334  20.684   5.899
 4349POPC   C1A56511  21.259  20.386   6.283
 4349POPC   D2A56512  21.039  20.573   6.673
 4349POPC   C3A56513  21.279  20.553   7.072
 4349POPC   C4A56514  21.624  20.739   7.308
 4349POPC   C1B56515  21.311  20.884   6.325
 4349POPC   C2B56516  21.357  21.001   6.768
 4349POPC   C3B56517  21.238  21.073   7.193
 4349POPC   C4B56518  21.120  20.834   7.554
 4350POPC   NC356519  27.234  44.008   5.495
 4350POPC   PO456520  27.906  44.151   5.525
 4350POPC   GL156521  27.683  43.926   5.851
 4350POPC   GL256522  27.310  43.861   5.961
 4350POPC   C1A56523  27.684  43.812   6.275
 4350POPC   D2A56524  27.290  43.743   6.480
 4350POPC   C3A56525  27.382  43.791   6.902
 4350POPC   C4A56526  27.753  43.920   7.153
 4350POPC   C1B56527  27.408  44.254   6.159
 4350POPC   C2B56528  27.268  44.448   6.552
 4350POPC   C3B56529  27.353  44.339   6.972
 4350POPC   C4B56530  27.374  44.219   7.389
 4351POPC   NC356531   4.532  38.254   5.523
 4351POPC   PO456532   4.058  38.692   5.338
 4351POPC   GL156533   4.088  38.471   5.760
 4351POPC   GL256534   4.314  38.268   5.978
 4351POPC   C1A56535   3.953  38.558   6.182
 4351POPC   D2A56536   4.190  38.492   6.565
 4351POPC   C3A56537   4.001  38.396   6.982
 4351POPC   C4A56538   4.161  38.223   7.350
 4351POPC   C1B56539   4.573  38.590   6.197
 4351POPC   C2B56540   4.699  38.688   6.632
 4351POPC   C3B56541   4.504  38.482   6.991
 4351POPC   C4B56542   4.693  38.227   7.298
 4352POPC   NC356543  14.576  37.843   5.425
 4352POPC   PO456544  14.063  37.424   5.394
 4352POPC   GL156545  14.284  37.610   5.790
 4352POPC   GL256546  14.204  37.900   5.961
 4352POPC   C1A56547  14.399  37.507   6.252
 4352POPC   D2A56548  14.553  37.658   6.695
 4352POPC   C3A56549  14.383  37.434   7.088
 4352POPC   C4A56550  14.477  37.477   7.556
 4352POPC   C1B56551  14.561  37.993   6.255
 4352POPC   C2B56552  14.548  38.179   6.688
 4352POPC   C3B56553  14.378  37.987   7.077
 4352POPC   C4B56554  14.474  37.999   7.518
 4353POPC   NC356555  38.970  28.694   5.431
 4353POPC   PO456556  39.442  28.195   5.470
 4353POPC   GL156557  39.320  28.308   5.843
 4353POPC   GL256558  39.271  28.644   5.866
 4353POPC   C1A56559  39.536  28.327   6.222
 4353POPC   D2A56560  39.412  28.300   6.609
 4353POPC   C3A56561  39.401  27.950   6.858
 4353POPC   C4A56562  39.488  27.915   7.271
 4353POPC   C1B56563  39.053  28.524   6.294
 4353POPC   C2B56564  38.965  28.484   6.746
 4353POPC   C3B56565  39.274  28.412   7.078
 4353POPC   C4B56566  39.332  28.652   7.421
 4354POPC   NC356567  12.609  40.570   4.998
 4354POPC   PO456568  13.046  40.770   5.496
 4354POPC   GL156569  12.921  40.681   5.870
 4354POPC   GL256570  12.607  40.875   5.837
 4354POPC   C1A56571  12.892  40.861   6.271
 4354POPC   D2A56572  12.651  40.954   6.626
 4354POPC   C3A56573  12.867  40.898   7.019
 4354POPC   C4A56574  13.014  40.772   7.403
 4354POPC   C1B56575  12.481  40.548   6.122
 4354POPC   C2B56576  12.510  40.362   6.530
 4354POPC   C3B56577  12.430  40.573   6.929
 4354POPC   C4B56578  12.530  40.493   7.360
 4355POPC   NC356579  20.224  16.900   5.571
 4355POPC   PO456580  20.465  16.322   5.178
 4355POPC   GL156581  20.575  16.562   5.660
 4355POPC   GL256582  20.819  16.456   5.865
 4355POPC   C1A56583  20.581  16.806   6.144
 4355POPC   D2A56584  20.446  16.656   6.609
 4355POPC   C3A56585  20.559  16.906   7.011
 4355POPC   C4A56586  20.359  16.997   7.459
 4355POPC   C1B56587  20.516  16.315   6.192
 4355POPC   C2B56588  20.671  16.123   6.488
 4355POPC   C3B56589  20.806  16.339   6.831
 4355POPC   C4B56590  20.680  16.473   7.246
 4356POPC   NC356591  14.284   3.393   5.182
 4356POPC   PO456592  14.681   3.773   5.397
 4356POPC   GL156593  14.551   3.626   5.796
 4356POPC   GL256594  14.833   3.686   6.002
 4356POPC   C1A56595  14.409   3.425   6.215
 4356POPC   D2A56596  14.274   3.588   6.654
 4356POPC   C3A56597  14.290   3.382   7.090
 4356POPC   C4A56598  14.193   3.426   7.568
 4356POPC   C1B56599  14.498   3.927   6.249
 4356POPC   C2B56600  14.440   4.098   6.684
 4356POPC   C3B56601  14.361   3.901   7.066
 4356POPC   C4B56602  13.929   3.718   7.209
 4357POPC   NC356603  21.099  25.104   5.391
 4357POPC   PO456604  21.681  24.866   5.198
 4357POPC   GL156605  21.513  25.021   5.689
 4357POPC   GL256606  21.356  25.333   5.790
 4357POPC   C1A56607  21.405  25.049   6.200
 4357POPC   D2A56608  21.472  25.276   6.628
 4357POPC   C3A56609  21.297  25.025   6.984
 4357POPC   C4A56610  21.140  24.975   7.397
 4357POPC   C1B56611  21.340  25.590   6.193
 4357POPC   C2B56612  21.084  25.645   6.584
 4357POPC   C3B56613  21.081  25.572   7.046
 4357POPC   C4B56614  21.160  25.473   7.504
 4358POPC   NC356615   7.127   2.261   5.601
 4358POPC   PO456616   7.735   2.156   5.435
 4358POPC   GL156617   7.653   1.920   5.799
 4358POPC   GL256618   7.334   1.793   5.815
 4358POPC   C1A56619   7.592   1.941   6.246
 4358POPC   D2A56620   7.282   2.002   6.564
 4358POPC   C3A56621   7.480   2.055   6.927
 4358POPC   C4A56622   7.382   1.982   7.324
 4358POPC   C1B56623   7.156   1.657   6.204
 4358POPC   C2B56624   7.019   1.550   6.646
 4358POPC   C3B56625   7.152   1.592   7.088
 4358POPC   C4B56626   7.370   1.505   7.538
 4359POPC   NC356627  16.546  28.735   5.144
 4359POPC   PO456628  16.937  29.260   5.328
 4359POPC   GL156629  16.800  29.258   5.754
 4359POPC   GL256630  17.036  29.513   5.871
 4359POPC   C1A56631  16.591  29.170   6.149
 4359POPC   D2A56632  16.752  29.056   6.559
 4359POPC   C3A56633  16.482  29.035   6.938
 4359POPC   C4A56634  16.622  29.235   7.300
 4359POPC   C1B56635  16.996  29.466   6.327
 4359POPC   C2B56636  17.028  29.441   6.779
 4359POPC   C3B56637  16.927  29.620   7.146
 4359POPC   C4B56638  17.025  29.437   7.580
 4360POPC   NC356639  12.323  36.845   5.365
 4360POPC   PO456640  11.658  36.656   5.460
 4360POPC   GL156641  11.902  36.884   5.760
 4360POPC   GL256642  12.168  36.672   5.846
 4360POPC   C1A56643  12.042  37.025   6.190
 4360POPC   D2A56644  12.135  36.900   6.625
 4360POPC   C3A56645  11.889  37.179   6.845
 4360POPC   C4A56646  11.564  37.188   7.155
 4360POPC   C1B56647  12.068  36.520   6.285
 4360POPC   C2B56648  12.405  36.451   6.646
 4360POPC   C3B56649  12.389  36.621   7.076
 4360POPC   C4B56650  12.027  36.832   7.202
 4361POPC   NC356651  39.602  19.976   5.318
 4361POPC   PO456652  39.862  19.404   5.398
 4361POPC   GL156653  39.932  19.772   5.696
 4361POPC   GL256654  39.661  20.035   5.803
 4361POPC   C1A56655  39.940  19.780   6.159
 4361POPC   D2A56656  39.875  19.512   6.529
 4361POPC   C3A56657  39.949  19.742   6.908
 4361POPC   C4A56658  39.871  19.782   7.338
 4361POPC   C1B56659  39.633  20.263   6.173
 4361POPC   C2B56660  39.750  20.086   6.543
 4361POPC   C3B56661  39.821  20.239   6.912
 4361POPC   C4B56662  40.109  20.215   7.174
 4362POPC   NC356663  28.539  10.122   5.629
 4362POPC   PO456664  28.280  10.705   5.370
 4362POPC   GL156665  28.493  10.638   5.755
 4362POPC   GL256666  28.198  10.497   5.825
 4362POPC   C1A56667  28.526  10.458   6.201
 4362POPC   D2A56668  28.378  10.413   6.617
 4362POPC   C3A56669  28.624  10.506   6.964
 4362POPC   C4A56670  28.616  10.876   7.227
 4362POPC   C1B56671  27.988  10.512   6.212
 4362POPC   C2B56672  27.869  10.480   6.623
 4362POPC   C3B56673  28.078  10.520   7.055
 4362POPC   C4B56674  28.040  10.295   7.457
 4363POPC   NC356675  44.817   1.460   5.651
 4363POPC   PO456676  44.917   2.062   5.221
 4363POPC   GL156677  44.617   2.138   5.592
 4363POPC   GL256678  44.888   1.968   5.761
 4363POPC   C1A56679  44.523   2.192   6.054
 4363POPC   D2A56680  44.565   2.098   6.497
 4363POPC   C3A56681  44.271   2.197   6.821
 4363POPC   C4A56682  44.329   2.152   7.265
 4363POPC   C1B56683  44.955   1.850   6.187
 4363POPC   C2B56684  44.836   1.666   6.562
 4363POPC   C3B56685  44.888   1.884   6.918
 4363POPC   C4B56686  44.734   1.834   7.309
 4364POPC   NC356687  28.382   9.530   5.234
 4364POPC   PO456688  28.255   8.960   5.530
 4364POPC   GL156689  28.317   9.069   5.940
 4364POPC   GL256690  28.573   9.311   5.874
 4364POPC   C1A56691  28.285   8.830   6.326
 4364POPC   D2A56692  28.284   8.555   6.690
 4364POPC   C3A56693  28.346   8.747   7.090
 4364POPC   C4A56694  28.220   9.183   7.208
 4364POPC   C1B56695  28.782   9.016   6.189
 4364POPC   C2B56696  28.993   8.924   6.602
 4364POPC   C3B56697  28.862   8.984   7.052
 4364POPC   C4B56698  28.743   9.295   7.368
 4365POPC   NC356699  43.359  34.145   5.583
 4365POPC   PO456700  42.908  33.521   5.432
 4365POPC   GL156701  43.109  33.722   5.826
 4365POPC   GL256702  43.405  33.495   5.937
 4365POPC   C1A56703  43.212  33.842   6.259
 4365POPC   D2A56704  43.298  33.469   6.561
 4365POPC   C3A56705  43.113  33.562   6.980
 4365POPC   C4A56706  42.952  33.942   7.136
 4365POPC   C1B56707  43.686  33.672   6.265
 4365POPC   C2B56708  43.645  33.880   6.676
 4365POPC   C3B56709  43.477  33.976   7.119
 4365POPC   C4B56710  43.359  34.094   7.559
 4366POPC   NC356711  27.777  11.630   5.549
 4366POPC   PO456712  27.438  11.062   5.486
 4366POPC   GL156713  27.687  11.201   5.825
 4366POPC   GL256714  27.742  10.883   5.946
 4366POPC   C1A56715  27.756  11.461   6.228
 4366POPC   D2A56716  27.631  11.673   6.642
 4366POPC   C3A56717  27.732  11.406   6.982
 4366POPC   C4A56718  27.587  11.371   7.405
 4366POPC   C1B56719  27.377  11.058   6.207
 4366POPC   C2B56720  27.373  11.202   6.635
 4366POPC   C3B56721  27.299  11.097   7.066
 4366POPC   C4B56722  27.239  10.757   7.329
 4367POPC   NC356723  37.878  38.971   5.396
 4367POPC   PO456724  37.449  39.527   5.496
 4367POPC   GL156725  37.629  39.307   5.809
 4367POPC   GL256726  37.986  39.278   5.800
 4367POPC   C1A56727  37.642  39.416   6.231
 4367POPC   D2A56728  37.435  39.367   6.631
 4367POPC   C3A56729  37.603  39.074   6.921
 4367POPC   C4A56730  37.433  39.142   7.304
 4367POPC   C1B56731  38.119  39.187   6.234
 4367POPC   C2B56732  37.999  39.360   6.626
 4367POPC   C3B56733  37.912  39.481   7.036
 4367POPC   C4B56734  37.972  39.155   7.324
 4368POPC   NC356735   6.005  26.251   5.396
 4368POPC   PO456736   6.033  26.900   5.160
 4368POPC   GL156737   6.001  26.801   5.637
 4368POPC   GL256738   5.688  26.632   5.764
 4368POPC   C1A56739   6.100  26.625   6.086
 4368POPC   D2A56740   6.268  26.779   6.484
 4368POPC   C3A56741   6.066  26.832   6.890
 4368POPC   C4A56742   5.849  26.796   7.275
 4368POPC   C1B56743   5.554  26.587   6.224
 4368POPC   C2B56744   5.605  26.561   6.697
 4368POPC   C3B56745   5.465  26.495   7.143
 4368POPC   C4B56746   5.522  26.602   7.613
 4369POPC   NC356747  36.460  21.709   5.440
 4369POPC   PO456748  37.152  21.396   5.485
 4369POPC   GL156749  36.740  21.386   5.739
 4369POPC   GL256750  36.574  21.681   5.925
 4369POPC   C1A56751  36.730  21.248   6.161
 4369POPC   D2A56752  37.089  21.144   6.407
 4369POPC   C3A56753  36.962  21.101   6.817
 4369POPC   C4A56754  36.984  21.218   7.225
 4369POPC   C1B56755  36.650  21.766   6.341
 4369POPC   C2B56756  36.655  21.543   6.722
 4369POPC   C3B56757  36.659  21.628   7.164
 4369POPC   C4B56758  36.349  21.742   7.450
 4370POPC   NC356759  44.107   1.134   5.507
 4370POPC   PO456760  43.791   1.754   5.316
 4370POPC   GL156761  43.811   1.492   5.728
 4370POPC   GL256762  43.682   1.141   5.798
 4370POPC   C1A56763  43.987   1.382   6.156
 4370POPC   D2A56764  43.896   1.170   6.553
 4370POPC   C3A56765  44.038   1.299   6.947
 4370POPC   C4A56766  44.000   1.342   7.402
 4370POPC   C1B56767  43.753   0.877   6.151
 4370POPC   C2B56768  43.555   0.768   6.515
 4370POPC   C3B56769  43.752   0.805   6.894
 4370POPC   C4B56770  43.591   0.735   7.278
 4371POPC   NC356771   4.053  29.231   5.491
 4371POPC   PO456772   4.589  28.938   5.509
 4371POPC   GL156773   4.389  29.070   5.841
 4371POPC   GL256774   4.141  28.819   5.822
 4371POPC   C1A56775   4.436  28.993   6.240
 4371POPC   D2A56776   4.579  29.182   6.575
 4371POPC   C3A56777   4.372  29.338   6.886
 4371POPC   C4A56778   4.515  29.267   7.272
 4371POPC   C1B56779   4.094  28.628   6.226
 4371POPC   C2B56780   4.165  28.839   6.655
 4371POPC   C3B56781   4.179  28.904   7.107
 4371POPC   C4B56782   4.027  29.233   7.389
 4372POPC   NC356783  18.406  41.830   5.431
 4372POPC   PO456784  18.054  41.170   5.278
 4372POPC   GL156785  18.148  41.238   5.752
 4372POPC   GL256786  18.328  41.526   5.839
 4372POPC   C1A56787  18.087  41.306   6.230
 4372POPC   D2A56788  18.177  41.631   6.586
 4372POPC   C3A56789  18.152  41.554   7.010
 4372POPC   C4A56790  18.213  41.461   7.448
 4372POPC   C1B56791  18.559  41.615   6.225
 4372POPC   C2B56792  18.698  41.670   6.666
 4372POPC   C3B56793  18.650  41.605   7.162
 4372POPC   C4B56794  18.670  41.565   7.635
 4373POPC   NC356795  30.651  22.981   5.115
 4373POPC   PO456796  30.920  22.450   5.548
 4373POPC   GL156797  30.740  22.716   5.902
 4373POPC   GL256798  30.623  23.050   5.801
 4373POPC   C1A56799  30.492  22.715   6.278
 4373POPC   D2A56800  30.473  22.688   6.723
 4373POPC   C3A56801  30.314  22.775   7.127
 4373POPC   C4A56802  30.382  22.668   7.551
 4373POPC   C1B56803  30.673  23.214   6.249
 4373POPC   C2B56804  30.766  23.182   6.712
 4373POPC   C3B56805  30.926  23.095   7.137
 4373POPC   C4B56806  30.926  23.223   7.572
 4374POPC   NC356807   8.665   3.102   5.510
 4374POPC   PO456808   8.062   3.316   5.567
 4374POPC   GL156809   8.353   3.474   5.876
 4374POPC   GL256810   8.615   3.622   5.764
 4374POPC   C1A56811   8.295   3.648   6.309
 4374POPC   D2A56812   7.885   3.636   6.549
 4374POPC   C3A56813   7.930   3.495   6.960
 4374POPC   C4A56814   7.997   3.875   7.179
 4374POPC   C1B56815   8.741   3.841   6.126
 4374POPC   C2B56816   8.763   3.800   6.552
 4374POPC   C3B56817   8.477   3.666   6.870
 4374POPC   C4B56818   8.506   3.807   7.272
 4375POPC   NC356819  31.421  15.669   5.436
 4375POPC   PO456820  31.656  16.268   5.330
 4375POPC   GL156821  31.774  16.193   5.752
 4375POPC   GL256822  31.726  15.839   5.816
 4375POPC   C1A56823  31.866  16.162   6.199
 4375POPC   D2A56824  31.876  15.876   6.541
 4375POPC   C3A56825  31.564  15.886   6.837
 4375POPC   C4A56826  31.736  16.064   7.214
 4375POPC   C1B56827  31.499  15.748   6.218
 4375POPC   C2B56828  31.196  15.618   6.554
 4375POPC   C3B56829  31.039  15.721   6.994
 4375POPC   C4B56830  31.381  15.687   7.279
 4376POPC   NC356831  29.352  10.493   5.228
 4376POPC   PO456832  28.723  10.428   5.312
 4376POPC   GL156833  29.002  10.599   5.656
 4376POPC   GL256834  29.350  10.715   5.714
 4376POPC   C1A56835  29.033  10.518   6.112
 4376POPC   D2A56836  28.892  10.651   6.521
 4376POPC   C3A56837  29.158  10.546   6.856
 4376POPC   C4A56838  29.052  10.622   7.249
 4376POPC   C1B56839  29.515  10.426   5.995
 4376POPC   C2B56840  29.524  10.446   6.448
 4376POPC   C3B56841  29.650  10.377   6.863
 4376POPC   C4B56842  29.486  10.373   7.266
 4377POPC   NC356843  29.560  27.094   5.182
 4377POPC   PO456844  29.094  26.707   5.341
 4377POPC   GL156845  29.121  26.853   5.768
 4377POPC   GL256846  28.890  26.624   5.872
 4377POPC   C1A56847  29.334  26.777   6.191
 4377POPC   D2A56848  29.032  26.735   6.526
 4377POPC   C3A56849  29.055  26.779   6.972
 4377POPC   C4A56850  28.744  27.003   7.176
 4377POPC   C1B56851  29.077  26.345   6.147
 4377POPC   C2B56852  29.127  26.235   6.570
 4377POPC   C3B56853  28.810  26.320   6.864
 4377POPC   C4B56854  28.628  26.506   7.255
 4378POPC   NC356855   5.672  35.339   5.459
 4378POPC   PO456856   6.128  34.834   5.276
 4378POPC   GL156857   6.038  35.061   5.668
 4378POPC   GL256858   6.280  35.271   5.785
 4378POPC   C1A56859   5.860  35.210   6.097
 4378POPC   D2A56860   6.045  35.148   6.528
 4378POPC   C3A56861   5.930  35.329   6.941
 4378POPC   C4A56862   5.619  35.058   7.120
 4378POPC   C1B56863   6.279  35.518   6.160
 4378POPC   C2B56864   6.184  35.635   6.572
 4378POPC   C3B56865   6.329  35.696   6.978
 4378POPC   C4B56866   6.085  35.630   7.344
 4379POPC   NC356867  16.091  15.428   5.375
 4379POPC   PO456868  15.539  15.135   5.220
 4379POPC   GL156869  15.755  15.142   5.647
 4379POPC   GL256870  16.052  14.975   5.768
 4379POPC   C1A56871  15.908  15.413   6.030
 4379POPC   D2A56872  16.217  15.431   6.395
 4379POPC   C3A56873  16.081  15.446   6.831
 4379POPC   C4A56874  15.721  15.331   7.114
 4379POPC   C1B56875  15.973  14.950   6.239
 4379POPC   C2B56876  15.987  14.965   6.715
 4379POPC   C3B56877  16.190  15.014   7.137
 4379POPC   C4B56878  16.130  14.915   7.623
 4380POPC   NC356879   2.954  29.167   5.335
 4380POPC   PO456880   2.355  29.341   5.567
 4380POPC   GL156881   2.748  29.343   5.774
 4380POPC   GL256882   2.934  28.992   5.831
 4380POPC   C1A56883   2.972  29.394   6.138
 4380POPC   D2A56884   3.021  29.028   6.393
 4380POPC   C3A56885   2.818  29.007   6.765
 4380POPC   C4A56886   2.778  29.360   7.036
 4380POPC   C1B56887   2.564  29.034   6.141
 4380POPC   C2B56888   2.350  28.914   6.521
 4380POPC   C3B56889   2.382  28.881   6.982
 4380POPC   C4B56890   2.719  28.938   7.312
 4381POPC   NC356891  16.565  36.677   5.375
 4381POPC   PO456892  16.763  37.358   5.413
 4381POPC   GL156893  16.878  36.972   5.676
 4381POPC   GL256894  16.771  37.151   5.933
 4381POPC   C1A56895  17.018  36.774   6.137
 4381POPC   D2A56896  16.849  36.929   6.552
 4381POPC   C3A56897  17.050  36.826   6.936
 4381POPC   C4A56898  16.845  36.611   7.298
 4381POPC   C1B56899  17.059  37.287   6.247
 4381POPC   C2B56900  16.907  37.449   6.637
 4381POPC   C3B56901  16.921  37.299   7.046
 4381POPC   C4B56902  16.625  37.042   7.181
 4382POPC   NC356903   3.369  25.557   5.439
 4382POPC   PO456904   3.842  26.130   5.438
 4382POPC   GL156905   3.675  26.082   5.866
 4382POPC   GL256906   3.348  25.909   5.831
 4382POPC   C1A56907   3.677  25.863   6.283
 4382POPC   D2A56908   3.608  25.813   6.719
 4382POPC   C3A56909   3.986  25.789   6.920
 4382POPC   C4A56910   4.092  26.205   7.066
 4382POPC   C1B56911   3.096  25.858   6.214
 4382POPC   C2B56912   3.122  26.019   6.632
 4382POPC   C3B56913   3.188  26.149   7.040
 4382POPC   C4B56914   3.595  26.045   7.193
 4383POPC   NC356915  40.284  33.922   5.390
 4383POPC   PO456916  39.765  33.522   5.321
 4383POPC   GL156917  40.003  33.672   5.738
 4383POPC   GL256918  40.082  34.072   5.837
 4383POPC   C1A56919  40.193  33.690   6.164
 4383POPC   D2A56920  40.361  33.526   6.556
 4383POPC   C3A56921  40.095  33.569   6.908
 4383POPC   C4A56922  39.949  33.857   7.238
 4383POPC   C1B56923  40.273  34.205   6.262
 4383POPC   C2B56924  40.163  34.106   6.715
 4383POPC   C3B56925  40.232  34.259   7.152
 4383POPC   C4B56926  40.135  34.161   7.645
 4384POPC   NC356927  26.154  13.709   5.464
 4384POPC   PO456928  25.763  13.102   5.506
 4384POPC   GL156929  25.975  13.359   5.771
 4384POPC   GL256930  26.283  13.259   5.776
 4384POPC   C1A56931  26.022  13.605   6.134
 4384POPC   D2A56932  26.120  13.496   6.559
 4384POPC   C3A56933  26.037  13.737   6.925
 4384POPC   C4A56934  25.990  13.965   7.287
 4384POPC   C1B56935  26.256  13.115   6.233
 4384POPC   C2B56936  26.335  13.008   6.695
 4384POPC   C3B56937  26.390  13.339   7.006
 4384POPC   C4B56938  26.068  13.451   7.340
 4385POPC   NC356939  30.019  34.145   5.354
 4385POPC   PO456940  30.130  33.408   5.420
 4385POPC   GL156941  29.961  33.559   5.834
 4385POPC   GL256942  29.926  33.913   5.809
 4385POPC   C1A56943  29.795  33.655   6.242
 4385POPC   D2A56944  30.067  33.595   6.574
 4385POPC   C3A56945  29.842  33.692   6.887
 4385POPC   C4A56946  29.984  33.667   7.255
 4385POPC   C1B56947  30.174  33.992   6.211
 4385POPC   C2B56948  30.001  34.121   6.647
 4385POPC   C3B56949  30.200  34.081   7.079
 4385POPC   C4B56950  30.118  34.047   7.567
 4386POPC   NC356951  19.770  39.003   5.445
 4386POPC   PO456952  20.072  39.575   5.367
 4386POPC   GL156953  19.961  39.359   5.806
 4386POPC   GL256954  19.730  39.067   5.927
 4386POPC   C1A56955  19.812  39.455   6.247
 4386POPC   D2A56956  20.030  39.357   6.641
 4386POPC   C3A56957  19.912  39.483   7.062
 4386POPC   C4A56958  20.064  39.595   7.472
 4386POPC   C1B56959  20.027  38.992   6.233
 4386POPC   C2B56960  19.820  38.876   6.604
 4386POPC   C3B56961  19.918  38.950   7.025
 4386POPC   C4B56962  19.756  38.737   7.347
 4387POPC   NC356963   4.143   1.059   5.570
 4387POPC   PO456964   3.705   1.625   5.421
 4387POPC   GL156965   3.768   1.381   5.736
 4387POPC   GL256966   3.424   1.282   5.820
 4387POPC   C1A56967   3.756   1.452   6.156
 4387POPC   D2A56968   3.432   1.302   6.409
 4387POPC   C3A56969   3.653   1.316   6.790
 4387POPC   C4A56970   3.487   1.351   7.190
 4387POPC   C1B56971   3.275   0.931   6.029
 4387POPC   C2B56972   3.217   0.801   6.434
 4387POPC   C3B56973   3.258   1.003   6.818
 4387POPC   C4B56974   3.262   0.849   7.203
 4388POPC   NC356975  41.571  31.736   5.599
 4388POPC   PO456976  41.956  32.289   5.404
 4388POPC   GL156977  41.554  32.288   5.758
 4388POPC   GL256978  41.368  32.008   5.965
 4388POPC   C1A56979  41.153  32.453   6.066
 4388POPC   D2A56980  41.116  32.590   6.545
 4388POPC   C3A56981  41.133  32.355   7.011
 4388POPC   C4A56982  41.021  32.451   7.489
 4388POPC   C1B56983  41.794  32.065   6.153
 4388POPC   C2B56984  41.996  32.302   6.495
 4388POPC   C3B56985  41.786  32.404   6.891
 4388POPC   C4B56986  41.876  32.393   7.321
 4389POPC   NC356987  41.244  28.469   5.428
 4389POPC   PO456988  41.846  28.233   5.477
 4389POPC   GL156989  41.635  28.494   5.778
 4389POPC   GL256990  41.851  28.781   5.840
 4389POPC   C1A56991  41.407  28.490   6.178
 4389POPC   D2A56992  41.359  28.254   6.572
 4389POPC   C3A56993  41.574  28.425   6.931
 4389POPC   C4A56994  41.460  28.683   7.284
 4389POPC   C1B56995  41.948  28.511   6.167
 4389POPC   C2B56996  41.915  28.555   6.569
 4389POPC   C3B56997  42.026  28.769   6.925
 4389POPC   C4B56998  42.153  28.702   7.318
 4390POPC   NC356999  12.236  20.861   5.397
 4390POPC   PO457000  11.643  20.502   5.368
 4390POPC   GL157001  11.844  20.778   5.736
 4390POPC   GL257002  12.120  20.998   5.867
 4390POPC   C1A57003  12.073  20.563   6.091
 4390POPC   D2A57004  12.204  20.658   6.500
 4390POPC   C3A57005  12.052  20.411   6.855
 4390POPC   C4A57006  12.304  20.346   7.214
 4390POPC   C1B57007  11.886  21.039   6.292
 4390POPC   C2B57008  11.816  20.864   6.761
 4390POPC   C3B57009  11.991  20.780   7.203
 4390POPC   C4B57010  11.799  20.859   7.617
 4391POPC   NC357011  44.612  17.821   5.418
 4391POPC   PO457012  44.830  17.166   5.594
 4391POPC   GL157013  44.696  17.490   5.802
 4391POPC   GL257014   0.005  17.702   5.754
 4391POPC   C1A57015  44.602  17.434   6.214
 4391POPC   D2A57016  44.362  17.470   6.567
 4391POPC   C3A57017  44.550  17.502   6.963
 4391POPC   C4A57018  44.356  17.362   7.328
 4391POPC   C1B57019  44.836  17.884   6.134
 4391POPC   C2B57020  44.797  17.759   6.584
 4391POPC   C3B57021  44.808  17.911   7.017
 4391POPC   C4B57022  44.883  17.678   7.422
 4392POPC   NC357023  20.889  13.240   5.515
 4392POPC   PO457024  20.384  13.573   5.197
 4392POPC   GL157025  20.513  13.632   5.656
 4392POPC   GL257026  20.867  13.736   5.726
 4392POPC   C1A57027  20.613  13.426   6.098
 4392POPC   D2A57028  20.486  13.386   6.538
 4392POPC   C3A57029  20.688  13.525   6.921
 4392POPC   C4A57030  20.438  13.556   7.309
 4392POPC   C1B57031  20.610  13.925   6.083
 4392POPC   C2B57032  20.666  13.945   6.538
 4392POPC   C3B57033  20.389  13.935   6.900
 4392POPC   C4B57034  20.530  14.063   7.263
 4393POPC   NC357035  36.789  37.966   5.475
 4393POPC   PO457036  36.775  38.611   5.509
 4393POPC   GL157037  36.847  38.470   5.890
 4393POPC   GL257038  36.574  38.188   5.911
 4393POPC   C1A57039  37.098  38.636   6.240
 4393POPC   D2A57040  37.261  38.849   6.615
 4393POPC   C3A57041  37.225  38.709   7.077
 4393POPC   C4A57042  36.989  38.916   7.440
 4393POPC   C1B57043  36.892  38.118   6.251
 4393POPC   C2B57044  37.088  38.303   6.634
 4393POPC   C3B57045  37.120  38.201   7.071
 4393POPC   C4B57046  36.962  37.922   7.371
 4394POPC   NC357047  25.619   7.299   5.380
 4394POPC   PO457048  25.125   7.742   5.203
 4394POPC   GL157049  25.200   7.684   5.681
 4394POPC   GL257050  25.214   7.354   5.727
 4394POPC   C1A57051  25.281   7.661   6.191
 4394POPC   D2A57052  25.225   7.647   6.699
 4394POPC   C3A57053  24.923   7.346   6.963
 4394POPC   C4A57054  24.949   7.198   7.426
 4394POPC   C1B57055  25.509   7.209   6.036
 4394POPC   C2B57056  25.624   7.309   6.449
 4394POPC   C3B57057  25.420   7.186   6.826
 4394POPC   C4B57058  25.374   7.379   7.203
 4395POPC   NC357059  31.036  12.212   5.373
 4395POPC   PO457060  30.520  11.895   5.526
 4395POPC   GL157061  30.879  11.863   5.720
 4395POPC   GL257062  30.747  11.645   5.959
 4395POPC   C1A57063  30.924  12.113   6.071
 4395POPC   D2A57064  30.763  12.008   6.459
 4395POPC   C3A57065  30.728  12.377   6.693
 4395POPC   C4A57066  30.723  12.304   7.113
 4395POPC   C1B57067  30.467  11.609   6.310
 4395POPC   C2B57068  30.489  11.636   6.764
 4395POPC   C3B57069  30.346  11.919   7.077
 4395POPC   C4B57070  30.294  11.888   7.515
 4396POPC   NC357071  18.426  27.860   5.522
 4396POPC   PO457072  18.343  27.216   5.310
 4396POPC   GL157073  18.118  27.397   5.701
 4396POPC   GL257074  18.373  27.567   5.911
 4396POPC   C1A57075  18.013  27.352   6.182
 4396POPC   D2A57076  18.092  27.616   6.564
 4396POPC   C3A57077  18.191  27.489   6.989
 4396POPC   C4A57078  18.047  27.339   7.406
 4396POPC   C1B57079  18.495  27.776   6.294
 4396POPC   C2B57080  18.553  27.805   6.753
 4396POPC   C3B57081  18.486  27.883   7.181
 4396POPC   C4B57082  18.476  27.932   7.638
 4397POPC   NC357083  33.216   2.202   5.268
 4397POPC   PO457084  32.661   1.773   5.292
 4397POPC   GL157085  32.823   2.051   5.595
 4397POPC   GL257086  33.149   1.934   5.730
 4397POPC   C1A57087  32.722   2.051   6.042
 4397POPC   D2A57088  32.889   2.045   6.472
 4397POPC   C3A57089  32.866   1.759   6.802
 4397POPC   C4A57090  32.718   1.907   7.200
 4397POPC   C1B57091  33.295   2.077   6.144
 4397POPC   C2B57092  33.381   2.113   6.595
 4397POPC   C3B57093  33.198   2.153   7.001
 4397POPC   C4B57094  33.346   2.093   7.406
 4398POPC   NC357095  44.517  37.569   5.273
 4398POPC   PO457096  44.919  38.076   5.372
 4398POPC   GL157097  44.694  37.845   5.757
 4398POPC   GL257098  44.518  37.485   5.776
 4398POPC   C1A57099  44.907  37.614   6.129
 4398POPC   D2A57100  44.839  37.592   6.580
 4398POPC   C3A57101  44.730  37.992   6.745
 4398POPC   C4A57102  44.606  38.108   7.164
 4398POPC   C1B57103  44.399  37.575   6.188
 4398POPC   C2B57104  44.317  37.696   6.607
 4398POPC   C3B57105  44.493  37.620   6.996
 4398POPC   C4B57106  44.360  37.444   7.328
 4399POPC   NC357107  32.406  31.656   5.390
 4399POPC   PO457108  31.879  31.290   5.355
 4399POPC   GL157109  32.033  31.486   5.740
 4399POPC   GL257110  32.366  31.344   5.843
 4399POPC   C1A57111  32.153  31.692   6.137
 4399POPC   D2A57112  32.361  31.842   6.525
 4399POPC   C3A57113  32.310  31.595   6.898
 4399POPC   C4A57114  32.089  31.669   7.277
 4399POPC   C1B57115  32.528  30.991   6.161
 4399POPC   C2B57116  32.775  31.057   6.523
 4399POPC   C3B57117  32.666  31.045   6.951
 4399POPC   C4B57118  32.554  31.329   7.289
 4400POPC   NC357119   5.105  17.743   5.191
 4400POPC   PO457120   5.494  17.292   5.506
 4400POPC   GL157121   5.251  17.604   5.802
 4400POPC   GL257122   4.922  17.750   5.702
 4400POPC   C1A57123   5.251  17.561   6.258
 4400POPC   D2A57124   5.271  17.313   6.625
 4400POPC   C3A57125   5.418  17.496   7.003
 4400POPC   C4A57126   5.522  17.585   7.442
 4400POPC   C1B57127   4.772  17.671   6.132
 4400POPC   C2B57128   4.798  17.436   6.511
 4400POPC   C3B57129   4.876  17.435   6.951
 4400POPC   C4B57130   5.060  17.377   7.355
 4401POPC   NC357131  38.215  23.574   5.399
 4401POPC   PO457132  37.559  23.626   5.294
 4401POPC   GL157133  37.783  23.751   5.677
 4401POPC   GL257134  37.954  23.489   5.857
 4401POPC   C1A57135  37.663  23.820   6.134
 4401POPC   D2A57136  37.811  23.970   6.553
 4401POPC   C3A57137  37.512  23.859   6.899
 4401POPC   C4A57138  37.317  23.757   7.362
 4401POPC   C1B57139  38.140  23.686   6.251
 4401POPC   C2B57140  38.297  23.637   6.667
 4401POPC   C3B57141  38.019  23.767   6.994
 4401POPC   C4B57142  37.742  23.510   7.184
 4402POPC   NC357143  25.109   0.348   5.425
 4402POPC   PO457144  25.402  44.695   5.229
 4402POPC   GL157145  25.313  44.690   5.711
 4402POPC   GL257146  25.399  44.362   5.920
 4402POPC   C1A57147  25.220  44.776   6.183
 4402POPC   D2A57148  25.343  44.554   6.616
 4402POPC   C3A57149  25.200  44.677   7.046
 4402POPC   C4A57150  25.279   0.104   7.191
 4402POPC   C1B57151  25.718  44.380   6.304
 4402POPC   C2B57152  25.780  44.325   6.774
 4402POPC   C3B57153  25.552  44.327   7.153
 4402POPC   C4B57154  25.570  44.245   7.618
 4403POPC   NC357155  36.603  33.765   5.387
 4403POPC   PO457156  37.277  33.585   5.405
 4403POPC   GL157157  37.055  33.787   5.785
 4403POPC   GL257158  36.733  33.976   5.835
 4403POPC   C1A57159  37.097  33.780   6.268
 4403POPC   D2A57160  37.202  33.583   6.712
 4403POPC   C3A57161  36.986  33.790   7.092
 4403POPC   C4A57162  36.655  33.771   7.419
 4403POPC   C1B57163  36.579  33.896   6.254
 4403POPC   C2B57164  36.657  33.926   6.683
 4403POPC   C3B57165  36.523  34.123   7.028
 4403POPC   C4B57166  36.792  34.270   7.309
 4404POPC   NC357167  31.886   0.530   5.326
 4404POPC   PO457168  32.402   0.248   5.658
 4404POPC   GL157169  32.175   0.487   5.919
 4404POPC   GL257170  32.161   0.799   5.714
 4404POPC   C1A57171  32.205   0.538   6.383
 4404POPC   D2A57172  32.458   0.403   6.725
 4404POPC   C3A57173  32.336   0.451   7.144
 4404POPC   C4A57174  31.904   0.462   7.244
 4404POPC   C1B57175  32.427   0.890   6.091
 4404POPC   C2B57176  32.600   0.889   6.519
 4404POPC   C3B57177  32.396   0.911   6.925
 4404POPC   C4B57178  32.551   0.899   7.353
 4405POPC   NC357179  42.705  18.849   5.465
 4405POPC   PO457180  43.110  19.391   5.329
 4405POPC   GL157181  43.072  19.154   5.706
 4405POPC   GL257182  43.198  18.803   5.641
 4405POPC   C1A57183  42.868  19.028   6.117
 4405POPC   D2A57184  42.954  18.849   6.536
 4405POPC   C3A57185  42.936  19.081   6.923
 4405POPC   C4A57186  42.965  18.837   7.212
 4405POPC   C1B57187  43.427  18.928   6.013
 4405POPC   C2B57188  43.441  19.029   6.451
 4405POPC   C3B57189  43.371  18.814   6.850
 4405POPC   C4B57190  43.452  18.937   7.269
 4406POPC   NC357191   6.922  43.418   5.409
 4406POPC   PO457192   6.381  43.097   5.544
 4406POPC   GL157193   6.673  43.239   5.818
 4406POPC   GL257194   6.991  43.043   5.761
 4406POPC   C1A57195   6.649  43.227   6.244
 4406POPC   D2A57196   6.586  42.891   6.494
 4406POPC   C3A57197   6.810  42.877   6.864
 4406POPC   C4A57198   6.708  43.055   7.250
 4406POPC   C1B57199   7.111  43.364   6.074
 4406POPC   C2B57200   7.099  43.325   6.527
 4406POPC   C3B57201   6.857  43.435   6.889
 4406POPC   C4B57202   7.013  43.487   7.299
 4407POPC   NC357203   9.395  22.128   5.187
 4407POPC   PO457204   9.795  22.542   5.431
 4407POPC   GL157205   9.686  22.267   5.756
 4407POPC   GL257206   9.471  21.956   5.717
 4407POPC   C1A57207   9.662  22.194   6.188
 4407POPC   D2A57208   9.829  22.204   6.603
 4407POPC   C3A57209   9.625  22.326   6.969
 4407POPC   C4A57210   9.820  22.242   7.340
 4407POPC   C1B57211   9.467  21.725   6.134
 4407POPC   C2B57212   9.601  21.746   6.551
 4407POPC   C3B57213   9.410  21.870   6.939
 4407POPC   C4B57214   9.386  22.023   7.393
 4408POPC   NC357215   7.763   8.840   5.439
 4408POPC   PO457216   7.155   9.185   5.507
 4408POPC   GL157217   7.501   9.125   5.789
 4408POPC   GL257218   7.533   8.755   5.873
 4408POPC   C1A57219   7.542   9.141   6.225
 4408POPC   D2A57220   7.387   8.969   6.622
 4408POPC   C3A57221   7.588   9.127   6.957
 4408POPC   C4A57222   7.313   9.070   7.259
 4408POPC   C1B57223   7.538   8.623   6.289
 4408POPC   C2B57224   7.709   8.526   6.703
 4408POPC   C3B57225   7.599   8.624   7.129
 4408POPC   C4B57226   7.432   8.682   7.564
 4409POPC   NC357227   7.738   6.277   5.053
 4409POPC   PO457228   7.346   6.335   5.564
 4409POPC   GL157229   7.341   6.459   5.926
 4409POPC   GL257230   7.637   6.692   5.844
 4409POPC   C1A57231   7.194   6.345   6.318
 4409POPC   D2A57232   7.447   6.419   6.660
 4409POPC   C3A57233   7.267   6.416   7.052
 4409POPC   C4A57234   7.604   6.499   7.346
 4409POPC   C1B57235   7.567   6.750   6.276
 4409POPC   C2B57236   7.516   6.984   6.620
 4409POPC   C3B57237   7.524   6.874   7.015
 4409POPC   C4B57238   7.354   7.006   7.403
 4410POPC   NC357239   0.506  12.172   5.353
 4410POPC   PO457240  44.906  11.816   5.271
 4410POPC   GL157241   0.108  11.979   5.685
 4410POPC   GL257242   0.446  11.908   5.798
 4410POPC   C1A57243   0.140  12.054   6.173
 4410POPC   D2A57244   0.154  12.273   6.587
 4410POPC   C3A57245   0.319  12.025   6.922
 4410POPC   C4A57246   0.479  11.969   7.319
 4410POPC   C1B57247   0.664  12.016   6.176
 4410POPC   C2B57248   0.686  12.173   6.579
 4410POPC   C3B57249   0.828  12.124   6.978
 4410POPC   C4B57250   0.979  11.874   7.312
 4411POPC   NC357251  15.865   4.558   5.527
 4411POPC   PO457252  15.600   3.994   5.468
 4411POPC   GL157253  15.860   4.136   5.844
 4411POPC   GL257254  15.766   4.461   6.015
 4411POPC   C1A57255  16.170   4.193   6.210
 4411POPC   D2A57256  16.146   4.398   6.612
 4411POPC   C3A57257  16.211   4.243   7.021
 4411POPC   C4A57258  16.341   4.603   7.228
 4411POPC   C1B57259  15.687   4.257   6.388
 4411POPC   C2B57260  15.732   4.194   6.821
 4411POPC   C3B57261  15.714   4.370   7.242
 4411POPC   C4B57262  15.577   4.191   7.652
 4412POPC   NC357263  44.565   6.829   5.162
 4412POPC   PO457264  44.377   6.354   5.454
 4412POPC   GL157265  44.508   6.727   5.697
 4412POPC   GL257266  44.811   6.659   5.905
 4412POPC   C1A57267  44.393   6.842   6.145
 4412POPC   D2A57268  44.258   6.605   6.533
 4412POPC   C3A57269  44.366   6.790   6.931
 4412POPC   C4A57270  44.426   6.802   7.378
 4412POPC   C1B57271  44.681   6.417   6.305
 4412POPC   C2B57272  44.585   6.285   6.767
 4412POPC   C3B57273  44.718   6.437   7.163
 4412POPC   C4B57274  44.925   6.645   7.512
 4413POPC   NC357275   3.013  44.763   5.567
 4413POPC   PO457276   2.393  44.503   5.604
 4413POPC   GL157277   2.690  44.576   5.893
 4413POPC   GL257278   2.911  44.311   5.819
 4413POPC   C1A57279   2.915  44.619   6.272
 4413POPC   D2A57280   2.616  44.727   6.596
 4413POPC   C3A57281   2.788  44.643   6.961
 4413POPC   C4A57282   3.035  44.766   7.294
 4413POPC   C1B57283   2.634  44.196   6.198
 4413POPC   C2B57284   2.773  44.228   6.597
 4413POPC   C3B57285   2.614  44.122   6.962
 4413POPC   C4B57286   2.797  44.281   7.305
 4414POPC   NC357287  32.320  34.161   5.412
 4414POPC   PO457288  31.842  33.722   5.188
 4414POPC   GL157289  31.989  33.791   5.652
 4414POPC   GL257290  32.345  33.794   5.798
 4414POPC   C1A57291  31.913  33.765   6.124
 4414POPC   D2A57292  32.115  33.703   6.550
 4414POPC   C3A57293  32.040  33.853   6.976
 4414POPC   C4A57294  32.031  33.658   7.375
 4414POPC   C1B57295  32.639  33.793   6.183
 4414POPC   C2B57296  32.656  33.605   6.581
 4414POPC   C3B57297  32.532  33.698   6.998
 4414POPC   C4B57298  32.520  33.804   7.438
 4415POPC   NC357299  44.017  32.787   5.415
 4415POPC   PO457300  44.239  33.437   5.427
 4415POPC   GL157301  44.154  33.142   5.754
 4415POPC   GL257302  43.783  33.139   5.806
 4415POPC   C1A57303  44.115  32.902   6.143
 4415POPC   D2A57304  44.152  33.088   6.555
 4415POPC   C3A57305  43.938  33.056   6.913
 4415POPC   C4A57306  44.076  32.800   7.269
 4415POPC   C1B57307  43.687  33.158   6.270
 4415POPC   C2B57308  43.489  32.925   6.619
 4415POPC   C3B57309  43.594  32.718   7.024
 4415POPC   C4B57310  43.645  33.046   7.383
 4416POPC   NC357311   3.823  38.274   5.365
 4416POPC   PO457312   3.246  38.470   5.534
 4416POPC   GL157313   3.569  38.550   5.784
 4416POPC   GL257314   3.766  38.880   5.754
 4416POPC   C1A57315   3.485  38.351   6.178
 4416POPC   D2A57316   3.685  38.356   6.566
 4416POPC   C3A57317   3.515  38.226   6.928
 4416POPC   C4A57318   3.433  38.428   7.298
 4416POPC   C1B57319   3.502  38.890   6.152
 4416POPC   C2B57320   3.388  38.783   6.571
 4416POPC   C3B57321   3.620  38.750   6.932
 4416POPC   C4B57322   3.698  39.051   7.245
 4417POPC   NC357323  43.805  40.929   5.482
 4417POPC   PO457324  44.245  40.428   5.577
 4417POPC   GL157325  43.869  40.568   5.876
 4417POPC   GL257326  43.660  40.903   5.969
 4417POPC   C1A57327  43.872  40.610   6.326
 4417POPC   D2A57328  44.177  40.623   6.637
 4417POPC   C3A57329  43.983  40.731   6.988
 4417POPC   C4A57330  44.009  40.978   7.309
 4417POPC   C1B57331  43.715  41.183   6.327
 4417POPC   C2B57332  43.909  41.194   6.726
 4417POPC   C3B57333  43.725  41.345   7.110
 4417POPC   C4B57334  43.558  41.129   7.475
 4418POPC   NC357335  11.901   4.052   5.280
 4418POPC   PO457336  12.015   4.691   5.210
 4418POPC   GL157337  11.944   4.595   5.678
 4418POPC   GL257338  11.906   4.236   5.772
 4418POPC   C1A57339  11.947   4.615   6.171
 4418POPC   D2A57340  12.153   4.420   6.569
 4418POPC   C3A57341  12.143   4.538   7.031
 4418POPC   C4A57342  12.195   4.366   7.516
 4418POPC   C1B57343  11.988   4.086   6.205
 4418POPC   C2B57344  11.832   4.000   6.633
 4418POPC   C3B57345  11.967   4.057   7.071
 4418POPC   C4B57346  11.754   4.060   7.469
 4419POPC   NC357347  18.720  38.510   5.287
 4419POPC   PO457348  18.038  38.343   5.420
 4419POPC   GL157349  18.109  38.326   5.836
 4419POPC   GL257350  18.378  38.516   5.822
 4419POPC   C1A57351  18.057  38.563   6.227
 4419POPC   D2A57352  17.864  38.461   6.626
 4419POPC   C3A57353  18.058  38.516   7.038
 4419POPC   C4A57354  18.392  38.672   7.265
 4419POPC   C1B57355  18.467  38.214   6.186
 4419POPC   C2B57356  18.636  38.035   6.574
 4419POPC   C3B57357  18.439  38.156   6.957
 4419POPC   C4B57358  18.203  38.152   7.336
 4420POPC   NC357359   8.507  24.465   5.408
 4420POPC   PO457360   9.122  24.600   5.141
 4420POPC   GL157361   9.039  24.483   5.628
 4420POPC   GL257362   8.866  24.734   5.786
 4420POPC   C1A57363   9.108  24.483   6.138
 4420POPC   D2A57364   9.317  24.407   6.525
 4420POPC   C3A57365   9.107  24.563   6.866
 4420POPC   C4A57366   9.101  24.332   7.245
 4420POPC   C1B57367   8.736  24.883   6.177
 4420POPC   C2B57368   8.722  24.719   6.573
 4420POPC   C3B57369   8.575  24.861   6.961
 4420POPC   C4B57370   8.904  24.848   7.232
 4421POPC   NC357371  25.803  25.684   5.567
 4421POPC   PO457372  26.149  26.287   5.402
 4421POPC   GL157373  26.130  26.053   5.770
 4421POPC   GL257374  26.001  26.336   5.966
 4421POPC   C1A57375  26.281  25.905   6.160
 4421POPC   D2A57376  26.226  26.116   6.531
 4421POPC   C3A57377  26.430  25.968   6.885
 4421POPC   C4A57378  26.330  25.824   7.305
 4421POPC   C1B57379  25.719  26.279   6.331
 4421POPC   C2B57380  25.728  26.203   6.762
 4421POPC   C3B57381  25.997  26.137   7.101
 4421POPC   C4B57382  26.066  26.215   7.573
 4422POPC   NC357383  17.031  17.111   5.456
 4422POPC   PO457384  16.387  16.831   5.381
 4422POPC   GL157385  16.587  16.891   5.799
 4422POPC   GL257386  16.834  16.631   5.828
 4422POPC   C1A57387  16.636  16.977   6.261
 4422POPC   D2A57388  16.690  16.825   6.710
 4422POPC   C3A57389  16.689  17.020   7.112
 4422POPC   C4A57390  16.819  16.799   7.485
 4422POPC   C1B57391  16.714  16.461   6.245
 4422POPC   C2B57392  16.756  16.316   6.663
 4422POPC   C3B57393  16.882  16.483   7.066
 4422POPC   C4B57394  17.104  16.219   7.326
 4423POPC   NC357395   0.306  37.020   5.483
 4423POPC   PO457396  44.562  37.105   5.402
 4423POPC   GL157397  44.807  36.996   5.785
 4423POPC   GL257398  44.799  36.651   5.953
 4423POPC   C1A57399  44.880  37.097   6.225
 4423POPC   D2A57400  44.573  37.151   6.566
 4423POPC   C3A57401  44.603  37.100   7.007
 4423POPC   C4A57402  44.291  36.935   7.259
 4423POPC   C1B57403  44.725  36.635   6.375
 4423POPC   C2B57404  44.741  36.651   6.805
 4423POPC   C3B57405  44.720  36.648   7.268
 4423POPC   C4B57406  44.896  36.684   7.702
 4424POPC   NC357407   0.850  31.410   5.378
 4424POPC   PO457408   1.429  31.548   5.276
 4424POPC   GL157409   1.374  31.679   5.730
 4424POPC   GL257410   0.998  31.656   5.832
 4424POPC   C1A57411   1.379  31.826   6.196
 4424POPC   D2A57412   1.132  31.743   6.583
 4424POPC   C3A57413   1.377  31.445   6.784
 4424POPC   C4A57414   1.504  31.375   7.171
 4424POPC   C1B57415   0.881  31.280   6.113
 4424POPC   C2B57416   1.026  31.146   6.499
 4424POPC   C3B57417   0.932  31.214   6.897
 4424POPC   C4B57418   0.889  31.617   7.092
 4425POPC   NC357419  19.529  14.938   5.373
 4425POPC   PO457420  20.142  15.354   5.314
 4425POPC   GL157421  19.928  15.310   5.707
 4425POPC   GL257422  19.578  15.337   5.728
 4425POPC   C1A57423  20.075  15.299   6.144
 4425POPC   D2A57424  20.012  15.161   6.566
 4425POPC   C3A57425  20.034  15.379   6.990
 4425POPC   C4A57426  19.919  15.200   7.395
 4425POPC   C1B57427  19.641  15.031   6.073
 4425POPC   C2B57428  19.523  14.944   6.504
 4425POPC   C3B57429  19.629  15.067   6.935
 4425POPC   C4B57430  19.487  15.419   7.226
 4426POPC   NC357431  23.180  12.374   5.327
 4426POPC   PO457432  22.576  12.021   5.331
 4426POPC   GL157433  22.735  12.056   5.739
 4426POPC   GL257434  23.094  11.970   5.742
 4426POPC   C1A57435  22.739  12.287   6.156
 4426POPC   D2A57436  22.591  12.047   6.536
 4426POPC   C3A57437  22.823  12.048   6.890
 4426POPC   C4A57438  22.901  11.801   7.219
 4426POPC   C1B57439  23.288  12.126   6.115
 4426POPC   C2B57440  23.537  12.070   6.500
 4426POPC   C3B57441  23.439  12.034   6.950
 4426POPC   C4B57442  23.170  12.262   7.194
 4427POPC   NC357443  31.040   3.229   5.521
 4427POPC   PO457444  30.535   2.786   5.224
 4427POPC   GL157445  30.709   2.822   5.645
 4427POPC   GL257446  30.392   2.932   5.720
 4427POPC   C1A57447  30.700   2.761   6.125
 4427POPC   D2A57448  30.522   2.608   6.532
 4427POPC   C3A57449  30.804   2.597   6.899
 4427POPC   C4A57450  30.910   2.913   7.181
 4427POPC   C1B57451  30.365   3.169   6.064
 4427POPC   C2B57452  30.388   3.172   6.486
 4427POPC   C3B57453  30.535   3.057   6.865
 4427POPC   C4B57454  30.394   3.072   7.288
 4428POPC   NC357455   0.470   2.085   5.110
 4428POPC   PO457456   0.235   1.606   5.504
 4428POPC   GL157457   0.408   1.848   5.835
 4428POPC   GL257458   0.385   2.178   5.746
 4428POPC   C1A57459   0.487   1.990   6.256
 4428POPC   D2A57460   0.332   1.823   6.599
 4428POPC   C3A57461   0.536   1.717   6.969
 4428POPC   C4A57462   0.251   1.728   7.277
 4428POPC   C1B57463   0.132   2.319   6.125
 4428POPC   C2B57464   0.043   2.248   6.568
 4428POPC   C3B57465   0.309   2.179   6.951
 4428POPC   C4B57466   0.074   2.197   7.297
 4429POPC   NC357467  40.320  16.605   5.106
 4429POPC   PO457468  39.842  16.786   5.503
 4429POPC   GL157469  40.066  16.765   5.851
 4429POPC   GL257470  40.099  17.117   5.882
 4429POPC   C1A57471  39.866  16.566   6.202
 4429POPC   D2A57472  39.793  16.694   6.627
 4429POPC   C3A57473  40.177  16.552   6.827
 4429POPC   C4A57474  40.186  16.370   7.223
 4429POPC   C1B57475  39.943  17.068   6.301
 4429POPC   C2B57476  40.057  17.123   6.741
 4429POPC   C3B57477  39.912  16.880   7.096
 4429POPC   C4B57478  40.036  16.873   7.508
 4430POPC   NC357479   2.488  22.669   5.450
 4430POPC   PO457480   2.910  23.131   5.416
 4430POPC   GL157481   2.615  23.061   5.748
 4430POPC   GL257482   2.869  22.794   5.825
 4430POPC   C1A57483   2.520  23.079   6.202
 4430POPC   D2A57484   2.775  23.093   6.600
 4430POPC   C3A57485   2.607  22.938   6.990
 4430POPC   C4A57486   2.528  23.064   7.409
 4430POPC   C1B57487   2.849  22.670   6.252
 4430POPC   C2B57488   2.616  22.570   6.606
 4430POPC   C3B57489   2.752  22.423   6.997
 4430POPC   C4B57490   2.669  22.567   7.374
 4431POPC   NC357491  44.339  27.040   5.054
 4431POPC   PO457492  44.990  27.047   5.324
 4431POPC   GL157493  44.781  27.030   5.802
 4431POPC   GL257494  44.612  26.705   5.914
 4431POPC   C1A57495  44.804  27.038   6.277
 4431POPC   D2A57496   0.021  27.064   6.707
 4431POPC   C3A57497  44.707  27.084   7.070
 4431POPC   C4A57498  44.696  27.043   7.531
 4431POPC   C1B57499  44.269  26.537   6.150
 4431POPC   C2B57500  44.253  26.638   6.583
 4431POPC   C3B57501  44.399  26.488   6.989
 4431POPC   C4B57502  44.478  26.564   7.449
 4432POPC   NC357503  32.095  44.886   5.586
 4432POPC   PO457504  32.637  44.424   5.437
 4432POPC   GL157505  32.439  44.529   5.823
 4432POPC   GL257506  32.535  44.841   5.938
 4432POPC   C1A57507  32.293  44.551   6.287
 4432POPC   D2A57508  32.096  44.345   6.673
 4432POPC   C3A57509  32.094  44.501   7.121
 4432POPC   C4A57510  31.854  44.428   7.503
 4432POPC   C1B57511  32.411   0.062   6.313
 4432POPC   C2B57512  32.038   0.099   6.606
 4432POPC   C3B57513  32.069   0.011   7.047
 4432POPC   C4B57514  32.479  44.841   7.171
 4433POPC   NC357515  19.968  31.971   5.468
 4433POPC   PO457516  19.599  31.464   5.236
 4433POPC   GL157517  19.690  31.596   5.695
 4433POPC   GL257518  19.381  31.737   5.779
 4433POPC   C1A57519  19.981  31.448   6.101
 4433POPC   D2A57520  20.064  31.234   6.535
 4433POPC   C3A57521  20.134  31.520   6.888
 4433POPC   C4A57522  20.096  31.468   7.325
 4433POPC   C1B57523  19.480  31.494   6.151
 4433POPC   C2B57524  19.750  31.627   6.538
 4433POPC   C3B57525  19.669  31.680   7.020
 4433POPC   C4B57526  19.611  31.538   7.484
 4434POPC   NC357527   4.364  35.015   5.539
 4434POPC   PO457528   4.110  34.408   5.331
 4434POPC   GL157529   4.174  34.562   5.770
 4434POPC   GL257530   3.934  34.850   5.832
 4434POPC   C1A57531   4.419  34.479   6.172
 4434POPC   D2A57532   4.522  34.670   6.576
 4434POPC   C3A57533   4.256  34.645   6.955
 4434POPC   C4A57534   4.428  34.525   7.336
 4434POPC   C1B57535   4.101  34.876   6.273
 4434POPC   C2B57536   3.993  35.018   6.694
 4434POPC   C3B57537   3.945  35.052   7.139
 4434POPC   C4B57538   4.006  34.794   7.515
 4435POPC   NC357539  36.197  11.712   5.386
 4435POPC   PO457540  35.935  11.030   5.380
 4435POPC   GL157541  36.138  11.288   5.682
 4435POPC   GL257542  36.237  11.025   5.877
 4435POPC   C1A57543  36.372  11.481   6.034
 4435POPC   D2A57544  36.295  11.271   6.431
 4435POPC   C3A57545  36.364  11.496   6.858
 4435POPC   C4A57546  36.450  11.268   7.255
 4435POPC   C1B57547  35.861  11.054   6.130
 4435POPC   C2B57548  35.814  11.067   6.568
 4435POPC   C3B57549  36.098  11.086   6.908
 4435POPC   C4B57550  35.938  11.231   7.301
 4436POPC   NC357551  10.060   2.833   5.287
 4436POPC   PO457552   9.534   2.417   5.448
 4436POPC   GL157553   9.773   2.595   5.740
 4436POPC   GL257554   9.755   2.938   5.699
 4436POPC   C1A57555   9.698   2.565   6.193
 4436POPC   D2A57556   9.698   2.343   6.622
 4436POPC   C3A57557   9.750   2.606   6.971
 4436POPC   C4A57558  10.130   2.736   7.197
 4436POPC   C1B57559   9.808   3.063   6.153
 4436POPC   C2B57560   9.719   3.010   6.616
 4436POPC   C3B57561   9.862   3.129   7.070
 4436POPC   C4B57562   9.969   3.090   7.540
 4437POPC   NC357563  44.408   4.949   5.300
 4437POPC   PO457564   0.038   5.137   5.463
 4437POPC   GL157565  44.734   4.917   5.702
 4437POPC   GL257566  44.488   5.148   5.816
 4437POPC   C1A57567  44.670   4.745   6.124
 4437POPC   D2A57568  44.607   4.965   6.534
 4437POPC   C3A57569  44.796   4.845   6.926
 4437POPC   C4A57570  44.817   4.959   7.354
 4437POPC   C1B57571  44.420   5.369   6.256
 4437POPC   C2B57572  44.424   5.458   6.746
 4437POPC   C3B57573  44.584   5.420   7.194
 4437POPC   C4B57574  44.508   5.648   7.610
 4438POPC   NC357575  44.448  15.675   5.483
 4438POPC   PO457576  44.739  14.989   5.210
 4438POPC   GL157577  44.690  15.006   5.702
 4438POPC   GL257578  44.358  15.209   5.737
 4438POPC   C1A57579  44.782  14.768   6.137
 4438POPC   D2A57580  44.994  14.772   6.559
 4438POPC   C3A57581  44.752  14.824   6.958
 4438POPC   C4A57582  44.787  14.996   7.409
 4438POPC   C1B57583  44.484  15.201   6.185
 4438POPC   C2B57584  44.656  15.184   6.597
 4438POPC   C3B57585  44.431  15.208   7.008
 4438POPC   C4B57586  44.410  15.344   7.423
 4439POPC   NC357587  40.139  41.003   5.501
 4439POPC   PO457588  40.376  41.684   5.511
 4439POPC   GL157589  40.012  41.608   5.776
 4439POPC   GL257590  39.959  41.280   5.887
 4439POPC   C1A57591  40.098  41.666   6.205
 4439POPC   D2A57592  40.174  41.418   6.558
 4439POPC   C3A57593  40.123  41.681   6.903
 4439POPC   C4A57594  40.334  41.751   7.268
 4439POPC   C1B57595  39.699  41.128   6.214
 4439POPC   C2B57596  39.807  41.020   6.628
 4439POPC   C3B57597  39.782  41.275   6.983
 4439POPC   C4B57598  39.549  41.301   7.339
 4440POPC   NC357599  40.781  17.448   5.180
 4440POPC   PO457600  40.737  18.069   5.238
 4440POPC   GL157601  40.612  17.733   5.589
 4440POPC   GL257602  40.913  17.524   5.701
 4440POPC   C1A57603  40.555  17.656   6.051
 4440POPC   D2A57604  40.430  17.872   6.450
 4440POPC   C3A57605  40.704  17.767   6.804
 4440POPC   C4A57606  40.640  17.676   7.236
 4440POPC   C1B57607  40.955  17.342   6.149
 4440POPC   C2B57608  41.034  17.357   6.617
 4440POPC   C3B57609  41.072  17.484   7.046
 4440POPC   C4B57610  40.958  17.327   7.465
 4441POPC   NC357611  24.703  15.591   5.744
 4441POPC   PO457612  24.107  15.595   5.374
 4441POPC   GL157613  24.224  15.919   5.702
 4441POPC   GL257614  24.067  15.770   5.957
 4441POPC   C1A57615  24.357  16.160   6.127
 4441POPC   D2A57616  24.478  15.964   6.546
 4441POPC   C3A57617  24.487  16.148   6.981
 4441POPC   C4A57618  24.750  16.061   7.336
 4441POPC   C1B57619  23.975  15.930   6.388
 4441POPC   C2B57620  24.038  15.833   6.809
 4441POPC   C3B57621  24.443  15.622   6.934
 4441POPC   C4B57622  24.600  15.562   7.334
 4442POPC   NC357623  13.013  25.601   5.393
 4442POPC   PO457624  12.642  26.058   5.257
 4442POPC   GL157625  12.868  26.020   5.698
 4442POPC   GL257626  13.176  25.846   5.851
 4442POPC   C1A57627  12.953  26.239   6.117
 4442POPC   D2A57628  12.784  26.365   6.540
 4442POPC   C3A57629  12.944  26.232   6.938
 4442POPC   C4A57630  12.836  26.411   7.337
 4442POPC   C1B57631  12.799  25.759   6.143
 4442POPC   C2B57632  12.742  25.831   6.599
 4442POPC   C3B57633  12.726  25.782   7.059
 4442POPC   C4B57634  13.041  25.919   7.370
 4443POPC   NC357635  32.603   6.668   5.647
 4443POPC   PO457636  33.200   6.750   5.622
 4443POPC   GL157637  32.980   6.627   5.968
 4443POPC   GL257638  32.798   6.945   6.060
 4443POPC   C1A57639  32.741   6.504   6.309
 4443POPC   D2A57640  32.953   6.503   6.697
 4443POPC   C3A57641  32.740   6.496   7.094
 4443POPC   C4A57642  32.878   6.476   7.570
 4443POPC   C1B57643  33.256   6.947   6.238
 4443POPC   C2B57644  33.528   6.693   6.493
 4443POPC   C3B57645  33.408   6.607   6.922
 4443POPC   C4B57646  33.149   6.751   7.251
 4444POPC   NC357647   8.972  21.250   5.410
 4444POPC   PO457648   9.041  21.894   5.328
 4444POPC   GL157649   8.993  21.720   5.739
 4444POPC   GL257650   9.223  21.434   5.814
 4444POPC   C1A57651   8.848  21.664   6.153
 4444POPC   D2A57652   9.100  21.726   6.518
 4444POPC   C3A57653   8.914  21.649   6.876
 4444POPC   C4A57654   8.681  21.565   7.248
 4444POPC   C1B57655   9.186  21.290   6.258
 4444POPC   C2B57656   8.978  21.154   6.662
 4444POPC   C3B57657   9.012  21.189   7.104
 4444POPC   C4B57658   9.195  21.568   7.279
 4445POPC   NC357659  27.975  24.319   5.462
 4445POPC   PO457660  27.396  24.668   5.376
 4445POPC   GL157661  27.401  24.406   5.788
 4445POPC   GL257662  27.748  24.359   5.907
 4445POPC   C1A57663  27.432  24.487   6.274
 4445POPC   D2A57664  27.639  24.426   6.677
 4445POPC   C3A57665  27.616  24.624   7.059
 4445POPC   C4A57666  27.413  24.452   7.432
 4445POPC   C1B57667  27.966  24.418   6.280
 4445POPC   C2B57668  28.073  24.179   6.686
 4445POPC   C3B57669  28.084  24.263   7.114
 4445POPC   C4B57670  27.899  24.488   7.455
 4446POPC   NC357671  43.899  12.428   5.605
 4446POPC   PO457672  43.518  11.880   5.644
 4446POPC   GL157673  43.880  12.025   5.922
 4446POPC   GL257674  44.196  12.272   5.965
 4446POPC   C1A57675  43.803  12.259   6.291
 4446POPC   D2A57676  43.548  12.447   6.573
 4446POPC   C3A57677  43.661  12.322   6.972
 4446POPC   C4A57678  43.687  12.052   7.337
 4446POPC   C1B57679  44.229  12.520   6.310
 4446POPC   C2B57680  44.128  12.314   6.720
 4446POPC   C3B57681  44.132  12.017   7.049
 4446POPC   C4B57682  44.184  12.050   7.482
 4447POPC   NC357683  21.923  26.588   4.898
 4447POPC   PO457684  21.921  27.112   5.352
 4447POPC   GL157685  22.058  26.765   5.661
 4447POPC   GL257686  21.810  26.500   5.723
 4447POPC   C1A57687  22.276  26.794   6.086
 4447POPC   D2A57688  22.147  27.042   6.467
 4447POPC   C3A57689  22.284  26.956   6.898
 4447POPC   C4A57690  22.005  27.095   7.232
 4447POPC   C1B57691  21.848  26.509   6.167
 4447POPC   C2B57692  22.012  26.541   6.622
 4447POPC   C3B57693  21.945  26.605   7.090
 4447POPC   C4B57694  21.790  26.637   7.546
 4448POPC   NC357695  33.383  13.852   5.531
 4448POPC   PO457696  32.916  13.314   5.485
 4448POPC   GL157697  32.900  13.397   5.908
 4448POPC   GL257698  33.179  13.638   5.961
 4448POPC   C1A57699  33.027  13.265   6.314
 4448POPC   D2A57700  33.141  13.396   6.707
 4448POPC   C3A57701  32.929  13.697   6.886
 4448POPC   C4A57702  32.829  13.749   7.321
 4448POPC   C1B57703  33.101  13.828   6.364
 4448POPC   C2B57704  33.353  13.933   6.732
 4448POPC   C3B57705  33.335  13.785   7.177
 4448POPC   C4B57706  33.371  13.997   7.576
 4449POPC   NC357707  35.857   7.124   5.578
 4449POPC   PO457708  36.106   7.596   5.193
 4449POPC   GL157709  36.124   7.577   5.693
 4449POPC   GL257710  35.833   7.753   5.819
 4449POPC   C1A57711  36.028   7.397   6.165
 4449POPC   D2A57712  35.813   7.249   6.598
 4449POPC   C3A57713  36.070   7.263   6.976
 4449POPC   C4A57714  36.366   7.610   7.097
 4449POPC   C1B57715  36.006   7.904   6.214
 4449POPC   C2B57716  36.037   7.720   6.673
 4449POPC   C3B57717  35.857   7.693   7.115
 4449POPC   C4B57718  35.927   7.795   7.575
 4450POPC   NC357719  13.272  29.760   5.551
 4450POPC   PO457720  13.849  29.648   5.193
 4450POPC   GL157721  13.751  29.664   5.682
 4450POPC   GL257722  13.474  29.554   5.963
 4450POPC   C1A57723  13.784  29.960   6.067
 4450POPC   D2A57724  13.644  29.802   6.488
 4450POPC   C3A57725  13.763  30.028   6.853
 4450POPC   C4A57726  13.874  30.287   7.181
 4450POPC   C1B57727  13.264  29.957   6.163
 4450POPC   C2B57728  13.113  30.040   6.562
 4450POPC   C3B57729  13.260  29.905   6.927
 4450POPC   C4B57730  13.410  30.069   7.260
 4451POPC   NC357731  23.973  15.164   5.322
 4451POPC   PO457732  23.389  15.109   5.264
 4451POPC   GL157733  23.578  15.071   5.676
 4451POPC   GL257734  23.771  15.358   5.769
 4451POPC   C1A57735  23.686  14.948   6.104
 4451POPC   D2A57736  23.709  15.145   6.514
 4451POPC   C3A57737  23.685  14.953   6.926
 4451POPC   C4A57738  23.491  15.040   7.306
 4451POPC   C1B57739  23.678  15.553   6.179
 4451POPC   C2B57740  23.564  15.635   6.606
 4451POPC   C3B57741  23.591  15.498   7.057
 4451POPC   C4B57742  23.871  15.416   7.397
 4452POPC   NC357743  24.789   2.305   5.545
 4452POPC   PO457744  24.376   2.836   5.310
 4452POPC   GL157745  24.480   2.763   5.744
 4452POPC   GL257746  24.801   2.797   5.835
 4452POPC   C1A57747  24.350   2.736   6.198
 4452POPC   D2A57748  24.189   2.606   6.622
 4452POPC   C3A57749  24.334   2.793   7.032
 4452POPC   C4A57750  24.365   2.616   7.499
 4452POPC   C1B57751  24.884   2.637   6.239
 4452POPC   C2B57752  24.982   2.477   6.647
 4452POPC   C3B57753  24.794   2.599   7.031
 4452POPC   C4B57754  24.757   2.914   7.384
 4453POPC   NC357755  34.889   5.789   5.406
 4453POPC   PO457756  34.293   5.958   5.351
 4453POPC   GL157757  34.497   5.856   5.745
 4453POPC   GL257758  34.517   6.140   5.922
 4453POPC   C1A57759  34.528   5.534   6.081
 4453POPC   D2A57760  34.403   5.534   6.529
 4453POPC   C3A57761  34.747   5.646   6.865
 4453POPC   C4A57762  34.711   5.716   7.345
 4453POPC   C1B57763  34.571   5.985   6.308
 4453POPC   C2B57764  34.439   6.022   6.684
 4453POPC   C3B57765  34.579   6.109   7.059
 4453POPC   C4B57766  34.302   6.165   7.366
 4454POPC   NC357767  30.953  25.885   5.555
 4454POPC   PO457768  31.538  25.658   5.244
 4454POPC   GL157769  31.455  25.922   5.675
 4454POPC   GL257770  31.323  26.239   5.747
 4454POPC   C1A57771  31.611  26.059   6.118
 4454POPC   D2A57772  31.772  25.863   6.495
 4454POPC   C3A57773  31.574  26.019   6.878
 4454POPC   C4A57774  31.464  25.838   7.282
 4454POPC   C1B57775  31.086  26.087   6.166
 4454POPC   C2B57776  31.084  26.253   6.633
 4454POPC   C3B57777  31.144  26.219   7.109
 4454POPC   C4B57778  31.239  26.287   7.543
 4455POPC   NC357779  44.639  39.118   5.470
 4455POPC   PO457780   0.251  39.273   5.424
 4455POPC   GL157781  44.938  39.281   5.860
 4455POPC   GL257782  44.611  39.073   5.962
 4455POPC   C1A57783  44.706  39.456   6.257
 4455POPC   D2A57784  44.403  39.228   6.473
 4455POPC   C3A57785  44.495  39.214   6.890
 4455POPC   C4A57786  44.735  39.479   7.170
 4455POPC   C1B57787  44.803  38.910   6.304
 4455POPC   C2B57788   0.005  38.943   6.654
 4455POPC   C3B57789  44.939  38.994   7.059
 4455POPC   C4B57790  44.619  38.975   7.325
 4456POPC   NC357791  37.946   9.520   5.590
 4456POPC   PO457792  37.463   9.794   5.233
 4456POPC   GL157793  37.569   9.874   5.746
 4456POPC   GL257794  37.369   9.708   6.032
 4456POPC   C1A57795  37.728   9.992   6.228
 4456POPC   D2A57796  37.539   9.806   6.652
 4456POPC   C3A57797  37.586  10.015   7.073
 4456POPC   C4A57798  37.536   9.962   7.551
 4456POPC   C1B57799  37.739   9.475   6.257
 4456POPC   C2B57800  37.911   9.271   6.622
 4456POPC   C3B57801  37.915   9.484   7.020
 4456POPC   C4B57802  38.000   9.292   7.383
 4457POPC   NC357803   1.308  38.947   5.667
 4457POPC   PO457804   1.010  39.343   5.182
 4457POPC   GL157805   1.199  39.451   5.639
 4457POPC   GL257806   0.888  39.516   5.831
 4457POPC   C1A57807   1.289  39.481   6.130
 4457POPC   D2A57808   1.375  39.333   6.592
 4457POPC   C3A57809   1.260  39.422   7.031
 4457POPC   C4A57810   1.521  39.379   7.420
 4457POPC   C1B57811   0.837  39.258   6.264
 4457POPC   C2B57812   0.880  39.254   6.712
 4457POPC   C3B57813   0.828  39.133   7.145
 4457POPC   C4B57814   1.025  39.311   7.493
 4458POPC   NC357815   4.117  27.112   5.122
 4458POPC   PO457816   4.532  26.852   5.572
 4458POPC   GL157817   4.231  26.732   5.877
 4458POPC   GL257818   3.886  26.581   5.791
 4458POPC   C1A57819   4.238  26.871   6.261
 4458POPC   D2A57820   4.265  26.719   6.646
 4458POPC   C3A57821   4.478  27.006   6.903
 4458POPC   C4A57822   4.312  27.057   7.288
 4458POPC   C1B57823   3.745  26.866   6.138
 4458POPC   C2B57824   3.692  26.869   6.588
 4458POPC   C3B57825   3.907  26.823   6.995
 4458POPC   C4B57826   3.817  27.022   7.435
 4459POPC   NC357827   3.082  11.782   5.399
 4459POPC   PO457828   3.520  12.255   5.147
 4459POPC   GL157829   3.496  12.023   5.563
 4459POPC   GL257830   3.360  12.295   5.754
 4459POPC   C1A57831   3.502  11.851   6.019
 4459POPC   D2A57832   3.445  12.037   6.457
 4459POPC   C3A57833   3.522  11.854   6.873
 4459POPC   C4A57834   3.685  11.687   7.274
 4459POPC   C1B57835   3.777  12.272   5.996
 4459POPC   C2B57836   3.881  12.315   6.431
 4459POPC   C3B57837   3.637  12.345   6.821
 4459POPC   C4B57838   3.602  12.394   7.245
 4460POPC   NC357839  17.863   3.553   5.014
 4460POPC   PO457840  17.348   3.882   5.328
 4460POPC   GL157841  17.535   3.633   5.672
 4460POPC   GL257842  17.753   3.885   5.766
 4460POPC   C1A57843  17.632   3.429   6.103
 4460POPC   D2A57844  17.549   3.520   6.583
 4460POPC   C3A57845  17.438   3.214   6.940
 4460POPC   C4A57846  17.143   3.091   7.264
 4460POPC   C1B57847  17.713   3.915   6.195
 4460POPC   C2B57848  17.959   3.828   6.574
 4460POPC   C3B57849  17.865   3.835   6.983
 4460POPC   C4B57850  17.625   3.580   7.245
 4461POPC   NC357851   3.415  28.283   5.421
 4461POPC   PO457852   3.874  28.790   5.375
 4461POPC   GL157853   3.626  28.580   5.772
 4461POPC   GL257854   3.561  28.179   5.885
 4461POPC   C1A57855   3.377  28.779   6.122
 4461POPC   D2A57856   3.225  28.574   6.528
 4461POPC   C3A57857   3.494  28.528   6.883
 4461POPC   C4A57858   3.475  28.547   7.312
 4461POPC   C1B57859   3.654  28.382   6.252
 4461POPC   C2B57860   3.893  28.357   6.596
 4461POPC   C3B57861   3.886  28.045   6.881
 4461POPC   C4B57862   3.689  28.068   7.237
 4462POPC   NC357863   5.865  24.728   5.282
 4462POPC   PO457864   5.692  24.162   5.542
 4462POPC   GL157865   5.603  24.514   5.772
 4462POPC   GL257866   5.922  24.636   5.814
 4462POPC   C1A57867   5.533  24.442   6.192
 4462POPC   D2A57868   5.598  24.664   6.572
 4462POPC   C3A57869   5.912  24.450   6.815
 4462POPC   C4A57870   5.683  24.376   7.160
 4462POPC   C1B57871   6.030  24.603   6.254
 4462POPC   C2B57872   6.048  24.900   6.585
 4462POPC   C3B57873   5.856  24.933   6.990
 4462POPC   C4B57874   6.058  24.661   7.306
 4463POPC   NC357875  39.240  20.618   5.373
 4463POPC   PO457876  38.822  21.054   5.710
 4463POPC   GL157877  39.195  20.812   5.883
 4463POPC   GL257878  39.279  20.413   5.835
 4463POPC   C1A57879  39.305  20.680   6.304
 4463POPC   D2A57880  39.306  20.325   6.596
 4463POPC   C3A57881  39.374  20.490   7.007
 4463POPC   C4A57882  39.070  20.698   7.254
 4463POPC   C1B57883  38.923  20.394   6.107
 4463POPC   C2B57884  38.845  20.569   6.525
 4463POPC   C3B57885  38.885  20.360   6.907
 4463POPC   C4B57886  39.017  20.193   7.304
 4464POPC   NC357887  20.516  39.511   5.156
 4464POPC   PO457888  20.561  40.113   5.470
 4464POPC   GL157889  20.630  39.923   5.865
 4464POPC   GL257890  20.996  39.983   5.950
 4464POPC   C1A57891  20.661  40.061   6.303
 4464POPC   D2A57892  20.994  40.106   6.617
 4464POPC   C3A57893  20.794  40.174   7.025
 4464POPC   C4A57894  20.783  40.124   7.497
 4464POPC   C1B57895  20.987  39.667   6.312
 4464POPC   C2B57896  20.902  39.633   6.765
 4464POPC   C3B57897  20.871  39.696   7.208
 4464POPC   C4B57898  20.975  39.596   7.630
 4465POPC   NC357899  11.132  43.327   5.348
 4465POPC   PO457900  11.578  42.790   5.345
 4465POPC   GL157901  11.423  42.904   5.761
 4465POPC   GL257902  11.112  43.032   5.782
 4465POPC   C1A57903  11.541  43.179   6.115
 4465POPC   D2A57904  11.446  43.290   6.539
 4465POPC   C3A57905  11.535  43.097   6.926
 4465POPC   C4A57906  11.377  42.897   7.284
 4465POPC   C1B57907  10.949  42.939   6.189
 4465POPC   C2B57908  10.856  43.148   6.594
 4465POPC   C3B57909  10.969  43.104   7.041
 4465POPC   C4B57910  10.935  43.093   7.502
 4466POPC   NC357911  39.367  16.759   5.452
 4466POPC   PO457912  38.735  17.014   5.486
 4466POPC   GL157913  38.957  16.902   5.835
 4466POPC   GL257914  38.999  16.561   5.806
 4466POPC   C1A57915  39.091  16.802   6.259
 4466POPC   D2A57916  39.140  16.984   6.645
 4466POPC   C3A57917  39.353  16.780   6.968
 4466POPC   C4A57918  39.046  16.800   7.304
 4466POPC   C1B57919  39.375  16.443   6.068
 4466POPC   C2B57920  39.374  16.426   6.523
 4466POPC   C3B57921  39.140  16.288   6.884
 4466POPC   C4B57922  39.295  16.344   7.261
 4467POPC   NC357923   9.533   6.138   5.340
 4467POPC   PO457924  10.081   6.399   5.598
 4467POPC   GL157925   9.745   6.186   5.834
 4467POPC   GL257926   9.631   5.837   5.782
 4467POPC   C1A57927   9.784   6.076   6.256
 4467POPC   D2A57928   9.633   5.849   6.585
 4467POPC   C3A57929   9.768   6.026   6.944
 4467POPC   C4A57930  10.046   6.189   7.231
 4467POPC   C1B57931   9.629   5.540   6.151
 4467POPC   C2B57932   9.790   5.363   6.552
 4467POPC   C3B57933   9.686   5.507   6.977
 4467POPC   C4B57934  10.010   5.675   7.211
 4468POPC   NC357935  35.113  33.459   5.387
 4468POPC   PO457936  35.517  33.946   5.194
 4468POPC   GL157937  35.447  33.792   5.656
 4468POPC   GL257938  35.778  33.732   5.749
 4468POPC   C1A57939  35.287  33.827   6.115
 4468POPC   D2A57940  35.326  34.073   6.506
 4468POPC   C3A57941  35.401  33.885   6.912
 4468POPC   C4A57942  35.225  33.868   7.302
 4468POPC   C1B57943  35.690  33.509   6.114
 4468POPC   C2B57944  35.618  33.637   6.522
 4468POPC   C3B57945  35.785  33.520   6.904
 4468POPC   C4B57946  35.693  33.689   7.288
 4469POPC   NC357947  27.882   4.584   5.433
 4469POPC   PO457948  27.295   4.161   5.407
 4469POPC   GL157949  27.628   4.148   5.745
 4469POPC   GL257950  27.664   4.484   5.895
 4469POPC   C1A57951  27.806   4.095   6.176
 4469POPC   D2A57952  27.713   4.343   6.549
 4469POPC   C3A57953  27.719   4.197   6.989
 4469POPC   C4A57954  27.474   4.297   7.347
 4469POPC   C1B57955  28.010   4.589   6.177
 4469POPC   C2B57956  28.114   4.707   6.570
 4469POPC   C3B57957  27.787   4.737   6.874
 4469POPC   C4B57958  27.836   4.699   7.299
 4470POPC   NC357959  41.487  34.780   5.261
 4470POPC   PO457960  41.551  34.135   5.527
 4470POPC   GL157961  41.520  34.344   5.894
 4470POPC   GL257962  41.416  34.646   5.754
 4470POPC   C1A57963  41.698  34.618   6.192
 4470POPC   D2A57964  41.809  34.684   6.591
 4470POPC   C3A57965  41.517  34.514   6.861
 4470POPC   C4A57966  41.736  34.572   7.252
 4470POPC   C1B57967  41.217  34.723   6.161
 4470POPC   C2B57968  41.321  34.892   6.552
 4470POPC   C3B57969  41.269  34.951   6.973
 4470POPC   C4B57970  41.223  34.612   7.263
 4471POPC   NC357971  11.044  24.331   5.425
 4471POPC   PO457972  11.624  24.040   5.496
 4471POPC   GL157973  11.396  24.325   5.805
 4471POPC   GL257974  11.053  24.248   5.922
 4471POPC   C1A57975  11.387  24.439   6.253
 4471POPC   D2A57976  11.335  24.568   6.680
 4471POPC   C3A57977  11.553  24.438   7.078
 4471POPC   C4A57978  11.423  24.715   7.429
 4471POPC   C1B57979  10.977  23.994   6.288
 4471POPC   C2B57980  10.931  24.230   6.665
 4471POPC   C3B57981  11.031  24.415   7.077
 4471POPC   C4B57982  11.199  24.235   7.432
 4472POPC   NC357983  33.892  26.135   5.404
 4472POPC   PO457984  33.309  26.194   5.624
 4472POPC   GL157985  33.576  25.870   5.831
 4472POPC   GL257986  33.969  25.937   5.875
 4472POPC   C1A57987  33.453  25.814   6.266
 4472POPC   D2A57988  33.483  26.194   6.528
 4472POPC   C3A57989  33.817  26.163   6.813
 4472POPC   C4A57990  33.590  25.998   7.132
 4472POPC   C1B57991  34.288  26.186   6.132
 4472POPC   C2B57992  34.301  26.278   6.584
 4472POPC   C3B57993  34.304  25.990   6.935
 4472POPC   C4B57994  34.048  25.895   7.307
 4473POPC   NC357995  42.681  30.611   5.374
 4473POPC   PO457996  42.033  30.611   5.328
 4473POPC   GL157997  42.304  30.567   5.739
 4473POPC   GL257998  42.563  30.280   5.762
 4473POPC   C1A57999  42.389  30.577   6.200
 4473POPC   D2A58000  42.155  30.498   6.591
 4473POPC   C3A58001  42.357  30.559   6.980
 4473POPC   C4A58002  42.612  30.797   7.202
 4473POPC   C1B58003  42.792  30.231   6.175
 4473POPC   C2B58004  42.751  30.421   6.617
 4473POPC   C3B58005  42.827  30.339   7.059
 4473POPC   C4B58006  42.729  30.391   7.514
 4474POPC   NC358007  26.330   0.364   5.374
 4474POPC   PO458008  25.689   0.552   5.124
 4474POPC   GL158009  25.883   0.519   5.596
 4474POPC   GL258010  25.978   0.190   5.726
 4474POPC   C1A58011  26.175   0.674   5.952
 4474POPC   D2A58012  26.107   0.788   6.377
 4474POPC   C3A58013  26.237   0.568   6.749
 4474POPC   C4A58014  26.056   0.714   7.155
 4474POPC   C1B58015  25.841   0.340   6.111
 4474POPC   C2B58016  25.769   0.410   6.526
 4474POPC   C3B58017  25.826   0.312   6.918
 4474POPC   C4B58018  26.221   0.163   7.079
 4475POPC   NC358019   6.752   5.185   5.400
 4475POPC   PO458020   6.183   4.838   5.341
 4475POPC   GL158021   6.423   4.842   5.738
 4475POPC   GL258022   6.796   4.777   5.761
 4475POPC   C1A58023   6.445   5.011   6.165
 4475POPC   D2A58024   6.670   4.973   6.545
 4475POPC   C3A58025   6.534   5.185   6.893
 4475POPC   C4A58026   6.352   5.065   7.261
 4475POPC   C1B58027   6.968   5.095   6.107
 4475POPC   C2B58028   7.122   5.201   6.545
 4475POPC   C3B58029   7.024   5.009   6.953
 4475POPC   C4B58030   6.846   4.999   7.375
 4476POPC   NC358031  39.102  27.132   5.393
 4476POPC   PO458032  39.542  26.678   5.487
 4476POPC   GL158033  39.399  26.885   5.867
 4476POPC   GL258034  39.689  27.094   5.888
 4476POPC   C1A58035  39.170  26.756   6.279
 4476POPC   D2A58036  38.810  26.528   6.540
 4476POPC   C3A58037  38.841  26.618   6.993
 4476POPC   C4A58038  39.010  27.018   7.132
 4476POPC   C1B58039  39.649  26.975   6.325
 4476POPC   C2B58040  39.390  27.079   6.691
 4476POPC   C3B58041  39.512  27.021   7.117
 4476POPC   C4B58042  39.435  26.630   7.347
 4477POPC   NC358043  39.783  29.247   5.304
 4477POPC   PO458044  40.178  28.865   5.571
 4477POPC   GL158045  40.061  29.075   5.914
 4477POPC   GL258046  39.723  29.124   5.804
 4477POPC   C1A58047  40.120  29.017   6.355
 4477POPC   D2A58048  40.302  28.933   6.737
 4477POPC   C3A58049  40.006  29.009   7.039
 4477POPC   C4A58050  39.617  28.775   6.989
 4477POPC   C1B58051  39.742  29.333   6.217
 4477POPC   C2B58052  39.740  29.174   6.635
 4477POPC   C3B58053  39.565  29.279   6.998
 4477POPC   C4B58054  39.469  29.499   7.308
 4478POPC   NC358055  24.952  18.130   5.217
 4478POPC   PO458056  24.391  18.392   5.451
 4478POPC   GL158057  24.552  18.320   5.861
 4478POPC   GL258058  24.591  18.006   5.863
 4478POPC   C1A58059  24.762  18.305   6.305
 4478POPC   D2A58060  24.793  18.603   6.676
 4478POPC   C3A58061  24.593  18.473   7.058
 4478POPC   C4A58062  24.594  18.580   7.486
 4478POPC   C1B58063  24.301  18.084   6.226
 4478POPC   C2B58064  24.355  18.293   6.631
 4478POPC   C3B58065  24.300  18.055   7.023
 4478POPC   C4B58066  24.710  17.921   7.145
 4479POPC   NC358067  25.081  29.026   5.283
 4479POPC   PO458068  25.573  29.457   5.452
 4479POPC   GL158069  25.272  29.296   5.784
 4479POPC   GL258070  25.076  28.985   5.782
 4479POPC   C1A58071  25.267  29.231   6.249
 4479POPC   D2A58072  25.516  29.002   6.543
 4479POPC   C3A58073  25.411  29.158   6.930
 4479POPC   C4A58074  25.283  29.206   7.339
 4479POPC   C1B58075  24.881  28.928   6.203
 4479POPC   C2B58076  25.000  28.946   6.646
 4479POPC   C3B58077  24.927  28.895   7.110
 4479POPC   C4B58078  24.868  28.979   7.548
 4480POPC   NC358079  24.539   1.472   5.403
 4480POPC   PO458080  24.821   0.806   5.475
 4480POPC   GL158081  24.827   1.027   5.849
 4480POPC   GL258082  24.788   1.367   5.833
 4480POPC   C1A58083  24.676   1.125   6.267
 4480POPC   D2A58084  24.419   0.984   6.578
 4480POPC   C3A58085  24.606   1.135   6.956
 4480POPC   C4A58086  24.314   1.071   7.251
 4480POPC   C1B58087  24.482   1.584   6.099
 4480POPC   C2B58088  24.444   1.526   6.541
 4480POPC   C3B58089  24.149   1.371   6.849
 4480POPC   C4B58090  24.079   1.536   7.255
 4481POPC   NC358091  38.433  36.120   5.184
 4481POPC   PO458092  38.977  35.760   5.408
 4481POPC   GL158093  38.761  36.108   5.699
 4481POPC   GL258094  38.436  36.327   5.657
 4481POPC   C1A58095  38.828  36.338   6.115
 4481POPC   D2A58096  38.741  36.499   6.563
 4481POPC   C3A58097  38.642  36.219   6.906
 4481POPC   C4A58098  38.735  36.314   7.327
 4481POPC   C1B58099  38.310  36.200   6.073
 4481POPC   C2B58100  38.265  36.330   6.504
 4481POPC   C3B58101  38.024  36.397   6.869
 4481POPC   C4B58102  38.162  36.304   7.273
 4482POPC   NC358103   4.615  42.472   5.447
 4482POPC   PO458104   3.982  42.303   5.532
 4482POPC   GL158105   4.263  42.521   5.809
 4482POPC   GL258106   4.017  42.472   6.022
 4482POPC   C1A58107   4.595  42.430   6.144
 4482POPC   D2A58108   4.719  42.315   6.590
 4482POPC   C3A58109   4.625  42.533   7.014
 4482POPC   C4A58110   4.327  42.705   7.345
 4482POPC   C1B58111   4.161  42.581   6.383
 4482POPC   C2B58112   4.230  42.332   6.716
 4482POPC   C3B58113   4.075  42.365   7.080
 4482POPC   C4B58114   3.710  42.362   7.184
 4483POPC   NC358115  35.679  44.803   5.565
 4483POPC   PO458116  36.070  44.356   5.383
 4483POPC   GL158117  36.152  44.651   5.732
 4483POPC   GL258118  36.432  44.544   5.869
 4483POPC   C1A58119  36.071  44.786   6.178
 4483POPC   D2A58120  35.918  44.607   6.584
 4483POPC   C3A58121  35.944  44.821   6.992
 4483POPC   C4A58122  36.243  44.867   7.317
 4483POPC   C1B58123  36.448  44.266   6.213
 4483POPC   C2B58124  36.293  44.200   6.619
 4483POPC   C3B58125  36.295  44.452   6.961
 4483POPC   C4B58126  36.596  44.502   7.272
 4484POPC   NC358127   8.056  32.475   5.323
 4484POPC   PO458128   8.457  32.052   5.572
 4484POPC   GL158129   8.250  32.293   5.865
 4484POPC   GL258130   8.042  32.579   5.837
 4484POPC   C1A58131   8.118  32.189   6.272
 4484POPC   D2A58132   8.120  31.953   6.659
 4484POPC   C3A58133   8.276  32.141   7.011
 4484POPC   C4A58134   8.457  32.040   7.402
 4484POPC   C1B58135   7.764  32.544   6.187
 4484POPC   C2B58136   7.757  32.350   6.609
 4484POPC   C3B58137   7.895  32.473   7.008
 4484POPC   C4B58138   8.029  32.339   7.402
 4485POPC   NC358139  22.372   3.143   5.408
 4485POPC   PO458140  22.008   3.749   5.473
 4485POPC   GL158141  22.273   3.526   5.771
 4485POPC   GL258142  22.016   3.270   5.757
 4485POPC   C1A58143  22.298   3.575   6.226
 4485POPC   D2A58144  22.105   3.874   6.525
 4485POPC   C3A58145  22.210   3.760   6.946
 4485POPC   C4A58146  22.285   3.414   7.159
 4485POPC   C1B58147  21.807   3.525   6.108
 4485POPC   C2B58148  21.892   3.389   6.564
 4485POPC   C3B58149  21.766   3.247   6.994
 4485POPC   C4B58150  21.804   3.531   7.359
 4486POPC   NC358151  21.467  31.649   5.472
 4486POPC   PO458152  20.893  31.213   5.248
 4486POPC   GL158153  21.125  31.325   5.710
 4486POPC   GL258154  21.477  31.205   5.829
 4486POPC   C1A58155  21.271  31.618   6.108
 4486POPC   D2A58156  21.594  31.589   6.482
 4486POPC   C3A58157  21.425  31.659   6.903
 4486POPC   C4A58158  20.986  31.730   7.042
 4486POPC   C1B58159  21.251  31.123   6.239
 4486POPC   C2B58160  21.115  31.347   6.630
 4486POPC   C3B58161  21.118  31.253   7.097
 4486POPC   C4B58162  21.061  31.462   7.514
 4487POPC   NC358163  23.252   3.725   5.343
 4487POPC   PO458164  22.670   3.504   5.426
 4487POPC   GL158165  22.858   3.713   5.767
 4487POPC   GL258166  23.145   3.519   5.809
 4487POPC   C1A58167  22.812   3.738   6.213
 4487POPC   D2A58168  22.603   3.733   6.612
 4487POPC   C3A58169  22.747   3.569   6.997
 4487POPC   C4A58170  22.663   3.541   7.486
 4487POPC   C1B58171  23.138   3.333   6.219
 4487POPC   C2B58172  23.382   3.128   6.513
 4487POPC   C3B58173  23.303   3.210   6.934
 4487POPC   C4B58174  23.054   3.291   7.282
 4488POPC   NC358175  26.689  30.310   5.496
 4488POPC   PO458176  26.395  30.812   5.232
 4488POPC   GL158177  26.711  30.863   5.617
 4488POPC   GL258178  26.984  30.608   5.751
 4488POPC   C1A58179  26.812  30.963   6.058
 4488POPC   D2A58180  26.745  30.899   6.502
 4488POPC   C3A58181  26.992  31.048   6.865
 4488POPC   C4A58182  26.851  31.001   7.291
 4488POPC   C1B58183  27.056  30.520   6.205
 4488POPC   C2B58184  27.145  30.581   6.667
 4488POPC   C3B58185  26.862  30.525   7.033
 4488POPC   C4B58186  26.827  30.528   7.497
 4489POPC   NC358187  25.304  15.936   5.350
 4489POPC   PO458188  24.680  15.954   5.469
 4489POPC   GL158189  25.057  15.915   5.826
 4489POPC   GL258190  25.402  15.786   5.834
 4489POPC   C1A58191  25.108  15.638   6.262
 4489POPC   D2A58192  24.973  15.562   6.732
 4489POPC   C3A58193  25.166  15.830   7.076
 4489POPC   C4A58194  25.157  15.873   7.556
 4489POPC   C1B58195  25.337  16.088   6.201
 4489POPC   C2B58196  25.001  16.088   6.531
 4489POPC   C3B58197  24.985  16.284   6.933
 4489POPC   C4B58198  25.273  16.324   7.283
 4490POPC   NC358199  17.459  44.303   5.666
 4490POPC   PO458200  17.648  44.948   5.495
 4490POPC   GL158201  17.707  44.855   5.900
 4490POPC   GL258202  17.385  44.739   5.943
 4490POPC   C1A58203  17.698  44.972   6.320
 4490POPC   D2A58204  17.844   0.120   6.699
 4490POPC   C3A58205  17.583   0.029   7.039
 4490POPC   C4A58206  17.821  44.765   7.192
 4490POPC   C1B58207  17.512  44.489   6.310
 4490POPC   C2B58208  17.597  44.617   6.730
 4490POPC   C3B58209  17.490  44.392   7.101
 4490POPC   C4B58210  17.190  44.346   7.441
 4491POPC   NC358211  30.668  31.221   5.341
 4491POPC   PO458212  30.595  31.894   5.412
 4491POPC   GL158213  30.937  31.664   5.662
 4491POPC   GL258214  30.847  31.323   5.814
 4491POPC   C1A58215  31.063  31.673   6.119
 4491POPC   D2A58216  30.878  31.440   6.473
 4491POPC   C3A58217  30.845  31.619   6.858
 4491POPC   C4A58218  30.839  31.538   7.325
 4491POPC   C1B58219  30.539  31.529   6.103
 4491POPC   C2B58220  30.356  31.398   6.535
 4491POPC   C3B58221  30.424  31.412   7.006
 4491POPC   C4B58222  30.672  31.075   7.218
 4492POPC   NC358223  14.878  41.699   5.482
 4492POPC   PO458224  15.454  41.745   5.362
 4492POPC   GL158225  15.324  41.816   5.812
 4492POPC   GL258226  14.979  41.803   5.979
 4492POPC   C1A58227  15.388  41.555   6.208
 4492POPC   D2A58228  15.270  41.202   6.525
 4492POPC   C3A58229  15.388  41.359   6.935
 4492POPC   C4A58230  15.192  41.738   7.110
 4492POPC   C1B58231  14.868  41.427   6.203
 4492POPC   C2B58232  14.675  41.413   6.601
 4492POPC   C3B58233  14.698  41.561   6.993
 4492POPC   C4B58234  14.944  41.298   7.236
 4493POPC   NC358235  42.399  19.662   5.320
 4493POPC   PO458236  42.093  20.199   5.372
 4493POPC   GL158237  42.171  19.932   5.764
 4493POPC   GL258238  42.452  19.672   5.810
 4493POPC   C1A58239  42.321  19.960   6.217
 4493POPC   D2A58240  42.105  19.884   6.624
 4493POPC   C3A58241  42.230  20.174   6.962
 4493POPC   C4A58242  42.350  20.143   7.399
 4493POPC   C1B58243  42.639  19.515   6.191
 4493POPC   C2B58244  42.616  19.689   6.608
 4493POPC   C3B58245  42.718  19.556   7.026
 4493POPC   C4B58246  42.622  19.725   7.451
 4494POPC   NC358247   7.702  21.599   4.924
 4494POPC   PO458248   7.329  21.486   5.434
 4494POPC   GL158249   7.452  21.362   5.829
 4494POPC   GL258250   7.415  21.700   5.888
 4494POPC   C1A58251   7.351  21.403   6.287
 4494POPC   D2A58252   7.519  21.313   6.694
 4494POPC   C3A58253   7.388  21.062   7.032
 4494POPC   C4A58254   7.410  21.232   7.435
 4494POPC   C1B58255   7.749  21.721   6.176
 4494POPC   C2B58256   7.683  21.793   6.626
 4494POPC   C3B58257   7.624  21.631   7.083
 4494POPC   C4B58258   7.409  21.742   7.475
 4495POPC   NC358259  37.871  39.733   5.463
 4495POPC   PO458260  37.408  40.326   5.165
 4495POPC   GL158261  37.492  40.098   5.596
 4495POPC   GL258262  37.829  40.200   5.678
 4495POPC   C1A58263  37.512  39.934   6.053
 4495POPC   D2A58264  37.771  39.857   6.469
 4495POPC   C3A58265  37.601  39.977   6.875
 4495POPC   C4A58266  37.432  39.712   7.186
 4495POPC   C1B58267  37.940  40.203   6.129
 4495POPC   C2B58268  38.121  40.256   6.530
 4495POPC   C3B58269  38.078  40.189   6.951
 4495POPC   C4B58270  37.946  39.936   7.275
 4496POPC   NC358271   2.053  36.675   5.027
 4496POPC   PO458272   2.164  36.089   5.456
 4496POPC   GL158273   1.910  36.164   5.798
 4496POPC   GL258274   1.577  36.023   5.808
 4496POPC   C1A58275   1.995  36.241   6.204
 4496POPC   D2A58276   2.011  36.464   6.561
 4496POPC   C3A58277   2.179  36.302   6.938
 4496POPC   C4A58278   1.821  36.251   7.183
 4496POPC   C1B58279   1.768  35.781   6.170
 4496POPC   C2B58280   2.039  35.843   6.574
 4496POPC   C3B58281   2.036  35.796   7.038
 4496POPC   C4B58282   1.644  35.772   7.341
 4497POPC   NC358283  37.044  35.549   5.402
 4497POPC   PO458284  36.589  35.128   5.383
 4497POPC   GL158285  36.713  35.321   5.807
 4497POPC   GL258286  37.077  35.386   5.884
 4497POPC   C1A58287  36.706  35.265   6.290
 4497POPC   D2A58288  36.851  34.958   6.621
 4497POPC   C3A58289  36.883  35.154   7.016
 4497POPC   C4A58290  36.699  35.462   7.265
 4497POPC   C1B58291  37.048  35.665   6.220
 4497POPC   C2B58292  36.926  35.621   6.658
 4497POPC   C3B58293  37.072  35.777   7.055
 4497POPC   C4B58294  37.195  35.448   7.302
 4498POPC   NC358295   5.309   4.091   5.120
 4498POPC   PO458296   5.711   4.425   5.586
 4498POPC   GL158297   5.813   4.260   5.919
 4498POPC   GL258298   6.058   4.014   5.828
 4498POPC   C1A58299   5.741   4.329   6.342
 4498POPC   D2A58300   5.791   4.061   6.652
 4498POPC   C3A58301   5.722   4.257   7.044
 4498POPC   C4A58302   5.398   4.065   7.258
 4498POPC   C1B58303   6.189   4.123   6.232
 4498POPC   C2B58304   6.236   4.273   6.596
 4498POPC   C3B58305   6.203   4.116   6.976
 4498POPC   C4B58306   6.157   4.264   7.368
 4499POPC   NC358307  34.493  29.365   5.433
 4499POPC   PO458308  34.570  28.736   5.655
 4499POPC   GL158309  34.645  29.140   5.881
 4499POPC   GL258310  34.901  29.406   5.797
 4499POPC   C1A58311  34.424  29.226   6.279
 4499POPC   D2A58312  34.246  29.057   6.671
 4499POPC   C3A58313  34.441  29.134   7.071
 4499POPC   C4A58314  34.542  28.941   7.473
 4499POPC   C1B58315  34.848  29.515   6.212
 4499POPC   C2B58316  34.785  29.385   6.605
 4499POPC   C3B58317  34.933  29.363   6.985
 4499POPC   C4B58318  34.767  29.410   7.354
 4500POPC   NC358319  15.620  16.306   5.463
 4500POPC   PO458320  16.165  15.867   5.525
 4500POPC   GL158321  16.043  16.203   5.793
 4500POPC   GL258322  16.391  16.257   5.903
 4500POPC   C1A58323  15.740  16.164   6.141
 4500POPC   D2A58324  15.808  15.788   6.412
 4500POPC   C3A58325  15.669  15.770   6.833
 4500POPC   C4A58326  15.681  16.063   7.144
 4500POPC   C1B58327  16.214  16.140   6.319
 4500POPC   C2B58328  16.053  16.124   6.756
 4500POPC   C3B58329  16.140  15.854   7.118
 4500POPC   C4B58330  16.242  15.878   7.530
 4501POPC   NC358331  24.910  22.776   5.327
 4501POPC   PO458332  25.410  22.927   5.752
 4501POPC   GL158333  25.348  23.052   6.112
 4501POPC   GL258334  25.360  22.697   6.205
 4501POPC   C1A58335  25.433  23.102   6.509
 4501POPC   D2A58336  25.483  22.735   6.710
 4501POPC   C3A58337  25.234  22.826   7.022
 4501POPC   C4A58338  25.013  23.200   7.104
 4501POPC   C1B58339  25.678  22.395   6.334
 4501POPC   C2B58340  25.803  22.327   6.757
 4501POPC   C3B58341  25.534  22.419   7.126
 4501POPC   C4B58342  25.589  22.681   7.490
 4502POPC   NC358343  18.973   1.127   5.449
 4502POPC   PO458344  18.628   1.719   5.717
 4502POPC   GL158345  18.822   1.483   6.036
 4502POPC   GL258346  18.921   1.127   5.959
 4502POPC   C1A58347  18.731   1.274   6.437
 4502POPC   D2A58348  18.893   0.925   6.690
 4502POPC   C3A58349  18.752   0.964   7.135
 4502POPC   C4A58350  18.716   0.961   7.582
 4502POPC   C1B58351  19.228   1.240   6.291
 4502POPC   C2B58352  19.465   1.461   6.629
 4502POPC   C3B58353  19.335   1.447   7.046
 4502POPC   C4B58354  19.414   1.350   7.460
 4503POPC   NC358355  30.179  44.816   5.572
 4503POPC   PO458356  30.813  44.665   5.431
 4503POPC   GL158357  30.622  44.615   5.824
 4503POPC   GL258358  30.346  44.362   5.860
 4503POPC   C1A58359  30.751  44.832   6.221
 4503POPC   D2A58360  31.085  44.663   6.512
 4503POPC   C3A58361  31.006  44.542   6.940
 4503POPC   C4A58362  30.736  44.861   7.122
 4503POPC   C1B58363  30.605  44.348   6.245
 4503POPC   C2B58364  30.559  44.562   6.665
 4503POPC   C3B58365  30.526  44.383   7.096
 4503POPC   C4B58366  30.390  44.360   7.539
 4504POPC   NC358367  21.632  38.308   5.146
 4504POPC   PO458368  21.509  37.683   5.369
 4504POPC   GL158369  21.303  37.544   5.733
 4504POPC   GL258370  21.015  37.298   5.722
 4504POPC   C1A58371  21.388  37.393   6.159
 4504POPC   D2A58372  21.263  37.574   6.566
 4504POPC   C3A58373  21.536  37.505   6.887
 4504POPC   C4A58374  21.820  37.697   7.169
 4504POPC   C1B58375  20.888  37.176   6.154
 4504POPC   C2B58376  20.778  37.318   6.587
 4504POPC   C3B58377  20.959  37.372   7.008
 4504POPC   C4B58378  21.304  37.219   7.227
 4505POPC   NC358379  27.885  43.699   5.430
 4505POPC   PO458380  28.401  44.086   5.241
 4505POPC   GL158381  28.330  43.899   5.689
 4505POPC   GL258382  28.419  43.531   5.777
 4505POPC   C1A58383  28.318  43.876   6.164
 4505POPC   D2A58384  28.673  43.866   6.499
 4505POPC   C3A58385  28.640  43.798   6.956
 4505POPC   C4A58386  28.578  43.717   7.425
 4505POPC   C1B58387  28.544  43.424   6.252
 4505POPC   C2B58388  28.352  43.465   6.689
 4505POPC   C3B58389  28.166  43.591   7.121
 4505POPC   C4B58390  28.156  43.453   7.587
 4506POPC   NC358391  43.760  11.133   5.287
 4506POPC   PO458392  43.807  10.449   5.279
 4506POPC   GL158393  43.986  10.474   5.675
 4506POPC   GL258394  43.787  10.776   5.718
 4506POPC   C1A58395  44.065  10.566   6.119
 4506POPC   D2A58396  43.866  10.602   6.561
 4506POPC   C3A58397  43.921  10.283   6.920
 4506POPC   C4A58398  43.919  10.208   7.403
 4506POPC   C1B58399  43.570  10.688   6.120
 4506POPC   C2B58400  43.333  10.662   6.510
 4506POPC   C3B58401  43.506  10.753   6.919
 4506POPC   C4B58402  43.829  10.692   7.204
 4507POPC   NC358403  29.665  22.817   5.029
 4507POPC   PO458404  30.258  22.832   5.308
 4507POPC   GL158405  29.925  22.786   5.620
 4507POPC   GL258406  30.175  22.798   5.849
 4507POPC   C1A58407  29.732  22.873   6.065
 4507POPC   D2A58408  29.770  23.111   6.457
 4507POPC   C3A58409  29.899  22.849   6.787
 4507POPC   C4A58410  29.806  22.922   7.190
 4507POPC   C1B58411  30.183  23.112   6.145
 4507POPC   C2B58412  30.261  23.167   6.582
 4507POPC   C3B58413  30.154  23.245   7.006
 4507POPC   C4B58414  30.464  23.236   7.335
 4508POPC   NC358415  11.547  23.388   5.128
 4508POPC   PO458416  12.058  23.793   5.397
 4508POPC   GL158417  12.099  23.758   5.863
 4508POPC   GL258418  12.168  23.415   5.873
 4508POPC   C1A58419  11.915  23.893   6.314
 4508POPC   D2A58420  11.919  24.160   6.747
 4508POPC   C3A58421  12.024  24.082   7.206
 4508POPC   C4A58422  12.309  23.830   7.538
 4508POPC   C1B58423  12.296  23.543   6.275
 4508POPC   C2B58424  12.190  23.662   6.663
 4508POPC   C3B58425  12.317  23.705   7.040
 4508POPC   C4B58426  11.954  23.581   7.295
 4509POPC   NC358427  41.658  16.931   5.333
 4509POPC   PO458428  41.336  16.432   5.625
 4509POPC   GL158429  41.608  16.585   5.872
 4509POPC   GL258430  41.814  16.297   5.844
 4509POPC   C1A58431  41.408  16.645   6.273
 4509POPC   D2A58432  41.593  16.764   6.623
 4509POPC   C3A58433  41.413  16.622   6.977
 4509POPC   C4A58434  41.586  16.845   7.311
 4509POPC   C1B58435  41.582  16.169   6.228
 4509POPC   C2B58436  41.599  16.236   6.669
 4509POPC   C3B58437  41.902  16.488   6.941
 4509POPC   C4B58438  41.791  16.378   7.334
 4510POPC   NC358439  12.753  43.141   5.485
 4510POPC   PO458440  13.022  42.495   5.452
 4510POPC   GL158441  12.967  42.777   5.826
 4510POPC   GL258442  12.639  42.938   5.958
 4510POPC   C1A58443  13.065  42.987   6.233
 4510POPC   D2A58444  12.886  42.940   6.627
 4510POPC   C3A58445  13.058  42.949   7.023
 4510POPC   C4A58446  12.923  43.013   7.442
 4510POPC   C1B58447  12.482  43.118   6.362
 4510POPC   C2B58448  12.430  43.090   6.812
 4510POPC   C3B58449  12.700  43.339   7.076
 4510POPC   C4B58450  12.657  43.433   7.503
 4511POPC   NC358451  40.680  12.941   5.468
 4511POPC   PO458452  40.455  12.421   5.462
 4511POPC   GL158453  40.351  12.746   5.800
 4511POPC   GL258454  40.649  12.801   5.968
 4511POPC   C1A58455  40.328  13.061   6.225
 4511POPC   D2A58456  40.648  13.066   6.616
 4511POPC   C3A58457  40.794  12.880   7.001
 4511POPC   C4A58458  40.576  12.734   7.381
 4511POPC   C1B58459  40.767  12.612   6.384
 4511POPC   C2B58460  41.186  12.447   6.527
 4511POPC   C3B58461  41.358  12.480   6.948
 4511POPC   C4B58462  41.118  12.615   7.321
 4512POPC   NC358463  43.598  24.837   5.677
 4512POPC   PO458464  43.734  24.178   5.600
 4512POPC   GL158465  43.853  24.458   5.929
 4512POPC   GL258466  44.100  24.655   5.725
 4512POPC   C1A58467  43.728  24.455   6.384
 4512POPC   D2A58468  43.877  24.156   6.701
 4512POPC   C3A58469  43.803  24.277   7.142
 4512POPC   C4A58470  43.556  24.504   7.430
 4512POPC   C1B58471  44.118  24.931   6.083
 4512POPC   C2B58472  44.128  24.786   6.484
 4512POPC   C3B58473  43.931  24.684   6.853
 4512POPC   C4B58474  43.961  24.841   7.264
 4513POPC   NC358475  10.019  12.527   5.352
 4513POPC   PO458476   9.707  13.112   5.344
 4513POPC   GL158477   9.758  12.798   5.703
 4513POPC   GL258478  10.110  12.694   5.822
 4513POPC   C1A58479   9.566  12.704   6.118
 4513POPC   D2A58480   9.470  12.513   6.543
 4513POPC   C3A58481   9.586  12.720   6.948
 4513POPC   C4A58482   9.637  13.076   7.249
 4513POPC   C1B58483  10.110  12.808   6.251
 4513POPC   C2B58484  10.039  12.732   6.678
 4513POPC   C3B58485  10.123  12.864   7.107
 4513POPC   C4B58486   9.919  12.722   7.483
 4514POPC   NC358487  21.667  10.375   5.262
 4514POPC   PO458488  21.054  10.521   5.479
 4514POPC   GL158489  21.397  10.400   5.714
 4514POPC   GL258490  21.527  10.729   5.718
 4514POPC   C1A58491  21.597  10.313   6.105
 4514POPC   D2A58492  21.689  10.537   6.460
 4514POPC   C3A58493  21.473  10.599   6.844
 4514POPC   C4A58494  21.529  10.448   7.262
 4514POPC   C1B58495  21.291  10.723   6.121
 4514POPC   C2B58496  21.117  10.942   6.443
 4514POPC   C3B58497  21.162  11.031   6.848
 4514POPC   C4B58498  21.222  10.840   7.233
 4515POPC   NC358499   0.857  24.902   5.551
 4515POPC   PO458500   0.299  25.101   5.270
 4515POPC   GL158501   0.345  25.177   5.733
 4515POPC   GL258502   0.144  25.456   5.860
 4515POPC   C1A58503   0.436  25.172   6.194
 4515POPC   D2A58504   0.277  25.255   6.616
 4515POPC   C3A58505   0.542  25.282   6.930
 4515POPC   C4A58506   0.558  25.053   7.294
 4515POPC   C1B58507   0.262  25.645   6.260
 4515POPC   C2B58508   0.376  25.754   6.678
 4515POPC   C3B58509   0.170  25.599   7.027
 4515POPC   C4B58510   0.267  25.457   7.473
 4516POPC   NC358511   1.060  19.374   5.498
 4516POPC   PO458512   1.371  18.805   5.304
 4516POPC   GL158513   1.226  18.803   5.793
 4516POPC   GL258514   1.099  19.144   5.986
 4516POPC   C1A58515   1.053  18.694   6.230
 4516POPC   D2A58516   1.135  19.031   6.537
 4516POPC   C3A58517   1.238  18.977   6.967
 4516POPC   C4A58518   1.145  18.857   7.361
 4516POPC   C1B58519   0.808  19.359   6.338
 4516POPC   C2B58520   0.821  19.405   6.804
 4516POPC   C3B58521   0.759  19.192   7.223
 4516POPC   C4B58522   0.738  18.954   7.662
 4517POPC   NC358523   7.459  14.183   5.142
 4517POPC   PO458524   7.395  13.527   5.338
 4517POPC   GL158525   7.340  13.569   5.804
 4517POPC   GL258526   7.265  13.233   5.770
 4517POPC   C1A58527   7.390  13.727   6.281
 4517POPC   D2A58528   7.620  13.711   6.711
 4517POPC   C3A58529   7.501  13.769   7.178
 4517POPC   C4A58530   7.655  13.656   7.602
 4517POPC   C1B58531   7.528  13.234   6.166
 4517POPC   C2B58532   7.426  13.263   6.574
 4517POPC   C3B58533   7.622  13.274   6.988
 4517POPC   C4B58534   7.390  13.287   7.338
 4518POPC   NC358535  20.885  28.599   5.482
 4518POPC   PO458536  20.260  28.297   5.378
 4518POPC   GL158537  20.518  28.241   5.765
 4518POPC   GL258538  20.842  28.101   5.732
 4518POPC   C1A58539  20.705  28.420   6.158
 4518POPC   D2A58540  20.555  28.538   6.561
 4518POPC   C3A58541  20.743  28.584   6.941
 4518POPC   C4A58542  20.532  28.334   7.207
 4518POPC   C1B58543  21.031  28.032   6.133
 4518POPC   C2B58544  20.849  28.063   6.552
 4518POPC   C3B58545  20.998  28.152   6.972
 4518POPC   C4B58546  20.875  28.072   7.419
 4519POPC   NC358547   5.842   8.797   5.081
 4519POPC   PO458548   5.572   9.355   5.103
 4519POPC   GL158549   5.692   9.105   5.522
 4519POPC   GL258550   5.898   9.328   5.690
 4519POPC   C1A58551   5.769   8.876   5.980
 4519POPC   D2A58552   5.954   8.918   6.433
 4519POPC   C3A58553   5.895   8.718   6.855
 4519POPC   C4A58554   5.665   8.842   7.225
 4519POPC   C1B58555   6.016   9.343   6.120
 4519POPC   C2B58556   5.837   9.412   6.539
 4519POPC   C3B58557   5.893   9.239   6.940
 4519POPC   C4B58558   5.829   9.384   7.345
 4520POPC   NC358559  43.441  31.970   5.437
 4520POPC   PO458560  43.922  32.366   5.232
 4520POPC   GL158561  43.978  32.347   5.697
 4520POPC   GL258562  43.836  32.028   5.766
 4520POPC   C1A58563  43.858  32.390   6.151
 4520POPC   D2A58564  43.905  32.629   6.541
 4520POPC   C3A58565  44.041  32.426   6.908
 4520POPC   C4A58566  43.829  32.275   7.265
 4520POPC   C1B58567  44.171  31.980   6.064
 4520POPC   C2B58568  44.146  32.108   6.502
 4520POPC   C3B58569  44.216  31.931   6.928
 4520POPC   C4B58570  44.005  31.759   7.271
 4521POPC   NC358571  35.303  20.965   5.474
 4521POPC   PO458572  35.306  21.642   5.600
 4521POPC   GL158573  35.347  21.297   5.880
 4521POPC   GL258574  35.383  21.596   6.141
 4521POPC   C1A58575  35.331  21.104   6.243
 4521POPC   D2A58576  35.252  21.350   6.621
 4521POPC   C3A58577  35.350  21.063   6.953
 4521POPC   C4A58578  35.331  20.998   7.402
 4521POPC   C1B58579  35.163  21.946   6.422
 4521POPC   C2B58580  34.850  21.885   6.768
 4521POPC   C3B58581  34.953  21.557   7.064
 4521POPC   C4B58582  35.356  21.488   7.259
 4522POPC   NC358583  33.424  36.885   5.467
 4522POPC   PO458584  32.841  36.592   5.200
 4522POPC   GL158585  32.922  36.868   5.552
 4522POPC   GL258586  32.985  36.698   5.876
 4522POPC   C1A58587  32.877  37.199   5.892
 4522POPC   D2A58588  32.942  37.228   6.359
 4522POPC   C3A58589  32.759  36.937   6.693
 4522POPC   C4A58590  32.774  36.940   7.162
 4522POPC   C1B58591  33.340  36.517   6.135
 4522POPC   C2B58592  33.326  36.397   6.542
 4522POPC   C3B58593  33.222  36.677   6.870
 4522POPC   C4B58594  33.346  36.505   7.225
 4523POPC   NC358595  40.966  30.146   5.423
 4523POPC   PO458596  40.448  29.731   5.383
 4523POPC   GL158597  40.786  29.674   5.716
 4523POPC   GL258598  41.011  29.960   5.894
 4523POPC   C1A58599  40.773  29.602   6.164
 4523POPC   D2A58600  40.688  29.872   6.519
 4523POPC   C3A58601  40.812  29.713   6.900
 4523POPC   C4A58602  40.529  29.760   7.209
 4523POPC   C1B58603  40.978  30.249   6.262
 4523POPC   C2B58604  40.627  30.394   6.525
 4523POPC   C3B58605  40.550  30.237   6.922
 4523POPC   C4B58606  40.877  30.126   7.216
 4524POPC   NC358607   6.390  16.521   5.291
 4524POPC   PO458608   6.866  16.776   5.384
 4524POPC   GL158609   6.629  16.742   5.804
 4524POPC   GL258610   6.752  16.467   5.990
 4524POPC   C1A58611   6.594  16.859   6.302
 4524POPC   D2A58612   6.588  16.665   6.748
 4524POPC   C3A58613   6.630  16.887   7.160
 4524POPC   C4A58614   6.325  17.149   7.436
 4524POPC   C1B58615   6.359  16.408   6.235
 4524POPC   C2B58616   6.250  16.286   6.669
 4524POPC   C3B58617   6.455  16.274   7.081
 4524POPC   C4B58618   6.383  16.158   7.502
 4525POPC   NC358619  43.517  23.857   5.351
 4525POPC   PO458620  44.138  23.629   5.314
 4525POPC   GL158621  43.934  23.546   5.766
 4525POPC   GL258622  43.750  23.197   5.783
 4525POPC   C1A58623  43.991  23.734   6.238
 4525POPC   D2A58624  44.186  23.730   6.689
 4525POPC   C3A58625  43.997  23.798   7.066
 4525POPC   C4A58626  44.173  24.038   7.408
 4525POPC   C1B58627  43.579  23.441   6.164
 4525POPC   C2B58628  43.690  23.566   6.610
 4525POPC   C3B58629  43.543  23.356   6.976
 4525POPC   C4B58630  43.694  23.495   7.375
 4526POPC   NC358631  22.745  26.436   5.447
 4526POPC   PO458632  22.878  27.086   5.436
 4526POPC   GL158633  22.960  26.831   5.821
 4526POPC   GL258634  23.055  26.471   5.838
 4526POPC   C1A58635  22.805  26.878   6.235
 4526POPC   D2A58636  23.020  26.945   6.592
 4526POPC   C3A58637  22.785  27.147   6.856
 4526POPC   C4A58638  22.857  26.971   7.187
 4526POPC   C1B58639  22.815  26.375   6.204
 4526POPC   C2B58640  22.608  26.524   6.585
 4526POPC   C3B58641  22.701  26.448   7.009
 4526POPC   C4B58642  22.466  26.663   7.305
 4527POPC   NC358643  44.127  29.578   5.383
 4527POPC   PO458644  43.723  30.156   5.401
 4527POPC   GL158645  43.904  29.964   5.724
 4527POPC   GL258646  43.726  29.667   5.763
 4527POPC   C1A58647  43.999  30.141   6.128
 4527POPC   D2A58648  43.760  30.310   6.488
 4527POPC   C3A58649  43.872  30.203   6.926
 4527POPC   C4A58650  43.742  30.049   7.366
 4527POPC   C1B58651  43.959  29.625   6.116
 4527POPC   C2B58652  43.905  29.779   6.520
 4527POPC   C3B58653  44.096  29.755   6.916
 4527POPC   C4B58654  43.914  29.588   7.289
 4528POPC   NC358655  44.460   4.053   5.438
 4528POPC   PO458656  44.741   4.646   5.234
 4528POPC   GL158657  44.723   4.416   5.667
 4528POPC   GL258658  44.366   4.521   5.675
 4528POPC   C1A58659  44.835   4.243   6.133
 4528POPC   D2A58660  44.870   4.435   6.590
 4528POPC   C3A58661  44.857   4.271   7.047
 4528POPC   C4A58662  44.996   4.447   7.467
 4528POPC   C1B58663  44.340   4.340   6.091
 4528POPC   C2B58664  44.336   4.542   6.484
 4528POPC   C3B58665  44.401   4.521   6.886
 4528POPC   C4B58666  44.358   4.193   7.111
 4529POPC   NC358667  27.835  10.805   5.435
 4529POPC   PO458668  27.354  10.427   5.117
 4529POPC   GL158669  27.418  10.571   5.622
 4529POPC   GL258670  27.712  10.379   5.785
 4529POPC   C1A58671  27.397  10.561   6.135
 4529POPC   D2A58672  27.344  10.666   6.599
 4529POPC   C3A58673  27.598  10.699   6.975
 4529POPC   C4A58674  27.755  10.803   7.380
 4529POPC   C1B58675  27.629  10.132   6.202
 4529POPC   C2B58676  27.467  10.131   6.595
 4529POPC   C3B58677  27.664  10.180   6.986
 4529POPC   C4B58678  27.543  10.346   7.370
 4530POPC   NC358679  28.830  14.766   5.050
 4530POPC   PO458680  28.857  15.242   5.352
 4530POPC   GL158681  29.060  15.182   5.812
 4530POPC   GL258682  29.383  14.978   5.888
 4530POPC   C1A58683  29.167  15.197   6.298
 4530POPC   D2A58684  29.211  14.951   6.711
 4530POPC   C3A58685  29.067  15.081   7.134
 4530POPC   C4A58686  29.021  15.387   7.489
 4530POPC   C1B58687  29.495  14.761   6.302
 4530POPC   C2B58688  29.715  14.897   6.697
 4530POPC   C3B58689  29.586  15.068   7.100
 4530POPC   C4B58690  29.707  15.318   7.484
 4531POPC   NC358691  38.494  20.059   5.247
 4531POPC   PO458692  38.594  19.432   5.363
 4531POPC   GL158693  38.627  19.598   5.777
 4531POPC   GL258694  38.637  19.979   5.795
 4531POPC   C1A58695  38.718  19.641   6.214
 4531POPC   D2A58696  38.504  19.646   6.615
 4531POPC   C3A58697  38.597  19.924   6.936
 4531POPC   C4A58698  38.787  19.752   7.291
 4531POPC   C1B58699  38.240  19.858   6.043
 4531POPC   C2B58700  38.087  19.932   6.504
 4531POPC   C3B58701  38.108  20.056   6.974
 4531POPC   C4B58702  38.282  19.880   7.337
 4532POPC   NC358703  21.801  13.146   5.513
 4532POPC   PO458704  21.139  12.867   5.375
 4532POPC   GL158705  21.311  12.948   5.789
 4532POPC   GL258706  21.357  12.592   5.832
 4532POPC   C1A58707  21.226  13.008   6.268
 4532POPC   D2A58708  21.207  12.749   6.685
 4532POPC   C3A58709  21.425  12.829   7.105
 4532POPC   C4A58710  21.674  13.190   7.298
 4532POPC   C1B58711  21.513  12.580   6.263
 4532POPC   C2B58712  21.881  12.674   6.518
 4532POPC   C3B58713  21.851  12.573   6.945
 4532POPC   C4B58714  21.886  12.713   7.363
 4533POPC   NC358715  40.826  20.034   5.437
 4533POPC   PO458716  40.649  19.461   5.561
 4533POPC   GL158717  40.836  19.735   5.867
 4533POPC   GL258718  40.825  20.110   5.946
 4533POPC   C1A58719  40.797  19.653   6.295
 4533POPC   D2A58720  41.091  19.565   6.621
 4533POPC   C3A58721  40.823  19.516   6.923
 4533POPC   C4A58722  40.848  19.748   7.257
 4533POPC   C1B58723  40.410  20.004   6.109
 4533POPC   C2B58724  40.263  20.005   6.544
 4533POPC   C3B58725  40.471  19.939   6.947
 4533POPC   C4B58726  40.381  19.856   7.402
 4534POPC   NC358727  17.177   3.369   5.357
 4534POPC   PO458728  16.476   3.641   5.478
 4534POPC   GL158729  16.783   3.456   5.737
 4534POPC   GL258730  17.011   3.701   5.707
 4534POPC   C1A58731  16.781   3.474   6.191
 4534POPC   D2A58732  16.590   3.579   6.595
 4534POPC   C3A58733  16.735   3.542   7.024
 4534POPC   C4A58734  16.715   3.361   7.471
 4534POPC   C1B58735  17.214   3.698   6.100
 4534POPC   C2B58736  17.078   3.752   6.536
 4534POPC   C3B58737  17.244   3.740   6.940
 4534POPC   C4B58738  17.139   3.585   7.326
 4535POPC   NC358739  28.799   0.511   5.104
 4535POPC   PO458740  28.238   0.766   5.412
 4535POPC   GL158741  28.107   0.629   5.820
 4535POPC   GL258742  28.059   0.298   5.824
 4535POPC   C1A58743  27.970   0.635   6.238
 4535POPC   D2A58744  28.009   0.749   6.650
 4535POPC   C3A58745  28.277   0.573   6.941
 4535POPC   C4A58746  28.488   0.425   7.306
 4535POPC   C1B58747  28.289   0.230   6.172
 4535POPC   C2B58748  28.161   0.251   6.570
 4535POPC   C3B58749  28.309   0.071   6.965
 4535POPC   C4B58750  28.048  44.834   7.210
 4536POPC   NC358751  19.533  11.418   5.450
 4536POPC   PO458752  18.936  11.563   5.500
 4536POPC   GL158753  19.235  11.601   5.856
 4536POPC   GL258754  19.268  11.238   5.865
 4536POPC   C1A58755  19.291  11.701   6.334
 4536POPC   D2A58756  19.020  11.684   6.731
 4536POPC   C3A58757  19.195  11.395   7.062
 4536POPC   C4A58758  19.619  11.241   7.064
 4536POPC   C1B58759  19.073  11.238   6.315
 4536POPC   C2B58760  18.820  11.222   6.748
 4536POPC   C3B58761  18.712  11.422   7.201
 4536POPC   C4B58762  18.754  11.302   7.665
 4537POPC   NC358763  13.629  41.832   5.428
 4537POPC   PO458764  13.746  41.167   5.453
 4537POPC   GL158765  13.652  41.379   5.822
 4537POPC   GL258766  14.015  41.397   5.879
 4537POPC   C1A58767  13.689  41.683   6.171
 4537POPC   D2A58768  13.786  41.827   6.591
 4537POPC   C3A58769  13.505  41.665   6.894
 4537POPC   C4A58770  13.536  41.579   7.334
 4537POPC   C1B58771  13.877  41.187   6.253
 4537POPC   C2B58772  13.702  41.226   6.646
 4537POPC   C3B58773  13.878  41.347   7.018
 4537POPC   C4B58774  13.823  41.153   7.377
 4538POPC   NC358775  19.243  14.282   5.528
 4538POPC   PO458776  18.785  14.746   5.449
 4538POPC   GL158777  18.995  14.627   5.830
 4538POPC   GL258778  19.341  14.712   5.799
 4538POPC   C1A58779  18.882  14.331   6.169
 4538POPC   D2A58780  18.783  14.165   6.596
 4538POPC   C3A58781  18.862  14.467   6.961
 4538POPC   C4A58782  19.106  14.469   7.361
 4538POPC   C1B58783  19.413  14.457   6.159
 4538POPC   C2B58784  19.245  14.380   6.552
 4538POPC   C3B58785  19.380  14.577   6.880
 4538POPC   C4B58786  19.613  14.568   7.217
 4539POPC   NC358787  16.309  27.674   5.533
 4539POPC   PO458788  15.804  27.322   5.440
 4539POPC   GL158789  15.884  27.625   5.824
 4539POPC   GL258790  16.165  27.827   5.990
 4539POPC   C1A58791  15.850  27.519   6.230
 4539POPC   D2A58792  15.820  27.193   6.475
 4539POPC   C3A58793  15.836  27.317   6.898
 4539POPC   C4A58794  15.563  27.546   7.123
 4539POPC   C1B58795  16.251  27.828   6.429
 4539POPC   C2B58796  16.250  27.625   6.822
 4539POPC   C3B58797  16.174  27.710   7.275
 4539POPC   C4B58798  16.146  27.684   7.744
 4540POPC   NC358799  24.453  30.380   5.183
 4540POPC   PO458800  24.231  31.003   5.415
 4540POPC   GL158801  24.310  30.653   5.642
 4540POPC   GL258802  24.567  30.801   5.760
 4540POPC   C1A58803  24.179  30.656   6.093
 4540POPC   D2A58804  24.326  30.865   6.497
 4540POPC   C3A58805  24.477  30.612   6.831
 4540POPC   C4A58806  24.374  30.772   7.172
 4540POPC   C1B58807  24.694  30.861   6.147
 4540POPC   C2B58808  24.860  30.756   6.531
 4540POPC   C3B58809  24.865  30.930   6.935
 4540POPC   C4B58810  24.889  30.684   7.276
 4541POPC   NC358811  22.533  18.246   5.350
 4541POPC   PO458812  21.854  18.307   5.358
 4541POPC   GL158813  22.021  18.217   5.784
 4541POPC   GL258814  22.316  17.989   5.731
 4541POPC   C1A58815  21.925  18.242   6.258
 4541POPC   D2A58816  21.862  18.296   6.689
 4541POPC   C3A58817  22.212  18.485   6.921
 4541POPC   C4A58818  22.304  18.436   7.343
 4541POPC   C1B58819  22.396  18.139   6.127
 4541POPC   C2B58820  22.343  18.116   6.580
 4541POPC   C3B58821  22.556  18.112   6.996
 4541POPC   C4B58822  22.706  18.150   7.429
 4542POPC   NC358823  36.356  23.372   5.424
 4542POPC   PO458824  35.754  23.717   5.336
 4542POPC   GL158825  36.095  23.799   5.687
 4542POPC   GL258826  36.245  23.497   5.900
 4542POPC   C1A58827  36.148  23.932   6.140
 4542POPC   D2A58828  36.183  23.603   6.465
 4542POPC   C3A58829  36.190  23.721   6.880
 4542POPC   C4A58830  36.049  23.867   7.264
 4542POPC   C1B58831  36.458  23.212   6.212
 4542POPC   C2B58832  36.428  23.109   6.671
 4542POPC   C3B58833  36.171  23.235   7.061
 4542POPC   C4B58834  36.256  23.464   7.497
 4543POPC   NC358835  27.754   8.619   5.418
 4543POPC   PO458836  27.182   8.291   5.218
 4543POPC   GL158837  27.521   8.132   5.680
 4543POPC   GL258838  27.782   7.915   5.657
 4543POPC   C1A58839  27.480   8.269   6.162
 4543POPC   D2A58840  27.253   8.383   6.536
 4543POPC   C3A58841  27.411   8.179   6.909
 4543POPC   C4A58842  27.269   8.054   7.305
 4543POPC   C1B58843  27.620   7.791   6.078
 4543POPC   C2B58844  27.666   7.932   6.517
 4543POPC   C3B58845  27.788   7.838   6.940
 4543POPC   C4B58846  27.993   7.980   7.283
 4544POPC   NC358847  42.972  24.130   5.515
 4544POPC   PO458848  43.158  23.533   5.385
 4544POPC   GL158849  43.062  23.710   5.776
 4544POPC   GL258850  43.326  23.963   5.849
 4544POPC   C1A58851  43.041  23.724   6.208
 4544POPC   D2A58852  43.190  23.612   6.605
 4544POPC   C3A58853  42.983  23.819   6.940
 4544POPC   C4A58854  42.852  23.583   7.253
 4544POPC   C1B58855  43.506  23.964   6.270
 4544POPC   C2B58856  43.377  24.084   6.676
 4544POPC   C3B58857  43.492  23.859   7.050
 4544POPC   C4B58858  43.266  23.790   7.448
 4545POPC   NC358859   8.897  24.998   5.116
 4545POPC   PO458860   9.281  25.497   5.425
 4545POPC   GL158861   9.094  25.231   5.738
 4545POPC   GL258862   9.313  24.938   5.619
 4545POPC   C1A58863   8.934  25.332   6.208
 4545POPC   D2A58864   8.834  25.200   6.671
 4545POPC   C3A58865   8.785  25.328   7.122
 4545POPC   C4A58866   9.014  25.276   7.499
 4545POPC   C1B58867   9.299  24.952   6.086
 4545POPC   C2B58868   9.215  24.924   6.500
 4545POPC   C3B58869   9.277  25.089   6.930
 4545POPC   C4B58870   9.380  24.929   7.329
 4546POPC   NC358871  11.210  41.721   5.325
 4546POPC   PO458872  10.959  41.090   5.275
 4546POPC   GL158873  11.113  41.349   5.661
 4546POPC   GL258874  11.425  41.565   5.787
 4546POPC   C1A58875  11.104  41.396   6.136
 4546POPC   D2A58876  11.067  41.679   6.493
 4546POPC   C3A58877  11.368  41.600   6.841
 4546POPC   C4A58878  11.118  41.537   7.193
 4546POPC   C1B58879  11.530  41.748   6.221
 4546POPC   C2B58880  11.814  41.788   6.601
 4546POPC   C3B58881  11.740  42.021   6.998
 4546POPC   C4B58882  11.558  41.833   7.369
 4547POPC   NC358883  43.370   1.605   5.205
 4547POPC   PO458884  42.950   1.155   5.407
 4547POPC   GL158885  43.148   1.182   5.816
 4547POPC   GL258886  43.329   1.484   5.904
 4547POPC   C1A58887  42.966   1.323   6.218
 4547POPC   D2A58888  42.913   1.139   6.609
 4547POPC   C3A58889  42.920   1.444   6.911
 4547POPC   C4A58890  43.132   1.573   7.278
 4547POPC   C1B58891  43.464   1.280   6.300
 4547POPC   C2B58892  43.411   1.220   6.761
 4547POPC   C3B58893  43.580   1.213   7.178
 4547POPC   C4B58894  43.580   1.114   7.637
 4548POPC   NC358895   2.038  41.778   4.941
 4548POPC   PO458896   1.843  41.455   5.478
 4548POPC   GL158897   2.005  41.618   5.836
 4548POPC   GL258898   2.287  41.427   5.869
 4548POPC   C1A58899   1.952  41.656   6.280
 4548POPC   D2A58900   2.012  41.398   6.656
 4548POPC   C3A58901   2.023  41.669   6.997
 4548POPC   C4A58902   1.756  42.027   7.101
 4548POPC   C1B58903   2.432  41.431   6.307
 4548POPC   C2B58904   2.525  41.387   6.756
 4548POPC   C3B58905   2.498  41.617   7.156
 4548POPC   C4B58906   2.388  41.446   7.555
 4549POPC   NC358907  20.850   5.474   5.337
 4549POPC   PO458908  20.749   4.811   5.359
 4549POPC   GL158909  20.507   4.949   5.725
 4549POPC   GL258910  20.458   5.289   5.727
 4549POPC   C1A58911  20.599   4.887   6.158
 4549POPC   D2A58912  20.434   4.899   6.584
 4549POPC   C3A58913  20.743   4.944   6.915
 4549POPC   C4A58914  20.813   4.704   7.277
 4549POPC   C1B58915  20.596   5.396   6.136
 4549POPC   C2B58916  20.717   5.337   6.562
 4549POPC   C3B58917  20.549   5.413   6.967
 4549POPC   C4B58918  20.706   5.294   7.358
 4550POPC   NC358919  37.288  27.938   5.531
 4550POPC   PO458920  37.676  28.537   5.321
 4550POPC   GL158921  37.804  28.607   5.739
 4550POPC   GL258922  37.644  28.278   5.822
 4550POPC   C1A58923  37.722  28.673   6.177
 4550POPC   D2A58924  37.579  28.450   6.558
 4550POPC   C3A58925  37.766  28.528   6.967
 4550POPC   C4A58926  37.584  28.492   7.398
 4550POPC   C1B58927  37.416  28.107   6.177
 4550POPC   C2B58928  37.465  27.917   6.559
 4550POPC   C3B58929  37.493  28.060   6.968
 4550POPC   C4B58930  37.263  28.074   7.334
 4551POPC   NC358931  20.874   6.097   5.430
 4551POPC   PO458932  20.405   5.601   5.323
 4551POPC   GL158933  20.497   5.804   5.734
 4551POPC   GL258934  20.823   5.727   5.801
 4551POPC   C1A58935  20.541   5.895   6.217
 4551POPC   D2A58936  20.509   5.787   6.628
 4551POPC   C3A58937  20.477   5.995   7.017
 4551POPC   C4A58938  20.284   6.118   7.395
 4551POPC   C1B58939  21.004   5.678   6.240
 4551POPC   C2B58940  21.033   5.794   6.699
 4551POPC   C3B58941  20.894   5.749   7.146
 4551POPC   C4B58942  20.759   5.791   7.597
 4552POPC   NC358943   2.961  40.507   5.459
 4552POPC   PO458944   2.581  41.066   5.636
 4552POPC   GL158945   2.801  40.797   5.901
 4552POPC   GL258946   2.691  40.474   5.910
 4552POPC   C1A58947   2.962  40.846   6.318
 4552POPC   D2A58948   2.719  40.900   6.669
 4552POPC   C3A58949   2.740  40.846   7.066
 4552POPC   C4A58950   2.427  41.070   7.221
 4552POPC   C1B58951   3.024  40.354   6.181
 4552POPC   C2B58952   3.089  40.475   6.633
 4552POPC   C3B58953   2.943  40.386   7.024
 4552POPC   C4B58954   2.940  40.552   7.439
 4553POPC   NC358955  25.523  23.278   5.474
 4553POPC   PO458956  25.375  23.942   5.590
 4553POPC   GL158957  25.013  23.750   5.825
 4553POPC   GL258958  25.103  23.388   5.797
 4553POPC   C1A58959  24.972  23.581   6.254
 4553POPC   D2A58960  25.267  23.574   6.602
 4553POPC   C3A58961  25.122  23.693   6.985
 4553POPC   C4A58962  24.880  24.021   7.088
 4553POPC   C1B58963  25.448  23.558   6.106
 4553POPC   C2B58964  25.778  23.480   6.414
 4553POPC   C3B58965  25.714  23.428   6.855
 4553POPC   C4B58966  25.601  23.768   7.141
 4554POPC   NC358967  38.999  31.555   5.135
 4554POPC   PO458968  38.366  31.451   5.437
 4554POPC   GL158969  38.517  31.510   5.832
 4554POPC   GL258970  38.807  31.334   5.782
 4554POPC   C1A58971  38.314  31.603   6.217
 4554POPC   D2A58972  38.273  31.349   6.565
 4554POPC   C3A58973  38.188  31.550   6.958
 4554POPC   C4A58974  38.127  31.888   7.245
 4554POPC   C1B58975  38.643  31.170   6.189
 4554POPC   C2B58976  38.751  31.180   6.607
 4554POPC   C3B58977  38.557  31.184   6.976
 4554POPC   C4B58978  38.607  31.506   7.260
 4555POPC   NC358979  19.249  38.495   5.586
 4555POPC   PO458980  18.599  38.888   5.513
 4555POPC   GL158981  18.852  38.718   5.807
 4555POPC   GL258982  18.861  38.341   5.868
 4555POPC   C1A58983  19.050  38.711   6.196
 4555POPC   D2A58984  18.906  38.483   6.546
 4555POPC   C3A58985  19.243  38.537   6.809
 4555POPC   C4A58986  19.303  38.485   7.230
 4555POPC   C1B58987  19.201  38.215   6.180
 4555POPC   C2B58988  19.190  38.026   6.578
 4555POPC   C3B58989  18.985  38.115   6.966
 4555POPC   C4B58990  18.791  38.332   7.271
 4556POPC   NC358991  42.041  27.813   5.567
 4556POPC   PO458992  42.043  27.155   5.297
 4556POPC   GL158993  42.262  27.377   5.733
 4556POPC   GL258994  42.624  27.472   5.826
 4556POPC   C1A58995  42.330  27.694   6.156
 4556POPC   D2A58996  42.477  27.690   6.605
 4556POPC   C3A58997  42.149  27.581   6.933
 4556POPC   C4A58998  42.163  27.711   7.352
 4556POPC   C1B58999  42.771  27.403   6.268
 4556POPC   C2B59000  42.725  27.214   6.711
 4556POPC   C3B59001  42.582  27.349   7.131
 4556POPC   C4B59002  42.534  27.435   7.583
 4557POPC   NC359003  38.313  13.921   5.517
 4557POPC   PO459004  38.516  13.387   5.114
 4557POPC   GL159005  38.417  13.442   5.609
 4557POPC   GL259006  38.710  13.659   5.708
 4557POPC   C1A59007  38.354  13.329   6.082
 4557POPC   D2A59008  38.425  13.491   6.518
 4557POPC   C3A59009  38.288  13.360   6.947
 4557POPC   C4A59010  38.484  13.456   7.363
 4557POPC   C1B59011  38.629  13.772   6.121
 4557POPC   C2B59012  38.751  13.908   6.510
 4557POPC   C3B59013  38.525  13.855   6.887
 4557POPC   C4B59014  38.676  13.950   7.269
 4558POPC   NC359015   4.017  30.230   5.499
 4558POPC   PO459016   4.611  29.938   5.525
 4558POPC   GL159017   4.251  29.911   5.824
 4558POPC   GL259018   4.095  29.597   5.851
 4558POPC   C1A59019   4.148  30.010   6.250
 4558POPC   D2A59020   4.224  29.823   6.662
 4558POPC   C3A59021   4.184  30.079   7.041
 4558POPC   C4A59022   4.567  30.183   7.245
 4558POPC   C1B59023   4.196  29.462   6.269
 4558POPC   C2B59024   3.920  29.395   6.618
 4558POPC   C3B59025   3.955  29.587   7.029
 4558POPC   C4B59026   4.256  29.690   7.360
 4559POPC   NC359027  32.092  44.110   5.477
 4559POPC   PO459028  32.514  43.555   5.568
 4559POPC   GL159029  32.367  43.882   5.847
 4559POPC   GL259030  32.058  43.697   5.911
 4559POPC   C1A59031  32.247  44.021   6.281
 4559POPC   D2A59032  32.283  43.855   6.719
 4559POPC   C3A59033  32.115  43.992   7.125
 4559POPC   C4A59034  32.309  44.205   7.513
 4559POPC   C1B59035  32.404  43.531   6.222
 4559POPC   C2B59036  32.379  43.340   6.648
 4559POPC   C3B59037  32.341  43.499   7.084
 4559POPC   C4B59038  32.599  43.515   7.417
 4560POPC   NC359039   8.998  34.885   5.163
 4560POPC   PO459040   9.167  35.538   5.183
 4560POPC   GL159041   9.099  35.353   5.603
 4560POPC   GL259042   8.860  35.623   5.703
 4560POPC   C1A59043   9.092  35.257   6.081
 4560POPC   D2A59044   9.020  34.897   6.417
 4560POPC   C3A59045   8.990  34.999   6.891
 4560POPC   C4A59046   8.654  35.223   7.134
 4560POPC   C1B59047   8.823  35.720   6.157
 4560POPC   C2B59048   9.090  35.570   6.501
 4560POPC   C3B59049   9.013  35.560   6.931
 4560POPC   C4B59050   9.162  35.357   7.281
 4561POPC   NC359051  37.145  40.929   5.493
 4561POPC   PO459052  36.493  40.700   5.320
 4561POPC   GL159053  36.715  40.726   5.721
 4561POPC   GL259054  36.757  41.052   5.810
 4561POPC   C1A59055  36.643  40.769   6.208
 4561POPC   D2A59056  36.748  41.002   6.612
 4561POPC   C3A59057  36.738  40.673   6.955
 4561POPC   C4A59058  36.389  40.682   7.244
 4561POPC   C1B59059  37.095  41.058   6.127
 4561POPC   C2B59060  37.260  41.053   6.537
 4561POPC   C3B59061  37.161  40.982   6.990
 4561POPC   C4B59062  37.243  40.933   7.469
 4562POPC   NC359063  41.787  23.213   5.281
 4562POPC   PO459064  41.549  23.885   5.352
 4562POPC   GL159065  41.496  23.895   5.763
 4562POPC   GL259066  41.689  23.630   5.796
 4562POPC   C1A59067  41.358  23.772   6.188
 4562POPC   D2A59068  41.335  23.548   6.568
 4562POPC   C3A59069  41.306  23.856   6.875
 4562POPC   C4A59070  41.183  23.895   7.299
 4562POPC   C1B59071  41.940  23.510   6.183
 4562POPC   C2B59072  42.156  23.592   6.597
 4562POPC   C3B59073  41.963  23.558   7.014
 4562POPC   C4B59074  41.870  23.558   7.450
 4563POPC   NC359075   0.085  18.462   5.185
 4563POPC   PO459076   0.674  18.178   5.281
 4563POPC   GL159077   0.534  18.307   5.718
 4563POPC   GL259078   0.170  18.191   5.654
 4563POPC   C1A59079   0.597  18.431   6.201
 4563POPC   D2A59080   0.506  18.360   6.670
 4563POPC   C3A59081   0.500  18.349   7.160
 4563POPC   C4A59082   0.363  18.458   7.615
 4563POPC   C1B59083   0.112  18.332   6.073
 4563POPC   C2B59084   0.071  18.174   6.494
 4563POPC   C3B59085   0.060  18.336   6.912
 4563POPC   C4B59086   0.016  18.231   7.345
 4564POPC   NC359087  44.268  19.034   5.254
 4564POPC   PO459088  44.852  19.290   5.339
 4564POPC   GL159089  44.698  18.932   5.620
 4564POPC   GL259090  44.413  18.677   5.583
 4564POPC   C1A59091  44.773  18.882   6.072
 4564POPC   D2A59092  44.838  19.148   6.462
 4564POPC   C3A59093  44.732  18.973   6.870
 4564POPC   C4A59094  44.911  18.717   7.211
 4564POPC   C1B59095  44.281  18.715   6.008
 4564POPC   C2B59096  44.359  18.842   6.440
 4564POPC   C3B59097  44.221  18.775   6.854
 4564POPC   C4B59098  44.416  18.806   7.236
 4565POPC   NC359099  35.844  13.845   5.325
 4565POPC   PO459100  36.317  13.346   5.403
 4565POPC   GL159101  36.399  13.713   5.683
 4565POPC   GL259102  36.097  13.858   5.780
 4565POPC   C1A59103  36.543  13.790   6.127
 4565POPC   D2A59104  36.547  13.555   6.537
 4565POPC   C3A59105  36.516  13.743   6.943
 4565POPC   C4A59106  36.281  13.504   7.263
 4565POPC   C1B59107  36.088  13.522   6.106
 4565POPC   C2B59108  35.875  13.606   6.491
 4565POPC   C3B59109  36.020  13.749   6.869
 4565POPC   C4B59110  35.929  13.980   7.202
 4566POPC   NC359111  42.412  32.375   5.304
 4566POPC   PO459112  42.372  31.692   5.213
 4566POPC   GL159113  42.304  31.959   5.655
 4566POPC   GL259114  42.311  32.361   5.781
 4566POPC   C1A59115  42.302  32.032   6.144
 4566POPC   D2A59116  42.523  32.050   6.542
 4566POPC   C3A59117  42.293  32.200   6.906
 4566POPC   C4A59118  42.319  32.147   7.332
 4566POPC   C1B59119  42.287  32.586   6.165
 4566POPC   C2B59120  42.499  32.576   6.545
 4566POPC   C3B59121  42.438  32.746   6.933
 4566POPC   C4B59122  42.314  32.640   7.318
 4567POPC   NC359123   6.451  18.665   5.471
 4567POPC   PO459124   7.135  18.718   5.593
 4567POPC   GL159125   6.795  18.410   5.773
 4567POPC   GL259126   6.932  18.456   6.093
 4567POPC   C1A59127   6.449  18.305   6.136
 4567POPC   D2A59128   6.469  18.173   6.636
 4567POPC   C3A59129   6.646  18.196   7.116
 4567POPC   C4A59130   6.937  18.349   7.454
 4567POPC   C1B59131   6.687  18.632   6.437
 4567POPC   C2B59132   6.613  18.637   6.866
 4567POPC   C3B59133   6.565  18.690   7.297
 4567POPC   C4B59134   6.603  18.639   7.756
 4568POPC   NC359135  34.105  27.101   5.551
 4568POPC   PO459136  34.510  26.706   5.156
 4568POPC   GL159137  34.387  26.653   5.635
 4568POPC   GL259138  34.576  26.915   5.761
 4568POPC   C1A59139  34.304  26.708   6.147
 4568POPC   D2A59140  34.465  26.782   6.619
 4568POPC   C3A59141  34.395  26.964   7.073
 4568POPC   C4A59142  34.284  26.767   7.491
 4568POPC   C1B59143  34.763  26.933   6.187
 4568POPC   C2B59144  34.961  26.866   6.589
 4568POPC   C3B59145  34.906  26.827   7.025
 4568POPC   C4B59146  34.839  27.086   7.374
 4569POPC   NC359147  44.864  26.616   5.468
 4569POPC   PO459148  44.801  25.967   5.232
 4569POPC   GL159149  44.788  25.935   5.709
 4569POPC   GL259150  44.861  26.247   5.815
 4569POPC   C1A59151  44.773  25.779   6.155
 4569POPC   D2A59152  44.852  25.701   6.618
 4569POPC   C3A59153  44.706  26.024   6.955
 4569POPC   C4A59154  44.413  26.055   7.340
 4569POPC   C1B59155  44.723  26.316   6.239
 4569POPC   C2B59156  44.781  26.595   6.610
 4569POPC   C3B59157  44.898  26.567   7.065
 4569POPC   C4B59158  44.874  26.238   7.408
 4570POPC   NC359159  43.852   0.167   5.317
 4570POPC   PO459160  43.745   0.842   5.386
 4570POPC   GL159161  43.973   0.663   5.733
 4570POPC   GL259162  43.812   0.346   5.794
 4570POPC   C1A59163  44.125   0.523   6.153
 4570POPC   D2A59164  43.925   0.406   6.532
 4570POPC   C3A59165  44.129   0.358   6.896
 4570POPC   C4A59166  43.987   0.430   7.293
 4570POPC   C1B59167  43.567   0.320   6.170
 4570POPC   C2B59168  43.388   0.281   6.563
 4570POPC   C3B59169  43.582   0.330   6.941
 4570POPC   C4B59170  43.393   0.277   7.338
 4571POPC   NC359171  11.697  13.627   5.125
 4571POPC   PO459172  12.289  13.673   5.441
 4571POPC   GL159173  12.141  13.473   5.801
 4571POPC   GL259174  11.875  13.715   5.792
 4571POPC   C1A59175  12.038  13.537   6.245
 4571POPC   D2A59176  12.076  13.848   6.578
 4571POPC   C3A59177  12.192  13.734   7.003
 4571POPC   C4A59178  11.969  13.392   7.180
 4571POPC   C1B59179  11.682  13.907   6.129
 4571POPC   C2B59180  11.561  13.836   6.524
 4571POPC   C3B59181  11.676  13.741   6.917
 4571POPC   C4B59182  11.775  13.875   7.299
 4572POPC   NC359183   1.030  43.892   5.232
 4572POPC   PO459184   0.378  43.758   5.306
 4572POPC   GL159185   0.293  43.849   5.748
 4572POPC   GL259186   0.642  43.899   5.828
 4572POPC   C1A59187   0.364  43.638   6.174
 4572POPC   D2A59188   0.383  43.823   6.603
 4572POPC   C3A59189   0.460  43.718   7.036
 4572POPC   C4A59190   0.314  43.883   7.417
 4572POPC   C1B59191   0.444  44.149   6.158
 4572POPC   C2B59192   0.609  44.271   6.543
 4572POPC   C3B59193   0.730  44.135   6.930
 4572POPC   C4B59194   0.655  44.309   7.332
 4573POPC   NC359195  35.353   9.535   5.268
 4573POPC   PO459196  35.145  10.196   5.319
 4573POPC   GL159197  35.433  10.066   5.687
 4573POPC   GL259198  35.514   9.725   5.712
 4573POPC   C1A59199  35.461   9.982   6.137
 4573POPC   D2A59200  35.622  10.069   6.533
 4573POPC   C3A59201  35.324   9.950   6.867
 4573POPC   C4A59202  35.317   9.639   7.186
 4573POPC   C1B59203  35.493   9.425   6.060
 4573POPC   C2B59204  35.484   9.257   6.475
 4573POPC   C3B59205  35.633   9.194   6.893
 4573POPC   C4B59206  35.722   9.350   7.303
 4574POPC   NC359207  12.774  17.162   5.581
 4574POPC   PO459208  12.470  17.811   5.573
 4574POPC   GL159209  12.737  17.577   5.881
 4574POPC   GL259210  13.009  17.766   5.974
 4574POPC   C1A59211  12.925  17.381   6.285
 4574POPC   D2A59212  13.186  17.649   6.592
 4574POPC   C3A59213  13.054  17.611   7.031
 4574POPC   C4A59214  12.824  17.227   7.120
 4574POPC   C1B59215  12.639  17.787   6.321
 4574POPC   C2B59216  12.604  17.554   6.702
 4574POPC   C3B59217  12.547  17.690   7.094
 4574POPC   C4B59218  12.762  17.771   7.473
 4575POPC   NC359219  28.089   7.724   5.126
 4575POPC   PO459220  28.360   7.268   5.584
 4575POPC   GL159221  28.381   7.410   5.966
 4575POPC   GL259222  28.189   7.684   5.837
 4575POPC   C1A59223  28.665   7.261   6.287
 4575POPC   D2A59224  28.844   7.283   6.699
 4575POPC   C3A59225  28.587   7.237   7.060
 4575POPC   C4A59226  28.599   7.496   7.385
 4575POPC   C1B59227  28.109   7.792   6.227
 4575POPC   C2B59228  28.050   7.566   6.568
 4575POPC   C3B59229  28.224   7.588   6.981
 4575POPC   C4B59230  28.070   7.470   7.358
 4576POPC   NC359231   1.775  24.939   5.327
 4576POPC   PO459232   2.082  25.491   4.998
 4576POPC   GL159233   2.069  25.347   5.526
 4576POPC   GL259234   2.254  25.557   5.813
 4576POPC   C1A59235   1.972  25.114   5.980
 4576POPC   D2A59236   1.736  25.062   6.422
 4576POPC   C3A59237   1.892  24.987   6.886
 4576POPC   C4A59238   1.858  25.221   7.298
 4576POPC   C1B59239   1.989  25.558   6.239
 4576POPC   C2B59240   1.917  25.476   6.708
 4576POPC   C3B59241   2.047  25.696   7.098
 4576POPC   C4B59242   1.969  25.703   7.552
 4577POPC   NC359243  25.759  28.338   5.349
 4577POPC   PO459244  25.152  28.573   5.250
 4577POPC   GL159245  25.410  28.592   5.649
 4577POPC   GL259246  25.416  28.211   5.702
 4577POPC   C1A59247  25.393  28.762   6.094
 4577POPC   D2A59248  25.276  28.538   6.477
 4577POPC   C3A59249  25.328  28.643   6.912
 4577POPC   C4A59250  25.126  28.374   7.197
 4577POPC   C1B59251  25.571  28.298   6.102
 4577POPC   C2B59252  25.587  28.102   6.451
 4577POPC   C3B59253  25.469  28.160   6.848
 4577POPC   C4B59254  25.665  28.302   7.212
 4578POPC   NC359255  14.134  38.666   5.554
 4578POPC   PO459256  14.654  38.284   5.500
 4578POPC   GL159257  14.423  38.360   5.887
 4578POPC   GL259258  14.437  38.706   5.963
 4578POPC   C1A59259  14.211  38.351   6.315
 4578POPC   D2A59260  13.990  38.331   6.745
 4578POPC   C3A59261  14.163  38.463   7.101
 4578POPC   C4A59262  14.581  38.447   7.188
 4578POPC   C1B59263  14.044  38.815   6.186
 4578POPC   C2B59264  14.130  38.789   6.604
 4578POPC   C3B59265  14.269  38.940   6.981
 4578POPC   C4B59266  14.339  38.869   7.396
 4579POPC   NC359267   9.970  36.082   5.353
 4579POPC   PO459268   9.423  36.461   5.471
 4579POPC   GL159269   9.526  36.094   5.695
 4579POPC   GL259270   9.438  35.760   5.568
 4579POPC   C1A59271   9.803  35.920   6.012
 4579POPC   D2A59272   9.956  36.087   6.397
 4579POPC   C3A59273   9.777  36.201   6.812
 4579POPC   C4A59274   9.838  35.963   7.196
 4579POPC   C1B59275   9.325  35.731   6.021
 4579POPC   C2B59276   9.470  35.916   6.417
 4579POPC   C3B59277   9.472  35.790   6.828
 4579POPC   C4B59278   9.331  35.844   7.226
 4580POPC   NC359279   1.141  36.478   5.386
 4580POPC   PO459280   0.752  35.897   5.384
 4580POPC   GL159281   1.057  36.042   5.682
 4580POPC   GL259282   1.011  36.354   5.852
 4580POPC   C1A59283   1.167  35.926   6.105
 4580POPC   D2A59284   0.999  35.898   6.522
 4580POPC   C3A59285   1.142  36.201   6.804
 4580POPC   C4A59286   1.081  36.220   7.252
 4580POPC   C1B59287   1.363  36.387   6.152
 4580POPC   C2B59288   1.488  36.541   6.556
 4580POPC   C3B59289   1.436  36.569   7.002
 4580POPC   C4B59290   1.470  36.498   7.454
 4581POPC   NC359291  31.179   6.433   5.357
 4581POPC   PO459292  31.404   7.043   5.257
 4581POPC   GL159293  31.355   6.787   5.690
 4581POPC   GL259294  31.351   6.415   5.850
 4581POPC   C1A59295  31.481   6.829   6.116
 4581POPC   D2A59296  31.537   6.864   6.554
 4581POPC   C3A59297  31.716   6.807   6.984
 4581POPC   C4A59298  31.570   7.014   7.367
 4581POPC   C1B59299  31.405   6.354   6.343
 4581POPC   C2B59300  31.406   6.406   6.808
 4581POPC   C3B59301  31.311   6.603   7.226
 4581POPC   C4B59302  31.297   6.386   7.637
 4582POPC   NC359303  32.587  24.428   5.403
 4582POPC   PO459304  31.956  24.777   5.469
 4582POPC   GL159305  32.258  24.591   5.761
 4582POPC   GL259306  32.151  24.284   5.805
 4582POPC   C1A59307  32.341  24.660   6.215
 4582POPC   D2A59308  32.182  24.576   6.648
 4582POPC   C3A59309  32.143  24.552   7.118
 4582POPC   C4A59310  32.081  24.776   7.522
 4582POPC   C1B59311  32.361  24.124   6.205
 4582POPC   C2B59312  32.393  23.899   6.586
 4582POPC   C3B59313  32.427  24.170   6.927
 4582POPC   C4B59314  32.727  24.243   7.250
 4583POPC   NC359315  13.160  21.349   5.358
 4583POPC   PO459316  12.491  21.249   5.392
 4583POPC   GL159317  12.748  21.477   5.743
 4583POPC   GL259318  13.096  21.617   5.772
 4583POPC   C1A59319  12.875  21.324   6.157
 4583POPC   D2A59320  12.701  21.433   6.562
 4583POPC   C3A59321  12.819  21.181   6.895
 4583POPC   C4A59322  12.700  21.176   7.295
 4583POPC   C1B59323  13.320  21.597   6.159
 4583POPC   C2B59324  13.251  21.370   6.545
 4583POPC   C3B59325  13.073  21.625   6.843
 4583POPC   C4B59326  12.824  21.654   7.181
 4584POPC   NC359327  14.741  30.828   5.284
 4584POPC   PO459328  14.195  30.552   5.363
 4584POPC   GL159329  14.344  30.355   5.777
 4584POPC   GL259330  14.628  30.496   5.963
 4584POPC   C1A59331  14.205  30.361   6.239
 4584POPC   D2A59332  14.050  30.437   6.691
 4584POPC   C3A59333  14.348  30.404   7.074
 4584POPC   C4A59334  14.572  30.461   7.475
 4584POPC   C1B59335  14.516  30.774   6.334
 4584POPC   C2B59336  14.368  30.837   6.775
 4584POPC   C3B59337  14.479  30.898   7.226
 4584POPC   C4B59338  14.817  30.898   7.582
 4585POPC   NC359339  31.857  29.954   5.545
 4585POPC   PO459340  31.383  29.538   5.447
 4585POPC   GL159341  31.410  29.834   5.785
 4585POPC   GL259342  31.393  30.186   5.639
 4585POPC   C1A59343  31.617  29.926   6.203
 4585POPC   D2A59344  31.577  29.808   6.659
 4585POPC   C3A59345  31.691  29.952   7.074
 4585POPC   C4A59346  31.686  29.730   7.464
 4585POPC   C1B59347  31.162  30.201   6.051
 4585POPC   C2B59348  31.163  30.062   6.469
 4585POPC   C3B59349  31.188  30.055   6.910
 4585POPC   C4B59350  31.371  30.311   7.233
 4586POPC   NC359351  17.498  43.497   5.407
 4586POPC   PO459352  17.856  44.069   5.525
 4586POPC   GL159353  17.670  43.838   5.860
 4586POPC   GL259354  17.321  43.784   5.789
 4586POPC   C1A59355  17.663  43.941   6.304
 4586POPC   D2A59356  17.696  44.101   6.717
 4586POPC   C3A59357  17.541  43.811   7.027
 4586POPC   C4A59358  17.629  43.993   7.398
 4586POPC   C1B59359  17.165  43.910   6.178
 4586POPC   C2B59360  17.229  43.895   6.619
 4586POPC   C3B59361  17.112  44.062   7.020
 4586POPC   C4B59362  17.169  43.832   7.428
 4587POPC   NC359363  41.943   9.889   5.224
 4587POPC   PO459364  41.429   9.459   5.222
 4587POPC   GL159365  41.326   9.398   5.716
 4587POPC   GL259366  41.462   9.691   5.928
 4587POPC   C1A59367  41.417   9.282   6.198
 4587POPC   D2A59368  41.685   9.408   6.552
 4587POPC   C3A59369  41.439   9.531   6.888
 4587POPC   C4A59370  41.441   9.915   7.110
 4587POPC   C1B59371  41.639  10.015   6.185
 4587POPC   C2B59372  41.743   9.938   6.611
 4587POPC   C3B59373  41.930   9.830   6.987
 4587POPC   C4B59374  42.032   9.914   7.391
 4588POPC   NC359375  20.173  43.652   5.241
 4588POPC   PO459376  19.498  43.928   5.268
 4588POPC   GL159377  19.835  43.899   5.591
 4588POPC   GL259378  19.559  43.986   5.781
 4588POPC   C1A59379  19.988  43.924   6.060
 4588POPC   D2A59380  19.852  43.670   6.453
 4588POPC   C3A59381  20.027  43.716   6.884
 4588POPC   C4A59382  20.015  43.933   7.292
 4588POPC   C1B59383  19.462  43.882   6.174
 4588POPC   C2B59384  19.393  44.102   6.561
 4588POPC   C3B59385  19.630  44.037   6.951
 4588POPC   C4B59386  19.617  43.638   7.233
 4589POPC   NC359387  31.377   3.675   5.298
 4589POPC   PO459388  30.731   3.595   5.469
 4589POPC   GL159389  30.743   3.485   5.883
 4589POPC   GL259390  30.433   3.646   5.925
 4589POPC   C1A59391  30.858   3.243   6.262
 4589POPC   D2A59392  31.025   3.035   6.644
 4589POPC   C3A59393  31.150   3.322   6.989
 4589POPC   C4A59394  31.041   3.348   7.438
 4589POPC   C1B59395  30.603   3.700   6.346
 4589POPC   C2B59396  30.772   3.511   6.701
 4589POPC   C3B59397  30.658   3.492   7.120
 4589POPC   C4B59398  30.255   3.632   7.278
 4590POPC   NC359399   2.254  21.140   5.522
 4590POPC   PO459400   1.780  21.599   5.397
 4590POPC   GL159401   1.917  21.660   5.796
 4590POPC   GL259402   1.613  21.724   5.951
 4590POPC   C1A59403   2.044  21.517   6.186
 4590POPC   D2A59404   2.087  21.281   6.570
 4590POPC   C3A59405   2.338  21.548   6.813
 4590POPC   C4A59406   2.147  21.775   7.143
 4590POPC   C1B59407   1.565  21.410   6.292
 4590POPC   C2B59408   1.598  21.367   6.704
 4590POPC   C3B59409   1.710  21.424   7.104
 4590POPC   C4B59410   1.437  21.342   7.460
 4591POPC   NC359411  29.791  20.357   5.310
 4591POPC   PO459412  30.390  20.679   5.420
 4591POPC   GL159413  30.143  20.745   5.763
 4591POPC   GL259414  29.820  20.797   5.581
 4591POPC   C1A59415  30.292  20.674   6.186
 4591POPC   D2A59416  30.321  20.436   6.539
 4591POPC   C3A59417  30.087  20.520   6.898
 4591POPC   C4A59418  30.260  20.606   7.287
 4591POPC   C1B59419  29.698  20.816   6.017
 4591POPC   C2B59420  29.678  20.816   6.461
 4591POPC   C3B59421  29.642  20.814   6.904
 4591POPC   C4B59422  29.748  20.619   7.286
 4592POPC   NC359423  16.179  19.449   5.478
 4592POPC   PO459424  15.619  19.958   5.505
 4592POPC   GL159425  15.887  19.936   5.884
 4592POPC   GL259426  16.190  19.774   5.882
 4592POPC   C1A59427  16.042  20.085   6.271
 4592POPC   D2A59428  15.848  20.162   6.665
 4592POPC   C3A59429  15.818  19.994   7.067
 4592POPC   C4A59430  15.514  19.713   7.132
 4592POPC   C1B59431  16.333  19.636   6.264
 4592POPC   C2B59432  16.525  19.728   6.635
 4592POPC   C3B59433  16.323  19.881   6.980
 4592POPC   C4B59434  16.179  19.758   7.419
 4593POPC   NC359435   4.228  26.535   5.416
 4593POPC   PO459436   4.546  25.909   5.239
 4593POPC   GL159437   4.363  26.091   5.619
 4593POPC   GL259438   4.600  26.353   5.735
 4593POPC   C1A59439   4.182  26.101   6.052
 4593POPC   D2A59440   4.180  26.041   6.519
 4593POPC   C3A59441   4.537  25.894   6.797
 4593POPC   C4A59442   4.538  26.024   7.220
 4593POPC   C1B59443   4.576  26.477   6.186
 4593POPC   C2B59444   4.615  26.368   6.627
 4593POPC   C3B59445   4.536  26.523   7.072
 4593POPC   C4B59446   4.569  26.536   7.540
 4594POPC   NC359447   5.754   1.520   5.444
 4594POPC   PO459448   6.034   2.122   5.269
 4594POPC   GL159449   5.931   1.972   5.667
 4594POPC   GL259450   6.162   1.683   5.754
 4594POPC   C1A59451   5.731   1.937   6.075
 4594POPC   D2A59452   5.559   2.063   6.474
 4594POPC   C3A59453   5.625   1.836   6.861
 4594POPC   C4A59454   5.754   2.041   7.216
 4594POPC   C1B59455   6.273   1.874   6.160
 4594POPC   C2B59456   6.076   1.886   6.580
 4594POPC   C3B59457   6.203   1.805   7.008
 4594POPC   C4B59458   6.248   2.071   7.325
 4595POPC   NC359459  11.866  22.575   5.333
 4595POPC   PO459460  12.293  23.162   5.432
 4595POPC   GL159461  11.945  22.976   5.704
 4595POPC   GL259462  11.786  22.640   5.814
 4595POPC   C1A59463  11.992  23.044   6.148
 4595POPC   D2A59464  12.195  23.096   6.519
 4595POPC   C3A59465  12.098  23.236   6.943
 4595POPC   C4A59466  12.133  23.031   7.348
 4595POPC   C1B59467  11.990  22.542   6.161
 4595POPC   C2B59468  11.893  22.686   6.546
 4595POPC   C3B59469  11.907  22.526   6.950
 4595POPC   C4B59470  11.778  22.680   7.319
 4596POPC   NC359471   6.229  31.390   5.419
 4596POPC   PO459472   6.809  31.752   5.341
 4596POPC   GL159473   6.475  31.737   5.698
 4596POPC   GL259474   6.159  31.875   5.885
 4596POPC   C1A59475   6.550  31.592   6.125
 4596POPC   D2A59476   6.757  31.719   6.516
 4596POPC   C3A59477   6.814  31.449   6.886
 4596POPC   C4A59478   6.976  31.579   7.278
 4596POPC   C1B59479   6.102  31.664   6.331
 4596POPC   C2B59480   6.321  31.502   6.716
 4596POPC   C3B59481   6.418  31.644   7.151
 4596POPC   C4B59482   6.318  31.682   7.571
 4597POPC   NC359483  42.171   6.394   5.192
 4597POPC   PO459484  42.782   6.600   5.495
 4597POPC   GL159485  42.444   6.695   5.805
 4597POPC   GL259486  42.206   6.932   5.714
 4597POPC   C1A59487  42.522   6.728   6.240
 4597POPC   D2A59488  42.342   6.457   6.570
 4597POPC   C3A59489  42.539   6.538   6.942
 4597POPC   C4A59490  42.449   6.354   7.283
 4597POPC   C1B59491  42.049   6.839   6.167
 4597POPC   C2B59492  42.247   6.927   6.611
 4597POPC   C3B59493  42.359   7.025   7.024
 4597POPC   C4B59494  42.103   6.773   7.211
 4598POPC   NC359495   3.778  18.318   5.438
 4598POPC   PO459496   3.180  18.242   5.238
 4598POPC   GL159497   3.332  18.410   5.688
 4598POPC   GL259498   3.683  18.525   5.886
 4598POPC   C1A59499   3.281  18.314   6.129
 4598POPC   D2A59500   3.502  18.379   6.513
 4598POPC   C3A59501   3.335  18.209   6.885
 4598POPC   C4A59502   3.608  18.236   7.219
 4598POPC   C1B59503   3.923  18.288   6.203
 4598POPC   C2B59504   4.037  18.085   6.604
 4598POPC   C3B59505   4.107  18.204   7.025
 4598POPC   C4B59506   4.010  18.374   7.489
 4599POPC   NC359507   4.929   1.380   5.186
 4599POPC   PO459508   5.344   0.902   5.212
 4599POPC   GL159509   5.268   0.906   5.756
 4599POPC   GL259510   4.947   1.107   5.898
 4599POPC   C1A59511   5.343   1.121   6.181
 4599POPC   D2A59512   5.121   1.239   6.562
 4599POPC   C3A59513   5.411   1.348   6.886
 4599POPC   C4A59514   5.361   1.262   7.297
 4599POPC   C1B59515   4.734   1.392   6.228
 4599POPC   C2B59516   4.685   1.568   6.657
 4599POPC   C3B59517   4.915   1.436   7.035
 4599POPC   C4B59518   4.807   1.162   7.383
 4600POPC   NC359519  38.957  17.435   5.423
 4600POPC   PO459520  38.331  17.635   5.299
 4600POPC   GL159521  38.471  17.473   5.715
 4600POPC   GL259522  38.766  17.385   5.877
 4600POPC   C1A59523  38.336  17.436   6.173
 4600POPC   D2A59524  38.127  17.624   6.531
 4600POPC   C3A59525  38.255  17.523   6.952
 4600POPC   C4A59526  38.043  17.675   7.268
 4600POPC   C1B59527  38.802  17.661   6.211
 4600POPC   C2B59528  38.624  17.647   6.603
 4600POPC   C3B59529  38.765  17.592   7.020
 4600POPC   C4B59530  38.711  17.184   7.180
 4601POPC   NC359531   1.414  13.891   5.304
 4601POPC   PO459532   0.934  13.540   5.511
 4601POPC   GL159533   1.200  13.707   5.807
 4601POPC   GL259534   1.564  13.634   5.735
 4601POPC   C1A59535   1.136  13.800   6.242
 4601POPC   D2A59536   1.199  14.016   6.628
 4601POPC   C3A59537   1.157  13.766   6.975
 4601POPC   C4A59538   1.060  13.693   7.406
 4601POPC   C1B59539   1.477  13.419   6.145
 4601POPC   C2B59540   1.473  13.555   6.581
 4601POPC   C3B59541   1.518  13.385   7.012
 4601POPC   C4B59542   1.481  13.393   7.466
 4602POPC   NC359543  39.405  40.573   5.479
 4602POPC   PO459544  38.790  40.818   5.585
 4602POPC   GL159545  39.028  40.718   5.942
 4602POPC   GL259546  39.353  40.872   5.900
 4602POPC   C1A59547  39.050  40.893   6.369
 4602POPC   D2A59548  39.280  41.153   6.719
 4602POPC   C3A59549  39.373  40.880   7.056
 4602POPC   C4A59550  39.008  40.591   7.157
 4602POPC   C1B59551  39.486  40.644   6.258
 4602POPC   C2B59552  39.303  40.546   6.664
 4602POPC   C3B59553  39.416  40.323   7.038
 4602POPC   C4B59554  39.544  40.437   7.477
 4603POPC   NC359555  27.820   2.945   5.288
 4603POPC   PO459556  27.431   2.388   5.424
 4603POPC   GL159557  27.557   2.729   5.737
 4603POPC   GL259558  27.897   2.872   5.778
 4603POPC   C1A59559  27.548   2.808   6.184
 4603POPC   D2A59560  27.682   2.475   6.457
 4603POPC   C3A59561  27.448   2.482   6.808
 4603POPC   C4A59562  27.423   2.797   7.127
 4603POPC   C1B59563  28.054   2.855   6.196
 4603POPC   C2B59564  27.930   2.945   6.627
 4603POPC   C3B59565  27.919   2.703   7.020
 4603POPC   C4B59566  27.949   2.654   7.474
 4604POPC   NC359567   7.733   5.349   5.295
 4604POPC   PO459568   7.168   4.988   5.421
 4604POPC   GL159569   7.363   4.933   5.807
 4604POPC   GL259570   7.685   5.110   5.761
 4604POPC   C1A59571   7.477   4.928   6.240
 4604POPC   D2A59572   7.585   4.700   6.582
 4604POPC   C3A59573   7.518   4.981   6.867
 4604POPC   C4A59574   7.551   4.749   7.177
 4604POPC   C1B59575   7.500   5.413   6.060
 4604POPC   C2B59576   7.575   5.423   6.520
 4604POPC   C3B59577   7.366   5.478   6.926
 4604POPC   C4B59578   7.325   5.226   7.302
 4605POPC   NC359579  22.604  25.869   5.037
 4605POPC   PO459580  23.084  26.107   5.457
 4605POPC   GL159581  22.757  26.052   5.805
 4605POPC   GL259582  23.045  25.933   5.993
 4605POPC   C1A59583  22.604  25.906   6.226
 4605POPC   D2A59584  22.809  26.033   6.618
 4605POPC   C3A59585  22.684  25.890   7.012
 4605POPC   C4A59586  22.754  26.101   7.417
 4605POPC   C1B59587  23.238  26.098   6.325
 4605POPC   C2B59588  23.321  25.929   6.723
 4605POPC   C3B59589  23.151  26.124   7.080
 4605POPC   C4B59590  23.272  26.234   7.505
 4606POPC   NC359591   2.582  18.880   5.383
 4606POPC   PO459592   3.015  19.345   5.175
 4606POPC   GL159593   3.007  19.264   5.681
 4606POPC   GL259594   2.708  19.092   5.822
 4606POPC   C1A59595   3.033  19.198   6.193
 4606POPC   D2A59596   3.178  19.124   6.659
 4606POPC   C3A59597   2.859  19.108   7.019
 4606POPC   C4A59598   2.625  19.514   7.057
 4606POPC   C1B59599   2.622  18.826   6.189
 4606POPC   C2B59600   2.389  18.837   6.574
 4606POPC   C3B59601   2.565  18.678   6.903
 4606POPC   C4B59602   2.608  18.738   7.300
 4607POPC   NC359603  22.510   3.947   5.443
 4607POPC   PO459604  22.037   4.450   5.512
 4607POPC   GL159605  22.403   4.353   5.761
 4607POPC   GL259606  22.433   4.015   5.952
 4607POPC   C1A59607  22.580   4.465   6.151
 4607POPC   D2A59608  22.533   4.229   6.517
 4607POPC   C3A59609  22.526   4.422   6.917
 4607POPC   C4A59610  22.422   4.126   7.256
 4607POPC   C1B59611  22.110   4.279   6.188
 4607POPC   C2B59612  21.874   4.375   6.541
 4607POPC   C3B59613  22.061   4.246   6.889
 4607POPC   C4B59614  21.914   4.059   7.247
 4608POPC   NC359615   0.130  25.657   5.372
 4608POPC   PO459616   0.768  25.837   5.497
 4608POPC   GL159617   0.597  25.788   5.884
 4608POPC   GL259618   0.303  25.951   5.783
 4608POPC   C1A59619   0.670  25.973   6.294
 4608POPC   D2A59620   0.641  26.194   6.668
 4608POPC   C3A59621   0.715  25.987   7.066
 4608POPC   C4A59622   0.728  26.187   7.490
 4608POPC   C1B59623   0.199  26.134   6.170
 4608POPC   C2B59624   0.083  26.174   6.588
 4608POPC   C3B59625   0.214  26.150   6.996
 4608POPC   C4B59626   0.290  25.958   7.356
 4609POPC   NC359627   2.654  28.195   5.479
 4609POPC   PO459628   3.137  28.669   5.402
 4609POPC   GL159629   3.100  28.465   5.812
 4609POPC   GL259630   3.042  28.096   5.845
 4609POPC   C1A59631   2.851  28.594   6.174
 4609POPC   D2A59632   2.583  28.456   6.535
 4609POPC   C3A59633   2.608  28.404   6.975
 4609POPC   C4A59634   2.962  28.490   7.212
 4609POPC   C1B59635   2.997  28.134   6.324
 4609POPC   C2B59636   2.820  27.973   6.717
 4609POPC   C3B59637   2.785  27.952   7.175
 4609POPC   C4B59638   2.631  28.184   7.495
 4610POPC   NC359639  20.541  36.313   5.337
 4610POPC   PO459640  20.782  37.004   5.267
 4610POPC   GL159641  20.865  36.703   5.613
 4610POPC   GL259642  20.503  36.703   5.681
 4610POPC   C1A59643  20.799  36.639   6.086
 4610POPC   D2A59644  20.660  36.824   6.468
 4610POPC   C3A59645  20.594  36.584   6.835
 4610POPC   C4A59646  20.728  36.686   7.230
 4610POPC   C1B59647  20.391  36.980   6.028
 4610POPC   C2B59648  20.157  36.927   6.410
 4610POPC   C3B59649  20.315  37.039   6.820
 4610POPC   C4B59650  20.267  36.886   7.223
 4611POPC   NC359651  32.847  40.485   4.977
 4611POPC   PO459652  33.190  40.169   5.442
 4611POPC   GL159653  33.038  40.069   5.841
 4611POPC   GL259654  33.363  39.985   5.931
 4611POPC   C1A59655  32.949  39.762   6.200
 4611POPC   D2A59656  32.709  39.696   6.622
 4611POPC   C3A59657  32.872  40.007   6.948
 4611POPC   C4A59658  32.746  40.367   7.200
 4611POPC   C1B59659  33.300  40.124   6.368
 4611POPC   C2B59660  33.224  40.373   6.742
 4611POPC   C3B59661  33.260  40.298   7.160
 4611POPC   C4B59662  33.364  39.871   7.263
 4612POPC   NC359663  14.167  41.004   5.588
 4612POPC   PO459664  14.453  41.589   5.319
 4612POPC   GL159665  14.459  41.655   5.780
 4612POPC   GL259666  14.546  41.293   5.813
 4612POPC   C1A59667  14.249  41.708   6.212
 4612POPC   D2A59668  14.172  41.502   6.621
 4612POPC   C3A59669  14.177  41.783   6.990
 4612POPC   C4A59670  14.497  41.888   7.329
 4612POPC   C1B59671  14.392  41.206   6.236
 4612POPC   C2B59672  14.312  40.998   6.648
 4612POPC   C3B59673  14.361  41.166   7.091
 4612POPC   C4B59674  14.519  41.413   7.466
 4613POPC   NC359675  21.783   9.560   5.038
 4613POPC   PO459676  22.329   9.869   5.300
 4613POPC   GL159677  22.263   9.836   5.737
 4613POPC   GL259678  21.941   9.667   5.733
 4613POPC   C1A59679  22.244   9.647   6.168
 4613POPC   D2A59680  22.030   9.659   6.577
 4613POPC   C3A59681  22.214   9.905   6.921
 4613POPC   C4A59682  22.440   9.951   7.295
 4613POPC   C1B59683  21.737   9.801   6.134
 4613POPC   C2B59684  21.649  10.007   6.530
 4613POPC   C3B59685  21.709   9.828   6.948
 4613POPC   C4B59686  21.934   9.584   7.247
 4614POPC   NC359687   3.380  29.894   5.366
 4614POPC   PO459688   3.612  30.418   5.602
 4614POPC   GL159689   3.674  29.961   5.805
 4614POPC   GL259690   3.338  29.780   5.856
 4614POPC   C1A59691   3.722  29.732   6.219
 4614POPC   D2A59692   3.502  29.736   6.640
 4614POPC   C3A59693   3.632  29.987   7.023
 4614POPC   C4A59694   3.773  29.850   7.449
 4614POPC   C1B59695   3.284  30.055   6.196
 4614POPC   C2B59696   3.075  30.084   6.574
 4614POPC   C3B59697   3.202  30.291   6.951
 4614POPC   C4B59698   3.264  30.141   7.367
 4615POPC   NC359699  36.422  14.724   5.495
 4615POPC   PO459700  36.028  14.279   5.232
 4615POPC   GL159701  36.096  14.372   5.673
 4615POPC   GL259702  35.815  14.530   5.759
 4615POPC   C1A59703  36.235  14.258   6.111
 4615POPC   D2A59704  36.285  14.025   6.526
 4615POPC   C3A59705  36.314  14.267   6.941
 4615POPC   C4A59706  36.122  14.403   7.376
 4615POPC   C1B59707  35.893  14.660   6.167
 4615POPC   C2B59708  36.054  14.502   6.557
 4615POPC   C3B59709  35.821  14.448   6.935
 4615POPC   C4B59710  35.748  14.732   7.282
 4616POPC   NC359711   0.553  28.553   5.519
 4616POPC   PO459712  44.986  28.232   5.296
 4616POPC   GL159713   0.107  28.355   5.751
 4616POPC   GL259714   0.356  28.626   5.965
 4616POPC   C1A59715   0.178  28.217   6.166
 4616POPC   D2A59716   0.472  28.463   6.448
 4616POPC   C3A59717   0.413  28.447   6.887
 4616POPC   C4A59718   0.044  28.406   7.167
 4616POPC   C1B59719   0.681  28.873   6.206
 4616POPC   C2B59720   0.872  28.802   6.616
 4616POPC   C3B59721   0.691  28.891   7.009
 4616POPC   C4B59722   0.464  28.710   7.329
 4617POPC   NC359723  19.731   0.810   5.497
 4617POPC   PO459724  19.909   0.159   5.550
 4617POPC   GL159725  19.746   0.421   5.854
 4617POPC   GL259726  20.076   0.558   5.876
 4617POPC   C1A59727  19.715   0.618   6.253
 4617POPC   D2A59728  19.924   0.703   6.644
 4617POPC   C3A59729  19.610   0.530   6.935
 4617POPC   C4A59730  19.467   0.529   7.351
 4617POPC   C1B59731  20.105   0.261   6.255
 4617POPC   C2B59732  20.131   0.245   6.720
 4617POPC   C3B59733  20.068   0.417   7.097
 4617POPC   C4B59734  19.792   0.141   7.268
 4618POPC   NC359735  17.503  28.039   5.385
 4618POPC   PO459736  17.354  27.365   5.323
 4618POPC   GL159737  17.493  27.636   5.711
 4618POPC   GL259738  17.240  27.886   5.822
 4618POPC   C1A59739  17.688  27.760   6.123
 4618POPC   D2A59740  17.801  28.021   6.492
 4618POPC   C3A59741  17.733  27.791   6.905
 4618POPC   C4A59742  17.591  27.533   7.258
 4618POPC   C1B59743  17.178  27.723   6.216
 4618POPC   C2B59744  17.314  27.860   6.615
 4618POPC   C3B59745  17.194  27.800   7.036
 4618POPC   C4B59746  17.128  27.668   7.451
 4619POPC   NC359747   9.796  34.334   5.408
 4619POPC   PO459748   9.430  34.927   5.485
 4619POPC   GL159749   9.754  34.762   5.794
 4619POPC   GL259750  10.098  34.632   5.830
 4619POPC   C1A59751   9.754  34.852   6.249
 4619POPC   D2A59752   9.482  34.785   6.611
 4619POPC   C3A59753   9.589  34.603   7.013
 4619POPC   C4A59754   9.782  34.551   7.427
 4619POPC   C1B59755  10.158  34.504   6.274
 4619POPC   C2B59756  10.021  34.573   6.718
 4619POPC   C3B59757  10.214  34.543   7.146
 4619POPC   C4B59758  10.215  34.348   7.630
 4620POPC   NC359759  11.449  32.809   5.292
 4620POPC   PO459760  10.915  33.319   5.145
 4620POPC   GL159761  10.974  33.105   5.560
 4620POPC   GL259762  11.310  33.141   5.661
 4620POPC   C1A59763  10.966  33.105   6.043
 4620POPC   D2A59764  11.164  32.975   6.449
 4620POPC   C3A59765  11.033  32.945   6.898
 4620POPC   C4A59766  11.181  32.817   7.296
 4620POPC   C1B59767  11.481  33.105   6.067
 4620POPC   C2B59768  11.644  33.092   6.457
 4620POPC   C3B59769  11.554  32.942   6.836
 4620POPC   C4B59770  11.705  32.932   7.240
 4621POPC   NC359771  39.959  34.864   5.309
 4621POPC   PO459772  40.381  34.379   5.458
 4621POPC   GL159773  40.306  34.567   5.868
 4621POPC   GL259774  40.002  34.748   5.807
 4621POPC   C1A59775  40.235  34.742   6.295
 4621POPC   D2A59776  40.319  34.600   6.718
 4621POPC   C3A59777  40.279  34.792   7.130
 4621POPC   C4A59778  40.413  34.546   7.509
 4621POPC   C1B59779  39.742  34.715   6.168
 4621POPC   C2B59780  39.787  34.442   6.530
 4621POPC   C3B59781  39.824  34.544   6.967
 4621POPC   C4B59782  39.810  34.492   7.402
 4622POPC   NC359783  21.923  21.113   5.646
 4622POPC   PO459784  22.206  21.622   5.312
 4622POPC   GL159785  22.253  21.510   5.745
 4622POPC   GL259786  21.942  21.594   5.865
 4622POPC   C1A59787  22.261  21.357   6.202
 4622POPC   D2A59788  22.452  21.562   6.577
 4622POPC   C3A59789  22.326  21.373   6.962
 4622POPC   C4A59790  22.330  21.036   7.258
 4622POPC   C1B59791  21.878  21.703   6.305
 4622POPC   C2B59792  21.948  21.661   6.769
 4622POPC   C3B59793  21.862  21.763   7.215
 4622POPC   C4B59794  21.660  21.947   7.602
 4623POPC   NC359795  25.801  35.500   5.338
 4623POPC   PO459796  26.449  35.529   5.371
 4623POPC   GL159797  26.201  35.288   5.728
 4623POPC   GL259798  25.912  35.438   5.830
 4623POPC   C1A59799  26.064  35.084   6.170
 4623POPC   D2A59800  26.057  35.282   6.600
 4623POPC   C3A59801  25.995  35.064   7.022
 4623POPC   C4A59802  25.895  35.141   7.465
 4623POPC   C1B59803  25.858  35.617   6.227
 4623POPC   C2B59804  25.816  35.771   6.642
 4623POPC   C3B59805  25.993  35.634   7.026
 4623POPC   C4B59806  25.719  35.817   7.295
 4624POPC   NC359807  32.278  10.861   5.122
 4624POPC   PO459808  32.214  10.199   5.398
 4624POPC   GL159809  32.388  10.394   5.781
 4624POPC   GL259810  32.270  10.691   5.843
 4624POPC   C1A59811  32.144  10.352   6.209
 4624POPC   D2A59812  31.931  10.310   6.637
 4624POPC   C3A59813  32.164  10.476   6.989
 4624POPC   C4A59814  32.554  10.578   7.200
 4624POPC   C1B59815  32.031  10.873   6.110
 4624POPC   C2B59816  32.075  10.792   6.559
 4624POPC   C3B59817  32.094  11.002   6.966
 4624POPC   C4B59818  32.032  10.801   7.373
 4625POPC   NC359819   9.356  22.661   5.535
 4625POPC   PO459820   9.579  23.280   5.404
 4625POPC   GL159821   9.661  23.019   5.777
 4625POPC   GL259822   9.966  22.799   5.823
 4625POPC   C1A59823   9.699  23.014   6.231
 4625POPC   D2A59824   9.618  22.675   6.549
 4625POPC   C3A59825   9.424  22.800   6.926
 4625POPC   C4A59826   9.226  23.019   7.255
 4625POPC   C1B59827  10.000  22.589   6.205
 4625POPC   C2B59828  10.137  22.641   6.641
 4625POPC   C3B59829   9.929  22.753   7.021
 4625POPC   C4B59830   9.723  23.146   7.166
 4626POPC   NC359831  37.352  43.360   5.428
 4626POPC   PO459832  37.824  42.892   5.320
 4626POPC   GL159833  37.736  43.054   5.747
 4626POPC   GL259834  37.843  43.410   5.765
 4626POPC   C1A59835  37.589  42.929   6.178
 4626POPC   D2A59836  37.620  42.698   6.564
 4626POPC   C3A59837  37.565  42.935   6.904
 4626POPC   C4A59838  37.797  42.912   7.282
 4626POPC   C1B59839  37.493  43.415   6.067
 4626POPC   C2B59840  37.418  43.336   6.490
 4626POPC   C3B59841  37.304  43.398   6.890
 4626POPC   C4B59842  37.382  43.212   7.277
 4627POPC   NC359843   1.764  26.412   5.506
 4627POPC   PO459844   1.880  27.079   5.455
 4627POPC   GL159845   2.059  26.939   5.802
 4627POPC   GL259846   2.239  27.270   5.845
 4627POPC   C1A59847   2.161  26.596   6.099
 4627POPC   D2A59848   2.011  26.460   6.512
 4627POPC   C3A59849   1.923  26.737   6.869
 4627POPC   C4A59850   1.964  26.573   7.281
 4627POPC   C1B59851   2.161  27.096   6.256
 4627POPC   C2B59852   2.295  27.033   6.644
 4627POPC   C3B59853   2.224  27.172   7.030
 4627POPC   C4B59854   2.177  27.016   7.457
 4628POPC   NC359855  22.594  39.353   5.606
 4628POPC   PO459856  23.204  39.100   5.432
 4628POPC   GL159857  23.027  38.943   5.833
 4628POPC   GL259858  22.961  39.274   5.961
 4628POPC   C1A59859  22.976  38.882   6.303
 4628POPC   D2A59860  22.992  39.321   6.472
 4628POPC   C3A59861  22.919  39.344   6.882
 4628POPC   C4A59862  22.975  39.060   7.177
 4628POPC   C1B59863  22.573  39.149   6.217
 4628POPC   C2B59864  22.592  39.023   6.630
 4628POPC   C3B59865  22.500  38.887   6.997
 4628POPC   C4B59866  22.534  39.277   7.240
 4629POPC   NC359867   8.504   3.687   5.262
 4629POPC   PO459868   9.002   3.237   5.237
 4629POPC   GL159869   9.057   3.340   5.711
 4629POPC   GL259870   9.144   3.651   5.857
 4629POPC   C1A59871   8.853   3.361   6.158
 4629POPC   D2A59872   8.729   3.276   6.593
 4629POPC   C3A59873   8.965   3.469   6.949
 4629POPC   C4A59874   8.781   3.368   7.360
 4629POPC   C1B59875   9.362   3.642   6.258
 4629POPC   C2B59876   9.303   3.860   6.655
 4629POPC   C3B59877   9.387   3.855   7.088
 4629POPC   C4B59878   9.105   3.747   7.385
 4630POPC   NC359879  41.743  27.021   5.635
 4630POPC   PO459880  41.386  26.735   5.148
 4630POPC   GL159881  41.231  26.930   5.626
 4630POPC   GL259882  41.352  27.167   5.913
 4630POPC   C1A59883  41.216  26.769   6.153
 4630POPC   D2A59884  41.305  26.968   6.574
 4630POPC   C3A59885  41.343  26.688   6.913
 4630POPC   C4A59886  41.278  26.873   7.298
 4630POPC   C1B59887  41.692  26.918   6.257
 4630POPC   C2B59888  41.848  26.784   6.689
 4630POPC   C3B59889  41.738  26.971   7.111
 4630POPC   C4B59890  41.573  27.203   7.525
 4631POPC   NC359891   6.881  44.928   5.825
 4631POPC   PO459892   6.345  44.561   5.540
 4631POPC   GL159893   6.306  44.388   5.967
 4631POPC   GL259894   6.664  44.430   5.951
 4631POPC   C1A59895   6.385  44.451   6.441
 4631POPC   D2A59896   6.524  44.722   6.808
 4631POPC   C3A59897   6.330  44.777   7.211
 4631POPC   C4A59898   6.370  44.664   7.664
 4631POPC   C1B59899   6.972  44.418   6.280
 4631POPC   C2B59900   7.126  44.369   6.680
 4631POPC   C3B59901   6.931  44.490   7.040
 4631POPC   C4B59902   6.798  44.752   7.385
 4632POPC   NC359903  26.430  15.363   5.089
 4632POPC   PO459904  26.501  14.787   5.369
 4632POPC   GL159905  26.206  14.916   5.696
 4632POPC   GL259906  26.215  15.275   5.773
 4632POPC   C1A59907  26.135  14.858   6.143
 4632POPC   D2A59908  26.324  14.943   6.525
 4632POPC   C3A59909  26.145  14.931   6.893
 4632POPC   C4A59910  26.088  15.149   7.288
 4632POPC   C1B59911  26.045  15.374   6.197
 4632POPC   C2B59912  25.977  15.346   6.650
 4632POPC   C3B59913  25.894  15.555   7.061
 4632POPC   C4B59914  25.967  15.590   7.546
 4633POPC   NC359915   1.874  29.273   5.515
 4633POPC   PO459916   1.601  28.652   5.233
 4633POPC   GL159917   1.576  28.912   5.722
 4633POPC   GL259918   1.966  29.008   5.932
 4633POPC   C1A59919   1.556  29.128   6.154
 4633POPC   D2A59920   1.829  28.913   6.433
 4633POPC   C3A59921   1.944  29.072   6.813
 4633POPC   C4A59922   1.794  29.156   7.206
 4633POPC   C1B59923   2.124  29.322   6.261
 4633POPC   C2B59924   2.359  29.400   6.674
 4633POPC   C3B59925   2.265  29.364   7.113
 4633POPC   C4B59926   2.205  29.073   7.482
 4634POPC   NC359927  41.705  38.814   5.513
 4634POPC   PO459928  41.482  39.444   5.382
 4634POPC   GL159929  41.482  39.496   5.834
 4634POPC   GL259930  41.612  39.181   5.872
 4634POPC   C1A59931  41.331  39.322   6.274
 4634POPC   D2A59932  41.262  39.169   6.702
 4634POPC   C3A59933  41.498  39.447   6.987
 4634POPC   C4A59934  41.712  39.436   7.386
 4634POPC   C1B59935  41.900  39.222   6.229
 4634POPC   C2B59936  41.963  39.053   6.662
 4634POPC   C3B59937  41.637  38.953   6.997
 4634POPC   C4B59938  41.626  38.959   7.478
 4635POPC   NC359939  13.033   9.277   5.435
 4635POPC   PO459940  12.652   9.773   5.386
 4635POPC   GL159941  12.590   9.519   5.748
 4635POPC   GL259942  12.938   9.472   5.894
 4635POPC   C1A59943  12.567   9.666   6.167
 4635POPC   D2A59944  12.912   9.640   6.414
 4635POPC   C3A59945  12.779   9.556   6.818
 4635POPC   C4A59946  12.708   9.698   7.219
 4635POPC   C1B59947  13.231   9.813   6.048
 4635POPC   C2B59948  13.208  10.099   6.435
 4635POPC   C3B59949  13.188   9.859   6.850
 4635POPC   C4B59950  13.136  10.021   7.289
 4636POPC   NC359951  36.844  25.576   5.254
 4636POPC   PO459952  36.966  26.228   5.328
 4636POPC   GL159953  37.110  26.093   5.721
 4636POPC   GL259954  36.870  25.862   5.867
 4636POPC   C1A59955  37.160  26.236   6.151
 4636POPC   D2A59956  36.916  26.007   6.465
 4636POPC   C3A59957  36.953  26.104   6.890
 4636POPC   C4A59958  37.013  25.861   7.255
 4636POPC   C1B59959  36.518  25.859   6.184
 4636POPC   C2B59960  36.451  25.660   6.569
 4636POPC   C3B59961  36.617  25.721   6.958
 4636POPC   C4B59962  36.537  25.716   7.409
 4637POPC   NC359963  21.043  21.588   5.665
 4637POPC   PO459964  21.453  21.058   5.581
 4637POPC   GL159965  21.547  21.161   5.972
 4637POPC   GL259966  21.454  21.487   5.981
 4637POPC   C1A59967  21.763  21.156   6.343
 4637POPC   D2A59968  21.529  21.438   6.555
 4637POPC   C3A59969  21.491  21.480   6.974
 4637POPC   C4A59970  21.439  21.520   7.391
 4637POPC   C1B59971  21.307  21.806   6.288
 4637POPC   C2B59972  21.256  21.904   6.741
 4637POPC   C3B59973  21.366  21.961   7.171
 4637POPC   C4B59974  21.111  21.856   7.574
 4638POPC   NC359975  19.441  38.212   4.987
 4638POPC   PO459976  20.008  38.441   5.337
 4638POPC   GL159977  19.751  38.571   5.701
 4638POPC   GL259978  20.030  38.615   5.886
 4638POPC   C1A59979  19.590  38.598   6.155
 4638POPC   D2A59980  19.628  38.282   6.498
 4638POPC   C3A59981  19.737  38.432   6.916
 4638POPC   C4A59982  19.777  38.212   7.296
 4638POPC   C1B59983  20.068  38.492   6.338
 4638POPC   C2B59984  20.211  38.579   6.773
 4638POPC   C3B59985  20.228  38.417   7.172
 4638POPC   C4B59986  20.402  38.133   7.516
 4639POPC   NC359987   2.893  10.467   5.529
 4639POPC   PO459988   2.247  10.314   5.556
 4639POPC   GL159989   2.524  10.559   5.887
 4639POPC   GL259990   2.460  10.896   5.880
 4639POPC   C1A59991   2.904  10.610   6.226
 4639POPC   D2A59992   3.073  10.628   6.691
 4639POPC   C3A59993   3.024  10.316   7.028
 4639POPC   C4A59994   2.952  10.114   7.445
 4639POPC   C1B59995   2.535  10.939   6.279
 4639POPC   C2B59996   2.532  10.693   6.625
 4639POPC   C3B59997   2.565  10.818   7.018
 4639POPC   C4B59998   2.776  10.630   7.353
 4640POPC   NC359999  15.180  11.503   5.379
 4640POPC   PO460000  15.461  10.855   5.417
 4640POPC   GL160001  15.297  11.181   5.765
 4640POPC   GL260002  14.968  11.374   5.809
 4640POPC   C1A60003  15.318  11.137   6.238
 4640POPC   D2A60004  15.225  10.976   6.669
 4640POPC   C3A60005  15.334  11.185   7.091
 4640POPC   C4A60006  15.372  11.483   7.463
 4640POPC   C1B60007  15.013  11.527   6.172
 4640POPC   C2B60008  14.854  11.279   6.494
 4640POPC   C3B60009  14.838  11.207   6.932
 4640POPC   C4B60010  15.007  11.594   7.103
 4641POPC   NC360011  26.843  29.652   5.218
 4641POPC   PO460012  27.095  30.120   5.475
 4641POPC   GL160013  26.979  30.077   5.843
 4641POPC   GL260014  26.795  29.799   5.790
 4641POPC   C1A60015  26.703  30.128   6.177
 4641POPC   D2A60016  26.684  30.350   6.554
 4641POPC   C3A60017  26.724  30.031   6.889
 4641POPC   C4A60018  26.588  30.136   7.291
 4641POPC   C1B60019  27.054  29.705   6.177
 4641POPC   C2B60020  27.081  29.468   6.552
 4641POPC   C3B60021  27.154  29.629   6.956
 4641POPC   C4B60022  26.891  29.731   7.316
 4642POPC   NC360023   9.973  23.021   5.357
 4642POPC   PO460024  10.543  22.636   5.227
 4642POPC   GL160025  10.459  22.923   5.687
 4642POPC   GL260026  10.764  23.145   5.833
 4642POPC   C1A60027  10.214  23.160   6.088
 4642POPC   D2A60028  10.297  23.395   6.516
 4642POPC   C3A60029  10.330  23.169   6.944
 4642POPC   C4A60030  10.431  22.727   7.093
 4642POPC   C1B60031  10.658  23.017   6.263
 4642POPC   C2B60032  10.660  22.830   6.646
 4642POPC   C3B60033  10.919  22.722   6.974
 4642POPC   C4B60034  10.797  23.084   7.216
 4643POPC   NC360035  29.365   0.816   5.431
 4643POPC   PO460036  29.426   1.500   5.256
 4643POPC   GL160037  29.092   1.262   5.590
 4643POPC   GL260038  28.847   1.485   5.720
 4643POPC   C1A60039  28.933   1.078   6.048
 4643POPC   D2A60040  28.903   1.201   6.466
 4643POPC   C3A60041  29.003   0.967   6.832
 4643POPC   C4A60042  29.018   1.064   7.241
 4643POPC   C1B60043  29.105   1.551   6.088
 4643POPC   C2B60044  29.187   1.648   6.517
 4643POPC   C3B60045  29.238   1.522   6.939
 4643POPC   C4B60046  29.609   1.686   7.193
 4644POPC   NC360047   0.905  14.733   5.486
 4644POPC   PO460048   0.989  14.107   5.238
 4644POPC   GL160049   1.050  14.213   5.715
 4644POPC   GL260050   1.449  14.158   5.766
 4644POPC   C1A60051   0.896  14.496   6.111
 4644POPC   D2A60052   0.977  14.500   6.566
 4644POPC   C3A60053   0.911  14.739   6.942
 4644POPC   C4A60054   1.027  14.594   7.337
 4644POPC   C1B60055   1.347  14.269   6.201
 4644POPC   C2B60056   1.480  14.479   6.587
 4644POPC   C3B60057   1.336  14.363   6.992
 4644POPC   C4B60058   1.418  14.052   7.292
 4645POPC   NC360059   0.345  38.855   5.597
 4645POPC   PO460060   0.738  38.386   5.283
 4645POPC   GL160061   0.631  38.424   5.724
 4645POPC   GL260062   0.308  38.326   5.698
 4645POPC   C1A60063   0.507  38.432   6.181
 4645POPC   D2A60064   0.179  38.480   6.513
 4645POPC   C3A60065   0.315  38.617   6.968
 4645POPC   C4A60066   0.675  38.449   7.244
 4645POPC   C1B60067   0.240  38.006   6.019
 4645POPC   C2B60068   0.206  37.947   6.477
 4645POPC   C3B60069   0.186  38.121   6.913
 4645POPC   C4B60070   0.115  37.920   7.298
 4646POPC   NC360071  35.819  33.574   5.262
 4646POPC   PO460072  36.225  34.040   5.512
 4646POPC   GL160073  36.200  33.945   5.923
 4646POPC   GL260074  36.328  33.624   5.818
 4646POPC   C1A60075  35.863  33.984   6.243
 4646POPC   D2A60076  35.795  34.128   6.695
 4646POPC   C3A60077  36.022  33.988   7.051
 4646POPC   C4A60078  36.146  33.799   7.474
 4646POPC   C1B60079  36.194  33.524   6.231
 4646POPC   C2B60080  36.180  33.727   6.618
 4646POPC   C3B60081  36.344  33.592   7.016
 4646POPC   C4B60082  36.099  33.275   7.239
 4647POPC   NC360083  25.794  38.175   5.385
 4647POPC   PO460084  26.388  38.106   5.423
 4647POPC   GL160085  26.113  38.220   5.775
 4647POPC   GL260086  26.351  38.247   5.948
 4647POPC   C1A60087  25.857  38.249   6.175
 4647POPC   D2A60088  25.713  38.399   6.591
 4647POPC   C3A60089  25.952  38.415   6.984
 4647POPC   C4A60090  25.776  38.292   7.360
 4647POPC   C1B60091  26.345  38.373   6.344
 4647POPC   C2B60092  26.323  38.144   6.689
 4647POPC   C3B60093  26.421  38.142   7.120
 4647POPC   C4B60094  26.265  38.332   7.526
 4648POPC   NC360095  42.050  13.599   5.359
 4648POPC   PO460096  42.719  13.396   5.556
 4648POPC   GL160097  42.432  13.676   5.816
 4648POPC   GL260098  42.106  13.548   5.854
 4648POPC   C1A60099  42.233  13.858   6.233
 4648POPC   D2A60100  42.059  13.888   6.669
 4648POPC   C3A60101  42.409  13.808   6.966
 4648POPC   C4A60102  42.615  13.471   7.120
 4648POPC   C1B60103  41.881  13.237   6.064
 4648POPC   C2B60104  41.850  13.089   6.479
 4648POPC   C3B60105  41.755  13.271   6.868
 4648POPC   C4B60106  41.968  13.584   7.111
 4649POPC   NC360107   9.065  36.159   5.382
 4649POPC   PO460108   8.454  35.940   5.562
 4649POPC   GL160109   8.663  36.163   5.867
 4649POPC   GL260110   9.005  36.094   5.866
 4649POPC   C1A60111   8.759  36.240   6.303
 4649POPC   D2A60112   9.021  36.061   6.642
 4649POPC   C3A60113   8.848  36.055   7.051
 4649POPC   C4A60114   8.833  35.772   7.391
 4649POPC   C1B60115   9.268  36.285   6.143
 4649POPC   C2B60116   9.373  36.416   6.571
 4649POPC   C3B60117   9.301  36.331   7.048
 4649POPC   C4B60118   9.248  36.528   7.525
 4650POPC   NC360119  44.902  16.253   5.661
 4650POPC   PO460120  44.357  16.504   5.259
 4650POPC   GL160121  44.526  16.614   5.717
 4650POPC   GL260122  44.898  16.729   5.829
 4650POPC   C1A60123  44.555  16.594   6.206
 4650POPC   D2A60124  44.688  16.599   6.667
 4650POPC   C3A60125  44.378  16.580   7.029
 4650POPC   C4A60126  44.391  16.859   7.434
 4650POPC   C1B60127  44.915  16.986   6.222
 4650POPC   C2B60128  44.763  17.129   6.606
 4650POPC   C3B60129  44.601  17.017   6.973
 4650POPC   C4B60130  44.821  17.181   7.286
 4651POPC   NC360131   9.056   2.344   5.541
 4651POPC   PO460132   8.930   1.672   5.311
 4651POPC   GL160133   9.054   1.864   5.770
 4651POPC   GL260134   8.925   2.149   5.991
 4651POPC   C1A60135   9.050   1.704   6.237
 4651POPC   D2A60136   8.912   1.923   6.656
 4651POPC   C3A60137   9.027   1.787   7.074
 4651POPC   C4A60138   9.032   2.105   7.465
 4651POPC   C1B60139   8.744   2.334   6.353
 4651POPC   C2B60140   8.478   2.249   6.715
 4651POPC   C3B60141   8.641   2.120   7.109
 4651POPC   C4B60142   8.672   1.755   7.432
 4652POPC   NC360143   5.290  40.702   5.370
 4652POPC   PO460144   4.727  40.990   5.454
 4652POPC   GL160145   4.755  40.885   5.871
 4652POPC   GL260146   5.095  40.737   5.851
 4652POPC   C1A60147   4.916  40.903   6.300
 4652POPC   D2A60148   5.080  40.551   6.578
 4652POPC   C3A60149   4.900  40.630   6.965
 4652POPC   C4A60150   4.967  41.025   7.064
 4652POPC   C1B60151   5.382  40.745   6.201
 4652POPC   C2B60152   5.589  40.715   6.591
 4652POPC   C3B60153   5.404  40.719   7.007
 4652POPC   C4B60154   5.473  40.830   7.454
 4653POPC   NC360155  37.744  36.863   5.243
 4653POPC   PO460156  37.441  37.325   5.613
 4653POPC   GL160157  37.633  36.922   5.749
 4653POPC   GL260158  37.881  37.083   5.836
 4653POPC   C1A60159  37.759  36.669   6.132
 4653POPC   D2A60160  37.856  36.793   6.561
 4653POPC   C3A60161  37.626  36.715   6.962
 4653POPC   C4A60162  37.559  36.643   7.422
 4653POPC   C1B60163  37.699  37.197   6.221
 4653POPC   C2B60164  37.814  37.333   6.611
 4653POPC   C3B60165  37.925  37.136   6.960
 4653POPC   C4B60166  37.662  37.127   7.309
 4654POPC   NC360167  35.382  41.943   4.899
 4654POPC   PO460168  35.557  42.476   5.347
 4654POPC   GL160169  35.481  42.553   5.803
 4654POPC   GL260170  35.170  42.733   5.738
 4654POPC   C1A60171  35.321  42.281   6.159
 4654POPC   D2A60172  35.204  42.022   6.520
 4654POPC   C3A60173  35.338  42.200   6.892
 4654POPC   C4A60174  35.547  42.414   7.223
 4654POPC   C1B60175  35.127  42.759   6.164
 4654POPC   C2B60176  35.129  42.564   6.564
 4654POPC   C3B60177  35.257  42.719   6.944
 4654POPC   C4B60178  35.152  42.843   7.342
 4655POPC   NC360179  42.957  16.225   5.432
 4655POPC   PO460180  42.994  15.607   5.613
 4655POPC   GL160181  42.966  15.968   5.891
 4655POPC   GL260182  43.226  16.188   5.903
 4655POPC   C1A60183  42.940  16.079   6.350
 4655POPC   D2A60184  43.010  16.204   6.805
 4655POPC   C3A60185  42.766  16.023   7.188
 4655POPC   C4A60186  42.692  16.192   7.627
 4655POPC   C1B60187  43.386  15.854   6.177
 4655POPC   C2B60188  43.460  16.034   6.577
 4655POPC   C3B60189  43.519  16.207   6.974
 4655POPC   C4B60190  43.637  15.980   7.310
 4656POPC   NC360191  31.332  19.045   5.022
 4656POPC   PO460192  31.779  18.860   5.393
 4656POPC   GL160193  31.688  19.152   5.818
 4656POPC   GL260194  31.901  19.439   5.912
 4656POPC   C1A60195  31.561  19.164   6.330
 4656POPC   D2A60196  31.566  19.001   6.815
 4656POPC   C3A60197  31.463  19.160   7.262
 4656POPC   C4A60198  31.495  19.024   7.719
 4656POPC   C1B60199  31.777  19.613   6.293
 4656POPC   C2B60200  31.739  19.499   6.752
 4656POPC   C3B60201  31.943  19.251   7.090
 4656POPC   C4B60202  31.903  19.274   7.536
 4657POPC   NC360203  43.419  37.258   5.428
 4657POPC   PO460204  42.705  37.257   5.447
 4657POPC   GL160205  42.924  36.938   5.794
 4657POPC   GL260206  43.271  36.933   5.782
 4657POPC   C1A60207  43.029  36.849   6.297
 4657POPC   D2A60208  42.961  37.015   6.766
 4657POPC   C3A60209  43.098  36.789   7.162
 4657POPC   C4A60210  42.914  36.447   7.437
 4657POPC   C1B60211  43.484  37.048   6.136
 4657POPC   C2B60212  43.370  37.203   6.525
 4657POPC   C3B60213  43.472  37.122   6.959
 4657POPC   C4B60214  43.440  37.074   7.425
 4658POPC   NC360215  21.808  15.636   5.390
 4658POPC   PO460216  22.410  15.794   5.227
 4658POPC   GL160217  22.214  15.938   5.668
 4658POPC   GL260218  22.471  16.130   5.869
 4658POPC   C1A60219  22.113  15.903   6.162
 4658POPC   D2A60220  22.275  15.787   6.621
 4658POPC   C3A60221  22.183  15.915   7.081
 4658POPC   C4A60222  21.984  15.862   7.498
 4658POPC   C1B60223  22.399  16.325   6.249
 4658POPC   C2B60224  22.241  16.476   6.649
 4658POPC   C3B60225  22.230  16.450   7.094
 4658POPC   C4B60226  22.149  16.320   7.497
 4659POPC   NC360227   2.170  13.241   5.383
 4659POPC   PO460228   1.875  13.824   5.331
 4659POPC   GL160229   2.103  13.674   5.680
 4659POPC   GL260230   1.984  13.973   5.810
 4659POPC   C1A60231   2.242  13.658   6.133
 4659POPC   D2A60232   1.994  13.609   6.521
 4659POPC   C3A60233   2.142  13.433   6.908
 4659POPC   C4A60234   2.422  13.608   7.233
 4659POPC   C1B60235   1.725  13.880   6.150
 4659POPC   C2B60236   1.713  14.032   6.541
 4659POPC   C3B60237   1.704  13.850   6.935
 4659POPC   C4B60238   1.886  13.657   7.299
 4660POPC   NC360239   5.344   5.047   5.412
 4660POPC   PO460240   4.755   5.356   5.513
 4660POPC   GL160241   5.012   5.124   5.783
 4660POPC   GL260242   4.828   4.819   5.739
 4660POPC   C1A60243   5.315   5.181   6.144
 4660POPC   D2A60244   5.514   5.333   6.548
 4660POPC   C3A60245   5.392   5.093   6.906
 4660POPC   C4A60246   5.314   5.048   7.361
 4660POPC   C1B60247   4.898   4.878   6.213
 4660POPC   C2B60248   4.990   5.159   6.586
 4660POPC   C3B60249   4.902   5.105   7.047
 4660POPC   C4B60250   4.855   4.738   7.314
 4661POPC   NC360251  41.395  37.193   5.368
 4661POPC   PO460252  41.301  36.592   5.345
 4661POPC   GL160253  41.490  36.587   5.759
 4661POPC   GL260254  41.530  36.961   5.832
 4661POPC   C1A60255  41.595  36.644   6.203
 4661POPC   D2A60256  41.492  36.930   6.538
 4661POPC   C3A60257  41.674  36.854   6.947
 4661POPC   C4A60258  41.709  36.707   7.374
 4661POPC   C1B60259  41.733  37.229   6.196
 4661POPC   C2B60260  41.808  37.312   6.663
 4661POPC   C3B60261  41.789  37.315   7.126
 4661POPC   C4B60262  41.547  37.168   7.514
 4662POPC   NC360263  32.736  16.488   5.390
 4662POPC   PO460264  33.036  17.017   5.637
 4662POPC   GL160265  32.977  16.885   5.985
 4662POPC   GL260266  32.930  16.544   5.873
 4662POPC   C1A60267  32.942  16.962   6.401
 4662POPC   D2A60268  33.024  16.722   6.746
 4662POPC   C3A60269  32.993  16.939   7.122
 4662POPC   C4A60270  32.921  16.806   7.518
 4662POPC   C1B60271  33.156  16.483   6.275
 4662POPC   C2B60272  33.309  16.294   6.670
 4662POPC   C3B60273  33.203  16.361   7.085
 4662POPC   C4B60274  33.245  16.354   7.545
 4663POPC   NC360275  38.410  34.352   5.295
 4663POPC   PO460276  38.261  35.007   5.352
 4663POPC   GL160277  38.218  34.643   5.675
 4663POPC   GL260278  38.579  34.512   5.776
 4663POPC   C1A60279  38.240  34.674   6.142
 4663POPC   D2A60280  38.440  34.957   6.457
 4663POPC   C3A60281  38.334  34.856   6.870
 4663POPC   C4A60282  37.956  34.778   7.130
 4663POPC   C1B60283  38.935  34.361   6.096
 4663POPC   C2B60284  38.881  34.321   6.548
 4663POPC   C3B60285  38.725  34.398   6.965
 4663POPC   C4B60286  38.382  34.494   7.252
 4664POPC   NC360287  10.360  20.475   5.387
 4664POPC   PO460288  10.361  21.114   5.475
 4664POPC   GL160289  10.671  20.821   5.679
 4664POPC   GL260290  10.601  20.470   5.823
 4664POPC   C1A60291  10.898  20.760   6.085
 4664POPC   D2A60292  10.836  20.546   6.484
 4664POPC   C3A60293  10.745  20.818   6.813
 4664POPC   C4A60294  10.945  20.954   7.153
 4664POPC   C1B60295  10.378  20.573   6.229
 4664POPC   C2B60296  10.366  20.463   6.689
 4664POPC   C3B60297  10.647  20.376   7.057
 4664POPC   C4B60298  10.610  20.209   7.514
 4665POPC   NC360299  35.674  39.142   5.121
 4665POPC   PO460300  35.093  39.352   5.506
 4665POPC   GL160301  35.183  39.233   5.942
 4665POPC   GL260302  35.251  38.899   5.923
 4665POPC   C1A60303  35.462  39.129   6.313
 4665POPC   D2A60304  35.318  39.108   6.732
 4665POPC   C3A60305  35.530  39.269   7.077
 4665POPC   C4A60306  35.675  39.606   7.242
 4665POPC   C1B60307  35.060  38.644   6.264
 4665POPC   C2B60308  34.985  38.672   6.724
 4665POPC   C3B60309  35.126  38.844   7.111
 4665POPC   C4B60310  35.391  38.912   7.433
 4666POPC   NC360311  40.083   8.022   5.284
 4666POPC   PO460312  39.845   8.453   5.681
 4666POPC   GL160313  40.109   8.224   5.894
 4666POPC   GL260314  40.375   8.255   5.704
 4666POPC   C1A60315  40.226   8.200   6.318
 4666POPC   D2A60316  40.254   8.197   6.715
 4666POPC   C3A60317  39.826   8.264   6.858
 4666POPC   C4A60318  39.753   8.106   7.232
 4666POPC   C1B60319  40.332   8.640   6.090
 4666POPC   C2B60320  40.153   8.760   6.496
 4666POPC   C3B60321  40.121   8.657   6.923
 4666POPC   C4B60322  39.817   8.617   7.229
 4667POPC   NC360323   1.262  12.127   5.334
 4667POPC   PO460324   0.716  11.743   5.405
 4667POPC   GL160325   0.938  12.052   5.730
 4667POPC   GL260326   0.796  12.391   5.780
 4667POPC   C1A60327   1.169  11.993   6.159
 4667POPC   D2A60328   1.093  11.845   6.627
 4667POPC   C3A60329   1.363  12.032   6.983
 4667POPC   C4A60330   1.464  12.011   7.440
 4667POPC   C1B60331   0.967  12.460   6.234
 4667POPC   C2B60332   1.213  12.389   6.634
 4667POPC   C3B60333   1.159  12.492   7.076
 4667POPC   C4B60334   0.860  12.783   7.089
 4668POPC   NC360335   6.213  11.062   5.256
 4668POPC   PO460336   5.598  10.891   5.487
 4668POPC   GL160337   5.915  11.162   5.682
 4668POPC   GL260338   5.645  11.353   5.856
 4668POPC   C1A60339   6.106  11.289   6.092
 4668POPC   D2A60340   5.859  11.272   6.484
 4668POPC   C3A60341   6.044  11.308   6.897
 4668POPC   C4A60342   6.177  11.540   7.287
 4668POPC   C1B60343   5.405  11.470   6.249
 4668POPC   C2B60344   5.424  11.457   6.704
 4668POPC   C3B60345   5.550  11.097   6.944
 4668POPC   C4B60346   5.556  11.013   7.388
 4669POPC   NC360347  21.658  28.731   5.274
 4669POPC   PO460348  21.236  28.145   5.412
 4669POPC   GL160349  21.283  28.347   5.791
 4669POPC   GL260350  21.548  28.498   5.745
 4669POPC   C1A60351  21.197  28.632   6.139
 4669POPC   D2A60352  21.096  28.510   6.558
 4669POPC   C3A60353  21.325  28.555   6.948
 4669POPC   C4A60354  21.087  28.574   7.333
 4669POPC   C1B60355  21.642  28.381   6.198
 4669POPC   C2B60356  21.811  28.375   6.638
 4669POPC   C3B60357  21.835  28.632   7.013
 4669POPC   C4B60358  21.673  28.578   7.442
 4670POPC   NC360359  37.567  13.257   5.569
 4670POPC   PO460360  38.006  12.658   5.421
 4670POPC   GL160361  37.700  12.774   5.757
 4670POPC   GL260362  37.871  12.628   6.016
 4670POPC   C1A60363  37.638  13.045   6.163
 4670POPC   D2A60364  37.965  13.210   6.430
 4670POPC   C3A60365  37.886  13.053   6.830
 4670POPC   C4A60366  37.769  13.121   7.266
 4670POPC   C1B60367  37.881  12.686   6.455
 4670POPC   C2B60368  37.855  12.514   6.838
 4670POPC   C3B60369  37.586  12.370   7.112
 4670POPC   C4B60370  37.575  12.317   7.529
 4671POPC   NC360371  26.672  42.510   5.441
 4671POPC   PO460372  25.934  42.490   5.499
 4671POPC   GL160373  25.775  42.565   5.910
 4671POPC   GL260374  25.567  42.280   5.977
 4671POPC   C1A60375  26.004  42.681   6.300
 4671POPC   D2A60376  26.392  42.613   6.560
 4671POPC   C3A60377  26.327  42.647   7.028
 4671POPC   C4A60378  26.371  42.315   7.358
 4671POPC   C1B60379  25.560  42.443   6.418
 4671POPC   C2B60380  25.892  42.474   6.768
 4671POPC   C3B60381  25.894  42.470   7.245
 4671POPC   C4B60382  26.057  42.604   7.673
 4672POPC   NC360383  32.798  12.831   5.348
 4672POPC   PO460384  33.390  12.646   5.104
 4672POPC   GL160385  33.358  12.647   5.617
 4672POPC   GL260386  33.052  12.800   5.780
 4672POPC   C1A60387  33.402  12.717   6.138
 4672POPC   D2A60388  33.182  12.649   6.577
 4672POPC   C3A60389  33.179  12.891   6.966
 4672POPC   C4A60390  33.013  13.254   7.189
 4672POPC   C1B60391  32.815  12.814   6.169
 4672POPC   C2B60392  32.591  12.715   6.558
 4672POPC   C3B60393  32.636  12.854   6.995
 4672POPC   C4B60394  32.858  12.730   7.352
 4673POPC   NC360395  33.512  40.796   5.322
 4673POPC   PO460396  32.886  40.916   5.145
 4673POPC   GL160397  33.012  40.776   5.590
 4673POPC   GL260398  33.322  40.577   5.740
 4673POPC   C1A60399  32.992  40.809   6.062
 4673POPC   D2A60400  32.800  40.952   6.461
 4673POPC   C3A60401  32.854  40.729   6.825
 4673POPC   C4A60402  32.912  40.860   7.218
 4673POPC   C1B60403  33.471  40.595   6.172
 4673POPC   C2B60404  33.287  40.819   6.503
 4673POPC   C3B60405  33.268  41.069   6.855
 4673POPC   C4B60406  33.401  40.868   7.234
 4674POPC   NC360407  21.846  14.638   5.350
 4674POPC   PO460408  22.145  14.119   5.347
 4674POPC   GL160409  21.967  14.239   5.776
 4674POPC   GL260410  21.912  14.612   5.842
 4674POPC   C1A60411  22.237  14.245   6.156
 4674POPC   D2A60412  22.510  14.102   6.530
 4674POPC   C3A60413  22.343  14.279   6.904
 4674POPC   C4A60414  22.044  14.127   7.203
 4674POPC   C1B60415  21.816  14.536   6.249
 4674POPC   C2B60416  21.895  14.225   6.558
 4674POPC   C3B60417  21.864  14.470   6.888
 4674POPC   C4B60418  21.773  14.590   7.262
 4675POPC   NC360419  15.047  10.618   5.371
 4675POPC   PO460420  14.793  11.221   5.345
 4675POPC   GL160421  14.853  10.886   5.764
 4675POPC   GL260422  15.199  10.693   5.854
 4675POPC   C1A60423  14.931  10.798   6.253
 4675POPC   D2A60424  14.922  10.540   6.647
 4675POPC   C3A60425  15.058  10.698   7.066
 4675POPC   C4A60426  15.135  10.517   7.478
 4675POPC   C1B60427  15.420  10.637   6.285
 4675POPC   C2B60428  15.435  10.514   6.746
 4675POPC   C3B60429  15.331  10.239   7.105
 4675POPC   C4B60430  15.525  10.179   7.522
 4676POPC   NC360431  18.292  13.098   5.422
 4676POPC   PO460432  18.455  12.439   5.459
 4676POPC   GL160433  18.311  12.705   5.823
 4676POPC   GL260434  18.100  13.000   5.878
 4676POPC   C1A60435  18.422  12.897   6.264
 4676POPC   D2A60436  18.417  13.079   6.709
 4676POPC   C3A60437  18.500  12.842   7.075
 4676POPC   C4A60438  18.230  12.867   7.461
 4676POPC   C1B60439  17.915  12.717   6.195
 4676POPC   C2B60440  17.703  12.723   6.613
 4676POPC   C3B60441  17.915  12.830   7.021
 4676POPC   C4B60442  17.759  13.118   7.350
 4677POPC   NC360443  38.238  36.838   5.599
 4677POPC   PO460444  38.819  36.484   5.325
 4677POPC   GL160445  38.728  36.751   5.745
 4677POPC   GL260446  38.676  37.135   5.671
 4677POPC   C1A60447  38.490  36.736   6.186
 4677POPC   D2A60448  38.352  36.819   6.638
 4677POPC   C3A60449  38.423  36.685   7.041
 4677POPC   C4A60450  38.083  36.803   7.337
 4677POPC   C1B60451  38.676  37.239   6.109
 4677POPC   C2B60452  38.819  37.007   6.488
 4677POPC   C3B60453  38.852  37.007   6.944
 4677POPC   C4B60454  38.867  37.346   7.296
 4678POPC   NC360455  19.514  27.209   5.348
 4678POPC   PO460456  20.047  26.738   5.391
 4678POPC   GL160457  20.007  26.978   5.702
 4678POPC   GL260458  19.662  26.938   5.761
 4678POPC   C1A60459  20.183  27.027   6.079
 4678POPC   D2A60460  20.024  26.958   6.463
 4678POPC   C3A60461  19.985  27.141   6.835
 4678POPC   C4A60462  20.062  26.911   7.190
 4678POPC   C1B60463  19.699  27.227   6.111
 4678POPC   C2B60464  19.545  27.111   6.523
 4678POPC   C3B60465  19.585  26.838   6.898
 4678POPC   C4B60466  19.603  27.128   7.238
 4679POPC   NC360467  13.695  17.449   5.290
 4679POPC   PO460468  13.247  17.187   5.659
 4679POPC   GL160469  13.548  17.350   5.928
 4679POPC   GL260470  13.641  17.670   5.767
 4679POPC   C1A60471  13.590  17.253   6.379
 4679POPC   D2A60472  13.476  17.282   6.822
 4679POPC   C3A60473  13.838  17.428   7.060
 4679POPC   C4A60474  13.623  17.504   7.425
 4679POPC   C1B60475  13.614  17.782   6.205
 4679POPC   C2B60476  13.727  17.685   6.622
 4679POPC   C3B60477  13.523  17.820   7.005
 4679POPC   C4B60478  13.707  18.006   7.381
 4680POPC   NC360479  33.099  30.971   5.566
 4680POPC   PO460480  32.852  31.549   5.289
 4680POPC   GL160481  32.843  31.530   5.726
 4680POPC   GL260482  32.892  31.243   5.930
 4680POPC   C1A60483  32.678  31.643   6.142
 4680POPC   D2A60484  32.882  31.795   6.513
 4680POPC   C3A60485  32.918  31.540   6.886
 4680POPC   C4A60486  33.313  31.626   7.110
 4680POPC   C1B60487  33.202  31.189   6.228
 4680POPC   C2B60488  33.367  31.374   6.612
 4680POPC   C3B60489  33.406  31.139   6.973
 4680POPC   C4B60490  33.062  31.190   7.228
 4681POPC   NC360491  20.993  20.093   5.438
 4681POPC   PO460492  20.335  19.803   5.467
 4681POPC   GL160493  20.555  19.779   5.855
 4681POPC   GL260494  20.892  19.580   5.884
 4681POPC   C1A60495  20.498  19.882   6.301
 4681POPC   D2A60496  20.558  19.870   6.767
 4681POPC   C3A60497  20.270  19.869   7.115
 4681POPC   C4A60498  20.366  19.665   7.522
 4681POPC   C1B60499  20.980  19.980   6.092
 4681POPC   C2B60500  20.936  20.093   6.518
 4681POPC   C3B60501  21.037  20.101   6.935
 4681POPC   C4B60502  20.759  19.932   7.248
 4682POPC   NC360503  29.562  44.067   5.475
 4682POPC   PO460504  30.235  43.959   5.504
 4682POPC   GL160505  29.970  44.002   5.860
 4682POPC   GL260506  29.716  43.739   5.872
 4682POPC   C1A60507  30.104  44.162   6.277
 4682POPC   D2A60508  30.358  44.092   6.604
 4682POPC   C3A60509  30.169  44.043   6.981
 4682POPC   C4A60510  29.953  43.763   7.201
 4682POPC   C1B60511  29.601  44.004   6.236
 4682POPC   C2B60512  29.762  44.027   6.668
 4682POPC   C3B60513  29.544  44.132   7.059
 4682POPC   C4B60514  29.519  43.918   7.442
 4683POPC   NC360515  33.144  31.054   5.084
 4683POPC   PO460516  32.634  31.034   5.543
 4683POPC   GL160517  32.816  30.678   5.832
 4683POPC   GL260518  32.752  30.298   5.783
 4683POPC   C1A60519  33.050  30.679   6.211
 4683POPC   D2A60520  33.232  30.839   6.601
 4683POPC   C3A60521  33.105  30.706   7.025
 4683POPC   C4A60522  32.833  30.735   7.380
 4683POPC   C1B60523  32.599  30.400   6.185
 4683POPC   C2B60524  32.441  30.342   6.581
 4683POPC   C3B60525  32.624  30.514   6.937
 4683POPC   C4B60526  32.796  30.232   7.228
 4684POPC   NC360527  29.642  32.440   5.460
 4684POPC   PO460528  29.617  31.765   5.566
 4684POPC   GL160529  29.635  32.094   5.848
 4684POPC   GL260530  29.981  32.225   5.892
 4684POPC   C1A60531  29.633  32.250   6.262
 4684POPC   D2A60532  29.912  32.186   6.572
 4684POPC   C3A60533  29.681  32.131   6.913
 4684POPC   C4A60534  29.554  32.453   7.196
 4684POPC   C1B60535  30.298  32.418   6.163
 4684POPC   C2B60536  30.402  32.372   6.581
 4684POPC   C3B60537  30.250  32.288   6.969
 4684POPC   C4B60538  30.302  32.434   7.319
 4685POPC   NC360539  35.986  15.719   5.697
 4685POPC   PO460540  35.849  16.399   5.512
 4685POPC   GL160541  35.971  16.241   5.905
 4685POPC   GL260542  36.289  16.096   5.887
 4685POPC   C1A60543  36.067  16.244   6.343
 4685POPC   D2A60544  35.879  16.331   6.716
 4685POPC   C3A60545  35.829  16.000   7.003
 4685POPC   C4A60546  35.971  15.609   7.188
 4685POPC   C1B60547  36.407  15.851   6.288
 4685POPC   C2B60548  36.236  15.780   6.737
 4685POPC   C3B60549  36.334  15.961   7.162
 4685POPC   C4B60550  36.360  16.194   7.577
 4686POPC   NC360551   5.082  17.156   5.669
 4686POPC   PO460552   5.139  16.589   5.323
 4686POPC   GL160553   5.171  16.649   5.748
 4686POPC   GL260554   5.055  16.357   5.838
 4686POPC   C1A60555   5.240  16.668   6.216
 4686POPC   D2A60556   5.075  16.823   6.629
 4686POPC   C3A60557   5.231  17.004   7.023
 4686POPC   C4A60558   5.318  16.862   7.421
 4686POPC   C1B60559   4.777  16.404   6.226
 4686POPC   C2B60560   4.692  16.473   6.676
 4686POPC   C3B60561   4.946  16.486   7.049
 4686POPC   C4B60562   4.937  16.490   7.471
 4687POPC   NC360563  12.882  11.774   5.084
 4687POPC   PO460564  12.953  12.376   5.429
 4687POPC   GL160565  12.737  12.069   5.738
 4687POPC   GL260566  12.458  12.224   5.880
 4687POPC   C1A60567  12.820  12.068   6.200
 4687POPC   D2A60568  13.098  12.110   6.550
 4687POPC   C3A60569  13.000  12.225   6.928
 4687POPC   C4A60570  12.942  11.953   7.244
 4687POPC   C1B60571  12.537  12.478   6.282
 4687POPC   C2B60572  12.541  12.333   6.734
 4687POPC   C3B60573  12.573  12.316   7.208
 4687POPC   C4B60574  12.519  11.972   7.553
 4688POPC   NC360575   7.150  32.059   5.251
 4688POPC   PO460576   7.844  32.023   5.232
 4688POPC   GL160577   7.581  32.242   5.603
 4688POPC   GL260578   7.758  32.145   5.871
 4688POPC   C1A60579   7.327  32.338   6.042
 4688POPC   D2A60580   7.244  32.428   6.535
 4688POPC   C3A60581   7.397  32.212   6.949
 4688POPC   C4A60582   7.501  32.373   7.361
 4688POPC   C1B60583   7.640  31.972   6.286
 4688POPC   C2B60584   7.638  31.834   6.729
 4688POPC   C3B60585   7.804  31.944   7.165
 4688POPC   C4B60586   7.726  32.017   7.645
 4689POPC   NC360587   5.556  31.960   5.642
 4689POPC   PO460588   5.971  32.454   5.354
 4689POPC   GL160589   6.075  32.419   5.795
 4689POPC   GL260590   5.726  32.388   5.894
 4689POPC   C1A60591   6.083  32.479   6.263
 4689POPC   D2A60592   5.991  32.240   6.662
 4689POPC   C3A60593   5.673  32.289   6.977
 4689POPC   C4A60594   5.315  32.508   7.171
 4689POPC   C1B60595   5.784  32.063   6.221
 4689POPC   C2B60596   5.684  31.821   6.574
 4689POPC   C3B60597   5.952  31.792   6.945
 4689POPC   C4B60598   6.103  32.060   7.268
 4690POPC   NC360599   5.827  40.337   5.361
 4690POPC   PO460600   5.815  40.932   5.376
 4690POPC   GL160601   5.643  40.889   5.773
 4690POPC   GL260602   5.571  40.531   5.767
 4690POPC   C1A60603   5.821  40.988   6.190
 4690POPC   D2A60604   6.089  40.933   6.560
 4690POPC   C3A60605   5.887  40.916   6.963
 4690POPC   C4A60606   5.876  41.120   7.347
 4690POPC   C1B60607   5.582  40.294   6.125
 4690POPC   C2B60608   5.635  40.202   6.543
 4690POPC   C3B60609   5.614  40.250   6.971
 4690POPC   C4B60610   5.803  40.494   7.276
 4691POPC   NC360611   3.639  12.613   5.413
 4691POPC   PO460612   3.233  13.165   5.499
 4691POPC   GL160613   3.495  13.072   5.872
 4691POPC   GL260614   3.662  12.750   5.927
 4691POPC   C1A60615   3.584  13.058   6.318
 4691POPC   D2A60616   3.768  12.781   6.608
 4691POPC   C3A60617   3.734  12.892   7.038
 4691POPC   C4A60618   3.378  13.155   7.179
 4691POPC   C1B60619   3.393  12.542   6.208
 4691POPC   C2B60620   3.147  12.514   6.555
 4691POPC   C3B60621   3.284  12.706   6.899
 4691POPC   C4B60622   3.166  12.682   7.295
 4692POPC   NC360623  33.788   3.932   5.432
 4692POPC   PO460624  33.434   3.354   5.484
 4692POPC   GL160625  33.607   3.648   5.823
 4692POPC   GL260626  33.940   3.695   5.919
 4692POPC   C1A60627  33.587   3.675   6.259
 4692POPC   D2A60628  33.792   3.476   6.593
 4692POPC   C3A60629  33.744   3.706   6.969
 4692POPC   C4A60630  33.613   3.452   7.327
 4692POPC   C1B60631  34.177   3.431   6.224
 4692POPC   C2B60632  34.456   3.492   6.583
 4692POPC   C3B60633  34.211   3.453   6.957
 4692POPC   C4B60634  34.104   3.649   7.323
 4693POPC   NC360635  18.336  14.681   5.392
 4693POPC   PO460636  17.914  14.270   5.570
 4693POPC   GL160637  18.295  14.228   5.811
 4693POPC   GL260638  18.483  14.532   5.865
 4693POPC   C1A60639  18.390  14.119   6.233
 4693POPC   D2A60640  18.172  14.310   6.577
 4693POPC   C3A60641  18.373  14.209   6.951
 4693POPC   C4A60642  18.265  14.048   7.346
 4693POPC   C1B60643  18.120  14.671   6.152
 4693POPC   C2B60644  18.032  14.838   6.589
 4693POPC   C3B60645  18.177  14.722   7.024
 4693POPC   C4B60646  18.448  14.541   7.356
 4694POPC   NC360647  42.463  33.366   5.421
 4694POPC   PO460648  42.604  32.789   5.298
 4694POPC   GL160649  42.373  32.922   5.711
 4694POPC   GL260650  42.028  32.823   5.787
 4694POPC   C1A60651  42.275  33.250   6.079
 4694POPC   D2A60652  42.038  33.378   6.494
 4694POPC   C3A60653  42.241  33.254   6.901
 4694POPC   C4A60654  42.373  33.138   7.333
 4694POPC   C1B60655  41.899  32.954   6.204
 4694POPC   C2B60656  42.070  32.860   6.607
 4694POPC   C3B60657  41.915  32.872   7.051
 4694POPC   C4B60658  41.901  32.893   7.501
 4695POPC   NC360659   1.442   1.385   5.560
 4695POPC   PO460660   0.977   0.972   5.427
 4695POPC   GL160661   1.027   1.171   5.821
 4695POPC   GL260662   0.937   1.495   5.700
 4695POPC   C1A60663   1.280   1.141   6.225
 4695POPC   D2A60664   1.154   1.073   6.670
 4695POPC   C3A60665   1.400   1.203   7.032
 4695POPC   C4A60666   1.369   1.059   7.501
 4695POPC   C1B60667   0.799   1.615   6.107
 4695POPC   C2B60668   0.818   1.623   6.548
 4695POPC   C3B60669   1.025   1.539   6.947
 4695POPC   C4B60670   0.939   1.261   7.319
 4696POPC   NC360671  21.722   8.646   5.490
 4696POPC   PO460672  21.630   9.273   5.378
 4696POPC   GL160673  21.621   9.045   5.798
 4696POPC   GL260674  21.332   8.790   5.837
 4696POPC   C1A60675  21.540   8.990   6.259
 4696POPC   D2A60676  21.190   9.090   6.540
 4696POPC   C3A60677  21.284   8.981   6.928
 4696POPC   C4A60678  21.593   9.083   7.167
 4696POPC   C1B60679  21.153   8.652   6.282
 4696POPC   C2B60680  20.876   8.701   6.675
 4696POPC   C3B60681  20.807   8.938   7.075
 4696POPC   C4B60682  21.078   9.177   7.386
 4697POPC   NC360683  19.891  28.619   5.375
 4697POPC   PO460684  19.608  28.042   5.482
 4697POPC   GL160685  19.579  28.373   5.784
 4697POPC   GL260686  19.848  28.634   5.887
 4697POPC   C1A60687  19.534  28.456   6.238
 4697POPC   D2A60688  19.851  28.377   6.533
 4697POPC   C3A60689  19.722  28.246   6.896
 4697POPC   C4A60690  19.559  28.578   7.082
 4697POPC   C1B60691  20.006  28.207   6.045
 4697POPC   C2B60692  20.153  27.986   6.415
 4697POPC   C3B60693  20.247  28.140   6.823
 4697POPC   C4B60694  20.068  28.186   7.240
 4698POPC   NC360695  26.250  20.969   5.005
 4698POPC   PO460696  26.832  20.592   5.291
 4698POPC   GL160697  26.694  20.597   5.705
 4698POPC   GL260698  27.014  20.632   5.875
 4698POPC   C1A60699  26.558  20.761   6.085
 4698POPC   D2A60700  26.620  20.964   6.440
 4698POPC   C3A60701  26.762  20.780   6.811
 4698POPC   C4A60702  26.550  20.783   7.221
 4698POPC   C1B60703  26.937  20.525   6.318
 4698POPC   C2B60704  27.144  20.381   6.655
 4698POPC   C3B60705  27.373  20.519   6.992
 4698POPC   C4B60706  27.054  20.660   7.214
 4699POPC   NC360707   3.305  43.969   5.423
 4699POPC   PO460708   4.016  43.994   5.415
 4699POPC   GL160709   3.715  43.856   5.749
 4699POPC   GL260710   3.615  44.194   5.777
 4699POPC   C1A60711   3.438  43.700   6.109
 4699POPC   D2A60712   3.319  43.628   6.586
 4699POPC   C3A60713   3.565  43.829   6.912
 4699POPC   C4A60714   3.890  43.982   7.195
 4699POPC   C1B60715   3.310  44.186   6.111
 4699POPC   C2B60716   3.291  44.170   6.540
 4699POPC   C3B60717   3.203  44.350   6.913
 4699POPC   C4B60718   3.373  44.176   7.237
 4700POPC   NC360719  21.150  33.916   5.346
 4700POPC   PO460720  21.786  33.659   5.400
 4700POPC   GL160721  21.416  33.620   5.676
 4700POPC   GL260722  21.647  33.715   5.929
 4700POPC   C1A60723  21.152  33.607   6.062
 4700POPC   D2A60724  21.229  33.543   6.513
 4700POPC   C3A60725  21.290  33.856   6.815
 4700POPC   C4A60726  21.318  33.871   7.218
 4700POPC   C1B60727  21.701  33.752   6.394
 4700POPC   C2B60728  21.745  34.064   6.718
 4700POPC   C3B60729  21.753  34.160   7.174
 4700POPC   C4B60730  21.731  34.412   7.576
 4701POPC   NC360731  34.896  36.487   5.419
 4701POPC   PO460732  34.310  36.212   5.208
 4701POPC   GL160733  34.337  36.093   5.669
 4701POPC   GL260734  34.647  36.184   5.755
 4701POPC   C1A60735  34.415  35.872   6.111
 4701POPC   D2A60736  34.586  35.740   6.548
 4701POPC   C3A60737  34.421  35.920   6.979
 4701POPC   C4A60738  34.566  36.034   7.446
 4701POPC   C1B60739  34.732  36.283   6.177
 4701POPC   C2B60740  34.861  36.492   6.559
 4701POPC   C3B60741  34.693  36.456   6.984
 4701POPC   C4B60742  34.899  36.409   7.365
 4702POPC   NC360743  32.580   2.841   5.328
 4702POPC   PO460744  32.000   2.522   5.262
 4702POPC   GL160745  32.204   2.625   5.663
 4702POPC   GL260746  32.552   2.477   5.709
 4702POPC   C1A60747  32.098   2.808   6.089
 4702POPC   D2A60748  32.244   2.908   6.486
 4702POPC   C3A60749  32.086   2.941   6.902
 4702POPC   C4A60750  32.250   2.798   7.287
 4702POPC   C1B60751  32.606   2.829   6.025
 4702POPC   C2B60752  32.757   2.925   6.448
 4702POPC   C3B60753  32.601   2.895   6.864
 4702POPC   C4B60754  32.770   2.821   7.256
 4703POPC   NC360755  36.418   5.590   5.044
 4703POPC   PO460756  36.031   5.927   5.424
 4703POPC   GL160757  36.038   6.005   5.865
 4703POPC   GL260758  35.738   6.112   5.878
 4703POPC   C1A60759  35.949   5.902   6.331
 4703POPC   D2A60760  35.778   5.722   6.735
 4703POPC   C3A60761  35.966   5.630   7.165
 4703POPC   C4A60762  36.034   5.604   7.634
 4703POPC   C1B60763  35.917   6.392   6.198
 4703POPC   C2B60764  36.109   6.364   6.625
 4703POPC   C3B60765  35.980   6.135   6.998
 4703POPC   C4B60766  36.075   6.085   7.452
 4704POPC   NC360767  41.436   7.056   5.341
 4704POPC   PO460768  41.796   7.663   5.360
 4704POPC   GL160769  41.569   7.441   5.667
 4704POPC   GL260770  41.237   7.579   5.651
 4704POPC   C1A60771  41.619   7.271   6.084
 4704POPC   D2A60772  41.587   7.454   6.491
 4704POPC   C3A60773  41.348   7.266   6.824
 4704POPC   C4A60774  41.490   7.224   7.235
 4704POPC   C1B60775  41.361   7.714   6.084
 4704POPC   C2B60776  41.153   7.679   6.516
 4704POPC   C3B60777  40.932   7.653   6.848
 4704POPC   C4B60778  41.134   7.576   7.196
 4705POPC   NC360779  42.993   7.022   5.466
 4705POPC   PO460780  43.444   6.498   5.500
 4705POPC   GL160781  43.187   6.672   5.841
 4705POPC   GL260782  42.901   6.856   5.924
 4705POPC   C1A60783  42.996   6.405   6.147
 4705POPC   D2A60784  42.841   6.440   6.536
 4705POPC   C3A60785  43.082   6.542   6.871
 4705POPC   C4A60786  42.984   6.484   7.282
 4705POPC   C1B60787  42.998   6.885   6.313
 4705POPC   C2B60788  42.755   6.930   6.674
 4705POPC   C3B60789  42.859   6.943   7.093
 4705POPC   C4B60790  43.144   6.952   7.431
 4706POPC   NC360791  42.515   1.313   5.446
 4706POPC   PO460792  41.988   0.894   5.487
 4706POPC   GL160793  42.177   1.158   5.826
 4706POPC   GL260794  41.975   1.463   5.914
 4706POPC   C1A60795  42.502   1.104   6.183
 4706POPC   D2A60796  42.476   0.861   6.587
 4706POPC   C3A60797  42.608   0.956   7.021
 4706POPC   C4A60798  42.300   0.913   7.382
 4706POPC   C1B60799  42.065   1.323   6.308
 4706POPC   C2B60800  42.330   1.400   6.636
 4706POPC   C3B60801  42.190   1.265   7.009
 4706POPC   C4B60802  42.160   1.402   7.391
 4707POPC   NC360803   9.133   5.350   5.624
 4707POPC   PO460804   8.680   4.766   5.495
 4707POPC   GL160805   8.834   5.006   5.842
 4707POPC   GL260806   8.679   5.362   5.863
 4707POPC   C1A60807   8.913   5.104   6.288
 4707POPC   D2A60808   8.839   5.027   6.732
 4707POPC   C3A60809   9.055   5.158   7.080
 4707POPC   C4A60810   8.990   4.986   7.520
 4707POPC   C1B60811   8.909   5.609   6.179
 4707POPC   C2B60812   8.869   5.550   6.611
 4707POPC   C3B60813   8.652   5.467   6.983
 4707POPC   C4B60814   8.779   5.423   7.433
 4708POPC   NC360815  19.384  17.098   5.110
 4708POPC   PO460816  19.048  16.588   5.383
 4708POPC   GL160817  19.052  16.871   5.775
 4708POPC   GL260818  18.728  17.048   5.772
 4708POPC   C1A60819  19.128  16.796   6.250
 4708POPC   D2A60820  19.062  16.351   6.427
 4708POPC   C3A60821  18.980  16.349   6.882
 4708POPC   C4A60822  19.114  16.643   7.228
 4708POPC   C1B60823  18.633  16.832   6.168
 4708POPC   C2B60824  18.700  16.708   6.603
 4708POPC   C3B60825  18.683  16.900   7.019
 4708POPC   C4B60826  18.673  16.852   7.466
 4709POPC   NC360827   8.197   0.213   5.329
 4709POPC   PO460828   8.300   0.895   5.318
 4709POPC   GL160829   8.243   0.619   5.758
 4709POPC   GL260830   8.195   0.241   5.825
 4709POPC   C1A60831   7.979   0.562   6.164
 4709POPC   D2A60832   8.138   0.594   6.614
 4709POPC   C3A60833   7.954   0.422   6.998
 4709POPC   C4A60834   7.869   0.599   7.409
 4709POPC   C1B60835   8.389   0.255   6.230
 4709POPC   C2B60836   8.312   0.099   6.619
 4709POPC   C3B60837   8.435   0.199   7.007
 4709POPC   C4B60838   8.348   0.436   7.369
 4710POPC   NC360839  26.594   7.118   5.447
 4710POPC   PO460840  26.813   7.736   5.448
 4710POPC   GL160841  26.945   7.411   5.732
 4710POPC   GL260842  27.126   7.082   5.699
 4710POPC   C1A60843  26.808   7.344   6.135
 4710POPC   D2A60844  26.998   7.489   6.487
 4710POPC   C3A60845  26.805   7.518   6.842
 4710POPC   C4A60846  26.728   7.307   7.191
 4710POPC   C1B60847  27.083   6.909   6.129
 4710POPC   C2B60848  26.940   6.987   6.529
 4710POPC   C3B60849  27.158   7.136   6.883
 4710POPC   C4B60850  27.098   7.002   7.304
 4711POPC   NC360851  16.021  18.656   5.474
 4711POPC   PO460852  15.716  19.288   5.413
 4711POPC   GL160853  15.906  19.094   5.749
 4711POPC   GL260854  15.851  19.411   5.907
 4711POPC   C1A60855  15.973  19.030   6.203
 4711POPC   D2A60856  15.898  19.117   6.649
 4711POPC   C3A60857  15.542  18.871   6.853
 4711POPC   C4A60858  15.832  18.723   7.165
 4711POPC   C1B60859  15.787  19.631   6.289
 4711POPC   C2B60860  15.999  19.641   6.666
 4711POPC   C3B60861  15.996  19.461   7.053
 4711POPC   C4B60862  15.691  19.212   7.199
 4712POPC   NC360863  38.092  43.797   5.497
 4712POPC   PO460864  37.475  43.804   5.502
 4712POPC   GL160865  37.718  43.923   5.861
 4712POPC   GL260866  37.690  44.280   5.832
 4712POPC   C1A60867  37.704  43.802   6.313
 4712POPC   D2A60868  37.660  43.755   6.733
 4712POPC   C3A60869  37.809  43.460   6.999
 4712POPC   C4A60870  37.577  43.709   7.279
 4712POPC   C1B60871  37.879  44.282   6.228
 4712POPC   C2B60872  38.004  44.123   6.624
 4712POPC   C3B60873  37.869  44.105   7.069
 4712POPC   C4B60874  37.945  44.151   7.529
 4713POPC   NC360875  24.263  13.684   5.428
 4713POPC   PO460876  24.924  13.489   5.360
 4713POPC   GL160877  24.645  13.442   5.731
 4713POPC   GL260878  24.304  13.450   5.891
 4713POPC   C1A60879  24.755  13.352   6.163
 4713POPC   D2A60880  24.763  13.600   6.536
 4713POPC   C3A60881  24.680  13.442   6.961
 4713POPC   C4A60882  24.671  13.824   7.170
 4713POPC   C1B60883  24.431  13.815   6.134
 4713POPC   C2B60884  24.402  14.040   6.538
 4713POPC   C3B60885  24.195  13.988   6.940
 4713POPC   C4B60886  23.948  13.605   7.074
 4714POPC   NC360887  31.766  16.722   5.317
 4714POPC   PO460888  32.392  16.501   5.073
 4714POPC   GL160889  32.247  16.626   5.513
 4714POPC   GL260890  32.508  16.826   5.715
 4714POPC   C1A60891  32.109  16.554   5.957
 4714POPC   D2A60892  32.076  16.748   6.405
 4714POPC   C3A60893  32.095  16.602   6.875
 4714POPC   C4A60894  32.025  16.890   7.262
 4714POPC   C1B60895  32.546  16.700   6.169
 4714POPC   C2B60896  32.537  16.651   6.608
 4714POPC   C3B60897  32.583  16.634   7.049
 4714POPC   C4B60898  32.405  16.643   7.481
 4715POPC   NC360899  11.460  20.943   5.419
 4715POPC   PO460900  11.153  21.605   5.522
 4715POPC   GL160901  11.378  21.325   5.780
 4715POPC   GL260902  11.100  21.099   5.758
 4715POPC   C1A60903  11.503  21.407   6.221
 4715POPC   D2A60904  11.542  21.750   6.542
 4715POPC   C3A60905  11.369  21.627   6.946
 4715POPC   C4A60906  11.261  21.345   7.260
 4715POPC   C1B60907  10.987  21.336   6.132
 4715POPC   C2B60908  11.102  21.455   6.542
 4715POPC   C3B60909  10.893  21.407   6.927
 4715POPC   C4B60910  10.846  21.716   7.235
 4716POPC   NC360911  23.058   0.682   5.439
 4716POPC   PO460912  23.272   0.223   5.877
 4716POPC   GL160913  22.846   0.370   5.921
 4716POPC   GL260914  22.843   0.717   5.897
 4716POPC   C1A60915  22.634   0.512   6.291
 4716POPC   D2A60916  22.765   0.620   6.688
 4716POPC   C3A60917  23.014   0.310   6.873
 4716POPC   C4A60918  22.909   0.213   7.265
 4716POPC   C1B60919  23.152   0.854   6.258
 4716POPC   C2B60920  23.266   0.766   6.726
 4716POPC   C3B60921  23.037   0.741   7.156
 4716POPC   C4B60922  23.001   0.789   7.621
 4717POPC   NC360923   8.129   1.974   5.595
 4717POPC   PO460924   8.567   2.463   5.697
 4717POPC   GL160925   8.405   2.178   5.971
 4717POPC   GL260926   8.537   1.838   5.861
 4717POPC   C1A60927   8.102   2.062   6.292
 4717POPC   D2A60928   7.904   1.920   6.666
 4717POPC   C3A60929   7.981   2.196   6.988
 4717POPC   C4A60930   7.937   2.209   7.432
 4717POPC   C1B60931   8.570   1.843   6.303
 4717POPC   C2B60932   8.383   1.728   6.677
 4717POPC   C3B60933   8.260   1.779   7.079
 4717POPC   C4B60934   7.825   1.753   7.188
 4718POPC   NC360935  24.680   2.240   4.992
 4718POPC   PO460936  24.383   1.943   5.486
 4718POPC   GL160937  24.360   2.046   5.901
 4718POPC   GL260938  24.555   2.313   5.986
 4718POPC   C1A60939  24.226   2.010   6.326
 4718POPC   D2A60940  24.106   1.885   6.723
 4718POPC   C3A60941  24.433   1.784   6.997
 4718POPC   C4A60942  24.673   1.580   7.299
 4718POPC   C1B60943  24.728   2.122   6.327
 4718POPC   C2B60944  24.534   2.217   6.713
 4718POPC   C3B60945  24.351   2.276   7.106
 4718POPC   C4B60946  24.423   2.027   7.486
 4719POPC   NC360947  30.516   8.966   5.413
 4719POPC   PO460948  30.681   8.326   5.401
 4719POPC   GL160949  30.540   8.629   5.798
 4719POPC   GL260950  30.727   8.909   6.007
 4719POPC   C1A60951  30.262   8.798   6.150
 4719POPC   D2A60952  30.189   8.745   6.612
 4719POPC   C3A60953  30.490   9.037   6.794
 4719POPC   C4A60954  30.554   9.259   7.170
 4719POPC   C1B60955  31.080   8.807   6.260
 4719POPC   C2B60956  31.131   8.806   6.715
 4719POPC   C3B60957  30.903   8.835   7.144
 4719POPC   C4B60958  31.103   8.687   7.543
 4720POPC   NC360959  24.268  30.152   5.627
 4720POPC   PO460960  24.683  29.640   5.283
 4720POPC   GL160961  24.711  29.925   5.702
 4720POPC   GL260962  24.675  30.261   5.921
 4720POPC   C1A60963  24.495  29.818   6.128
 4720POPC   D2A60964  24.457  29.898   6.541
 4720POPC   C3A60965  24.596  29.748   6.913
 4720POPC   C4A60966  24.375  29.695   7.278
 4720POPC   C1B60967  24.529  30.382   6.330
 4720POPC   C2B60968  24.168  30.300   6.597
 4720POPC   C3B60969  24.262  30.154   7.010
 4720POPC   C4B60970  24.532  30.312   7.308
 4721POPC   NC360971  20.687  19.497   5.434
 4721POPC   PO460972  20.829  19.033   5.074
 4721POPC   GL160973  20.619  19.018   5.592
 4721POPC   GL260974  20.346  19.278   5.736
 4721POPC   C1A60975  20.499  18.870   6.064
 4721POPC   D2A60976  20.526  18.711   6.532
 4721POPC   C3A60977  20.487  18.875   6.980
 4721POPC   C4A60978  20.499  18.842   7.442
 4721POPC   C1B60979  20.496  19.375   6.158
 4721POPC   C2B60980  20.614  19.280   6.574
 4721POPC   C3B60981  20.469  19.404   6.971
 4721POPC   C4B60982  20.237  19.244   7.279
 4722POPC   NC360983   5.501  18.446   5.248
 4722POPC   PO460984   4.943  18.139   5.356
 4722POPC   GL160985   5.060  18.302   5.777
 4722POPC   GL260986   4.778  18.215   5.956
 4722POPC   C1A60987   5.076  18.573   6.185
 4722POPC   D2A60988   5.015  18.429   6.613
 4722POPC   C3A60989   5.140  18.671   6.929
 4722POPC   C4A60990   4.983  18.357   7.202
 4722POPC   C1B60991   5.070  18.054   6.275
 4722POPC   C2B60992   5.089  17.850   6.702
 4722POPC   C3B60993   5.096  17.863   7.174
 4722POPC   C4B60994   5.318  18.088   7.518
 4723POPC   NC360995  22.546  42.630   5.385
 4723POPC   PO460996  21.878  42.459   5.458
 4723POPC   GL160997  22.157  42.304   5.744
 4723POPC   GL260998  22.368  42.557   5.879
 4723POPC   C1A60999  22.074  42.265   6.178
 4723POPC   D2A61000  21.986  42.361   6.589
 4723POPC   C3A61001  22.328  42.307   6.838
 4723POPC   C4A61002  22.258  42.331   7.260
 4723POPC   C1B61003  22.542  42.440   6.302
 4723POPC   C2B61004  22.660  42.669   6.683
 4723POPC   C3B61005  22.681  42.596   7.133
 4723POPC   C4B61006  22.599  42.513   7.597
 4724POPC   NC361007   0.932  17.801   5.312
 4724POPC   PO461008   0.761  17.106   5.464
 4724POPC   GL161009   0.536  17.449   5.778
 4724POPC   GL261010   0.545  17.790   5.651
 4724POPC   C1A61011   0.231  17.444   6.147
 4724POPC   D2A61012   0.267  17.220   6.544
 4724POPC   C3A61013   0.093  17.417   6.920
 4724POPC   C4A61014   0.306  17.353   7.323
 4724POPC   C1B61015   0.428  17.921   6.057
 4724POPC   C2B61016   0.491  17.848   6.482
 4724POPC   C3B61017   0.313  17.891   6.892
 4724POPC   C4B61018   0.371  17.867   7.328
 4725POPC   NC361019   7.549  24.181   5.459
 4725POPC   PO461020   7.259  24.730   5.226
 4725POPC   GL161021   7.253  24.727   5.721
 4725POPC   GL261022   7.581  24.606   5.789
 4725POPC   C1A61023   7.360  24.848   6.186
 4725POPC   D2A61024   7.362  24.883   6.652
 4725POPC   C3A61025   7.519  24.613   6.993
 4725POPC   C4A61026   7.215  24.514   7.339
 4725POPC   C1B61027   7.549  24.352   6.171
 4725POPC   C2B61028   7.750  24.372   6.579
 4725POPC   C3B61029   7.810  24.145   6.968
 4725POPC   C4B61030   7.652  24.268   7.389
 4726POPC   NC361031   2.956  36.822   5.409
 4726POPC   PO461032   2.283  37.081   5.407
 4726POPC   GL161033   2.547  36.879   5.744
 4726POPC   GL261034   2.814  37.130   5.784
 4726POPC   C1A61035   2.776  36.784   6.154
 4726POPC   D2A61036   2.871  37.010   6.554
 4726POPC   C3A61037   3.018  36.803   6.933
 4726POPC   C4A61038   2.833  36.838   7.373
 4726POPC   C1B61039   3.129  37.174   6.116
 4726POPC   C2B61040   3.247  37.370   6.520
 4726POPC   C3B61041   3.048  37.342   6.926
 4726POPC   C4B61042   3.206  37.145   7.285
 4727POPC   NC361043   8.160  38.036   5.472
 4727POPC   PO461044   8.332  38.630   5.422
 4727POPC   GL161045   8.188  38.442   5.839
 4727POPC   GL261046   8.360  38.121   5.925
 4727POPC   C1A61047   8.153  38.419   6.321
 4727POPC   D2A61048   8.436  38.479   6.676
 4727POPC   C3A61049   8.227  38.487   7.064
 4727POPC   C4A61050   7.814  38.547   7.210
 4727POPC   C1B61051   8.421  37.992   6.335
 4727POPC   C2B61052   8.222  37.988   6.715
 4727POPC   C3B61053   8.388  37.996   7.100
 4727POPC   C4B61054   8.165  38.135   7.450
 4728POPC   NC361055   7.075   7.578   5.432
 4728POPC   PO461056   6.567   7.093   5.434
 4728POPC   GL161057   6.614   7.464   5.751
 4728POPC   GL261058   6.909   7.481   5.933
 4728POPC   C1A61059   6.443   7.625   6.155
 4728POPC   D2A61060   6.594   7.599   6.613
 4728POPC   C3A61061   6.300   7.424   6.918
 4728POPC   C4A61062   6.094   7.493   7.308
 4728POPC   C1B61063   6.717   7.210   6.284
 4728POPC   C2B61064   6.652   7.083   6.715
 4728POPC   C3B61065   6.826   7.317   7.061
 4728POPC   C4B61066   6.858   7.124   7.516
 4729POPC   NC361067  39.890   9.846   5.088
 4729POPC   PO461068  39.273   9.880   5.386
 4729POPC   GL161069  39.422   9.763   5.783
 4729POPC   GL261070  39.109   9.839   5.966
 4729POPC   C1A61071  39.548   9.725   6.214
 4729POPC   D2A61072  39.180   9.816   6.472
 4729POPC   C3A61073  39.345   9.976   6.838
 4729POPC   C4A61074  39.295   9.713   7.180
 4729POPC   C1B61075  38.718   9.988   6.203
 4729POPC   C2B61076  38.562   9.868   6.607
 4729POPC   C3B61077  38.871   9.788   6.885
 4729POPC   C4B61078  38.897  10.025   7.231
 4730POPC   NC361079  43.533  35.529   5.562
 4730POPC   PO461080  44.145  35.255   5.377
 4730POPC   GL161081  43.964  35.234   5.770
 4730POPC   GL261082  43.688  35.029   5.767
 4730POPC   C1A61083  43.986  35.108   6.196
 4730POPC   D2A61084  43.760  35.047   6.574
 4730POPC   C3A61085  43.894  35.342   6.863
 4730POPC   C4A61086  43.804  35.304   7.294
 4730POPC   C1B61087  43.458  35.194   6.146
 4730POPC   C2B61088  43.255  35.253   6.564
 4730POPC   C3B61089  43.389  35.324   7.012
 4730POPC   C4B61090  43.445  35.638   7.395
 4731POPC   NC361091  35.249  35.552   5.450
 4731POPC   PO461092  35.679  35.054   5.514
 4731POPC   GL161093  35.394  35.175   5.834
 4731POPC   GL261094  35.347  35.524   5.936
 4731POPC   C1A61095  35.398  35.101   6.278
 4731POPC   D2A61096  35.159  35.076   6.643
 4731POPC   C3A61097  35.362  35.226   7.007
 4731POPC   C4A61098  35.756  35.230   7.176
 4731POPC   C1B61099  35.517  35.769   6.236
 4731POPC   C2B61100  35.588  35.608   6.650
 4731POPC   C3B61101  35.648  35.748   7.068
 4731POPC   C4B61102  35.380  35.595   7.386
 4732POPC   NC361103   7.239  25.154   5.414
 4732POPC   PO461104   7.044  25.797   5.445
 4732POPC   GL161105   7.115  25.481   5.806
 4732POPC   GL261106   7.419  25.229   5.869
 4732POPC   C1A61107   7.158  25.383   6.259
 4732POPC   D2A61108   7.477  25.367   6.563
 4732POPC   C3A61109   7.384  25.335   6.978
 4732POPC   C4A61110   7.178  24.970   7.139
 4732POPC   C1B61111   7.776  25.349   6.118
 4732POPC   C2B61112   7.973  25.406   6.512
 4732POPC   C3B61113   7.873  25.420   6.935
 4732POPC   C4B61114   7.727  25.240   7.345
 4733POPC   NC361115  24.213  25.610   5.415
 4733POPC   PO461116  24.739  25.085   5.346
 4733POPC   GL161117  24.606  25.301   5.709
 4733POPC   GL261118  24.870  25.567   5.732
 4733POPC   C1A61119  24.529  25.401   6.150
 4733POPC   D2A61120  24.623  25.246   6.558
 4733POPC   C3A61121  24.422  25.172   6.937
 4733POPC   C4A61122  24.170  25.338   7.239
 4733POPC   C1B61123  25.020  25.551   6.169
 4733POPC   C2B61124  24.870  25.691   6.569
 4733POPC   C3B61125  24.574  25.685   6.917
 4733POPC   C4B61126  24.611  25.582   7.322
 4734POPC   NC361127  20.687  15.612   5.556
 4734POPC   PO461128  20.835  15.021   5.379
 4734POPC   GL161129  20.752  15.191   5.822
 4734POPC   GL261130  20.423  15.196   5.764
 4734POPC   C1A61131  20.592  15.257   6.271
 4734POPC   D2A61132  20.855  15.122   6.629
 4734POPC   C3A61133  20.797  15.319   7.035
 4734POPC   C4A61134  20.463  15.551   7.229
 4734POPC   C1B61135  20.329  14.855   6.053
 4734POPC   C2B61136  20.400  14.814   6.496
 4734POPC   C3B61137  20.404  15.041   6.869
 4734POPC   C4B61138  20.393  15.051   7.320
 4735POPC   NC361139  35.194   0.245   5.350
 4735POPC   PO461140  35.793   0.252   5.541
 4735POPC   GL161141  35.412   0.405   5.782
 4735POPC   GL261142  35.185   0.698   5.763
 4735POPC   C1A61143  35.148   0.352   6.142
 4735POPC   D2A61144  35.324   0.451   6.529
 4735POPC   C3A61145  35.181   0.228   6.877
 4735POPC   C4A61146  35.309   0.378   7.251
 4735POPC   C1B61147  35.363   0.859   6.136
 4735POPC   C2B61148  35.615   0.941   6.495
 4735POPC   C3B61149  35.608   0.751   6.893
 4735POPC   C4B61150  35.617   0.769   7.326
 4736POPC   NC361151  20.262  21.169   5.468
 4736POPC   PO461152  20.661  20.524   5.426
 4736POPC   GL161153  20.675  20.689   5.832
 4736POPC   GL261154  20.323  20.788   5.814
 4736POPC   C1A61155  20.741  20.478   6.231
 4736POPC   D2A61156  20.443  20.322   6.553
 4736POPC   C3A61157  20.613  20.376   6.954
 4736POPC   C4A61158  20.809  20.716   7.160
 4736POPC   C1B61159  20.311  20.744   6.257
 4736POPC   C2B61160  20.521  20.813   6.664
 4736POPC   C3B61161  20.316  20.826   7.053
 4736POPC   C4B61162  20.415  20.829   7.472
 4737POPC   NC361163  29.037  34.323   5.284
 4737POPC   PO461164  29.249  34.934   5.420
 4737POPC   GL161165  29.113  34.577   5.733
 4737POPC   GL261166  29.346  34.554   6.006
 4737POPC   C1A61167  28.875  34.401   6.114
 4737POPC   D2A61168  28.779  34.590   6.513
 4737POPC   C3A61169  28.998  34.491   6.866
 4737POPC   C4A61170  28.864  34.565   7.227
 4737POPC   C1B61171  29.300  34.417   6.451
 4737POPC   C2B61172  29.317  34.088   6.809
 4737POPC   C3B61173  29.212  34.172   7.236
 4737POPC   C4B61174  29.324  34.563   7.392
 4738POPC   NC361175  10.330   3.417   5.398
 4738POPC   PO461176  10.937   3.661   5.511
 4738POPC   GL161177  10.575   3.660   5.779
 4738POPC   GL261178  10.289   3.876   5.691
 4738POPC   C1A61179  10.533   3.642   6.221
 4738POPC   D2A61180  10.527   3.429   6.629
 4738POPC   C3A61181  10.662   3.438   7.063
 4738POPC   C4A61182  10.365   3.200   7.259
 4738POPC   C1B61183  10.189   4.010   6.125
 4738POPC   C2B61184  10.291   3.921   6.565
 4738POPC   C3B61185  10.250   3.710   6.967
 4738POPC   C4B61186  10.310   3.905   7.355
 4739POPC   NC361187  24.959  12.304   5.261
 4739POPC   PO461188  25.584  12.119   5.495
 4739POPC   GL161189  25.373  11.928   5.822
 4739POPC   GL261190  25.032  12.080   5.767
 4739POPC   C1A61191  25.384  12.057   6.255
 4739POPC   D2A61192  25.434  12.276   6.647
 4739POPC   C3A61193  25.333  12.032   7.012
 4739POPC   C4A61194  25.203  12.255   7.373
 4739POPC   C1B61195  24.936  11.849   6.162
 4739POPC   C2B61196  25.080  11.816   6.614
 4739POPC   C3B61197  24.817  11.849   7.003
 4739POPC   C4B61198  24.845  11.876   7.472
 4740POPC   NC361199  38.824  39.825   5.170
 4740POPC   PO461200  38.281  39.967   5.496
 4740POPC   GL161201  38.272  39.932   5.881
 4740POPC   GL261202  38.607  40.014   5.942
 4740POPC   C1A61203  38.273  39.797   6.293
 4740POPC   D2A61204  38.540  39.938   6.598
 4740POPC   C3A61205  38.405  39.784   6.976
 4740POPC   C4A61206  38.451  39.999   7.319
 4740POPC   C1B61207  38.524  40.347   6.230
 4740POPC   C2B61208  38.648  40.545   6.610
 4740POPC   C3B61209  38.545  40.405   7.031
 4740POPC   C4B61210  38.645  40.431   7.494
 4741POPC   NC361211  38.171   1.304   5.565
 4741POPC   PO461212  37.700   0.997   5.192
 4741POPC   GL161213  37.682   1.177   5.714
 4741POPC   GL261214  37.465   1.471   5.852
 4741POPC   C1A61215  37.584   1.069   6.161
 4741POPC   D2A61216  37.561   0.758   6.495
 4741POPC   C3A61217  37.745   0.977   6.798
 4741POPC   C4A61218  37.722   1.216   7.147
 4741POPC   C1B61219  37.650   1.588   6.292
 4741POPC   C2B61220  37.554   1.605   6.775
 4741POPC   C3B61221  37.811   1.719   7.140
 4741POPC   C4B61222  38.162   1.455   7.308
 4742POPC   NC361223  25.805  44.804   5.442
 4742POPC   PO461224  26.396  44.851   5.223
 4742POPC   GL161225  26.190  44.713   5.744
 4742POPC   GL261226  25.808  44.680   5.908
 4742POPC   C1A61227  26.177  44.702   6.220
 4742POPC   D2A61228  26.060  44.712   6.636
 4742POPC   C3A61229  26.306  44.407   6.878
 4742POPC   C4A61230  26.511  44.711   7.141
 4742POPC   C1B61231  25.684  44.906   6.310
 4742POPC   C2B61232  25.435   0.047   6.675
 4742POPC   C3B61233  25.665  44.835   6.977
 4742POPC   C4B61234  25.991  44.688   7.166
 4743POPC   NC361235  14.379  42.098   5.364
 4743POPC   PO461236  14.953  42.130   5.597
 4743POPC   GL161237  14.606  42.163   5.850
 4743POPC   GL261238  14.336  42.379   5.792
 4743POPC   C1A61239  14.500  42.158   6.280
 4743POPC   D2A61240  14.520  41.964   6.671
 4743POPC   C3A61241  14.422  42.271   7.006
 4743POPC   C4A61242  14.501  42.365   7.460
 4743POPC   C1B61243  14.128  42.486   6.185
 4743POPC   C2B61244  14.070  42.281   6.594
 4743POPC   C3B61245  13.967  42.503   6.952
 4743POPC   C4B61246  14.109  42.696   7.315
 4744POPC   NC361247   9.535  38.653   5.409
 4744POPC   PO461248   9.882  38.072   5.373
 4744POPC   GL161249   9.891  38.366   5.756
 4744POPC   GL261250  10.135  38.644   5.850
 4744POPC   C1A61251   9.665  38.604   6.091
 4744POPC   D2A61252   9.717  38.811   6.488
 4744POPC   C3A61253   9.553  38.560   6.850
 4744POPC   C4A61254   9.530  38.412   7.277
 4744POPC   C1B61255  10.115  38.437   6.266
 4744POPC   C2B61256   9.943  38.270   6.649
 4744POPC   C3B61257  10.042  38.403   7.070
 4744POPC   C4B61258   9.887  38.777   7.229
 4745POPC   NC361259  24.970   5.555   5.494
 4745POPC   PO461260  25.411   6.059   5.512
 4745POPC   GL161261  25.254   5.835   5.821
 4745POPC   GL261262  25.465   5.580   5.788
 4745POPC   C1A61263  25.168   5.835   6.226
 4745POPC   D2A61264  25.443   5.865   6.546
 4745POPC   C3A61265  25.207   5.897   6.879
 4745POPC   C4A61266  25.311   5.970   7.251
 4745POPC   C1B61267  25.548   5.472   6.221
 4745POPC   C2B61268  25.760   5.456   6.624
 4745POPC   C3B61269  25.687   5.686   6.991
 4745POPC   C4B61270  25.327   5.475   7.167
 4746POPC   NC361271  20.706  16.721   5.181
 4746POPC   PO461272  21.366  16.737   5.299
 4746POPC   GL161273  21.505  16.588   5.715
 4746POPC   GL261274  21.313  16.360   5.955
 4746POPC   C1A61275  21.576  16.850   6.109
 4746POPC   D2A61276  21.387  17.034   6.501
 4746POPC   C3A61277  21.462  16.773   6.877
 4746POPC   C4A61278  21.618  16.751   7.296
 4746POPC   C1B61279  21.019  16.518   6.327
 4746POPC   C2B61280  20.908  16.879   6.602
 4746POPC   C3B61281  21.085  17.107   6.949
 4746POPC   C4B61282  21.115  16.788   7.262
 4747POPC   NC361283  36.140  22.456   5.530
 4747POPC   PO461284  36.115  21.829   5.737
 4747POPC   GL161285  36.320  22.154   5.901
 4747POPC   GL261286  36.026  22.352   6.020
 4747POPC   C1A61287  36.522  22.289   6.274
 4747POPC   D2A61288  36.402  22.071   6.661
 4747POPC   C3A61289  36.229  22.232   7.024
 4747POPC   C4A61290  36.091  22.157   7.463
 4747POPC   C1B61291  35.758  22.553   6.331
 4747POPC   C2B61292  35.686  22.357   6.732
 4747POPC   C3B61293  35.754  22.384   7.164
 4747POPC   C4B61294  35.852  22.566   7.608
 4748POPC   NC361295  35.546  39.304   5.612
 4748POPC   PO461296  36.121  39.116   5.250
 4748POPC   GL161297  36.205  39.142   5.678
 4748POPC   GL261298  35.911  38.925   5.691
 4748POPC   C1A61299  36.204  39.431   6.059
 4748POPC   D2A61300  35.895  39.408   6.400
 4748POPC   C3A61301  36.062  39.449   6.799
 4748POPC   C4A61302  36.133  39.359   7.195
 4748POPC   C1B61303  35.953  38.976   6.125
 4748POPC   C2B61304  35.927  38.902   6.570
 4748POPC   C3B61305  35.842  38.884   6.998
 4748POPC   C4B61306  36.184  38.837   7.242
 4749POPC   NC361307  27.523  30.185   5.341
 4749POPC   PO461308  27.360  30.843   5.492
 4749POPC   GL161309  27.454  30.725   5.900
 4749POPC   GL261310  27.483  30.426   5.792
 4749POPC   C1A61311  27.466  30.812   6.331
 4749POPC   D2A61312  27.511  31.124   6.667
 4749POPC   C3A61313  27.560  30.971   7.084
 4749POPC   C4A61314  27.279  30.681   7.287
 4749POPC   C1B61315  27.769  30.393   6.151
 4749POPC   C2B61316  27.638  30.256   6.575
 4749POPC   C3B61317  27.628  30.482   6.963
 4749POPC   C4B61318  27.746  30.463   7.415
 4750POPC   NC361319  44.922  39.943   5.442
 4750POPC   PO461320  44.403  39.541   5.416
 4750POPC   GL161321  44.598  39.724   5.805
 4750POPC   GL261322  44.564  40.091   5.834
 4750POPC   C1A61323  44.989  39.829   6.069
 4750POPC   D2A61324   0.070  39.909   6.504
 4750POPC   C3A61325  44.723  39.897   6.809
 4750POPC   C4A61326  44.812  40.125   7.190
 4750POPC   C1B61327  44.678  40.170   6.287
 4750POPC   C2B61328  44.655  40.388   6.688
 4750POPC   C3B61329  44.399  40.317   6.986
 4750POPC   C4B61330  44.329  39.977   7.238
 4751POPC   NC361331  24.142  17.985   5.403
 4751POPC   PO461332  23.662  18.465   5.469
 4751POPC   GL161333  23.773  18.367   5.866
 4751POPC   GL261334  24.088  18.572   5.883
 4751POPC   C1A61335  23.493  18.317   6.233
 4751POPC   D2A61336  23.383  18.073   6.566
 4751POPC   C3A61337  23.460  18.316   6.937
 4751POPC   C4A61338  23.759  18.121   7.191
 4751POPC   C1B61339  23.984  18.486   6.310
 4751POPC   C2B61340  23.863  18.255   6.647
 4751POPC   C3B61341  24.017  18.495   6.975
 4751POPC   C4B61342  24.224  18.825   7.203
 4752POPC   NC361343  21.749  13.892   5.442
 4752POPC   PO461344  22.341  13.513   5.410
 4752POPC   GL161345  22.232  13.765   5.743
 4752POPC   GL261346  21.960  13.566   5.814
 4752POPC   C1A61347  22.309  13.739   6.176
 4752POPC   D2A61348  22.092  13.558   6.523
 4752POPC   C3A61349  22.226  13.775   6.879
 4752POPC   C4A61350  22.277  13.644   7.314
 4752POPC   C1B61351  21.816  13.861   6.136
 4752POPC   C2B61352  21.621  13.757   6.533
 4752POPC   C3B61353  21.743  13.615   6.967
 4752POPC   C4B61354  21.787  13.745   7.419
 4753POPC   NC361355  31.292  25.240   5.346
 4753POPC   PO461356  31.778  25.546   5.705
 4753POPC   GL161357  31.635  25.186   5.931
 4753POPC   GL261358  31.277  25.212   5.897
 4753POPC   C1A61359  31.464  25.132   6.383
 4753POPC   D2A61360  31.458  25.323   6.838
 4753POPC   C3A61361  31.419  25.074   7.252
 4753POPC   C4A61362  31.116  25.050   7.625
 4753POPC   C1B61363  31.354  25.593   6.160
 4753POPC   C2B61364  31.251  25.773   6.533
 4753POPC   C3B61365  31.112  25.743   6.926
 4753POPC   C4B61366  31.089  25.450   7.245
 4754POPC   NC361367   3.531   9.199   5.259
 4754POPC   PO461368   3.259   8.737   5.366
 4754POPC   GL161369   3.516   8.927   5.741
 4754POPC   GL261370   3.512   9.293   5.794
 4754POPC   C1A61371   3.704   8.922   6.194
 4754POPC   D2A61372   3.908   9.043   6.610
 4754POPC   C3A61373   3.822   8.982   7.079
 4754POPC   C4A61374   4.076   8.873   7.468
 4754POPC   C1B61375   3.334   9.262   6.231
 4754POPC   C2B61376   3.387   9.036   6.634
 4754POPC   C3B61377   3.379   9.244   7.030
 4754POPC   C4B61378   3.184   9.250   7.449
 4755POPC   NC361379  20.467  27.028   5.428
 4755POPC   PO461380  20.802  26.499   5.464
 4755POPC   GL161381  20.616  26.709   5.829
 4755POPC   GL261382  20.859  27.008   5.803
 4755POPC   C1A61383  20.572  26.795   6.302
 4755POPC   D2A61384  20.390  26.795   6.767
 4755POPC   C3A61385  20.529  26.755   7.203
 4755POPC   C4A61386  20.384  26.835   7.618
 4755POPC   C1B61387  21.047  26.973   6.225
 4755POPC   C2B61388  21.031  26.658   6.559
 4755POPC   C3B61389  20.957  26.584   6.984
 4755POPC   C4B61390  20.960  27.009   7.209
 4756POPC   NC361391  18.680  15.219   5.364
 4756POPC   PO461392  19.313  15.377   5.291
 4756POPC   GL161393  19.118  15.145   5.622
 4756POPC   GL261394  19.001  15.449   5.752
 4756POPC   C1A61395  19.117  15.068   6.096
 4756POPC   D2A61396  19.026  14.821   6.471
 4756POPC   C3A61397  19.102  15.019   6.845
 4756POPC   C4A61398  19.249  14.935   7.237
 4756POPC   C1B61399  18.725  15.449   6.118
 4756POPC   C2B61400  18.892  15.357   6.488
 4756POPC   C3B61401  18.848  15.466   6.880
 4756POPC   C4B61402  18.973  15.357   7.240
 4757POPC   NC361403  34.474  19.854   5.093
 4757POPC   PO461404  35.096  20.049   5.393
 4757POPC   GL161405  34.899  19.819   5.813
 4757POPC   GL261406  34.552  19.653   6.008
 4757POPC   C1A61407  34.959  19.695   6.265
 4757POPC   D2A61408  34.562  19.779   6.523
 4757POPC   C3A61409  34.574  20.035   6.915
 4757POPC   C4A61410  34.756  19.761   7.187
 4757POPC   C1B61411  34.278  19.325   6.186
 4757POPC   C2B61412  34.190  19.275   6.628
 4757POPC   C3B61413  34.317  19.581   6.942
 4757POPC   C4B61414  34.362  19.539   7.402
 4758POPC   NC361415  36.390  36.784   5.301
 4758POPC   PO461416  35.781  36.550   5.428
 4758POPC   GL161417  35.982  36.542   5.830
 4758POPC   GL261418  36.316  36.662   5.789
 4758POPC   C1A61419  35.886  36.746   6.226
 4758POPC   D2A61420  35.823  36.958   6.647
 4758POPC   C3A61421  35.873  36.757   7.074
 4758POPC   C4A61422  35.870  36.686   7.536
 4758POPC   C1B61423  36.347  36.943   6.106
 4758POPC   C2B61424  36.387  36.801   6.510
 4758POPC   C3B61425  36.293  36.998   6.877
 4758POPC   C4B61426  36.344  36.902   7.275
 4759POPC   NC361427  40.377  39.404   5.178
 4759POPC   PO461428  39.744  39.393   5.464
 4759POPC   GL161429  39.854  39.062   5.731
 4759POPC   GL261430  40.134  39.181   5.880
 4759POPC   C1A61431  39.766  38.893   6.132
 4759POPC   D2A61432  39.637  39.076   6.524
 4759POPC   C3A61433  39.927  39.067   6.861
 4759POPC   C4A61434  39.831  39.077   7.288
 4759POPC   C1B61435  39.775  39.409   6.142
 4759POPC   C2B61436  39.695  39.584   6.582
 4759POPC   C3B61437  39.725  39.506   7.047
 4759POPC   C4B61438  39.781  39.530   7.508
 4760POPC   NC361439  17.520  15.191   5.267
 4760POPC   PO461440  17.961  15.262   5.685
 4760POPC   GL161441  17.595  15.271   5.882
 4760POPC   GL261442  17.341  15.467   5.709
 4760POPC   C1A61443  17.605  15.132   6.305
 4760POPC   D2A61444  17.502  14.861   6.633
 4760POPC   C3A61445  17.686  14.976   7.026
 4760POPC   C4A61446  17.875  14.879   7.420
 4760POPC   C1B61447  17.247  15.476   6.191
 4760POPC   C2B61448  17.283  15.373   6.642
 4760POPC   C3B61449  17.244  15.234   7.082
 4760POPC   C4B61450  17.468  15.209   7.470
 4761POPC   NC361451  42.166   7.358   5.407
 4761POPC   PO461452  42.210   8.039   5.518
 4761POPC   GL161453  42.281   7.662   5.834
 4761POPC   GL261454  42.042   7.438   5.872
 4761POPC   C1A61455  42.388   7.689   6.302
 4761POPC   D2A61456  42.465   7.393   6.665
 4761POPC   C3A61457  42.363   7.549   7.025
 4761POPC   C4A61458  42.561   7.705   7.352
 4761POPC   C1B61459  42.347   7.228   6.104
 4761POPC   C2B61460  42.046   7.312   6.399
 4761POPC   C3B61461  41.911   7.224   6.839
 4761POPC   C4B61462  41.986   7.311   7.275
 4762POPC   NC361463  18.720  39.343   5.569
 4762POPC   PO461464  19.316  38.928   5.465
 4762POPC   GL161465  19.205  39.095   5.878
 4762POPC   GL261466  18.870  39.191   6.041
 4762POPC   C1A61467  19.361  39.166   6.304
 4762POPC   D2A61468  19.364  39.413   6.708
 4762POPC   C3A61469  19.256  39.119   7.060
 4762POPC   C4A61470  18.890  38.820   7.098
 4762POPC   C1B61471  18.911  39.600   6.323
 4762POPC   C2B61472  18.790  39.702   6.778
 4762POPC   C3B61473  18.880  39.478   7.196
 4762POPC   C4B61474  18.744  39.495   7.674
 4763POPC   NC361475  19.921  32.699   5.817
 4763POPC   PO461476  20.221  32.373   5.389
 4763POPC   GL161477  20.086  32.223   5.898
 4763POPC   GL261478  19.811  31.983   5.988
 4763POPC   C1A61479  19.868  32.337   6.330
 4763POPC   D2A61480  19.735  32.109   6.661
 4763POPC   C3A61481  19.986  32.099   6.956
 4763POPC   C4A61482  19.842  32.413   7.181
 4763POPC   C1B61483  19.426  31.987   6.268
 4763POPC   C2B61484  19.234  32.114   6.704
 4763POPC   C3B61485  19.411  32.114   7.148
 4763POPC   C4B61486  19.495  32.126   7.622
 4764POPC   NC361487   2.293  42.426   5.421
 4764POPC   PO461488   1.710  42.133   5.227
 4764POPC   GL161489   1.955  42.100   5.651
 4764POPC   GL261490   2.323  42.033   5.750
 4764POPC   C1A61491   1.983  42.313   6.081
 4764POPC   D2A61492   2.104  42.324   6.543
 4764POPC   C3A61493   1.923  42.510   6.954
 4764POPC   C4A61494   1.966  42.368   7.387
 4764POPC   C1B61495   2.397  41.947   6.179
 4764POPC   C2B61496   2.346  41.860   6.619
 4764POPC   C3B61497   2.309  42.108   6.992
 4764POPC   C4B61498   2.532  42.233   7.367
 4765POPC   NC361499   3.260  24.920   5.689
 4765POPC   PO461500   3.792  25.293   5.465
 4765POPC   GL161501   3.853  25.224   5.890
 4765POPC   GL261502   3.866  25.588   5.898
 4765POPC   C1A61503   3.833  25.307   6.353
 4765POPC   D2A61504   3.800  25.307   6.792
 4765POPC   C3A61505   3.435  25.096   6.932
 4765POPC   C4A61506   3.291  25.128   7.336
 4765POPC   C1B61507   3.431  25.463   6.082
 4765POPC   C2B61508   3.294  25.473   6.508
 4765POPC   C3B61509   3.220  25.554   6.935
 4765POPC   C4B61510   3.577  25.538   7.205
 4766POPC   NC361511  42.873  15.460   5.194
 4766POPC   PO461512  42.278  15.042   5.324
 4766POPC   GL161513  42.249  14.964   5.766
 4766POPC   GL261514  42.041  14.658   5.776
 4766POPC   C1A61515  42.393  15.145   6.179
 4766POPC   D2A61516  42.685  15.253   6.489
 4766POPC   C3A61517  42.527  15.305   6.888
 4766POPC   C4A61518  42.317  15.114   7.204
 4766POPC   C1B61519  41.977  14.838   6.192
 4766POPC   C2B61520  42.228  14.809   6.572
 4766POPC   C3B61521  42.045  14.743   6.985
 4766POPC   C4B61522  41.906  14.861   7.399
 4767POPC   NC361523  20.424  38.338   5.119
 4767POPC   PO461524  21.002  38.436   5.449
 4767POPC   GL161525  20.716  38.302   5.709
 4767POPC   GL261526  20.474  38.557   5.609
 4767POPC   C1A61527  20.699  38.123   6.115
 4767POPC   D2A61528  20.464  38.208   6.458
 4767POPC   C3A61529  20.575  38.168   6.877
 4767POPC   C4A61530  20.800  38.288   7.232
 4767POPC   C1B61531  20.506  38.601   6.071
 4767POPC   C2B61532  20.604  38.706   6.494
 4767POPC   C3B61533  20.766  38.667   6.886
 4767POPC   C4B61534  21.006  38.746   7.270
 4768POPC   NC361535  31.951  10.590   5.478
 4768POPC   PO461536  31.434  10.123   5.450
 4768POPC   GL161537  31.482  10.199   5.847
 4768POPC   GL261538  31.563  10.540   5.818
 4768POPC   C1A61539  31.242  10.306   6.197
 4768POPC   D2A61540  31.411  10.204   6.578
 4768POPC   C3A61541  31.248  10.418   6.909
 4768POPC   C4A61542  31.367  10.358   7.309
 4768POPC   C1B61543  31.675  10.543   6.235
 4768POPC   C2B61544  31.565  10.705   6.598
 4768POPC   C3B61545  31.689  10.663   6.994
 4768POPC   C4B61546  31.526  10.878   7.315
 4769POPC   NC361547   4.953  23.348   5.382
 4769POPC   PO461548   5.215  23.915   5.249
 4769POPC   GL161549   5.157  23.767   5.662
 4769POPC   GL261550   5.325  23.462   5.765
 4769POPC   C1A61551   5.038  23.770   6.109
 4769POPC   D2A61552   5.090  23.624   6.545
 4769POPC   C3A61553   5.072  23.935   6.895
 4769POPC   C4A61554   5.143  23.836   7.341
 4769POPC   C1B61555   5.510  23.426   6.184
 4769POPC   C2B61556   5.586  23.480   6.623
 4769POPC   C3B61557   5.404  23.534   7.015
 4769POPC   C4B61558   5.491  23.463   7.469
 4770POPC   NC361559  24.233  22.312   5.383
 4770POPC   PO461560  24.378  21.619   5.266
 4770POPC   GL161561  24.439  21.835   5.730
 4770POPC   GL261562  24.489  22.182   5.809
 4770POPC   C1A61563  24.360  21.813   6.192
 4770POPC   D2A61564  24.296  21.985   6.634
 4770POPC   C3A61565  24.669  22.103   6.893
 4770POPC   C4A61566  24.835  21.876   7.224
 4770POPC   C1B61567  24.483  22.320   6.250
 4770POPC   C2B61568  24.388  22.496   6.676
 4770POPC   C3B61569  24.313  22.398   7.115
 4770POPC   C4B61570  24.288  22.582   7.511
 4771POPC   NC361571  32.318   2.103   5.225
 4771POPC   PO461572  31.685   1.940   5.429
 4771POPC   GL161573  32.055   2.100   5.685
 4771POPC   GL261574  32.309   1.814   5.668
 4771POPC   C1A61575  32.243   2.307   6.083
 4771POPC   D2A61576  32.486   2.450   6.463
 4771POPC   C3A61577  32.269   2.391   6.875
 4771POPC   C4A61578  32.356   2.292   7.313
 4771POPC   C1B61579  32.285   1.787   6.125
 4771POPC   C2B61580  32.382   1.945   6.565
 4771POPC   C3B61581  32.275   1.796   6.991
 4771POPC   C4B61582  32.271   1.776   7.453
 4772POPC   NC361583  28.807  44.084   5.458
 4772POPC   PO461584  29.267  43.724   5.586
 4772POPC   GL161585  29.171  43.898   5.897
 4772POPC   GL261586  28.807  43.830   5.922
 4772POPC   C1A61587  29.133  43.725   6.298
 4772POPC   D2A61588  29.263  43.879   6.657
 4772POPC   C3A61589  29.361  43.653   7.005
 4772POPC   C4A61590  29.059  43.773   7.286
 4772POPC   C1B61591  28.895  44.195   6.178
 4772POPC   C2B61592  28.831  44.364   6.584
 4772POPC   C3B61593  28.995  44.203   6.942
 4772POPC   C4B61594  28.753  44.178   7.266
 4773POPC   NC361595  15.360  42.228   5.412
 4773POPC   PO461596  14.679  42.503   5.335
 4773POPC   GL161597  14.948  42.562   5.815
 4773POPC   GL261598  15.301  42.641   5.737
 4773POPC   C1A61599  14.950  42.398   6.243
 4773POPC   D2A61600  14.791  42.446   6.659
 4773POPC   C3A61601  14.926  42.150   6.950
 4773POPC   C4A61602  14.987  42.154   7.370
 4773POPC   C1B61603  15.322  42.740   6.185
 4773POPC   C2B61604  15.253  42.700   6.642
 4773POPC   C3B61605  15.086  42.635   7.083
 4773POPC   C4B61606  15.368  42.537   7.457
 4774POPC   NC361607   7.089  10.601   5.536
 4774POPC   PO461608   6.452  10.539   5.522
 4774POPC   GL161609   6.723  10.562   5.879
 4774POPC   GL261610   6.906  10.275   5.880
 4774POPC   C1A61611   6.773  10.565   6.325
 4774POPC   D2A61612   6.527  10.574   6.678
 4774POPC   C3A61613   6.709  10.526   7.074
 4774POPC   C4A61614   6.350  10.632   7.400
 4774POPC   C1B61615   6.517  10.173   6.120
 4774POPC   C2B61616   6.579  10.077   6.547
 4774POPC   C3B61617   6.426  10.109   6.936
 4774POPC   C4B61618   6.499  10.160   7.342
 4775POPC   NC361619  27.354  21.772   5.539
 4775POPC   PO461620  27.887  21.524   5.232
 4775POPC   GL161621  27.772  21.409   5.687
 4775POPC   GL261622  27.843  21.677   5.904
 4775POPC   C1A61623  27.748  21.227   6.146
 4775POPC   D2A61624  27.491  21.297   6.540
 4775POPC   C3A61625  27.657  21.389   6.958
 4775POPC   C4A61626  27.932  21.144   7.250
 4775POPC   C1B61627  27.421  21.623   6.148
 4775POPC   C2B61628  27.269  21.776   6.530
 4775POPC   C3B61629  27.228  21.859   6.941
 4775POPC   C4B61630  27.247  21.529   7.220
 4776POPC   NC361631  12.889  14.883   5.419
 4776POPC   PO461632  12.961  15.520   5.388
 4776POPC   GL161633  12.851  15.229   5.790
 4776POPC   GL261634  12.603  14.915   5.837
 4776POPC   C1A61635  13.054  15.083   6.185
 4776POPC   D2A61636  12.944  15.315   6.568
 4776POPC   C3A61637  12.998  15.133   6.982
 4776POPC   C4A61638  13.224  15.262   7.339
 4776POPC   C1B61639  12.556  15.055   6.270
 4776POPC   C2B61640  12.627  14.913   6.691
 4776POPC   C3B61641  12.458  15.077   7.102
 4776POPC   C4B61642  12.302  15.091   7.554
 4777POPC   NC361643  21.594  12.696   5.369
 4777POPC   PO461644  21.683  12.033   5.275
 4777POPC   GL161645  21.549  12.099   5.701
 4777POPC   GL261646  21.641  11.781   5.810
 4777POPC   C1A61647  21.279  12.143   6.091
 4777POPC   D2A61648  21.170  11.983   6.525
 4777POPC   C3A61649  21.228  12.262   6.884
 4777POPC   C4A61650  21.189  12.054   7.206
 4777POPC   C1B61651  21.758  12.000   6.196
 4777POPC   C2B61652  21.634  12.190   6.592
 4777POPC   C3B61653  21.696  12.101   7.055
 4777POPC   C4B61654  21.582  12.280   7.470
 4778POPC   NC361655  35.784  25.647   5.366
 4778POPC   PO461656  35.644  24.983   5.393
 4778POPC   GL161657  35.372  25.163   5.773
 4778POPC   GL261658  34.985  25.201   5.787
 4778POPC   C1A61659  35.393  25.234   6.237
 4778POPC   D2A61660  35.211  25.111   6.630
 4778POPC   C3A61661  35.293  25.247   7.039
 4778POPC   C4A61662  35.217  25.662   7.177
 4778POPC   C1B61663  34.984  24.923   6.189
 4778POPC   C2B61664  35.071  24.627   6.556
 4778POPC   C3B61665  34.972  24.822   6.973
 4778POPC   C4B61666  34.997  25.001   7.403
 4779POPC   NC361667  44.527  12.538   5.627
 4779POPC   PO461668  44.721  13.152   5.421
 4779POPC   GL161669  44.630  13.016   5.839
 4779POPC   GL261670  44.911  12.822   5.870
 4779POPC   C1A61671  44.703  13.092   6.290
 4779POPC   D2A61672  44.621  13.086   6.745
 4779POPC   C3A61673  44.380  12.816   6.978
 4779POPC   C4A61674  44.379  12.822   7.412
 4779POPC   C1B61675  44.973  12.641   6.271
 4779POPC   C2B61676   0.068  12.783   6.697
 4779POPC   C3B61677  44.909  12.858   7.120
 4779POPC   C4B61678  44.822  12.621   7.506
 4780POPC   NC361679  43.618  38.050   5.127
 4780POPC   PO461680  44.135  37.738   5.498
 4780POPC   GL161681  43.971  37.623   5.869
 4780POPC   GL261682  43.712  37.383   5.827
 4780POPC   C1A61683  43.915  37.746   6.290
 4780POPC   D2A61684  43.735  37.548   6.665
 4780POPC   C3A61685  43.966  37.693   7.010
 4780POPC   C4A61686  43.956  37.713   7.470
 4780POPC   C1B61687  43.462  37.567   6.161
 4780POPC   C2B61688  43.424  37.917   6.445
 4780POPC   C3B61689  43.431  37.950   6.890
 4780POPC   C4B61690  43.510  37.603   7.208
 4781POPC   NC361691  14.799  28.445   5.512
 4781POPC   PO461692  15.366  28.169   5.141
 4781POPC   GL161693  15.241  28.237   5.629
 4781POPC   GL261694  15.358  28.553   5.849
 4781POPC   C1A61695  15.158  28.154   6.107
 4781POPC   D2A61696  14.857  28.170   6.501
 4781POPC   C3A61697  14.977  28.210   6.964
 4781POPC   C4A61698  15.013  28.279   7.409
 4781POPC   C1B61699  15.092  28.662   6.235
 4781POPC   C2B61700  14.995  28.662   6.698
 4781POPC   C3B61701  15.253  28.653   7.089
 4781POPC   C4B61702  15.440  28.572   7.497
 4782POPC   NC361703   5.104   3.144   5.367
 4782POPC   PO461704   5.020   3.780   5.379
 4782POPC   GL161705   5.223   3.510   5.699
 4782POPC   GL261706   4.947   3.290   5.838
 4782POPC   C1A61707   5.405   3.353   6.102
 4782POPC   D2A61708   5.352   3.556   6.519
 4782POPC   C3A61709   5.261   3.318   6.882
 4782POPC   C4A61710   4.977   3.167   7.187
 4782POPC   C1B61711   5.008   3.667   6.144
 4782POPC   C2B61712   4.943   3.839   6.569
 4782POPC   C3B61713   5.061   3.770   6.991
 4782POPC   C4B61714   4.732   3.788   7.301
 4783POPC   NC361715   4.905  27.103   5.452
 4783POPC   PO461716   5.124  26.534   5.307
 4783POPC   GL161717   5.169  26.743   5.727
 4783POPC   GL261718   5.378  27.041   5.673
 4783POPC   C1A61719   4.978  26.896   6.119
 4783POPC   D2A61720   4.767  26.855   6.505
 4783POPC   C3A61721   4.992  26.828   6.905
 4783POPC   C4A61722   4.823  26.918   7.282
 4783POPC   C1B61723   5.454  27.075   6.109
 4783POPC   C2B61724   5.319  26.968   6.527
 4783POPC   C3B61725   5.508  27.000   6.941
 4783POPC   C4B61726   5.328  26.964   7.332
 4784POPC   NC361727   7.202   4.531   5.493
 4784POPC   PO461728   7.385   3.919   5.531
 4784POPC   GL161729   7.324   4.214   5.885
 4784POPC   GL261730   6.988   4.260   5.915
 4784POPC   C1A61731   7.393   4.278   6.362
 4784POPC   D2A61732   7.666   4.180   6.734
 4784POPC   C3A61733   7.559   4.235   7.180
 4784POPC   C4A61734   7.680   4.029   7.580
 4784POPC   C1B61735   7.075   4.603   6.142
 4784POPC   C2B61736   7.089   4.690   6.533
 4784POPC   C3B61737   7.179   4.495   6.898
 4784POPC   C4B61738   7.066   4.531   7.316
 4785POPC   NC361739  23.779  42.677   5.292
 4785POPC   PO461740  23.631  42.058   5.288
 4785POPC   GL161741  23.639  42.237   5.718
 4785POPC   GL261742  23.998  42.313   5.739
 4785POPC   C1A61743  23.468  42.333   6.157
 4785POPC   D2A61744  23.616  42.542   6.543
 4785POPC   C3A61745  23.710  42.442   6.977
 4785POPC   C4A61746  23.594  42.707   7.323
 4785POPC   C1B61747  23.963  42.051   6.113
 4785POPC   C2B61748  24.084  41.982   6.539
 4785POPC   C3B61749  23.966  41.930   6.964
 4785POPC   C4B61750  24.101  42.218   7.251
 4786POPC   NC361751   8.889  37.143   5.369
 4786POPC   PO461752   8.775  36.513   5.456
 4786POPC   GL161753   8.945  36.611   5.877
 4786POPC   GL261754   9.020  36.927   5.807
 4786POPC   C1A61755   9.261  36.792   6.211
 4786POPC   D2A61756   9.264  37.011   6.586
 4786POPC   C3A61757   9.032  36.742   6.805
 4786POPC   C4A61758   8.903  36.624   7.183
 4786POPC   C1B61759   8.795  37.058   6.206
 4786POPC   C2B61760   8.774  37.245   6.636
 4786POPC   C3B61761   8.749  37.092   7.057
 4786POPC   C4B61762   9.019  37.072   7.428
 4787POPC   NC361763   7.185  22.268   5.457
 4787POPC   PO461764   7.762  21.981   5.226
 4787POPC   GL161765   7.702  22.097   5.738
 4787POPC   GL261766   7.384  22.214   5.913
 4787POPC   C1A61767   7.745  22.211   6.254
 4787POPC   D2A61768   7.476  22.299   6.636
 4787POPC   C3A61769   7.572  22.149   7.050
 4787POPC   C4A61770   7.555  22.249   7.512
 4787POPC   C1B61771   7.274  21.958   6.308
 4787POPC   C2B61772   7.203  21.861   6.764
 4787POPC   C3B61773   7.113  22.030   7.178
 4787POPC   C4B61774   7.066  22.175   7.587
 4788POPC   NC361775  26.043  29.296   5.318
 4788POPC   PO461776  26.144  28.641   5.360
 4788POPC   GL161777  26.082  28.974   5.699
 4788POPC   GL261778  25.730  29.019   5.784
 4788POPC   C1A61779  26.221  29.115   6.143
 4788POPC   D2A61780  26.018  29.117   6.574
 4788POPC   C3A61781  26.222  29.127   6.971
 4788POPC   C4A61782  26.582  28.901   7.099
 4788POPC   C1B61783  25.748  29.310   6.156
 4788POPC   C2B61784  25.688  29.508   6.583
 4788POPC   C3B61785  25.822  29.463   6.989
 4788POPC   C4B61786  25.796  29.191   7.290
 4789POPC   NC361787   7.515   9.594   5.533
 4789POPC   PO461788   7.133  10.163   5.431
 4789POPC   GL161789   7.288   9.900   5.874
 4789POPC   GL261790   7.638   9.693   6.017
 4789POPC   C1A61791   7.213   9.528   6.188
 4789POPC   D2A61792   7.435   9.499   6.601
 4789POPC   C3A61793   7.167   9.499   6.989
 4789POPC   C4A61794   6.818   9.235   7.164
 4789POPC   C1B61795   7.514   9.980   6.355
 4789POPC   C2B61796   7.573  10.000   6.803
 4789POPC   C3B61797   7.690   9.625   7.030
 4789POPC   C4B61798   7.614   9.460   7.396
 4790POPC   NC361799  19.526  20.553   5.439
 4790POPC   PO461800  18.983  20.191   5.391
 4790POPC   GL161801  19.059  20.460   5.762
 4790POPC   GL261802  19.256  20.752   5.825
 4790POPC   C1A61803  18.925  20.605   6.194
 4790POPC   D2A61804  19.017  20.711   6.607
 4790POPC   C3A61805  18.927  20.476   6.963
 4790POPC   C4A61806  19.224  20.357   7.268
 4790POPC   C1B61807  19.355  20.922   6.241
 4790POPC   C2B61808  19.495  20.883   6.672
 4790POPC   C3B61809  19.235  20.866   7.064
 4790POPC   C4B61810  19.041  21.002   7.456
 4791POPC   NC361811  29.210  23.509   5.319
 4791POPC   PO461812  28.906  24.073   5.070
 4791POPC   GL161813  29.233  23.992   5.499
 4791POPC   GL261814  29.055  23.750   5.731
 4791POPC   C1A61815  29.421  23.951   5.995
 4791POPC   D2A61816  29.406  23.882   6.480
 4791POPC   C3A61817  29.392  23.668   6.905
 4791POPC   C4A61818  29.250  23.769   7.350
 4791POPC   C1B61819  29.094  23.578   6.157
 4791POPC   C2B61820  28.993  23.603   6.612
 4791POPC   C3B61821  28.960  23.420   7.035
 4791POPC   C4B61822  28.759  23.589   7.401
 4792POPC   NC361823  17.072  42.869   5.440
 4792POPC   PO461824  17.739  43.083   5.403
 4792POPC   GL161825  17.400  43.163   5.777
 4792POPC   GL261826  17.305  42.822   5.882
 4792POPC   C1A61827  17.490  43.304   6.234
 4792POPC   D2A61828  17.799  43.079   6.539
 4792POPC   C3A61829  17.834  43.154   6.990
 4792POPC   C4A61830  17.469  43.273   7.262
 4792POPC   C1B61831  17.131  42.934   6.268
 4792POPC   C2B61832  17.278  42.833   6.674
 4792POPC   C3B61833  17.083  42.982   7.035
 4792POPC   C4B61834  17.100  42.856   7.446
 4793POPC   NC361835  23.031  32.485   5.499
 4793POPC   PO461836  22.738  31.901   5.355
 4793POPC   GL161837  22.730  32.102   5.749
 4793POPC   GL261838  22.828  32.389   5.947
 4793POPC   C1A61839  22.570  32.027   6.180
 4793POPC   D2A61840  22.830  32.267   6.454
 4793POPC   C3A61841  22.829  32.218   6.898
 4793POPC   C4A61842  22.965  32.510   7.200
 4793POPC   C1B61843  23.235  32.450   6.133
 4793POPC   C2B61844  23.373  32.281   6.473
 4793POPC   C3B61845  23.352  32.253   6.858
 4793POPC   C4B61846  23.380  32.244   7.275
 4794POPC   NC361847  34.184  33.831   5.411
 4794POPC   PO461848  33.497  34.064   5.354
 4794POPC   GL161849  33.778  34.083   5.713
 4794POPC   GL261850  33.839  33.732   5.762
 4794POPC   C1A61851  33.765  34.028   6.186
 4794POPC   D2A61852  33.514  33.961   6.565
 4794POPC   C3A61853  33.738  34.017   6.950
 4794POPC   C4A61854  33.850  33.980   7.363
 4794POPC   C1B61855  33.981  33.552   6.160
 4794POPC   C2B61856  33.967  33.702   6.609
 4794POPC   C3B61857  33.936  33.529   7.036
 4794POPC   C4B61858  33.937  33.521   7.522
 4795POPC   NC361859  30.539  11.439   5.522
 4795POPC   PO461860  30.874  10.868   5.406
 4795POPC   GL161861  30.925  11.185   5.764
 4795POPC   GL261862  31.163  11.435   5.663
 4795POPC   C1A61863  30.767  11.181   6.203
 4795POPC   D2A61864  30.459  11.144   6.558
 4795POPC   C3A61865  30.624  11.138   6.971
 4795POPC   C4A61866  30.503  11.436   7.287
 4795POPC   C1B61867  31.200  11.507   6.119
 4795POPC   C2B61868  30.981  11.536   6.545
 4795POPC   C3B61869  30.970  11.541   7.013
 4795POPC   C4B61870  30.784  11.848   7.310
 4796POPC   NC361871  21.880  17.493   5.423
 4796POPC   PO461872  22.506  17.561   5.494
 4796POPC   GL161873  22.222  17.473   5.826
 4796POPC   GL261874  21.907  17.711   5.863
 4796POPC   C1A61875  22.178  17.245   6.203
 4796POPC   D2A61876  22.025  17.316   6.595
 4796POPC   C3A61877  22.285  17.344   6.932
 4796POPC   C4A61878  22.062  17.320   7.248
 4796POPC   C1B61879  22.066  17.748   6.252
 4796POPC   C2B61880  21.938  17.807   6.657
 4796POPC   C3B61881  22.124  17.832   7.050
 4796POPC   C4B61882  22.440  17.694   7.346
 4797POPC   NC361883   9.493  24.427   5.386
 4797POPC   PO461884  10.143  24.220   5.426
 4797POPC   GL161885   9.813  24.390   5.785
 4797POPC   GL261886   9.474  24.274   5.878
 4797POPC   C1A61887   9.655  24.613   6.214
 4797POPC   D2A61888   9.666  24.776   6.690
 4797POPC   C3A61889   9.568  24.475   7.026
 4797POPC   C4A61890   9.694  24.457   7.447
 4797POPC   C1B61891   9.704  24.112   6.233
 4797POPC   C2B61892   9.848  24.294   6.630
 4797POPC   C3B61893   9.896  24.084   7.055
 4797POPC   C4B61894   9.519  23.989   7.345
 4798POPC   NC361895   5.983  19.038   5.354
 4798POPC   PO461896   5.524  19.504   5.496
 4798POPC   GL161897   5.790  19.267   5.767
 4798POPC   GL261898   5.621  18.927   5.683
 4798POPC   C1A61899   6.008  19.213   6.162
 4798POPC   D2A61900   6.026  19.367   6.564
 4798POPC   C3A61901   6.030  19.123   6.955
 4798POPC   C4A61902   5.805  19.168   7.317
 4798POPC   C1B61903   5.670  18.822   6.096
 4798POPC   C2B61904   5.798  18.902   6.520
 4798POPC   C3B61905   5.716  18.687   6.909
 4798POPC   C4B61906   5.873  18.685   7.286
 4799POPC   NC361907  25.682  19.671   5.397
 4799POPC   PO461908  26.289  19.904   5.356
 4799POPC   GL161909  26.240  19.985   5.835
 4799POPC   GL261910  26.226  19.644   5.907
 4799POPC   C1A61911  26.180  19.956   6.355
 4799POPC   D2A61912  25.982  19.609   6.718
 4799POPC   C3A61913  25.911  19.616   7.176
 4799POPC   C4A61914  26.151  19.859   7.506
 4799POPC   C1B61915  26.228  19.456   6.287
 4799POPC   C2B61916  26.474  19.514   6.667
 4799POPC   C3B61917  26.400  19.690   7.079
 4799POPC   C4B61918  26.397  19.419   7.478
 4800POPC   NC361919   0.243  33.908   5.277
 4800POPC   PO461920   0.830  33.716   5.267
 4800POPC   GL161921   0.605  33.688   5.659
 4800POPC   GL261922   0.578  34.025   5.763
 4800POPC   C1A61923   0.754  33.650   6.110
 4800POPC   D2A61924   0.717  33.514   6.556
 4800POPC   C3A61925   0.457  33.605   6.942
 4800POPC   C4A61926   0.596  33.895   7.242
 4800POPC   C1B61927   0.359  33.962   6.155
 4800POPC   C2B61928   0.429  33.994   6.615
 4800POPC   C3B61929   0.163  34.101   7.001
 4800POPC   C4B61930   0.120  33.879   7.392
 4801POPC   NC361931  24.119   3.571   5.505
 4801POPC   PO461932  23.526   3.358   5.223
 4801POPC   GL161933  23.641   3.709   5.651
 4801POPC   GL261934  23.359   3.981   5.775
 4801POPC   C1A61935  23.847   3.693   6.102
 4801POPC   D2A61936  23.681   3.538   6.508
 4801POPC   C3A61937  23.827   3.700   6.900
 4801POPC   C4A61938  23.979   3.662   7.305
 4801POPC   C1B61939  23.339   3.809   6.189
 4801POPC   C2B61940  23.163   3.713   6.606
 4801POPC   C3B61941  23.324   3.801   7.011
 4801POPC   C4B61942  23.506   3.519   7.303
 4802POPC   NC361943   0.788  16.598   5.381
 4802POPC   PO461944   1.436  16.735   5.404
 4802POPC   GL161945   1.226  16.741   5.791
 4802POPC   GL261946   1.541  16.904   5.874
 4802POPC   C1A61947   1.277  16.589   6.208
 4802POPC   D2A61948   1.408  16.366   6.566
 4802POPC   C3A61949   1.289  16.650   6.878
 4802POPC   C4A61950   0.927  16.772   7.057
 4802POPC   C1B61951   1.338  17.116   6.209
 4802POPC   C2B61952   1.112  17.045   6.584
 4802POPC   C3B61953   1.254  17.141   7.000
 4802POPC   C4B61954   1.471  17.014   7.361
 4803POPC   NC361955  16.219  26.968   5.408
 4803POPC   PO461956  15.640  26.546   5.451
 4803POPC   GL161957  15.794  26.853   5.800
 4803POPC   GL261958  16.045  27.151   5.864
 4803POPC   C1A61959  16.008  26.785   6.200
 4803POPC   D2A61960  15.906  26.700   6.612
 4803POPC   C3A61961  15.942  26.830   6.999
 4803POPC   C4A61962  15.574  26.984   7.215
 4803POPC   C1B61963  16.287  27.278   6.257
 4803POPC   C2B61964  16.276  27.117   6.701
 4803POPC   C3B61965  16.316  27.225   7.157
 4803POPC   C4B61966  16.395  27.235   7.647
 4804POPC   NC361967  37.096  18.999   5.566
 4804POPC   PO461968  36.705  19.564   5.527
 4804POPC   GL161969  36.685  19.155   5.908
 4804POPC   GL261970  36.908  18.840   6.006
 4804POPC   C1A61971  36.727  19.007   6.420
 4804POPC   D2A61972  37.060  19.067   6.734
 4804POPC   C3A61973  36.881  19.011   7.147
 4804POPC   C4A61974  36.815  19.126   7.571
 4804POPC   C1B61975  37.174  18.709   6.343
 4804POPC   C2B61976  37.418  18.681   6.725
 4804POPC   C3B61977  37.348  18.828   7.154
 4804POPC   C4B61978  37.243  18.849   7.606
 4805POPC   NC361979  40.748  32.428   5.311
 4805POPC   PO461980  41.248  32.035   5.443
 4805POPC   GL161981  40.885  32.137   5.763
 4805POPC   GL261982  40.678  32.482   5.793
 4805POPC   C1A61983  40.692  32.203   6.207
 4805POPC   D2A61984  40.858  32.151   6.608
 4805POPC   C3A61985  40.596  32.221   6.961
 4805POPC   C4A61986  40.810  32.035   7.273
 4805POPC   C1B61987  40.703  32.723   6.177
 4805POPC   C2B61988  40.615  32.597   6.583
 4805POPC   C3B61989  40.798  32.738   6.953
 4805POPC   C4B61990  40.579  32.675   7.298
 4806POPC   NC361991   2.716  39.748   5.347
 4806POPC   PO461992   2.484  40.364   5.443
 4806POPC   GL161993   2.508  40.034   5.743
 4806POPC   GL261994   2.848  39.889   5.820
 4806POPC   C1A61995   2.569  40.046   6.199
 4806POPC   D2A61996   2.859  40.024   6.533
 4806POPC   C3A61997   2.642  39.982   6.892
 4806POPC   C4A61998   2.635  40.108   7.308
 4806POPC   C1B61999   2.897  39.610   6.205
 4806POPC   C2B62000   3.099  39.612   6.671
 4806POPC   C3B62001   2.911  39.640   7.144
 4806POPC   C4B62002   2.825  39.730   7.609
 4807POPC   NC362003  42.478  29.621   5.556
 4807POPC   PO462004  42.522  28.973   5.458
 4807POPC   GL162005  42.458  29.186   5.839
 4807POPC   GL262006  42.106  29.247   5.822
 4807POPC   C1A62007  42.566  29.236   6.262
 4807POPC   D2A62008  42.407  29.049   6.647
 4807POPC   C3A62009  42.616  29.192   6.998
 4807POPC   C4A62010  42.396  29.156   7.403
 4807POPC   C1B62011  42.103  29.009   6.214
 4807POPC   C2B62012  41.908  29.149   6.588
 4807POPC   C3B62013  42.070  29.288   7.010
 4807POPC   C4B62014  42.018  29.504   7.442
 4808POPC   NC362015   7.775   3.685   5.443
 4808POPC   PO462016   7.158   3.435   5.169
 4808POPC   GL162017   7.050   3.443   5.638
 4808POPC   GL262018   6.981   3.746   5.821
 4808POPC   C1A62019   7.160   3.317   6.073
 4808POPC   D2A62020   7.448   3.389   6.407
 4808POPC   C3A62021   7.382   3.406   6.873
 4808POPC   C4A62022   7.511   3.725   7.157
 4808POPC   C1B62023   7.243   3.817   6.176
 4808POPC   C2B62024   7.305   3.834   6.615
 4808POPC   C3B62025   7.122   3.987   6.954
 4808POPC   C4B62026   7.131   4.028   7.377
 4809POPC   NC362027  36.919  11.686   5.564
 4809POPC   PO462028  37.156  12.296   5.421
 4809POPC   GL162029  36.951  12.160   5.837
 4809POPC   GL262030  36.691  11.936   6.051
 4809POPC   C1A62031  37.065  12.205   6.264
 4809POPC   D2A62032  36.912  12.335   6.628
 4809POPC   C3A62033  37.121  12.229   6.958
 4809POPC   C4A62034  37.142  11.850   7.166
 4809POPC   C1B62035  36.493  12.276   6.341
 4809POPC   C2B62036  36.425  12.326   6.816
 4809POPC   C3B62037  36.672  12.290   7.210
 4809POPC   C4B62038  36.639  12.504   7.671
 4810POPC   NC362039   0.986  39.847   5.396
 4810POPC   PO462040   0.364  39.959   5.321
 4810POPC   GL162041   0.323  40.052   5.747
 4810POPC   GL262042   0.644  39.977   5.828
 4810POPC   C1A62043   0.316  40.259   6.146
 4810POPC   D2A62044   0.519  40.129   6.511
 4810POPC   C3A62045   0.419  40.282   6.881
 4810POPC   C4A62046   0.294  40.232   7.293
 4810POPC   C1B62047   0.642  39.737   6.229
 4810POPC   C2B62048   0.519  39.639   6.680
 4810POPC   C3B62049   0.669  39.616   7.117
 4810POPC   C4B62050   0.809  39.779   7.497
 4811POPC   NC362051  24.599  31.308   5.526
 4811POPC   PO462052  24.252  31.991   5.563
 4811POPC   GL162053  24.274  31.608   5.805
 4811POPC   GL262054  24.625  31.634   5.928
 4811POPC   C1A62055  24.307  31.250   6.127
 4811POPC   D2A62056  24.353  31.406   6.543
 4811POPC   C3A62057  24.397  31.222   6.949
 4811POPC   C4A62058  24.307  31.476   7.310
 4811POPC   C1B62059  24.810  31.395   6.283
 4811POPC   C2B62060  24.817  31.422   6.751
 4811POPC   C3B62061  24.728  31.674   7.109
 4811POPC   C4B62062  24.766  31.559   7.574
 4812POPC   NC362063   7.072  19.174   5.592
 4812POPC   PO462064   6.420  19.155   5.434
 4812POPC   GL162065   6.609  19.165   5.829
 4812POPC   GL262066   6.665  18.868   5.931
 4812POPC   C1A62067   6.521  19.238   6.266
 4812POPC   D2A62068   6.409  19.034   6.628
 4812POPC   C3A62069   6.592  19.138   7.015
 4812POPC   C4A62070   6.730  19.490   7.214
 4812POPC   C1B62071   6.982  19.001   6.245
 4812POPC   C2B62072   7.024  18.932   6.695
 4812POPC   C3B62073   7.064  18.710   7.102
 4812POPC   C4B62074   7.076  18.850   7.539
 4813POPC   NC362075  11.925  18.462   5.448
 4813POPC   PO462076  12.588  18.610   5.376
 4813POPC   GL162077  12.347  18.517   5.780
 4813POPC   GL262078  12.145  18.198   5.829
 4813POPC   C1A62079  12.297  18.674   6.225
 4813POPC   D2A62080  12.453  18.548   6.666
 4813POPC   C3A62081  12.231  18.497   7.068
 4813POPC   C4A62082  12.014  18.650   7.433
 4813POPC   C1B62083  12.272  18.167   6.278
 4813POPC   C2B62084  12.334  18.049   6.698
 4813POPC   C3B62085  12.044  18.001   7.005
 4813POPC   C4B62086  11.877  17.950   7.418
 4814POPC   NC362087  17.475  14.176   5.467
 4814POPC   PO462088  17.143  14.843   5.292
 4814POPC   GL162089  17.379  14.669   5.610
 4814POPC   GL262090  17.099  14.481   5.711
 4814POPC   C1A62091  17.535  14.685   6.057
 4814POPC   D2A62092  17.676  14.385   6.401
 4814POPC   C3A62093  17.751  14.474   6.854
 4814POPC   C4A62094  17.562  14.498   7.259
 4814POPC   C1B62095  17.208  14.288   6.081
 4814POPC   C2B62096  17.315  14.008   6.404
 4814POPC   C3B62097  17.399  14.081   6.825
 4814POPC   C4B62098  17.110  14.072   7.149
 4815POPC   NC362099  31.004   5.450   5.306
 4815POPC   PO462100  31.718   5.099   5.310
 4815POPC   GL162101  31.516   5.145   5.757
 4815POPC   GL262102  31.215   5.412   5.782
 4815POPC   C1A62103  31.489   4.878   6.124
 4815POPC   D2A62104  31.723   4.930   6.494
 4815POPC   C3A62105  31.586   4.864   6.911
 4815POPC   C4A62106  31.729   5.093   7.261
 4815POPC   C1B62107  31.264   5.320   6.212
 4815POPC   C2B62108  31.231   5.143   6.630
 4815POPC   C3B62109  31.327   5.337   7.042
 4815POPC   C4B62110  31.272   5.628   7.400
 4816POPC   NC362111  37.594   8.834   5.275
 4816POPC   PO462112  37.467   9.358   5.682
 4816POPC   GL162113  37.588   9.015   5.889
 4816POPC   GL262114  37.917   9.109   5.944
 4816POPC   C1A62115  37.578   8.983   6.337
 4816POPC   D2A62116  37.477   8.779   6.680
 4816POPC   C3A62117  37.604   9.066   6.993
 4816POPC   C4A62118  37.441   9.132   7.382
 4816POPC   C1B62119  37.950   8.733   6.151
 4816POPC   C2B62120  38.018   8.776   6.567
 4816POPC   C3B62121  37.888   8.639   6.944
 4816POPC   C4B62122  37.877   8.787   7.336
 4817POPC   NC362123  30.922  14.017   5.505
 4817POPC   PO462124  30.493  14.577   5.473
 4817POPC   GL162125  30.850  14.576   5.772
 4817POPC   GL262126  30.737  14.311   5.860
 4817POPC   C1A62127  30.822  14.572   6.264
 4817POPC   D2A62128  30.447  14.388   6.487
 4817POPC   C3A62129  30.532  14.419   6.921
 4817POPC   C4A62130  30.709  14.422   7.311
 4817POPC   C1B62131  30.867  14.015   6.154
 4817POPC   C2B62132  30.837  14.092   6.555
 4817POPC   C3B62133  30.829  14.011   6.924
 4817POPC   C4B62134  31.055  14.065   7.252
 4818POPC   NC362135  27.111  31.220   5.416
 4818POPC   PO462136  26.505  31.541   5.511
 4818POPC   GL162137  26.554  31.365   5.875
 4818POPC   GL262138  26.916  31.436   5.866
 4818POPC   C1A62139  26.672  31.404   6.307
 4818POPC   D2A62140  26.598  31.679   6.607
 4818POPC   C3A62141  26.753  31.525   6.971
 4818POPC   C4A62142  26.551  31.455   7.330
 4818POPC   C1B62143  27.081  31.753   6.191
 4818POPC   C2B62144  27.003  31.998   6.587
 4818POPC   C3B62145  27.089  31.934   7.045
 4818POPC   C4B62146  27.015  31.654   7.408
 4819POPC   NC362147  35.063  31.496   5.386
 4819POPC   PO462148  34.393  31.708   5.416
 4819POPC   GL162149  34.654  31.447   5.707
 4819POPC   GL262150  34.898  31.659   5.848
 4819POPC   C1A62151  34.580  31.407   6.164
 4819POPC   D2A62152  34.319  31.619   6.475
 4819POPC   C3A62153  34.343  31.670   6.924
 4819POPC   C4A62154  34.578  31.517   7.267
 4819POPC   C1B62155  35.098  31.637   6.227
 4819POPC   C2B62156  34.848  31.540   6.572
 4819POPC   C3B62157  34.935  31.401   6.927
 4819POPC   C4B62158  35.059  31.631   7.246
 4820POPC   NC362159  20.212  20.270   5.397
 4820POPC   PO462160  19.886  20.857   5.476
 4820POPC   GL162161  19.913  20.476   5.769
 4820POPC   GL262162  19.720  20.639   5.985
 4820POPC   C1A62163  20.010  20.313   6.227
 4820POPC   D2A62164  19.965  20.541   6.634
 4820POPC   C3A62165  20.105  20.357   7.038
 4820POPC   C4A62166  19.991  20.525   7.459
 4820POPC   C1B62167  19.461  20.426   6.304
 4820POPC   C2B62168  19.464  20.371   6.767
 4820POPC   C3B62169  19.668  20.616   7.084
 4820POPC   C4B62170  19.545  20.786   7.482
 4821POPC   NC362171  10.361  39.102   5.408
 4821POPC   PO462172  10.812  39.584   5.356
 4821POPC   GL162173  10.535  39.445   5.759
 4821POPC   GL262174  10.546  39.065   5.889
 4821POPC   C1A62175  10.399  39.427   6.223
 4821POPC   D2A62176  10.524  39.188   6.611
 4821POPC   C3A62177  10.378  39.387   6.999
 4821POPC   C4A62178  10.593  39.448   7.383
 4821POPC   C1B62179  10.255  38.930   6.245
 4821POPC   C2B62180  10.190  38.766   6.683
 4821POPC   C3B62181  10.360  38.882   7.098
 4821POPC   C4B62182  10.353  38.650   7.487
 4822POPC   NC362183   7.645  13.135   5.327
 4822POPC   PO462184   7.303  12.547   5.200
 4822POPC   GL162185   7.316  12.732   5.667
 4822POPC   GL262186   7.620  12.887   5.828
 4822POPC   C1A62187   7.202  12.836   6.118
 4822POPC   D2A62188   7.224  12.649   6.520
 4822POPC   C3A62189   7.339  12.880   6.883
 4822POPC   C4A62190   7.233  12.797   7.282
 4822POPC   C1B62191   7.744  12.683   6.164
 4822POPC   C2B62192   7.714  12.827   6.529
 4822POPC   C3B62193   7.861  12.735   6.897
 4822POPC   C4B62194   7.730  12.679   7.275
 4823POPC   NC362195  36.790  13.530   5.404
 4823POPC   PO462196  37.252  14.047   5.119
 4823POPC   GL162197  37.295  13.736   5.578
 4823POPC   GL262198  37.094  13.505   5.810
 4823POPC   C1A62199  37.252  13.859   6.101
 4823POPC   D2A62200  36.961  13.878   6.449
 4823POPC   C3A62201  37.022  13.631   6.809
 4823POPC   C4A62202  36.929  13.632   7.220
 4823POPC   C1B62203  36.882  13.343   6.188
 4823POPC   C2B62204  36.899  13.170   6.627
 4823POPC   C3B62205  36.634  13.226   6.993
 4823POPC   C4B62206  36.676  13.268   7.467
 4824POPC   NC362207  13.017  35.457   5.469
 4824POPC   PO462208  12.361  35.733   5.500
 4824POPC   GL162209  12.588  35.445   5.829
 4824POPC   GL262210  12.898  35.579   5.949
 4824POPC   C1A62211  12.645  35.271   6.270
 4824POPC   D2A62212  12.690  35.476   6.678
 4824POPC   C3A62213  12.746  35.285   7.086
 4824POPC   C4A62214  12.486  35.182   7.424
 4824POPC   C1B62215  13.105  35.479   6.350
 4824POPC   C2B62216  13.124  35.206   6.734
 4824POPC   C3B62217  13.253  35.279   7.169
 4824POPC   C4B62218  13.430  35.402   7.580
 4825POPC   NC362219  38.507  44.529   5.478
 4825POPC   PO462220  38.604   0.149   5.503
 4825POPC   GL162221  38.416  44.848   5.845
 4825POPC   GL262222  38.615  44.511   5.977
 4825POPC   C1A62223  38.228  44.680   6.213
 4825POPC   D2A62224  38.490  44.625   6.564
 4825POPC   C3A62225  38.230  44.503   6.883
 4825POPC   C4A62226  38.008  44.592   7.232
 4825POPC   C1B62227  38.413  44.213   6.279
 4825POPC   C2B62228  38.525  44.124   6.674
 4825POPC   C3B62229  38.755  44.378   6.954
 4825POPC   C4B62230  38.806  44.330   7.376
 4826POPC   NC362231  14.563   9.895   5.210
 4826POPC   PO462232  14.204   9.426   5.305
 4826POPC   GL162233  14.143   9.733   5.705
 4826POPC   GL262234  14.423   9.981   5.722
 4826POPC   C1A62235  14.112   9.984   6.140
 4826POPC   D2A62236  14.081   9.990   6.617
 4826POPC   C3A62237  14.222   9.702   6.962
 4826POPC   C4A62238  14.304   9.564   7.390
 4826POPC   C1B62239  14.609   9.907   6.175
 4826POPC   C2B62240  14.608   9.893   6.662
 4826POPC   C3B62241  14.699   9.840   7.136
 4826POPC   C4B62242  14.824   9.552   7.496
 4827POPC   NC362243  31.914  20.292   5.511
 4827POPC   PO462244  32.509  19.879   5.325
 4827POPC   GL162245  32.433  19.737   5.725
 4827POPC   GL262246  32.721  19.508   5.664
 4827POPC   C1A62247  32.258  19.846   6.148
 4827POPC   D2A62248  32.148  19.767   6.571
 4827POPC   C3A62249  32.333  19.871   6.912
 4827POPC   C4A62250  32.154  19.758   7.269
 4827POPC   C1B62251  32.722  19.607   6.096
 4827POPC   C2B62252  32.661  19.747   6.481
 4827POPC   C3B62253  32.798  19.648   6.860
 4827POPC   C4B62254  32.691  19.778   7.278
 4828POPC   NC362255  37.753  37.712   5.545
 4828POPC   PO462256  37.102  37.696   5.293
 4828POPC   GL162257  37.255  37.806   5.796
 4828POPC   GL262258  37.546  37.626   5.997
 4828POPC   C1A62259  37.384  37.984   6.290
 4828POPC   D2A62260  37.698  37.866   6.670
 4828POPC   C3A62261  37.617  37.579   7.038
 4828POPC   C4A62262  37.462  37.886   7.348
 4828POPC   C1B62263  37.882  37.869   6.196
 4828POPC   C2B62264  38.174  37.698   6.490
 4828POPC   C3B62265  38.122  37.617   6.930
 4828POPC   C4B62266  37.957  37.920   7.163
 4829POPC   NC362267  24.018  40.199   5.539
 4829POPC   PO462268  24.678  40.038   5.471
 4829POPC   GL162269  24.538  39.716   5.796
 4829POPC   GL262270  24.175  39.637   5.785
 4829POPC   C1A62271  24.675  39.782   6.223
 4829POPC   D2A62272  24.754  40.085   6.549
 4829POPC   C3A62273  24.670  39.933   6.952
 4829POPC   C4A62274  24.872  39.621   7.188
 4829POPC   C1B62275  24.200  39.934   6.132
 4829POPC   C2B62276  24.257  39.949   6.569
 4829POPC   C3B62277  24.170  39.864   6.995
 4829POPC   C4B62278  24.190  40.255   7.232
 4830POPC   NC362279  38.166  21.946   5.441
 4830POPC   PO462280  38.759  22.143   5.507
 4830POPC   GL162281  38.573  22.278   5.936
 4830POPC   GL262282  38.224  22.194   5.886
 4830POPC   C1A62283  38.358  22.346   6.389
 4830POPC   D2A62284  38.197  22.454   6.829
 4830POPC   C3A62285  38.349  22.247   7.222
 4830POPC   C4A62286  38.449  22.332   7.644
 4830POPC   C1B62287  38.050  21.968   6.208
 4830POPC   C2B62288  38.208  21.856   6.609
 4830POPC   C3B62289  37.994  22.002   6.951
 4830POPC   C4B62290  37.889  22.059   7.386
 4831POPC   NC362291  10.909  22.846   5.435
 4831POPC   PO462292  11.563  22.942   5.252
 4831POPC   GL162293  11.395  22.966   5.693
 4831POPC   GL262294  11.257  22.646   5.810
 4831POPC   C1A62295  11.506  22.931   6.157
 4831POPC   D2A62296  11.658  23.177   6.528
 4831POPC   C3A62297  11.664  22.975   6.911
 4831POPC   C4A62298  11.669  23.180   7.292
 4831POPC   C1B62299  11.054  22.700   6.245
 4831POPC   C2B62300  11.139  23.040   6.523
 4831POPC   C3B62301  11.204  23.160   6.940
 4831POPC   C4B62302  11.265  22.914   7.328
 4832POPC   NC362303  19.038  32.399   5.457
 4832POPC   PO462304  19.700  32.348   5.611
 4832POPC   GL162305  19.391  32.346   5.904
 4832POPC   GL262306  19.082  32.140   5.904
 4832POPC   C1A62307  19.277  32.465   6.316
 4832POPC   D2A62308  18.927  32.521   6.599
 4832POPC   C3A62309  18.911  32.373   7.023
 4832POPC   C4A62310  19.036  32.311   7.447
 4832POPC   C1B62311  18.864  32.123   6.303
 4832POPC   C2B62312  18.774  31.865   6.698
 4832POPC   C3B62313  18.733  31.903   7.168
 4832POPC   C4B62314  18.672  31.979   7.617
 4833POPC   NC362315  20.379  40.539   5.518
 4833POPC   PO462316  20.939  40.840   5.509
 4833POPC   GL162317  20.693  40.790   5.881
 4833POPC   GL262318  20.721  40.426   5.869
 4833POPC   C1A62319  20.662  40.957   6.332
 4833POPC   D2A62320  20.486  41.174   6.704
 4833POPC   C3A62321  20.555  40.951   7.084
 4833POPC   C4A62322  20.807  41.174   7.430
 4833POPC   C1B62323  20.430  40.499   6.210
 4833POPC   C2B62324  20.560  40.446   6.640
 4833POPC   C3B62325  20.319  40.404   7.005
 4833POPC   C4B62326  20.166  40.685   7.274
 4834POPC   NC362327  32.089  39.796   5.341
 4834POPC   PO462328  32.594  40.191   5.210
 4834POPC   GL162329  32.483  40.075   5.645
 4834POPC   GL262330  32.189  40.194   5.660
 4834POPC   C1A62331  32.494  39.998   6.119
 4834POPC   D2A62332  32.522  40.191   6.568
 4834POPC   C3A62333  32.355  40.022   6.978
 4834POPC   C4A62334  32.474  39.943   7.418
 4834POPC   C1B62335  32.052  40.249   6.102
 4834POPC   C2B62336  31.991  40.201   6.555
 4834POPC   C3B62337  31.821  40.251   6.973
 4834POPC   C4B62338  31.960  40.053   7.331
 4835POPC   NC362339  44.115  21.541   5.427
 4835POPC   PO462340  43.610  21.150   5.176
 4835POPC   GL162341  43.733  21.233   5.637
 4835POPC   GL262342  43.527  21.468   5.826
 4835POPC   C1A62343  43.976  21.303   6.062
 4835POPC   D2A62344  44.103  21.157   6.500
 4835POPC   C3A62345  43.803  21.255   6.823
 4835POPC   C4A62346  43.812  21.423   7.223
 4835POPC   C1B62347  43.730  21.767   6.136
 4835POPC   C2B62348  43.957  21.685   6.495
 4835POPC   C3B62349  43.932  21.809   6.903
 4835POPC   C4B62350  44.233  21.696   7.192
 4836POPC   NC362351  33.751  32.759   5.488
 4836POPC   PO462352  33.970  33.401   5.365
 4836POPC   GL162353  33.782  33.219   5.755
 4836POPC   GL262354  34.107  33.043   5.796
 4836POPC   C1A62355  33.499  33.046   6.125
 4836POPC   D2A62356  33.323  32.995   6.580
 4836POPC   C3A62357  33.634  33.087   6.942
 4836POPC   C4A62358  33.654  33.094   7.410
 4836POPC   C1B62359  34.420  33.260   6.098
 4836POPC   C2B62360  34.334  33.357   6.548
 4836POPC   C3B62361  34.423  33.369   7.006
 4836POPC   C4B62362  34.152  33.132   7.299
 4837POPC   NC362363   0.938  35.541   5.628
 4837POPC   PO462364   0.350  35.555   5.243
 4837POPC   GL162365   0.420  35.544   5.706
 4837POPC   GL262366   0.571  35.241   5.848
 4837POPC   C1A62367   0.244  35.484   6.161
 4837POPC   D2A62368   0.116  35.339   6.606
 4837POPC   C3A62369   0.427  35.421   6.970
 4837POPC   C4A62370   0.767  35.740   7.051
 4837POPC   C1B62371   0.759  35.337   6.263
 4837POPC   C2B62372   0.939  35.370   6.691
 4837POPC   C3B62373   0.828  35.137   7.073
 4837POPC   C4B62374   0.516  35.108   7.437
 4838POPC   NC362375  12.465   5.648   5.506
 4838POPC   PO462376  13.022   5.900   5.642
 4838POPC   GL162377  12.706   6.096   5.906
 4838POPC   GL262378  12.393   5.925   5.940
 4838POPC   C1A62379  12.698   6.276   6.319
 4838POPC   D2A62380  13.055   6.109   6.537
 4838POPC   C3A62381  13.070   6.040   6.964
 4838POPC   C4A62382  12.678   6.065   7.192
 4838POPC   C1B62383  12.602   5.768   6.321
 4838POPC   C2B62384  12.818   5.665   6.692
 4838POPC   C3B62385  12.741   5.508   7.082
 4838POPC   C4B62386  12.560   5.632   7.457
 4839POPC   NC362387  42.109   4.045   5.353
 4839POPC   PO462388  42.506   4.558   5.355
 4839POPC   GL162389  42.651   4.334   5.695
 4839POPC   GL262390  42.361   4.172   5.799
 4839POPC   C1A62391  42.694   4.429   6.132
 4839POPC   D2A62392  42.527   4.624   6.492
 4839POPC   C3A62393  42.539   4.372   6.900
 4839POPC   C4A62394  42.524   4.368   7.350
 4839POPC   C1B62395  42.207   4.303   6.237
 4839POPC   C2B62396  42.094   4.452   6.683
 4839POPC   C3B62397  42.098   4.170   7.057
 4839POPC   C4B62398  42.000   4.249   7.510
 4840POPC   NC362399   3.581  10.179   5.069
 4840POPC   PO462400   3.825   9.554   5.255
 4840POPC   GL162401   3.871   9.670   5.713
 4840POPC   GL262402   3.976  10.012   5.725
 4840POPC   C1A62403   3.732   9.613   6.160
 4840POPC   D2A62404   3.646   9.484   6.602
 4840POPC   C3A62405   3.372   9.749   6.853
 4840POPC   C4A62406   3.292   9.732   7.281
 4840POPC   C1B62407   3.908  10.152   6.169
 4840POPC   C2B62408   3.780   9.982   6.599
 4840POPC   C3B62409   3.844   9.767   7.012
 4840POPC   C4B62410   3.765   9.897   7.441
 4841POPC   NC362411   3.992  27.511   5.440
 4841POPC   PO462412   3.302  27.831   5.466
 4841POPC   GL162413   3.563  27.571   5.732
 4841POPC   GL262414   3.866  27.742   5.896
 4841POPC   C1A62415   3.577  27.352   6.100
 4841POPC   D2A62416   3.642  27.388   6.545
 4841POPC   C3A62417   3.557  27.645   6.915
 4841POPC   C4A62418   3.529  27.428   7.296
 4841POPC   C1B62419   3.749  27.860   6.344
 4841POPC   C2B62420   3.439  28.081   6.605
 4841POPC   C3B62421   3.243  28.079   7.001
 4841POPC   C4B62422   3.261  27.838   7.393
 4842POPC   NC362423  34.427   6.395   5.498
 4842POPC   PO462424  34.733   6.977   5.322
 4842POPC   GL162425  34.618   6.798   5.784
 4842POPC   GL262426  34.811   6.567   5.923
 4842POPC   C1A62427  34.353   6.568   6.138
 4842POPC   D2A62428  34.542   6.520   6.538
 4842POPC   C3A62429  34.311   6.504   6.897
 4842POPC   C4A62430  34.312   6.659   7.272
 4842POPC   C1B62431  34.928   6.317   6.231
 4842POPC   C2B62432  34.914   6.186   6.645
 4842POPC   C3B62433  35.010   6.385   6.982
 4842POPC   C4B62434  34.815   6.723   7.097
 4843POPC   NC362435  15.175   4.838   5.350
 4843POPC   PO462436  15.066   5.525   5.332
 4843POPC   GL162437  15.066   5.255   5.694
 4843POPC   GL262438  14.853   4.970   5.711
 4843POPC   C1A62439  15.188   5.145   6.104
 4843POPC   D2A62440  15.142   5.021   6.523
 4843POPC   C3A62441  15.400   5.216   6.804
 4843POPC   C4A62442  15.323   5.358   7.182
 4843POPC   C1B62443  14.783   4.796   6.127
 4843POPC   C2B62444  14.697   4.793   6.595
 4843POPC   C3B62445  14.974   4.734   6.938
 4843POPC   C4B62446  15.360   4.830   7.129
 4844POPC   NC362447  10.241  26.177   5.372
 4844POPC   PO462448  10.741  25.956   5.047
 4844POPC   GL162449  10.709  25.985   5.574
 4844POPC   GL262450  10.416  25.746   5.686
 4844POPC   C1A62451  10.662  26.020   6.068
 4844POPC   D2A62452  10.341  26.084   6.459
 4844POPC   C3A62453  10.448  26.010   6.911
 4844POPC   C4A62454  10.577  26.215   7.302
 4844POPC   C1B62455  10.264  25.707   6.131
 4844POPC   C2B62456  10.418  25.589   6.577
 4844POPC   C3B62457  10.228  25.563   7.025
 4844POPC   C4B62458  10.234  25.836   7.410
 4845POPC   NC362459  35.232  37.258   5.659
 4845POPC   PO462460  35.141  36.771   5.123
 4845POPC   GL162461  35.318  36.704   5.608
 4845POPC   GL262462  35.585  36.900   5.819
 4845POPC   C1A62463  35.203  36.665   6.077
 4845POPC   D2A62464  35.454  36.597   6.476
 4845POPC   C3A62465  35.360  36.779   6.870
 4845POPC   C4A62466  35.073  36.947   7.189
 4845POPC   C1B62467  35.461  37.083   6.265
 4845POPC   C2B62468  35.468  37.343   6.659
 4845POPC   C3B62469  35.537  37.224   7.092
 4845POPC   C4B62470  35.886  37.179   7.370
 4846POPC   NC362471   1.284  40.923   5.458
 4846POPC   PO462472   0.921  40.285   5.521
 4846POPC   GL162473   1.216  40.537   5.843
 4846POPC   GL262474   1.351  40.900   5.947
 4846POPC   C1A62475   1.278  40.570   6.308
 4846POPC   D2A62476   1.093  40.853   6.583
 4846POPC   C3A62477   0.981  40.654   6.946
 4846POPC   C4A62478   0.942  40.964   7.235
 4846POPC   C1B62479   1.735  40.639   6.105
 4846POPC   C2B62480   1.825  40.548   6.548
 4846POPC   C3B62481   1.564  40.643   6.934
 4846POPC   C4B62482   1.440  41.041   7.141
 4847POPC   NC362483  22.045  38.698   5.449
 4847POPC   PO462484  21.991  38.077   5.311
 4847POPC   GL162485  22.075  38.292   5.762
 4847POPC   GL262486  21.936  38.591   5.920
 4847POPC   C1A62487  22.280  38.306   6.192
 4847POPC   D2A62488  22.088  38.214   6.588
 4847POPC   C3A62489  22.345  38.307   6.918
 4847POPC   C4A62490  22.314  38.411   7.316
 4847POPC   C1B62491  21.697  38.423   6.255
 4847POPC   C2B62492  21.699  38.541   6.691
 4847POPC   C3B62493  21.978  38.677   7.036
 4847POPC   C4B62494  21.870  38.712   7.480
 4848POPC   NC362495  39.373   6.699   5.033
 4848POPC   PO462496  39.890   6.702   5.359
 4848POPC   GL162497  40.033   6.931   5.791
 4848POPC   GL262498  40.334   6.780   5.978
 4848POPC   C1A62499  39.939   6.902   6.282
 4848POPC   D2A62500  39.876   6.536   6.600
 4848POPC   C3A62501  39.754   6.580   7.063
 4848POPC   C4A62502  39.707   6.689   7.530
 4848POPC   C1B62503  40.369   6.674   6.446
 4848POPC   C2B62504  40.236   6.769   6.896
 4848POPC   C3B62505  40.183   6.581   7.338
 4848POPC   C4B62506  40.103   6.429   7.765
 4849POPC   NC362507  22.730   9.867   5.503
 4849POPC   PO462508  23.244   9.459   5.405
 4849POPC   GL162509  23.131   9.652   5.821
 4849POPC   GL262510  23.121  10.030   5.844
 4849POPC   C1A62511  22.773   9.728   6.139
 4849POPC   D2A62512  22.552   9.909   6.516
 4849POPC   C3A62513  22.682   9.681   6.913
 4849POPC   C4A62514  22.796   9.606   7.350
 4849POPC   C1B62515  22.998  10.156   6.280
 4849POPC   C2B62516  23.038   9.988   6.698
 4849POPC   C3B62517  23.012  10.004   7.162
 4849POPC   C4B62518  22.988  10.061   7.636
 4850POPC   NC362519  22.980  21.996   5.288
 4850POPC   PO462520  23.080  22.584   5.554
 4850POPC   GL162521  22.890  22.247   5.741
 4850POPC   GL262522  23.212  22.106   5.792
 4850POPC   C1A62523  22.711  22.216   6.159
 4850POPC   D2A62524  22.663  22.489   6.518
 4850POPC   C3A62525  22.623  22.310   6.915
 4850POPC   C4A62526  22.582  22.351   7.350
 4850POPC   C1B62527  23.190  22.400   6.170
 4850POPC   C2B62528  23.144  22.258   6.577
 4850POPC   C3B62529  23.268  22.273   6.983
 4850POPC   C4B62530  22.984  22.052   7.204
 4851POPC   NC362531  29.416   7.826   5.509
 4851POPC   PO462532  29.102   8.428   5.514
 4851POPC   GL162533  29.158   8.191   5.865
 4851POPC   GL262534  28.800   8.127   5.858
 4851POPC   C1A62535  29.082   8.056   6.286
 4851POPC   D2A62536  29.043   7.752   6.589
 4851POPC   C3A62537  29.126   8.080   6.859
 4851POPC   C4A62538  29.408   8.191   7.170
 4851POPC   C1B62539  28.814   8.482   6.161
 4851POPC   C2B62540  28.769   8.432   6.599
 4851POPC   C3B62541  28.798   8.474   7.027
 4851POPC   C4B62542  28.877   8.147   7.291
 4852POPC   NC362543   0.761  22.949   5.538
 4852POPC   PO462544   1.228  23.254   5.202
 4852POPC   GL162545   1.226  23.183   5.667
 4852POPC   GL262546   1.201  22.864   5.844
 4852POPC   C1A62547   1.399  23.224   6.115
 4852POPC   D2A62548   1.307  22.976   6.472
 4852POPC   C3A62549   1.332  23.193   6.847
 4852POPC   C4A62550   1.096  23.146   7.221
 4852POPC   C1B62551   1.113  22.552   6.187
 4852POPC   C2B62552   1.014  22.498   6.605
 4852POPC   C3B62553   1.239  22.694   6.912
 4852POPC   C4B62554   1.246  22.674   7.309
 4853POPC   NC362555   9.736  32.528   5.446
 4853POPC   PO462556  10.035  33.140   5.310
 4853POPC   GL162557   9.791  33.128   5.734
 4853POPC   GL262558   9.426  33.271   5.730
 4853POPC   C1A62559   9.978  33.186   6.176
 4853POPC   D2A62560  10.217  33.045   6.569
 4853POPC   C3A62561  10.043  33.091   6.980
 4853POPC   C4A62562   9.774  33.121   7.323
 4853POPC   C1B62563   9.220  33.367   6.144
 4853POPC   C2B62564   9.322  33.285   6.615
 4853POPC   C3B62565   9.367  33.316   7.093
 4853POPC   C4B62566   9.359  33.321   7.605
 4854POPC   NC362567  40.858  21.899   5.136
 4854POPC   PO462568  40.906  21.259   5.352
 4854POPC   GL162569  41.066  21.375   5.765
 4854POPC   GL262570  40.758  21.271   5.900
 4854POPC   C1A62571  41.183  21.292   6.210
 4854POPC   D2A62572  41.129  21.058   6.600
 4854POPC   C3A62573  40.834  21.250   6.886
 4854POPC   C4A62574  40.978  21.569   7.190
 4854POPC   C1B62575  40.687  21.333   6.345
 4854POPC   C2B62576  40.526  21.618   6.622
 4854POPC   C3B62577  40.496  21.599   7.058
 4854POPC   C4B62578  40.118  21.522   7.233
 4855POPC   NC362579  29.674   4.155   5.533
 4855POPC   PO462580  30.255   4.399   5.650
 4855POPC   GL162581  29.919   4.416   5.976
 4855POPC   GL262582  29.563   4.529   5.851
 4855POPC   C1A62583  30.007   4.462   6.435
 4855POPC   D2A62584  30.314   4.524   6.795
 4855POPC   C3A62585  30.229   4.209   7.127
 4855POPC   C4A62586  30.181   4.087   7.590
 4855POPC   C1B62587  29.455   4.281   6.206
 4855POPC   C2B62588  29.466   4.342   6.617
 4855POPC   C3B62589  29.784   4.321   6.895
 4855POPC   C4B62590  29.782   4.325   7.315
 4856POPC   NC362591  37.178  27.480   5.039
 4856POPC   PO462592  37.588  27.556   5.495
 4856POPC   GL162593  37.610  27.726   5.887
 4856POPC   GL262594  37.961  27.831   5.862
 4856POPC   C1A62595  37.426  27.503   6.267
 4856POPC   D2A62596  37.490  27.440   6.749
 4856POPC   C3A62597  37.451  27.561   7.197
 4856POPC   C4A62598  37.824  27.496   7.531
 4856POPC   C1B62599  37.885  27.707   6.303
 4856POPC   C2B62600  37.991  27.515   6.668
 4856POPC   C3B62601  37.901  27.703   7.067
 4856POPC   C4B62602  37.753  27.992   7.403
 4857POPC   NC362603  34.015  23.983   5.449
 4857POPC   PO462604  33.794  24.594   5.191
 4857POPC   GL162605  33.849  24.461   5.684
 4857POPC   GL262606  33.758  24.155   5.872
 4857POPC   C1A62607  33.996  24.641   6.114
 4857POPC   D2A62608  34.084  24.824   6.526
 4857POPC   C3A62609  33.926  24.549   6.839
 4857POPC   C4A62610  34.073  24.587   7.231
 4857POPC   C1B62611  34.170  24.170   6.119
 4857POPC   C2B62612  34.302  24.339   6.503
 4857POPC   C3B62613  34.238  24.142   6.879
 4857POPC   C4B62614  33.957  24.094   7.218
 4858POPC   NC362615  22.583  17.099   5.557
 4858POPC   PO462616  22.903  16.523   5.440
 4858POPC   GL162617  23.014  16.528   5.862
 4858POPC   GL262618  22.946  16.882   5.897
 4858POPC   C1A62619  22.914  16.242   6.205
 4858POPC   D2A62620  22.692  16.115   6.602
 4858POPC   C3A62621  22.709  16.479   6.853
 4858POPC   C4A62622  22.943  16.584   7.192
 4858POPC   C1B62623  23.125  17.044   6.288
 4858POPC   C2B62624  23.002  17.058   6.722
 4858POPC   C3B62625  23.239  16.981   7.101
 4858POPC   C4B62626  23.385  16.787   7.502
 4859POPC   NC362627  10.211  43.292   5.602
 4859POPC   PO462628  10.805  42.906   5.378
 4859POPC   GL162629  10.591  42.972   5.719
 4859POPC   GL262630  10.686  43.322   5.763
 4859POPC   C1A62631  10.452  42.862   6.100
 4859POPC   D2A62632  10.451  42.792   6.513
 4859POPC   C3A62633  10.375  43.136   6.799
 4859POPC   C4A62634  10.481  43.200   7.233
 4859POPC   C1B62635  10.546  43.367   6.194
 4859POPC   C2B62636  10.531  43.584   6.582
 4859POPC   C3B62637  10.720  43.541   6.936
 4859POPC   C4B62638  10.867  43.551   7.304
 4860POPC   NC362639  33.265   4.427   5.146
 4860POPC   PO462640  33.937   4.355   5.270
 4860POPC   GL162641  33.928   4.346   5.728
 4860POPC   GL262642  34.203   4.122   5.737
 4860POPC   C1A62643  33.836   4.147   6.159
 4860POPC   D2A62644  33.699   4.097   6.601
 4860POPC   C3A62645  33.537   4.483   6.761
 4860POPC   C4A62646  33.313   4.459   7.137
 4860POPC   C1B62647  34.308   3.943   6.129
 4860POPC   C2B62648  34.130   3.860   6.523
 4860POPC   C3B62649  34.222   3.999   6.939
 4860POPC   C4B62650  33.876   4.218   7.110
 4861POPC   NC362651   2.038  40.284   5.514
 4861POPC   PO462652   2.198  39.581   5.347
 4861POPC   GL162653   2.047  39.808   5.716
 4861POPC   GL262654   1.718  39.741   5.756
 4861POPC   C1A62655   2.055  40.049   6.120
 4861POPC   D2A62656   1.865  40.038   6.534
 4861POPC   C3A62657   2.153  39.872   6.805
 4861POPC   C4A62658   2.195  39.882   7.225
 4861POPC   C1B62659   1.766  39.642   6.192
 4861POPC   C2B62660   1.856  39.508   6.604
 4861POPC   C3B62661   1.675  39.728   6.971
 4861POPC   C4B62662   1.729  39.835   7.434
 4862POPC   NC362663   0.703  23.978   5.445
 4862POPC   PO462664   0.126  23.686   5.176
 4862POPC   GL162665   0.261  23.701   5.651
 4862POPC   GL262666   0.285  24.041   5.731
 4862POPC   C1A62667   0.399  23.627   6.113
 4862POPC   D2A62668   0.642  23.425   6.473
 4862POPC   C3A62669   0.521  23.579   6.863
 4862POPC   C4A62670   0.424  23.500   7.282
 4862POPC   C1B62671   0.289  24.138   6.157
 4862POPC   C2B62672   0.295  23.982   6.571
 4862POPC   C3B62673   0.398  24.230   6.950
 4862POPC   C4B62674   0.591  23.970   7.190
 4863POPC   NC362675  33.926  14.682   5.408
 4863POPC   PO462676  33.821  14.014   5.517
 4863POPC   GL162677  33.626  14.182   5.884
 4863POPC   GL262678  33.482  14.484   5.728
 4863POPC   C1A62679  33.808  14.224   6.328
 4863POPC   D2A62680  33.807  14.173   6.785
 4863POPC   C3A62681  34.074  14.366   7.088
 4863POPC   C4A62682  34.102  14.318   7.538
 4863POPC   C1B62683  33.685  14.680   6.104
 4863POPC   C2B62684  33.814  14.679   6.578
 4863POPC   C3B62685  33.741  14.760   7.049
 4863POPC   C4B62686  33.972  14.805   7.490
 4864POPC   NC362687  31.920  14.278   5.592
 4864POPC   PO462688  31.249  14.414   5.459
 4864POPC   GL162689  31.251  14.234   5.860
 4864POPC   GL262690  31.547  14.399   5.914
 4864POPC   C1A62691  31.264  14.282   6.323
 4864POPC   D2A62692  31.295  14.186   6.758
 4864POPC   C3A62693  31.092  14.487   6.968
 4864POPC   C4A62694  31.124  14.744   7.321
 4864POPC   C1B62695  31.773  14.283   6.301
 4864POPC   C2B62696  31.725  14.443   6.728
 4864POPC   C3B62697  31.692  14.465   7.215
 4864POPC   C4B62698  31.782  14.502   7.707
 4865POPC   NC362699   1.778  11.554   5.528
 4865POPC   PO462700   2.245  11.245   5.191
 4865POPC   GL162701   2.109  11.184   5.673
 4865POPC   GL262702   1.809  11.264   5.929
 4865POPC   C1A62703   2.247  11.307   6.123
 4865POPC   D2A62704   2.055  11.426   6.524
 4865POPC   C3A62705   2.221  11.272   6.909
 4865POPC   C4A62706   1.869  11.259   7.164
 4865POPC   C1B62707   1.647  11.133   6.305
 4865POPC   C2B62708   1.663  11.070   6.741
 4865POPC   C3B62709   1.426  11.014   7.127
 4865POPC   C4B62710   1.715  10.780   7.331
 4866POPC   NC362711  41.393  21.078   5.454
 4866POPC   PO462712  41.857  21.564   5.414
 4866POPC   GL162713  41.602  21.580   5.807
 4866POPC   GL262714  41.592  21.215   5.898
 4866POPC   C1A62715  41.454  21.728   6.245
 4866POPC   D2A62716  41.503  21.442   6.618
 4866POPC   C3A62717  41.467  21.508   7.082
 4866POPC   C4A62718  41.327  21.396   7.535
 4866POPC   C1B62719  41.866  20.949   6.169
 4866POPC   C2B62720  41.687  20.861   6.552
 4866POPC   C3B62721  41.589  21.041   6.922
 4866POPC   C4B62722  41.226  21.055   7.138
 4867POPC   NC362723  13.601  28.840   5.338
 4867POPC   PO462724  13.667  28.045   5.424
 4867POPC   GL162725  13.623  28.457   5.669
 4867POPC   GL262726  13.396  28.768   5.798
 4867POPC   C1A62727  13.747  28.538   6.098
 4867POPC   D2A62728  13.554  28.226   6.398
 4867POPC   C3A62729  13.744  28.170   6.803
 4867POPC   C4A62730  13.750  28.419   7.184
 4867POPC   C1B62731  13.302  28.673   6.227
 4867POPC   C2B62732  13.616  28.696   6.590
 4867POPC   C3B62733  13.350  28.622   6.915
 4867POPC   C4B62734  13.273  28.624   7.322
 4868POPC   NC362735  32.144  19.404   5.472
 4868POPC   PO462736  32.460  18.813   5.381
 4868POPC   GL162737  32.184  18.939   5.725
 4868POPC   GL262738  32.381  19.186   5.876
 4868POPC   C1A62739  32.006  18.960   6.155
 4868POPC   D2A62740  32.013  19.091   6.593
 4868POPC   C3A62741  32.312  18.909   6.918
 4868POPC   C4A62742  32.308  18.951   7.387
 4868POPC   C1B62743  32.304  19.362   6.267
 4868POPC   C2B62744  32.428  19.352   6.689
 4868POPC   C3B62745  32.437  19.369   7.137
 4868POPC   C4B62746  32.383  19.422   7.608
 4869POPC   NC362747  13.336  14.243   5.394
 4869POPC   PO462748  12.632  14.504   5.463
 4869POPC   GL162749  12.811  14.417   5.818
 4869POPC   GL262750  12.955  14.082   5.734
 4869POPC   C1A62751  12.756  14.576   6.243
 4869POPC   D2A62752  12.774  14.386   6.654
 4869POPC   C3A62753  12.813  14.617   7.057
 4869POPC   C4A62754  12.488  14.627   7.364
 4869POPC   C1B62755  13.023  14.083   6.195
 4869POPC   C2B62756  13.224  14.108   6.611
 4869POPC   C3B62757  13.012  14.130   7.040
 4869POPC   C4B62758  12.618  13.959   7.230
 4870POPC   NC362759  20.616  12.489   5.343
 4870POPC   PO462760  20.428  13.135   5.526
 4870POPC   GL162761  20.455  12.823   5.800
 4870POPC   GL262762  20.810  12.717   5.785
 4870POPC   C1A62763  20.422  12.937   6.227
 4870POPC   D2A62764  20.715  12.885   6.532
 4870POPC   C3A62765  20.509  12.988   6.894
 4870POPC   C4A62766  20.702  13.126   7.233
 4870POPC   C1B62767  20.976  12.557   6.180
 4870POPC   C2B62768  20.862  12.387   6.569
 4870POPC   C3B62769  20.782  12.534   6.988
 4870POPC   C4B62770  20.485  12.642   7.310
 4871POPC   NC362771  40.044  15.504   4.993
 4871POPC   PO462772  40.335  15.343   5.588
 4871POPC   GL162773  40.013  15.192   5.903
 4871POPC   GL262774  39.752  14.927   5.831
 4871POPC   C1A62775  40.031  14.883   6.241
 4871POPC   D2A62776  40.085  15.141   6.568
 4871POPC   C3A62777  39.967  14.939   6.915
 4871POPC   C4A62778  40.161  15.123   7.252
 4871POPC   C1B62779  39.610  15.168   6.241
 4871POPC   C2B62780  39.569  15.150   6.703
 4871POPC   C3B62781  39.691  15.345   7.115
 4871POPC   C4B62782  39.815  15.299   7.570
 4872POPC   NC362783   8.356  34.033   5.440
 4872POPC   PO462784   8.064  33.571   5.474
 4872POPC   GL162785   8.320  33.575   5.804
 4872POPC   GL262786   8.308  33.895   5.920
 4872POPC   C1A62787   8.215  33.483   6.247
 4872POPC   D2A62788   8.341  33.294   6.651
 4872POPC   C3A62789   8.257  33.646   6.937
 4872POPC   C4A62790   8.146  33.803   7.335
 4872POPC   C1B62791   8.223  34.115   6.280
 4872POPC   C2B62792   8.276  34.180   6.709
 4872POPC   C3B62793   7.933  34.124   6.972
 4872POPC   C4B62794   7.696  34.002   7.340
 4873POPC   NC362795  11.037   3.213   5.535
 4873POPC   PO462796  10.484   2.987   5.385
 4873POPC   GL162797  10.245   3.080   5.783
 4873POPC   GL262798  10.187   2.763   5.978
 4873POPC   C1A62799  10.294   3.177   6.245
 4873POPC   D2A62800  10.217   3.016   6.696
 4873POPC   C3A62801  10.537   2.817   6.907
 4873POPC   C4A62802  10.704   2.810   7.319
 4873POPC   C1B62803  10.146   2.583   6.422
 4873POPC   C2B62804  10.200   2.363   6.826
 4873POPC   C3B62805  10.462   2.365   7.212
 4873POPC   C4B62806  10.469   2.502   7.662
 4874POPC   NC362807  30.318  28.191   5.360
 4874POPC   PO462808  30.859  28.695   5.325
 4874POPC   GL162809  30.678  28.450   5.711
 4874POPC   GL262810  30.721  28.070   5.716
 4874POPC   C1A62811  30.724  28.599   6.190
 4874POPC   D2A62812  30.537  28.844   6.582
 4874POPC   C3A62813  30.700  28.766   7.017
 4874POPC   C4A62814  30.588  28.561   7.397
 4874POPC   C1B62815  30.563  28.113   6.151
 4874POPC   C2B62816  30.495  28.341   6.560
 4874POPC   C3B62817  30.579  28.255   6.977
 4874POPC   C4B62818  30.930  28.179   7.198
 4875POPC   NC362819  35.905  36.117   5.533
 4875POPC   PO462820  36.487  36.333   5.435
 4875POPC   GL162821  36.371  36.136   5.800
 4875POPC   GL262822  36.288  35.798   5.660
 4875POPC   C1A62823  36.251  36.298   6.219
 4875POPC   D2A62824  36.018  36.443   6.597
 4875POPC   C3A62825  36.306  36.469   6.938
 4875POPC   C4A62826  36.255  36.398   7.348
 4875POPC   C1B62827  36.057  35.820   6.072
 4875POPC   C2B62828  35.991  35.876   6.468
 4875POPC   C3B62829  36.045  36.015   6.859
 4875POPC   C4B62830  36.138  35.918   7.233
 4876POPC   NC362831  30.181   9.956   5.384
 4876POPC   PO462832  29.679   9.589   5.586
 4876POPC   GL162833  29.985   9.794   5.826
 4876POPC   GL262834  29.866  10.121   5.774
 4876POPC   C1A62835  30.201   9.757   6.218
 4876POPC   D2A62836  30.075   9.785   6.645
 4876POPC   C3A62837  30.217   9.617   7.026
 4876POPC   C4A62838  30.000   9.526   7.397
 4876POPC   C1B62839  29.737  10.015   6.220
 4876POPC   C2B62840  29.581   9.902   6.627
 4876POPC   C3B62841  29.768   9.911   7.045
 4876POPC   C4B62842  29.616   9.923   7.455
 4877POPC   NC362843  34.862  24.504   5.300
 4877POPC   PO462844  34.355  24.287   5.525
 4877POPC   GL162845  34.602  24.536   5.765
 4877POPC   GL262846  34.840  24.252   5.762
 4877POPC   C1A62847  34.526  24.684   6.185
 4877POPC   D2A62848  34.600  24.892   6.601
 4877POPC   C3A62849  34.498  24.600   6.934
 4877POPC   C4A62850  34.730  24.580   7.341
 4877POPC   C1B62851  34.710  24.118   6.168
 4877POPC   C2B62852  34.781  24.156   6.608
 4877POPC   C3B62853  34.750  24.160   7.034
 4877POPC   C4B62854  34.424  24.207   7.338
 4878POPC   NC362855   2.047  27.509   5.353
 4878POPC   PO462856   2.309  28.154   5.182
 4878POPC   GL162857   2.223  27.913   5.646
 4878POPC   GL262858   1.934  27.702   5.797
 4878POPC   C1A62859   2.286  27.758   6.123
 4878POPC   D2A62860   2.214  27.537   6.520
 4878POPC   C3A62861   1.970  27.633   6.900
 4878POPC   C4A62862   2.022  27.499   7.352
 4878POPC   C1B62863   1.833  27.479   6.183
 4878POPC   C2B62864   1.789  27.223   6.603
 4878POPC   C3B62865   1.657  27.236   7.054
 4878POPC   C4B62866   1.494  27.583   7.350
 4879POPC   NC362867  31.929  25.904   5.442
 4879POPC   PO462868  32.524  25.925   5.138
 4879POPC   GL162869  32.442  26.120   5.624
 4879POPC   GL262870  32.136  26.232   5.760
 4879POPC   C1A62871  32.406  25.965   6.104
 4879POPC   D2A62872  32.254  26.092   6.538
 4879POPC   C3A62873  32.435  25.980   6.942
 4879POPC   C4A62874  32.283  26.148   7.320
 4879POPC   C1B62875  32.035  26.383   6.163
 4879POPC   C2B62876  31.802  26.377   6.535
 4879POPC   C3B62877  31.969  26.365   6.942
 4879POPC   C4B62878  31.769  26.264   7.330
 4880POPC   NC362879  34.686  25.618   5.415
 4880POPC   PO462880  34.714  24.939   5.374
 4880POPC   GL162881  34.466  25.065   5.756
 4880POPC   GL262882  34.355  25.435   5.762
 4880POPC   C1A62883  34.537  25.203   6.190
 4880POPC   D2A62884  34.832  25.415   6.469
 4880POPC   C3A62885  34.780  25.306   6.924
 4880POPC   C4A62886  34.542  25.031   7.199
 4880POPC   C1B62887  34.378  25.685   6.138
 4880POPC   C2B62888  34.350  25.541   6.563
 4880POPC   C3B62889  34.244  25.252   6.852
 4880POPC   C4B62890  34.355  25.510   7.206
 4881POPC   NC362891  11.733  13.303   5.529
 4881POPC   PO462892  11.289  13.768   5.292
 4881POPC   GL162893  11.353  13.753   5.744
 4881POPC   GL262894  11.164  13.450   5.793
 4881POPC   C1A62895  11.147  13.734   6.200
 4881POPC   D2A62896  11.208  13.462   6.551
 4881POPC   C3A62897  11.166  13.715   6.913
 4881POPC   C4A62898  11.248  13.970   7.279
 4881POPC   C1B62899  11.526  13.416   6.127
 4881POPC   C2B62900  11.697  13.348   6.559
 4881POPC   C3B62901  11.488  13.257   6.944
 4881POPC   C4B62902  11.412  13.476   7.306
 4882POPC   NC362903  28.678  13.847   5.216
 4882POPC   PO462904  28.221  13.365   5.183
 4882POPC   GL162905  28.285  13.516   5.612
 4882POPC   GL262906  28.601  13.364   5.719
 4882POPC   C1A62907  28.098  13.530   6.060
 4882POPC   D2A62908  27.952  13.555   6.520
 4882POPC   C3A62909  28.169  13.642   6.901
 4882POPC   C4A62910  28.154  13.515   7.315
 4882POPC   C1B62911  28.738  13.495   6.156
 4882POPC   C2B62912  28.577  13.555   6.597
 4882POPC   C3B62913  28.643  13.515   7.070
 4882POPC   C4B62914  28.599  13.566   7.535
 4883POPC   NC362915   3.627  22.457   5.062
 4883POPC   PO462916   3.449  21.868   5.343
 4883POPC   GL162917   3.491  21.992   5.767
 4883POPC   GL262918   3.791  21.796   5.849
 4883POPC   C1A62919   3.585  22.181   6.192
 4883POPC   D2A62920   3.369  22.407   6.545
 4883POPC   C3A62921   3.569  22.598   6.891
 4883POPC   C4A62922   3.610  22.201   7.096
 4883POPC   C1B62923   3.806  21.740   6.277
 4883POPC   C2B62924   3.846  21.962   6.656
 4883POPC   C3B62925   3.997  21.886   7.067
 4883POPC   C4B62926   3.839  21.853   7.560
 4884POPC   NC362927  34.677  10.920   5.537
 4884POPC   PO462928  34.203  10.422   5.426
 4884POPC   GL162929  34.357  10.611   5.784
 4884POPC   GL262930  34.477  10.336   6.006
 4884POPC   C1A62931  34.368  10.804   6.201
 4884POPC   D2A62932  34.308  10.778   6.650
 4884POPC   C3A62933  34.416  10.478   6.941
 4884POPC   C4A62934  34.722  10.581   7.236
 4884POPC   C1B62935  34.624  10.391   6.455
 4884POPC   C2B62936  34.876  10.249   6.849
 4884POPC   C3B62937  34.681  10.084   7.201
 4884POPC   C4B62938  34.250  10.140   7.311
 4885POPC   NC362939  10.834  34.705   5.388
 4885POPC   PO462940  11.475  34.940   5.489
 4885POPC   GL162941  11.410  34.770   5.877
 4885POPC   GL262942  11.149  34.560   5.814
 4885POPC   C1A62943  11.194  34.729   6.282
 4885POPC   D2A62944  10.995  34.510   6.624
 4885POPC   C3A62945  11.096  34.746   7.000
 4885POPC   C4A62946  11.489  34.901   7.101
 4885POPC   C1B62947  11.464  34.337   6.109
 4885POPC   C2B62948  11.526  34.458   6.565
 4885POPC   C3B62949  11.435  34.352   6.985
 4885POPC   C4B62950  11.694  34.135   7.264
 4886POPC   NC362951  29.845  13.567   5.180
 4886POPC   PO462952  30.412  13.307   5.153
 4886POPC   GL162953  30.151  13.678   5.550
 4886POPC   GL262954  29.793  13.553   5.683
 4886POPC   C1A62955  30.055  13.669   6.071
 4886POPC   D2A62956  30.098  13.493   6.488
 4886POPC   C3A62957  29.864  13.688   6.805
 4886POPC   C4A62958  30.031  13.723   7.183
 4886POPC   C1B62959  29.744  13.268   6.093
 4886POPC   C2B62960  29.663  13.223   6.549
 4886POPC   C3B62961  29.688  13.243   7.010
 4886POPC   C4B62962  29.536  13.627   7.244
 4887POPC   NC362963   8.401  43.620   5.134
 4887POPC   PO462964   7.961  44.088   5.419
 4887POPC   GL162965   8.061  44.004   5.835
 4887POPC   GL262966   7.862  43.702   5.820
 4887POPC   C1A62967   8.273  44.156   6.232
 4887POPC   D2A62968   8.492  44.223   6.644
 4887POPC   C3A62969   8.404  43.952   6.972
 4887POPC   C4A62970   8.316  43.495   6.954
 4887POPC   C1B62971   8.025  43.653   6.239
 4887POPC   C2B62972   8.042  43.887   6.626
 4887POPC   C3B62973   7.909  43.812   7.065
 4887POPC   C4B62974   7.988  43.425   7.334
 4888POPC   NC362975  10.060   4.547   5.323
 4888POPC   PO462976   9.486   4.180   5.402
 4888POPC   GL162977   9.660   4.482   5.690
 4888POPC   GL262978   9.953   4.307   5.778
 4888POPC   C1A62979   9.676   4.586   6.139
 4888POPC   D2A62980   9.520   4.344   6.498
 4888POPC   C3A62981   9.608   4.467   6.922
 4888POPC   C4A62982   9.771   4.692   7.259
 4888POPC   C1B62983   9.677   4.058   6.067
 4888POPC   C2B62984   9.783   3.914   6.482
 4888POPC   C3B62985   9.915   4.073   6.885
 4888POPC   C4B62986   9.804   4.105   7.307
 4889POPC   NC362987  29.258  32.875   5.134
 4889POPC   PO462988  29.133  33.460   5.477
 4889POPC   GL162989  29.079  33.087   5.742
 4889POPC   GL262990  29.353  32.847   5.671
 4889POPC   C1A62991  28.944  32.962   6.179
 4889POPC   D2A62992  29.145  33.077   6.574
 4889POPC   C3A62993  28.946  33.111   6.950
 4889POPC   C4A62994  29.163  33.110   7.333
 4889POPC   C1B62995  29.447  32.958   6.125
 4889POPC   C2B62996  29.519  32.753   6.554
 4889POPC   C3B62997  29.507  32.926   7.015
 4889POPC   C4B62998  29.536  32.828   7.532
 4890POPC   NC362999  44.900  34.477   5.413
 4890POPC   PO463000  44.240  34.366   5.585
 4890POPC   GL163001  44.535  34.378   5.875
 4890POPC   GL263002  44.746  34.659   5.864
 4890POPC   C1A63003  44.519  34.307   6.318
 4890POPC   D2A63004  44.641  34.371   6.737
 4890POPC   C3A63005  44.312  34.405   7.025
 4890POPC   C4A63006  44.470  34.650   7.346
 4890POPC   C1B63007  44.916  34.627   6.273
 4890POPC   C2B63008  44.914  34.817   6.676
 4890POPC   C3B63009  44.950  34.617   7.104
 4890POPC   C4B63010   0.091  34.823   7.497
 4891POPC   NC363011  27.254  34.401   5.472
 4891POPC   PO463012  27.928  34.435   5.596
 4891POPC   GL163013  27.580  34.466   5.874
 4891POPC   GL263014  27.502  34.151   5.884
 4891POPC   C1A63015  27.276  34.661   6.168
 4891POPC   D2A63016  27.422  34.903   6.533
 4891POPC   C3A63017  27.395  34.711   6.942
 4891POPC   C4A63018  27.723  34.496   7.137
 4891POPC   C1B63019  27.361  34.163   6.265
 4891POPC   C2B63020  27.198  34.355   6.618
 4891POPC   C3B63021  27.338  34.175   7.006
 4891POPC   C4B63022  27.347  34.290   7.426
 4892POPC   NC363023  13.664  19.494   5.290
 4892POPC   PO463024  13.735  18.806   5.205
 4892POPC   GL163025  13.780  19.085   5.592
 4892POPC   GL263026  13.443  19.054   5.717
 4892POPC   C1A63027  13.804  19.153   6.072
 4892POPC   D2A63028  13.900  18.980   6.482
 4892POPC   C3A63029  13.698  19.015   6.900
 4892POPC   C4A63030  13.860  18.862   7.290
 4892POPC   C1B63031  13.286  19.014   6.127
 4892POPC   C2B63032  13.251  19.233   6.503
 4892POPC   C3B63033  13.202  19.196   6.931
 4892POPC   C4B63034  13.357  19.065   7.315
 4893POPC   NC363035  10.126   6.884   5.643
 4893POPC   PO463036   9.668   6.588   5.213
 4893POPC   GL163037   9.534   6.624   5.682
 4893POPC   GL263038   9.590   6.980   5.756
 4893POPC   C1A63039   9.393   6.491   6.144
 4893POPC   D2A63040   9.511   6.395   6.611
 4893POPC   C3A63041   9.881   6.517   6.879
 4893POPC   C4A63042  10.032   6.718   7.295
 4893POPC   C1B63043   9.657   6.927   6.201
 4893POPC   C2B63044   9.806   6.944   6.615
 4893POPC   C3B63045   9.637   6.929   7.030
 4893POPC   C4B63046   9.452   7.175   7.292
 4894POPC   NC363047  24.144   6.755   5.474
 4894POPC   PO463048  24.605   6.293   5.370
 4894POPC   GL163049  24.551   6.558   5.744
 4894POPC   GL263050  24.282   6.329   5.829
 4894POPC   C1A63051  24.654   6.911   6.060
 4894POPC   D2A63052  24.680   7.080   6.508
 4894POPC   C3A63053  24.808   6.776   6.840
 4894POPC   C4A63054  24.766   6.759   7.279
 4894POPC   C1B63055  24.306   6.587   6.237
 4894POPC   C2B63056  24.269   6.775   6.656
 4894POPC   C3B63057  24.341   6.599   7.068
 4894POPC   C4B63058  24.243   6.148   7.168
 4895POPC   NC363059   8.161  31.746   5.415
 4895POPC   PO463060   8.322  31.208   5.559
 4895POPC   GL163061   8.411  31.598   5.850
 4895POPC   GL263062   8.105  31.781   5.933
 4895POPC   C1A63063   8.456  31.767   6.295
 4895POPC   D2A63064   8.370  31.484   6.648
 4895POPC   C3A63065   8.284  31.630   7.068
 4895POPC   C4A63066   8.560  31.534   7.428
 4895POPC   C1B63067   7.969  31.576   6.343
 4895POPC   C2B63068   7.894  31.405   6.796
 4895POPC   C3B63069   7.722  31.435   7.230
 4895POPC   C4B63070   7.588  31.504   7.674
 4896POPC   NC363071  35.301   8.623   5.469
 4896POPC   PO463072  35.562   7.965   5.432
 4896POPC   GL163073  35.358   7.992   5.838
 4896POPC   GL263074  35.030   8.113   5.766
 4896POPC   C1A63075  35.446   7.963   6.278
 4896POPC   D2A63076  35.716   8.106   6.586
 4896POPC   C3A63077  35.584   8.110   6.972
 4896POPC   C4A63078  35.429   7.872   7.313
 4896POPC   C1B63079  35.147   8.372   6.168
 4896POPC   C2B63080  35.216   8.302   6.616
 4896POPC   C3B63081  35.080   8.175   7.023
 4896POPC   C4B63082  35.312   8.377   7.322
 4897POPC   NC363083  14.270  16.816   5.376
 4897POPC   PO463084  14.922  16.684   5.202
 4897POPC   GL163085  14.676  16.771   5.682
 4897POPC   GL263086  14.696  17.048   5.864
 4897POPC   C1A63087  14.587  16.637   6.148
 4897POPC   D2A63088  14.465  16.453   6.553
 4897POPC   C3A63089  14.307  16.662   6.929
 4897POPC   C4A63090  14.001  16.608   7.224
 4897POPC   C1B63091  14.420  17.116   6.193
 4897POPC   C2B63092  14.561  16.959   6.564
 4897POPC   C3B63093  14.775  16.843   6.913
 4897POPC   C4B63094  14.688  17.056   7.254
 4898POPC   NC363095   2.117  44.892   5.603
 4898POPC   PO463096   1.599  44.592   5.561
 4898POPC   GL163097   1.839  44.571   5.906
 4898POPC   GL263098   1.976  44.232   5.879
 4898POPC   C1A63099   1.907  44.872   6.268
 4898POPC   D2A63100   2.113  44.833   6.668
 4898POPC   C3A63101   1.877  44.799   7.069
 4898POPC   C4A63102   1.894  44.818   7.530
 4898POPC   C1B63103   2.189  44.439   6.242
 4898POPC   C2B63104   2.265  44.333   6.642
 4898POPC   C3B63105   2.304  44.526   7.042
 4898POPC   C4B63106   2.310  44.479   7.463
 4899POPC   NC363107   8.337  23.436   5.462
 4899POPC   PO463108   7.921  23.956   5.623
 4899POPC   GL163109   8.249  23.815   5.822
 4899POPC   GL263110   8.440  24.120   5.790
 4899POPC   C1A63111   8.153  23.599   6.216
 4899POPC   D2A63112   7.835  23.772   6.518
 4899POPC   C3A63113   7.951  23.640   6.916
 4899POPC   C4A63114   8.079  23.834   7.300
 4899POPC   C1B63115   8.604  23.894   6.191
 4899POPC   C2B63116   8.537  23.789   6.652
 4899POPC   C3B63117   8.542  23.889   7.115
 4899POPC   C4B63118   8.475  24.015   7.573
 4900POPC   NC363119  28.859  37.303   5.365
 4900POPC   PO463120  29.121  37.843   5.149
 4900POPC   GL163121  29.181  37.805   5.581
 4900POPC   GL263122  29.290  37.452   5.622
 4900POPC   C1A63123  29.063  37.780   6.011
 4900POPC   D2A63124  29.131  37.640   6.443
 4900POPC   C3A63125  29.160  37.886   6.824
 4900POPC   C4A63126  29.423  37.916   7.174
 4900POPC   C1B63127  29.423  37.383   6.072
 4900POPC   C2B63128  29.586  37.435   6.527
 4900POPC   C3B63129  29.297  37.391   6.903
 4900POPC   C4B63130  29.205  37.434   7.358
 4901POPC   NC363131  11.369  31.412   5.216
 4901POPC   PO463132  11.050  31.841   5.498
 4901POPC   GL163133  11.369  31.662   5.823
 4901POPC   GL263134  11.692  31.820   5.923
 4901POPC   C1A63135  11.411  31.527   6.269
 4901POPC   D2A63136  11.221  31.461   6.679
 4901POPC   C3A63137  11.270  31.320   7.112
 4901POPC   C4A63138  11.006  31.430   7.459
 4901POPC   C1B63139  11.862  31.716   6.367
 4901POPC   C2B63140  11.619  31.804   6.749
 4901POPC   C3B63141  11.619  31.677   7.186
 4901POPC   C4B63142  11.387  31.753   7.541
 4902POPC   NC363143  27.683  12.427   5.000
 4902POPC   PO463144  27.396  12.061   5.507
 4902POPC   GL163145  27.694  12.052   5.822
 4902POPC   GL263146  27.844  12.320   5.917
 4902POPC   C1A63147  27.580  11.962   6.236
 4902POPC   D2A63148  27.284  12.123   6.573
 4902POPC   C3A63149  27.443  12.114   7.011
 4902POPC   C4A63150  27.597  11.883   7.373
 4902POPC   C1B63151  27.705  12.450   6.266
 4902POPC   C2B63152  27.783  12.248   6.619
 4902POPC   C3B63153  27.884  12.422   6.951
 4902POPC   C4B63154  27.802  12.365   7.319
 4903POPC   NC363155  15.784  43.919   5.293
 4903POPC   PO463156  16.321  43.603   5.260
 4903POPC   GL163157  16.176  43.783   5.736
 4903POPC   GL263158  16.095  44.110   5.650
 4903POPC   C1A63159  15.966  43.667   6.204
 4903POPC   D2A63160  15.877  43.667   6.664
 4903POPC   C3A63161  16.192  43.657   7.036
 4903POPC   C4A63162  16.048  43.724   7.519
 4903POPC   C1B63163  16.113  44.145   6.104
 4903POPC   C2B63164  16.263  43.995   6.510
 4903POPC   C3B63165  16.243  44.170   6.933
 4903POPC   C4B63166  16.229  44.186   7.368
 4904POPC   NC363167  31.592   1.473   5.431
 4904POPC   PO463168  31.082   1.389   5.773
 4904POPC   GL163169  31.467   1.520   5.925
 4904POPC   GL263170  31.575   1.177   5.924
 4904POPC   C1A63171  31.632   1.568   6.342
 4904POPC   D2A63172  31.621   1.227   6.634
 4904POPC   C3A63173  31.425   1.283   7.046
 4904POPC   C4A63174  31.526   1.398   7.475
 4904POPC   C1B63175  31.357   0.932   6.281
 4904POPC   C2B63176  31.266   0.865   6.737
 4904POPC   C3B63177  31.238   0.792   7.175
 4904POPC   C4B63178  31.130   1.099   7.474
 4905POPC   NC363179  15.062  38.717   5.397
 4905POPC   PO463180  15.396  38.139   5.285
 4905POPC   GL163181  15.293  38.364   5.714
 4905POPC   GL263182  14.948  38.527   5.850
 4905POPC   C1A63183  15.329  38.466   6.171
 4905POPC   D2A63184  15.141  38.296   6.564
 4905POPC   C3A63185  15.345  38.388   6.946
 4905POPC   C4A63186  15.566  38.299   7.324
 4905POPC   C1B63187  14.770  38.470   6.264
 4905POPC   C2B63188  14.633  38.725   6.614
 4905POPC   C3B63189  14.775  38.914   7.001
 4905POPC   C4B63190  15.039  38.669   7.220
 4906POPC   NC363191  35.829  28.638   5.494
 4906POPC   PO463192  35.697  29.301   5.418
 4906POPC   GL163193  35.403  29.287   5.789
 4906POPC   GL263194  35.174  28.959   5.848
 4906POPC   C1A63195  35.297  29.257   6.236
 4906POPC   D2A63196  35.227  29.084   6.652
 4906POPC   C3A63197  35.440  29.343   6.943
 4906POPC   C4A63198  35.313  29.421   7.344
 4906POPC   C1B63199  34.910  28.911   6.254
 4906POPC   C2B63200  34.735  28.883   6.682
 4906POPC   C3B63201  34.912  28.858   7.089
 4906POPC   C4B63202  35.362  28.898   7.186
 4907POPC   NC363203   5.509  19.940   5.327
 4907POPC   PO463204   6.160  20.058   5.241
 4907POPC   GL163205   5.907  19.826   5.654
 4907POPC   GL263206   5.606  19.993   5.817
 4907POPC   C1A63207   5.831  19.676   6.133
 4907POPC   D2A63208   5.886  19.858   6.586
 4907POPC   C3A63209   5.792  19.603   6.950
 4907POPC   C4A63210   5.792  19.651   7.382
 4907POPC   C1B63211   5.624  20.123   6.245
 4907POPC   C2B63212   5.419  20.134   6.640
 4907POPC   C3B63213   5.398  20.095   7.118
 4907POPC   C4B63214   5.400  20.333   7.545
 4908POPC   NC363215  38.350  26.567   5.423
 4908POPC   PO463216  38.648  27.202   5.258
 4908POPC   GL163217  38.570  26.996   5.658
 4908POPC   GL263218  38.210  26.887   5.798
 4908POPC   C1A63219  38.601  27.087   6.106
 4908POPC   D2A63220  38.300  27.116   6.464
 4908POPC   C3A63221  38.516  27.013   6.846
 4908POPC   C4A63222  38.519  26.925   7.278
 4908POPC   C1B63223  38.169  26.499   6.075
 4908POPC   C2B63224  38.120  26.462   6.532
 4908POPC   C3B63225  38.300  26.545   6.949
 4908POPC   C4B63226  38.087  26.633   7.366
 4909POPC   NC363227   7.009   6.024   5.438
 4909POPC   PO463228   7.665   5.860   5.275
 4909POPC   GL163229   7.601   5.924   5.789
 4909POPC   GL263230   7.282   5.908   5.889
 4909POPC   C1A63231   7.666   6.158   6.215
 4909POPC   D2A63232   7.684   5.932   6.636
 4909POPC   C3A63233   7.590   6.018   7.082
 4909POPC   C4A63234   7.695   6.028   7.526
 4909POPC   C1B63235   7.297   5.816   6.326
 4909POPC   C2B63236   7.185   5.995   6.727
 4909POPC   C3B63237   7.097   5.865   7.120
 4909POPC   C4B63238   6.868   5.473   7.187
 4910POPC   NC363239  25.623  11.584   5.462
 4910POPC   PO463240  25.064  11.265   5.524
 4910POPC   GL163241  25.336  11.380   5.833
 4910POPC   GL263242  25.167  11.128   6.013
 4910POPC   C1A63243  25.419  11.526   6.239
 4910POPC   D2A63244  25.602  11.290   6.577
 4910POPC   C3A63245  25.418  11.486   6.916
 4910POPC   C4A63246  25.174  11.575   7.238
 4910POPC   C1B63247  25.102  10.795   6.289
 4910POPC   C2B63248  24.799  10.889   6.588
 4910POPC   C3B63249  24.980  11.172   6.888
 4910POPC   C4B63250  25.129  11.044   7.271
 4911POPC   NC363251  26.903   4.417   5.321
 4911POPC   PO463252  26.304   4.215   5.530
 4911POPC   GL163253  26.551   4.100   5.842
 4911POPC   GL263254  26.896   4.109   5.726
 4911POPC   C1A63255  26.750   3.937   6.161
 4911POPC   D2A63256  27.061   4.047   6.417
 4911POPC   C3A63257  26.856   4.255   6.752
 4911POPC   C4A63258  26.980   4.208   7.163
 4911POPC   C1B63259  27.151   4.393   6.016
 4911POPC   C2B63260  27.196   4.535   6.452
 4911POPC   C3B63261  27.311   4.483   6.870
 4911POPC   C4B63262  27.350   4.761   7.195
 4912POPC   NC363263  28.353  44.468   4.995
 4912POPC   PO463264  28.225   0.058   5.399
 4912POPC   GL163265  28.184  44.801   5.804
 4912POPC   GL263266  28.268  44.425   5.790
 4912POPC   C1A63267  28.047  44.759   6.214
 4912POPC   D2A63268  28.339  44.781   6.525
 4912POPC   C3A63269  28.379  44.572   6.880
 4912POPC   C4A63270  28.733  44.647   7.085
 4912POPC   C1B63271  28.418  44.371   6.225
 4912POPC   C2B63272  28.263  44.154   6.607
 4912POPC   C3B63273  28.255  44.122   7.057
 4912POPC   C4B63274  28.349  44.443   7.397
 4913POPC   NC363275  26.244  22.722   5.333
 4913POPC   PO463276  25.578  22.854   5.252
 4913POPC   GL163277  25.900  22.832   5.682
 4913POPC   GL263278  26.235  22.976   5.785
 4913POPC   C1A63279  25.915  22.814   6.154
 4913POPC   D2A63280  25.940  23.019   6.552
 4913POPC   C3A63281  25.920  22.809   6.950
 4913POPC   C4A63282  26.059  22.844   7.341
 4913POPC   C1B63283  26.429  22.918   6.231
 4913POPC   C2B63284  26.406  22.867   6.695
 4913POPC   C3B63285  26.515  22.896   7.127
 4913POPC   C4B63286  26.439  23.183   7.458
 4914POPC   NC363287  20.067  10.849   5.592
 4914POPC   PO463288  20.621  11.284   5.389
 4914POPC   GL163289  20.750  11.400   5.745
 4914POPC   GL263290  20.442  11.257   5.863
 4914POPC   C1A63291  20.880  11.275   6.131
 4914POPC   D2A63292  20.610  11.227   6.476
 4914POPC   C3A63293  20.761  11.398   6.862
 4914POPC   C4A63294  20.884  11.199   7.228
 4914POPC   C1B63295  20.472  11.609   6.161
 4914POPC   C2B63296  20.174  11.655   6.473
 4914POPC   C3B63297  20.270  11.527   6.878
 4914POPC   C4B63298  20.525  11.641   7.260
 4915POPC   NC363299   3.323  39.123   5.543
 4915POPC   PO463300   3.909  39.519   5.501
 4915POPC   GL163301   3.605  39.498   5.818
 4915POPC   GL263302   3.858  39.325   6.031
 4915POPC   C1A63303   3.381  39.397   6.194
 4915POPC   D2A63304   3.625  39.245   6.535
 4915POPC   C3A63305   3.381  39.223   6.883
 4915POPC   C4A63306   3.196  39.211   7.284
 4915POPC   C1B63307   3.780  39.715   6.281
 4915POPC   C2B63308   3.701  39.725   6.733
 4915POPC   C3B63309   3.879  39.515   7.088
 4915POPC   C4B63310   3.761  39.459   7.553
 4916POPC   NC363311  19.762  32.801   5.311
 4916POPC   PO463312  20.259  33.051   5.699
 4916POPC   GL163313  19.940  33.175   5.949
 4916POPC   GL263314  19.588  33.071   5.788
 4916POPC   C1A63315  19.915  33.021   6.354
 4916POPC   D2A63316  19.916  32.777   6.699
 4916POPC   C3A63317  20.102  33.054   7.003
 4916POPC   C4A63318  20.026  32.846   7.362
 4916POPC   C1B63319  19.468  33.235   6.208
 4916POPC   C2B63320  19.617  33.233   6.685
 4916POPC   C3B63321  19.585  32.990   7.056
 4916POPC   C4B63322  19.395  33.243   7.308
 4917POPC   NC363323  19.506  16.553   5.464
 4917POPC   PO463324  20.052  16.547   5.797
 4917POPC   GL163325  19.687  16.805   5.889
 4917POPC   GL263326  19.435  16.554   5.948
 4917POPC   C1A63327  19.625  17.050   6.286
 4917POPC   D2A63328  19.954  17.240   6.604
 4917POPC   C3A63329  20.038  17.015   7.019
 4917POPC   C4A63330  20.187  16.612   7.184
 4917POPC   C1B63331  19.594  16.529   6.315
 4917POPC   C2B63332  19.428  16.560   6.694
 4917POPC   C3B63333  19.473  16.328   7.026
 4917POPC   C4B63334  19.655  16.690   7.168
 4918POPC   NC363335   9.968  21.318   5.349
 4918POPC   PO463336   9.374  20.997   5.388
 4918POPC   GL163337   9.649  21.132   5.745
 4918POPC   GL263338   9.752  21.511   5.763
 4918POPC   C1A63339   9.698  21.221   6.190
 4918POPC   D2A63340   9.833  21.292   6.619
 4918POPC   C3A63341   9.479  21.352   6.902
 4918POPC   C4A63342   9.510  21.181   7.322
 4918POPC   C1B63343   9.979  21.640   6.140
 4918POPC   C2B63344  10.111  21.708   6.552
 4918POPC   C3B63345   9.942  21.837   6.956
 4918POPC   C4B63346   9.721  21.638   7.266
 4919POPC   NC363347   0.889  27.864   5.462
 4919POPC   PO463348   1.547  27.688   5.493
 4919POPC   GL163349   1.415  27.648   5.913
 4919POPC   GL263350   1.066  27.630   5.894
 4919POPC   C1A63351   1.350  27.382   6.292
 4919POPC   D2A63352   1.403  27.568   6.709
 4919POPC   C3A63353   1.128  27.413   7.028
 4919POPC   C4A63354   0.985  27.481   7.474
 4919POPC   C1B63355   1.078  27.800   6.313
 4919POPC   C2B63356   0.898  27.768   6.710
 4919POPC   C3B63357   0.925  27.899   7.148
 4919POPC   C4B63358   0.691  27.897   7.560
 4920POPC   NC363359  31.475  44.619   5.275
 4920POPC   PO463360  31.941  44.469   5.722
 4920POPC   GL163361  31.559  44.768   5.764
 4920POPC   GL263362  31.204  44.641   5.748
 4920POPC   C1A63363  31.343  44.954   6.134
 4920POPC   D2A63364  31.526  44.949   6.552
 4920POPC   C3A63365  31.267  44.973   6.909
 4920POPC   C4A63366  31.497  44.756   7.202
 4920POPC   C1B63367  31.287  44.409   6.111
 4920POPC   C2B63368  31.494  44.337   6.512
 4920POPC   C3B63369  31.636  44.342   6.927
 4920POPC   C4B63370  31.397  44.277   7.287
 4921POPC   NC363371  41.345  44.801   5.360
 4921POPC   PO463372  41.715  44.244   5.411
 4921POPC   GL163373  41.542  44.510   5.747
 4921POPC   GL263374  41.724  44.826   5.772
 4921POPC   C1A63375  41.363  44.667   6.142
 4921POPC   D2A63376  41.516  44.591   6.563
 4921POPC   C3A63377  41.309  44.727   6.943
 4921POPC   C4A63378  41.485  44.861   7.353
 4921POPC   C1B63379  41.889  44.674   6.183
 4921POPC   C2B63380  41.955  44.839   6.604
 4921POPC   C3B63381  41.827  44.682   7.008
 4921POPC   C4B63382  41.742  44.427   7.382
 4922POPC   NC363383   2.355  26.906   5.400
 4922POPC   PO463384   2.991  26.653   5.389
 4922POPC   GL163385   2.755  26.751   5.736
 4922POPC   GL263386   2.732  27.098   5.751
 4922POPC   C1A63387   2.890  26.690   6.139
 4922POPC   D2A63388   3.160  26.525   6.473
 4922POPC   C3A63389   3.087  26.645   6.904
 4922POPC   C4A63390   2.952  26.581   7.319
 4922POPC   C1B63391   2.669  27.147   6.182
 4922POPC   C2B63392   2.783  26.921   6.579
 4922POPC   C3B63393   2.791  27.088   6.992
 4922POPC   C4B63394   2.670  27.000   7.372
 4923POPC   NC363395  19.223  28.154   5.196
 4923POPC   PO463396  18.831  27.625   5.549
 4923POPC   GL163397  19.119  27.555   5.921
 4923POPC   GL263398  18.940  27.761   6.068
 4923POPC   C1A63399  19.323  27.547   6.335
 4923POPC   D2A63400  19.037  27.736   6.615
 4923POPC   C3A63401  18.931  27.565   7.003
 4923POPC   C4A63402  19.294  27.534   7.286
 4923POPC   C1B63403  19.258  28.036   6.246
 4923POPC   C2B63404  19.300  28.175   6.636
 4923POPC   C3B63405  19.284  27.988   7.032
 4923POPC   C4B63406  18.964  27.945   7.322
 4924POPC   NC363407  39.447  15.703   5.335
 4924POPC   PO463408  39.143  16.336   5.381
 4924POPC   GL163409  39.190  16.061   5.791
 4924POPC   GL263410  38.997  15.765   5.748
 4924POPC   C1A63411  39.198  15.993   6.294
 4924POPC   D2A63412  39.484  15.943   6.696
 4924POPC   C3A63413  39.325  15.843   7.136
 4924POPC   C4A63414  39.034  15.987   7.500
 4924POPC   C1B63415  38.755  15.756   6.153
 4924POPC   C2B63416  38.784  15.689   6.622
 4924POPC   C3B63417  38.823  15.807   7.053
 4924POPC   C4B63418  38.896  15.528   7.429
 4925POPC   NC363419  21.231  37.026   5.342
 4925POPC   PO463420  21.744  36.735   5.229
 4925POPC   GL163421  21.579  36.728   5.612
 4925POPC   GL263422  21.520  37.080   5.752
 4925POPC   C1A63423  21.736  36.665   6.016
 4925POPC   D2A63424  21.709  36.626   6.463
 4925POPC   C3A63425  21.614  36.888   6.801
 4925POPC   C4A63426  21.771  36.712   7.179
 4925POPC   C1B63427  21.254  36.837   5.996
 4925POPC   C2B63428  21.188  36.795   6.421
 4925POPC   C3B63429  21.046  36.872   6.826
 4925POPC   C4B63430  21.260  36.723   7.151
 4926POPC   NC363431  17.949  19.197   5.469
 4926POPC   PO463432  17.337  19.382   5.318
 4926POPC   GL163433  17.318  19.117   5.750
 4926POPC   GL263434  17.663  19.151   5.879
 4926POPC   C1A63435  17.403  18.763   6.110
 4926POPC   D2A63436  17.354  18.554   6.569
 4926POPC   C3A63437  17.254  18.759   7.007
 4926POPC   C4A63438  17.246  18.861   7.487
 4926POPC   C1B63439  17.684  19.147   6.305
 4926POPC   C2B63440  17.338  19.057   6.538
 4926POPC   C3B63441  17.557  19.127   6.862
 4926POPC   C4B63442  17.623  19.119   7.278
 4927POPC   NC363443  18.020  42.660   5.341
 4927POPC   PO463444  18.517  43.074   5.417
 4927POPC   GL163445  18.441  42.896   5.809
 4927POPC   GL263446  18.306  43.231   5.913
 4927POPC   C1A63447  18.560  42.969   6.262
 4927POPC   D2A63448  18.322  43.180   6.587
 4927POPC   C3A63449  18.384  42.948   6.968
 4927POPC   C4A63450  18.122  42.810   7.283
 4927POPC   C1B63451  18.531  43.512   6.204
 4927POPC   C2B63452  18.484  43.673   6.625
 4927POPC   C3B63453  18.374  43.454   7.034
 4927POPC   C4B63454  18.265  43.267   7.443
 4928POPC   NC363455   7.042  32.756   5.562
 4928POPC   PO463456   7.707  32.732   5.504
 4928POPC   GL163457   7.484  32.823   5.829
 4928POPC   GL263458   7.372  33.141   5.733
 4928POPC   C1A63459   7.304  32.840   6.218
 4928POPC   D2A63460   7.592  32.833   6.562
 4928POPC   C3A63461   7.463  32.711   6.926
 4928POPC   C4A63462   7.654  32.864   7.300
 4928POPC   C1B63463   7.529  33.300   6.122
 4928POPC   C2B63464   7.339  33.262   6.518
 4928POPC   C3B63465   7.424  33.216   6.945
 4928POPC   C4B63466   7.141  32.961   7.211
 4929POPC   NC363467  22.602  35.709   5.049
 4929POPC   PO463468  22.911  35.180   5.449
 4929POPC   GL163469  22.812  35.257   5.859
 4929POPC   GL263470  22.780  35.597   5.885
 4929POPC   C1A63471  22.954  35.303   6.301
 4929POPC   D2A63472  22.718  35.465   6.671
 4929POPC   C3A63473  22.615  35.135   6.969
 4929POPC   C4A63474  22.929  35.023   7.257
 4929POPC   C1B63475  22.858  35.822   6.243
 4929POPC   C2B63476  22.674  35.997   6.595
 4929POPC   C3B63477  22.788  35.892   7.007
 4929POPC   C4B63478  22.792  35.541   7.252
 4930POPC   NC363479  17.953  17.496   5.445
 4930POPC   PO463480  18.608  17.891   5.391
 4930POPC   GL163481  18.320  17.717   5.750
 4930POPC   GL263482  18.316  17.360   5.856
 4930POPC   C1A63483  18.409  17.762   6.192
 4930POPC   D2A63484  18.388  17.719   6.637
 4930POPC   C3A63485  18.539  17.386   6.898
 4930POPC   C4A63486  18.403  17.312   7.330
 4930POPC   C1B63487  18.049  17.358   6.181
 4930POPC   C2B63488  17.951  17.439   6.593
 4930POPC   C3B63489  18.054  17.210   6.937
 4930POPC   C4B63490  17.910  17.207   7.316
 4931POPC   NC363491  14.994  17.085   5.431
 4931POPC   PO463492  15.357  17.632   5.302
 4931POPC   GL163493  15.243  17.684   5.728
 4931POPC   GL263494  14.912  17.513   5.782
 4931POPC   C1A63495  15.343  17.601   6.160
 4931POPC   D2A63496  15.208  17.611   6.587
 4931POPC   C3A63497  15.482  17.723   6.941
 4931POPC   C4A63498  15.371  17.735   7.368
 4931POPC   C1B63499  14.953  17.280   6.210
 4931POPC   C2B63500  15.058  17.140   6.631
 4931POPC   C3B63501  15.026  17.384   7.026
 4931POPC   C4B63502  15.074  17.337   7.484
 4932POPC   NC363503  13.451   7.051   5.057
 4932POPC   PO463504  13.848   7.375   5.502
 4932POPC   GL163505  13.684   7.528   5.904
 4932POPC   GL263506  13.362   7.428   5.932
 4932POPC   C1A63507  13.585   7.476   6.373
 4932POPC   D2A63508  13.795   7.490   6.743
 4932POPC   C3A63509  13.620   7.390   7.105
 4932POPC   C4A63510  13.978   7.451   7.325
 4932POPC   C1B63511  13.372   7.030   6.257
 4932POPC   C2B63512  13.397   7.059   6.731
 4932POPC   C3B63513  13.139   7.043   7.114
 4932POPC   C4B63514  13.288   7.270   7.487
 4933POPC   NC363515   1.185   2.230   5.084
 4933POPC   PO463516   1.447   1.836   5.611
 4933POPC   GL163517   1.207   1.874   5.916
 4933POPC   GL263518   0.893   2.063   5.834
 4933POPC   C1A63519   1.270   1.679   6.301
 4933POPC   D2A63520   1.275   1.895   6.650
 4933POPC   C3A63521   1.348   1.922   7.052
 4933POPC   C4A63522   1.327   2.311   7.194
 4933POPC   C1B63523   0.972   2.136   6.284
 4933POPC   C2B63524   0.795   2.120   6.687
 4933POPC   C3B63525   0.837   2.121   7.101
 4933POPC   C4B63526   0.960   1.805   7.381
 4934POPC   NC363527  27.456  25.457   5.300
 4934POPC   PO463528  28.088  25.380   5.498
 4934POPC   GL163529  27.884  25.489   5.871
 4934POPC   GL263530  27.549  25.562   5.786
 4934POPC   C1A63531  27.786  25.289   6.313
 4934POPC   D2A63532  27.560  24.945   6.578
 4934POPC   C3A63533  27.423  25.107   6.996
 4934POPC   C4A63534  27.511  25.001   7.438
 4934POPC   C1B63535  27.307  25.386   6.113
 4934POPC   C2B63536  27.269  25.362   6.542
 4934POPC   C3B63537  27.111  25.548   6.893
 4934POPC   C4B63538  27.272  25.630   7.324
 4935POPC   NC363539  43.431  30.535   5.348
 4935POPC   PO463540  42.924  31.045   5.461
 4935POPC   GL163541  42.840  30.762   5.818
 4935POPC   GL263542  43.053  30.493   5.771
 4935POPC   C1A63543  42.878  30.731   6.227
 4935POPC   D2A63544  43.176  30.820   6.512
 4935POPC   C3A63545  43.069  30.767   6.931
 4935POPC   C4A63546  43.121  30.631   7.357
 4935POPC   C1B63547  43.293  30.412   6.195
 4935POPC   C2B63548  43.289  30.345   6.687
 4935POPC   C3B63549  43.524  30.523   7.076
 4935POPC   C4B63550  43.535  30.471   7.576
 4936POPC   NC363551  19.495  40.759   5.262
 4936POPC   PO463552  19.948  40.452   5.635
 4936POPC   GL163553  20.002  40.874   5.740
 4936POPC   GL263554  19.648  40.993   5.707
 4936POPC   C1A63555  20.179  40.964   6.154
 4936POPC   D2A63556  20.182  40.784   6.589
 4936POPC   C3A63557  20.038  41.066   6.924
 4936POPC   C4A63558  19.874  41.133   7.324
 4936POPC   C1B63559  19.678  40.824   6.133
 4936POPC   C2B63560  19.681  40.863   6.582
 4936POPC   C3B63561  19.753  40.611   6.973
 4936POPC   C4B63562  19.677  40.643   7.423
 4937POPC   NC363563  37.653   6.321   5.589
 4937POPC   PO463564  37.658   6.738   5.073
 4937POPC   GL163565  37.721   6.850   5.578
 4937POPC   GL263566  37.970   6.662   5.808
 4937POPC   C1A63567  37.616   6.901   6.077
 4937POPC   D2A63568  37.756   6.981   6.538
 4937POPC   C3A63569  37.595   6.830   6.948
 4937POPC   C4A63570  37.757   6.886   7.369
 4937POPC   C1B63571  38.033   6.625   6.272
 4937POPC   C2B63572  37.904   6.497   6.691
 4937POPC   C3B63573  37.979   6.476   7.142
 4937POPC   C4B63574  37.884   6.406   7.583
 4938POPC   NC363575  36.787  22.654   5.425
 4938POPC   PO463576  37.279  23.074   5.258
 4938POPC   GL163577  37.071  23.130   5.689
 4938POPC   GL263578  36.743  23.016   5.802
 4938POPC   C1A63579  37.062  23.210   6.171
 4938POPC   D2A63580  37.132  23.009   6.590
 4938POPC   C3A63581  36.928  23.035   6.996
 4938POPC   C4A63582  37.025  23.002   7.461
 4938POPC   C1B63583  36.769  22.783   6.251
 4938POPC   C2B63584  36.844  22.577   6.690
 4938POPC   C3B63585  36.936  22.551   7.179
 4938POPC   C4B63586  36.735  22.633   7.604
 4939POPC   NC363587  10.484  37.384   5.542
 4939POPC   PO463588  10.668  38.037   5.440
 4939POPC   GL163589  10.631  37.778   5.809
 4939POPC   GL263590  10.238  37.786   5.731
 4939POPC   C1A63591  10.777  37.633   6.237
 4939POPC   D2A63592  10.671  37.778   6.712
 4939POPC   C3A63593  10.578  37.676   7.172
 4939POPC   C4A63594  10.713  37.894   7.569
 4939POPC   C1B63595  10.274  37.529   6.131
 4939POPC   C2B63596  10.436  37.357   6.523
 4939POPC   C3B63597  10.223  37.370   6.911
 4939POPC   C4B63598  10.285  37.292   7.326
 4940POPC   NC363599  29.521  36.782   5.408
 4940POPC   PO463600  28.846  36.882   5.184
 4940POPC   GL163601  29.075  36.642   5.626
 4940POPC   GL263602  28.869  36.602   5.957
 4940POPC   C1A63603  29.292  36.868   6.038
 4940POPC   D2A63604  29.192  37.114   6.452
 4940POPC   C3A63605  29.218  36.884   6.837
 4940POPC   C4A63606  29.407  36.942   7.243
 4940POPC   C1B63607  28.771  36.877   6.331
 4940POPC   C2B63608  28.693  36.922   6.764
 4940POPC   C3B63609  28.862  37.119   7.125
 4940POPC   C4B63610  28.962  36.925   7.517
 4941POPC   NC363611  41.922  21.042   5.013
 4941POPC   PO463612  41.564  20.625   5.477
 4941POPC   GL163613  41.648  20.654   5.843
 4941POPC   GL263614  41.805  20.324   5.858
 4941POPC   C1A63615  41.353  20.811   6.150
 4941POPC   D2A63616  41.136  20.564   6.451
 4941POPC   C3A63617  41.336  20.592   6.814
 4941POPC   C4A63618  41.263  20.504   7.222
 4941POPC   C1B63619  41.622  20.403   6.289
 4941POPC   C2B63620  41.850  20.382   6.665
 4941POPC   C3B63621  41.743  20.436   7.055
 4941POPC   C4B63622  41.679  20.761   7.331
 4942POPC   NC363623  30.372  21.140   5.529
 4942POPC   PO463624  29.833  21.506   5.342
 4942POPC   GL163625  29.773  21.530   5.770
 4942POPC   GL263626  29.940  21.222   5.832
 4942POPC   C1A63627  30.033  21.581   6.155
 4942POPC   D2A63628  30.258  21.482   6.559
 4942POPC   C3A63629  30.002  21.517   6.948
 4942POPC   C4A63630  29.925  21.457   7.396
 4942POPC   C1B63631  30.064  21.100   6.275
 4942POPC   C2B63632  30.077  21.013   6.730
 4942POPC   C3B63633  30.033  21.036   7.154
 4942POPC   C4B63634  29.989  20.986   7.590
 4943POPC   NC363635   0.408  21.575   5.376
 4943POPC   PO463636   0.873  21.232   5.605
 4943POPC   GL163637   0.757  21.302   5.963
 4943POPC   GL263638   0.421  21.316   5.866
 4943POPC   C1A63639   0.688  21.254   6.394
 4943POPC   D2A63640   0.422  21.180   6.749
 4943POPC   C3A63641   0.601  21.372   7.072
 4943POPC   C4A63642   0.844  21.652   7.296
 4943POPC   C1B63643   0.218  21.368   6.280
 4943POPC   C2B63644   0.014  21.555   6.652
 4943POPC   C3B63645   0.072  21.460   7.092
 4943POPC   C4B63646   0.196  21.068   7.248
 4944POPC   NC363647   4.177  43.491   5.528
 4944POPC   PO463648   4.438  42.874   5.271
 4944POPC   GL163649   4.388  43.025   5.679
 4944POPC   GL263650   4.048  42.987   5.854
 4944POPC   C1A63651   4.503  42.920   6.097
 4944POPC   D2A63652   4.582  42.804   6.537
 4944POPC   C3A63653   4.255  42.864   6.846
 4944POPC   C4A63654   4.309  43.182   7.185
 4944POPC   C1B63655   4.070  43.111   6.317
 4944POPC   C2B63656   4.059  43.337   6.740
 4944POPC   C3B63657   3.905  43.474   7.179
 4944POPC   C4B63658   3.950  43.558   7.660
 4945POPC   NC363659  36.436  27.861   5.324
 4945POPC   PO463660  35.804  27.552   5.275
 4945POPC   GL163661  36.121  27.501   5.628
 4945POPC   GL263662  36.140  27.816   5.771
 4945POPC   C1A63663  36.251  27.321   6.077
 4945POPC   D2A63664  36.155  27.431   6.536
 4945POPC   C3A63665  36.400  27.381   6.944
 4945POPC   C4A63666  36.252  27.457   7.380
 4945POPC   C1B63667  36.310  27.819   6.195
 4945POPC   C2B63668  36.409  28.132   6.493
 4945POPC   C3B63669  36.523  28.145   6.907
 4945POPC   C4B63670  36.313  27.932   7.251
 4946POPC   NC363671  28.967  30.881   5.457
 4946POPC   PO463672  29.588  30.628   5.384
 4946POPC   GL163673  29.318  30.623   5.757
 4946POPC   GL263674  29.306  30.995   5.842
 4946POPC   C1A63675  29.158  30.486   6.182
 4946POPC   D2A63676  29.156  30.242   6.598
 4946POPC   C3A63677  29.005  30.477   6.980
 4946POPC   C4A63678  29.007  30.478   7.458
 4946POPC   C1B63679  28.954  30.987   6.153
 4946POPC   C2B63680  29.003  30.837   6.574
 4946POPC   C3B63681  29.265  30.935   6.927
 4946POPC   C4B63682  29.162  30.932   7.337
 4947POPC   NC363683   0.113  29.427   5.455
 4947POPC   PO463684   0.701  28.990   5.509
 4947POPC   GL163685   0.371  29.110   5.804
 4947POPC   GL263686   0.522  29.393   5.827
 4947POPC   C1A63687   0.213  29.130   6.251
 4947POPC   D2A63688   0.241  28.928   6.692
 4947POPC   C3A63689   0.260  29.188   7.096
 4947POPC   C4A63690   0.504  29.196   7.491
 4947POPC   C1B63691   0.656  29.435   6.225
 4947POPC   C2B63692   0.632  29.273   6.638
 4947POPC   C3B63693   0.655  29.474   7.026
 4947POPC   C4B63694   0.772  29.626   7.422
 4948POPC   NC363695  31.743  12.245   5.524
 4948POPC   PO463696  31.236  11.790   5.269
 4948POPC   GL163697  31.411  11.883   5.695
 4948POPC   GL263698  31.751  11.731   5.689
 4948POPC   C1A63699  31.421  12.020   6.149
 4948POPC   D2A63700  31.213  12.246   6.494
 4948POPC   C3A63701  31.091  12.020   6.869
 4948POPC   C4A63702  31.268  11.940   7.275
 4948POPC   C1B63703  31.731  11.630   6.130
 4948POPC   C2B63704  31.513  11.604   6.516
 4948POPC   C3B63705  31.555  11.767   6.898
 4948POPC   C4B63706  31.769  11.999   7.210
 4949POPC   NC363707  40.125  40.536   5.123
 4949POPC   PO463708  39.676  40.973   5.438
 4949POPC   GL163709  39.864  40.768   5.848
 4949POPC   GL263710  40.206  40.568   5.810
 4949POPC   C1A63711  40.164  40.901   6.226
 4949POPC   D2A63712  40.310  40.728   6.649
 4949POPC   C3A63713  40.130  40.891   7.045
 4949POPC   C4A63714  40.158  41.234   7.333
 4949POPC   C1B63715  39.970  40.428   6.204
 4949POPC   C2B63716  39.818  40.495   6.630
 4949POPC   C3B63717  39.912  40.440   7.052
 4949POPC   C4B63718  40.031  40.522   7.434
 4950POPC   NC363719  34.463  38.057   5.162
 4950POPC   PO463720  34.854  37.587   5.480
 4950POPC   GL163721  34.766  37.483   5.871
 4950POPC   GL263722  34.423  37.477   5.933
 4950POPC   C1A63723  34.713  37.734   6.254
 4950POPC   D2A63724  34.443  37.681   6.562
 4950POPC   C3A63725  34.611  37.716   6.931
 4950POPC   C4A63726  34.493  37.663   7.369
 4950POPC   C1B63727  34.237  37.261   6.314
 4950POPC   C2B63728  34.247  37.269   6.784
 4950POPC   C3B63729  34.183  37.261   7.236
 4950POPC   C4B63730  34.297  37.311   7.677
 4951POPC   NC363731  11.789  40.145   5.349
 4951POPC   PO463732  12.457  40.130   5.178
 4951POPC   GL163733  12.304  40.112   5.644
 4951POPC   GL263734  11.982  39.928   5.771
 4951POPC   C1A63735  12.308  40.049   6.116
 4951POPC   D2A63736  12.074  39.844   6.434
 4951POPC   C3A63737  12.004  40.132   6.777
 4951POPC   C4A63738  12.210  40.130   7.167
 4951POPC   C1B63739  11.684  40.043   6.147
 4951POPC   C2B63740  11.576  39.902   6.584
 4951POPC   C3B63741  11.757  39.648   6.910
 4951POPC   C4B63742  11.843  39.796   7.338
 4952POPC   NC363743  23.455  29.051   5.434
 4952POPC   PO463744  22.754  28.847   5.476
 4952POPC   GL163745  22.891  29.140   5.845
 4952POPC   GL263746  23.205  29.385   5.903
 4952POPC   C1A63747  23.020  29.059   6.276
 4952POPC   D2A63748  23.285  29.048   6.644
 4952POPC   C3A63749  23.023  29.024   7.007
 4952POPC   C4A63750  23.120  28.831   7.385
 4952POPC   C1B63751  23.058  29.567   6.332
 4952POPC   C2B63752  23.043  29.487   6.784
 4952POPC   C3B63753  23.038  29.486   7.253
 4952POPC   C4B63754  22.803  29.417   7.623
 4953POPC   NC363755  43.369  14.698   5.263
 4953POPC   PO463756  42.889  14.251   5.300
 4953POPC   GL163757  43.120  14.431   5.650
 4953POPC   GL263758  43.486  14.340   5.644
 4953POPC   C1A63759  43.081  14.479   6.106
 4953POPC   D2A63760  43.186  14.345   6.518
 4953POPC   C3A63761  42.977  14.438   6.909
 4953POPC   C4A63762  43.084  14.352   7.317
 4953POPC   C1B63763  43.487  14.723   5.924
 4953POPC   C2B63764  43.430  14.788   6.360
 4953POPC   C3B63765  43.366  14.772   6.790
 4953POPC   C4B63766  43.507  14.514   7.108
 4954POPC   NC363767  37.053   0.062   5.342
 4954POPC   PO463768  37.089   0.786   5.411
 4954POPC   GL163769  37.005   0.522   5.752
 4954POPC   GL263770  37.234   0.281   5.761
 4954POPC   C1A63771  36.766   0.396   6.131
 4954POPC   D2A63772  36.715   0.210   6.561
 4954POPC   C3A63773  36.812   0.460   6.937
 4954POPC   C4A63774  37.055   0.593   7.309
 4954POPC   C1B63775  37.128   0.005   6.138
 4954POPC   C2B63776  37.060  44.796   6.509
 4954POPC   C3B63777  37.088  44.976   6.883
 4954POPC   C4B63778  37.182   0.115   7.241
 4955POPC   NC363779  16.521  37.809   5.335
 4955POPC   PO463780  17.197  38.084   5.437
 4955POPC   GL163781  16.866  37.846   5.733
 4955POPC   GL263782  17.019  37.580   5.842
 4955POPC   C1A63783  16.612  37.638   6.139
 4955POPC   D2A63784  16.564  37.839   6.556
 4955POPC   C3A63785  16.554  37.660   6.997
 4955POPC   C4A63786  16.717  37.869   7.387
 4955POPC   C1B63787  17.083  37.793   6.238
 4955POPC   C2B63788  17.117  37.909   6.658
 4955POPC   C3B63789  17.126  37.749   7.070
 4955POPC   C4B63790  17.159  37.522   7.471
 4956POPC   NC363791   6.920  12.744   5.340
 4956POPC   PO463792   6.340  12.498   5.530
 4956POPC   GL163793   6.702  12.607   5.794
 4956POPC   GL263794   6.820  12.956   5.790
 4956POPC   C1A63795   6.818  12.499   6.204
 4956POPC   D2A63796   6.660  12.653   6.582
 4956POPC   C3A63797   6.887  12.668   6.925
 4956POPC   C4A63798   6.696  12.712   7.279
 4956POPC   C1B63799   6.689  13.015   6.220
 4956POPC   C2B63800   6.925  13.081   6.615
 4956POPC   C3B63801   6.795  13.143   7.043
 4956POPC   C4B63802   6.914  13.121   7.477
 4957POPC   NC363803  25.072   6.358   5.358
 4957POPC   PO463804  25.253   7.028   5.328
 4957POPC   GL163805  25.047   6.872   5.733
 4957POPC   GL263806  25.079   6.540   5.822
 4957POPC   C1A63807  25.165   6.851   6.214
 4957POPC   D2A63808  25.583   6.811   6.444
 4957POPC   C3A63809  25.587   6.712   6.897
 4957POPC   C4A63810  25.286   6.850   7.232
 4957POPC   C1B63811  25.262   6.332   6.163
 4957POPC   C2B63812  25.106   6.297   6.576
 4957POPC   C3B63813  25.190   6.404   7.001
 4957POPC   C4B63814  24.999   6.345   7.411
 4958POPC   NC363815  21.466  27.023   5.388
 4958POPC   PO463816  21.562  26.372   5.273
 4958POPC   GL163817  21.304  26.581   5.653
 4958POPC   GL263818  21.422  26.905   5.870
 4958POPC   C1A63819  21.286  26.504   6.126
 4958POPC   D2A63820  21.495  26.408   6.512
 4958POPC   C3A63821  21.469  26.622   6.882
 4958POPC   C4A63822  21.379  26.751   7.294
 4958POPC   C1B63823  21.586  26.927   6.326
 4958POPC   C2B63824  21.686  27.087   6.763
 4958POPC   C3B63825  21.413  27.261   7.117
 4958POPC   C4B63826  21.186  27.348   7.529
 4959POPC   NC363827  17.433  30.218   5.083
 4959POPC   PO463828  17.705  29.630   5.313
 4959POPC   GL163829  17.741  29.784   5.761
 4959POPC   GL263830  17.401  29.927   5.876
 4959POPC   C1A63831  17.717  29.785   6.224
 4959POPC   D2A63832  17.445  29.680   6.559
 4959POPC   C3A63833  17.739  29.723   6.860
 4959POPC   C4A63834  17.836  29.769   7.270
 4959POPC   C1B63835  17.375  30.128   6.335
 4959POPC   C2B63836  17.411  30.162   6.787
 4959POPC   C3B63837  17.349  29.916   7.122
 4959POPC   C4B63838  17.403  29.518   7.273
 4960POPC   NC363839  11.407  37.225   5.494
 4960POPC   PO463840  10.973  36.822   5.260
 4960POPC   GL163841  11.174  36.742   5.720
 4960POPC   GL263842  11.153  37.019   5.910
 4960POPC   C1A63843  11.518  36.766   6.101
 4960POPC   D2A63844  11.601  36.971   6.487
 4960POPC   C3A63845  11.611  36.726   6.885
 4960POPC   C4A63846  11.559  36.701   7.333
 4960POPC   C1B63847  11.011  36.950   6.318
 4960POPC   C2B63848  11.153  36.934   6.736
 4960POPC   C3B63849  11.107  36.863   7.150
 4960POPC   C4B63850  11.210  37.066   7.514
 4961POPC   NC363851   8.894  40.898   5.067
 4961POPC   PO463852   9.229  40.527   5.483
 4961POPC   GL163853   8.953  40.673   5.783
 4961POPC   GL263854   8.871  40.989   5.618
 4961POPC   C1A63855   8.825  40.495   6.214
 4961POPC   D2A63856   8.633  40.476   6.650
 4961POPC   C3A63857   8.873  40.573   7.018
 4961POPC   C4A63858   9.137  40.616   7.385
 4961POPC   C1B63859   8.946  41.110   6.070
 4961POPC   C2B63860   8.737  40.970   6.436
 4961POPC   C3B63861   8.735  41.073   6.872
 4961POPC   C4B63862   8.744  40.973   7.300
 4962POPC   NC363863  37.111  24.910   5.572
 4962POPC   PO463864  36.569  25.334   5.537
 4962POPC   GL163865  36.787  25.294   5.891
 4962POPC   GL263866  37.130  25.377   5.868
 4962POPC   C1A63867  36.889  25.534   6.265
 4962POPC   D2A63868  37.157  25.553   6.577
 4962POPC   C3A63869  36.935  25.327   6.833
 4962POPC   C4A63870  36.811  25.327   7.234
 4962POPC   C1B63871  37.071  25.044   6.241
 4962POPC   C2B63872  36.926  24.840   6.638
 4962POPC   C3B63873  37.034  24.887   7.076
 4962POPC   C4B63874  36.877  24.905   7.494
 4963POPC   NC363875  11.684  21.692   5.466
 4963POPC   PO463876  12.201  22.175   5.306
 4963POPC   GL163877  12.141  22.240   5.746
 4963POPC   GL263878  11.998  21.936   5.818
 4963POPC   C1A63879  12.332  22.149   6.152
 4963POPC   D2A63880  12.342  22.375   6.541
 4963POPC   C3A63881  12.231  22.133   6.875
 4963POPC   C4A63882  12.054  22.157   7.276
 4963POPC   C1B63883  11.830  22.071   6.190
 4963POPC   C2B63884  11.819  22.188   6.574
 4963POPC   C3B63885  11.660  22.064   6.951
 4963POPC   C4B63886  11.833  21.727   7.129
 4964POPC   NC363887  39.933   1.520   5.343
 4964POPC   PO463888  40.001   2.103   5.362
 4964POPC   GL163889  39.892   1.858   5.770
 4964POPC   GL263890  39.735   2.141   5.891
 4964POPC   C1A63891  39.901   1.852   6.282
 4964POPC   D2A63892  40.042   1.990   6.724
 4964POPC   C3A63893  40.180   1.758   7.125
 4964POPC   C4A63894  40.462   1.681   7.517
 4964POPC   C1B63895  39.554   2.273   6.278
 4964POPC   C2B63896  39.560   2.147   6.707
 4964POPC   C3B63897  39.700   2.023   7.133
 4964POPC   C4B63898  39.505   2.012   7.560
 4965POPC   NC363899  29.967  25.813   5.426
 4965POPC   PO463900  29.991  26.525   5.405
 4965POPC   GL163901  29.959  26.223   5.822
 4965POPC   GL263902  29.868  25.850   5.921
 4965POPC   C1A63903  30.072  26.153   6.289
 4965POPC   D2A63904  30.090  26.135   6.747
 4965POPC   C3A63905  29.748  26.299   6.973
 4965POPC   C4A63906  29.610  26.031   7.274
 4965POPC   C1B63907  30.173  25.632   6.204
 4965POPC   C2B63908  30.209  25.664   6.625
 4965POPC   C3B63909  29.959  25.669   6.968
 4965POPC   C4B63910  30.040  25.745   7.369
 4966POPC   NC363911  25.093   9.130   5.358
 4966POPC   PO463912  25.438   8.595   5.367
 4966POPC   GL163913  25.128   8.767   5.721
 4966POPC   GL263914  24.916   9.119   5.825
 4966POPC   C1A63915  25.240   8.860   6.132
 4966POPC   D2A63916  25.296   8.972   6.534
 4966POPC   C3A63917  25.331   8.715   6.860
 4966POPC   C4A63918  25.312   8.864   7.273
 4966POPC   C1B63919  24.782   9.042   6.230
 4966POPC   C2B63920  24.746   9.145   6.637
 4966POPC   C3B63921  24.923   9.095   7.033
 4966POPC   C4B63922  24.911   9.075   7.531
 4967POPC   NC363923   3.119  13.620   5.425
 4967POPC   PO463924   2.593  13.399   5.391
 4967POPC   GL163925   2.695  13.610   5.778
 4967POPC   GL263926   2.532  13.953   5.784
 4967POPC   C1A63927   2.703  13.415   6.199
 4967POPC   D2A63928   2.528  13.565   6.589
 4967POPC   C3A63929   2.695  13.315   6.921
 4967POPC   C4A63930   2.941  13.414   7.291
 4967POPC   C1B63931   2.716  13.923   6.204
 4967POPC   C2B63932   2.860  13.990   6.646
 4967POPC   C3B63933   2.663  14.056   7.040
 4967POPC   C4B63934   2.643  14.007   7.492
 4968POPC   NC363935  24.732  39.572   5.350
 4968POPC   PO463936  24.577  38.882   5.311
 4968POPC   GL163937  24.435  39.158   5.685
 4968POPC   GL263938  24.311  38.914   5.892
 4968POPC   C1A63939  24.404  39.332   6.150
 4968POPC   D2A63940  24.475  39.489   6.586
 4968POPC   C3A63941  24.623  39.249   6.928
 4968POPC   C4A63942  24.353  39.419   7.230
 4968POPC   C1B63943  24.216  38.814   6.274
 4968POPC   C2B63944  24.243  39.039   6.622
 4968POPC   C3B63945  24.210  38.946   7.061
 4968POPC   C4B63946  24.012  39.111   7.438
 4969POPC   NC363947  42.003  24.178   5.433
 4969POPC   PO463948  41.492  24.718   5.443
 4969POPC   GL163949  41.503  24.565   5.850
 4969POPC   GL263950  41.761  24.362   5.848
 4969POPC   C1A63951  41.360  24.328   6.204
 4969POPC   D2A63952  41.644  24.371   6.546
 4969POPC   C3A63953  41.453  24.351   6.930
 4969POPC   C4A63954  41.421  24.435   7.340
 4969POPC   C1B63955  41.785  24.055   6.128
 4969POPC   C2B63956  41.749  23.876   6.512
 4969POPC   C3B63957  41.907  24.040   6.862
 4969POPC   C4B63958  41.672  23.967   7.230
 4970POPC   NC363959  30.097  29.911   5.003
 4970POPC   PO463960  29.665  29.631   5.427
 4970POPC   GL163961  29.849  29.882   5.745
 4970POPC   GL263962  29.648  29.707   5.947
 4970POPC   C1A63963  29.850  30.164   6.105
 4970POPC   D2A63964  29.688  30.213   6.510
 4970POPC   C3A63965  29.914  30.156   6.883
 4970POPC   C4A63966  30.065  30.214   7.281
 4970POPC   C1B63967  29.946  29.620   6.235
 4970POPC   C2B63968  30.014  29.691   6.662
 4970POPC   C3B63969  29.925  29.660   7.073
 4970POPC   C4B63970  29.997  29.753   7.460
 4971POPC   NC363971  12.795  30.517   5.410
 4971POPC   PO463972  13.344  31.001   5.403
 4971POPC   GL163973  13.140  30.742   5.751
 4971POPC   GL263974  12.773  30.841   5.821
 4971POPC   C1A63975  12.999  30.435   6.089
 4971POPC   D2A63976  12.857  30.506   6.535
 4971POPC   C3A63977  13.077  30.430   6.943
 4971POPC   C4A63978  12.951  30.513   7.379
 4971POPC   C1B63979  12.963  30.948   6.241
 4971POPC   C2B63980  12.918  31.132   6.661
 4971POPC   C3B63981  12.823  30.916   7.055
 4971POPC   C4B63982  12.627  30.953   7.456
 4972POPC   NC363983  26.278   3.071   5.256
 4972POPC   PO463984  25.885   2.550   5.262
 4972POPC   GL163985  26.129   2.582   5.686
 4972POPC   GL263986  26.091   2.904   5.807
 4972POPC   C1A63987  26.436   2.467   6.084
 4972POPC   D2A63988  26.477   2.324   6.579
 4972POPC   C3A63989  26.318   2.632   6.902
 4972POPC   C4A63990  26.116   2.950   7.148
 4972POPC   C1B63991  25.951   2.594   6.171
 4972POPC   C2B63992  25.879   2.519   6.641
 4972POPC   C3B63993  25.792   2.543   7.108
 4972POPC   C4B63994  25.662   2.498   7.554
 4973POPC   NC363995  44.927  32.987   5.050
 4973POPC   PO463996  44.542  32.809   5.500
 4973POPC   GL163997  44.577  32.871   5.908
 4973POPC   GL263998  44.899  32.908   5.904
 4973POPC   C1A63999  44.583  33.127   6.274
 4973POPC   D2A64000  44.581  33.331   6.682
 4973POPC   C3A64001  44.434  33.083   7.032
 4973POPC   C4A64002  44.472  33.190   7.463
 4973POPC   C1B64003   0.092  32.916   6.262
 4973POPC   C2B64004  44.892  32.847   6.651
 4973POPC   C3B64005  44.926  33.045   7.018
 4973POPC   C4B64006  44.880  32.922   7.432
 4974POPC   NC364007  28.664  29.343   5.398
 4974POPC   PO464008  28.102  29.022   5.541
 4974POPC   GL164009  28.335  29.175   5.820
 4974POPC   GL264010  28.655  29.051   5.849
 4974POPC   C1A64011  28.207  29.069   6.228
 4974POPC   D2A64012  28.299  29.229   6.618
 4974POPC   C3A64013  28.046  29.038   6.923
 4974POPC   C4A64014  28.281  29.211   7.241
 4974POPC   C1B64015  28.680  29.278   6.201
 4974POPC   C2B64016  28.765  29.073   6.583
 4974POPC   C3B64017  28.719  29.307   6.954
 4974POPC   C4B64018  28.760  29.177   7.372
 4975POPC   NC364019  30.845  13.370   5.010
 4975POPC   PO464020  30.680  13.602   5.587
 4975POPC   GL164021  30.560  13.613   5.944
 4975POPC   GL264022  30.426  13.932   5.897
 4975POPC   C1A64023  30.566  13.383   6.298
 4975POPC   D2A64024  30.731  13.568   6.644
 4975POPC   C3A64025  30.568  13.556   7.042
 4975POPC   C4A64026  30.826  13.648   7.400
 4975POPC   C1B64027  30.412  13.886   6.359
 4975POPC   C2B64028  30.330  13.949   6.791
 4975POPC   C3B64029  30.442  14.004   7.231
 4975POPC   C4B64030  30.259  14.064   7.566
 4976POPC   NC364031  26.276  33.500   5.241
 4976POPC   PO464032  25.842  33.993   5.456
 4976POPC   GL164033  26.247  33.905   5.706
 4976POPC   GL264034  26.292  33.555   5.813
 4976POPC   C1A64035  26.409  33.999   6.147
 4976POPC   D2A64036  26.342  33.806   6.575
 4976POPC   C3A64037  26.193  33.990   6.967
 4976POPC   C4A64038  26.536  34.048   7.260
 4976POPC   C1B64039  26.096  33.564   6.201
 4976POPC   C2B64040  25.911  33.525   6.580
 4976POPC   C3B64041  25.978  33.450   6.993
 4976POPC   C4B64042  25.672  33.696   7.112
 4977POPC   NC364043  12.338  31.245   5.399
 4977POPC   PO464044  11.764  31.633   5.355
 4977POPC   GL164045  12.003  31.479   5.696
 4977POPC   GL264046  11.765  31.306   5.855
 4977POPC   C1A64047  12.219  31.446   6.089
 4977POPC   D2A64048  12.235  31.327   6.544
 4977POPC   C3A64049  12.114  31.641   6.828
 4977POPC   C4A64050  12.104  31.551   7.224
 4977POPC   C1B64051  11.812  31.195   6.286
 4977POPC   C2B64052  11.731  31.310   6.717
 4977POPC   C3B64053  11.758  31.172   7.145
 4977POPC   C4B64054  11.563  31.268   7.565
 4978POPC   NC364055  24.686  13.100   5.287
 4978POPC   PO464056  24.103  13.159   5.533
 4978POPC   GL164057  24.433  12.950   5.820
 4978POPC   GL264058  24.836  12.977   5.795
 4978POPC   C1A64059  24.300  12.689   6.194
 4978POPC   D2A64060  24.530  12.539   6.565
 4978POPC   C3A64061  24.377  12.619   6.977
 4978POPC   C4A64062  24.275  13.021   7.166
 4978POPC   C1B64063  24.795  12.828   6.215
 4978POPC   C2B64064  24.712  13.033   6.619
 4978POPC   C3B64065  24.802  12.934   7.060
 4978POPC   C4B64066  24.719  13.143   7.470
 4979POPC   NC364067  19.827  34.651   5.338
 4979POPC   PO464068  20.111  34.033   5.581
 4979POPC   GL164069  20.019  34.433   5.759
 4979POPC   GL264070  19.672  34.343   5.738
 4979POPC   C1A64071  20.027  34.752   6.095
 4979POPC   D2A64072  20.037  34.483   6.440
 4979POPC   C3A64073  19.911  34.449   6.850
 4979POPC   C4A64074  19.956  34.731   7.171
 4979POPC   C1B64075  19.584  34.547   6.056
 4979POPC   C2B64076  19.544  34.676   6.458
 4979POPC   C3B64077  19.482  34.727   6.886
 4979POPC   C4B64078  19.395  34.875   7.271
 4980POPC   NC364079  27.138  33.609   5.519
 4980POPC   PO464080  26.821  34.209   5.489
 4980POPC   GL164081  26.997  34.027   5.840
 4980POPC   GL264082  26.758  33.756   5.831
 4980POPC   C1A64083  26.934  33.899   6.279
 4980POPC   D2A64084  27.161  33.844   6.629
 4980POPC   C3A64085  26.931  33.859   6.988
 4980POPC   C4A64086  27.127  33.798   7.344
 4980POPC   C1B64087  26.632  33.501   6.203
 4980POPC   C2B64088  26.755  33.522   6.641
 4980POPC   C3B64089  26.502  33.548   7.023
 4980POPC   C4B64090  26.646  33.591   7.446
 4981POPC   NC364091  27.287  20.515   5.258
 4981POPC   PO464092  27.798  20.759   5.488
 4981POPC   GL164093  27.520  20.574   5.767
 4981POPC   GL264094  27.755  20.745   5.993
 4981POPC   C1A64095  27.409  20.446   6.186
 4981POPC   D2A64096  27.566  20.703   6.503
 4981POPC   C3A64097  27.697  20.898   6.854
 4981POPC   C4A64098  27.451  20.999   7.236
 4981POPC   C1B64099  27.933  20.453   6.244
 4981POPC   C2B64100  28.043  20.564   6.633
 4981POPC   C3B64101  27.979  20.391   7.013
 4981POPC   C4B64102  27.793  20.631   7.271
 4982POPC   NC364103  20.753   3.724   5.554
 4982POPC   PO464104  20.198   3.392   5.413
 4982POPC   GL164105  20.435   3.395   5.815
 4982POPC   GL264106  20.702   3.131   5.775
 4982POPC   C1A64107  20.470   3.687   6.202
 4982POPC   D2A64108  20.407   3.945   6.588
 4982POPC   C3A64109  20.606   3.779   6.970
 4982POPC   C4A64110  20.401   3.787   7.379
 4982POPC   C1B64111  20.815   3.286   6.208
 4982POPC   C2B64112  20.803   3.318   6.680
 4982POPC   C3B64113  20.794   3.264   7.147
 4982POPC   C4B64114  21.011   3.169   7.559
 4983POPC   NC364115  25.884  29.740   5.660
 4983POPC   PO464116  26.472  29.888   5.378
 4983POPC   GL164117  26.332  30.065   5.776
 4983POPC   GL264118  26.309  29.775   5.942
 4983POPC   C1A64119  26.191  30.187   6.213
 4983POPC   D2A64120  26.237  30.114   6.661
 4983POPC   C3A64121  25.854  29.963   6.848
 4983POPC   C4A64122  25.731  29.881   7.255
 4983POPC   C1B64123  26.123  29.642   6.315
 4983POPC   C2B64124  26.239  29.593   6.717
 4983POPC   C3B64125  26.258  29.747   7.126
 4983POPC   C4B64126  26.063  29.565   7.490
 4984POPC   NC364127  35.183  24.960   5.332
 4984POPC   PO464128  35.234  24.221   5.306
 4984POPC   GL164129  35.313  24.421   5.672
 4984POPC   GL264130  35.106  24.692   5.759
 4984POPC   C1A64131  35.242  24.281   6.105
 4984POPC   D2A64132  35.551  24.342   6.429
 4984POPC   C3A64133  35.423  24.257   6.833
 4984POPC   C4A64134  35.183  24.399   7.154
 4984POPC   C1B64135  35.475  24.745   6.070
 4984POPC   C2B64136  35.635  24.838   6.500
 4984POPC   C3B64137  35.477  24.761   6.912
 4984POPC   C4B64138  35.488  24.852   7.341
 4985POPC   NC364139   4.593  32.096   5.410
 4985POPC   PO464140   3.879  32.202   5.358
 4985POPC   GL164141   4.173  32.224   5.734
 4985POPC   GL264142   4.351  31.946   5.871
 4985POPC   C1A64143   4.294  32.396   6.169
 4985POPC   D2A64144   4.090  32.333   6.597
 4985POPC   C3A64145   4.222  32.279   7.028
 4985POPC   C4A64146   4.036  32.177   7.393
 4985POPC   C1B64147   4.327  31.927   6.334
 4985POPC   C2B64148   4.293  31.863   6.750
 4985POPC   C3B64149   4.590  31.923   7.076
 4985POPC   C4B64150   4.500  31.938   7.504
 4986POPC   NC364151  18.823  30.609   5.517
 4986POPC   PO464152  19.357  31.020   5.576
 4986POPC   GL164153  19.215  30.814   5.952
 4986POPC   GL264154  19.142  30.484   5.948
 4986POPC   C1A64155  19.234  30.743   6.413
 4986POPC   D2A64156  19.083  30.919   6.804
 4986POPC   C3A64157  19.356  30.803   7.103
 4986POPC   C4A64158  19.394  30.376   7.222
 4986POPC   C1B64159  18.824  30.451   6.258
 4986POPC   C2B64160  18.731  30.438   6.688
 4986POPC   C3B64161  18.894  30.517   7.114
 4986POPC   C4B64162  18.705  30.547   7.541
 4987POPC   NC364163  41.724  12.655   5.405
 4987POPC   PO464164  41.073  12.895   5.247
 4987POPC   GL164165  41.135  12.912   5.790
 4987POPC   GL264166  41.107  12.595   6.008
 4987POPC   C1A64167  41.548  12.828   6.111
 4987POPC   D2A64168  41.740  12.584   6.480
 4987POPC   C3A64169  41.840  12.766   6.892
 4987POPC   C4A64170  41.734  12.605   7.301
 4987POPC   C1B64171  41.107  12.974   6.313
 4987POPC   C2B64172  41.389  12.921   6.665
 4987POPC   C3B64173  41.414  12.970   7.102
 4987POPC   C4B64174  41.097  13.151   7.321
 4988POPC   NC364175  39.871  42.964   5.433
 4988POPC   PO464176  40.230  43.542   5.396
 4988POPC   GL164177  40.049  43.481   5.831
 4988POPC   GL264178  39.915  43.135   5.913
 4988POPC   C1A64179  40.157  43.377   6.276
 4988POPC   D2A64180  40.149  43.003   6.551
 4988POPC   C3A64181  40.223  43.126   6.987
 4988POPC   C4A64182  40.109  43.272   7.400
 4988POPC   C1B64183  39.902  42.722   6.141
 4988POPC   C2B64184  39.735  42.533   6.517
 4988POPC   C3B64185  39.860  42.721   6.884
 4988POPC   C4B64186  39.740  43.008   7.163
 4989POPC   NC364187  12.576   7.193   5.317
 4989POPC   PO464188  13.256   7.426   5.318
 4989POPC   GL164189  12.973   7.238   5.669
 4989POPC   GL264190  12.723   7.497   5.747
 4989POPC   C1A64191  12.944   7.301   6.167
 4989POPC   D2A64192  13.050   7.598   6.513
 4989POPC   C3A64193  13.159   7.524   6.950
 4989POPC   C4A64194  12.866   7.478   7.328
 4989POPC   C1B64195  12.456   7.403   6.152
 4989POPC   C2B64196  12.589   7.342   6.603
 4989POPC   C3B64197  12.508   7.258   7.039
 4989POPC   C4B64198  12.418   7.254   7.497
 4990POPC   NC364199  19.191  41.255   5.518
 4990POPC   PO464200  18.831  41.793   5.191
 4990POPC   GL164201  18.842  41.674   5.681
 4990POPC   GL264202  18.779  41.308   5.784
 4990POPC   C1A64203  19.014  41.825   6.119
 4990POPC   D2A64204  19.209  41.688   6.557
 4990POPC   C3A64205  19.047  41.864   6.976
 4990POPC   C4A64206  19.113  41.716   7.404
 4990POPC   C1B64207  19.013  41.312   6.198
 4990POPC   C2B64208  19.187  41.152   6.571
 4990POPC   C3B64209  18.982  41.303   6.897
 4990POPC   C4B64210  18.986  41.232   7.308
 4991POPC   NC364211  17.950  32.964   5.568
 4991POPC   PO464212  17.417  32.798   5.590
 4991POPC   GL164213  17.693  32.764   5.973
 4991POPC   GL264214  18.071  32.651   5.946
 4991POPC   C1A64215  17.629  32.969   6.391
 4991POPC   D2A64216  17.823  33.229   6.719
 4991POPC   C3A64217  17.748  33.074   7.134
 4991POPC   C4A64218  17.662  33.314   7.487
 4991POPC   C1B64219  18.117  32.860   6.347
 4991POPC   C2B64220  17.989  32.748   6.785
 4991POPC   C3B64221  18.084  32.688   7.216
 4991POPC   C4B64222  18.041  32.359   7.506
 4992POPC   NC364223  37.466  10.932   5.425
 4992POPC   PO464224  37.646  10.326   5.507
 4992POPC   GL164225  37.691  10.620   5.801
 4992POPC   GL264226  37.332  10.630   5.811
 4992POPC   C1A64227  37.857  10.537   6.215
 4992POPC   D2A64228  38.031  10.671   6.597
 4992POPC   C3A64229  37.902  10.452   6.946
 4992POPC   C4A64230  37.887  10.308   7.348
 4992POPC   C1B64231  37.370  10.356   6.165
 4992POPC   C2B64232  37.514  10.329   6.595
 4992POPC   C3B64233  37.365  10.497   6.982
 4992POPC   C4B64234  37.395  10.417   7.416
 4993POPC   NC364235   7.693  11.329   5.436
 4993POPC   PO464236   7.306  11.814   5.735
 4993POPC   GL164237   7.487  11.475   5.899
 4993POPC   GL264238   7.238  11.246   5.812
 4993POPC   C1A64239   7.406  11.273   6.291
 4993POPC   D2A64240   7.635  11.124   6.610
 4993POPC   C3A64241   7.509  11.341   6.942
 4993POPC   C4A64242   7.745  11.367   7.285
 4993POPC   C1B64243   7.087  10.921   6.105
 4993POPC   C2B64244   7.162  10.865   6.535
 4993POPC   C3B64245   7.021  11.020   6.930
 4993POPC   C4B64246   7.257  11.030   7.287
 4994POPC   NC364247  11.286  35.446   5.464
 4994POPC   PO464248  10.734  35.160   5.189
 4994POPC   GL164249  11.019  35.062   5.702
 4994POPC   GL264250  11.310  35.261   5.915
 4994POPC   C1A64251  10.932  35.157   6.206
 4994POPC   D2A64252  11.208  35.141   6.580
 4994POPC   C3A64253  11.060  35.272   6.968
 4994POPC   C4A64254  11.238  35.278   7.348
 4994POPC   C1B64255  11.266  35.572   6.260
 4994POPC   C2B64256  11.431  35.592   6.692
 4994POPC   C3B64257  11.634  35.429   7.095
 4994POPC   C4B64258  11.603  35.516   7.590
 4995POPC   NC364259  12.361  21.706   5.334
 4995POPC   PO464260  11.860  21.244   5.438
 4995POPC   GL164261  11.881  21.433   5.849
 4995POPC   GL264262  12.238  21.495   5.801
 4995POPC   C1A64263  11.966  21.611   6.241
 4995POPC   D2A64264  12.057  21.680   6.652
 4995POPC   C3A64265  11.793  21.364   6.787
 4995POPC   C4A64266  11.765  21.230   7.207
 4995POPC   C1B64267  12.355  21.321   6.206
 4995POPC   C2B64268  12.258  21.157   6.627
 4995POPC   C3B64269  12.256  21.285   7.041
 4995POPC   C4B64270  12.324  21.705   7.151
 4996POPC   NC364271  43.650  20.689   5.187
 4996POPC   PO464272  44.182  20.380   5.430
 4996POPC   GL164273  43.953  20.631   5.735
 4996POPC   GL264274  43.585  20.565   5.745
 4996POPC   C1A64275  43.887  20.789   6.170
 4996POPC   D2A64276  43.749  20.734   6.613
 4996POPC   C3A64277  44.061  20.791   6.943
 4996POPC   C4A64278  44.238  21.146   7.138
 4996POPC   C1B64279  43.459  20.487   6.209
 4996POPC   C2B64280  43.426  20.300   6.649
 4996POPC   C3B64281  43.628  20.470   7.050
 4996POPC   C4B64282  43.637  20.925   7.204
 4997POPC   NC364283  28.241  23.540   5.708
 4997POPC   PO464284  28.070  23.960   5.169
 4997POPC   GL164285  28.407  24.135   5.659
 4997POPC   GL264286  28.583  23.890   5.849
 4997POPC   C1A64287  28.284  24.037   6.227
 4997POPC   D2A64288  28.070  23.696   6.524
 4997POPC   C3A64289  28.028  23.760   7.017
 4997POPC   C4A64290  28.301  23.795   7.390
 4997POPC   C1B64291  28.613  23.683   6.282
 4997POPC   C2B64292  28.528  23.832   6.708
 4997POPC   C3B64293  28.459  23.514   6.980
 4997POPC   C4B64294  28.326  23.305   7.322
 4998POPC   NC364295   5.549  32.049   5.103
 4998POPC   PO464296   5.019  32.269   5.474
 4998POPC   GL164297   5.117  32.118   5.871
 4998POPC   GL264298   5.214  32.433   6.057
 4998POPC   C1A64299   5.266  31.934   6.250
 4998POPC   D2A64300   5.389  32.240   6.537
 4998POPC   C3A64301   5.101  32.160   6.840
 4998POPC   C4A64302   5.079  32.041   7.278
 4998POPC   C1B64303   4.829  32.251   6.280
 4998POPC   C2B64304   4.612  32.261   6.668
 4998POPC   C3B64305   4.737  32.405   7.085
 4998POPC   C4B64306   4.771  32.342   7.529
 4999POPC   NC364307   7.610  18.748   5.558
 4999POPC   PO464308   7.449  19.436   5.537
 4999POPC   GL164309   7.498  19.141   5.867
 4999POPC   GL264310   7.288  19.346   6.035
 4999POPC   C1A64311   7.599  19.019   6.298
 4999POPC   D2A64312   7.525  19.088   6.758
 4999POPC   C3A64313   7.580  18.733   7.015
 4999POPC   C4A64314   7.485  18.559   7.428
 4999POPC   C1B64315   7.309  19.432   6.439
 4999POPC   C2B64316   7.013  19.449   6.769
 4999POPC   C3B64317   7.120  19.207   7.119
 4999POPC   C4B64318   7.475  19.144   7.301
 5000POPC   NC364319  13.690  23.496   5.407
 5000POPC   PO464320  13.544  24.003   5.749
 5000POPC   GL164321  13.586  23.604   5.919
 5000POPC   GL264322  13.920  23.469   5.879
 5000POPC   C1A64323  13.533  23.660   6.350
 5000POPC   D2A64324  13.207  23.655   6.659
 5000POPC   C3A64325  13.574  23.754   6.890
 5000POPC   C4A64326  13.745  23.800   7.264
 5000POPC   C1B64327  13.865  23.268   6.267
 5000POPC   C2B64328  13.958  23.393   6.689
 5000POPC   C3B64329  13.843  23.342   7.117
 5000POPC   C4B64330  13.792  23.327   7.558
 5001POPC   NC364331  23.991  44.395   5.446
 5001POPC   PO464332  23.375  44.693   5.510
 5001POPC   GL164333  23.560  44.403   5.821
 5001POPC   GL264334  23.891  44.501   5.931
 5001POPC   C1A64335  23.556  44.302   6.275
 5001POPC   D2A64336  23.503  44.608   6.616
 5001POPC   C3A64337  23.493  44.435   6.978
 5001POPC   C4A64338  23.551  44.699   7.294
 5001POPC   C1B64339  23.809  44.791   6.241
 5001POPC   C2B64340  23.946  44.967   6.598
 5001POPC   C3B64341  23.907  44.854   6.987
 5001POPC   C4B64342  23.965   0.069   7.390
 5002POPC   NC364343  40.732  42.538   5.428
 5002POPC   PO464344  41.176  42.009   5.499
 5002POPC   GL164345  41.030  42.289   5.775
 5002POPC   GL264346  40.719  42.150   5.776
 5002POPC   C1A64347  40.857  42.475   6.144
 5002POPC   D2A64348  40.734  42.322   6.537
 5002POPC   C3A64349  40.829  42.468   6.952
 5002POPC   C4A64350  40.879  42.399   7.408
 5002POPC   C1B64351  40.649  41.949   6.177
 5002POPC   C2B64352  40.367  41.965   6.530
 5002POPC   C3B64353  40.410  42.136   6.932
 5002POPC   C4B64354  40.390  42.271   7.377
 5003POPC   NC364355   6.894  21.207   5.447
 5003POPC   PO464356   6.317  21.601   5.502
 5003POPC   GL164357   6.532  21.349   5.815
 5003POPC   GL264358   6.914  21.355   5.919
 5003POPC   C1A64359   6.440  21.302   6.252
 5003POPC   D2A64360   6.562  21.128   6.638
 5003POPC   C3A64361   6.589  21.395   6.991
 5003POPC   C4A64362   6.329  21.735   7.126
 5003POPC   C1B64363   6.932  21.106   6.283
 5003POPC   C2B64364   7.011  21.377   6.663
 5003POPC   C3B64365   7.103  21.479   7.084
 5003POPC   C4B64366   6.910  21.192   7.344
 5004POPC   NC364367  25.195  37.921   5.232
 5004POPC   PO464368  24.869  37.505   5.712
 5004POPC   GL164369  25.192  37.578   5.987
 5004POPC   GL264370  25.484  37.661   5.861
 5004POPC   C1A64371  25.141  37.652   6.391
 5004POPC   D2A64372  24.837  37.526   6.641
 5004POPC   C3A64373  25.044  37.700   7.025
 5004POPC   C4A64374  25.142  37.620   7.479
 5004POPC   C1B64375  25.640  37.674   6.286
 5004POPC   C2B64376  25.580  37.597   6.748
 5004POPC   C3B64377  25.568  37.691   7.210
 5004POPC   C4B64378  25.498  37.950   7.604
 5005POPC   NC364379  31.723   2.099   5.001
 5005POPC   PO464380  31.087   2.199   5.186
 5005POPC   GL164381  31.251   2.056   5.668
 5005POPC   GL264382  31.084   1.895   5.939
 5005POPC   C1A64383  31.590   2.003   6.051
 5005POPC   D2A64384  31.912   2.044   6.378
 5005POPC   C3A64385  31.851   2.045   6.837
 5005POPC   C4A64386  31.777   1.707   7.142
 5005POPC   C1B64387  31.196   2.261   6.216
 5005POPC   C2B64388  31.429   2.110   6.559
 5005POPC   C3B64389  31.321   1.889   6.931
 5005POPC   C4B64390  30.989   2.081   7.165
 5006POPC   NC364391   5.035  35.032   5.546
 5006POPC   PO464392   5.340  35.674   5.427
 5006POPC   GL164393   5.164  35.509   5.834
 5006POPC   GL264394   4.905  35.291   5.955
 5006POPC   C1A64395   5.336  35.308   6.232
 5006POPC   D2A64396   5.528  35.237   6.641
 5006POPC   C3A64397   5.371  35.514   7.017
 5006POPC   C4A64398   5.183  35.581   7.465
 5006POPC   C1B64399   4.856  35.552   6.308
 5006POPC   C2B64400   4.670  35.651   6.723
 5006POPC   C3B64401   4.815  35.482   7.112
 5006POPC   C4B64402   4.796  35.260   7.515
 5007POPC   NC364403  37.698  13.929   5.043
 5007POPC   PO464404  37.916  13.577   5.551
 5007POPC   GL164405  37.733  13.821   5.837
 5007POPC   GL264406  37.980  14.065   5.875
 5007POPC   C1A64407  37.647  13.569   6.203
 5007POPC   D2A64408  37.332  13.381   6.439
 5007POPC   C3A64409  37.455  13.345   6.862
 5007POPC   C4A64410  37.454  13.510   7.270
 5007POPC   C1B64411  38.114  13.783   6.194
 5007POPC   C2B64412  37.967  13.702   6.599
 5007POPC   C3B64413  37.842  13.676   6.999
 5007POPC   C4B64414  37.986  13.558   7.415
 5008POPC   NC364415   0.149  31.826   5.366
 5008POPC   PO464416   0.466  31.309   5.153
 5008POPC   GL164417   0.419  31.485   5.648
 5008POPC   GL264418   0.090  31.589   5.825
 5008POPC   C1A64419   0.523  31.664   6.095
 5008POPC   D2A64420   0.672  31.530   6.514
 5008POPC   C3A64421   0.422  31.496   6.864
 5008POPC   C4A64422   0.352  31.719   7.242
 5008POPC   C1B64423   0.162  31.305   6.200
 5008POPC   C2B64424   0.031  31.213   6.637
 5008POPC   C3B64425   0.209  31.071   7.034
 5008POPC   C4B64426   0.574  31.172   7.259
 5009POPC   NC364427  40.218  30.145   5.375
 5009POPC   PO464428  39.906  29.607   5.568
 5009POPC   GL164429  40.189  29.695   5.904
 5009POPC   GL264430  40.411  30.000   5.838
 5009POPC   C1A64431  40.203  29.549   6.342
 5009POPC   D2A64432  40.270  29.676   6.776
 5009POPC   C3A64433  40.026  29.528   7.128
 5009POPC   C4A64434  39.923  29.766   7.486
 5009POPC   C1B64435  40.284  30.058   6.272
 5009POPC   C2B64436  40.046  30.111   6.660
 5009POPC   C3B64437  40.124  30.049   7.114
 5009POPC   C4B64438  40.319  30.080   7.555
 5010POPC   NC364439  13.759  13.741   5.573
 5010POPC   PO464440  13.669  13.058   5.579
 5010POPC   GL164441  13.792  13.320   5.901
 5010POPC   GL264442  13.468  13.468   5.886
 5010POPC   C1A64443  13.838  13.424   6.358
 5010POPC   D2A64444  13.859  13.329   6.822
 5010POPC   C3A64445  13.798  13.642   7.125
 5010POPC   C4A64446  13.914  13.814   7.504
 5010POPC   C1B64447  13.436  13.742   6.241
 5010POPC   C2B64448  13.479  13.659   6.662
 5010POPC   C3B64449  13.316  13.730   7.032
 5010POPC   C4B64450  13.513  14.076   7.214
 5011POPC   NC364451  26.958  10.888   5.396
 5011POPC   PO464452  26.687  11.539   5.253
 5011POPC   GL164453  26.778  11.307   5.708
 5011POPC   GL264454  27.132  11.305   5.809
 5011POPC   C1A64455  26.834  11.228   6.217
 5011POPC   D2A64456  26.706  11.014   6.652
 5011POPC   C3A64457  26.797  11.205   7.057
 5011POPC   C4A64458  26.580  11.399   7.407
 5011POPC   C1B64459  27.241  11.558   6.188
 5011POPC   C2B64460  27.106  11.632   6.615
 5011POPC   C3B64461  27.268  11.604   7.034
 5011POPC   C4B64462  27.090  11.419   7.433
 5012POPC   NC364463  35.867  17.642   5.302
 5012POPC   PO464464  36.495  17.894   5.502
 5012POPC   GL164465  36.068  17.855   5.754
 5012POPC   GL264466  35.885  17.508   5.786
 5012POPC   C1A64467  36.045  17.787   6.195
 5012POPC   D2A64468  36.215  17.503   6.515
 5012POPC   C3A64469  36.209  17.622   6.961
 5012POPC   C4A64470  36.264  17.644   7.424
 5012POPC   C1B64471  35.594  17.541   6.116
 5012POPC   C2B64472  35.702  17.523   6.530
 5012POPC   C3B64473  35.864  17.247   6.825
 5012POPC   C4B64474  35.938  17.293   7.251
 5013POPC   NC364475  19.249  13.386   5.457
 5013POPC   PO464476  18.867  14.008   5.496
 5013POPC   GL164477  18.922  13.692   5.750
 5013POPC   GL264478  19.274  13.812   5.816
 5013POPC   C1A64479  18.803  13.719   6.159
 5013POPC   D2A64480  19.043  13.545   6.502
 5013POPC   C3A64481  18.969  13.654   6.933
 5013POPC   C4A64482  18.893  13.698   7.364
 5013POPC   C1B64483  19.248  13.960   6.256
 5013POPC   C2B64484  19.365  13.903   6.712
 5013POPC   C3B64485  19.495  14.050   7.144
 5013POPC   C4B64486  19.242  14.021   7.547
 5014POPC   NC364487  31.975  38.275   5.506
 5014POPC   PO464488  31.357  38.304   5.256
 5014POPC   GL164489  31.455  38.272   5.736
 5014POPC   GL264490  31.167  38.134   5.987
 5014POPC   C1A64491  31.561  38.369   6.181
 5014POPC   D2A64492  31.376  38.206   6.569
 5014POPC   C3A64493  31.358  38.278   7.016
 5014POPC   C4A64494  31.615  38.648   7.070
 5014POPC   C1B64495  31.077  38.487   6.268
 5014POPC   C2B64496  31.156  38.653   6.721
 5014POPC   C3B64497  31.130  38.704   7.202
 5014POPC   C4B64498  31.178  38.494   7.625
 5015POPC   NC364499  19.139  40.251   5.553
 5015POPC   PO464500  19.017  40.866   5.341
 5015POPC   GL164501  18.964  40.704   5.750
 5015POPC   GL264502  19.182  40.916   5.937
 5015POPC   C1A64503  18.765  40.632   6.163
 5015POPC   D2A64504  18.793  40.843   6.559
 5015POPC   C3A64505  18.842  40.816   6.991
 5015POPC   C4A64506  18.684  40.574   7.287
 5015POPC   C1B64507  19.240  40.653   6.329
 5015POPC   C2B64508  19.265  40.667   6.779
 5015POPC   C3B64509  19.407  40.998   7.061
 5015POPC   C4B64510  19.409  41.059   7.521
 5016POPC   NC364511   2.459  33.976   5.368
 5016POPC   PO464512   2.894  33.569   5.433
 5016POPC   GL164513   2.617  33.716   5.788
 5016POPC   GL264514   2.610  34.111   5.835
 5016POPC   C1A64515   2.446  33.796   6.220
 5016POPC   D2A64516   2.572  33.856   6.672
 5016POPC   C3A64517   2.963  33.627   6.808
 5016POPC   C4A64518   2.947  33.369   7.177
 5016POPC   C1B64519   2.895  34.091   6.192
 5016POPC   C2B64520   3.064  34.088   6.596
 5016POPC   C3B64521   2.900  34.150   7.000
 5016POPC   C4B64522   2.711  33.825   7.207
 5017POPC   NC364523  32.252  15.120   5.342
 5017POPC   PO464524  32.926  15.280   5.449
 5017POPC   GL164525  32.593  15.296   5.787
 5017POPC   GL264526  32.334  15.040   5.869
 5017POPC   C1A64527  32.446  15.374   6.232
 5017POPC   D2A64528  32.218  15.502   6.631
 5017POPC   C3A64529  32.377  15.396   7.043
 5017POPC   C4A64530  32.428  14.988   7.230
 5017POPC   C1B64531  32.206  14.813   6.277
 5017POPC   C2B64532  32.155  14.753   6.739
 5017POPC   C3B64533  31.966  15.032   7.023
 5017POPC   C4B64534  31.973  14.843   7.407
 5018POPC   NC364535   9.867  11.744   5.608
 5018POPC   PO464536   9.580  11.247   5.288
 5018POPC   GL164537   9.759  11.271   5.719
 5018POPC   GL264538   9.522  11.510   5.889
 5018POPC   C1A64539   9.849  11.207   6.148
 5018POPC   D2A64540   9.575  11.149   6.502
 5018POPC   C3A64541   9.810  11.149   6.849
 5018POPC   C4A64542   9.932  11.320   7.227
 5018POPC   C1B64543   9.523  11.622   6.280
 5018POPC   C2B64544   9.416  11.642   6.689
 5018POPC   C3B64545   9.494  11.499   7.066
 5018POPC   C4B64546   9.427  11.701   7.418
 5019POPC   NC364547  10.743  41.730   5.544
 5019POPC   PO464548  10.136  42.148   5.508
 5019POPC   GL164549  10.347  41.859   5.867
 5019POPC   GL264550  10.651  41.980   5.997
 5019POPC   C1A64551  10.602  41.500   6.156
 5019POPC   D2A64552  10.672  41.121   6.404
 5019POPC   C3A64553  10.485  41.204   6.805
 5019POPC   C4A64554  10.596  41.425   7.177
 5019POPC   C1B64555  10.391  41.899   6.368
 5019POPC   C2B64556  10.562  41.689   6.695
 5019POPC   C3B64557  10.715  41.891   7.031
 5019POPC   C4B64558  10.418  42.181   7.200
 5020POPC   NC364559   1.893  38.490   5.538
 5020POPC   PO464560   1.699  37.846   5.703
 5020POPC   GL164561   1.688  38.256   5.950
 5020POPC   GL264562   2.059  38.416   6.000
 5020POPC   C1A64563   1.696  38.597   6.284
 5020POPC   D2A64564   2.124  38.617   6.468
 5020POPC   C3A64565   2.140  38.572   6.885
 5020POPC   C4A64566   1.776  38.645   7.135
 5020POPC   C1B64567   2.472  38.351   6.235
 5020POPC   C2B64568   2.626  38.250   6.639
 5020POPC   C3B64569   2.427  38.079   7.019
 5020POPC   C4B64570   1.988  38.162   7.153
 5021POPC   NC364571  35.073   6.744   5.534
 5021POPC   PO464572  35.567   6.328   5.381
 5021POPC   GL164573  35.561   6.565   5.743
 5021POPC   GL264574  35.282   6.341   5.846
 5021POPC   C1A64575  35.479   6.650   6.178
 5021POPC   D2A64576  35.244   6.564   6.539
 5021POPC   C3A64577  35.241   6.883   6.825
 5021POPC   C4A64578  35.398   6.836   7.197
 5021POPC   C1B64579  35.402   6.136   6.248
 5021POPC   C2B64580  35.631   6.219   6.585
 5021POPC   C3B64581  35.515   6.375   6.950
 5021POPC   C4B64582  35.351   6.353   7.364
 5022POPC   NC364583  10.735  25.550   5.329
 5022POPC   PO464584  10.439  25.010   5.168
 5022POPC   GL164585  10.318  25.222   5.575
 5022POPC   GL264586  10.665  25.258   5.750
 5022POPC   C1A64587  10.249  25.198   6.058
 5022POPC   D2A64588  10.543  25.083   6.407
 5022POPC   C3A64589  10.524  25.158   6.857
 5022POPC   C4A64590  10.294  25.074   7.218
 5022POPC   C1B64591  10.716  25.493   6.147
 5022POPC   C2B64592  10.923  25.437   6.565
 5022POPC   C3B64593  10.785  25.612   6.971
 5022POPC   C4B64594  10.657  25.427   7.348
 5023POPC   NC364595  11.797  40.962   5.301
 5023POPC   PO464596  12.411  40.719   5.390
 5023POPC   GL164597  12.041  40.566   5.586
 5023POPC   GL264598  12.033  40.858   5.764
 5023POPC   C1A64599  11.983  40.423   6.003
 5023POPC   D2A64600  12.043  40.569   6.431
 5023POPC   C3A64601  11.830  40.620   6.850
 5023POPC   C4A64602  12.005  40.594   7.261
 5023POPC   C1B64603  11.779  41.036   6.083
 5023POPC   C2B64604  11.674  40.949   6.487
 5023POPC   C3B64605  11.622  41.122   6.864
 5023POPC   C4B64606  11.669  41.045   7.284
 5024POPC   NC364607  44.668  28.577   5.174
 5024POPC   PO464608  44.733  29.181   5.347
 5024POPC   GL164609  44.751  29.290   5.826
 5024POPC   GL264610  44.426  29.435   5.973
 5024POPC   C1A64611  44.624  29.046   6.225
 5024POPC   D2A64612  44.716  29.160   6.652
 5024POPC   C3A64613  44.829  28.953   7.036
 5024POPC   C4A64614  44.579  29.097   7.406
 5024POPC   C1B64615  44.747  29.537   6.284
 5024POPC   C2B64616  44.747  29.737   6.678
 5024POPC   C3B64617  44.759  29.487   7.061
 5024POPC   C4B64618  44.406  29.541   7.263
 5025POPC   NC364619  36.598  34.668   5.304
 5025POPC   PO464620  36.933  34.125   5.354
 5025POPC   GL164621  37.114  34.310   5.712
 5025POPC   GL264622  36.867  34.559   5.771
 5025POPC   C1A64623  37.157  34.294   6.148
 5025POPC   D2A64624  37.182  34.549   6.509
 5025POPC   C3A64625  37.067  34.387   6.907
 5025POPC   C4A64626  37.074  34.722   7.206
 5025POPC   C1B64627  36.645  34.413   6.151
 5025POPC   C2B64628  36.669  34.452   6.607
 5025POPC   C3B64629  36.608  34.658   7.004
 5025POPC   C4B64630  36.607  34.711   7.454
 5026POPC   NC364631  33.326  24.703   5.356
 5026POPC   PO464632  32.917  24.115   5.230
 5026POPC   GL164633  33.017  24.372   5.650
 5026POPC   GL264634  33.326  24.465   5.824
 5026POPC   C1A64635  32.850  24.393   6.104
 5026POPC   D2A64636  32.658  24.386   6.529
 5026POPC   C3A64637  32.902  24.556   6.887
 5026POPC   C4A64638  33.097  24.655   7.286
 5026POPC   C1B64639  33.255  24.718   6.223
 5026POPC   C2B64640  33.349  24.751   6.673
 5026POPC   C3B64641  33.428  24.401   6.973
 5026POPC   C4B64642  33.596  24.411   7.378
 5027POPC   NC364643  10.136   6.912   5.144
 5027POPC   PO464644  10.634   6.425   5.159
 5027POPC   GL164645  10.634   6.529   5.648
 5027POPC   GL264646  10.974   6.579   5.825
 5027POPC   C1A64647  10.445   6.553   6.105
 5027POPC   D2A64648  10.237   6.601   6.525
 5027POPC   C3A64649  10.390   6.480   6.952
 5027POPC   C4A64650  10.540   6.775   7.257
 5027POPC   C1B64651  10.895   6.623   6.289
 5027POPC   C2B64652  10.793   6.686   6.715
 5027POPC   C3B64653  10.972   6.581   7.106
 5027POPC   C4B64654  10.898   6.532   7.544
 5028POPC   NC364655  21.777   5.657   5.665
 5028POPC   PO464656  21.205   5.765   5.352
 5028POPC   GL164657  21.324   5.819   5.820
 5028POPC   GL264658  21.606   6.060   5.908
 5028POPC   C1A64659  21.510   5.697   6.258
 5028POPC   D2A64660  21.567   5.862   6.673
 5028POPC   C3A64661  21.406   5.741   7.091
 5028POPC   C4A64662  21.232   5.981   7.458
 5028POPC   C1B64663  21.713   6.252   6.295
 5028POPC   C2B64664  21.815   6.302   6.732
 5028POPC   C3B64665  21.610   6.221   7.103
 5028POPC   C4B64666  21.721   6.232   7.521
 5029POPC   NC364667  32.856  37.875   5.253
 5029POPC   PO464668  33.405  37.412   5.400
 5029POPC   GL164669  33.225  37.577   5.794
 5029POPC   GL264670  32.966  37.819   5.754
 5029POPC   C1A64671  33.266  37.650   6.247
 5029POPC   D2A64672  33.002  37.660   6.614
 5029POPC   C3A64673  33.078  37.599   7.033
 5029POPC   C4A64674  33.026  37.896   7.371
 5029POPC   C1B64675  32.744  37.670   6.127
 5029POPC   C2B64676  32.497  37.567   6.488
 5029POPC   C3B64677  32.594  37.380   6.890
 5029POPC   C4B64678  32.663  37.538   7.315
 5030POPC   NC364679  12.965  37.173   5.496
 5030POPC   PO464680  12.744  36.640   5.399
 5030POPC   GL164681  12.675  36.835   5.789
 5030POPC   GL264682  13.050  36.808   5.852
 5030POPC   C1A64683  12.522  36.755   6.232
 5030POPC   D2A64684  12.693  36.855   6.664
 5030POPC   C3A64685  12.461  37.115   6.967
 5030POPC   C4A64686  12.455  37.041   7.416
 5030POPC   C1B64687  12.906  37.093   6.178
 5030POPC   C2B64688  13.073  37.177   6.566
 5030POPC   C3B64689  13.172  36.839   6.881
 5030POPC   C4B64690  12.866  36.827   7.198
 5031POPC   NC364691   6.907   1.299   5.439
 5031POPC   PO464692   6.211   1.141   5.460
 5031POPC   GL164693   6.517   1.242   5.792
 5031POPC   GL264694   6.729   0.949   5.783
 5031POPC   C1A64695   6.684   1.427   6.197
 5031POPC   D2A64696   6.495   1.580   6.600
 5031POPC   C3A64697   6.575   1.407   7.013
 5031POPC   C4A64698   6.244   1.173   7.235
 5031POPC   C1B64699   6.570   0.926   6.224
 5031POPC   C2B64700   6.760   1.082   6.635
 5031POPC   C3B64701   6.773   0.877   7.080
 5031POPC   C4B64702   6.954   0.728   7.517
 5032POPC   NC364703  22.740  24.961   5.433
 5032POPC   PO464704  23.154  24.369   5.546
 5032POPC   GL164705  22.957  24.652   5.825
 5032POPC   GL264706  22.642  24.474   5.839
 5032POPC   C1A64707  22.835  24.688   6.267
 5032POPC   D2A64708  22.873  24.456   6.661
 5032POPC   C3A64709  22.814  24.640   7.071
 5032POPC   C4A64710  23.182  24.402   7.141
 5032POPC   C1B64711  22.630  24.180   6.214
 5032POPC   C2B64712  22.643  23.994   6.647
 5032POPC   C3B64713  22.738  24.130   7.099
 5032POPC   C4B64714  22.634  24.347   7.496
 5033POPC   NC364715  39.012  34.609   5.505
 5033POPC   PO464716  39.566  34.957   5.497
 5033POPC   GL164717  39.490  34.577   5.733
 5033POPC   GL264718  39.234  34.727   5.939
 5033POPC   C1A64719  39.447  34.313   6.123
 5033POPC   D2A64720  39.299  34.610   6.452
 5033POPC   C3A64721  39.260  34.532   6.884
 5033POPC   C4A64722  39.368  34.740   7.275
 5033POPC   C1B64723  38.904  34.864   6.239
 5033POPC   C2B64724  38.862  34.834   6.722
 5033POPC   C3B64725  38.778  34.861   7.193
 5033POPC   C4B64726  38.834  34.528   7.523
 5034POPC   NC364727  15.516   5.684   5.276
 5034POPC   PO464728  16.144   5.535   5.367
 5034POPC   GL164729  15.826   5.645   5.715
 5034POPC   GL264730  15.567   5.385   5.721
 5034POPC   C1A64731  15.845   5.873   6.145
 5034POPC   D2A64732  16.105   5.893   6.559
 5034POPC   C3A64733  16.025   6.049   6.998
 5034POPC   C4A64734  15.772   6.172   7.361
 5034POPC   C1B64735  15.745   5.366   6.148
 5034POPC   C2B64736  15.692   5.578   6.542
 5034POPC   C3B64737  15.833   5.575   6.944
 5034POPC   C4B64738  15.849   5.265   7.186
 5035POPC   NC364739   7.968  40.972   5.417
 5035POPC   PO464740   8.567  40.696   5.325
 5035POPC   GL164741   8.317  40.785   5.734
 5035POPC   GL264742   8.510  40.886   5.958
 5035POPC   C1A64743   7.956  40.908   6.091
 5035POPC   D2A64744   7.768  40.741   6.530
 5035POPC   C3A64745   7.899  40.835   6.984
 5035POPC   C4A64746   7.929  40.941   7.454
 5035POPC   C1B64747   8.341  40.677   6.285
 5035POPC   C2B64748   8.289  40.860   6.668
 5035POPC   C3B64749   8.383  40.688   7.066
 5035POPC   C4B64750   8.438  40.596   7.501
 5036POPC   NC364751  34.533  18.912   5.421
 5036POPC   PO464752  34.605  19.590   5.443
 5036POPC   GL164753  34.728  19.247   5.777
 5036POPC   GL264754  34.563  18.919   5.922
 5036POPC   C1A64755  34.788  19.217   6.251
 5036POPC   D2A64756  34.866  19.104   6.689
 5036POPC   C3A64757  34.690  19.257   7.084
 5036POPC   C4A64758  34.765  19.233   7.529
 5036POPC   C1B64759  34.281  18.709   6.226
 5036POPC   C2B64760  34.133  18.742   6.622
 5036POPC   C3B64761  34.428  18.844   6.904
 5036POPC   C4B64762  34.547  18.804   7.319
 5037POPC   NC364763   9.751  25.406   5.438
 5037POPC   PO464764   9.965  24.799   5.487
 5037POPC   GL164765   9.784  25.013   5.850
 5037POPC   GL264766   9.574  25.327   5.893
 5037POPC   C1A64767   9.797  25.080   6.299
 5037POPC   D2A64768  10.050  25.234   6.625
 5037POPC   C3A64769   9.843  25.190   6.999
 5037POPC   C4A64770   9.844  24.854   7.196
 5037POPC   C1B64771   9.796  25.562   6.203
 5037POPC   C2B64772   9.922  25.726   6.590
 5037POPC   C3B64773   9.632  25.628   6.915
 5037POPC   C4B64774   9.413  25.473   7.281
 5038POPC   NC364775  24.194  29.478   5.177
 5038POPC   PO464776  24.648  28.986   5.445
 5038POPC   GL164777  24.610  29.157   5.857
 5038POPC   GL264778  24.554  29.462   5.764
 5038POPC   C1A64779  24.473  29.291   6.261
 5038POPC   D2A64780  24.502  29.057   6.622
 5038POPC   C3A64781  24.374  29.262   6.967
 5038POPC   C4A64782  24.419  29.159   7.367
 5038POPC   C1B64783  24.903  29.537   6.055
 5038POPC   C2B64784  24.886  29.519   6.511
 5038POPC   C3B64785  24.920  29.365   6.931
 5038POPC   C4B64786  24.848  29.476   7.352
 5039POPC   NC364787  36.391  10.848   5.424
 5039POPC   PO464788  37.070  10.700   5.299
 5039POPC   GL164789  36.867  10.473   5.674
 5039POPC   GL264790  36.574  10.623   5.829
 5039POPC   C1A64791  36.866  10.418   6.157
 5039POPC   D2A64792  37.015  10.568   6.553
 5039POPC   C3A64793  36.812  10.411   6.907
 5039POPC   C4A64794  36.915  10.477   7.308
 5039POPC   C1B64795  36.637  10.888   6.215
 5039POPC   C2B64796  36.623  10.967   6.669
 5039POPC   C3B64797  36.741  10.896   7.081
 5039POPC   C4B64798  36.570  10.799   7.484
 5040POPC   NC364799  44.518  38.306   5.479
 5040POPC   PO464800  44.892  38.766   5.658
 5040POPC   GL164801  44.835  38.355   5.867
 5040POPC   GL264802  44.541  38.502   5.969
 5040POPC   C1A64803  44.753  38.108   6.230
 5040POPC   D2A64804  44.646  38.440   6.485
 5040POPC   C3A64805  44.799  38.504   6.849
 5040POPC   C4A64806  44.880  38.526   7.231
 5040POPC   C1B64807  44.312  38.747   6.236
 5040POPC   C2B64808  44.303  38.771   6.676
 5040POPC   C3B64809  44.363  38.625   7.077
 5040POPC   C4B64810  44.391  38.520   7.510
 5041POPC   NC364811   3.109  12.120   5.001
 5041POPC   PO464812   2.591  11.812   5.411
 5041POPC   GL164813   2.661  11.955   5.787
 5041POPC   GL264814   2.963  11.986   5.837
 5041POPC   C1A64815   2.547  12.122   6.170
 5041POPC   D2A64816   2.560  12.465   6.479
 5041POPC   C3A64817   2.576  12.293   6.894
 5041POPC   C4A64818   2.785  12.349   7.283
 5041POPC   C1B64819   3.040  12.165   6.181
 5041POPC   C2B64820   2.916  12.033   6.587
 5041POPC   C3B64821   3.127  12.181   6.947
 5041POPC   C4B64822   3.283  12.023   7.317
 5042POPC   NC364823  26.162  42.867   5.632
 5042POPC   PO464824  25.869  43.484   5.589
 5042POPC   GL164825  25.816  43.163   5.873
 5042POPC   GL264826  25.541  42.983   5.725
 5042POPC   C1A64827  25.954  43.184   6.304
 5042POPC   D2A64828  25.937  43.400   6.699
 5042POPC   C3A64829  26.124  43.344   7.083
 5042POPC   C4A64830  26.212  43.026   7.411
 5042POPC   C1B64831  25.488  42.904   6.181
 5042POPC   C2B64832  25.637  42.930   6.615
 5042POPC   C3B64833  25.848  42.931   7.005
 5042POPC   C4B64834  25.690  42.894   7.427
 5043POPC   NC364835  32.697  27.761   5.466
 5043POPC   PO464836  33.341  27.428   5.541
 5043POPC   GL164837  33.083  27.613   5.861
 5043POPC   GL264838  32.794  27.417   5.825
 5043POPC   C1A64839  32.977  27.421   6.301
 5043POPC   D2A64840  32.672  27.333   6.623
 5043POPC   C3A64841  32.817  27.432   7.033
 5043POPC   C4A64842  33.214  27.504   7.187
 5043POPC   C1B64843  32.664  27.773   6.107
 5043POPC   C2B64844  32.747  27.852   6.514
 5043POPC   C3B64845  32.526  28.060   6.813
 5043POPC   C4B64846  32.650  27.907   7.192
 5044POPC   NC364847  27.119   2.767   5.432
 5044POPC   PO464848  26.472   2.651   5.319
 5044POPC   GL164849  26.592   2.909   5.681
 5044POPC   GL264850  26.917   3.083   5.770
 5044POPC   C1A64851  26.523   2.982   6.119
 5044POPC   D2A64852  26.647   2.821   6.527
 5044POPC   C3A64853  26.555   3.103   6.860
 5044POPC   C4A64854  26.694   3.178   7.265
 5044POPC   C1B64855  27.032   2.850   6.164
 5044POPC   C2B64856  27.166   2.860   6.616
 5044POPC   C3B64857  26.930   2.739   7.011
 5044POPC   C4B64858  27.080   2.436   7.361
 5045POPC   NC364859  40.802   0.256   5.538
 5045POPC   PO464860  40.324   0.632   5.526
 5045POPC   GL164861  40.639   0.601   5.880
 5045POPC   GL264862  41.026   0.559   5.883
 5045POPC   C1A64863  40.707   0.285   6.199
 5045POPC   D2A64864  40.877   0.038   6.522
 5045POPC   C3A64865  41.034   0.319   6.807
 5045POPC   C4A64866  40.735   0.432   7.141
 5045POPC   C1B64867  40.931   0.721   6.295
 5045POPC   C2B64868  40.653   0.645   6.646
 5045POPC   C3B64869  40.821   0.902   6.997
 5045POPC   C4B64870  41.233   0.751   7.042
 5046POPC   NC364871   0.225  10.710   5.365
 5046POPC   PO464872   0.875  10.786   5.649
 5046POPC   GL164873   0.591  10.562   5.906
 5046POPC   GL264874   0.232  10.595   5.869
 5046POPC   C1A64875   0.438  10.539   6.338
 5046POPC   D2A64876   0.418  10.376   6.753
 5046POPC   C3A64877   0.592  10.558   7.130
 5046POPC   C4A64878   0.438  10.444   7.511
 5046POPC   C1B64879  44.969  10.703   6.231
 5046POPC   C2B64880   0.079  10.741   6.672
 5046POPC   C3B64881   0.112  10.693   7.126
 5046POPC   C4B64882   0.068  10.777   7.564
 5047POPC   NC364883  42.302  41.688   5.457
 5047POPC   PO464884  42.546  41.121   5.740
 5047POPC   GL164885  42.504  41.569   5.898
 5047POPC   GL264886  42.112  41.751   5.912
 5047POPC   C1A64887  42.496  41.733   6.298
 5047POPC   D2A64888  42.159  41.756   6.605
 5047POPC   C3A64889  42.355  41.661   7.007
 5047POPC   C4A64890  42.132  41.790   7.381
 5047POPC   C1B64891  42.087  41.440   6.201
 5047POPC   C2B64892  42.305  41.268   6.549
 5047POPC   C3B64893  42.196  41.182   6.975
 5047POPC   C4B64894  42.561  41.030   7.149
 5048POPC   NC364895   6.675  10.131   5.447
 5048POPC   PO464896   6.325   9.523   5.372
 5048POPC   GL164897   6.443   9.746   5.758
 5048POPC   GL264898   6.816   9.714   5.829
 5048POPC   C1A64899   6.476   9.671   6.196
 5048POPC   D2A64900   6.777   9.508   6.451
 5048POPC   C3A64901   6.651   9.632   6.819
 5048POPC   C4A64902   6.619   9.696   7.206
 5048POPC   C1B64903   6.953   9.944   6.239
 5048POPC   C2B64904   7.079   9.883   6.654
 5048POPC   C3B64905   6.948  10.047   7.059
 5048POPC   C4B64906   6.922   9.944   7.521
 5049POPC   NC364907  17.846  16.858   5.510
 5049POPC   PO464908  17.784  16.218   5.448
 5049POPC   GL164909  17.574  16.464   5.788
 5049POPC   GL264910  17.371  16.783   5.745
 5049POPC   C1A64911  17.231  16.458   6.114
 5049POPC   D2A64912  17.111  16.743   6.450
 5049POPC   C3A64913  17.289  16.769   6.878
 5049POPC   C4A64914  17.717  16.744   7.052
 5049POPC   C1B64915  17.589  16.845   6.163
 5049POPC   C2B64916  17.727  16.974   6.583
 5049POPC   C3B64917  17.539  17.216   6.943
 5049POPC   C4B64918  17.170  17.156   7.224
 5050POPC   NC364919  29.610  44.946   5.002
 5050POPC   PO464920  29.800  44.566   5.506
 5050POPC   GL164921  29.793  44.752   5.906
 5050POPC   GL264922  29.805  44.452   6.019
 5050POPC   C1A64923  29.697  44.734   6.408
 5050POPC   D2A64924  30.003  44.487   6.698
 5050POPC   C3A64925  29.925  44.463   7.144
 5050POPC   C4A64926  29.722  44.796   7.313
 5050POPC   C1B64927  30.179  44.688   6.235
 5050POPC   C2B64928  30.105  44.991   6.565
 5050POPC   C3B64929  30.220  44.946   6.949
 5050POPC   C4B64930  30.257  44.802   7.319
 5051POPC   NC364931  35.297   4.823   5.040
 5051POPC   PO464932  35.167   5.425   5.402
 5051POPC   GL164933  35.207   5.290   5.859
 5051POPC   GL264934  35.257   4.901   5.940
 5051POPC   C1A64935  35.024   5.258   6.266
 5051POPC   D2A64936  35.137   4.942   6.566
 5051POPC   C3A64937  35.190   5.078   6.969
 5051POPC   C4A64938  35.291   4.789   7.238
 5051POPC   C1B64939  35.522   5.084   6.251
 5051POPC   C2B64940  35.658   5.007   6.674
 5051POPC   C3B64941  35.713   5.058   7.100
 5051POPC   C4B64942  36.079   5.153   7.370
 5052POPC   NC364943  13.549  39.802   5.463
 5052POPC   PO464944  13.658  40.371   5.322
 5052POPC   GL164945  13.597  40.223   5.753
 5052POPC   GL264946  13.238  40.221   5.774
 5052POPC   C1A64947  13.734  40.051   6.169
 5052POPC   D2A64948  13.853  40.114   6.620
 5052POPC   C3A64949  13.746  39.827   6.999
 5052POPC   C4A64950  13.997  39.763   7.406
 5052POPC   C1B64951  13.229  39.905   6.132
 5052POPC   C2B64952  13.393  39.897   6.546
 5052POPC   C3B64953  13.387  40.182   6.890
 5052POPC   C4B64954  13.745  40.350   7.067
 5053POPC   NC364955  20.805   0.935   5.545
 5053POPC   PO464956  20.161   1.046   5.479
 5053POPC   GL164957  20.403   0.979   5.872
 5053POPC   GL264958  20.626   1.251   5.929
 5053POPC   C1A64959  20.365   0.981   6.362
 5053POPC   D2A64960  20.577   1.306   6.572
 5053POPC   C3A64961  20.637   1.399   6.995
 5053POPC   C4A64962  20.371   1.352   7.352
 5053POPC   C1B64963  20.917   1.441   6.227
 5053POPC   C2B64964  21.086   1.430   6.631
 5053POPC   C3B64965  21.086   1.159   6.986
 5053POPC   C4B64966  21.173   0.984   7.397
 5054POPC   NC364967  23.468  33.234   5.345
 5054POPC   PO464968  24.111  33.196   5.318
 5054POPC   GL164969  23.874  33.161   5.734
 5054POPC   GL264970  23.506  33.226   5.869
 5054POPC   C1A64971  23.873  32.912   6.137
 5054POPC   D2A64972  23.986  33.109   6.531
 5054POPC   C3A64973  23.830  33.052   6.942
 5054POPC   C4A64974  24.057  33.101   7.315
 5054POPC   C1B64975  23.384  32.954   6.256
 5054POPC   C2B64976  23.594  32.719   6.603
 5054POPC   C3B64977  23.439  32.726   7.031
 5054POPC   C4B64978  23.401  33.121   7.266
 5055POPC   NC364979  31.144  38.711   5.161
 5055POPC   PO464980  30.819  38.186   5.248
 5055POPC   GL164981  30.686  38.153   5.735
 5055POPC   GL264982  30.448  38.410   5.854
 5055POPC   C1A64983  30.675  38.128   6.212
 5055POPC   D2A64984  30.680  38.435   6.559
 5055POPC   C3A64985  30.789  38.374   6.960
 5055POPC   C4A64986  30.693  38.515   7.401
 5055POPC   C1B64987  30.254  38.479   6.278
 5055POPC   C2B64988  30.250  38.204   6.688
 5055POPC   C3B64989  30.325  38.212   7.166
 5055POPC   C4B64990  30.200  38.313   7.613
 5056POPC   NC364991  26.217  14.427   5.370
 5056POPC   PO464992  25.783  13.990   5.472
 5056POPC   GL164993  25.918  14.273   5.777
 5056POPC   GL264994  26.160  14.036   5.838
 5056POPC   C1A64995  25.787  14.473   6.185
 5056POPC   D2A64996  26.015  14.513   6.581
 5056POPC   C3A64997  25.874  14.506   7.016
 5056POPC   C4A64998  26.220  14.643   7.288
 5056POPC   C1B64999  26.180  14.145   6.222
 5056POPC   C2B65000  26.298  13.991   6.580
 5056POPC   C3B65001  26.277  14.202   6.943
 5056POPC   C4B65002  26.445  14.202   7.331
 5057POPC   NC365003   7.519  37.740   5.405
 5057POPC   PO465004   6.925  38.006   5.600
 5057POPC   GL165005   7.307  38.061   5.828
 5057POPC   GL265006   7.361  37.710   5.876
 5057POPC   C1A65007   7.363  37.987   6.287
 5057POPC   D2A65008   7.161  37.762   6.627
 5057POPC   C3A65009   7.238  37.956   7.006
 5057POPC   C4A65010   7.456  37.857   7.375
 5057POPC   C1B65011   7.650  37.530   6.154
 5057POPC   C2B65012   7.540  37.395   6.570
 5057POPC   C3B65013   7.549  37.558   6.962
 5057POPC   C4B65014   7.607  37.376   7.361
 5058POPC   NC365015   5.874  37.939   5.066
 5058POPC   PO465016   5.578  37.431   5.447
 5058POPC   GL165017   5.866  37.636   5.774
 5058POPC   GL265018   5.986  37.978   5.715
 5058POPC   C1A65019   6.058  37.561   6.218
 5058POPC   D2A65020   5.757  37.581   6.568
 5058POPC   C3A65021   5.796  37.451   7.003
 5058POPC   C4A65022   5.788  37.561   7.459
 5058POPC   C1B65023   5.838  38.016   6.134
 5058POPC   C2B65024   6.021  38.021   6.540
 5058POPC   C3B65025   5.902  37.938   6.961
 5058POPC   C4B65026   6.015  38.004   7.358
 5059POPC   NC365027  44.204  39.981   5.448
 5059POPC   PO465028  43.571  39.854   5.295
 5059POPC   GL165029  43.825  39.632   5.697
 5059POPC   GL265030  44.039  39.896   5.906
 5059POPC   C1A65031  43.756  39.599   6.196
 5059POPC   D2A65032  43.588  39.771   6.600
 5059POPC   C3A65033  43.736  39.660   6.998
 5059POPC   C4A65034  43.729  39.852   7.384
 5059POPC   C1B65035  44.169  40.200   6.230
 5059POPC   C2B65036  44.023  40.123   6.667
 5059POPC   C3B65037  43.912  40.246   7.111
 5059POPC   C4B65038  44.186  40.507   7.402
 5060POPC   NC365039  10.557  18.890   5.390
 5060POPC   PO465040  10.241  19.412   5.359
 5060POPC   GL165041  10.513  19.285   5.772
 5060POPC   GL265042  10.479  18.924   5.880
 5060POPC   C1A65043  10.488  19.217   6.274
 5060POPC   D2A65044  10.463  18.904   6.646
 5060POPC   C3A65045  10.489  19.032   7.105
 5060POPC   C4A65046  10.700  19.237   7.452
 5060POPC   C1B65047  10.737  18.758   6.211
 5060POPC   C2B65048  10.947  18.733   6.599
 5060POPC   C3B65049  10.726  18.539   6.961
 5060POPC   C4B65050  10.560  18.260   7.296
 5061POPC   NC365051  40.316   9.921   5.536
 5061POPC   PO465052  39.885   9.417   5.296
 5061POPC   GL165053  39.908   9.535   5.760
 5061POPC   GL265054  39.926   9.904   5.880
 5061POPC   C1A65055  40.070   9.518   6.204
 5061POPC   D2A65056  40.123   9.695   6.639
 5061POPC   C3A65057  39.778   9.680   6.947
 5061POPC   C4A65058  39.706   9.999   7.266
 5061POPC   C1B65059  40.237  10.031   6.224
 5061POPC   C2B65060  40.333  10.189   6.636
 5061POPC   C3B65061  40.150  10.090   7.017
 5061POPC   C4B65062  40.223   9.713   7.227
 5062POPC   NC365063   2.709   0.551   5.436
 5062POPC   PO465064   3.215   0.169   5.628
 5062POPC   GL165065   2.944   0.524   5.914
 5062POPC   GL265066   2.544   0.648   5.898
 5062POPC   C1A65067   2.759   0.538   6.364
 5062POPC   D2A65068   2.473   0.274   6.647
 5062POPC   C3A65069   2.716   0.147   7.015
 5062POPC   C4A65070   3.003   0.391   7.247
 5062POPC   C1B65071   2.311   0.760   6.277
 5062POPC   C2B65072   2.352   0.782   6.741
 5062POPC   C3B65073   2.386   0.526   7.100
 5062POPC   C4B65074   2.393   0.490   7.520
 5063POPC   NC365075  22.950  43.235   5.325
 5063POPC   PO465076  23.002  42.647   5.481
 5063POPC   GL165077  22.831  42.917   5.796
 5063POPC   GL265078  22.706  43.276   5.782
 5063POPC   C1A65079  23.114  43.098   6.121
 5063POPC   D2A65080  23.141  43.319   6.514
 5063POPC   C3A65081  23.120  43.123   6.947
 5063POPC   C4A65082  23.270  43.099   7.388
 5063POPC   C1B65083  22.692  43.378   6.238
 5063POPC   C2B65084  22.653  43.255   6.688
 5063POPC   C3B65085  22.676  43.336   7.136
 5063POPC   C4B65086  22.663  43.005   7.445
 5064POPC   NC365087  13.311  13.244   5.355
 5064POPC   PO465088  13.841  12.745   5.154
 5064POPC   GL165089  13.913  12.630   5.692
 5064POPC   GL265090  13.580  12.685   5.907
 5064POPC   C1A65091  13.972  12.679   6.205
 5064POPC   D2A65092  13.713  12.914   6.554
 5064POPC   C3A65093  13.683  12.791   7.014
 5064POPC   C4A65094  13.810  12.468   7.367
 5064POPC   C1B65095  13.378  13.009   6.152
 5064POPC   C2B65096  13.292  13.232   6.480
 5064POPC   C3B65097  13.339  13.224   6.891
 5064POPC   C4B65098  13.519  13.215   7.268
 5065POPC   NC365099  10.351  40.773   5.409
 5065POPC   PO465100  10.419  41.409   5.552
 5065POPC   GL165101  10.430  41.062   5.847
 5065POPC   GL265102  10.687  40.858   5.781
 5065POPC   C1A65103  10.290  40.725   6.124
 5065POPC   D2A65104  10.280  40.793   6.561
 5065POPC   C3A65105  10.513  40.730   6.946
 5065POPC   C4A65106  10.461  40.948   7.322
 5065POPC   C1B65107  10.797  40.673   6.145
 5065POPC   C2B65108  10.859  40.622   6.571
 5065POPC   C3B65109  10.886  40.393   6.930
 5065POPC   C4B65110  10.906  40.635   7.291
 5066POPC   NC365111  11.778   5.033   5.429
 5066POPC   PO465112  11.197   5.208   5.482
 5066POPC   GL165113  11.263   5.055   5.887
 5066POPC   GL265114  11.568   4.875   5.874
 5066POPC   C1A65115  11.400   5.287   6.250
 5066POPC   D2A65116  11.231   5.448   6.621
 5066POPC   C3A65117  11.194   5.242   7.011
 5066POPC   C4A65118  10.955   5.090   7.320
 5066POPC   C1B65119  11.473   4.790   6.282
 5066POPC   C2B65120  11.421   4.940   6.666
 5066POPC   C3B65121  11.388   4.770   7.069
 5066POPC   C4B65122  11.419   4.878   7.521
 5067POPC   NC365123  36.538  15.319   5.219
 5067POPC   PO465124  35.947  14.951   5.412
 5067POPC   GL165125  36.121  14.970   5.821
 5067POPC   GL265126  36.267  15.282   5.792
 5067POPC   C1A65127  36.339  14.914   6.220
 5067POPC   D2A65128  36.039  15.007   6.528
 5067POPC   C3A65129  36.034  14.930   6.926
 5067POPC   C4A65130  36.050  15.135   7.330
 5067POPC   C1B65131  36.171  15.401   6.234
 5067POPC   C2B65132  36.429  15.319   6.597
 5067POPC   C3B65133  36.418  15.272   7.010
 5067POPC   C4B65134  36.463  15.446   7.407
 5068POPC   NC365135  41.548  16.098   5.409
 5068POPC   PO465136  41.857  15.525   5.497
 5068POPC   GL165137  41.636  15.790   5.809
 5068POPC   GL265138  41.269  15.873   5.806
 5068POPC   C1A65139  41.520  15.672   6.227
 5068POPC   D2A65140  41.740  15.719   6.605
 5068POPC   C3A65141  41.585  15.624   7.049
 5068POPC   C4A65142  41.838  15.870   7.403
 5068POPC   C1B65143  41.071  16.168   6.132
 5068POPC   C2B65144  41.064  16.308   6.545
 5068POPC   C3B65145  41.091  16.212   6.966
 5068POPC   C4B65146  41.438  16.085   7.152
 5069POPC   NC365147   4.655  27.740   5.535
 5069POPC   PO465148   5.281  27.500   5.432
 5069POPC   GL165149   5.213  27.483   5.874
 5069POPC   GL265150   4.883  27.407   5.863
 5069POPC   C1A65151   5.109  27.402   6.328
 5069POPC   D2A65152   4.903  27.314   6.723
 5069POPC   C3A65153   5.183  27.375   7.071
 5069POPC   C4A65154   5.471  27.493   7.447
 5069POPC   C1B65155   4.840  27.789   6.134
 5069POPC   C2B65156   4.809  27.923   6.526
 5069POPC   C3B65157   4.863  27.794   6.948
 5069POPC   C4B65158   5.112  27.816   7.312
 5070POPC   NC365159  29.131  25.607   5.431
 5070POPC   PO465160  28.983  24.972   5.390
 5070POPC   GL165161  29.086  25.165   5.753
 5070POPC   GL265162  28.986  25.478   5.889
 5070POPC   C1A65163  29.123  25.046   6.164
 5070POPC   D2A65164  29.384  25.091   6.500
 5070POPC   C3A65165  29.295  25.479   6.723
 5070POPC   C4A65166  29.461  25.552   7.139
 5070POPC   C1B65167  28.775  25.422   6.267
 5070POPC   C2B65168  28.861  25.224   6.634
 5070POPC   C3B65169  29.096  25.104   7.012
 5070POPC   C4B65170  28.939  25.102   7.414
 5071POPC   NC365171  10.821  13.140   5.325
 5071POPC   PO465172  10.476  12.573   5.372
 5071POPC   GL165173  10.626  12.675   5.819
 5071POPC   GL265174  10.866  12.970   5.833
 5071POPC   C1A65175  10.630  12.796   6.292
 5071POPC   D2A65176  10.529  12.950   6.734
 5071POPC   C3A65177  10.772  12.772   7.072
 5071POPC   C4A65178  10.735  12.716   7.485
 5071POPC   C1B65179  10.876  13.265   6.174
 5071POPC   C2B65180  10.724  13.382   6.592
 5071POPC   C3B65181  10.956  13.254   6.995
 5071POPC   C4B65182  10.967  13.210   7.465
 5072POPC   NC365183   2.130  36.551   5.516
 5072POPC   PO465184   1.674  36.972   5.218
 5072POPC   GL165185   1.822  36.901   5.655
 5072POPC   GL265186   2.059  37.058   5.874
 5072POPC   C1A65187   1.744  36.724   6.101
 5072POPC   D2A65188   1.828  36.935   6.515
 5072POPC   C3A65189   1.943  36.793   6.951
 5072POPC   C4A65190   2.083  37.109   7.265
 5072POPC   C1B65191   2.259  36.708   6.158
 5072POPC   C2B65192   2.478  36.680   6.571
 5072POPC   C3B65193   2.505  36.901   6.954
 5072POPC   C4B65194   2.355  36.670   7.266
 5073POPC   NC365195  10.030  23.776   5.507
 5073POPC   PO465196   9.410  23.966   5.491
 5073POPC   GL165197   9.619  23.772   5.828
 5073POPC   GL265198   9.430  23.488   5.856
 5073POPC   C1A65199   9.957  23.655   6.138
 5073POPC   D2A65200  10.000  23.816   6.549
 5073POPC   C3A65201   9.851  23.563   6.880
 5073POPC   C4A65202   9.903  23.622   7.315
 5073POPC   C1B65203   9.478  23.519   6.275
 5073POPC   C2B65204   9.463  23.277   6.644
 5073POPC   C3B65205   9.297  23.461   7.007
 5073POPC   C4B65206   9.401  23.478   7.432
 5074POPC   NC365207  24.082  12.705   5.526
 5074POPC   PO465208  24.490  12.238   5.272
 5074POPC   GL165209  24.469  12.028   5.693
 5074POPC   GL265210  24.266  12.299   5.837
 5074POPC   C1A65211  24.409  11.906   6.156
 5074POPC   D2A65212  24.531  12.033   6.568
 5074POPC   C3A65213  24.295  11.841   6.877
 5074POPC   C4A65214  24.357  11.951   7.288
 5074POPC   C1B65215  24.684  12.341   6.064
 5074POPC   C2B65216  24.949  12.286   6.428
 5074POPC   C3B65217  24.935  12.333   6.856
 5074POPC   C4B65218  24.713  12.318   7.227
 5075POPC   NC365219  10.762   5.088   5.401
 5075POPC   PO465220  10.091   4.969   5.503
 5075POPC   GL165221  10.422   5.018   5.805
 5075POPC   GL265222  10.759   4.859   5.896
 5075POPC   C1A65223  10.440   5.091   6.234
 5075POPC   D2A65224  10.451   4.911   6.616
 5075POPC   C3A65225  10.586   5.224   6.922
 5075POPC   C4A65226  10.441   5.179   7.303
 5075POPC   C1B65227  10.961   4.947   6.342
 5075POPC   C2B65228  10.921   4.859   6.805
 5075POPC   C3B65229  10.620   4.720   7.143
 5075POPC   C4B65230  10.674   4.801   7.624
 5076POPC   NC365231  19.625  30.398   5.530
 5076POPC   PO465232  20.062  29.838   5.384
 5076POPC   GL165233  19.965  30.039   5.742
 5076POPC   GL265234  19.602  29.943   5.767
 5076POPC   C1A65235  19.870  30.060   6.184
 5076POPC   D2A65236  19.638  29.908   6.530
 5076POPC   C3A65237  19.858  29.664   6.829
 5076POPC   C4A65238  19.978  29.878   7.182
 5076POPC   C1B65239  19.658  29.582   6.055
 5076POPC   C2B65240  19.598  29.409   6.463
 5076POPC   C3B65241  19.361  29.568   6.836
 5076POPC   C4B65242  19.554  29.594   7.243
 5077POPC   NC365243  33.481  33.540   5.376
 5077POPC   PO465244  32.702  33.721   5.413
 5077POPC   GL165245  32.972  33.725   5.805
 5077POPC   GL265246  33.307  33.822   5.758
 5077POPC   C1A65247  33.123  33.959   6.205
 5077POPC   D2A65248  32.977  34.002   6.639
 5077POPC   C3A65249  33.227  33.988   7.017
 5077POPC   C4A65250  32.999  33.681   7.278
 5077POPC   C1B65251  33.468  33.571   6.066
 5077POPC   C2B65252  33.540  33.446   6.467
 5077POPC   C3B65253  33.351  33.524   6.844
 5077POPC   C4B65254  33.498  33.597   7.258
 5078POPC   NC365255  35.764  42.983   5.711
 5078POPC   PO465256  36.221  43.208   5.194
 5078POPC   GL165257  36.315  43.125   5.771
 5078POPC   GL265258  36.111  43.242   6.059
 5078POPC   C1A65259  36.456  42.901   6.197
 5078POPC   D2A65260  36.168  42.806   6.534
 5078POPC   C3A65261  36.125  43.169   6.804
 5078POPC   C4A65262  36.102  43.165   7.243
 5078POPC   C1B65263  35.772  43.353   6.359
 5078POPC   C2B65264  35.621  43.359   6.796
 5078POPC   C3B65265  35.794  43.569   7.159
 5078POPC   C4B65266  35.715  43.531   7.597
 5079POPC   NC365267   7.660  43.618   5.345
 5079POPC   PO465268   7.038  43.862   5.364
 5079POPC   GL165269   7.341  43.760   5.728
 5079POPC   GL265270   7.531  44.095   5.808
 5079POPC   C1A65271   7.505  43.675   6.180
 5079POPC   D2A65272   7.619  43.590   6.629
 5079POPC   C3A65273   7.412  43.735   7.021
 5079POPC   C4A65274   7.293  43.890   7.439
 5079POPC   C1B65275   7.729  44.126   6.247
 5079POPC   C2B65276   7.594  44.130   6.700
 5079POPC   C3B65277   7.517  44.245   7.140
 5079POPC   C4B65278   7.533  44.351   7.598
 5080POPC   NC365279  37.656  41.689   5.364
 5080POPC   PO465280  37.582  41.035   5.394
 5080POPC   GL165281  37.664  41.281   5.714
 5080POPC   GL265282  37.322  41.369   5.729
 5080POPC   C1A65283  37.874  41.475   6.057
 5080POPC   D2A65284  37.942  41.829   6.369
 5080POPC   C3A65285  37.899  41.693   6.786
 5080POPC   C4A65286  37.727  41.667   7.197
 5080POPC   C1B65287  37.374  41.613   6.090
 5080POPC   C2B65288  37.542  41.492   6.464
 5080POPC   C3B65289  37.498  41.358   6.865
 5080POPC   C4B65290  37.313  41.383   7.267
 5081POPC   NC365291  24.199  29.155   5.594
 5081POPC   PO465292  23.742  29.316   5.180
 5081POPC   GL165293  23.740  29.379   5.716
 5081POPC   GL265294  24.057  29.414   5.980
 5081POPC   C1A65295  23.640  29.261   6.190
 5081POPC   D2A65296  23.994  29.179   6.514
 5081POPC   C3A65297  23.873  29.077   6.929
 5081POPC   C4A65298  23.492  29.176   7.132
 5081POPC   C1B65299  24.044  29.654   6.341
 5081POPC   C2B65300  24.086  29.641   6.784
 5081POPC   C3B65301  23.908  29.531   7.169
 5081POPC   C4B65302  23.898  29.211   7.479
 5082POPC   NC365303  31.148  37.967   5.021
 5082POPC   PO465304  31.747  37.844   5.398
 5082POPC   GL165305  31.532  37.763   5.765
 5082POPC   GL265306  31.542  37.439   5.891
 5082POPC   C1A65307  31.563  37.850   6.192
 5082POPC   D2A65308  31.467  37.725   6.577
 5082POPC   C3A65309  31.720  37.947   6.875
 5082POPC   C4A65310  31.695  37.828   7.290
 5082POPC   C1B65311  31.230  37.261   6.209
 5082POPC   C2B65312  31.131  37.350   6.642
 5082POPC   C3B65313  31.414  37.443   6.989
 5082POPC   C4B65314  31.342  37.499   7.428
 5083POPC   NC365315  22.163  36.640   5.419
 5083POPC   PO465316  22.371  37.321   5.230
 5083POPC   GL165317  22.347  37.108   5.671
 5083POPC   GL265318  22.015  37.057   5.819
 5083POPC   C1A65319  22.392  37.021   6.150
 5083POPC   D2A65320  22.196  36.755   6.487
 5083POPC   C3A65321  22.219  36.854   6.948
 5083POPC   C4A65322  22.231  36.740   7.390
 5083POPC   C1B65323  21.838  37.094   6.291
 5083POPC   C2B65324  21.971  37.259   6.748
 5083POPC   C3B65325  21.808  37.205   7.229
 5083POPC   C4B65326  21.550  37.362   7.647
 5084POPC   NC365327   1.365  23.716   5.321
 5084POPC   PO465328   0.702  23.507   5.465
 5084POPC   GL165329   0.985  23.699   5.751
 5084POPC   GL265330   1.307  23.649   5.849
 5084POPC   C1A65331   0.939  23.696   6.182
 5084POPC   D2A65332   1.221  23.600   6.502
 5084POPC   C3A65333   1.032  23.595   6.903
 5084POPC   C4A65334   0.920  23.619   7.318
 5084POPC   C1B65335   1.317  24.036   6.125
 5084POPC   C2B65336   1.352  24.153   6.559
 5084POPC   C3B65337   1.497  23.872   6.867
 5084POPC   C4B65338   1.380  23.819   7.281
 5085POPC   NC365339  34.088   1.819   5.433
 5085POPC   PO465340  33.479   1.828   5.230
 5085POPC   GL165341  33.677   1.951   5.718
 5085POPC   GL265342  33.925   1.661   5.875
 5085POPC   C1A65343  33.812   2.069   6.183
 5085POPC   D2A65344  33.851   2.321   6.575
 5085POPC   C3A65345  33.718   2.130   6.998
 5085POPC   C4A65346  33.906   1.971   7.376
 5085POPC   C1B65347  33.786   1.573   6.282
 5085POPC   C2B65348  33.847   1.769   6.670
 5085POPC   C3B65349  33.845   1.563   7.088
 5085POPC   C4B65350  33.530   1.253   7.252
 5086POPC   NC365351  32.700  44.904   5.457
 5086POPC   PO465352  33.345  44.609   5.511
 5086POPC   GL165353  33.026  44.699   5.803
 5086POPC   GL265354  33.259  44.937   5.920
 5086POPC   C1A65355  32.812  44.476   6.177
 5086POPC   D2A65356  32.620  44.262   6.562
 5086POPC   C3A65357  32.749  44.403   6.980
 5086POPC   C4A65358  33.168  44.335   7.238
 5086POPC   C1B65359  32.947  44.975   6.265
 5086POPC   C2B65360  32.783  44.866   6.665
 5086POPC   C3B65361  33.071  44.796   6.997
 5086POPC   C4B65362  33.169  44.906   7.384
 5087POPC   NC365363  42.767  22.123   5.154
 5087POPC   PO465364  42.181  22.076   5.367
 5087POPC   GL165365  42.312  22.176   5.727
 5087POPC   GL265366  42.134  21.877   5.853
 5087POPC   C1A65367  42.427  22.226   6.167
 5087POPC   D2A65368  42.482  22.514   6.540
 5087POPC   C3A65369  42.506  22.328   6.960
 5087POPC   C4A65370  42.761  22.297   7.342
 5087POPC   C1B65371  42.294  21.716   6.225
 5087POPC   C2B65372  42.402  21.925   6.610
 5087POPC   C3B65373  42.354  21.810   7.013
 5087POPC   C4B65374  42.191  22.094   7.304
 5088POPC   NC365375  37.644  44.505   5.384
 5088POPC   PO465376  37.529   0.131   5.346
 5088POPC   GL165377  37.636  44.963   5.749
 5088POPC   GL265378  37.372  44.756   5.760
 5088POPC   C1A65379  37.816  44.959   6.176
 5088POPC   D2A65380  37.833  44.691   6.548
 5088POPC   C3A65381  37.791  44.938   6.894
 5088POPC   C4A65382  37.617  44.893   7.287
 5088POPC   C1B65383  37.440  44.594   6.170
 5088POPC   C2B65384  37.401  44.385   6.562
 5088POPC   C3B65385  37.480  44.516   6.959
 5088POPC   C4B65386  37.523  44.377   7.365
 5089POPC   NC365387  33.208  11.848   5.541
 5089POPC   PO465388  32.824  12.331   5.323
 5089POPC   GL165389  33.000  12.267   5.771
 5089POPC   GL265390  33.014  11.925   5.975
 5089POPC   C1A65391  33.008  12.346   6.221
 5089POPC   D2A65392  32.968  12.166   6.647
 5089POPC   C3A65393  33.094  12.380   7.043
 5089POPC   C4A65394  33.056  12.265   7.487
 5089POPC   C1B65395  33.272  11.875   6.316
 5089POPC   C2B65396  33.286  11.760   6.733
 5089POPC   C3B65397  33.194  11.885   7.126
 5089POPC   C4B65398  33.308  11.816   7.544
 5090POPC   NC365399  33.903  36.383   5.367
 5090POPC   PO465400  34.062  35.689   5.474
 5090POPC   GL165401  33.850  35.966   5.793
 5090POPC   GL265402  33.778  36.337   5.868
 5090POPC   C1A65403  33.917  35.958   6.248
 5090POPC   D2A65404  33.662  35.989   6.608
 5090POPC   C3A65405  33.811  36.063   6.947
 5090POPC   C4A65406  33.802  36.338   7.270
 5090POPC   C1B65407  34.202  36.348   6.076
 5090POPC   C2B65408  34.323  36.235   6.518
 5090POPC   C3B65409  34.196  36.367   6.936
 5090POPC   C4B65410  34.289  36.431   7.381
 5091POPC   NC365411  20.364  11.671   5.532
 5091POPC   PO465412  19.938  11.134   5.241
 5091POPC   GL165413  19.918  11.303   5.744
 5091POPC   GL265414  20.034  11.578   5.918
 5091POPC   C1A65415  19.658  11.368   6.157
 5091POPC   D2A65416  19.763  11.377   6.588
 5091POPC   C3A65417  19.537  11.671   6.806
 5091POPC   C4A65418  19.525  11.733   7.247
 5091POPC   C1B65419  20.133  11.198   6.247
 5091POPC   C2B65420  20.160  11.046   6.709
 5091POPC   C3B65421  20.109  11.121   7.187
 5091POPC   C4B65422  20.086  10.929   7.627
 5092POPC   NC365423  33.117  28.704   5.466
 5092POPC   PO465424  33.086  28.052   5.442
 5092POPC   GL165425  32.894  28.119   5.805
 5092POPC   GL265426  32.830  28.488   5.870
 5092POPC   C1A65427  33.070  28.114   6.191
 5092POPC   D2A65428  32.918  28.344   6.525
 5092POPC   C3A65429  33.027  28.115   6.880
 5092POPC   C4A65430  33.134  28.050   7.288
 5092POPC   C1B65431  32.541  28.671   6.194
 5092POPC   C2B65432  32.481  28.614   6.657
 5092POPC   C3B65433  32.828  28.586   6.977
 5092POPC   C4B65434  32.964  28.534   7.421
 5093POPC   NC365435   1.488  41.817   5.570
 5093POPC   PO465436   1.069  41.263   5.668
 5093POPC   GL165437   1.077  41.564   5.954
 5093POPC   GL265438   1.441  41.521   5.987
 5093POPC   C1A65439   1.031  41.433   6.380
 5093POPC   D2A65440   1.223  41.338   6.764
 5093POPC   C3A65441   1.073  41.579   7.084
 5093POPC   C4A65442   0.829  41.441   7.423
 5093POPC   C1B65443   1.377  41.815   6.327
 5093POPC   C2B65444   1.559  41.744   6.731
 5093POPC   C3B65445   1.564  41.545   7.147
 5093POPC   C4B65446   1.356  41.551   7.531
 5094POPC   NC365447   4.445   2.469   5.391
 5094POPC   PO465448   4.623   3.122   5.368
 5094POPC   GL165449   4.540   2.893   5.741
 5094POPC   GL265450   4.192   2.799   5.685
 5094POPC   C1A65451   4.574   3.008   6.164
 5094POPC   D2A65452   4.326   3.003   6.542
 5094POPC   C3A65453   4.493   2.938   6.952
 5094POPC   C4A65454   4.161   3.002   7.258
 5094POPC   C1B65455   4.136   2.750   6.112
 5094POPC   C2B65456   4.243   2.453   6.415
 5094POPC   C3B65457   4.195   2.525   6.841
 5094POPC   C4B65458   4.327   2.533   7.246
 5095POPC   NC365459  28.643   2.383   5.373
 5095POPC   PO465460  28.539   1.702   5.371
 5095POPC   GL165461  28.539   1.923   5.736
 5095POPC   GL265462  28.297   2.167   5.711
 5095POPC   C1A65463  28.396   1.940   6.160
 5095POPC   D2A65464  28.538   2.134   6.532
 5095POPC   C3A65465  28.389   1.943   6.896
 5095POPC   C4A65466  28.605   2.020   7.286
 5095POPC   C1B65467  27.982   2.224   6.058
 5095POPC   C2B65468  27.959   2.023   6.463
 5095POPC   C3B65469  27.917   2.189   6.862
 5095POPC   C4B65470  28.145   2.255   7.231
 5096POPC   NC365471  24.264   7.746   5.535
 5096POPC   PO465472  23.633   7.556   5.378
 5096POPC   GL165473  23.810   7.536   5.783
 5096POPC   GL265474  23.903   7.209   5.804
 5096POPC   C1A65475  23.770   7.601   6.252
 5096POPC   D2A65476  23.431   7.724   6.570
 5096POPC   C3A65477  23.547   7.535   6.973
 5096POPC   C4A65478  23.978   7.463   7.108
 5096POPC   C1B65479  23.886   7.085   6.268
 5096POPC   C2B65480  23.761   6.874   6.658
 5096POPC   C3B65481  23.925   6.948   7.077
 5096POPC   C4B65482  23.818   7.141   7.507
 5097POPC   NC365483  37.020  40.256   5.408
 5097POPC   PO465484  36.644  39.740   5.436
 5097POPC   GL165485  36.973  39.846   5.779
 5097POPC   GL265486  37.170  39.560   5.921
 5097POPC   C1A65487  36.997  39.901   6.255
 5097POPC   D2A65488  37.007  39.701   6.684
 5097POPC   C3A65489  36.896  40.003   7.011
 5097POPC   C4A65490  37.126  40.352   7.255
 5097POPC   C1B65491  36.750  39.476   6.110
 5097POPC   C2B65492  36.515  39.567   6.494
 5097POPC   C3B65493  36.570  39.561   6.937
 5097POPC   C4B65494  36.487  39.675   7.371
 5098POPC   NC365495  19.315   4.480   5.478
 5098POPC   PO465496  18.751   4.016   5.547
 5098POPC   GL165497  18.986   4.306   5.850
 5098POPC   GL265498  19.256   4.111   5.873
 5098POPC   C1A65499  19.002   4.381   6.310
 5098POPC   D2A65500  18.967   4.106   6.672
 5098POPC   C3A65501  18.828   4.279   7.055
 5098POPC   C4A65502  19.053   4.321   7.454
 5098POPC   C1B65503  19.477   4.161   6.264
 5098POPC   C2B65504  19.456   4.336   6.680
 5098POPC   C3B65505  19.333   4.145   7.061
 5098POPC   C4B65506  19.424   3.945   7.455
 5099POPC   NC365507  13.168   7.899   5.393
 5099POPC   PO465508  12.687   8.402   5.417
 5099POPC   GL165509  12.880   8.190   5.771
 5099POPC   GL265510  12.554   8.197   5.902
 5099POPC   C1A65511  12.936   8.321   6.242
 5099POPC   D2A65512  12.975   8.132   6.679
 5099POPC   C3A65513  12.979   8.423   7.032
 5099POPC   C4A65514  13.163   8.424   7.457
 5099POPC   C1B65515  12.714   7.857   6.145
 5099POPC   C2B65516  12.581   7.854   6.547
 5099POPC   C3B65517  12.733   7.785   6.944
 5099POPC   C4B65518  12.786   8.004   7.333
 5100POPC   NC365519  41.008   9.374   5.067
 5100POPC   PO465520  40.697   8.916   5.438
 5100POPC   GL165521  40.774   8.849   5.860
 5100POPC   GL265522  41.147   8.826   5.802
 5100POPC   C1A65523  40.941   9.079   6.220
 5100POPC   D2A65524  41.020   9.366   6.563
 5100POPC   C3A65525  41.015   9.176   6.953
 5100POPC   C4A65526  40.774   9.002   7.269
 5100POPC   C1B65527  41.075   8.592   6.192
 5100POPC   C2B65528  41.058   8.765   6.608
 5100POPC   C3B65529  41.139   8.598   6.991
 5100POPC   C4B65530  41.116   8.656   7.396
 5101POPC   NC365531  39.561  18.007   5.319
 5101POPC   PO465532  39.420  17.296   5.405
 5101POPC   GL165533  39.287  17.323   5.813
 5101POPC   GL265534  39.191  17.675   5.830
 5101POPC   C1A65535  39.152  17.307   6.240
 5101POPC   D2A65536  39.123  17.513   6.650
 5101POPC   C3A65537  39.204  17.281   7.067
 5101POPC   C4A65538  39.180  17.215   7.560
 5101POPC   C1B65539  39.279  17.907   6.198
 5101POPC   C2B65540  39.495  17.959   6.581
 5101POPC   C3B65541  39.340  17.842   6.989
 5101POPC   C4B65542  39.374  17.655   7.362
 5102POPC   NC365543  42.021  34.232   5.614
 5102POPC   PO465544  42.367  34.727   5.368
 5102POPC   GL165545  42.376  34.612   5.799
 5102POPC   GL265546  41.981  34.734   5.771
 5102POPC   C1A65547  42.640  34.523   6.239
 5102POPC   D2A65548  42.779  34.274   6.670
 5102POPC   C3A65549  42.506  34.162   7.052
 5102POPC   C4A65550  42.191  34.359   7.332
 5102POPC   C1B65551  42.150  34.821   6.186
 5102POPC   C2B65552  42.329  34.742   6.560
 5102POPC   C3B65553  42.310  34.608   6.920
 5102POPC   C4B65554  42.646  34.638   7.219
 5103POPC   NC365555  33.549  37.860   5.516
 5103POPC   PO465556  34.208  37.647   5.281
 5103POPC   GL165557  34.010  37.688   5.737
 5103POPC   GL265558  33.695  37.714   5.955
 5103POPC   C1A65559  34.099  37.781   6.204
 5103POPC   D2A65560  33.911  37.613   6.581
 5103POPC   C3A65561  34.093  37.736   6.984
 5103POPC   C4A65562  33.979  37.687   7.406
 5103POPC   C1B65563  33.595  38.063   6.193
 5103POPC   C2B65564  33.379  38.086   6.551
 5103POPC   C3B65565  33.503  37.820   6.878
 5103POPC   C4B65566  33.530  37.892   7.299
 5104POPC   NC365567  32.414  20.325   5.326
 5104POPC   PO465568  31.958  20.774   5.570
 5104POPC   GL165569  32.220  20.556   5.833
 5104POPC   GL265570  32.297  20.226   5.819
 5104POPC   C1A65571  32.391  20.590   6.230
 5104POPC   D2A65572  32.544  20.713   6.598
 5104POPC   C3A65573  32.295  20.760   6.928
 5104POPC   C4A65574  32.357  20.638   7.307
 5104POPC   C1B65575  31.995  20.281   6.195
 5104POPC   C2B65576  32.177  20.278   6.619
 5104POPC   C3B65577  32.012  20.320   7.040
 5104POPC   C4B65578  32.018  20.199   7.484
 5105POPC   NC365579  42.609   2.865   5.569
 5105POPC   PO465580  42.107   2.725   5.167
 5105POPC   GL165581  42.191   2.588   5.666
 5105POPC   GL265582  42.441   2.358   5.763
 5105POPC   C1A65583  42.391   2.693   6.133
 5105POPC   D2A65584  42.433   2.960   6.504
 5105POPC   C3A65585  42.392   2.834   6.913
 5105POPC   C4A65586  42.370   3.017   7.304
 5105POPC   C1B65587  42.575   2.209   6.196
 5105POPC   C2B65588  42.632   2.382   6.617
 5105POPC   C3B65589  42.647   2.415   7.054
 5105POPC   C4B65590  42.436   2.539   7.410
 5106POPC   NC365591  42.479  40.148   5.272
 5106POPC   PO465592  42.071  39.659   5.403
 5106POPC   GL165593  42.219  39.942   5.733
 5106POPC   GL265594  42.580  39.835   5.791
 5106POPC   C1A65595  42.227  40.087   6.186
 5106POPC   D2A65596  42.050  40.042   6.602
 5106POPC   C3A65597  42.208  40.187   7.007
 5106POPC   C4A65598  42.269  40.014   7.408
 5106POPC   C1B65599  42.725  39.988   6.214
 5106POPC   C2B65600  42.602  40.100   6.647
 5106POPC   C3B65601  42.736  40.043   7.090
 5106POPC   C4B65602  42.675  39.733   7.439
 5107POPC   NC365603  27.867   0.468   5.397
 5107POPC   PO465604  27.261   0.323   5.392
 5107POPC   GL165605  27.538   0.238   5.759
 5107POPC   GL265606  27.580   0.558   5.902
 5107POPC   C1A65607  27.737   0.189   6.197
 5107POPC   D2A65608  27.635   0.399   6.569
 5107POPC   C3A65609  27.829   0.304   6.956
 5107POPC   C4A65610  27.639   0.325   7.320
 5107POPC   C1B65611  27.454   0.799   6.264
 5107POPC   C2B65612  27.593   1.032   6.638
 5107POPC   C3B65613  27.659   0.829   7.043
 5107POPC   C4B65614  27.983   0.696   7.327
 5108POPC   NC365615  17.976   0.274   5.537
 5108POPC   PO465616  18.515   0.619   5.515
 5108POPC   GL165617  18.281   0.580   5.886
 5108POPC   GL265618  18.053   0.789   5.748
 5108POPC   C1A65619  18.148   0.426   6.302
 5108POPC   D2A65620  18.210   0.451   6.757
 5108POPC   C3A65621  18.550   0.538   6.962
 5108POPC   C4A65622  18.475   0.564   7.370
 5108POPC   C1B65623  17.907   0.888   6.127
 5108POPC   C2B65624  17.993   1.117   6.488
 5108POPC   C3B65625  17.826   1.058   6.927
 5108POPC   C4B65626  18.046   0.761   7.171
 5109POPC   NC365627  33.095  30.281   5.362
 5109POPC   PO465628  33.159  29.620   5.359
 5109POPC   GL165629  33.040  29.515   5.789
 5109POPC   GL265630  33.118  29.870   5.835
 5109POPC   C1A65631  32.995  29.592   6.247
 5109POPC   D2A65632  33.054  29.825   6.661
 5109POPC   C3A65633  33.059  29.751   7.126
 5109POPC   C4A65634  33.025  29.528   7.586
 5109POPC   C1B65635  32.996  30.097   6.207
 5109POPC   C2B65636  32.999  30.337   6.587
 5109POPC   C3B65637  33.218  30.220   6.941
 5109POPC   C4B65638  33.294  30.228   7.361
 5110POPC   NC365639  42.216  43.401   5.572
 5110POPC   PO465640  42.509  42.825   5.364
 5110POPC   GL165641  42.275  42.922   5.734
 5110POPC   GL265642  42.531  43.057   5.893
 5110POPC   C1A65643  42.038  43.082   6.121
 5110POPC   D2A65644  41.986  43.290   6.537
 5110POPC   C3A65645  42.310  43.229   6.873
 5110POPC   C4A65646  42.523  42.914   7.154
 5110POPC   C1B65647  42.483  43.253   6.321
 5110POPC   C2B65648  42.760  43.353   6.657
 5110POPC   C3B65649  42.851  43.326   7.071
 5110POPC   C4B65650  42.506  43.362   7.339
 5111POPC   NC365651  24.307  24.795   5.400
 5111POPC   PO465652  24.692  24.214   5.454
 5111POPC   GL165653  24.454  24.460   5.768
 5111POPC   GL265654  24.690  24.757   5.741
 5111POPC   C1A65655  24.300  24.439   6.219
 5111POPC   D2A65656  24.409  24.250   6.643
 5111POPC   C3A65657  24.577  24.427   7.056
 5111POPC   C4A65658  24.818  24.317   7.474
 5111POPC   C1B65659  24.439  24.916   6.064
 5111POPC   C2B65660  24.200  24.988   6.432
 5111POPC   C3B65661  24.210  24.714   6.789
 5111POPC   C4B65662  24.113  24.819   7.180
 5112POPC   NC365663  19.952  13.185   5.614
 5112POPC   PO465664  20.167  12.665   5.253
 5112POPC   GL165665  19.987  12.590   5.723
 5112POPC   GL265666  19.647  12.703   5.880
 5112POPC   C1A65667  20.020  12.606   6.205
 5112POPC   D2A65668  19.934  12.812   6.611
 5112POPC   C3A65669  20.081  12.733   6.988
 5112POPC   C4A65670  19.989  12.582   7.347
 5112POPC   C1B65671  19.723  13.038   6.209
 5112POPC   C2B65672  19.973  13.311   6.495
 5112POPC   C3B65673  19.916  13.248   6.939
 5112POPC   C4B65674  19.617  12.929   7.119
 5113POPC   NC365675  38.417  31.911   5.547
 5113POPC   PO465676  38.437  32.506   5.337
 5113POPC   GL165677  38.331  32.364   5.756
 5113POPC   GL265678  38.657  32.148   5.916
 5113POPC   C1A65679  38.223  32.237   6.182
 5113POPC   D2A65680  38.275  32.485   6.554
 5113POPC   C3A65681  38.144  32.297   6.916
 5113POPC   C4A65682  38.346  32.336   7.307
 5113POPC   C1B65683  38.813  31.767   6.200
 5113POPC   C2B65684  38.696  31.687   6.658
 5113POPC   C3B65685  38.605  31.971   7.022
 5113POPC   C4B65686  38.839  32.283   7.297
 5114POPC   NC365687  24.767  33.755   5.203
 5114POPC   PO465688  24.299  34.118   5.520
 5114POPC   GL165689  24.562  33.866   5.763
 5114POPC   GL265690  24.647  33.551   5.946
 5114POPC   C1A65691  24.744  34.027   6.131
 5114POPC   D2A65692  25.012  33.932   6.454
 5114POPC   C3A65693  24.860  34.099   6.846
 5114POPC   C4A65694  24.743  33.806   7.163
 5114POPC   C1B65695  24.320  33.696   6.216
 5114POPC   C2B65696  24.088  33.615   6.605
 5114POPC   C3B65697  24.347  33.552   6.948
 5114POPC   C4B65698  24.472  33.378   7.314
 5115POPC   NC365699   8.417  26.180   5.162
 5115POPC   PO465700   8.289  25.556   5.315
 5115POPC   GL165701   8.237  25.664   5.755
 5115POPC   GL265702   8.512  25.894   5.754
 5115POPC   C1A65703   8.075  25.779   6.185
 5115POPC   D2A65704   8.223  25.837   6.644
 5115POPC   C3A65705   8.009  25.889   7.059
 5115POPC   C4A65706   7.609  25.722   7.263
 5115POPC   C1B65707   8.588  25.707   6.168
 5115POPC   C2B65708   8.705  25.675   6.602
 5115POPC   C3B65709   8.577  25.841   7.021
 5115POPC   C4B65710   8.379  26.251   7.170
 5116POPC   NC365711  42.725  27.086   5.506
 5116POPC   PO465712  43.106  26.533   5.518
 5116POPC   GL165713  42.997  26.842   5.879
 5116POPC   GL265714  43.084  27.215   5.867
 5116POPC   C1A65715  42.942  26.914   6.343
 5116POPC   D2A65716  42.796  26.686   6.726
 5116POPC   C3A65717  42.676  26.821   7.124
 5116POPC   C4A65718  42.654  26.478   7.417
 5116POPC   C1B65719  43.404  27.079   6.160
 5116POPC   C2B65720  43.429  26.903   6.579
 5116POPC   C3B65721  43.171  27.007   6.939
 5116POPC   C4B65722  43.301  27.120   7.346
 5117POPC   NC365723  43.485  10.288   5.559
 5117POPC   PO465724  42.879  10.606   5.528
 5117POPC   GL165725  42.927  10.273   5.824
 5117POPC   GL265726  43.180  10.421   5.979
 5117POPC   C1A65727  42.775  10.223   6.236
 5117POPC   D2A65728  42.809  10.511   6.583
 5117POPC   C3A65729  43.109  10.391   6.900
 5117POPC   C4A65730  43.453  10.317   7.181
 5117POPC   C1B65731  42.980  10.811   6.153
 5117POPC   C2B65732  42.944  11.032   6.542
 5117POPC   C3B65733  43.015  10.895   6.949
 5117POPC   C4B65734  43.159  10.721   7.335
 5118POPC   NC365735   6.471  38.016   5.501
 5118POPC   PO465736   6.698  38.560   5.290
 5118POPC   GL165737   6.625  38.455   5.730
 5118POPC   GL265738   6.271  38.413   5.788
 5118POPC   C1A65739   6.628  38.614   6.138
 5118POPC   D2A65740   6.699  38.821   6.504
 5118POPC   C3A65741   6.545  38.650   6.873
 5118POPC   C4A65742   6.634  38.743   7.262
 5118POPC   C1B65743   6.378  38.136   6.170
 5118POPC   C2B65744   6.530  38.109   6.640
 5118POPC   C3B65745   6.454  38.054   7.094
 5118POPC   C4B65746   6.451  38.134   7.562
 5119POPC   NC365747   9.623   7.827   5.363
 5119POPC   PO465748   9.861   7.191   5.377
 5119POPC   GL165749   9.802   7.471   5.672
 5119POPC   GL265750  10.113   7.500   5.794
 5119POPC   C1A65751   9.635   7.416   6.063
 5119POPC   D2A65752   9.423   7.350   6.462
 5119POPC   C3A65753   9.565   7.412   6.855
 5119POPC   C4A65754   9.774   7.581   7.202
 5119POPC   C1B65755  10.113   7.282   6.191
 5119POPC   C2B65756  10.008   7.405   6.605
 5119POPC   C3B65757  10.066   7.203   7.007
 5119POPC   C4B65758  10.306   7.238   7.376
 5120POPC   NC365759  32.907   3.461   5.400
 5120POPC   PO465760  32.995   4.104   5.326
 5120POPC   GL165761  32.832   3.875   5.728
 5120POPC   GL265762  33.111   3.675   5.816
 5120POPC   C1A65763  32.718   3.503   6.064
 5120POPC   D2A65764  32.977   3.396   6.443
 5120POPC   C3A65765  32.811   3.568   6.835
 5120POPC   C4A65766  32.692   3.340   7.193
 5120POPC   C1B65767  33.077   3.860   6.230
 5120POPC   C2B65768  33.280   3.782   6.634
 5120POPC   C3B65769  33.316   3.443   6.887
 5120POPC   C4B65770  33.132   3.613   7.239
 5121POPC   NC365771  16.914  19.399   5.113
 5121POPC   PO465772  16.458  19.051   5.452
 5121POPC   GL165773  16.659  19.104   5.821
 5121POPC   GL265774  16.370  19.273   5.926
 5121POPC   C1A65775  16.936  18.959   6.192
 5121POPC   D2A65776  16.877  18.807   6.632
 5121POPC   C3A65777  16.808  19.040   7.025
 5121POPC   C4A65778  16.987  19.264   7.365
 5121POPC   C1B65779  16.462  19.129   6.345
 5121POPC   C2B65780  16.399  19.248   6.765
 5121POPC   C3B65781  16.273  19.018   7.130
 5121POPC   C4B65782  16.252  18.750   7.507
 5122POPC   NC365783  21.296  32.484   5.494
 5122POPC   PO465784  21.789  32.081   5.522
 5122POPC   GL165785  21.812  32.332   5.907
 5122POPC   GL265786  21.559  32.539   5.918
 5122POPC   C1A65787  21.713  32.339   6.373
 5122POPC   D2A65788  21.472  32.114   6.694
 5122POPC   C3A65789  21.646  32.188   7.117
 5122POPC   C4A65790  21.624  32.273   7.583
 5122POPC   C1B65791  21.334  32.169   6.094
 5122POPC   C2B65792  21.148  32.399   6.421
 5122POPC   C3B65793  21.281  32.560   6.853
 5122POPC   C4B65794  21.158  32.354   7.254
 5123POPC   NC365795  44.573  10.597   5.178
 5123POPC   PO465796   0.092  10.267   5.488
 5123POPC   GL165797  44.740  10.502   5.755
 5123POPC   GL265798  44.442  10.741   5.662
 5123POPC   C1A65799  44.590  10.353   6.162
 5123POPC   D2A65800  44.838  10.287   6.544
 5123POPC   C3A65801  44.689  10.483   6.921
 5123POPC   C4A65802  44.756  10.393   7.344
 5123POPC   C1B65803  44.487  10.847   6.112
 5123POPC   C2B65804  44.394  10.659   6.515
 5123POPC   C3B65805  44.241  10.727   6.910
 5123POPC   C4B65806  44.288  10.557   7.325
 5124POPC   NC365807  35.433  38.193   5.367
 5124POPC   PO465808  35.445  38.884   5.436
 5124POPC   GL165809  35.556  38.556   5.695
 5124POPC   GL265810  35.247  38.386   5.807
 5124POPC   C1A65811  35.592  38.582   6.134
 5124POPC   D2A65812  35.483  38.663   6.550
 5124POPC   C3A65813  35.426  38.378   6.852
 5124POPC   C4A65814  35.608  38.474   7.251
 5124POPC   C1B65815  35.245  38.170   6.213
 5124POPC   C2B65816  34.902  38.183   6.502
 5124POPC   C3B65817  34.913  38.188   6.921
 5124POPC   C4B65818  35.128  38.348   7.266
 5125POPC   NC365819   2.835  38.262   5.406
 5125POPC   PO465820   2.329  38.629   5.626
 5125POPC   GL165821   2.742  38.510   5.833
 5125POPC   GL265822   2.958  38.821   5.791
 5125POPC   C1A65823   2.968  38.204   6.148
 5125POPC   D2A65824   3.163  38.334   6.573
 5125POPC   C3A65825   2.995  38.295   6.993
 5125POPC   C4A65826   2.628  38.557   7.094
 5125POPC   C1B65827   3.000  38.704   6.232
 5125POPC   C2B65828   2.854  38.724   6.669
 5125POPC   C3B65829   3.116  38.776   7.053
 5125POPC   C4B65830   3.165  38.772   7.539
 5126POPC   NC365831   6.976   3.847   5.327
 5126POPC   PO465832   6.526   3.364   5.187
 5126POPC   GL165833   6.523   3.549   5.630
 5126POPC   GL265834   6.213   3.516   5.797
 5126POPC   C1A65835   6.656   3.420   6.082
 5126POPC   D2A65836   6.883   3.583   6.440
 5126POPC   C3A65837   6.843   3.518   6.857
 5126POPC   C4A65838   7.040   3.543   7.239
 5126POPC   C1B65839   6.224   3.626   6.222
 5126POPC   C2B65840   6.369   3.565   6.631
 5126POPC   C3B65841   6.378   3.645   7.064
 5126POPC   C4B65842   6.573   3.436   7.384
 5127POPC   NC365843  37.557  26.261   5.404
 5127POPC   PO465844  38.054  25.808   5.463
 5127POPC   GL165845  37.881  26.124   5.774
 5127POPC   GL265846  37.589  25.945   5.802
 5127POPC   C1A65847  37.706  26.266   6.198
 5127POPC   D2A65848  37.601  26.503   6.609
 5127POPC   C3A65849  37.797  26.309   6.980
 5127POPC   C4A65850  37.770  25.903   7.222
 5127POPC   C1B65851  37.391  25.784   6.160
 5127POPC   C2B65852  37.425  26.011   6.541
 5127POPC   C3B65853  37.400  25.871   6.907
 5127POPC   C4B65854  37.343  25.493   7.093
 5128POPC   NC365855   0.482  44.261   5.470
 5128POPC   PO465856   0.705   0.010   5.413
 5128POPC   GL165857   0.665  44.689   5.728
 5128POPC   GL265858   0.304  44.695   5.776
 5128POPC   C1A65859   0.632  44.664   6.195
 5128POPC   D2A65860   0.381  44.736   6.551
 5128POPC   C3A65861   0.455  44.588   6.933
 5128POPC   C4A65862   0.275  44.871   7.203
 5128POPC   C1B65863   0.100  44.539   6.158
 5128POPC   C2B65864   0.099  44.298   6.547
 5128POPC   C3B65865   0.196  44.156   6.960
 5128POPC   C4B65866   0.151  44.364   7.334
 5129POPC   NC365867  32.668  29.380   5.433
 5129POPC   PO465868  33.338  29.119   5.475
 5129POPC   GL165869  33.148  29.009   5.876
 5129POPC   GL265870  32.815  29.022   5.815
 5129POPC   C1A65871  33.107  29.103   6.326
 5129POPC   D2A65872  33.344  29.416   6.596
 5129POPC   C3A65873  33.308  29.316   7.029
 5129POPC   C4A65874  33.184  28.944   7.222
 5129POPC   C1B65875  32.630  29.213   6.148
 5129POPC   C2B65876  32.691  29.332   6.551
 5129POPC   C3B65877  32.765  29.087   6.878
 5129POPC   C4B65878  32.808  29.294   7.219
 5130POPC   NC365879  26.634  17.469   5.389
 5130POPC   PO465880  27.178  17.629   5.424
 5130POPC   GL165881  26.923  17.597   5.833
 5130POPC   GL265882  26.552  17.704   5.850
 5130POPC   C1A65883  26.933  17.588   6.308
 5130POPC   D2A65884  26.653  17.530   6.680
 5130POPC   C3A65885  26.800  17.500   7.135
 5130POPC   C4A65886  26.883  17.834   7.448
 5130POPC   C1B65887  26.488  17.364   6.158
 5130POPC   C2B65888  26.309  17.167   6.558
 5130POPC   C3B65889  26.370  17.249   6.999
 5130POPC   C4B65890  26.286  17.660   7.226
 5131POPC   NC365891   9.265  43.630   5.468
 5131POPC   PO465892   8.962  43.069   5.370
 5131POPC   GL165893   9.006  43.291   5.753
 5131POPC   GL265894   8.827  43.012   5.893
 5131POPC   C1A65895   8.849  43.494   6.110
 5131POPC   D2A65896   8.810  43.245   6.482
 5131POPC   C3A65897   8.805  43.363   6.886
 5131POPC   C4A65898   9.040  43.262   7.239
 5131POPC   C1B65899   8.703  42.721   6.167
 5131POPC   C2B65900   8.909  42.751   6.560
 5131POPC   C3B65901   9.084  42.856   6.929
 5131POPC   C4B65902   8.894  42.755   7.293
 5132POPC   NC365903  43.189  42.005   5.418
 5132POPC   PO465904  43.312  42.708   5.571
 5132POPC   GL165905  43.175  42.531   5.936
 5132POPC   GL265906  42.968  42.233   5.827
 5132POPC   C1A65907  43.285  42.611   6.373
 5132POPC   D2A65908  43.475  42.691   6.792
 5132POPC   C3A65909  43.289  42.393   7.071
 5132POPC   C4A65910  43.123  42.090   7.354
 5132POPC   C1B65911  42.808  42.346   6.246
 5132POPC   C2B65912  42.951  42.342   6.672
 5132POPC   C3B65913  42.810  42.039   6.962
 5132POPC   C4B65914  42.584  42.009   7.331
 5133POPC   NC365915  34.859  20.453   5.331
 5133POPC   PO465916  35.513  20.562   5.266
 5133POPC   GL165917  35.243  20.514   5.720
 5133POPC   GL265918  35.028  20.802   5.873
 5133POPC   C1A65919  35.382  20.578   6.210
 5133POPC   D2A65920  35.615  20.834   6.555
 5133POPC   C3A65921  35.679  20.637   6.942
 5133POPC   C4A65922  35.628  20.569   7.364
 5133POPC   C1B65923  34.882  20.623   6.299
 5133POPC   C2B65924  35.165  20.553   6.673
 5133POPC   C3B65925  35.174  20.605   7.105
 5133POPC   C4B65926  35.111  20.559   7.535
 5134POPC   NC365927  20.391  17.709   5.300
 5134POPC   PO465928  20.688  17.121   5.432
 5134POPC   GL165929  20.543  17.454   5.753
 5134POPC   GL265930  20.557  17.835   5.784
 5134POPC   C1A65931  20.340  17.426   6.166
 5134POPC   D2A65932  20.492  17.184   6.536
 5134POPC   C3A65933  20.662  17.380   6.899
 5134POPC   C4A65934  20.324  17.428   7.135
 5134POPC   C1B65935  20.641  17.852   6.229
 5134POPC   C2B65936  20.581  17.824   6.696
 5134POPC   C3B65937  20.651  17.848   7.148
 5134POPC   C4B65938  20.625  17.996   7.571
 5135POPC   NC365939  35.452  36.435   5.135
 5135POPC   PO465940  35.020  35.975   5.436
 5135POPC   GL165941  35.163  36.212   5.791
 5135POPC   GL265942  35.491  36.096   5.813
 5135POPC   C1A65943  35.219  36.188   6.245
 5135POPC   D2A65944  35.041  36.007   6.594
 5135POPC   C3A65945  35.153  36.253   6.920
 5135POPC   C4A65946  35.303  36.090   7.262
 5135POPC   C1B65947  35.725  36.238   6.186
 5135POPC   C2B65948  35.580  36.128   6.611
 5135POPC   C3B65949  35.648  36.328   6.952
 5135POPC   C4B65950  35.775  36.240   7.327
 5136POPC   NC365951  22.502  41.747   5.455
 5136POPC   PO465952  21.862  41.570   5.309
 5136POPC   GL165953  22.083  41.582   5.723
 5136POPC   GL265954  22.224  41.251   5.785
 5136POPC   C1A65955  22.028  41.767   6.166
 5136POPC   D2A65956  21.784  41.868   6.564
 5136POPC   C3A65957  21.945  41.794   6.984
 5136POPC   C4A65958  22.370  41.865   7.114
 5136POPC   C1B65959  22.335  41.369   6.218
 5136POPC   C2B65960  22.218  41.538   6.615
 5136POPC   C3B65961  22.266  41.374   7.030
 5136POPC   C4B65962  22.268  41.073   7.372
 5137POPC   NC365963  23.958  36.892   5.464
 5137POPC   PO465964  23.308  36.980   5.308
 5137POPC   GL165965  23.512  36.832   5.710
 5137POPC   GL265966  23.679  37.115   5.843
 5137POPC   C1A65967  23.443  36.710   6.164
 5137POPC   D2A65968  23.651  36.711   6.592
 5137POPC   C3A65969  23.453  36.685   7.008
 5137POPC   C4A65970  23.598  36.833   7.398
 5137POPC   C1B65971  23.896  37.325   6.182
 5137POPC   C2B65972  23.858  37.174   6.597
 5137POPC   C3B65973  23.728  37.144   7.028
 5137POPC   C4B65974  23.845  37.274   7.469
 5138POPC   NC365975  29.712  10.957   5.232
 5138POPC   PO465976  30.101  11.428   5.378
 5138POPC   GL165977  29.966  11.154   5.709
 5138POPC   GL265978  29.582  11.183   5.674
 5138POPC   C1A65979  30.099  11.168   6.159
 5138POPC   D2A65980  30.012  11.427   6.532
 5138POPC   C3A65981  30.084  11.316   6.971
 5138POPC   C4A65982  29.938  11.654   7.244
 5138POPC   C1B65983  29.558  11.065   6.109
 5138POPC   C2B65984  29.684  10.983   6.558
 5138POPC   C3B65985  29.465  10.965   6.960
 5138POPC   C4B65986  29.475  10.860   7.417
 5139POPC   NC365987  13.145   8.640   5.437
 5139POPC   PO465988  12.639   9.059   5.486
 5139POPC   GL165989  12.693   9.011   5.866
 5139POPC   GL265990  12.800   8.682   5.859
 5139POPC   C1A65991  12.876   9.104   6.260
 5139POPC   D2A65992  12.948   8.825   6.635
 5139POPC   C3A65993  12.938   9.076   7.015
 5139POPC   C4A65994  13.177   8.982   7.426
 5139POPC   C1B65995  12.558   8.683   6.231
 5139POPC   C2B65996  12.529   8.508   6.633
 5139POPC   C3B65997  12.512   8.735   7.021
 5139POPC   C4B65998  12.672   8.960   7.425
 5140POPC   NC365999  38.561  18.041   5.311
 5140POPC   PO466000  38.554  18.672   5.514
 5140POPC   GL166001  38.407  18.290   5.759
 5140POPC   GL266002  38.640  17.964   5.808
 5140POPC   C1A66003  38.353  18.436   6.189
 5140POPC   D2A66004  38.672  18.603   6.471
 5140POPC   C3A66005  38.634  18.658   6.904
 5140POPC   C4A66006  38.460  18.441   7.271
 5140POPC   C1B66007  38.367  17.938   6.178
 5140POPC   C2B66008  38.453  18.128   6.596
 5140POPC   C3B66009  38.264  18.056   6.968
 5140POPC   C4B66010  38.482  17.910   7.330
 5141POPC   NC366011  36.882  37.341   5.077
 5141POPC   PO466012  36.537  37.636   5.631
 5141POPC   GL166013  36.755  37.693   5.955
 5141POPC   GL266014  36.581  37.436   6.142
 5141POPC   C1A66015  37.083  37.559   6.218
 5141POPC   D2A66016  37.341  37.518   6.561
 5141POPC   C3A66017  37.139  37.661   6.944
 5141POPC   C4A66018  37.179  37.466   7.357
 5141POPC   C1B66019  36.448  37.869   6.329
 5141POPC   C2B66020  36.625  38.046   6.729
 5141POPC   C3B66021  36.651  37.716   7.035
 5141POPC   C4B66022  36.773  37.244   7.085
 5142POPC   NC366023   4.989  28.682   5.488
 5142POPC   PO466024   5.325  29.288   5.403
 5142POPC   GL166025   4.977  29.178   5.742
 5142POPC   GL266026   4.870  28.855   5.943
 5142POPC   C1A66027   4.870  29.311   6.174
 5142POPC   D2A66028   5.111  29.292   6.566
 5142POPC   C3A66029   4.946  29.267   6.975
 5142POPC   C4A66030   5.196  29.088   7.295
 5142POPC   C1B66031   4.901  28.817   6.403
 5142POPC   C2B66032   4.783  28.803   6.832
 5142POPC   C3B66033   4.704  28.812   7.245
 5142POPC   C4B66034   4.824  29.073   7.636
 5143POPC   NC366035  42.863   8.684   5.323
 5143POPC   PO466036  43.209   9.227   5.302
 5143POPC   GL166037  43.119   8.996   5.673
 5143POPC   GL266038  43.244   8.655   5.650
 5143POPC   C1A66039  42.955   9.085   6.089
 5143POPC   D2A66040  43.029   8.922   6.496
 5143POPC   C3A66041  43.086   9.173   6.872
 5143POPC   C4A66042  43.050   8.988   7.258
 5143POPC   C1B66043  43.217   8.625   6.094
 5143POPC   C2B66044  43.417   8.588   6.494
 5143POPC   C3B66045  43.466   8.771   6.900
 5143POPC   C4B66046  43.390   8.606   7.297
 5144POPC   NC366047  38.682  16.345   5.399
 5144POPC   PO466048  38.297  15.805   5.321
 5144POPC   GL166049  38.197  15.905   5.703
 5144POPC   GL266050  38.081  15.559   5.736
 5144POPC   C1A66051  38.344  16.123   6.081
 5144POPC   D2A66052  38.305  16.347   6.488
 5144POPC   C3A66053  38.480  16.220   6.888
 5144POPC   C4A66054  38.204  16.159   7.248
 5144POPC   C1B66055  38.254  15.589   6.159
 5144POPC   C2B66056  38.318  15.835   6.520
 5144POPC   C3B66057  38.313  15.736   6.941
 5144POPC   C4B66058  38.424  15.710   7.369
 5145POPC   NC366059   7.229  40.361   5.527
 5145POPC   PO466060   7.526  39.861   5.310
 5145POPC   GL166061   7.622  39.959   5.757
 5145POPC   GL266062   7.669  40.318   5.806
 5145POPC   C1A66063   7.516  39.921   6.217
 5145POPC   D2A66064   7.161  40.068   6.464
 5145POPC   C3A66065   7.206  39.996   6.901
 5145POPC   C4A66066   7.372  40.096   7.287
 5145POPC   C1B66067   7.826  40.329   6.223
 5145POPC   C2B66068   7.625  40.228   6.611
 5145POPC   C3B66069   7.740  39.969   6.973
 5145POPC   C4B66070   7.879  39.897   7.409
 5146POPC   NC366071  30.051  14.505   5.453
 5146POPC   PO466072  29.705  14.009   5.235
 5146POPC   GL166073  29.861  14.084   5.710
 5146POPC   GL266074  29.703  14.420   5.837
 5146POPC   C1A66075  30.101  14.250   6.106
 5146POPC   D2A66076  29.969  14.560   6.409
 5146POPC   C3A66077  30.049  14.533   6.854
 5146POPC   C4A66078  30.236  14.861   7.085
 5146POPC   C1B66079  29.607  14.225   6.241
 5146POPC   C2B66080  29.672  14.218   6.696
 5146POPC   C3B66081  29.538  14.525   7.013
 5146POPC   C4B66082  29.264  14.532   7.371
 5147POPC   NC366083  20.332  25.697   5.312
 5147POPC   PO466084  20.733  25.218   5.142
 5147POPC   GL166085  20.759  25.374   5.636
 5147POPC   GL266086  20.554  25.590   5.801
 5147POPC   C1A66087  20.900  25.353   6.122
 5147POPC   D2A66088  20.990  25.126   6.558
 5147POPC   C3A66089  20.797  25.153   7.005
 5147POPC   C4A66090  20.700  25.242   7.445
 5147POPC   C1B66091  20.414  25.477   6.234
 5147POPC   C2B66092  20.593  25.475   6.664
 5147POPC   C3B66093  20.398  25.506   7.095
 5147POPC   C4B66094  20.276  25.513   7.553
 5148POPC   NC366095  39.697  32.319   5.444
 5148POPC   PO466096  39.232  31.900   5.327
 5148POPC   GL166097  39.166  32.157   5.728
 5148POPC   GL266098  39.483  32.162   5.870
 5148POPC   C1A66099  39.074  32.230   6.206
 5148POPC   D2A66100  38.896  32.193   6.629
 5148POPC   C3A66101  39.209  32.308   6.947
 5148POPC   C4A66102  39.333  32.244   7.406
 5148POPC   C1B66103  39.723  32.215   6.238
 5148POPC   C2B66104  39.725  32.293   6.683
 5148POPC   C3B66105  39.715  32.327   7.091
 5148POPC   C4B66106  39.788  31.993   7.360
 5149POPC   NC366107  32.519  40.699   5.382
 5149POPC   PO466108  31.832  40.728   5.427
 5149POPC   GL166109  32.154  40.686   5.772
 5149POPC   GL266110  32.504  40.787   5.887
 5149POPC   C1A66111  32.119  40.728   6.224
 5149POPC   D2A66112  31.864  40.698   6.563
 5149POPC   C3A66113  31.994  40.741   6.960
 5149POPC   C4A66114  32.258  40.489   7.182
 5149POPC   C1B66115  32.418  41.142   6.190
 5149POPC   C2B66116  32.320  40.999   6.625
 5149POPC   C3B66117  32.441  40.976   7.050
 5149POPC   C4B66118  32.597  41.209   7.390
 5150POPC   NC366119  32.400  38.978   5.081
 5150POPC   PO466120  32.447  39.526   5.513
 5150POPC   GL166121  32.395  39.186   5.806
 5150POPC   GL266122  32.084  39.300   5.914
 5150POPC   C1A66123  32.345  39.038   6.271
 5150POPC   D2A66124  32.363  39.254   6.703
 5150POPC   C3A66125  32.349  38.990   7.108
 5150POPC   C4A66126  32.507  38.943   7.549
 5150POPC   C1B66127  32.254  39.560   6.273
 5150POPC   C2B66128  32.091  39.698   6.693
 5150POPC   C3B66129  31.978  39.547   7.133
 5150POPC   C4B66130  31.621  39.425   7.447
 5151POPC   NC366131  19.853  18.546   5.473
 5151POPC   PO466132  19.594  17.964   5.192
 5151POPC   GL166133  19.778  18.060   5.637
 5151POPC   GL266134  20.153  18.149   5.655
 5151POPC   C1A66135  19.682  18.227   6.088
 5151POPC   D2A66136  19.859  18.173   6.504
 5151POPC   C3A66137  19.681  18.273   6.898
 5151POPC   C4A66138  19.836  18.255   7.302
 5151POPC   C1B66139  20.169  18.421   6.023
 5151POPC   C2B66140  20.041  18.630   6.382
 5151POPC   C3B66141  20.108  18.544   6.826
 5151POPC   C4B66142  20.044  18.720   7.246
 5152POPC   NC366143  37.200  30.683   5.378
 5152POPC   PO466144  36.544  30.686   5.496
 5152POPC   GL166145  36.869  30.708   5.808
 5152POPC   GL266146  36.998  31.039   5.767
 5152POPC   C1A66147  37.033  30.628   6.236
 5152POPC   D2A66148  37.139  30.789   6.657
 5152POPC   C3A66149  36.836  30.606   6.924
 5152POPC   C4A66150  36.650  30.480   7.290
 5152POPC   C1B66151  36.856  31.106   6.187
 5152POPC   C2B66152  36.679  31.040   6.587
 5152POPC   C3B66153  36.858  31.120   6.969
 5152POPC   C4B66154  36.777  30.962   7.388
 5153POPC   NC366155  13.488  39.203   5.548
 5153POPC   PO466156  14.003  39.707   5.522
 5153POPC   GL166157  13.690  39.554   5.874
 5153POPC   GL266158  13.768  39.212   5.964
 5153POPC   C1A66159  13.421  39.420   6.243
 5153POPC   D2A66160  13.561  39.426   6.661
 5153POPC   C3A66161  13.439  39.226   7.009
 5153POPC   C4A66162  13.219  39.404   7.321
 5153POPC   C1B66163  13.966  39.433   6.287
 5153POPC   C2B66164  14.041  39.283   6.677
 5153POPC   C3B66165  13.933  39.346   7.073
 5153POPC   C4B66166  13.823  39.192   7.467
 5154POPC   NC366167   4.863  14.505   5.334
 5154POPC   PO466168   5.176  13.905   5.423
 5154POPC   GL166169   4.920  14.138   5.694
 5154POPC   GL266170   5.139  14.391   5.735
 5154POPC   C1A66171   4.767  14.258   6.101
 5154POPC   D2A66172   4.683  14.194   6.549
 5154POPC   C3A66173   5.077  14.139   6.793
 5154POPC   C4A66174   5.073  14.185   7.240
 5154POPC   C1B66175   5.187  14.551   6.131
 5154POPC   C2B66176   5.019  14.585   6.520
 5154POPC   C3B66177   5.097  14.623   6.941
 5154POPC   C4B66178   5.008  14.834   7.266
 5155POPC   NC366179  39.308  10.364   5.390
 5155POPC   PO466180  39.629  10.872   5.511
 5155POPC   GL166181  39.220  10.742   5.789
 5155POPC   GL266182  39.153  10.365   5.875
 5155POPC   C1A66183  39.012  10.793   6.224
 5155POPC   D2A66184  38.998  11.046   6.651
 5155POPC   C3A66185  39.266  10.884   7.009
 5155POPC   C4A66186  39.567  10.747   7.325
 5155POPC   C1B66187  39.200  10.285   6.292
 5155POPC   C2B66188  38.904  10.265   6.632
 5155POPC   C3B66189  38.903  10.488   7.020
 5155POPC   C4B66190  39.300  10.333   7.202
 5156POPC   NC366191   6.456  34.506   5.421
 5156POPC   PO466192   6.894  34.993   5.330
 5156POPC   GL166193   6.882  34.744   5.731
 5156POPC   GL266194   6.699  34.424   5.872
 5156POPC   C1A66195   7.015  34.752   6.177
 5156POPC   D2A66196   6.956  34.972   6.584
 5156POPC   C3A66197   6.628  34.789   6.836
 5156POPC   C4A66198   6.626  34.863   7.266
 5156POPC   C1B66199   6.450  34.131   6.163
 5156POPC   C2B66200   6.396  34.207   6.628
 5156POPC   C3B66201   6.547  34.308   7.038
 5156POPC   C4B66202   6.958  34.490   7.146
 5157POPC   NC366203  28.140  28.000   5.461
 5157POPC   PO466204  28.361  27.326   5.486
 5157POPC   GL166205  28.366  27.637   5.827
 5157POPC   GL266206  28.703  27.765   5.955
 5157POPC   C1A66207  28.198  27.665   6.255
 5157POPC   D2A66208  28.415  27.567   6.644
 5157POPC   C3A66209  28.312  27.722   7.077
 5157POPC   C4A66210  28.071  28.012   7.317
 5157POPC   C1B66211  28.639  27.383   6.210
 5157POPC   C2B66212  28.775  27.199   6.615
 5157POPC   C3B66213  28.768  27.467   6.986
 5157POPC   C4B66214  28.574  27.430   7.407
 5158POPC   NC366215  21.712   5.624   5.155
 5158POPC   PO466216  21.939   6.178   5.535
 5158POPC   GL166217  22.113   6.211   5.940
 5158POPC   GL266218  22.058   5.861   6.037
 5158POPC   C1A66219  22.192   6.148   6.409
 5158POPC   D2A66220  22.084   5.762   6.604
 5158POPC   C3A66221  21.946   5.832   7.020
 5158POPC   C4A66222  22.078   5.850   7.423
 5158POPC   C1B66223  22.450   5.721   6.220
 5158POPC   C2B66224  22.603   5.620   6.618
 5158POPC   C3B66225  22.367   5.523   6.981
 5158POPC   C4B66226  22.425   5.388   7.391
 5159POPC   NC366227  16.696  38.793   5.349
 5159POPC   PO466228  16.379  38.253   5.433
 5159POPC   GL166229  16.669  38.332   5.748
 5159POPC   GL266230  16.681  38.671   5.852
 5159POPC   C1A66231  16.739  38.159   6.147
 5159POPC   D2A66232  16.820  38.312   6.548
 5159POPC   C3A66233  16.762  38.144   6.956
 5159POPC   C4A66234  16.890  38.361   7.356
 5159POPC   C1B66235  16.960  38.670   6.224
 5159POPC   C2B66236  17.065  38.813   6.589
 5159POPC   C3B66237  16.900  38.648   6.936
 5159POPC   C4B66238  16.700  38.834   7.268
 5160POPC   NC366239  42.316  21.622   5.466
 5160POPC   PO466240  42.305  20.939   5.281
 5160POPC   GL166241  42.247  21.013   5.770
 5160POPC   GL266242  42.089  21.354   5.838
 5160POPC   C1A66243  42.341  21.160   6.233
 5160POPC   D2A66244  42.484  21.413   6.612
 5160POPC   C3A66245  42.431  21.185   6.994
 5160POPC   C4A66246  42.269  21.050   7.405
 5160POPC   C1B66247  41.882  21.445   6.241
 5160POPC   C2B66248  41.990  21.274   6.637
 5160POPC   C3B66249  41.986  21.457   7.033
 5160POPC   C4B66250  42.170  21.566   7.460
 5161POPC   NC366251  11.269  36.464   5.304
 5161POPC   PO466252  11.099  35.831   5.232
 5161POPC   GL166253  11.221  35.959   5.660
 5161POPC   GL266254  11.519  36.187   5.709
 5161POPC   C1A66255  11.171  36.083   6.117
 5161POPC   D2A66256  11.200  36.484   6.408
 5161POPC   C3A66257  11.143  36.428   6.855
 5161POPC   C4A66258  11.167  36.378   7.302
 5161POPC   C1B66259  11.627  36.281   6.158
 5161POPC   C2B66260  11.622  36.292   6.601
 5161POPC   C3B66261  11.511  36.085   6.987
 5161POPC   C4B66262  11.240  35.743   7.141
 5162POPC   NC366263  20.366  30.222   5.365
 5162POPC   PO466264  20.752  29.670   5.424
 5162POPC   GL166265  20.537  29.887   5.733
 5162POPC   GL266266  20.712  30.233   5.744
 5162POPC   C1A66267  20.328  29.815   6.132
 5162POPC   D2A66268  20.223  29.908   6.572
 5162POPC   C3A66269  20.363  29.622   6.906
 5162POPC   C4A66270  20.392  29.649   7.350
 5162POPC   C1B66271  20.965  30.236   6.135
 5162POPC   C2B66272  21.021  30.348   6.569
 5162POPC   C3B66273  20.728  30.354   6.892
 5162POPC   C4B66274  20.430  30.112   7.148
 5163POPC   NC366275  42.932  38.730   5.297
 5163POPC   PO466276  43.210  38.098   5.380
 5163POPC   GL166277  43.092  38.434   5.715
 5163POPC   GL266278  43.349  38.720   5.646
 5163POPC   C1A66279  42.879  38.488   6.169
 5163POPC   D2A66280  42.855  38.600   6.650
 5163POPC   C3A66281  43.062  38.338   6.989
 5163POPC   C4A66282  43.033  38.313   7.453
 5163POPC   C1B66283  43.359  38.648   6.111
 5163POPC   C2B66284  43.343  38.479   6.536
 5163POPC   C3B66285  43.361  38.748   6.917
 5163POPC   C4B66286  43.419  38.600   7.331
 5164POPC   NC366287  23.262  27.809   5.145
 5164POPC   PO466288  22.586  27.823   5.392
 5164POPC   GL166289  22.958  27.719   5.679
 5164POPC   GL266290  23.070  27.375   5.813
 5164POPC   C1A66291  22.933  27.754   6.149
 5164POPC   D2A66292  22.979  27.448   6.462
 5164POPC   C3A66293  23.011  27.604   6.876
 5164POPC   C4A66294  22.769  27.552   7.254
 5164POPC   C1B66295  23.251  27.126   6.160
 5164POPC   C2B66296  23.436  27.257   6.545
 5164POPC   C3B66297  23.318  27.164   6.953
 5164POPC   C4B66298  23.209  27.320   7.317
 5165POPC   NC366299  22.445   0.903   5.534
 5165POPC   PO466300  21.926   1.283   5.282
 5165POPC   GL166301  22.125   1.271   5.691
 5165POPC   GL266302  22.432   1.449   5.691
 5165POPC   C1A66303  22.156   1.114   6.110
 5165POPC   D2A66304  21.834   1.146   6.438
 5165POPC   C3A66305  21.929   1.165   6.885
 5165POPC   C4A66306  22.181   1.047   7.291
 5165POPC   C1B66307  22.502   1.505   6.146
 5165POPC   C2B66308  22.338   1.311   6.555
 5165POPC   C3B66309  22.344   1.447   6.983
 5165POPC   C4B66310  22.376   1.495   7.432
 5166POPC   NC366311  26.654  12.845   5.407
 5166POPC   PO466312  26.791  13.281   5.846
 5166POPC   GL166313  26.640  12.911   5.941
 5166POPC   GL266314  26.817  12.613   5.846
 5166POPC   C1A66315  26.712  12.868   6.370
 5166POPC   D2A66316  26.931  12.678   6.688
 5166POPC   C3A66317  26.839  12.978   6.986
 5166POPC   C4A66318  26.928  12.943   7.408
 5166POPC   C1B66319  26.765  12.394   6.247
 5166POPC   C2B66320  26.492  12.448   6.625
 5166POPC   C3B66321  26.541  12.587   7.074
 5166POPC   C4B66322  26.493  12.693   7.558
 5167POPC   NC366323   6.295  23.910   5.626
 5167POPC   PO466324   6.945  24.130   5.518
 5167POPC   GL166325   6.757  23.971   5.875
 5167POPC   GL266326   6.701  23.623   5.798
 5167POPC   C1A66327   6.598  24.091   6.293
 5167POPC   D2A66328   6.575  24.011   6.746
 5167POPC   C3A66329   6.950  23.793   6.903
 5167POPC   C4A66330   6.993  23.427   7.123
 5167POPC   C1B66331   6.508  23.530   6.217
 5167POPC   C2B66332   6.646  23.469   6.651
 5167POPC   C3B66333   6.486  23.516   7.070
 5167POPC   C4B66334   6.263  23.243   7.348
 5168POPC   NC366335  42.811  34.950   5.508
 5168POPC   PO466336  42.929  34.317   5.703
 5168POPC   GL166337  43.213  34.489   5.939
 5168POPC   GL266338  43.227  34.823   5.825
 5168POPC   C1A66339  43.195  34.406   6.361
 5168POPC   D2A66340  43.327  34.276   6.731
 5168POPC   C3A66341  43.158  34.412   7.111
 5168POPC   C4A66342  43.303  34.610   7.493
 5168POPC   C1B66343  43.060  34.880   6.227
 5168POPC   C2B66344  42.922  34.790   6.604
 5168POPC   C3B66345  43.264  34.826   6.849
 5168POPC   C4B66346  43.058  34.949   7.182
 5169POPC   NC366347  29.874  35.852   5.304
 5169POPC   PO466348  30.140  35.247   5.473
 5169POPC   GL166349  30.133  35.377   5.873
 5169POPC   GL266350  29.785  35.424   5.860
 5169POPC   C1A66351  29.981  35.271   6.318
 5169POPC   D2A66352  29.705  35.093   6.658
 5169POPC   C3A66353  29.924  35.062   7.042
 5169POPC   C4A66354  30.082  35.436   7.243
 5169POPC   C1B66355  29.665  35.704   6.182
 5169POPC   C2B66356  29.688  35.619   6.615
 5169POPC   C3B66357  29.614  35.485   7.025
 5169POPC   C4B66358  29.680  35.784   7.400
 5170POPC   NC366359   7.477  41.329   5.538
 5170POPC   PO466360   7.036  41.776   5.585
 5170POPC   GL166361   7.316  41.641   5.896
 5170POPC   GL266362   7.692  41.705   5.871
 5170POPC   C1A66363   7.394  41.570   6.289
 5170POPC   D2A66364   7.636  41.652   6.620
 5170POPC   C3A66365   7.369  41.565   6.942
 5170POPC   C4A66366   7.550  41.733   7.296
 5170POPC   C1B66367   7.868  41.421   6.196
 5170POPC   C2B66368   7.943  41.236   6.622
 5170POPC   C3B66369   7.814  41.346   7.072
 5170POPC   C4B66370   8.043  41.516   7.456
 5171POPC   NC366371  25.725  36.410   5.630
 5171POPC   PO466372  26.169  36.213   5.190
 5171POPC   GL166373  26.112  35.896   5.559
 5171POPC   GL266374  25.860  35.953   5.821
 5171POPC   C1A66375  26.308  35.812   5.999
 5171POPC   D2A66376  26.300  35.739   6.478
 5171POPC   C3A66377  26.293  36.029   6.826
 5171POPC   C4A66378  26.100  36.144   7.210
 5171POPC   C1B66379  25.949  36.125   6.243
 5171POPC   C2B66380  26.003  36.380   6.595
 5171POPC   C3B66381  25.780  36.498   6.962
 5171POPC   C4B66382  25.666  36.349   7.357
 5172POPC   NC366383  20.424  37.295   5.390
 5172POPC   PO466384  20.552  37.973   5.357
 5172POPC   GL166385  20.548  37.742   5.741
 5172POPC   GL266386  20.869  37.799   5.760
 5172POPC   C1A66387  20.451  37.637   6.199
 5172POPC   D2A66388  20.220  37.519   6.587
 5172POPC   C3A66389  20.455  37.503   6.967
 5172POPC   C4A66390  20.683  37.768   7.206
 5172POPC   C1B66391  20.958  37.685   6.163
 5172POPC   C2B66392  20.813  37.833   6.558
 5172POPC   C3B66393  21.057  37.945   6.905
 5172POPC   C4B66394  21.268  37.756   7.240
 5173POPC   NC366395  32.867  43.245   5.475
 5173POPC   PO466396  32.917  42.593   5.721
 5173POPC   GL166397  33.012  42.939   5.937
 5173POPC   GL266398  33.233  43.208   5.826
 5173POPC   C1A66399  33.025  42.907   6.365
 5173POPC   D2A66400  32.775  42.970   6.709
 5173POPC   C3A66401  33.072  42.926   7.026
 5173POPC   C4A66402  33.242  42.917   7.467
 5173POPC   C1B66403  32.956  43.399   6.146
 5173POPC   C2B66404  33.053  43.381   6.569
 5173POPC   C3B66405  32.840  43.423   6.939
 5173POPC   C4B66406  33.046  43.347   7.283
 5174POPC   NC366407   1.492  22.726   5.383
 5174POPC   PO466408   2.175  23.014   5.417
 5174POPC   GL166409   2.077  22.893   5.820
 5174POPC   GL266410   1.754  22.716   5.842
 5174POPC   C1A66411   1.988  23.022   6.258
 5174POPC   D2A66412   2.237  22.918   6.612
 5174POPC   C3A66413   2.111  23.064   7.026
 5174POPC   C4A66414   2.086  22.834   7.413
 5174POPC   C1B66415   1.641  22.627   6.291
 5174POPC   C2B66416   1.732  22.820   6.723
 5174POPC   C3B66417   1.638  22.942   7.171
 5174POPC   C4B66418   1.685  23.120   7.584
 5175POPC   NC366419  13.123  20.623   5.426
 5175POPC   PO466420  12.473  20.460   5.335
 5175POPC   GL166421  12.702  20.664   5.703
 5175POPC   GL266422  12.855  20.983   5.721
 5175POPC   C1A66423  12.985  20.633   6.143
 5175POPC   D2A66424  12.961  20.393   6.571
 5175POPC   C3A66425  12.841  20.364   7.026
 5175POPC   C4A66426  13.019  20.387   7.469
 5175POPC   C1B66427  12.559  20.888   6.110
 5175POPC   C2B66428  12.675  20.851   6.536
 5175POPC   C3B66429  12.469  20.787   6.950
 5175POPC   C4B66430  12.626  20.690   7.361
 5176POPC   NC366431  10.063   0.109   5.425
 5176POPC   PO466432  10.421  44.407   5.357
 5176POPC   GL166433  10.538  44.364   5.787
 5176POPC   GL266434  10.291  44.630   5.877
 5176POPC   C1A66435  10.499  44.335   6.242
 5176POPC   D2A66436  10.673  44.558   6.614
 5176POPC   C3A66437  10.557  44.473   7.049
 5176POPC   C4A66438  10.783  44.226   7.402
 5176POPC   C1B66439  10.480  44.859   6.240
 5176POPC   C2B66440  10.364   0.033   6.665
 5176POPC   C3B66441  10.521   0.205   7.060
 5176POPC   C4B66442  10.813  44.905   7.207
 5177POPC   NC366443  23.900   2.731   5.380
 5177POPC   PO466444  23.573   3.229   5.756
 5177POPC   GL166445  23.816   2.888   5.863
 5177POPC   GL266446  24.076   3.071   5.725
 5177POPC   C1A66447  23.811   2.615   6.219
 5177POPC   D2A66448  23.443   2.545   6.468
 5177POPC   C3A66449  23.546   2.761   6.845
 5177POPC   C4A66450  23.608   2.551   7.206
 5177POPC   C1B66451  24.075   3.176   6.190
 5177POPC   C2B66452  23.903   3.066   6.597
 5177POPC   C3B66453  23.820   3.180   7.031
 5177POPC   C4B66454  23.959   2.908   7.340
 5178POPC   NC366455   0.173   4.714   5.376
 5178POPC   PO466456   0.604   4.198   5.408
 5178POPC   GL166457   0.405   4.202   5.823
 5178POPC   GL266458   0.475   3.870   5.926
 5178POPC   C1A66459   0.317   4.380   6.253
 5178POPC   D2A66460   0.413   4.321   6.692
 5178POPC   C3A66461   0.243   4.609   7.021
 5178POPC   C4A66462   0.283   5.047   7.187
 5178POPC   C1B66463   0.225   3.876   6.312
 5178POPC   C2B66464   0.076   3.928   6.735
 5178POPC   C3B66465   0.363   3.979   7.065
 5178POPC   C4B66466   0.630   4.320   7.180
 5179POPC   NC366467  20.986   8.080   5.447
 5179POPC   PO466468  20.381   8.171   5.403
 5179POPC   GL166469  20.622   8.165   5.810
 5179POPC   GL266470  20.932   8.419   5.824
 5179POPC   C1A66471  20.506   8.010   6.243
 5179POPC   D2A66472  20.558   8.285   6.595
 5179POPC   C3A66473  20.539   8.210   7.041
 5179POPC   C4A66474  20.523   8.573   7.307
 5179POPC   C1B66475  20.968   8.186   6.209
 5179POPC   C2B66476  21.056   8.214   6.665
 5179POPC   C3B66477  21.018   8.416   7.085
 5179POPC   C4B66478  21.019   8.676   7.473
 5180POPC   NC366479   9.490  36.907   5.578
 5180POPC   PO466480  10.075  37.219   5.449
 5180POPC   GL166481   9.933  36.954   5.825
 5180POPC   GL266482   9.931  36.593   5.659
 5180POPC   C1A66483   9.711  37.032   6.252
 5180POPC   D2A66484   9.668  37.324   6.645
 5180POPC   C3A66485   9.556  37.160   7.019
 5180POPC   C4A66486   9.913  37.005   7.198
 5180POPC   C1B66487   9.743  36.473   6.067
 5180POPC   C2B66488   9.863  36.592   6.470
 5180POPC   C3B66489   9.686  36.713   6.836
 5180POPC   C4B66490   9.702  36.560   7.238
 5181POPC   NC366491  29.439   2.515   5.002
 5181POPC   PO466492  29.148   2.923   5.482
 5181POPC   GL166493  28.900   2.813   5.819
 5181POPC   GL266494  28.846   2.469   5.844
 5181POPC   C1A66495  28.764   2.838   6.228
 5181POPC   D2A66496  29.023   2.934   6.550
 5181POPC   C3A66497  28.936   2.838   6.950
 5181POPC   C4A66498  29.291   3.016   7.191
 5181POPC   C1B66499  29.239   2.492   6.102
 5181POPC   C2B66500  29.532   2.508   6.457
 5181POPC   C3B66501  29.341   2.542   6.849
 5181POPC   C4B66502  29.039   2.355   7.146
 5182POPC   NC366503  15.249  39.764   5.418
 5182POPC   PO466504  15.522  40.454   5.392
 5182POPC   GL166505  15.390  40.159   5.717
 5182POPC   GL266506  15.025  40.153   5.709
 5182POPC   C1A66507  15.247  39.950   6.130
 5182POPC   D2A66508  15.416  40.075   6.531
 5182POPC   C3A66509  15.206  39.950   6.881
 5182POPC   C4A66510  15.096  39.762   7.242
 5182POPC   C1B66511  14.779  40.202   6.080
 5182POPC   C2B66512  14.914  40.208   6.502
 5182POPC   C3B66513  14.867  40.419   6.878
 5182POPC   C4B66514  14.728  40.276   7.254
 5183POPC   NC366515   0.507  13.880   5.005
 5183POPC   PO466516   0.425  13.313   5.465
 5183POPC   GL166517   0.560  13.370   5.881
 5183POPC   GL266518   0.410  13.677   5.864
 5183POPC   C1A66519   0.605  13.587   6.302
 5183POPC   D2A66520   0.420  13.670   6.673
 5183POPC   C3A66521   0.625  13.638   7.055
 5183POPC   C4A66522   0.269  13.750   7.284
 5183POPC   C1B66523   0.687  14.031   6.112
 5183POPC   C2B66524   0.680  14.094   6.559
 5183POPC   C3B66525   0.839  14.183   6.992
 5183POPC   C4B66526   0.662  14.046   7.397
 5184POPC   NC366527   1.617  16.219   5.502
 5184POPC   PO466528   0.952  16.127   5.381
 5184POPC   GL166529   1.103  16.221   5.790
 5184POPC   GL266530   1.257  15.912   5.860
 5184POPC   C1A66531   0.993  16.147   6.249
 5184POPC   D2A66532   1.036  15.930   6.656
 5184POPC   C3A66533   1.235  16.153   7.002
 5184POPC   C4A66534   1.518  16.047   7.358
 5184POPC   C1B66535   1.348  15.687   6.255
 5184POPC   C2B66536   1.514  15.506   6.651
 5184POPC   C3B66537   1.359  15.637   7.059
 5184POPC   C4B66538   1.385  15.560   7.512
 5185POPC   NC366539  15.261  23.624   5.299
 5185POPC   PO466540  14.888  24.178   5.063
 5185POPC   GL166541  15.026  23.997   5.559
 5185POPC   GL266542  15.341  23.859   5.733
 5185POPC   C1A66543  14.882  23.805   6.004
 5185POPC   D2A66544  14.943  23.610   6.456
 5185POPC   C3A66545  14.999  23.842   6.867
 5185POPC   C4A66546  15.039  23.748   7.318
 5185POPC   C1B66547  15.372  23.825   6.206
 5185POPC   C2B66548  15.438  23.690   6.652
 5185POPC   C3B66549  15.401  23.494   7.076
 5185POPC   C4B66550  15.490  23.663   7.509
 5186POPC   NC366551  16.598  43.931   5.440
 5186POPC   PO466552  17.040  43.360   5.401
 5186POPC   GL166553  16.846  43.606   5.724
 5186POPC   GL266554  16.556  43.466   5.695
 5186POPC   C1A66555  16.657  43.875   6.089
 5186POPC   D2A66556  16.773  44.054   6.487
 5186POPC   C3A66557  16.660  43.881   6.883
 5186POPC   C4A66558  16.701  43.985   7.302
 5186POPC   C1B66559  16.402  43.452   6.094
 5186POPC   C2B66560  16.544  43.549   6.520
 5186POPC   C3B66561  16.610  43.368   6.964
 5186POPC   C4B66562  16.513  43.520   7.419
 5187POPC   NC366563  44.125  42.338   5.446
 5187POPC   PO466564  44.729  42.213   5.467
 5187POPC   GL166565  44.621  42.335   5.846
 5187POPC   GL266566  44.444  42.674   5.870
 5187POPC   C1A66567  44.767  42.139   6.206
 5187POPC   D2A66568  44.961  42.242   6.578
 5187POPC   C3A66569  44.862  42.148   6.980
 5187POPC   C4A66570  44.766  42.507   7.168
 5187POPC   C1B66571  44.269  42.462   6.200
 5187POPC   C2B66572  44.386  42.243   6.535
 5187POPC   C3B66573  44.380  42.329   6.911
 5187POPC   C4B66574  44.333  42.229   7.334
 5188POPC   NC366575  40.213  12.020   5.451
 5188POPC   PO466576  40.056  11.307   5.199
 5188POPC   GL166577  40.020  11.193   5.724
 5188POPC   GL266578  40.014  11.412   5.968
 5188POPC   C1A66579  39.935  10.935   6.130
 5188POPC   D2A66580  39.924  11.122   6.544
 5188POPC   C3A66581  39.849  10.968   6.957
 5188POPC   C4A66582  39.985  11.032   7.385
 5188POPC   C1B66583  40.138  11.545   6.348
 5188POPC   C2B66584  39.933  11.600   6.725
 5188POPC   C3B66585  40.026  11.452   7.108
 5188POPC   C4B66586  40.308  11.577   7.422
 5189POPC   NC366587  15.522  25.307   5.434
 5189POPC   PO466588  14.845  25.315   5.385
 5189POPC   GL166589  15.099  25.445   5.749
 5189POPC   GL266590  15.260  25.154   5.854
 5189POPC   C1A66591  15.058  25.445   6.226
 5189POPC   D2A66592  15.224  25.300   6.635
 5189POPC   C3A66593  15.360  25.555   6.945
 5189POPC   C4A66594  15.301  25.421   7.353
 5189POPC   C1B66595  15.205  24.947   6.257
 5189POPC   C2B66596  15.072  24.819   6.688
 5189POPC   C3B66597  15.240  24.974   7.090
 5189POPC   C4B66598  15.528  24.920   7.416
 5190POPC   NC366599  36.630  27.293   5.488
 5190POPC   PO466600  36.864  27.804   5.124
 5190POPC   GL166601  36.906  27.657   5.665
 5190POPC   GL266602  37.178  27.476   5.793
 5190POPC   C1A66603  36.980  27.773   6.150
 5190POPC   D2A66604  36.763  27.782   6.567
 5190POPC   C3A66605  36.965  27.872   6.971
 5190POPC   C4A66606  36.971  27.652   7.386
 5190POPC   C1B66607  36.974  27.254   6.113
 5190POPC   C2B66608  37.024  27.345   6.537
 5190POPC   C3B66609  37.012  27.378   6.957
 5190POPC   C4B66610  37.138  27.166   7.300
 5191POPC   NC366611  31.934   3.020   5.330
 5191POPC   PO466612  31.662   3.539   5.627
 5191POPC   GL166613  31.256   3.624   5.786
 5191POPC   GL266614  31.266   3.316   5.971
 5191POPC   C1A66615  31.087   3.754   6.156
 5191POPC   D2A66616  31.254   3.528   6.511
 5191POPC   C3A66617  31.436   3.776   6.853
 5191POPC   C4A66618  31.446   3.617   7.276
 5191POPC   C1B66619  31.649   3.119   6.145
 5191POPC   C2B66620  31.712   3.018   6.558
 5191POPC   C3B66621  31.705   3.307   6.908
 5191POPC   C4B66622  31.692   3.182   7.315
 5192POPC   NC366623  36.499  29.275   5.350
 5192POPC   PO466624  36.947  28.774   5.356
 5192POPC   GL166625  36.737  28.973   5.728
 5192POPC   GL266626  36.731  29.335   5.815
 5192POPC   C1A66627  36.842  28.939   6.161
 5192POPC   D2A66628  36.763  29.135   6.543
 5192POPC   C3A66629  36.844  28.985   6.923
 5192POPC   C4A66630  36.684  29.081   7.335
 5192POPC   C1B66631  36.982  29.461   6.189
 5192POPC   C2B66632  36.941  29.600   6.618
 5192POPC   C3B66633  36.742  29.488   7.038
 5192POPC   C4B66634  36.731  29.540   7.527
 5193POPC   NC366635  25.304   0.829   5.384
 5193POPC   PO466636  25.526   0.170   5.471
 5193POPC   GL166637  25.418   0.351   5.833
 5193POPC   GL266638  25.200   0.656   5.849
 5193POPC   C1A66639  25.327   0.337   6.247
 5193POPC   D2A66640  25.363   0.711   6.499
 5193POPC   C3A66641  25.343   0.544   6.884
 5193POPC   C4A66642  25.529   0.598   7.240
 5193POPC   C1B66643  24.936   0.682   6.222
 5193POPC   C2B66644  24.878   0.732   6.678
 5193POPC   C3B66645  24.864   0.396   7.001
 5193POPC   C4B66646  25.035   0.506   7.382
 5194POPC   NC366647  33.481  18.021   5.540
 5194POPC   PO466648  33.024  17.640   5.310
 5194POPC   GL166649  33.003  17.505   5.738
 5194POPC   GL266650  33.306  17.632   5.845
 5194POPC   C1A66651  32.727  17.372   6.088
 5194POPC   D2A66652  32.790  17.510   6.504
 5194POPC   C3A66653  32.792  17.357   6.915
 5194POPC   C4A66654  32.875  17.444   7.375
 5194POPC   C1B66655  33.222  17.378   6.217
 5194POPC   C2B66656  33.256  17.283   6.657
 5194POPC   C3B66657  33.298  17.362   7.101
 5194POPC   C4B66658  33.289  17.173   7.521
 5195POPC   NC366659  22.046  23.481   5.267
 5195POPC   PO466660  21.795  24.023   5.323
 5195POPC   GL166661  22.014  23.844   5.712
 5195POPC   GL266662  22.130  23.471   5.784
 5195POPC   C1A66663  22.220  23.866   6.136
 5195POPC   D2A66664  22.130  24.082   6.522
 5195POPC   C3A66665  22.021  23.879   6.889
 5195POPC   C4A66666  22.384  23.768   7.034
 5195POPC   C1B66667  22.391  23.356   6.173
 5195POPC   C2B66668  22.460  23.479   6.624
 5195POPC   C3B66669  22.137  23.326   6.963
 5195POPC   C4B66670  21.759  23.381   7.237
 5196POPC   NC366671  18.968  43.031   5.405
 5196POPC   PO466672  19.674  43.097   5.608
 5196POPC   GL166673  19.245  43.056   5.830
 5196POPC   GL266674  18.858  43.181   5.871
 5196POPC   C1A66675  19.063  42.815   6.163
 5196POPC   D2A66676  19.203  42.963   6.563
 5196POPC   C3A66677  18.946  42.754   6.831
 5196POPC   C4A66678  19.075  42.727   7.217
 5196POPC   C1B66679  18.995  43.305   6.246
 5196POPC   C2B66680  18.830  43.301   6.660
 5196POPC   C3B66681  18.835  43.202   7.076
 5196POPC   C4B66682  18.723  43.432   7.426
 5197POPC   NC366683  12.579  29.551   5.268
 5197POPC   PO466684  12.948  30.082   5.424
 5197POPC   GL166685  12.846  29.923   5.833
 5197POPC   GL266686  12.561  29.665   5.878
 5197POPC   C1A66687  12.701  30.045   6.264
 5197POPC   D2A66688  12.647  29.854   6.696
 5197POPC   C3A66689  12.758  30.069   7.121
 5197POPC   C4A66690  12.714  30.130   7.597
 5197POPC   C1B66691  12.896  29.582   6.206
 5197POPC   C2B66692  13.068  29.519   6.621
 5197POPC   C3B66693  12.893  29.580   7.045
 5197POPC   C4B66694  13.026  29.765   7.445
 5198POPC   NC366695  23.110   4.762   5.395
 5198POPC   PO466696  22.970   4.109   5.403
 5198POPC   GL166697  22.918   4.267   5.805
 5198POPC   GL266698  23.208   4.494   5.824
 5198POPC   C1A66699  23.023   4.216   6.236
 5198POPC   D2A66700  23.142   4.244   6.640
 5198POPC   C3A66701  22.876   4.065   6.903
 5198POPC   C4A66702  22.919   3.935   7.298
 5198POPC   C1B66703  23.034   4.735   6.168
 5198POPC   C2B66704  22.834   4.651   6.556
 5198POPC   C3B66705  22.984   4.630   6.966
 5198POPC   C4B66706  23.241   4.331   7.159
 5199POPC   NC366707  20.394  14.856   5.364
 5199POPC   PO466708  20.557  14.122   5.431
 5199POPC   GL166709  20.518  14.417   5.775
 5199POPC   GL266710  20.732  14.685   5.763
 5199POPC   C1A66711  20.540  14.405   6.215
 5199POPC   D2A66712  20.273  14.302   6.537
 5199POPC   C3A66713  20.436  14.466   6.895
 5199POPC   C4A66714  20.433  14.549   7.312
 5199POPC   C1B66715  20.835  14.825   6.190
 5199POPC   C2B66716  20.876  14.621   6.612
 5199POPC   C3B66717  20.811  14.794   7.040
 5199POPC   C4B66718  20.888  14.740   7.470
 5200POPC   NC366719  37.788   2.148   5.101
 5200POPC   PO466720  37.849   1.657   5.579
 5200POPC   GL166721  37.762   1.997   5.848
 5200POPC   GL266722  37.400   2.028   5.847
 5200POPC   C1A66723  37.967   2.113   6.245
 5200POPC   D2A66724  37.911   1.948   6.661
 5200POPC   C3A66725  37.898   2.220   7.034
 5200POPC   C4A66726  37.935   2.359   7.479
 5200POPC   C1B66727  37.469   2.068   6.308
 5200POPC   C2B66728  37.455   2.135   6.756
 5200POPC   C3B66729  37.397   2.043   7.183
 5200POPC   C4B66730  37.142   1.961   7.570
 5201POPC   NC366731  30.548  19.617   5.262
 5201POPC   PO466732  30.171  20.090   5.317
 5201POPC   GL166733  30.177  19.959   5.765
 5201POPC   GL266734  30.198  20.265   5.918
 5201POPC   C1A66735  30.019  19.890   6.227
 5201POPC   D2A66736  30.013  20.051   6.678
 5201POPC   C3A66737  30.065  19.754   7.015
 5201POPC   C4A66738  30.291  19.717   7.415
 5201POPC   C1B66739  29.867  20.380   6.266
 5201POPC   C2B66740  29.587  20.355   6.664
 5201POPC   C3B66741  29.594  20.164   7.094
 5201POPC   C4B66742  29.603  20.234   7.578
 5202POPC   NC366743  43.613   5.415   5.170
 5202POPC   PO466744  43.718   5.884   5.640
 5202POPC   GL166745  43.732   6.168   5.970
 5202POPC   GL266746  43.414   6.234   5.931
 5202POPC   C1A66747  43.912   6.174   6.394
 5202POPC   D2A66748  43.998   5.777   6.637
 5202POPC   C3A66749  43.920   5.820   7.074
 5202POPC   C4A66750  44.078   5.524   7.370
 5202POPC   C1B66751  43.469   6.477   6.307
 5202POPC   C2B66752  43.503   6.313   6.704
 5202POPC   C3B66753  43.393   6.175   7.118
 5202POPC   C4B66754  43.624   6.049   7.485
 5203POPC   NC366755  32.525  36.936   5.156
 5203POPC   PO466756  32.069  36.924   5.619
 5203POPC   GL166757  32.454  36.911   5.768
 5203POPC   GL266758  32.500  36.582   5.633
 5203POPC   C1A66759  32.477  37.078   6.206
 5203POPC   D2A66760  32.157  37.171   6.511
 5203POPC   C3A66761  32.186  37.035   6.912
 5203POPC   C4A66762  32.321  37.172   7.286
 5203POPC   C1B66763  32.530  36.560   6.117
 5203POPC   C2B66764  32.359  36.644   6.531
 5203POPC   C3B66765  32.426  36.599   6.968
 5203POPC   C4B66766  32.188  36.684   7.324
 5204POPC   NC366767   1.053  33.376   5.030
 5204POPC   PO466768   1.093  32.852   5.456
 5204POPC   GL166769   1.133  32.990   5.859
 5204POPC   GL266770   1.279  33.290   5.764
 5204POPC   C1A66771   1.113  32.750   6.251
 5204POPC   D2A66772   1.278  32.676   6.639
 5204POPC   C3A66773   1.032  32.705   7.009
 5204POPC   C4A66774   1.120  33.008   7.298
 5204POPC   C1B66775   1.320  33.343   6.175
 5204POPC   C2B66776   1.242  33.181   6.544
 5204POPC   C3B66777   1.352  33.288   6.942
 5204POPC   C4B66778   1.304  33.499   7.308
 5205POPC   NC366779  33.924  31.599   5.468
 5205POPC   PO466780  33.500  31.142   5.370
 5205POPC   GL166781  33.583  31.294   5.752
 5205POPC   GL266782  33.462  31.656   5.709
 5205POPC   C1A66783  33.879  31.212   6.127
 5205POPC   D2A66784  33.781  31.076   6.568
 5205POPC   C3A66785  33.975  31.189   6.970
 5205POPC   C4A66786  33.718  31.365   7.286
 5205POPC   C1B66787  33.503  31.579   6.147
 5205POPC   C2B66788  33.816  31.599   6.446
 5205POPC   C3B66789  33.798  31.653   6.855
 5205POPC   C4B66790  33.929  31.842   7.224
 5206POPC   NC366791  34.789  43.000   5.488
 5206POPC   PO466792  34.264  43.479   5.544
 5206POPC   GL166793  34.503  43.262   5.865
 5206POPC   GL266794  34.414  42.907   5.848
 5206POPC   C1A66795  34.425  43.313   6.301
 5206POPC   D2A66796  34.326  43.343   6.746
 5206POPC   C3A66797  34.585  43.285   7.134
 5206POPC   C4A66798  34.906  43.279   7.487
 5206POPC   C1B66799  34.636  42.857   6.198
 5206POPC   C2B66800  34.704  42.979   6.626
 5206POPC   C3B66801  34.752  42.818   7.023
 5206POPC   C4B66802  34.648  42.845   7.464
 5207POPC   NC366803  36.698  41.938   5.222
 5207POPC   PO466804  36.922  41.350   5.400
 5207POPC   GL166805  36.806  41.677   5.715
 5207POPC   GL266806  36.891  41.502   5.973
 5207POPC   C1A66807  36.547  41.793   6.162
 5207POPC   D2A66808  36.557  41.666   6.624
 5207POPC   C3A66809  36.900  41.466   6.912
 5207POPC   C4A66810  36.818  41.510   7.371
 5207POPC   C1B66811  36.962  41.474   6.388
 5207POPC   C2B66812  37.158  41.792   6.573
 5207POPC   C3B66813  37.395  41.906   6.889
 5207POPC   C4B66814  37.177  41.856   7.249
 5208POPC   NC366815  15.921  42.946   5.482
 5208POPC   PO466816  15.747  43.582   5.588
 5208POPC   GL166817  15.856  43.249   5.884
 5208POPC   GL266818  15.739  42.875   5.933
 5208POPC   C1A66819  16.049  43.113   6.267
 5208POPC   D2A66820  16.171  43.221   6.678
 5208POPC   C3A66821  15.851  43.258   6.998
 5208POPC   C4A66822  16.078  43.254   7.361
 5208POPC   C1B66823  15.800  42.626   6.307
 5208POPC   C2B66824  15.770  42.640   6.742
 5208POPC   C3B66825  15.553  42.841   7.064
 5208POPC   C4B66826  15.724  42.909   7.461
 5209POPC   NC366827  22.577  13.934   5.388
 5209POPC   PO466828  23.233  13.562   5.380
 5209POPC   GL166829  22.978  13.758   5.705
 5209POPC   GL266830  22.720  13.523   5.744
 5209POPC   C1A66831  22.861  13.875   6.165
 5209POPC   D2A66832  23.025  13.890   6.613
 5209POPC   C3A66833  22.750  13.841   6.963
 5209POPC   C4A66834  22.876  13.706   7.369
 5209POPC   C1B66835  22.672  13.392   6.153
 5209POPC   C2B66836  22.607  13.547   6.564
 5209POPC   C3B66837  22.518  13.368   6.955
 5209POPC   C4B66838  22.686  13.224   7.316
 5210POPC   NC366839  30.041   1.548   5.506
 5210POPC   PO466840  30.751   1.269   5.338
 5210POPC   GL166841  30.626   1.133   5.804
 5210POPC   GL266842  30.315   1.177   5.743
 5210POPC   C1A66843  30.827   1.092   6.270
 5210POPC   D2A66844  31.022   1.322   6.641
 5210POPC   C3A66845  30.872   1.151   7.030
 5210POPC   C4A66846  30.731   0.784   7.264
 5210POPC   C1B66847  30.357   1.306   6.193
 5210POPC   C2B66848  30.400   1.018   6.546
 5210POPC   C3B66849  30.340   0.934   6.972
 5210POPC   C4B66850  30.421   1.233   7.306
 5211POPC   NC366851  21.034  41.294   5.510
 5211POPC   PO466852  20.494  41.666   5.319
 5211POPC   GL166853  20.700  41.646   5.742
 5211POPC   GL266854  21.031  41.758   5.876
 5211POPC   C1A66855  20.523  41.511   6.152
 5211POPC   D2A66856  20.477  41.807   6.496
 5211POPC   C3A66857  20.562  41.676   6.904
 5211POPC   C4A66858  20.370  41.402   7.184
 5211POPC   C1B66859  20.948  41.784   6.268
 5211POPC   C2B66860  20.867  41.454   6.546
 5211POPC   C3B66861  21.009  41.371   6.955
 5211POPC   C4B66862  20.954  41.667   7.258
 5212POPC   NC366863  24.368  42.008   5.478
 5212POPC   PO466864  24.195  42.745   5.512
 5212POPC   GL166865  24.355  42.654   5.900
 5212POPC   GL266866  24.553  42.374   5.807
 5212POPC   C1A66867  24.275  42.439   6.301
 5212POPC   D2A66868  24.193  42.439   6.771
 5212POPC   C3A66869  24.518  42.497   7.110
 5212POPC   C4A66870  24.413  42.457   7.567
 5212POPC   C1B66871  24.570  42.051   6.137
 5212POPC   C2B66872  24.608  42.144   6.571
 5212POPC   C3B66873  24.490  42.007   6.950
 5212POPC   C4B66874  24.674  42.056   7.350
 5213POPC   NC366875  30.090  11.889   5.396
 5213POPC   PO466876  29.533  12.055   5.505
 5213POPC   GL166877  29.872  12.081   5.834
 5213POPC   GL266878  30.186  12.282   5.741
 5213POPC   C1A66879  29.853  12.020   6.295
 5213POPC   D2A66880  29.683  12.199   6.685
 5213POPC   C3A66881  29.870  12.143   7.093
 5213POPC   C4A66882  29.820  12.144   7.536
 5213POPC   C1B66883  30.363  12.123   6.142
 5213POPC   C2B66884  30.273  12.104   6.593
 5213POPC   C3B66885  30.260  12.408   6.921
 5213POPC   C4B66886  30.207  12.448   7.385
 5214POPC   NC366887  13.976  18.406   5.208
 5214POPC   PO466888  14.572  18.080   5.184
 5214POPC   GL166889  14.404  18.256   5.623
 5214POPC   GL266890  14.544  18.524   5.841
 5214POPC   C1A66891  14.410  18.084   6.064
 5214POPC   D2A66892  14.225  17.926   6.472
 5214POPC   C3A66893  14.420  18.175   6.797
 5214POPC   C4A66894  14.605  18.123   7.158
 5214POPC   C1B66895  14.271  18.620   6.236
 5214POPC   C2B66896  14.073  18.538   6.653
 5214POPC   C3B66897  14.248  18.623   7.055
 5214POPC   C4B66898  14.652  18.609   7.243
 5215POPC   NC366899   8.700   6.060   5.335
 5215POPC   PO466900   9.339   5.694   5.387
 5215POPC   GL166901   9.036   5.890   5.710
 5215POPC   GL266902   9.219   6.198   5.745
 5215POPC   C1A66903   8.829   6.110   6.112
 5215POPC   D2A66904   8.658   6.128   6.545
 5215POPC   C3A66905   8.804   5.949   6.941
 5215POPC   C4A66906   8.649   5.892   7.333
 5215POPC   C1B66907   9.305   5.966   6.147
 5215POPC   C2B66908   9.153   5.993   6.566
 5215POPC   C3B66909   9.277   6.137   6.997
 5215POPC   C4B66910   9.521   6.460   7.237
 5216POPC   NC366911  28.667  33.246   5.438
 5216POPC   PO466912  28.239  32.686   5.490
 5216POPC   GL166913  28.264  33.048   5.761
 5216POPC   GL266914  28.580  32.936   5.826
 5216POPC   C1A66915  28.314  33.148   6.210
 5216POPC   D2A66916  28.348  32.923   6.595
 5216POPC   C3A66917  28.412  33.164   6.953
 5216POPC   C4A66918  28.160  32.981   7.208
 5216POPC   C1B66919  28.526  32.679   6.182
 5216POPC   C2B66920  28.793  32.642   6.567
 5216POPC   C3B66921  28.637  32.701   6.997
 5216POPC   C4B66922  28.665  32.922   7.393
 5217POPC   NC366923  24.648   5.110   5.213
 5217POPC   PO466924  24.240   5.532   5.628
 5217POPC   GL166925  24.605   5.358   5.835
 5217POPC   GL266926  24.678   5.041   5.719
 5217POPC   C1A66927  24.572   5.129   6.241
 5217POPC   D2A66928  24.296   4.977   6.570
 5217POPC   C3A66929  24.372   5.110   6.968
 5217POPC   C4A66930  24.358   4.988   7.387
 5217POPC   C1B66931  24.901   4.780   6.050
 5217POPC   C2B66932  24.849   4.680   6.497
 5217POPC   C3B66933  24.748   4.739   6.943
 5217POPC   C4B66934  24.808   4.724   7.399
 5218POPC   NC366935  21.714   6.572   5.397
 5218POPC   PO466936  21.069   6.755   5.383
 5218POPC   GL166937  21.279   6.640   5.732
 5218POPC   GL266938  21.224   6.322   5.741
 5218POPC   C1A66939  21.415   6.649   6.157
 5218POPC   D2A66940  21.612   6.740   6.544
 5218POPC   C3A66941  21.398   6.690   6.946
 5218POPC   C4A66942  21.642   6.704   7.284
 5218POPC   C1B66943  21.203   6.160   6.194
 5218POPC   C2B66944  21.294   6.297   6.617
 5218POPC   C3B66945  21.115   6.254   7.037
 5218POPC   C4B66946  21.247   6.468   7.463
 5219POPC   NC366947  20.787  13.781   5.194
 5219POPC   PO466948  21.343  13.535   5.475
 5219POPC   GL166949  21.448  13.580   5.886
 5219POPC   GL266950  21.364  13.924   5.848
 5219POPC   C1A66951  21.673  13.340   6.229
 5219POPC   D2A66952  21.599  13.110   6.644
 5219POPC   C3A66953  21.301  13.304   6.943
 5219POPC   C4A66954  21.318  13.631   7.261
 5219POPC   C1B66955  21.111  13.798   6.224
 5219POPC   C2B66956  21.118  13.707   6.679
 5219POPC   C3B66957  20.981  13.940   7.049
 5219POPC   C4B66958  20.885  13.767   7.499
 5220POPC   NC366959  39.140   1.076   5.471
 5220POPC   PO466960  39.477   0.518   5.505
 5220POPC   GL166961  39.129   0.460   5.807
 5220POPC   GL266962  39.398   0.223   5.944
 5220POPC   C1A66963  38.935   0.442   6.217
 5220POPC   D2A66964  39.177   0.408   6.630
 5220POPC   C3A66965  39.041   0.335   7.081
 5220POPC   C4A66966  38.867   0.602   7.423
 5220POPC   C1B66967  39.440   0.619   6.182
 5220POPC   C2B66968  39.736   0.854   6.424
 5220POPC   C3B66969  39.586   1.037   6.808
 5220POPC   C4B66970  39.294   0.795   7.102
 5221POPC   NC366971   8.541  41.501   5.476
 5221POPC   PO466972   7.916  41.428   5.479
 5221POPC   GL166973   8.198  41.306   5.812
 5221POPC   GL266974   8.261  41.677   5.917
 5221POPC   C1A66975   8.354  41.272   6.245
 5221POPC   D2A66976   8.264  41.629   6.483
 5221POPC   C3A66977   8.228  41.576   6.900
 5221POPC   C4A66978   8.287  41.179   7.128
 5221POPC   C1B66979   8.430  42.022   6.201
 5221POPC   C2B66980   8.635  41.945   6.627
 5221POPC   C3B66981   8.732  41.675   6.967
 5221POPC   C4B66982   8.529  41.585   7.315
 5222POPC   NC366983  12.309   8.723   5.456
 5222POPC   PO466984  11.934   9.248   5.148
 5222POPC   GL166985  11.915   8.974   5.579
 5222POPC   GL266986  12.198   9.148   5.750
 5222POPC   C1A66987  11.959   8.797   6.046
 5222POPC   D2A66988  12.130   8.839   6.487
 5222POPC   C3A66989  12.034   8.602   6.837
 5222POPC   C4A66990  11.764   8.688   7.207
 5222POPC   C1B66991  12.353   9.201   6.193
 5222POPC   C2B66992  12.542   9.131   6.631
 5222POPC   C3B66993  12.435   9.236   7.048
 5222POPC   C4B66994  12.016   9.090   7.056
 5223POPC   NC366995  21.996   1.723   5.179
 5223POPC   PO466996  22.605   2.016   5.328
 5223POPC   GL166997  22.329   1.957   5.716
 5223POPC   GL266998  22.005   1.767   5.750
 5223POPC   C1A66999  22.318   2.018   6.178
 5223POPC   D2A67000  22.184   2.307   6.514
 5223POPC   C3A67001  22.279   2.228   6.924
 5223POPC   C4A67002  22.438   1.911   7.160
 5223POPC   C1B67003  22.011   1.601   6.205
 5223POPC   C2B67004  22.131   1.784   6.619
 5223POPC   C3B67005  21.942   1.779   7.022
 5223POPC   C4B67006  21.854   1.456   7.312
 5224POPC   NC367007  33.018  19.754   5.273
 5224POPC   PO467008  33.420  20.289   5.289
 5224POPC   GL167009  33.289  19.992   5.636
 5224POPC   GL267010  32.891  20.006   5.714
 5224POPC   C1A67011  33.203  19.648   5.919
 5224POPC   D2A67012  33.153  19.667   6.353
 5224POPC   C3A67013  33.308  19.567   6.754
 5224POPC   C4A67014  33.189  19.771   7.135
 5224POPC   C1B67015  32.692  20.134   6.108
 5224POPC   C2B67016  32.682  20.240   6.532
 5224POPC   C3B67017  32.745  20.163   6.953
 5224POPC   C4B67018  32.679  20.271   7.388
 5225POPC   NC367019  26.427  23.702   5.417
 5225POPC   PO467020  27.108  23.699   5.304
 5225POPC   GL167021  26.874  23.762   5.676
 5225POPC   GL267022  27.098  23.638   5.889
 5225POPC   C1A67023  26.643  23.793   6.088
 5225POPC   D2A67024  26.796  23.695   6.503
 5225POPC   C3A67025  26.621  23.842   6.886
 5225POPC   C4A67026  26.445  23.631   7.241
 5225POPC   C1B67027  27.123  24.063   6.130
 5225POPC   C2B67028  27.231  24.131   6.587
 5225POPC   C3B67029  27.090  24.055   6.992
 5225POPC   C4B67030  26.910  23.805   7.311
 5226POPC   NC367031   2.278  30.789   5.543
 5226POPC   PO467032   1.603  30.632   5.385
 5226POPC   GL167033   1.808  30.741   5.786
 5226POPC   GL267034   2.011  30.455   5.830
 5226POPC   C1A67035   1.778  30.599   6.248
 5226POPC   D2A67036   1.538  30.489   6.623
 5226POPC   C3A67037   1.831  30.485   6.952
 5226POPC   C4A67038   1.862  30.813   7.239
 5226POPC   C1B67039   2.301  30.600   6.185
 5226POPC   C2B67040   2.412  30.735   6.571
 5226POPC   C3B67041   2.272  30.786   6.937
 5226POPC   C4B67042   2.308  30.452   7.204
 5227POPC   NC367043  25.040  10.191   5.575
 5227POPC   PO467044  24.450  10.487   5.394
 5227POPC   GL167045  24.525  10.378   5.773
 5227POPC   GL267046  24.288  10.608   5.881
 5227POPC   C1A67047  24.683  10.508   6.176
 5227POPC   D2A67048  24.529  10.391   6.545
 5227POPC   C3A67049  24.673  10.506   6.918
 5227POPC   C4A67050  24.549  10.391   7.353
 5227POPC   C1B67051  24.128  10.348   6.206
 5227POPC   C2B67052  24.016  10.360   6.656
 5227POPC   C3B67053  24.169  10.519   7.043
 5227POPC   C4B67054  24.094  10.865   7.307
 5228POPC   NC367055  43.806  39.000   5.374
 5228POPC   PO467056  43.411  39.216   5.805
 5228POPC   GL167057  43.771  38.958   5.897
 5228POPC   GL267058  44.133  38.992   5.786
 5228POPC   C1A67059  43.937  39.085   6.275
 5228POPC   D2A67060  43.923  39.337   6.627
 5228POPC   C3A67061  43.983  39.066   6.956
 5228POPC   C4A67062  43.679  39.016   7.237
 5228POPC   C1B67063  44.217  39.413   6.017
 5228POPC   C2B67064  44.242  39.710   6.372
 5228POPC   C3B67065  44.250  39.681   6.824
 5228POPC   C4B67066  44.174  39.468   7.214
 5229POPC   NC367067  25.444  30.537   5.526
 5229POPC   PO467068  24.800  30.444   5.470
 5229POPC   GL167069  25.037  30.625   5.813
 5229POPC   GL267070  25.231  30.955   5.731
 5229POPC   C1A67071  25.158  30.497   6.200
 5229POPC   D2A67072  25.399  30.681   6.534
 5229POPC   C3A67073  25.203  30.521   6.887
 5229POPC   C4A67074  25.395  30.236   7.163
 5229POPC   C1B67075  25.178  31.020   6.158
 5229POPC   C2B67076  25.186  31.137   6.572
 5229POPC   C3B67077  25.391  31.048   6.925
 5229POPC   C4B67078  25.414  30.777   7.270
 5230POPC   NC367079  24.353   0.716   5.378
 5230POPC   PO467080  24.763   0.227   5.151
 5230POPC   GL167081  24.628   0.330   5.633
 5230POPC   GL267082  24.893   0.232   5.887
 5230POPC   C1A67083  24.478   0.538   6.058
 5230POPC   D2A67084  24.528   0.403   6.527
 5230POPC   C3A67085  24.428   0.641   6.960
 5230POPC   C4A67086  24.565   0.693   7.464
 5230POPC   C1B67087  24.534   0.014   6.076
 5230POPC   C2B67088  24.426  44.891   6.484
 5230POPC   C3B67089  24.372   0.073   6.897
 5230POPC   C4B67090  24.425   0.242   7.284
 5231POPC   NC367091  39.308  41.548   5.390
 5231POPC   PO467092  38.694  41.536   5.475
 5231POPC   GL167093  39.047  41.300   5.791
 5231POPC   GL267094  39.455  41.362   5.817
 5231POPC   C1A67095  39.221  41.368   6.262
 5231POPC   D2A67096  39.189  41.686   6.637
 5231POPC   C3A67097  39.196  41.557   7.092
 5231POPC   C4A67098  39.058  41.328   7.477
 5231POPC   C1B67099  39.600  41.674   6.120
 5231POPC   C2B67100  39.667  41.535   6.547
 5231POPC   C3B67101  39.625  41.768   6.935
 5231POPC   C4B67102  39.810  41.771   7.338
 5232POPC   NC367103  27.589  23.648   5.279
 5232POPC   PO467104  27.974  23.927   5.717
 5232POPC   GL167105  27.598  23.861   5.928
 5232POPC   GL267106  27.578  23.495   5.984
 5232POPC   C1A67107  27.668  24.007   6.341
 5232POPC   D2A67108  27.616  23.821   6.738
 5232POPC   C3A67109  27.590  24.086   7.077
 5232POPC   C4A67110  27.359  23.957   7.448
 5232POPC   C1B67111  27.303  23.659   6.362
 5232POPC   C2B67112  27.180  23.540   6.797
 5232POPC   C3B67113  27.413  23.521   7.177
 5232POPC   C4B67114  27.215  23.492   7.598
 5233POPC   NC367115  36.737  24.139   5.223
 5233POPC   PO467116  37.282  24.477   5.523
 5233POPC   GL167117  36.915  24.462   5.802
 5233POPC   GL267118  36.637  24.709   5.749
 5233POPC   C1A67119  37.029  24.501   6.239
 5233POPC   D2A67120  37.121  24.276   6.613
 5233POPC   C3A67121  36.817  24.401   6.891
 5233POPC   C4A67122  36.935  24.433   7.274
 5233POPC   C1B67123  36.569  24.743   6.224
 5233POPC   C2B67124  36.428  24.710   6.690
 5233POPC   C3B67125  36.504  24.741   7.161
 5233POPC   C4B67126  36.432  24.745   7.653
 5234POPC   NC367127  41.050  33.995   5.572
 5234POPC   PO467128  40.504  33.527   5.520
 5234POPC   GL167129  40.785  33.619   5.791
 5234POPC   GL267130  40.596  33.965   5.817
 5234POPC   C1A67131  41.021  33.466   6.147
 5234POPC   D2A67132  40.880  33.533   6.565
 5234POPC   C3A67133  41.045  33.744   6.855
 5234POPC   C4A67134  40.953  33.752   7.246
 5234POPC   C1B67135  40.673  33.851   6.229
 5234POPC   C2B67136  40.675  34.027   6.615
 5234POPC   C3B67137  40.527  33.854   6.992
 5234POPC   C4B67138  40.502  33.897   7.433
 5235POPC   NC367139   0.999  18.548   5.404
 5235POPC   PO467140   1.621  18.275   5.476
 5235POPC   GL167141   1.335  18.280   5.828
 5235POPC   GL267142   1.036  18.120   5.695
 5235POPC   C1A67143   1.440  18.215   6.287
 5235POPC   D2A67144   1.625  18.149   6.722
 5235POPC   C3A67145   1.273  18.189   6.990
 5235POPC   C4A67146   0.953  18.523   6.990
 5235POPC   C1B67147   0.954  18.065   6.121
 5235POPC   C2B67148   0.976  18.250   6.526
 5235POPC   C3B67149   0.814  18.009   6.861
 5235POPC   C4B67150   0.881  18.010   7.269
 5236POPC   NC367151  11.387  26.214   5.429
 5236POPC   PO467152  11.127  25.606   5.580
 5236POPC   GL167153  11.438  25.813   5.821
 5236POPC   GL267154  11.191  26.051   5.877
 5236POPC   C1A67155  11.585  26.018   6.224
 5236POPC   D2A67156  11.353  26.131   6.601
 5236POPC   C3A67157  11.439  25.975   7.003
 5236POPC   C4A67158  11.517  26.050   7.409
 5236POPC   C1B67159  11.110  25.814   6.241
 5236POPC   C2B67160  10.845  25.939   6.560
 5236POPC   C3B67161  10.946  26.143   6.928
 5236POPC   C4B67162  11.013  25.959   7.301
 5237POPC   NC367163   4.319  23.106   5.344
 5237POPC   PO467164   4.325  22.547   5.678
 5237POPC   GL167165   4.228  22.946   5.808
 5237POPC   GL267166   4.572  23.115   5.810
 5237POPC   C1A67167   4.181  23.083   6.198
 5237POPC   D2A67168   4.270  22.777   6.486
 5237POPC   C3A67169   4.234  22.943   6.866
 5237POPC   C4A67170   3.969  23.015   7.152
 5237POPC   C1B67171   4.694  22.880   6.212
 5237POPC   C2B67172   4.731  22.849   6.704
 5237POPC   C3B67173   4.650  22.989   7.165
 5237POPC   C4B67174   4.769  23.031   7.625
 5238POPC   NC367175  22.383   6.303   5.453
 5238POPC   PO467176  22.024   6.749   5.087
 5238POPC   GL167177  22.146   6.751   5.585
 5238POPC   GL267178  22.498   6.736   5.687
 5238POPC   C1A67179  21.982   6.696   6.049
 5238POPC   D2A67180  22.131   6.645   6.497
 5238POPC   C3A67181  21.976   6.773   6.922
 5238POPC   C4A67182  22.129   6.797   7.409
 5238POPC   C1B67183  22.525   6.757   6.130
 5238POPC   C2B67184  22.643   6.640   6.535
 5238POPC   C3B67185  22.453   6.584   6.952
 5238POPC   C4B67186  22.113   6.330   7.160
 5239POPC   NC367187  27.558  28.506   5.252
 5239POPC   PO467188  27.361  29.090   5.544
 5239POPC   GL167189  27.695  28.751   5.723
 5239POPC   GL267190  27.706  28.351   5.731
 5239POPC   C1A67191  27.885  28.626   6.132
 5239POPC   D2A67192  27.744  28.397   6.535
 5239POPC   C3A67193  27.997  28.437   6.899
 5239POPC   C4A67194  27.761  28.437   7.223
 5239POPC   C1B67195  27.575  28.141   6.117
 5239POPC   C2B67196  27.724  27.878   6.478
 5239POPC   C3B67197  27.747  27.978   6.913
 5239POPC   C4B67198  27.566  27.944   7.335
 5240POPC   NC367199  31.843  27.658   5.451
 5240POPC   PO467200  32.449  27.282   5.425
 5240POPC   GL167201  32.304  27.509   5.784
 5240POPC   GL267202  32.037  27.707   5.916
 5240POPC   C1A67203  32.367  27.385   6.210
 5240POPC   D2A67204  32.261  27.665   6.519
 5240POPC   C3A67205  32.335  27.577   6.937
 5240POPC   C4A67206  32.128  27.855   7.190
 5240POPC   C1B67207  31.912  27.259   6.034
 5240POPC   C2B67208  31.916  27.244   6.473
 5240POPC   C3B67209  31.843  27.472   6.849
 5240POPC   C4B67210  31.964  27.344   7.245
 5241POPC   NC367211   3.303  24.785   5.106
 5241POPC   PO467212   3.822  24.452   5.470
 5241POPC   GL167213   3.612  24.577   5.842
 5241POPC   GL267214   3.279  24.456   5.958
 5241POPC   C1A67215   3.646  24.756   6.245
 5241POPC   D2A67216   3.832  24.519   6.570
 5241POPC   C3A67217   3.764  24.707   6.935
 5241POPC   C4A67218   3.430  24.629   7.236
 5241POPC   C1B67219   3.432  24.283   6.347
 5241POPC   C2B67220   3.419  24.290   6.809
 5241POPC   C3B67221   3.445  24.087   7.210
 5241POPC   C4B67222   3.513  24.278   7.636
 5242POPC   NC367223  43.392  18.557   5.189
 5242POPC   PO467224  43.747  18.011   5.391
 5242POPC   GL167225  43.732  18.186   5.760
 5242POPC   GL267226  43.646  18.521   5.660
 5242POPC   C1A67227  43.677  18.041   6.173
 5242POPC   D2A67228  43.793  18.207   6.546
 5242POPC   C3A67229  43.691  17.957   6.924
 5242POPC   C4A67230  43.812  18.087   7.304
 5242POPC   C1B67231  43.785  18.569   6.097
 5242POPC   C2B67232  43.838  18.713   6.521
 5242POPC   C3B67233  43.788  18.524   6.939
 5242POPC   C4B67234  43.926  18.704   7.293
 5243POPC   NC367235   2.733  18.228   5.353
 5243POPC   PO467236   3.004  18.767   5.530
 5243POPC   GL167237   2.800  18.494   5.816
 5243POPC   GL267238   2.904  18.138   5.833
 5243POPC   C1A67239   2.501  18.307   6.123
 5243POPC   D2A67240   2.329  18.321   6.553
 5243POPC   C3A67241   2.491  18.161   6.867
 5243POPC   C4A67242   2.826  18.289   7.076
 5243POPC   C1B67243   2.890  18.004   6.269
 5243POPC   C2B67244   2.858  18.356   6.546
 5243POPC   C3B67245   3.082  18.647   6.787
 5243POPC   C4B67246   3.155  18.650   7.224
 5244POPC   NC367247  15.135  29.385   5.476
 5244POPC   PO467248  15.174  28.718   5.395
 5244POPC   GL167249  15.002  28.955   5.759
 5244POPC   GL267250  15.307  29.145   5.886
 5244POPC   C1A67251  14.903  29.143   6.160
 5244POPC   D2A67252  15.120  29.134   6.543
 5244POPC   C3A67253  14.934  29.108   6.964
 5244POPC   C4A67254  14.922  29.273   7.397
 5244POPC   C1B67255  15.519  28.950   6.232
 5244POPC   C2B67256  15.520  28.851   6.668
 5244POPC   C3B67257  15.430  29.134   6.999
 5244POPC   C4B67258  15.533  29.054   7.396
 5245POPC   NC367259   6.994  13.733   5.433
 5245POPC   PO467260   6.549  13.192   5.357
 5245POPC   GL167261   6.518  13.407   5.776
 5245POPC   GL267262   6.828  13.473   5.832
 5245POPC   C1A67263   6.549  13.536   6.243
 5245POPC   D2A67264   6.473  13.347   6.649
 5245POPC   C3A67265   6.551  13.575   7.042
 5245POPC   C4A67266   6.599  13.506   7.505
 5245POPC   C1B67267   7.035  13.377   6.205
 5245POPC   C2B67268   6.987  13.581   6.600
 5245POPC   C3B67269   7.068  13.561   7.032
 5245POPC   C4B67270   6.892  13.891   7.278
 5246POPC   NC367271   4.452  24.213   5.425
 5246POPC   PO467272   4.504  23.527   5.414
 5246POPC   GL167273   4.286  23.560   5.833
 5246POPC   GL267274   4.087  23.875   5.824
 5246POPC   C1A67275   4.233  23.603   6.304
 5246POPC   D2A67276   4.009  23.425   6.680
 5246POPC   C3A67277   4.262  23.471   7.078
 5246POPC   C4A67278   4.682  23.503   7.300
 5246POPC   C1B67279   4.451  24.030   6.096
 5246POPC   C2B67280   4.646  23.952   6.505
 5246POPC   C3B67281   4.554  23.919   6.951
 5246POPC   C4B67282   4.299  24.117   7.236
 5247POPC   NC367283  17.391  17.885   5.503
 5247POPC   PO467284  17.522  17.183   5.451
 5247POPC   GL167285  17.673  17.271   5.852
 5247POPC   GL267286  17.714  17.639   5.881
 5247POPC   C1A67287  17.530  17.392   6.294
 5247POPC   D2A67288  17.233  17.532   6.628
 5247POPC   C3A67289  17.389  17.688   7.051
 5247POPC   C4A67290  17.228  17.615   7.482
 5247POPC   C1B67291  17.903  17.852   6.238
 5247POPC   C2B67292  17.934  17.949   6.682
 5247POPC   C3B67293  17.951  17.690   7.063
 5247POPC   C4B67294  17.720  17.704   7.452
 5248POPC   NC367295  22.034  34.015   5.614
 5248POPC   PO467296  22.538  33.590   5.571
 5248POPC   GL167297  22.150  33.563   5.831
 5248POPC   GL267298  22.114  33.841   6.091
 5248POPC   C1A67299  22.082  33.328   6.180
 5248POPC   D2A67300  22.252  33.424   6.561
 5248POPC   C3A67301  22.028  33.662   6.829
 5248POPC   C4A67302  22.009  33.720   7.266
 5248POPC   C1B67303  22.526  33.738   6.204
 5248POPC   C2B67304  22.724  33.661   6.582
 5248POPC   C3B67305  22.514  33.709   6.946
 5248POPC   C4B67306  22.481  33.967   7.307
 5249POPC   NC367307   8.289  35.556   5.378
 5249POPC   PO467308   8.498  34.949   5.432
 5249POPC   GL167309   8.232  35.195   5.760
 5249POPC   GL267310   8.359  35.545   5.891
 5249POPC   C1A67311   7.976  35.115   6.160
 5249POPC   D2A67312   7.857  35.003   6.592
 5249POPC   C3A67313   8.119  35.084   6.962
 5249POPC   C4A67314   7.938  34.992   7.349
 5249POPC   C1B67315   7.975  35.642   6.139
 5249POPC   C2B67316   7.856  35.526   6.588
 5249POPC   C3B67317   7.965  35.589   7.013
 5249POPC   C4B67318   8.345  35.600   7.275
 5250POPC   NC367319  11.072  40.715   5.509
 5250POPC   PO467320  11.579  40.633   5.068
 5250POPC   GL167321  11.513  40.886   5.679
 5250POPC   GL267322  11.234  40.934   5.920
 5250POPC   C1A67323  11.526  40.597   6.134
 5250POPC   D2A67324  11.387  40.441   6.530
 5250POPC   C3A67325  11.298  40.715   6.864
 5250POPC   C4A67326  11.452  40.593   7.249
 5250POPC   C1B67327  11.194  40.932   6.346
 5250POPC   C2B67328  11.111  41.180   6.673
 5250POPC   C3B67329  10.932  41.068   7.030
 5250POPC   C4B67330  11.164  41.046   7.387
 5251POPC   NC367331  39.415  24.443   5.296
 5251POPC   PO467332  38.789  24.614   5.399
 5251POPC   GL167333  39.062  24.668   5.777
 5251POPC   GL267334  39.313  24.394   5.807
 5251POPC   C1A67335  39.082  24.621   6.244
 5251POPC   D2A67336  39.125  24.748   6.677
 5251POPC   C3A67337  38.997  24.445   6.981
 5251POPC   C4A67338  39.146  24.376   7.401
 5251POPC   C1B67339  39.548  24.710   6.049
 5251POPC   C2B67340  39.599  24.804   6.487
 5251POPC   C3B67341  39.639  24.538   6.859
 5251POPC   C4B67342  39.582  24.590   7.280
 5252POPC   NC367343  35.653  27.897   5.545
 5252POPC   PO467344  35.143  27.561   5.126
 5252POPC   GL167345  35.293  27.550   5.577
 5252POPC   GL267346  35.611  27.397   5.731
 5252POPC   C1A67347  35.298  27.622   6.044
 5252POPC   D2A67348  35.411  27.611   6.490
 5252POPC   C3A67349  35.154  27.860   6.791
 5252POPC   C4A67350  35.247  27.903   7.249
 5252POPC   C1B67351  35.816  27.618   6.127
 5252POPC   C2B67352  35.900  27.877   6.520
 5252POPC   C3B67353  35.927  27.751   6.952
 5252POPC   C4B67354  35.780  27.965   7.316
 5253POPC   NC367355   3.725  13.349   5.504
 5253POPC   PO467356   3.422  13.958   5.309
 5253POPC   GL167357   3.533  13.813   5.755
 5253POPC   GL267358   3.305  13.571   5.912
 5253POPC   C1A67359   3.814  13.607   6.096
 5253POPC   D2A67360   3.634  13.532   6.490
 5253POPC   C3A67361   3.747  13.378   6.867
 5253POPC   C4A67362   3.617  13.668   7.171
 5253POPC   C1B67363   3.170  13.696   6.351
 5253POPC   C2B67364   3.174  13.612   6.834
 5253POPC   C3B67365   3.108  13.872   7.227
 5253POPC   C4B67366   3.040  13.807   7.717
 5254POPC   NC367367  15.942  38.144   5.558
 5254POPC   PO467368  15.552  38.705   5.372
 5254POPC   GL167369  15.797  38.611   5.776
 5254POPC   GL267370  16.180  38.522   5.821
 5254POPC   C1A67371  15.862  38.486   6.211
 5254POPC   D2A67372  15.656  38.568   6.579
 5254POPC   C3A67373  15.867  38.410   6.891
 5254POPC   C4A67374  15.951  38.632   7.200
 5254POPC   C1B67375  16.406  38.543   6.257
 5254POPC   C2B67376  16.361  38.448   6.719
 5254POPC   C3B67377  16.410  38.443   7.175
 5254POPC   C4B67378  16.313  38.714   7.566
 5255POPC   NC367379   1.859  32.539   5.421
 5255POPC   PO467380   2.317  32.003   5.344
 5255POPC   GL167381   2.163  32.168   5.731
 5255POPC   GL267382   2.368  31.996   5.986
 5255POPC   C1A67383   2.030  32.463   6.074
 5255POPC   D2A67384   2.062  32.681   6.458
 5255POPC   C3A67385   2.190  32.469   6.829
 5255POPC   C4A67386   1.902  32.535   7.148
 5255POPC   C1B67387   1.942  31.950   6.142
 5255POPC   C2B67388   1.896  32.164   6.498
 5255POPC   C3B67389   1.814  32.110   6.885
 5255POPC   C4B67390   2.072  32.052   7.184
 5256POPC   NC367391  12.657  13.425   5.319
 5256POPC   PO467392  13.286  13.748   5.445
 5256POPC   GL167393  12.999  13.533   5.692
 5256POPC   GL267394  12.663  13.647   5.794
 5256POPC   C1A67395  13.018  13.470   6.127
 5256POPC   D2A67396  12.964  13.675   6.535
 5256POPC   C3A67397  12.848  13.572   6.953
 5256POPC   C4A67398  12.944  13.217   7.213
 5256POPC   C1B67399  12.521  13.405   6.166
 5256POPC   C2B67400  12.440  13.450   6.615
 5256POPC   C3B67401  12.454  13.276   7.036
 5256POPC   C4B67402  12.522  13.430   7.417
 5257POPC   NC367403   5.692  29.029   5.328
 5257POPC   PO467404   5.425  28.488   5.493
 5257POPC   GL167405   5.386  28.876   5.748
 5257POPC   GL267406   5.595  29.188   5.831
 5257POPC   C1A67407   5.308  28.984   6.183
 5257POPC   D2A67408   5.562  28.998   6.568
 5257POPC   C3A67409   5.643  29.032   7.029
 5257POPC   C4A67410   5.987  28.873   7.329
 5257POPC   C1B67411   5.552  29.423   6.269
 5257POPC   C2B67412   5.586  29.484   6.756
 5257POPC   C3B67413   5.786  29.601   7.187
 5257POPC   C4B67414   5.910  29.660   7.661
 5258POPC   NC367415  30.560   6.061   5.368
 5258POPC   PO467416  30.485   5.429   5.283
 5258POPC   GL167417  30.720   5.687   5.681
 5258POPC   GL267418  30.826   6.061   5.782
 5258POPC   C1A67419  30.557   5.800   6.111
 5258POPC   D2A67420  30.472   5.991   6.511
 5258POPC   C3A67421  30.482   5.776   6.908
 5258POPC   C4A67422  30.788   5.770   7.253
 5258POPC   C1B67423  31.011   6.073   6.131
 5258POPC   C2B67424  30.982   6.154   6.532
 5258POPC   C3B67425  30.811   6.170   6.886
 5258POPC   C4B67426  30.981   6.232   7.254
 5259POPC   NC367427  20.878  35.795   5.645
 5259POPC   PO467428  20.285  35.894   5.319
 5259POPC   GL167429  20.291  36.134   5.756
 5259POPC   GL267430  20.654  36.222   5.827
 5259POPC   C1A67431  20.358  36.205   6.237
 5259POPC   D2A67432  20.605  36.089   6.633
 5259POPC   C3A67433  20.498  36.110   7.067
 5259POPC   C4A67434  20.371  35.865   7.425
 5259POPC   C1B67435  20.905  36.156   6.221
 5259POPC   C2B67436  21.057  36.341   6.645
 5259POPC   C3B67437  21.016  36.296   7.114
 5259POPC   C4B67438  21.135  36.461   7.567
 5260POPC   NC367439  14.654  27.349   5.500
 5260POPC   PO467440  14.227  27.847   5.259
 5260POPC   GL167441  14.465  27.722   5.732
 5260POPC   GL267442  14.856  27.774   5.763
 5260POPC   C1A67443  14.375  27.597   6.171
 5260POPC   D2A67444  14.087  27.375   6.438
 5260POPC   C3A67445  14.215  27.352   6.843
 5260POPC   C4A67446  14.181  27.605   7.210
 5260POPC   C1B67447  14.876  27.724   6.215
 5260POPC   C2B67448  14.689  27.600   6.610
 5260POPC   C3B67449  14.663  27.478   7.041
 5260POPC   C4B67450  14.670  27.687   7.404
 5261POPC   NC367451  28.699  22.687   5.460
 5261POPC   PO467452  28.648  23.319   5.675
 5261POPC   GL167453  28.353  23.026   5.840
 5261POPC   GL267454  27.998  23.091   5.809
 5261POPC   C1A67455  28.400  23.009   6.278
 5261POPC   D2A67456  28.652  23.228   6.597
 5261POPC   C3A67457  28.603  23.013   6.990
 5261POPC   C4A67458  28.227  22.829   7.191
 5261POPC   C1B67459  27.952  23.255   6.242
 5261POPC   C2B67460  28.121  23.209   6.676
 5261POPC   C3B67461  27.913  23.246   7.047
 5261POPC   C4B67462  27.797  23.002   7.430
 5262POPC   NC367463  30.156  29.555   5.481
 5262POPC   PO467464  29.909  28.909   5.235
 5262POPC   GL167465  29.807  28.909   5.717
 5262POPC   GL267466  29.822  29.269   5.776
 5262POPC   C1A67467  29.989  28.995   6.159
 5262POPC   D2A67468  30.198  29.237   6.496
 5262POPC   C3A67469  30.076  29.188   6.923
 5262POPC   C4A67470  30.018  28.926   7.270
 5262POPC   C1B67471  29.547  29.255   6.150
 5262POPC   C2B67472  29.668  29.220   6.577
 5262POPC   C3B67473  29.601  28.997   6.972
 5262POPC   C4B67474  29.627  29.303   7.301
 5263POPC   NC367475  34.305  20.916   5.439
 5263POPC   PO467476  34.420  20.268   5.322
 5263POPC   GL167477  34.671  20.344   5.777
 5263POPC   GL267478  34.554  20.651   5.784
 5263POPC   C1A67479  34.582  20.210   6.219
 5263POPC   D2A67480  34.420  20.417   6.571
 5263POPC   C3A67481  34.690  20.552   6.886
 5263POPC   C4A67482  34.706  20.417   7.288
 5263POPC   C1B67483  34.401  20.796   6.154
 5263POPC   C2B67484  34.410  20.960   6.540
 5263POPC   C3B67485  34.273  20.851   6.914
 5263POPC   C4B67486  34.424  20.904   7.294
 5264POPC   NC367487   1.825  18.684   5.361
 5264POPC   PO467488   2.219  19.189   5.436
 5264POPC   GL167489   2.177  19.019   5.869
 5264POPC   GL267490   2.321  18.711   5.796
 5264POPC   C1A67491   1.968  19.085   6.317
 5264POPC   D2A67492   1.649  19.023   6.653
 5264POPC   C3A67493   1.815  19.041   7.057
 5264POPC   C4A67494   2.270  19.098   7.045
 5264POPC   C1B67495   2.116  18.625   6.198
 5264POPC   C2B67496   1.900  18.580   6.592
 5264POPC   C3B67497   2.073  18.580   6.980
 5264POPC   C4B67498   2.119  18.742   7.383
 5265POPC   NC367499  23.855  31.946   5.326
 5265POPC   PO467500  23.568  31.375   5.173
 5265POPC   GL167501  23.717  31.534   5.625
 5265POPC   GL267502  23.443  31.689   5.810
 5265POPC   C1A67503  23.847  31.488   6.096
 5265POPC   D2A67504  23.875  31.240   6.513
 5265POPC   C3A67505  23.936  31.444   6.936
 5265POPC   C4A67506  23.816  31.424   7.399
 5265POPC   C1B67507  23.288  31.473   6.214
 5265POPC   C2B67508  23.213  31.348   6.670
 5265POPC   C3B67509  23.425  31.372   7.088
 5265POPC   C4B67510  23.331  31.322   7.548
 5266POPC   NC367511  41.283  35.468   5.514
 5266POPC   PO467512  41.778  35.099   5.387
 5266POPC   GL167513  41.575  35.124   5.812
 5266POPC   GL267514  41.209  35.171   5.915
 5266POPC   C1A67515  41.596  35.219   6.255
 5266POPC   D2A67516  41.761  35.581   6.457
 5266POPC   C3A67517  41.867  35.510   6.878
 5266POPC   C4A67518  41.652  35.335   7.246
 5266POPC   C1B67519  41.074  35.285   6.345
 5266POPC   C2B67520  41.346  35.415   6.726
 5266POPC   C3B67521  41.199  35.521   7.159
 5266POPC   C4B67522  41.161  35.157   7.416
 5267POPC   NC367523  31.858  37.305   5.493
 5267POPC   PO467524  32.444  37.635   5.213
 5267POPC   GL167525  32.217  37.721   5.639
 5267POPC   GL267526  32.272  37.399   5.814
 5267POPC   C1A67527  32.266  37.899   6.114
 5267POPC   D2A67528  32.273  38.083   6.572
 5267POPC   C3A67529  32.343  37.813   6.953
 5267POPC   C4A67530  32.162  37.649   7.378
 5267POPC   C1B67531  31.974  37.482   6.141
 5267POPC   C2B67532  31.979  37.663   6.533
 5267POPC   C3B67533  31.937  37.484   6.932
 5267POPC   C4B67534  31.803  37.258   7.280
 5268POPC   NC367535  14.068  28.299   5.374
 5268POPC   PO467536  14.562  28.185   5.800
 5268POPC   GL167537  14.227  28.429   5.919
 5268POPC   GL267538  13.995  28.178   5.889
 5268POPC   C1A67539  14.160  28.488   6.377
 5268POPC   D2A67540  14.125  28.534   6.823
 5268POPC   C3A67541  14.491  28.466   7.099
 5268POPC   C4A67542  14.356  28.613   7.519
 5268POPC   C1B67543  13.963  27.929   6.283
 5268POPC   C2B67544  14.231  27.832   6.637
 5268POPC   C3B67545  14.496  27.960   6.963
 5268POPC   C4B67546  14.148  28.112   7.160
 5269POPC   NC367547   6.068   5.645   5.329
 5269POPC   PO467548   6.007   6.328   5.424
 5269POPC   GL167549   6.022   6.091   5.824
 5269POPC   GL267550   5.889   5.733   5.812
 5269POPC   C1A67551   5.884   6.014   6.263
 5269POPC   D2A67552   5.835   5.771   6.658
 5269POPC   C3A67553   5.984   6.037   7.015
 5269POPC   C4A67554   5.885   6.137   7.452
 5269POPC   C1B67555   5.926   5.469   6.195
 5269POPC   C2B67556   6.044   5.275   6.596
 5269POPC   C3B67557   5.847   5.350   6.989
 5269POPC   C4B67558   5.760   5.668   7.278
 5270POPC   NC367559  39.396  44.310   5.593
 5270POPC   PO467560  39.324  43.696   5.479
 5270POPC   GL167561  39.116  43.772   5.849
 5270POPC   GL267562  39.004  44.130   5.896
 5270POPC   C1A67563  39.299  43.913   6.237
 5270POPC   D2A67564  39.569  43.851   6.541
 5270POPC   C3A67565  39.331  43.612   6.797
 5270POPC   C4A67566  39.332  43.650   7.199
 5270POPC   C1B67567  38.909  44.202   6.350
 5270POPC   C2B67568  39.195  44.162   6.732
 5270POPC   C3B67569  39.272  44.168   7.207
 5270POPC   C4B67570  39.190  44.223   7.679
 5271POPC   NC367571   5.496  16.885   5.292
 5271POPC   PO467572   5.943  16.400   5.310
 5271POPC   GL167573   5.690  16.547   5.711
 5271POPC   GL267574   5.603  16.902   5.812
 5271POPC   C1A67575   5.808  16.620   6.186
 5271POPC   D2A67576   6.111  16.766   6.525
 5271POPC   C3A67577   5.960  16.634   6.940
 5271POPC   C4A67578   5.487  16.565   6.996
 5271POPC   C1B67579   5.545  17.078   6.243
 5271POPC   C2B67580   5.637  16.960   6.689
 5271POPC   C3B67581   5.727  17.081   7.136
 5271POPC   C4B67582   5.800  17.150   7.595
 5272POPC   NC367583  25.832  33.547   5.614
 5272POPC   PO467584  26.058  33.104   5.158
 5272POPC   GL167585  26.122  33.081   5.652
 5272POPC   GL267586  25.923  32.840   5.893
 5272POPC   C1A67587  26.309  33.101   6.099
 5272POPC   D2A67588  26.339  33.235   6.560
 5272POPC   C3A67589  26.275  33.027   6.987
 5272POPC   C4A67590  26.265  33.231   7.415
 5272POPC   C1B67591  25.827  33.096   6.254
 5272POPC   C2B67592  25.873  33.036   6.668
 5272POPC   C3B67593  25.757  32.960   7.061
 5272POPC   C4B67594  25.768  33.221   7.434
 5273POPC   NC367595  37.884  31.550   5.431
 5273POPC   PO467596  37.295  31.881   5.416
 5273POPC   GL167597  37.461  31.697   5.814
 5273POPC   GL267598  37.614  31.369   5.831
 5273POPC   C1A67599  37.704  31.743   6.187
 5273POPC   D2A67600  37.777  31.589   6.584
 5273POPC   C3A67601  37.753  31.852   6.898
 5273POPC   C4A67602  37.594  31.785   7.270
 5273POPC   C1B67603  37.858  31.228   6.214
 5273POPC   C2B67604  37.854  31.100   6.672
 5273POPC   C3B67605  37.754  31.310   7.069
 5273POPC   C4B67606  37.643  31.127   7.469
 5274POPC   NC367607  12.684  42.156   5.450
 5274POPC   PO467608  13.283  42.010   5.188
 5274POPC   GL167609  13.165  42.048   5.684
 5274POPC   GL267610  12.822  42.011   5.914
 5274POPC   C1A67611  13.204  42.259   6.108
 5274POPC   D2A67612  13.040  42.491   6.450
 5274POPC   C3A67613  13.063  42.294   6.848
 5274POPC   C4A67614  13.099  42.481   7.219
 5274POPC   C1B67615  12.665  42.431   6.088
 5274POPC   C2B67616  12.504  42.620   6.487
 5274POPC   C3B67617  12.644  42.604   6.916
 5274POPC   C4B67618  12.660  42.230   7.146
 5275POPC   NC367619  33.799   8.702   5.137
 5275POPC   PO467620  33.545   9.181   5.512
 5275POPC   GL167621  33.790   8.942   5.799
 5275POPC   GL267622  33.824   9.265   5.947
 5275POPC   C1A67623  34.040   8.843   6.205
 5275POPC   D2A67624  34.092   8.756   6.668
 5275POPC   C3A67625  33.723   8.926   6.904
 5275POPC   C4A67626  33.604   9.161   7.252
 5275POPC   C1B67627  33.559   9.503   6.206
 5275POPC   C2B67628  33.644   9.362   6.598
 5275POPC   C3B67629  34.057   9.294   6.728
 5275POPC   C4B67630  34.109   9.219   7.137
 5276POPC   NC367631   8.596  21.915   5.456
 5276POPC   PO467632   9.042  22.445   5.281
 5276POPC   GL167633   9.061  22.264   5.683
 5276POPC   GL267634   8.754  22.285   5.773
 5276POPC   C1A67635   9.136  22.115   6.115
 5276POPC   D2A67636   9.304  22.210   6.542
 5276POPC   C3A67637   9.019  22.175   6.852
 5276POPC   C4A67638   8.915  22.016   7.246
 5276POPC   C1B67639   8.622  22.129   6.153
 5276POPC   C2B67640   8.666  21.982   6.536
 5276POPC   C3B67641   8.522  21.979   6.938
 5276POPC   C4B67642   8.389  22.130   7.328
 5277POPC   NC367643  26.320  31.982   5.456
 5277POPC   PO467644  25.761  32.321   5.660
 5277POPC   GL167645  26.181  32.396   5.746
 5277POPC   GL267646  26.194  32.097   5.936
 5277POPC   C1A67647  26.272  32.554   6.149
 5277POPC   D2A67648  25.903  32.605   6.401
 5277POPC   C3A67649  26.047  32.579   6.807
 5277POPC   C4A67650  25.923  32.287   7.040
 5277POPC   C1B67651  26.026  32.095   6.363
 5277POPC   C2B67652  26.131  31.897   6.754
 5277POPC   C3B67653  26.127  31.854   7.206
 5277POPC   C4B67654  26.241  31.938   7.617
 5278POPC   NC367655  43.416  29.744   5.355
 5278POPC   PO467656  42.974  30.281   5.238
 5278POPC   GL167657  43.033  30.005   5.620
 5278POPC   GL267658  43.367  30.084   5.753
 5278POPC   C1A67659  43.060  29.753   6.032
 5278POPC   D2A67660  42.959  29.565   6.458
 5278POPC   C3A67661  42.902  29.890   6.804
 5278POPC   C4A67662  42.851  29.886   7.283
 5278POPC   C1B67663  43.530  29.949   6.145
 5278POPC   C2B67664  43.399  29.828   6.543
 5278POPC   C3B67665  43.561  29.797   6.942
 5278POPC   C4B67666  43.289  30.084   7.144
 5279POPC   NC367667  18.779  29.818   5.467
 5279POPC   PO467668  19.178  30.299   5.474
 5279POPC   GL167669  19.088  29.999   5.802
 5279POPC   GL267670  18.740  30.100   5.901
 5279POPC   C1A67671  19.262  29.925   6.176
 5279POPC   D2A67672  19.231  30.232   6.494
 5279POPC   C3A67673  19.053  30.065   6.853
 5279POPC   C4A67674  19.153  29.881   7.228
 5279POPC   C1B67675  18.768  29.938   6.334
 5279POPC   C2B67676  18.867  29.603   6.627
 5279POPC   C3B67677  18.748  29.679   7.035
 5279POPC   C4B67678  18.621  30.094   7.162
 5280POPC   NC367679  29.066  38.277   5.271
 5280POPC   PO467680  29.610  38.142   5.500
 5280POPC   GL167681  29.318  38.218   5.879
 5280POPC   GL267682  28.983  38.365   5.791
 5280POPC   C1A67683  29.183  38.166   6.350
 5280POPC   D2A67684  29.052  38.388   6.722
 5280POPC   C3A67685  29.090  38.316   7.169
 5280POPC   C4A67686  28.791  38.401   7.505
 5280POPC   C1B67687  28.884  38.556   6.224
 5280POPC   C2B67688  28.811  38.815   6.609
 5280POPC   C3B67689  28.936  38.859   7.063
 5280POPC   C4B67690  28.884  39.136   7.461
 5281POPC   NC367691  40.598  27.706   5.384
 5281POPC   PO467692  41.068  27.252   5.099
 5281POPC   GL167693  40.961  27.374   5.594
 5281POPC   GL267694  40.613  27.359   5.761
 5281POPC   C1A67695  40.990  27.645   6.000
 5281POPC   D2A67696  41.191  27.773   6.408
 5281POPC   C3A67697  41.097  27.508   6.768
 5281POPC   C4A67698  40.856  27.816   7.073
 5281POPC   C1B67699  40.505  27.527   6.174
 5281POPC   C2B67700  40.639  27.626   6.596
 5281POPC   C3B67701  40.648  27.384   6.972
 5281POPC   C4B67702  40.458  27.324   7.295
 5282POPC   NC367703  24.172  10.112   5.381
 5282POPC   PO467704  24.801   9.898   5.313
 5282POPC   GL167705  24.541   9.852   5.685
 5282POPC   GL267706  24.434   9.494   5.761
 5282POPC   C1A67707  24.495   9.999   6.121
 5282POPC   D2A67708  24.277   9.944   6.522
 5282POPC   C3A67709  24.466  10.039   6.902
 5282POPC   C4A67710  24.430   9.779   7.226
 5282POPC   C1B67711  24.728   9.542   6.095
 5282POPC   C2B67712  24.787   9.769   6.486
 5282POPC   C3B67713  24.781   9.641   6.877
 5282POPC   C4B67714  24.842   9.513   7.282
 5283POPC   NC367715   6.698  33.215   5.347
 5283POPC   PO467716   6.587  32.645   5.621
 5283POPC   GL167717   6.534  33.041   5.832
 5283POPC   GL267718   6.868  33.145   5.825
 5283POPC   C1A67719   6.654  33.056   6.285
 5283POPC   D2A67720   6.956  32.904   6.613
 5283POPC   C3A67721   6.677  32.882   6.982
 5283POPC   C4A67722   6.345  32.967   7.269
 5283POPC   C1B67723   7.016  33.374   6.133
 5283POPC   C2B67724   6.877  33.496   6.511
 5283POPC   C3B67725   6.939  33.331   6.897
 5283POPC   C4B67726   6.756  33.263   7.320
 5284POPC   NC367727  26.373  21.887   5.382
 5284POPC   PO467728  25.899  22.225   5.672
 5284POPC   GL167729  26.191  22.376   5.961
 5284POPC   GL267730  26.381  22.011   6.013
 5284POPC   C1A67731  26.213  22.465   6.399
 5284POPC   D2A67732  26.327  22.179   6.699
 5284POPC   C3A67733  26.275  22.437   7.035
 5284POPC   C4A67734  25.993  22.326   7.303
 5284POPC   C1B67735  26.034  22.002   6.278
 5284POPC   C2B67736  25.839  21.772   6.522
 5284POPC   C3B67737  25.918  21.866   6.904
 5284POPC   C4B67738  25.697  21.938   7.214
 5285POPC   NC367739   4.061  11.777   5.195
 5285POPC   PO467740   4.463  12.320   5.331
 5285POPC   GL167741   4.474  12.213   5.751
 5285POPC   GL267742   4.648  12.480   5.905
 5285POPC   C1A67743   4.171  11.948   5.995
 5285POPC   D2A67744   4.042  11.824   6.422
 5285POPC   C3A67745   4.012  11.984   6.853
 5285POPC   C4A67746   4.065  12.052   7.286
 5285POPC   C1B67747   4.514  12.201   6.265
 5285POPC   C2B67748   4.340  12.305   6.658
 5285POPC   C3B67749   4.486  12.210   7.050
 5285POPC   C4B67750   4.455  12.432   7.436
 5286POPC   NC367751  10.551  35.796   5.496
 5286POPC   PO467752  10.370  36.335   5.361
 5286POPC   GL167753  10.692  36.424   5.691
 5286POPC   GL267754  10.748  36.093   5.844
 5286POPC   C1A67755  10.763  36.485   6.151
 5286POPC   D2A67756  10.809  36.156   6.463
 5286POPC   C3A67757  10.705  36.151   6.874
 5286POPC   C4A67758  10.667  36.444   7.157
 5286POPC   C1B67759  10.421  36.024   6.143
 5286POPC   C2B67760  10.390  35.879   6.551
 5286POPC   C3B67761  10.227  35.975   6.879
 5286POPC   C4B67762  10.367  35.991   7.254
 5287POPC   NC367763  11.976  11.445   5.080
 5287POPC   PO467764  12.259  11.260   5.616
 5287POPC   GL167765  12.205  11.451   5.964
 5287POPC   GL267766  11.876  11.552   5.876
 5287POPC   C1A67767  12.253  11.703   6.292
 5287POPC   D2A67768  12.098  11.500   6.634
 5287POPC   C3A67769  12.444  11.328   6.835
 5287POPC   C4A67770  12.363  11.283   7.235
 5287POPC   C1B67771  11.746  11.273   6.191
 5287POPC   C2B67772  11.648  11.077   6.564
 5287POPC   C3B67773  11.781  11.210   6.964
 5287POPC   C4B67774  11.557  10.974   7.283
 5288POPC   NC367775  22.635   5.605   5.359
 5288POPC   PO467776  22.862   6.286   5.378
 5288POPC   GL167777  22.843   5.981   5.712
 5288POPC   GL267778  22.497   5.913   5.754
 5288POPC   C1A67779  22.958   5.839   6.150
 5288POPC   D2A67780  23.165   5.971   6.532
 5288POPC   C3A67781  22.950   5.870   6.922
 5288POPC   C4A67782  22.854   5.472   7.089
 5288POPC   C1B67783  22.596   6.218   6.096
 5288POPC   C2B67784  22.673   6.118   6.519
 5288POPC   C3B67785  22.447   6.041   6.892
 5288POPC   C4B67786  22.567   5.877   7.294
 5289POPC   NC367787  29.635  33.494   5.468
 5289POPC   PO467788  29.715  32.856   5.285
 5289POPC   GL167789  29.850  33.032   5.714
 5289POPC   GL267790  30.067  32.750   5.805
 5289POPC   C1A67791  29.938  33.171   6.160
 5289POPC   D2A67792  29.700  33.226   6.547
 5289POPC   C3A67793  29.954  33.190   6.914
 5289POPC   C4A67794  30.263  33.238   7.249
 5289POPC   C1B67795  29.862  32.674   6.135
 5289POPC   C2B67796  30.026  32.721   6.505
 5289POPC   C3B67797  29.896  32.625   6.871
 5289POPC   C4B67798  29.950  32.802   7.241
 5290POPC   NC367799  35.238  19.497   5.584
 5290POPC   PO467800  35.108  18.823   5.499
 5290POPC   GL167801  35.186  19.032   5.882
 5290POPC   GL267802  35.540  19.156   5.820
 5290POPC   C1A67803  35.173  18.872   6.316
 5290POPC   D2A67804  35.207  18.707   6.751
 5290POPC   C3A67805  35.138  18.990   7.113
 5290POPC   C4A67806  35.026  18.797   7.471
 5290POPC   C1B67807  35.428  19.336   6.223
 5290POPC   C2B67808  35.385  19.223   6.645
 5290POPC   C3B67809  35.620  19.080   6.984
 5290POPC   C4B67810  35.595  19.388   7.292
 5291POPC   NC367811  23.467   9.901   5.473
 5291POPC   PO467812  24.040   9.624   5.259
 5291POPC   GL167813  23.973   9.745   5.710
 5291POPC   GL267814  23.657   9.800   5.914
 5291POPC   C1A67815  24.067   9.652   6.160
 5291POPC   D2A67816  23.815   9.665   6.548
 5291POPC   C3A67817  23.980   9.643   6.960
 5291POPC   C4A67818  24.009  10.046   7.115
 5291POPC   C1B67819  23.380   9.809   6.246
 5291POPC   C2B67820  23.321   9.561   6.572
 5291POPC   C3B67821  23.322   9.657   6.975
 5291POPC   C4B67822  23.517  10.041   7.035
 5292POPC   NC367823  27.700   6.056   5.289
 5292POPC   PO467824  27.547   5.524   5.673
 5292POPC   GL167825  27.506   5.912   5.897
 5292POPC   GL267826  27.729   6.201   5.780
 5292POPC   C1A67827  27.439   5.837   6.355
 5292POPC   D2A67828  27.161   5.673   6.685
 5292POPC   C3A67829  27.449   5.657   6.978
 5292POPC   C4A67830  27.574   5.606   7.380
 5292POPC   C1B67831  27.933   6.081   6.169
 5292POPC   C2B67832  27.957   5.868   6.586
 5292POPC   C3B67833  27.832   6.010   6.997
 5292POPC   C4B67834  27.465   6.075   7.268
 5293POPC   NC367835  40.296  19.186   5.439
 5293POPC   PO467836  40.857  18.852   5.429
 5293POPC   GL167837  40.615  18.999   5.792
 5293POPC   GL267838  40.787  19.239   5.990
 5293POPC   C1A67839  40.502  18.906   6.222
 5293POPC   D2A67840  40.725  19.166   6.527
 5293POPC   C3A67841  40.615  19.017   6.934
 5293POPC   C4A67842  40.527  19.077   7.353
 5293POPC   C1B67843  41.173  19.263   6.208
 5293POPC   C2B67844  41.343  19.107   6.593
 5293POPC   C3B67845  41.117  19.089   6.939
 5293POPC   C4B67846  41.005  19.261   7.325
 5294POPC   NC367847  16.249   5.094   5.476
 5294POPC   PO467848  15.626   4.917   5.370
 5294POPC   GL167849  15.534   4.875   5.816
 5294POPC   GL267850  15.902   4.951   5.874
 5294POPC   C1A67851  15.616   4.906   6.295
 5294POPC   D2A67852  15.856   5.083   6.643
 5294POPC   C3A67853  15.885   4.789   7.004
 5294POPC   C4A67854  15.963   4.858   7.465
 5294POPC   C1B67855  16.125   4.790   6.277
 5294POPC   C2B67856  16.313   4.882   6.725
 5294POPC   C3B67857  16.331   5.097   7.149
 5294POPC   C4B67858  16.535   5.005   7.556
 5295POPC   NC367859  31.870   9.844   5.408
 5295POPC   PO467860  31.392   9.390   5.367
 5295POPC   GL167861  31.438   9.661   5.759
 5295POPC   GL267862  31.752   9.736   5.887
 5295POPC   C1A67863  31.280   9.800   6.171
 5295POPC   D2A67864  31.100   9.678   6.579
 5295POPC   C3A67865  31.230   9.894   6.969
 5295POPC   C4A67866  31.418   9.791   7.376
 5295POPC   C1B67867  31.761   9.961   6.283
 5295POPC   C2B67868  31.731   9.844   6.747
 5295POPC   C3B67869  31.769  10.121   7.116
 5295POPC   C4B67870  31.816  10.029   7.581
 5296POPC   NC367871  36.331  43.553   5.486
 5296POPC   PO467872  36.931  43.237   5.227
 5296POPC   GL167873  36.811  43.254   5.692
 5296POPC   GL267874  36.797  42.908   5.821
 5296POPC   C1A67875  36.664  43.362   6.142
 5296POPC   D2A67876  36.646  43.192   6.600
 5296POPC   C3A67877  36.796  43.491   6.932
 5296POPC   C4A67878  37.072  43.598   7.296
 5296POPC   C1B67879  37.075  43.011   6.162
 5296POPC   C2B67880  37.149  42.886   6.589
 5296POPC   C3B67881  36.974  42.967   6.990
 5296POPC   C4B67882  36.515  42.921   7.069
 5297POPC   NC367883  40.084   0.726   5.128
 5297POPC   PO467884  39.611   1.185   5.433
 5297POPC   GL167885  39.844   1.290   5.811
 5297POPC   GL267886  40.053   1.029   6.012
 5297POPC   C1A67887  39.727   1.360   6.250
 5297POPC   D2A67888  40.003   1.276   6.564
 5297POPC   C3A67889  39.983   1.315   6.996
 5297POPC   C4A67890  39.715   1.538   7.313
 5297POPC   C1B67891  40.261   0.663   6.218
 5297POPC   C2B67892  40.100   0.536   6.589
 5297POPC   C3B67893  40.040   0.812   6.911
 5297POPC   C4B67894  40.340   0.879   7.206
 5298POPC   NC367895  32.467   5.747   5.691
 5298POPC   PO467896  31.826   5.892   5.416
 5298POPC   GL167897  32.044   6.035   5.817
 5298POPC   GL267898  32.274   6.302   5.982
 5298POPC   C1A67899  31.956   5.922   6.240
 5298POPC   D2A67900  31.749   6.006   6.633
 5298POPC   C3A67901  32.128   5.945   6.867
 5298POPC   C4A67902  32.285   5.730   7.216
 5298POPC   C1B67903  32.520   6.040   6.265
 5298POPC   C2B67904  32.587   6.128   6.682
 5298POPC   C3B67905  32.695   5.970   7.065
 5298POPC   C4B67906  32.500   6.163   7.395
 5299POPC   NC367907   1.665  24.272   5.591
 5299POPC   PO467908   2.169  24.705   5.470
 5299POPC   GL167909   2.097  24.417   5.816
 5299POPC   GL267910   2.135  24.064   5.775
 5299POPC   C1A67911   1.942  24.420   6.232
 5299POPC   D2A67912   2.022  24.416   6.658
 5299POPC   C3A67913   1.702  24.355   6.958
 5299POPC   C4A67914   1.754  24.672   7.300
 5299POPC   C1B67915   2.294  24.040   6.180
 5299POPC   C2B67916   2.493  24.336   6.437
 5299POPC   C3B67917   2.519  24.330   6.857
 5299POPC   C4B67918   2.168  24.301   7.136
 5300POPC   NC367919   2.578   1.396   5.357
 5300POPC   PO467920   1.848   1.208   5.411
 5300POPC   GL167921   1.905   1.400   5.787
 5300POPC   GL267922   2.212   1.515   5.711
 5300POPC   C1A67923   1.720   1.474   6.182
 5300POPC   D2A67924   1.596   1.367   6.592
 5300POPC   C3A67925   1.928   1.195   6.876
 5300POPC   C4A67926   1.824   1.196   7.317
 5300POPC   C1B67927   2.309   1.225   6.054
 5300POPC   C2B67928   2.286   1.235   6.499
 5300POPC   C3B67929   2.482   1.239   6.921
 5300POPC   C4B67930   2.289   1.005   7.248
 5301POPC   NC367931  25.826  24.106   5.593
 5301POPC   PO467932  26.025  23.487   5.389
 5301POPC   GL167933  25.861  23.597   5.786
 5301POPC   GL267934  25.804  23.266   5.925
 5301POPC   C1A67935  26.019  23.856   6.151
 5301POPC   D2A67936  26.297  23.886   6.497
 5301POPC   C3A67937  26.090  23.801   6.916
 5301POPC   C4A67938  26.036  23.892   7.383
 5301POPC   C1B67939  26.214  23.376   6.114
 5301POPC   C2B67940  26.339  23.373   6.539
 5301POPC   C3B67941  26.193  23.266   6.962
 5301POPC   C4B67942  25.968  23.385   7.323
 5302POPC   NC367943  36.021  29.605   5.537
 5302POPC   PO467944  36.259  28.888   5.476
 5302POPC   GL167945  36.230  29.193   5.783
 5302POPC   GL267946  35.904  29.132   5.854
 5302POPC   C1A67947  36.379  29.222   6.195
 5302POPC   D2A67948  36.272  28.991   6.563
 5302POPC   C3A67949  36.340  29.131   6.977
 5302POPC   C4A67950  36.189  28.883   7.394
 5302POPC   C1B67951  35.826  29.244   6.272
 5302POPC   C2B67952  35.919  29.354   6.698
 5302POPC   C3B67953  35.850  29.060   7.028
 5302POPC   C4B67954  35.756  29.168   7.421
 5303POPC   NC367955  35.163  13.286   5.570
 5303POPC   PO467956  35.578  12.678   5.488
 5303POPC   GL167957  35.393  12.865   5.811
 5303POPC   GL267958  35.583  13.149   5.854
 5303POPC   C1A67959  35.260  12.786   6.220
 5303POPC   D2A67960  35.119  12.931   6.634
 5303POPC   C3A67961  35.488  12.897   6.909
 5303POPC   C4A67962  35.648  12.530   7.155
 5303POPC   C1B67963  35.408  13.295   6.216
 5303POPC   C2B67964  35.458  13.344   6.641
 5303POPC   C3B67965  35.161  13.332   6.958
 5303POPC   C4B67966  35.383  13.221   7.301
 5304POPC   NC367967   7.677   3.134   5.359
 5304POPC   PO467968   7.133   2.952   5.507
 5304POPC   GL167969   7.410   2.806   5.852
 5304POPC   GL267970   7.550   2.459   5.827
 5304POPC   C1A67971   7.559   2.885   6.288
 5304POPC   D2A67972   7.709   3.059   6.689
 5304POPC   C3A67973   7.463   2.877   7.023
 5304POPC   C4A67974   7.512   2.482   7.224
 5304POPC   C1B67975   7.339   2.419   6.238
 5304POPC   C2B67976   7.296   2.518   6.685
 5304POPC   C3B67977   7.049   2.324   7.027
 5304POPC   C4B67978   7.036   2.301   7.496
 5305POPC   NC367979  21.133  26.146   5.378
 5305POPC   PO467980  21.640  25.631   5.495
 5305POPC   GL167981  21.425  25.883   5.753
 5305POPC   GL267982  21.082  25.760   5.757
 5305POPC   C1A67983  21.587  26.052   6.137
 5305POPC   D2A67984  21.548  25.897   6.556
 5305POPC   C3A67985  21.748  26.157   6.871
 5305POPC   C4A67986  21.594  26.267   7.272
 5305POPC   C1B67987  21.079  26.044   6.083
 5305POPC   C2B67988  21.052  26.148   6.499
 5305POPC   C3B67989  21.221  26.116   6.900
 5305POPC   C4B67990  21.091  26.129   7.305
 5306POPC   NC367991  24.295  23.104   5.445
 5306POPC   PO467992  24.545  22.580   5.132
 5306POPC   GL167993  24.525  22.666   5.638
 5306POPC   GL267994  24.859  22.642   5.845
 5306POPC   C1A67995  24.381  22.794   6.080
 5306POPC   D2A67996  24.357  22.987   6.536
 5306POPC   C3A67997  24.215  22.921   7.014
 5306POPC   C4A67998  24.302  23.089   7.477
 5306POPC   C1B67999  24.833  23.059   6.099
 5306POPC   C2B68000  24.865  23.171   6.553
 5306POPC   C3B68001  24.746  22.849   6.839
 5306POPC   C4B68002  24.676  22.807   7.248
 5307POPC   NC368003  31.041  21.633   5.164
 5307POPC   PO468004  30.819  21.015   5.424
 5307POPC   GL168005  30.787  21.343   5.785
 5307POPC   GL268006  30.467  21.357   5.987
 5307POPC   C1A68007  30.963  21.722   6.028
 5307POPC   D2A68008  30.934  21.906   6.464
 5307POPC   C3A68009  30.682  21.671   6.782
 5307POPC   C4A68010  30.796  21.784   7.194
 5307POPC   C1B68011  30.756  21.403   6.350
 5307POPC   C2B68012  31.009  21.177   6.658
 5307POPC   C3B68013  30.888  21.257   7.093
 5307POPC   C4B68014  30.438  21.393   7.199
 5308POPC   NC368015   7.794  36.274   5.242
 5308POPC   PO468016   7.118  36.379   5.390
 5308POPC   GL168017   7.234  36.224   5.789
 5308POPC   GL268018   7.474  36.024   5.630
 5308POPC   C1A68019   7.155  36.051   6.226
 5308POPC   D2A68020   7.029  36.263   6.608
 5308POPC   C3A68021   7.215  36.171   6.985
 5308POPC   C4A68022   7.072  36.130   7.397
 5308POPC   C1B68023   7.642  36.091   6.072
 5308POPC   C2B68024   7.830  36.024   6.473
 5308POPC   C3B68025   7.728  36.098   6.888
 5308POPC   C4B68026   7.791  36.012   7.297
 5309POPC   NC368027  28.412  30.269   5.616
 5309POPC   PO468028  28.513  30.908   5.490
 5309POPC   GL168029  28.487  30.755   5.875
 5309POPC   GL268030  28.783  30.594   5.857
 5309POPC   C1A68031  28.178  30.732   6.211
 5309POPC   D2A68032  27.904  30.716   6.583
 5309POPC   C3A68033  28.102  30.693   6.984
 5309POPC   C4A68034  28.031  30.890   7.372
 5309POPC   C1B68035  28.654  30.502   6.295
 5309POPC   C2B68036  28.642  30.190   6.618
 5309POPC   C3B68037  28.584  30.170   7.012
 5309POPC   C4B68038  28.555  30.580   7.210
 5310POPC   NC368039   4.968  29.636   5.496
 5310POPC   PO468040   5.207  30.266   5.578
 5310POPC   GL168041   4.968  30.102   5.925
 5310POPC   GL268042   4.639  30.216   5.981
 5310POPC   C1A68043   4.985  30.056   6.397
 5310POPC   D2A68044   5.001  30.057   6.856
 5310POPC   C3A68045   5.245  29.707   7.076
 5310POPC   C4A68046   5.419  29.747   7.522
 5310POPC   C1B68047   4.607  29.783   6.197
 5310POPC   C2B68048   4.725  29.658   6.631
 5310POPC   C3B68049   4.696  29.710   7.084
 5310POPC   C4B68050   4.913  29.538   7.442
 5311POPC   NC368051  23.121  10.790   5.490
 5311POPC   PO468052  22.758  10.318   5.568
 5311POPC   GL168053  23.022  10.556   5.935
 5311POPC   GL268054  23.058  10.947   5.964
 5311POPC   C1A68055  22.987  10.650   6.394
 5311POPC   D2A68056  22.594  10.484   6.547
 5311POPC   C3A68057  22.631  10.249   6.913
 5311POPC   C4A68058  22.740  10.387   7.327
 5311POPC   C1B68059  22.637  10.960   6.162
 5311POPC   C2B68060  22.557  11.001   6.614
 5311POPC   C3B68061  22.752  10.832   6.983
 5311POPC   C4B68062  23.080  10.801   7.285
 5312POPC   NC368063   8.702   0.732   5.466
 5312POPC   PO468064   8.743   0.075   5.372
 5312POPC   GL168065   8.984   0.343   5.673
 5312POPC   GL268066   8.702   0.389   5.850
 5312POPC   C1A68067   9.131   0.524   6.120
 5312POPC   D2A68068   9.157   0.472   6.615
 5312POPC   C3A68069   9.356   0.385   7.066
 5312POPC   C4A68070   9.631   0.392   7.451
 5312POPC   C1B68071   8.649   0.716   6.175
 5312POPC   C2B68072   8.647   0.571   6.606
 5312POPC   C3B68073   8.841   0.507   7.019
 5312POPC   C4B68074   8.977   0.508   7.433
 5313POPC   NC368075   4.089  24.868   5.523
 5313POPC   PO468076   4.768  24.538   5.474
 5313POPC   GL168077   4.506  24.668   5.792
 5313POPC   GL268078   4.183  24.447   5.866
 5313POPC   C1A68079   4.591  24.531   6.198
 5313POPC   D2A68080   4.328  24.419   6.502
 5313POPC   C3A68081   4.313  24.542   6.920
 5313POPC   C4A68082   4.387  24.640   7.338
 5313POPC   C1B68083   3.963  24.172   6.210
 5313POPC   C2B68084   4.088  24.003   6.639
 5313POPC   C3B68085   3.892  24.225   6.987
 5313POPC   C4B68086   3.908  24.480   7.376
 5314POPC   NC368087   5.436   7.352   5.522
 5314POPC   PO468088   5.159   6.722   5.459
 5314POPC   GL168089   5.389   6.877   5.791
 5314POPC   GL268090   5.178   7.141   5.910
 5314POPC   C1A68091   5.288   6.694   6.184
 5314POPC   D2A68092   5.133   6.568   6.597
 5314POPC   C3A68093   5.360   6.550   6.988
 5314POPC   C4A68094   5.163   6.455   7.377
 5314POPC   C1B68095   5.401   7.169   6.319
 5314POPC   C2B68096   5.341   7.011   6.754
 5314POPC   C3B68097   5.004   6.908   7.086
 5314POPC   C4B68098   4.932   7.147   7.485
 5315POPC   NC368099  16.728  14.716   5.080
 5315POPC   PO468100  16.471  15.226   5.571
 5315POPC   GL168101  16.834  15.277   5.904
 5315POPC   GL268102  17.125  15.040   5.850
 5315POPC   C1A68103  16.773  15.344   6.375
 5315POPC   D2A68104  16.514  15.090   6.681
 5315POPC   C3A68105  16.707  15.143   7.063
 5315POPC   C4A68106  16.543  15.523   7.270
 5315POPC   C1B68107  17.110  14.940   6.271
 5315POPC   C2B68108  17.010  14.948   6.692
 5315POPC   C3B68109  17.150  14.740   7.068
 5315POPC   C4B68110  17.047  14.880   7.488
 5316POPC   NC368111   1.436  27.248   5.575
 5316POPC   PO468112   0.940  26.782   5.490
 5316POPC   GL168113   1.202  26.596   5.828
 5316POPC   GL268114   1.548  26.760   5.828
 5316POPC   C1A68115   1.113  26.651   6.285
 5316POPC   D2A68116   1.167  26.990   6.591
 5316POPC   C3A68117   1.034  26.894   6.990
 5316POPC   C4A68118   1.262  27.050   7.361
 5316POPC   C1B68119   1.590  26.460   6.187
 5316POPC   C2B68120   1.482  26.530   6.638
 5316POPC   C3B68121   1.470  26.602   7.099
 5316POPC   C4B68122   1.521  26.462   7.524
 5317POPC   NC368123  21.483  34.844   5.517
 5317POPC   PO468124  21.049  34.350   5.442
 5317POPC   GL168125  21.317  34.439   5.796
 5317POPC   GL268126  21.505  34.149   5.712
 5317POPC   C1A68127  21.427  34.631   6.247
 5317POPC   D2A68128  21.213  34.806   6.639
 5317POPC   C3A68129  21.322  34.857   7.078
 5317POPC   C4A68130  21.737  34.703   7.153
 5317POPC   C1B68131  21.358  34.078   6.153
 5317POPC   C2B68132  21.196  34.254   6.519
 5317POPC   C3B68133  21.382  34.382   6.881
 5317POPC   C4B68134  21.306  34.385   7.291
 5318POPC   NC368135  15.806  37.327   5.346
 5318POPC   PO468136  16.105  36.711   5.231
 5318POPC   GL168137  16.077  36.967   5.620
 5318POPC   GL268138  16.360  36.862   5.816
 5318POPC   C1A68139  15.805  37.070   6.005
 5318POPC   D2A68140  15.896  37.143   6.453
 5318POPC   C3A68141  15.635  37.144   6.832
 5318POPC   C4A68142  15.782  36.869   7.172
 5318POPC   C1B68143  16.309  37.206   6.122
 5318POPC   C2B68144  16.384  37.319   6.584
 5318POPC   C3B68145  16.188  37.085   6.948
 5318POPC   C4B68146  16.288  36.675   7.232
 5319POPC   NC368147  19.572  39.800   5.314
 5319POPC   PO468148  18.904  39.839   5.477
 5319POPC   GL168149  18.903  39.917   5.873
 5319POPC   GL268150  18.709  40.225   5.858
 5319POPC   C1A68151  19.215  40.037   6.199
 5319POPC   D2A68152  19.245  39.928   6.645
 5319POPC   C3A68153  19.215  40.207   7.013
 5319POPC   C4A68154  19.414  40.206   7.423
 5319POPC   C1B68155  18.741  40.140   6.285
 5319POPC   C2B68156  18.913  40.334   6.592
 5319POPC   C3B68157  18.698  40.242   6.914
 5319POPC   C4B68158  18.794  39.974   7.236
 5320POPC   NC368159   4.566  36.645   5.483
 5320POPC   PO468160   4.377  36.008   5.324
 5320POPC   GL168161   4.395  36.165   5.773
 5320POPC   GL268162   4.126  35.960   5.848
 5320POPC   C1A68163   4.295  36.265   6.258
 5320POPC   D2A68164   4.344  36.537   6.675
 5320POPC   C3A68165   4.331  36.347   7.102
 5320POPC   C4A68166   4.561  35.970   7.244
 5320POPC   C1B68167   3.868  35.757   6.106
 5320POPC   C2B68168   3.878  35.977   6.452
 5320POPC   C3B68169   4.175  35.959   6.792
 5320POPC   C4B68170   4.056  35.903   7.218
 5321POPC   NC368171  37.450   7.182   5.122
 5321POPC   PO468172  37.674   7.652   5.479
 5321POPC   GL168173  37.548   7.574   5.878
 5321POPC   GL268174  37.906   7.632   5.956
 5321POPC   C1A68175  37.544   7.389   6.293
 5321POPC   D2A68176  37.453   7.366   6.732
 5321POPC   C3A68177  37.762   7.324   7.021
 5321POPC   C4A68178  37.702   7.383   7.447
 5321POPC   C1B68179  37.714   7.880   6.283
 5321POPC   C2B68180  37.683   7.835   6.734
 5321POPC   C3B68181  37.567   7.808   7.158
 5321POPC   C4B68182  37.721   7.861   7.607
 5322POPC   NC368183  18.649  35.253   4.957
 5322POPC   PO468184  18.069  35.180   5.378
 5322POPC   GL168185  18.385  35.169   5.725
 5322POPC   GL268186  18.444  35.468   5.829
 5322POPC   C1A68187  18.463  35.096   6.186
 5322POPC   D2A68188  18.306  35.335   6.556
 5322POPC   C3A68189  18.239  35.146   6.969
 5322POPC   C4A68190  18.001  35.264   7.354
 5322POPC   C1B68191  18.217  35.684   6.138
 5322POPC   C2B68192  18.198  35.846   6.536
 5322POPC   C3B68193  18.019  35.673   6.907
 5322POPC   C4B68194  17.891  35.765   7.321
 5323POPC   NC368195   3.599   3.802   5.399
 5323POPC   PO468196   3.448   3.149   5.379
 5323POPC   GL168197   3.630   3.346   5.749
 5323POPC   GL268198   3.791   3.076   5.887
 5323POPC   C1A68199   3.639   3.514   6.212
 5323POPC   D2A68200   3.539   3.403   6.691
 5323POPC   C3A68201   3.707   3.653   7.062
 5323POPC   C4A68202   3.705   3.558   7.543
 5323POPC   C1B68203   3.766   3.032   6.369
 5323POPC   C2B68204   3.882   2.998   6.808
 5323POPC   C3B68205   3.686   3.158   7.176
 5323POPC   C4B68206   3.750   3.054   7.588
 5324POPC   NC368207  15.599  28.506   5.369
 5324POPC   PO468208  16.051  28.063   5.559
 5324POPC   GL168209  15.833  28.322   5.816
 5324POPC   GL268210  15.619  28.054   5.889
 5324POPC   C1A68211  15.812  28.533   6.242
 5324POPC   D2A68212  15.659  28.354   6.668
 5324POPC   C3A68213  15.772  28.565   7.055
 5324POPC   C4A68214  16.217  28.631   7.139
 5324POPC   C1B68215  15.789  28.025   6.274
 5324POPC   C2B68216  15.790  27.800   6.655
 5324POPC   C3B68217  15.817  27.978   7.023
 5324POPC   C4B68218  15.466  28.149   7.213
 5325POPC   NC368219  20.451  31.079   5.392
 5325POPC   PO468220  20.784  30.523   5.287
 5325POPC   GL168221  20.821  30.752   5.687
 5325POPC   GL268222  20.468  30.728   5.801
 5325POPC   C1A68223  20.862  30.761   6.172
 5325POPC   D2A68224  20.948  30.869   6.622
 5325POPC   C3A68225  20.704  30.869   7.020
 5325POPC   C4A68226  20.385  30.604   7.212
 5325POPC   C1B68227  20.250  30.863   6.200
 5325POPC   C2B68228  20.318  30.804   6.667
 5325POPC   C3B68229  20.216  31.043   7.037
 5325POPC   C4B68230  20.414  31.065   7.445
 5326POPC   NC368231  27.547  26.447   5.188
 5326POPC   PO468232  27.710  25.847   5.354
 5326POPC   GL168233  27.531  26.067   5.735
 5326POPC   GL268234  27.831  26.018   5.887
 5326POPC   C1A68235  27.431  26.222   6.199
 5326POPC   D2A68236  27.810  26.236   6.469
 5326POPC   C3A68237  27.800  26.124   6.903
 5326POPC   C4A68238  27.374  26.079   7.085
 5326POPC   C1B68239  27.669  25.785   6.223
 5326POPC   C2B68240  27.454  25.840   6.590
 5326POPC   C3B68241  27.614  25.627   6.930
 5326POPC   C4B68242  27.757  25.783   7.309
 5327POPC   NC368243   4.952  32.739   5.512
 5327POPC   PO468244   5.482  33.193   5.524
 5327POPC   GL168245   5.337  32.973   5.881
 5327POPC   GL268246   5.005  33.092   5.891
 5327POPC   C1A68247   5.249  33.096   6.322
 5327POPC   D2A68248   4.917  33.187   6.587
 5327POPC   C3A68249   5.177  33.132   6.929
 5327POPC   C4A68250   5.088  33.233   7.318
 5327POPC   C1B68251   4.840  32.789   6.202
 5327POPC   C2B68252   4.933  32.675   6.646
 5327POPC   C3B68253   4.743  32.899   7.018
 5327POPC   C4B68254   4.949  32.778   7.417
 5328POPC   NC368255   1.434  34.983   5.514
 5328POPC   PO468256   0.814  35.149   5.410
 5328POPC   GL168257   0.932  34.725   5.659
 5328POPC   GL268258   1.272  34.660   5.889
 5328POPC   C1A68259   0.840  34.696   6.122
 5328POPC   D2A68260   1.166  34.545   6.446
 5328POPC   C3A68261   1.085  34.575   6.896
 5328POPC   C4A68262   1.316  34.455   7.265
 5328POPC   C1B68263   1.462  34.280   6.115
 5328POPC   C2B68264   1.542  34.107   6.514
 5328POPC   C3B68265   1.598  34.379   6.843
 5328POPC   C4B68266   1.811  34.343   7.217
 5329POPC   NC368267  23.641  18.865   5.266
 5329POPC   PO468268  24.081  19.271   5.467
 5329POPC   GL168269  23.778  19.037   5.741
 5329POPC   GL268270  23.544  19.337   5.694
 5329POPC   C1A68271  23.616  18.816   6.160
 5329POPC   D2A68272  23.625  18.699   6.637
 5329POPC   C3A68273  23.677  18.847   7.099
 5329POPC   C4A68274  23.878  19.129   7.398
 5329POPC   C1B68275  23.565  19.317   6.139
 5329POPC   C2B68276  23.365  19.143   6.517
 5329POPC   C3B68277  23.431  19.254   6.936
 5329POPC   C4B68278  23.452  19.405   7.357
 5330POPC   NC368279   1.525  20.258   5.542
 5330POPC   PO468280   1.029  20.664   5.324
 5330POPC   GL168281   1.000  20.754   5.766
 5330POPC   GL268282   1.332  20.693   5.884
 5330POPC   C1A68283   0.950  20.504   6.146
 5330POPC   D2A68284   1.258  20.553   6.477
 5330POPC   C3A68285   1.254  20.381   6.899
 5330POPC   C4A68286   1.079  20.509   7.284
 5330POPC   C1B68287   1.604  20.870   6.213
 5330POPC   C2B68288   1.631  20.864   6.648
 5330POPC   C3B68289   1.456  20.950   7.054
 5330POPC   C4B68290   1.569  20.642   7.333
 5331POPC   NC368291   3.580  37.600   5.491
 5331POPC   PO468292   3.159  37.973   5.235
 5331POPC   GL168293   3.331  38.003   5.729
 5331POPC   GL268294   3.681  38.057   5.805
 5331POPC   C1A68295   3.483  37.763   6.150
 5331POPC   D2A68296   3.652  37.696   6.581
 5331POPC   C3A68297   3.391  37.742   6.969
 5331POPC   C4A68298   3.410  37.582   7.403
 5331POPC   C1B68299   3.919  38.034   6.211
 5331POPC   C2B68300   4.047  38.014   6.629
 5331POPC   C3B68301   3.903  37.879   7.023
 5331POPC   C4B68302   3.690  37.996   7.377
 5332POPC   NC368303   1.715  33.388   5.484
 5332POPC   PO468304   2.036  32.894   5.126
 5332POPC   GL168305   2.025  32.994   5.608
 5332POPC   GL268306   1.677  32.932   5.779
 5332POPC   C1A68307   2.114  33.030   6.070
 5332POPC   D2A68308   2.096  33.223   6.488
 5332POPC   C3A68309   2.181  32.990   6.865
 5332POPC   C4A68310   2.255  32.863   7.260
 5332POPC   C1B68311   1.621  32.916   6.252
 5332POPC   C2B68312   1.694  32.965   6.715
 5332POPC   C3B68313   1.720  33.013   7.178
 5332POPC   C4B68314   1.526  33.106   7.572
 5333POPC   NC368315  11.511  20.149   5.088
 5333POPC   PO468316  11.098  20.614   5.405
 5333POPC   GL168317  11.349  20.648   5.815
 5333POPC   GL268318  11.607  20.374   5.932
 5333POPC   C1A68319  11.394  20.906   6.153
 5333POPC   D2A68320  11.116  20.977   6.487
 5333POPC   C3A68321  11.344  21.071   6.847
 5333POPC   C4A68322  11.449  20.839   7.236
 5333POPC   C1B68323  11.293  20.402   6.262
 5333POPC   C2B68324  11.336  20.573   6.657
 5333POPC   C3B68325  11.142  20.496   7.003
 5333POPC   C4B68326  11.472  20.323   7.199
 5334POPC   NC368327  40.396  22.369   5.565
 5334POPC   PO468328  41.106  22.224   5.371
 5334POPC   GL168329  40.883  22.336   5.728
 5334POPC   GL268330  40.704  22.009   5.803
 5334POPC   C1A68331  40.786  22.396   6.162
 5334POPC   D2A68332  40.924  22.146   6.512
 5334POPC   C3A68333  40.643  22.084   6.836
 5334POPC   C4A68334  40.589  22.417   7.109
 5334POPC   C1B68335  40.904  21.757   6.141
 5334POPC   C2B68336  41.042  21.648   6.579
 5334POPC   C3B68337  41.204  21.918   6.910
 5334POPC   C4B68338  40.948  22.077   7.256
 5335POPC   NC368339  41.190   2.931   5.181
 5335POPC   PO468340  41.322   2.425   5.417
 5335POPC   GL168341  41.627   2.470   5.812
 5335POPC   GL268342  41.771   2.808   5.842
 5335POPC   C1A68343  41.660   2.557   6.307
 5335POPC   D2A68344  41.681   2.527   6.800
 5335POPC   C3A68345  41.444   2.733   7.139
 5335POPC   C4A68346  41.575   2.911   7.537
 5335POPC   C1B68347  41.976   2.966   6.231
 5335POPC   C2B68348  41.935   2.954   6.682
 5335POPC   C3B68349  41.911   2.946   7.110
 5335POPC   C4B68350  41.943   3.252   7.435
 5336POPC   NC368351  15.061  44.404   5.131
 5336POPC   PO468352  15.325  44.909   5.345
 5336POPC   GL168353  15.328  44.512   5.602
 5336POPC   GL268354  15.045  44.637   5.754
 5336POPC   C1A68355  15.249  44.337   6.080
 5336POPC   D2A68356  15.099  44.557   6.471
 5336POPC   C3A68357  15.112  44.438   6.920
 5336POPC   C4A68358  15.305  44.178   7.224
 5336POPC   C1B68359  15.186  44.903   6.103
 5336POPC   C2B68360  15.159   0.064   6.552
 5336POPC   C3B68361  15.109  44.975   6.995
 5336POPC   C4B68362  15.211   0.156   7.400
 5337POPC   NC368363   8.872  34.793   5.659
 5337POPC   PO468364   9.274  34.516   5.167
 5337POPC   GL168365   9.287  34.493   5.710
 5337POPC   GL268366   9.288  34.786   5.971
 5337POPC   C1A68367   9.014  34.370   6.105
 5337POPC   D2A68368   8.818  34.191   6.453
 5337POPC   C3A68369   8.770  34.497   6.752
 5337POPC   C4A68370   8.842  34.517   7.190
 5337POPC   C1B68371   9.514  34.419   6.181
 5337POPC   C2B68372   9.358  34.170   6.514
 5337POPC   C3B68373   9.185  34.229   6.931
 5337POPC   C4B68374   9.396  34.220   7.318
 5338POPC   NC368375  15.297  43.508   5.520
 5338POPC   PO468376  15.343  44.076   5.266
 5338POPC   GL168377  15.374  43.987   5.726
 5338POPC   GL268378  15.668  43.960   5.903
 5338POPC   C1A68379  15.200  43.818   6.160
 5338POPC   D2A68380  15.015  43.619   6.565
 5338POPC   C3A68381  14.934  43.874   6.950
 5338POPC   C4A68382  15.009  43.729   7.330
 5338POPC   C1B68383  15.635  44.105   6.322
 5338POPC   C2B68384  15.310  44.048   6.627
 5338POPC   C3B68385  15.429  43.751   6.949
 5338POPC   C4B68386  15.800  43.946   7.114
 5339POPC   NC368387   5.067  19.354   5.481
 5339POPC   PO468388   5.000  18.728   5.481
 5339POPC   GL168389   5.121  18.968   5.851
 5339POPC   GL268390   5.301  19.297   5.911
 5339POPC   C1A68391   4.924  19.105   6.215
 5339POPC   D2A68392   4.893  19.409   6.531
 5339POPC   C3A68393   4.953  19.231   6.944
 5339POPC   C4A68394   4.844  18.915   7.260
 5339POPC   C1B68395   5.479  19.251   6.277
 5339POPC   C2B68396   5.300  18.991   6.555
 5339POPC   C3B68397   5.481  19.133   6.898
 5339POPC   C4B68398   5.325  19.042   7.268
 5340POPC   NC368399  38.013  35.318   5.108
 5340POPC   PO468400  37.469  35.441   5.537
 5340POPC   GL168401  37.648  35.438   5.932
 5340POPC   GL268402  37.911  35.678   6.013
 5340POPC   C1A68403  37.581  35.183   6.305
 5340POPC   D2A68404  37.767  34.956   6.665
 5340POPC   C3A68405  37.537  35.118   7.023
 5340POPC   C4A68406  37.434  35.031   7.428
 5340POPC   C1B68407  37.564  35.737   6.323
 5340POPC   C2B68408  37.445  35.572   6.703
 5340POPC   C3B68409  37.590  35.652   7.086
 5340POPC   C4B68410  37.734  35.440   7.460
 5341POPC   NC368411  22.402  27.375   5.421
 5341POPC   PO468412  22.112  28.069   5.325
 5341POPC   GL168413  22.172  27.777   5.699
 5341POPC   GL268414  21.826  27.682   5.753
 5341POPC   C1A68415  22.400  27.704   6.125
 5341POPC   D2A68416  22.566  27.723   6.568
 5341POPC   C3A68417  22.388  27.481   6.906
 5341POPC   C4A68418  22.195  27.590   7.276
 5341POPC   C1B68419  21.893  27.502   6.152
 5341POPC   C2B68420  22.020  27.597   6.564
 5341POPC   C3B68421  21.804  27.566   6.959
 5341POPC   C4B68422  21.629  27.686   7.361
 5342POPC   NC368423  31.864  29.283   5.398
 5342POPC   PO468424  32.469  28.905   5.467
 5342POPC   GL168425  32.237  29.028   5.826
 5342POPC   GL268426  32.289  29.377   5.811
 5342POPC   C1A68427  32.157  29.043   6.286
 5342POPC   D2A68428  32.239  29.168   6.716
 5342POPC   C3A68429  32.262  28.871   7.056
 5342POPC   C4A68430  32.582  28.866   7.334
 5342POPC   C1B68431  31.973  29.500   6.115
 5342POPC   C2B68432  31.785  29.362   6.521
 5342POPC   C3B68433  31.930  29.512   6.934
 5342POPC   C4B68434  32.293  29.364   7.210
 5343POPC   NC368435   1.287  40.442   5.285
 5343POPC   PO468436   1.434  39.823   5.329
 5343POPC   GL168437   1.392  40.103   5.662
 5343POPC   GL268438   1.161  39.941   5.867
 5343POPC   C1A68439   1.537  40.147   6.109
 5343POPC   D2A68440   1.376  39.905   6.463
 5343POPC   C3A68441   1.403  40.132   6.862
 5343POPC   C4A68442   1.241  39.896   7.225
 5343POPC   C1B68443   0.947  40.200   6.173
 5343POPC   C2B68444   1.002  40.255   6.585
 5343POPC   C3B68445   0.875  40.023   6.889
 5343POPC   C4B68446   0.800  40.240   7.238
 5344POPC   NC368447   7.939  38.882   5.468
 5344POPC   PO468448   8.340  39.415   5.333
 5344POPC   GL168449   8.248  39.368   5.759
 5344POPC   GL268450   8.351  39.014   5.772
 5344POPC   C1A68451   8.060  39.261   6.171
 5344POPC   D2A68452   8.207  39.409   6.579
 5344POPC   C3A68453   7.958  39.488   6.972
 5344POPC   C4A68454   8.060  39.411   7.426
 5344POPC   C1B68455   8.384  38.847   6.184
 5344POPC   C2B68456   8.144  38.888   6.580
 5344POPC   C3B68457   8.115  38.997   7.022
 5344POPC   C4B68458   8.318  38.945   7.442
 5345POPC   NC368459  20.044   8.331   5.143
 5345POPC   PO468460  19.445   8.147   5.376
 5345POPC   GL168461  19.843   8.237   5.634
 5345POPC   GL268462  19.684   8.469   5.866
 5345POPC   C1A68463  20.087   8.242   6.073
 5345POPC   D2A68464  20.073   8.110   6.558
 5345POPC   C3A68465  20.018   8.197   7.038
 5345POPC   C4A68466  19.795   8.369   7.402
 5345POPC   C1B68467  19.625   8.271   6.294
 5345POPC   C2B68468  19.594   8.250   6.754
 5345POPC   C3B68469  19.472   8.050   7.144
 5345POPC   C4B68470  19.323   8.020   7.564
 5346POPC   NC368471   3.328  19.032   5.323
 5346POPC   PO468472   4.001  18.773   5.449
 5346POPC   GL168473   3.692  19.025   5.729
 5346POPC   GL268474   3.364  18.920   5.830
 5346POPC   C1A68475   3.558  19.249   6.147
 5346POPC   D2A68476   3.572  19.468   6.538
 5346POPC   C3A68477   3.593  19.251   6.944
 5346POPC   C4A68478   3.327  19.123   7.272
 5346POPC   C1B68479   3.345  18.800   6.249
 5346POPC   C2B68480   3.626  18.890   6.559
 5346POPC   C3B68481   3.591  18.692   6.924
 5346POPC   C4B68482   3.664  18.731   7.326
 5347POPC   NC368483  40.985  11.185   5.637
 5347POPC   PO468484  41.623  11.231   5.416
 5347POPC   GL168485  41.481  11.206   5.806
 5347POPC   GL268486  41.723  10.959   5.896
 5347POPC   C1A68487  41.402  11.402   6.199
 5347POPC   D2A68488  41.636  11.575   6.553
 5347POPC   C3A68489  41.447  11.597   6.964
 5347POPC   C4A68490  41.632  11.295   7.238
 5347POPC   C1B68491  41.357  10.856   6.173
 5347POPC   C2B68492  41.264  10.758   6.616
 5347POPC   C3B68493  41.364  10.921   7.012
 5347POPC   C4B68494  41.249  10.752   7.391
 5348POPC   NC368495  27.196   1.785   5.260
 5348POPC   PO468496  26.564   1.823   5.360
 5348POPC   GL168497  26.618   2.062   5.751
 5348POPC   GL268498  26.730   2.389   5.662
 5348POPC   C1A68499  26.628   1.999   6.200
 5348POPC   D2A68500  26.851   1.895   6.556
 5348POPC   C3A68501  26.740   1.822   6.990
 5348POPC   C4A68502  27.119   1.684   7.247
 5348POPC   C1B68503  26.984   2.343   6.037
 5348POPC   C2B68504  27.006   2.396   6.482
 5348POPC   C3B68505  26.986   2.250   6.898
 5348POPC   C4B68506  26.605   2.300   7.163
 5349POPC   NC368507  21.091   0.171   5.311
 5349POPC   PO468508  21.598   0.623   5.412
 5349POPC   GL168509  21.433   0.535   5.796
 5349POPC   GL268510  21.091   0.665   5.856
 5349POPC   C1A68511  21.496   0.349   6.194
 5349POPC   D2A68512  21.355   0.417   6.606
 5349POPC   C3A68513  21.631   0.280   6.915
 5349POPC   C4A68514  21.566   0.439   7.303
 5349POPC   C1B68515  20.906   0.866   6.279
 5349POPC   C2B68516  20.944   0.699   6.739
 5349POPC   C3B68517  21.068   0.538   7.181
 5349POPC   C4B68518  20.941   0.603   7.647
 5350POPC   NC368519  14.407  19.210   5.414
 5350POPC   PO468520  14.106  18.671   5.580
 5350POPC   GL168521  14.241  18.975   5.857
 5350POPC   GL268522  14.604  19.037   5.855
 5350POPC   C1A68523  14.327  19.167   6.267
 5350POPC   D2A68524  14.397  19.001   6.660
 5350POPC   C3A68525  14.170  19.175   6.988
 5350POPC   C4A68526  14.408  19.050   7.328
 5350POPC   C1B68527  14.800  19.343   6.137
 5350POPC   C2B68528  14.696  19.461   6.554
 5350POPC   C3B68529  14.633  19.374   6.964
 5350POPC   C4B68530  14.798  19.377   7.349
 5351POPC   NC368531   5.427  34.384   5.621
 5351POPC   PO468532   4.732  34.646   5.599
 5351POPC   GL168533   5.044  34.550   5.929
 5351POPC   GL268534   5.215  34.857   6.000
 5351POPC   C1A68535   5.311  34.477   6.318
 5351POPC   D2A68536   5.320  34.749   6.700
 5351POPC   C3A68537   4.980  34.575   6.959
 5351POPC   C4A68538   4.820  34.210   7.220
 5351POPC   C1B68539   4.935  34.960   6.344
 5351POPC   C2B68540   5.018  35.217   6.705
 5351POPC   C3B68541   5.108  35.061   7.124
 5351POPC   C4B68542   4.874  34.780   7.411
 5352POPC   NC368543  27.290  36.021   5.094
 5352POPC   PO468544  27.703  35.783   5.580
 5352POPC   GL168545  27.695  36.139   5.867
 5352POPC   GL268546  27.828  36.477   5.841
 5352POPC   C1A68547  27.523  36.217   6.267
 5352POPC   D2A68548  27.306  36.028   6.610
 5352POPC   C3A68549  27.541  36.169   6.984
 5352POPC   C4A68550  27.911  36.022   7.261
 5352POPC   C1B68551  28.010  36.400   6.227
 5352POPC   C2B68552  27.903  36.312   6.615
 5352POPC   C3B68553  27.985  36.437   7.006
 5352POPC   C4B68554  28.367  36.383   7.191
 5353POPC   NC368555   3.198  43.315   5.420
 5353POPC   PO468556   3.792  43.211   5.439
 5353POPC   GL168557   3.639  43.309   5.839
 5353POPC   GL268558   3.345  43.128   5.852
 5353POPC   C1A68559   3.559  43.250   6.296
 5353POPC   D2A68560   3.619  43.094   6.702
 5353POPC   C3A68561   3.454  43.307   7.046
 5353POPC   C4A68562   3.571  43.224   7.476
 5353POPC   C1B68563   3.185  42.830   6.128
 5353POPC   C2B68564   3.154  42.630   6.529
 5353POPC   C3B68565   3.278  42.772   6.955
 5353POPC   C4B68566   3.122  43.012   7.301
 5354POPC   NC368567  23.246  18.326   5.616
 5354POPC   PO468568  22.870  18.024   5.049
 5354POPC   GL168569  22.840  17.968   5.630
 5354POPC   GL268570  22.918  18.225   5.996
 5354POPC   C1A68571  22.744  17.785   6.086
 5354POPC   D2A68572  22.841  18.053   6.496
 5354POPC   C3A68573  23.047  17.990   6.928
 5354POPC   C4A68574  23.210  18.139   7.323
 5354POPC   C1B68575  22.664  18.518   6.296
 5354POPC   C2B68576  22.658  18.708   6.720
 5354POPC   C3B68577  22.734  18.644   7.174
 5354POPC   C4B68578  22.699  18.624   7.656
 5355POPC   NC368579  25.464   2.493   5.449
 5355POPC   PO468580  24.988   2.008   5.246
 5355POPC   GL168581  25.168   2.004   5.683
 5355POPC   GL268582  24.861   1.876   5.855
 5355POPC   C1A68583  25.228   2.073   6.160
 5355POPC   D2A68584  25.369   1.892   6.572
 5355POPC   C3A68585  25.484   2.152   6.917
 5355POPC   C4A68586  25.305   2.228   7.313
 5355POPC   C1B68587  24.955   1.651   6.268
 5355POPC   C2B68588  24.871   1.799   6.717
 5355POPC   C3B68589  24.841   2.075   7.111
 5355POPC   C4B68590  24.954   1.949   7.546
 5356POPC   NC368591  42.605   2.119   5.322
 5356POPC   PO468592  42.092   1.667   5.438
 5356POPC   GL168593  42.249   1.878   5.782
 5356POPC   GL268594  41.983   2.095   5.758
 5356POPC   C1A68595  42.247   1.800   6.230
 5356POPC   D2A68596  42.201   1.999   6.614
 5356POPC   C3A68597  42.202   1.786   7.009
 5356POPC   C4A68598  42.364   2.052   7.290
 5356POPC   C1B68599  42.067   2.295   6.140
 5356POPC   C2B68600  42.136   2.503   6.537
 5356POPC   C3B68601  42.145   2.394   6.973
 5356POPC   C4B68602  41.905   2.493   7.332
 5357POPC   NC368603  19.597  44.820   5.534
 5357POPC   PO468604  20.227  44.580   5.477
 5357POPC   GL168605  19.906  44.391   5.791
 5357POPC   GL268606  19.540  44.501   5.933
 5357POPC   C1A68607  19.937  44.421   6.246
 5357POPC   D2A68608  20.045  44.787   6.500
 5357POPC   C3A68609  19.893  44.780   6.908
 5357POPC   C4A68610  20.004  44.403   7.122
 5357POPC   C1B68611  19.710  44.916   6.150
 5357POPC   C2B68612  19.646   0.145   6.553
 5357POPC   C3B68613  19.416   0.022   6.942
 5357POPC   C4B68614  19.533  44.697   7.297
 5358POPC   NC368615  27.139   0.787   5.496
 5358POPC   PO468616  26.408   0.843   5.350
 5358POPC   GL168617  26.656   0.676   5.743
 5358POPC   GL268618  26.933   0.387   5.775
 5358POPC   C1A68619  26.675   0.520   6.194
 5358POPC   D2A68620  26.717   0.200   6.535
 5358POPC   C3A68621  26.735   0.416   6.933
 5358POPC   C4A68622  26.566   0.669   7.292
 5358POPC   C1B68623  27.179   0.340   6.159
 5358POPC   C2B68624  27.124   0.523   6.563
 5358POPC   C3B68625  27.288   0.426   6.953
 5358POPC   C4B68626  27.116   0.327   7.317
 5359POPC   NC368627  40.393  18.194   5.540
 5359POPC   PO468628  40.974  18.053   5.777
 5359POPC   GL168629  40.639  18.183   5.989
 5359POPC   GL268630  40.661  18.505   5.824
 5359POPC   C1A68631  40.463  18.396   6.345
 5359POPC   D2A68632  40.437  18.527   6.767
 5359POPC   C3A68633  40.555  18.187   7.072
 5359POPC   C4A68634  40.562  18.082   7.537
 5359POPC   C1B68635  40.912  18.596   6.168
 5359POPC   C2B68636  40.953  18.720   6.584
 5359POPC   C3B68637  40.911  18.592   6.999
 5359POPC   C4B68638  40.834  18.480   7.425
 5360POPC   NC368639   1.653  28.283   5.533
 5360POPC   PO468640   0.958  28.337   5.505
 5360POPC   GL168641   0.922  28.473   5.904
 5360POPC   GL268642   1.287  28.481   5.874
 5360POPC   C1A68643   0.996  28.331   6.329
 5360POPC   D2A68644   1.247  28.148   6.656
 5360POPC   C3A68645   0.997  28.376   6.938
 5360POPC   C4A68646   1.158  28.729   7.175
 5360POPC   C1B68647   1.423  28.117   6.139
 5360POPC   C2B68648   1.716  27.912   6.453
 5360POPC   C3B68649   1.757  28.117   6.859
 5360POPC   C4B68650   1.446  28.258   7.184
 5361POPC   NC368651  35.640  31.211   5.451
 5361POPC   PO468652  35.269  31.853   5.569
 5361POPC   GL168653  35.520  31.594   5.799
 5361POPC   GL268654  35.294  31.327   5.818
 5361POPC   C1A68655  35.608  31.378   6.210
 5361POPC   D2A68656  35.322  31.270   6.551
 5361POPC   C3A68657  35.419  31.572   6.892
 5361POPC   C4A68658  35.519  31.425   7.326
 5361POPC   C1B68659  35.014  31.132   6.107
 5361POPC   C2B68660  34.839  31.021   6.516
 5361POPC   C3B68661  34.968  30.901   6.943
 5361POPC   C4B68662  35.067  31.115   7.344
 5362POPC   NC368663  19.605  26.521   5.428
 5362POPC   PO468664  20.013  26.018   5.389
 5362POPC   GL168665  19.842  26.180   5.766
 5362POPC   GL268666  19.999  26.471   5.808
 5362POPC   C1A68667  19.948  26.067   6.211
 5362POPC   D2A68668  19.721  26.078   6.612
 5362POPC   C3A68669  19.969  25.946   6.952
 5362POPC   C4A68670  20.211  25.949   7.295
 5362POPC   C1B68671  19.874  26.572   6.186
 5362POPC   C2B68672  20.059  26.450   6.588
 5362POPC   C3B68673  19.926  26.453   7.022
 5362POPC   C4B68674  20.134  26.441   7.433
 5363POPC   NC368675  25.300  13.189   5.424
 5363POPC   PO468676  25.641  13.589   5.087
 5363POPC   GL168677  25.509  13.604   5.632
 5363POPC   GL268678  25.485  13.377   5.863
 5363POPC   C1A68679  25.189  13.741   6.027
 5363POPC   D2A68680  25.251  13.909   6.493
 5363POPC   C3A68681  25.134  13.687   6.900
 5363POPC   C4A68682  25.126  13.663   7.352
 5363POPC   C1B68683  25.553  13.516   6.294
 5363POPC   C2B68684  25.599  13.591   6.720
 5363POPC   C3B68685  25.598  13.590   7.171
 5363POPC   C4B68686  25.541  13.416   7.596
 5364POPC   NC368687   3.838  41.812   5.655
 5364POPC   PO468688   4.431  41.874   5.289
 5364POPC   GL168689   4.369  41.722   5.731
 5364POPC   GL268690   4.258  42.016   5.875
 5364POPC   C1A68691   4.292  41.509   6.154
 5364POPC   D2A68692   4.017  41.285   6.478
 5364POPC   C3A68693   4.089  41.346   6.898
 5364POPC   C4A68694   4.506  41.499   7.028
 5364POPC   C1B68695   4.309  42.025   6.301
 5364POPC   C2B68696   4.185  41.759   6.616
 5364POPC   C3B68697   4.105  41.847   7.017
 5364POPC   C4B68698   4.464  42.040   7.083
 5365POPC   NC368699  20.998  42.808   5.463
 5365POPC   PO468700  21.492  43.258   5.221
 5365POPC   GL168701  21.395  43.105   5.679
 5365POPC   GL268702  21.444  42.729   5.725
 5365POPC   C1A68703  21.330  43.286   6.138
 5365POPC   D2A68704  21.151  43.496   6.533
 5365POPC   C3A68705  21.298  43.345   6.928
 5365POPC   C4A68706  21.306  43.234   7.371
 5365POPC   C1B68707  21.219  42.775   6.145
 5365POPC   C2B68708  21.182  42.979   6.574
 5365POPC   C3B68709  21.205  42.843   7.017
 5365POPC   C4B68710  21.355  42.672   7.402
 5366POPC   NC368711   5.455  30.639   5.545
 5366POPC   PO468712   5.968  31.013   5.412
 5366POPC   GL168713   5.764  30.967   5.784
 5366POPC   GL268714   5.903  30.620   5.793
 5366POPC   C1A68715   5.603  30.835   6.158
 5366POPC   D2A68716   5.599  30.958   6.533
 5366POPC   C3A68717   5.702  30.915   6.961
 5366POPC   C4A68718   5.434  30.736   7.213
 5366POPC   C1B68719   6.014  30.546   6.231
 5366POPC   C2B68720   5.887  30.540   6.664
 5366POPC   C3B68721   6.027  30.502   7.095
 5366POPC   C4B68722   6.329  30.256   7.379
 5367POPC   NC368723  36.108   2.804   5.143
 5367POPC   PO468724  36.326   2.274   5.375
 5367POPC   GL168725  36.240   2.344   5.834
 5367POPC   GL268726  35.952   2.544   5.817
 5367POPC   C1A68727  36.314   2.489   6.317
 5367POPC   D2A68728  36.230   2.513   6.814
 5367POPC   C3A68729  36.302   2.934   7.100
 5367POPC   C4A68730  35.961   3.198   7.341
 5367POPC   C1B68731  35.833   2.365   6.222
 5367POPC   C2B68732  35.710   2.511   6.643
 5367POPC   C3B68733  35.834   2.799   6.998
 5367POPC   C4B68734  36.014   2.648   7.409
 5368POPC   NC368735   6.440  27.886   5.344
 5368POPC   PO468736   6.662  27.279   5.209
 5368POPC   GL168737   6.587  27.405   5.697
 5368POPC   GL268738   6.255  27.560   5.737
 5368POPC   C1A68739   6.588  27.474   6.195
 5368POPC   D2A68740   6.603  27.640   6.668
 5368POPC   C3A68741   6.711  27.446   7.108
 5368POPC   C4A68742   6.813  27.515   7.574
 5368POPC   C1B68743   6.105  27.652   6.174
 5368POPC   C2B68744   6.051  27.737   6.639
 5368POPC   C3B68745   6.293  27.894   7.006
 5368POPC   C4B68746   6.369  27.745   7.413
 5369POPC   NC368747  21.358  24.174   5.257
 5369POPC   PO468748  21.122  24.691   5.637
 5369POPC   GL168749  21.413  24.478   5.852
 5369POPC   GL268750  21.615  24.206   5.752
 5369POPC   C1A68751  21.502  24.541   6.262
 5369POPC   D2A68752  21.315  24.667   6.638
 5369POPC   C3A68753  21.371  24.477   7.054
 5369POPC   C4A68754  21.559  24.660   7.392
 5369POPC   C1B68755  21.741  24.108   6.192
 5369POPC   C2B68756  21.657  24.221   6.666
 5369POPC   C3B68757  21.478  23.970   7.037
 5369POPC   C4B68758  21.110  24.024   7.312
 5370POPC   NC368759  35.033  40.612   5.433
 5370POPC   PO468760  35.320  41.132   5.409
 5370POPC   GL168761  35.500  40.948   5.802
 5370POPC   GL268762  35.742  40.678   5.758
 5370POPC   C1A68763  35.640  41.072   6.223
 5370POPC   D2A68764  35.401  41.126   6.605
 5370POPC   C3A68765  35.190  40.795   6.806
 5370POPC   C4A68766  35.137  40.803   7.226
 5370POPC   C1B68767  35.727  40.546   6.200
 5370POPC   C2B68768  35.694  40.697   6.649
 5370POPC   C3B68769  35.611  40.686   7.108
 5370POPC   C4B68770  35.526  40.628   7.555
 5371POPC   NC368771   5.745  27.215   5.343
 5371POPC   PO468772   5.977  27.875   5.377
 5371POPC   GL168773   5.716  27.619   5.723
 5371POPC   GL268774   5.832  27.273   5.834
 5371POPC   C1A68775   5.607  27.557   6.196
 5371POPC   D2A68776   5.570  27.410   6.628
 5371POPC   C3A68777   5.580  27.705   6.975
 5371POPC   C4A68778   5.870  27.839   7.282
 5371POPC   C1B68779   6.179  27.148   6.101
 5371POPC   C2B68780   6.265  27.275   6.543
 5371POPC   C3B68781   6.225  27.366   6.979
 5371POPC   C4B68782   5.882  27.304   7.226
 5372POPC   NC368783  12.027  17.668   5.498
 5372POPC   PO468784  12.310  17.087   5.411
 5372POPC   GL168785  12.299  17.334   5.824
 5372POPC   GL268786  12.208  17.706   5.990
 5372POPC   C1A68787  12.375  17.342   6.283
 5372POPC   D2A68788  12.108  17.626   6.555
 5372POPC   C3A68789  12.089  17.490   6.987
 5372POPC   C4A68790  12.320  17.190   7.193
 5372POPC   C1B68791  11.841  17.924   6.210
 5372POPC   C2B68792  11.658  17.971   6.658
 5372POPC   C3B68793  11.619  17.695   7.049
 5372POPC   C4B68794  11.774  17.451   7.430
 5373POPC   NC368795  35.477  23.089   5.476
 5373POPC   PO468796  35.462  22.498   5.108
 5373POPC   GL168797  35.262  22.683   5.643
 5373POPC   GL268798  35.556  22.815   5.912
 5373POPC   C1A68799  35.124  22.829   6.136
 5373POPC   D2A68800  35.443  22.936   6.522
 5373POPC   C3A68801  35.392  22.748   6.937
 5373POPC   C4A68802  35.041  22.723   7.231
 5373POPC   C1B68803  35.444  23.245   6.123
 5373POPC   C2B68804  35.524  23.479   6.499
 5373POPC   C3B68805  35.594  23.287   6.900
 5373POPC   C4B68806  35.281  23.181   7.199
 5374POPC   NC368807  11.738   5.740   5.309
 5374POPC   PO468808  12.351   6.108   5.438
 5374POPC   GL168809  11.951   6.083   5.704
 5374POPC   GL268810  11.911   5.735   5.790
 5374POPC   C1A68811  11.730   6.036   6.136
 5374POPC   D2A68812  11.634   5.732   6.485
 5374POPC   C3A68813  11.789   5.788   6.929
 5374POPC   C4A68814  11.679   6.038   7.297
 5374POPC   C1B68815  12.059   5.633   6.193
 5374POPC   C2B68816  12.153   5.852   6.560
 5374POPC   C3B68817  12.319   5.766   6.953
 5374POPC   C4B68818  12.179   5.933   7.332
 5375POPC   NC368819  36.006   6.387   5.485
 5375POPC   PO468820  36.299   6.994   5.523
 5375POPC   GL168821  36.101   6.755   5.854
 5375POPC   GL268822  36.313   6.459   5.895
 5375POPC   C1A68823  35.944   6.894   6.252
 5375POPC   D2A68824  35.732   6.729   6.602
 5375POPC   C3A68825  35.849   6.783   6.975
 5375POPC   C4A68826  35.843   6.512   7.302
 5375POPC   C1B68827  36.397   6.681   6.296
 5375POPC   C2B68828  36.286   6.834   6.722
 5375POPC   C3B68829  36.319   6.569   7.118
 5375POPC   C4B68830  36.583   6.420   7.478
 5376POPC   NC368831  17.386  29.279   5.237
 5376POPC   PO468832  17.765  28.795   5.542
 5376POPC   GL168833  17.632  29.142   5.764
 5376POPC   GL268834  17.285  29.084   5.709
 5376POPC   C1A68835  17.479  29.345   6.122
 5376POPC   D2A68836  17.361  29.164   6.511
 5376POPC   C3A68837  17.516  29.261   6.872
 5376POPC   C4A68838  17.654  29.034   7.219
 5376POPC   C1B68839  17.093  28.995   6.109
 5376POPC   C2B68840  17.138  28.721   6.461
 5376POPC   C3B68841  17.301  28.802   6.895
 5376POPC   C4B68842  17.109  29.099   7.179
 5377POPC   NC368843  23.214   7.657   5.529
 5377POPC   PO468844  22.724   7.155   5.490
 5377POPC   GL168845  23.037   7.234   5.742
 5377POPC   GL268846  23.398   7.177   5.628
 5377POPC   C1A68847  22.942   7.419   6.127
 5377POPC   D2A68848  22.843   7.251   6.499
 5377POPC   C3A68849  23.043   7.474   6.829
 5377POPC   C4A68850  22.991   7.511   7.274
 5377POPC   C1B68851  23.437   7.239   6.070
 5377POPC   C2B68852  23.416   7.228   6.521
 5377POPC   C3B68853  23.362   7.076   6.964
 5377POPC   C4B68854  23.318   7.180   7.423
 5378POPC   NC368855  11.422  10.161   5.547
 5378POPC   PO468856  11.052   9.562   5.407
 5378POPC   GL168857  11.225   9.742   5.803
 5378POPC   GL268858  11.004  10.027   5.857
 5378POPC   C1A68859  11.392   9.730   6.275
 5378POPC   D2A68860  11.676   9.696   6.663
 5378POPC   C3A68861  11.553   9.886   7.057
 5378POPC   C4A68862  11.267   9.682   7.328
 5378POPC   C1B68863  11.089  10.179   6.275
 5378POPC   C2B68864  11.274  10.091   6.659
 5378POPC   C3B68865  11.013   9.882   6.948
 5378POPC   C4B68866  10.775  10.004   7.312
 5379POPC   NC368867  41.458  42.460   5.523
 5379POPC   PO468868  41.950  41.999   5.429
 5379POPC   GL168869  41.860  42.226   5.797
 5379POPC   GL268870  41.532  42.113   5.886
 5379POPC   C1A68871  41.793  42.447   6.195
 5379POPC   D2A68872  41.914  42.233   6.554
 5379POPC   C3A68873  41.739  42.366   6.914
 5379POPC   C4A68874  41.676  42.681   7.186
 5379POPC   C1B68875  41.298  42.210   6.267
 5379POPC   C2B68876  41.275  42.450   6.662
 5379POPC   C3B68877  41.272  42.257   7.082
 5379POPC   C4B68878  41.243  42.013   7.440
 5380POPC   NC368879  37.130   9.538   5.414
 5380POPC   PO468880  37.131   8.868   5.203
 5380POPC   GL168881  37.137   8.818   5.678
 5380POPC   GL268882  36.801   8.922   5.757
 5380POPC   C1A68883  37.112   8.970   6.158
 5380POPC   D2A68884  37.182   9.202   6.582
 5380POPC   C3A68885  37.096   8.987   6.978
 5380POPC   C4A68886  36.934   9.172   7.318
 5380POPC   C1B68887  36.622   8.812   6.174
 5380POPC   C2B68888  36.737   8.910   6.618
 5380POPC   C3B68889  36.562   9.000   7.040
 5380POPC   C4B68890  36.499   8.945   7.506
 5381POPC   NC368891   4.832  31.374   5.277
 5381POPC   PO468892   5.397  31.671   5.318
 5381POPC   GL168893   5.178  31.488   5.656
 5381POPC   GL268894   4.890  31.709   5.662
 5381POPC   C1A68895   5.164  31.427   6.110
 5381POPC   D2A68896   5.306  31.435   6.549
 5381POPC   C3A68897   5.229  31.082   6.836
 5381POPC   C4A68898   5.162  31.179   7.228
 5381POPC   C1B68899   4.756  31.736   6.106
 5381POPC   C2B68900   4.805  31.767   6.562
 5381POPC   C3B68901   4.995  31.596   6.937
 5381POPC   C4B68902   4.860  31.590   7.347
 5382POPC   NC368903  42.554  22.572   5.264
 5382POPC   PO468904  42.245  23.182   5.226
 5382POPC   GL168905  42.266  23.282   5.734
 5382POPC   GL268906  41.919  23.184   5.782
 5382POPC   C1A68907  42.448  23.071   6.169
 5382POPC   D2A68908  42.613  23.032   6.640
 5382POPC   C3A68909  42.486  22.840   7.061
 5382POPC   C4A68910  42.272  23.060   7.395
 5382POPC   C1B68911  41.951  22.942   6.135
 5382POPC   C2B68912  42.086  23.083   6.524
 5382POPC   C3B68913  42.042  23.038   6.921
 5382POPC   C4B68914  41.804  23.113   7.241
 5383POPC   NC368915  20.970  39.698   5.528
 5383POPC   PO468916  21.510  40.089   5.418
 5383POPC   GL168917  21.461  40.136   5.822
 5383POPC   GL268918  21.629  40.410   5.826
 5383POPC   C1A68919  21.448  39.905   6.222
 5383POPC   D2A68920  21.439  39.776   6.660
 5383POPC   C3A68921  21.287  39.977   7.063
 5383POPC   C4A68922  21.263  40.005   7.538
 5383POPC   C1B68923  21.460  40.398   6.267
 5383POPC   C2B68924  21.500  40.306   6.688
 5383POPC   C3B68925  21.519  40.441   7.096
 5383POPC   C4B68926  21.129  40.432   7.307
 5384POPC   NC368927  14.622  25.654   5.630
 5384POPC   PO468928  14.307  25.249   5.131
 5384POPC   GL168929  14.354  25.231   5.657
 5384POPC   GL268930  14.693  25.125   5.820
 5384POPC   C1A68931  14.381  25.352   6.162
 5384POPC   D2A68932  14.381  25.552   6.589
 5384POPC   C3A68933  14.303  25.317   6.957
 5384POPC   C4A68934  14.454  25.404   7.367
 5384POPC   C1B68935  14.682  24.943   6.232
 5384POPC   C2B68936  14.708  25.170   6.602
 5384POPC   C3B68937  14.799  25.203   7.027
 5384POPC   C4B68938  14.824  25.034   7.450
 5385POPC   NC368939  31.140  22.039   5.481
 5385POPC   PO468940  31.720  22.375   5.394
 5385POPC   GL168941  31.595  22.081   5.714
 5385POPC   GL268942  31.849  21.946   5.922
 5385POPC   C1A68943  31.371  22.024   6.122
 5385POPC   D2A68944  31.386  22.243   6.513
 5385POPC   C3A68945  31.226  22.119   6.904
 5385POPC   C4A68946  31.452  22.043   7.323
 5385POPC   C1B68947  31.754  22.387   6.133
 5385POPC   C2B68948  31.780  22.577   6.571
 5385POPC   C3B68949  31.717  22.285   6.942
 5385POPC   C4B68950  31.871  22.336   7.396
 5386POPC   NC368951  16.360  28.400   5.656
 5386POPC   PO468952  17.037  28.183   5.454
 5386POPC   GL168953  16.917  28.340   5.822
 5386POPC   GL268954  16.865  28.708   5.742
 5386POPC   C1A68955  16.861  28.151   6.219
 5386POPC   D2A68956  17.004  28.262   6.607
 5386POPC   C3A68957  16.801  28.155   6.964
 5386POPC   C4A68958  16.921  28.117   7.368
 5386POPC   C1B68959  16.699  28.659   6.171
 5386POPC   C2B68960  16.577  28.574   6.579
 5386POPC   C3B68961  16.827  28.663   6.903
 5386POPC   C4B68962  16.724  28.591   7.268
 5387POPC   NC368963  23.381   6.314   5.400
 5387POPC   PO468964  23.677   5.713   5.295
 5387POPC   GL168965  23.770   5.938   5.735
 5387POPC   GL268966  23.453   5.893   5.934
 5387POPC   C1A68967  23.894   5.831   6.196
 5387POPC   D2A68968  23.656   5.890   6.585
 5387POPC   C3A68969  23.823   5.925   6.961
 5387POPC   C4A68970  23.833   5.835   7.383
 5387POPC   C1B68971  23.427   5.558   6.277
 5387POPC   C2B68972  23.256   5.505   6.715
 5387POPC   C3B68973  23.412   5.593   7.151
 5387POPC   C4B68974  23.499   5.538   7.640
 5388POPC   NC368975   3.259  14.392   5.399
 5388POPC   PO468976   2.628  14.398   5.437
 5388POPC   GL168977   2.860  14.370   5.817
 5388POPC   GL268978   3.047  14.030   5.803
 5388POPC   C1A68979   2.677  14.462   6.227
 5388POPC   D2A68980   2.704  14.494   6.652
 5388POPC   C3A68981   2.361  14.466   6.896
 5388POPC   C4A68982   2.467  14.510   7.276
 5388POPC   C1B68983   3.121  14.216   6.239
 5388POPC   C2B68984   3.217  14.372   6.631
 5388POPC   C3B68985   3.059  14.371   7.016
 5388POPC   C4B68986   2.936  14.704   7.229
 5389POPC   NC368987  33.963  39.329   5.503
 5389POPC   PO468988  33.493  38.875   5.648
 5389POPC   GL168989  33.694  39.188   5.914
 5389POPC   GL268990  33.633  39.562   5.804
 5389POPC   C1A68991  33.950  39.129   6.259
 5389POPC   D2A68992  33.928  38.946   6.666
 5389POPC   C3A68993  34.135  39.149   7.017
 5389POPC   C4A68994  34.185  38.967   7.448
 5389POPC   C1B68995  33.492  39.553   6.216
 5389POPC   C2B68996  33.605  39.351   6.612
 5389POPC   C3B68997  33.743  39.527   7.002
 5389POPC   C4B68998  33.783  39.285   7.386
 5390POPC   NC368999   2.919  23.501   5.151
 5390POPC   PO469000   2.391  23.890   5.369
 5390POPC   GL169001   2.641  23.896   5.753
 5390POPC   GL269002   2.954  24.102   5.706
 5390POPC   C1A69003   2.678  23.693   6.172
 5390POPC   D2A69004   2.609  23.858   6.589
 5390POPC   C3A69005   2.800  23.579   6.857
 5390POPC   C4A69006   2.943  23.294   7.147
 5390POPC   C1B69007   2.950  24.124   6.174
 5390POPC   C2B69008   3.104  23.938   6.545
 5390POPC   C3B69009   2.986  24.049   6.957
 5390POPC   C4B69010   3.014  23.804   7.312
 5391POPC   NC369011  38.341  20.985   5.613
 5391POPC   PO469012  38.433  20.500   5.189
 5391POPC   GL169013  38.534  20.513   5.690
 5391POPC   GL269014  38.249  20.357   5.871
 5391POPC   C1A69015  38.517  20.718   6.164
 5391POPC   D2A69016  38.364  20.871   6.568
 5391POPC   C3A69017  38.618  20.808   6.946
 5391POPC   C4A69018  38.588  20.517   7.278
 5391POPC   C1B69019  38.461  20.235   6.290
 5391POPC   C2B69020  38.404  20.371   6.707
 5391POPC   C3B69021  38.154  20.563   7.030
 5391POPC   C4B69022  38.132  20.354   7.436
 5392POPC   NC369023  22.476  39.481   5.058
 5392POPC   PO469024  21.914  39.090   5.230
 5392POPC   GL169025  22.056  39.180   5.682
 5392POPC   GL269026  22.159  39.521   5.831
 5392POPC   C1A69027  22.066  39.101   6.145
 5392POPC   D2A69028  22.105  38.876   6.559
 5392POPC   C3A69029  22.100  39.167   6.928
 5392POPC   C4A69030  22.027  39.268   7.367
 5392POPC   C1B69031  22.405  39.622   6.227
 5392POPC   C2B69032  22.439  39.534   6.688
 5392POPC   C3B69033  22.242  39.650   7.092
 5392POPC   C4B69034  22.520  39.748   7.468
 5393POPC   NC369035   0.281  17.088   5.537
 5393POPC   PO469036   0.336  16.416   5.444
 5393POPC   GL169037   0.544  16.687   5.811
 5393POPC   GL269038   0.394  16.957   6.004
 5393POPC   C1A69039   0.759  16.656   6.244
 5393POPC   D2A69040   0.863  16.449   6.665
 5393POPC   C3A69041   0.495  16.530   6.979
 5393POPC   C4A69042   0.501  16.868   7.323
 5393POPC   C1B69043   0.231  16.573   6.195
 5393POPC   C2B69044   0.195  16.686   6.596
 5393POPC   C3B69045   0.095  16.872   6.979
 5393POPC   C4B69046  44.830  16.657   7.279
 5394POPC   NC369047  33.618  12.273   5.222
 5394POPC   PO469048  33.636  11.915   5.731
 5394POPC   GL169049  33.497  12.237   5.924
 5394POPC   GL269050  33.786  12.458   5.868
 5394POPC   C1A69051  33.602  12.264   6.336
 5394POPC   D2A69052  33.507  12.229   6.750
 5394POPC   C3A69053  33.679  11.942   7.051
 5394POPC   C4A69054  33.533  12.234   7.342
 5394POPC   C1B69055  34.103  12.394   6.203
 5394POPC   C2B69056  34.128  12.236   6.607
 5394POPC   C3B69057  33.976  12.348   6.997
 5394POPC   C4B69058  34.025  12.305   7.438
 5395POPC   NC369059  24.162  35.276   5.556
 5395POPC   PO469060  24.635  35.809   5.614
 5395POPC   GL169061  24.588  35.534   5.952
 5395POPC   GL269062  24.263  35.398   6.024
 5395POPC   C1A69063  24.494  35.606   6.403
 5395POPC   D2A69064  24.132  35.559   6.671
 5395POPC   C3A69065  24.353  35.687   7.026
 5395POPC   C4A69066  24.643  35.423   7.208
 5395POPC   C1B69067  24.490  35.074   6.201
 5395POPC   C2B69068  24.726  34.942   6.526
 5395POPC   C3B69069  24.552  35.010   6.903
 5395POPC   C4B69070  24.601  34.894   7.295
 5396POPC   NC369071  36.674  20.038   5.418
 5396POPC   PO469072  37.419  20.002   5.424
 5396POPC   GL169073  37.057  19.998   5.751
 5396POPC   GL269074  36.943  19.699   5.965
 5396POPC   C1A69075  36.868  20.167   6.150
 5396POPC   D2A69076  36.799  19.927   6.524
 5396POPC   C3A69077  36.725  20.107   6.904
 5396POPC   C4A69078  36.649  19.916   7.274
 5396POPC   C1B69079  36.683  19.487   6.281
 5396POPC   C2B69080  36.703  19.445   6.712
 5396POPC   C3B69081  36.892  19.523   7.056
 5396POPC   C4B69082  36.541  19.400   7.249
 5397POPC   NC369083  20.946  27.783   5.335
 5397POPC   PO469084  20.346  27.473   5.411
 5397POPC   GL169085  20.521  27.707   5.718
 5397POPC   GL269086  20.842  27.559   5.808
 5397POPC   C1A69087  20.554  27.858   6.139
 5397POPC   D2A69088  20.515  27.650   6.550
 5397POPC   C3A69089  20.624  27.803   6.954
 5397POPC   C4A69090  20.392  27.816   7.325
 5397POPC   C1B69091  20.627  27.319   6.150
 5397POPC   C2B69092  20.689  27.179   6.595
 5397POPC   C3B69093  20.473  27.259   6.975
 5397POPC   C4B69094  20.689  27.418   7.290
 5398POPC   NC369095  43.391  31.259   5.540
 5398POPC   PO469096  43.944  31.668   5.415
 5398POPC   GL169097  43.881  31.504   5.823
 5398POPC   GL269098  43.538  31.593   5.902
 5398POPC   C1A69099  44.104  31.437   6.222
 5398POPC   D2A69100  44.056  31.165   6.585
 5398POPC   C3A69101  43.939  31.322   6.991
 5398POPC   C4A69102  43.881  31.293   7.433
 5398POPC   C1B69103  43.706  31.828   6.230
 5398POPC   C2B69104  43.854  31.696   6.615
 5398POPC   C3B69105  43.695  31.930   6.921
 5398POPC   C4B69106  43.442  31.878   7.278
 5399POPC   NC369107  21.895  20.399   5.275
 5399POPC   PO469108  22.362  20.834   5.472
 5399POPC   GL169109  22.175  20.692   5.846
 5399POPC   GL269110  21.966  20.375   5.819
 5399POPC   C1A69111  22.191  20.828   6.273
 5399POPC   D2A69112  22.107  20.556   6.596
 5399POPC   C3A69113  21.996  20.778   6.951
 5399POPC   C4A69114  22.126  20.578   7.320
 5399POPC   C1B69115  21.743  20.590   6.191
 5399POPC   C2B69116  21.598  20.563   6.642
 5399POPC   C3B69117  21.731  20.331   7.020
 5399POPC   C4B69118  21.779  20.249   7.481
 5400POPC   NC369119  27.387   3.723   5.318
 5400POPC   PO469120  27.406   3.120   5.453
 5400POPC   GL169121  27.529   3.264   5.848
 5400POPC   GL269122  27.591   3.612   5.784
 5400POPC   C1A69123  27.717   3.307   6.265
 5400POPC   D2A69124  27.511   3.286   6.668
 5400POPC   C3A69125  27.740   3.203   7.060
 5400POPC   C4A69126  27.642   3.063   7.514
 5400POPC   C1B69127  27.425   3.755   6.165
 5400POPC   C2B69128  27.632   3.800   6.563
 5400POPC   C3B69129  27.575   3.709   6.978
 5400POPC   C4B69130  27.725   3.802   7.383
 5401POPC   NC369131   8.112  37.314   5.270
 5401POPC   PO469132   7.863  36.715   5.342
 5401POPC   GL169133   8.069  36.874   5.742
 5401POPC   GL269134   8.465  36.837   5.757
 5401POPC   C1A69135   7.987  37.092   6.156
 5401POPC   D2A69136   7.821  36.924   6.551
 5401POPC   C3A69137   7.829  37.126   6.930
 5401POPC   C4A69138   7.809  36.878   7.291
 5401POPC   C1B69139   8.368  36.749   6.208
 5401POPC   C2B69140   8.311  37.013   6.608
 5401POPC   C3B69141   8.274  36.925   7.061
 5401POPC   C4B69142   8.427  36.596   7.305
 5402POPC   NC369143  28.084  21.104   5.391
 5402POPC   PO469144  28.310  21.686   5.610
 5402POPC   GL169145  28.262  21.328   5.828
 5402POPC   GL269146  28.535  21.164   5.666
 5402POPC   C1A69147  28.217  21.404   6.243
 5402POPC   D2A69148  27.946  21.524   6.552
 5402POPC   C3A69149  28.162  21.475   6.951
 5402POPC   C4A69150  28.144  21.597   7.381
 5402POPC   C1B69151  28.697  21.253   6.089
 5402POPC   C2B69152  28.641  21.360   6.522
 5402POPC   C3B69153  28.607  21.214   6.920
 5402POPC   C4B69154  28.447  21.194   7.320
 5403POPC   NC369155  15.964  26.204   5.466
 5403POPC   PO469156  16.486  25.814   5.377
 5403POPC   GL169157  16.413  25.990   5.771
 5403POPC   GL269158  16.085  25.832   5.823
 5403POPC   C1A69159  16.281  26.278   6.109
 5403POPC   D2A69160  16.096  26.240   6.511
 5403POPC   C3A69161  16.256  26.203   6.915
 5403POPC   C4A69162  15.900  26.296   7.180
 5403POPC   C1B69163  15.857  25.929   6.196
 5403POPC   C2B69164  15.714  25.870   6.642
 5403POPC   C3B69165  15.854  25.810   7.039
 5403POPC   C4B69166  15.658  25.769   7.418
 5404POPC   NC369167  43.292  22.896   5.511
 5404POPC   PO469168  42.606  22.962   5.532
 5404POPC   GL169169  42.828  23.247   5.844
 5404POPC   GL269170  43.210  23.225   5.886
 5404POPC   C1A69171  42.949  23.233   6.311
 5404POPC   D2A69172  43.161  23.072   6.696
 5404POPC   C3A69173  42.916  23.112   7.087
 5404POPC   C4A69174  42.750  23.186   7.556
 5404POPC   C1B69175  43.319  22.848   6.198
 5404POPC   C2B69176  43.421  22.611   6.621
 5404POPC   C3B69177  43.325  22.739   7.092
 5404POPC   C4B69178  43.436  22.731   7.631
 5405POPC   NC369179  17.319  12.604   5.107
 5405POPC   PO469180  17.841  12.884   5.429
 5405POPC   GL169181  17.615  12.833   5.792
 5405POPC   GL269182  17.578  12.484   5.777
 5405POPC   C1A69183  17.550  13.064   6.186
 5405POPC   D2A69184  17.292  13.168   6.535
 5405POPC   C3A69185  17.461  13.083   6.919
 5405POPC   C4A69186  17.251  12.894   7.241
 5405POPC   C1B69187  17.423  12.545   6.192
 5405POPC   C2B69188  17.192  12.563   6.566
 5405POPC   C3B69189  17.356  12.489   6.967
 5405POPC   C4B69190  17.487  12.296   7.349
 5406POPC   NC369191  25.891   5.813   5.539
 5406POPC   PO469192  26.631   5.706   5.625
 5406POPC   GL169193  26.272   5.744   5.882
 5406POPC   GL269194  26.112   6.065   5.914
 5406POPC   C1A69195  26.025   5.685   6.238
 5406POPC   D2A69196  25.979   5.923   6.601
 5406POPC   C3A69197  26.213   5.659   6.846
 5406POPC   C4A69198  26.268   5.553   7.256
 5406POPC   C1B69199  25.735   6.112   6.165
 5406POPC   C2B69200  25.629   6.324   6.548
 5406POPC   C3B69201  25.691   6.204   6.959
 5406POPC   C4B69202  26.088   6.051   7.134
 5407POPC   NC369203  37.042  11.134   5.121
 5407POPC   PO469204  36.411  11.302   5.239
 5407POPC   GL169205  36.675  11.225   5.671
 5407POPC   GL269206  36.932  10.966   5.763
 5407POPC   C1A69207  36.852  11.333   6.121
 5407POPC   D2A69208  36.744  11.537   6.514
 5407POPC   C3A69209  36.868  11.390   6.943
 5407POPC   C4A69210  37.038  11.390   7.350
 5407POPC   C1B69211  37.151  10.911   6.184
 5407POPC   C2B69212  37.119  11.087   6.612
 5407POPC   C3B69213  37.242  10.996   7.051
 5407POPC   C4B69214  37.117  10.904   7.494
 5408POPC   NC369215  31.004   0.101   5.521
 5408POPC   PO469216  30.644   0.612   5.611
 5408POPC   GL169217  30.772   0.359   5.925
 5408POPC   GL269218  30.543   0.110   5.792
 5408POPC   C1A69219  30.853   0.562   6.326
 5408POPC   D2A69220  30.779   0.704   6.742
 5408POPC   C3A69221  30.951   0.382   7.011
 5408POPC   C4A69222  30.976   0.386   7.448
 5408POPC   C1B69223  30.358   0.208   6.186
 5408POPC   C2B69224  30.553   0.232   6.610
 5408POPC   C3B69225  30.429   0.414   6.997
 5408POPC   C4B69226  30.515   0.251   7.373
 5409POPC   NC369227  10.547  10.676   5.178
 5409POPC   PO469228  11.117  10.319   5.208
 5409POPC   GL169229  10.695  10.396   5.576
 5409POPC   GL269230  10.516  10.737   5.716
 5409POPC   C1A69231  10.637  10.382   6.055
 5409POPC   D2A69232  10.509  10.347   6.477
 5409POPC   C3A69233  10.814  10.337   6.828
 5409POPC   C4A69234  10.619  10.504   7.177
 5409POPC   C1B69235  10.187  10.691   6.091
 5409POPC   C2B69236  10.091  10.637   6.562
 5409POPC   C3B69237  10.193  10.824   6.972
 5409POPC   C4B69238  10.226  10.961   7.417
 5410POPC   NC369239  35.666  14.577   5.275
 5410POPC   PO469240  35.353  13.953   5.249
 5410POPC   GL169241  35.186  14.130   5.689
 5410POPC   GL269242  35.291  14.478   5.726
 5410POPC   C1A69243  35.129  14.216   6.155
 5410POPC   D2A69244  35.301  14.367   6.563
 5410POPC   C3A69245  35.173  14.300   6.994
 5410POPC   C4A69246  35.491  14.244   7.270
 5410POPC   C1B69247  35.372  14.680   6.167
 5410POPC   C2B69248  35.586  14.786   6.579
 5410POPC   C3B69249  35.365  14.786   6.965
 5410POPC   C4B69250  35.266  14.657   7.424
 5411POPC   NC369251  42.153  22.829   5.508
 5411POPC   PO469252  41.393  23.173   5.500
 5411POPC   GL169253  41.470  22.963   5.880
 5411POPC   GL269254  41.417  23.283   6.036
 5411POPC   C1A69255  41.530  22.643   6.214
 5411POPC   D2A69256  41.828  22.610   6.579
 5411POPC   C3A69257  41.674  22.663   7.015
 5411POPC   C4A69258  41.377  22.876   7.317
 5411POPC   C1B69259  41.570  23.120   6.419
 5411POPC   C2B69260  41.467  23.125   6.848
 5411POPC   C3B69261  41.412  23.430   7.184
 5411POPC   C4B69262  41.459  23.291   7.625
 5412POPC   NC369263   3.177  15.620   5.538
 5412POPC   PO469264   2.732  16.097   5.353
 5412POPC   GL169265   2.821  16.243   5.771
 5412POPC   GL269266   3.171  16.183   5.716
 5412POPC   C1A69267   2.731  16.122   6.238
 5412POPC   D2A69268   2.859  15.864   6.627
 5412POPC   C3A69269   2.666  16.047   7.009
 5412POPC   C4A69270   2.482  16.187   7.390
 5412POPC   C1B69271   3.220  16.045   6.141
 5412POPC   C2B69272   3.178  16.269   6.514
 5412POPC   C3B69273   3.193  16.169   6.929
 5412POPC   C4B69274   3.084  15.793   7.151
 5413POPC   NC369275  39.151  42.536   5.402
 5413POPC   PO469276  39.534  41.963   5.408
 5413POPC   GL169277  39.490  42.308   5.717
 5413POPC   GL269278  39.126  42.216   5.827
 5413POPC   C1A69279  39.403  42.505   6.126
 5413POPC   D2A69280  39.353  42.141   6.394
 5413POPC   C3A69281  39.394  42.225   6.811
 5413POPC   C4A69282  39.455  42.538   7.112
 5413POPC   C1B69283  38.883  42.321   6.228
 5413POPC   C2B69284  38.859  42.629   6.587
 5413POPC   C3B69285  38.949  42.597   7.043
 5413POPC   C4B69286  38.774  42.261   7.298
 5414POPC   NC369287  24.160  41.093   5.565
 5414POPC   PO469288  24.812  41.024   5.374
 5414POPC   GL169289  24.619  40.951   5.768
 5414POPC   GL269290  24.783  41.245   5.870
 5414POPC   C1A69291  24.465  40.683   6.125
 5414POPC   D2A69292  24.418  40.492   6.561
 5414POPC   C3A69293  24.303  40.706   6.968
 5414POPC   C4A69294  24.415  40.681   7.419
 5414POPC   C1B69295  24.628  41.159   6.274
 5414POPC   C2B69296  24.455  41.088   6.646
 5414POPC   C3B69297  24.616  41.135   7.047
 5414POPC   C4B69298  24.709  41.150   7.480
 5415POPC   NC369299  29.552  21.882   5.363
 5415POPC   PO469300  29.039  22.362   5.501
 5415POPC   GL169301  29.252  22.170   5.831
 5415POPC   GL269302  29.347  21.842   5.819
 5415POPC   C1A69303  29.164  22.096   6.264
 5415POPC   D2A69304  29.316  22.194   6.697
 5415POPC   C3A69305  29.142  22.219   7.099
 5415POPC   C4A69306  28.866  22.499   7.268
 5415POPC   C1B69307  29.576  21.806   6.173
 5415POPC   C2B69308  29.445  21.724   6.589
 5415POPC   C3B69309  29.437  21.800   7.046
 5415POPC   C4B69310  29.066  21.779   7.357
 5416POPC   NC369311  29.374   6.999   5.394
 5416POPC   PO469312  28.922   7.474   5.310
 5416POPC   GL169313  28.906   7.365   5.844
 5416POPC   GL269314  29.060   7.667   5.958
 5416POPC   C1A69315  29.184   7.198   6.221
 5416POPC   D2A69316  29.551   7.342   6.481
 5416POPC   C3A69317  29.339   7.386   6.862
 5416POPC   C4A69318  29.087   7.084   7.118
 5416POPC   C1B69319  28.676   7.761   6.203
 5416POPC   C2B69320  28.529   7.722   6.583
 5416POPC   C3B69321  28.694   7.784   6.971
 5416POPC   C4B69322  29.050   7.662   7.163
 5417POPC   NC369323  42.808   3.842   5.497
 5417POPC   PO469324  42.921   3.180   5.582
 5417POPC   GL169325  42.979   3.525   5.873
 5417POPC   GL269326  43.309   3.667   5.748
 5417POPC   C1A69327  42.928   3.536   6.328
 5417POPC   D2A69328  43.305   3.379   6.523
 5417POPC   C3A69329  43.223   3.105   6.819
 5417POPC   C4A69330  43.269   3.217   7.209
 5417POPC   C1B69331  43.338   3.772   6.183
 5417POPC   C2B69332  43.236   3.859   6.653
 5417POPC   C3B69333  43.097   3.702   7.042
 5417POPC   C4B69334  43.328   3.656   7.445
 5418POPC   NC369335  14.288  17.815   5.423
 5418POPC   PO469336  14.524  17.204   5.429
 5418POPC   GL169337  14.384  17.444   5.769
 5418POPC   GL269338  14.048  17.374   5.692
 5418POPC   C1A69339  14.528  17.602   6.181
 5418POPC   D2A69340  14.661  17.461   6.587
 5418POPC   C3A69341  14.557  17.665   6.938
 5418POPC   C4A69342  14.255  17.684   7.267
 5418POPC   C1B69343  14.026  17.497   6.147
 5418POPC   C2B69344  14.125  17.347   6.568
 5418POPC   C3B69345  14.299  17.199   6.953
 5418POPC   C4B69346  14.167  17.134   7.385
 5419POPC   NC369347  22.479  34.884   5.600
 5419POPC   PO469348  22.317  35.501   5.353
 5419POPC   GL169349  22.312  35.391   5.784
 5419POPC   GL269350  22.055  35.157   5.915
 5419POPC   C1A69351  22.441  35.319   6.215
 5419POPC   D2A69352  22.199  35.058   6.487
 5419POPC   C3A69353  22.069  35.274   6.848
 5419POPC   C4A69354  22.275  35.479   7.161
 5419POPC   C1B69355  21.947  35.476   6.228
 5419POPC   C2B69356  21.698  35.623   6.572
 5419POPC   C3B69357  21.795  35.882   6.928
 5419POPC   C4B69358  21.920  35.798   7.328
 5420POPC   NC369359  24.067  35.994   5.477
 5420POPC   PO469360  24.713  36.138   5.200
 5420POPC   GL169361  24.448  36.265   5.683
 5420POPC   GL269362  24.279  35.971   5.931
 5420POPC   C1A69363  24.532  36.364   6.129
 5420POPC   D2A69364  24.566  36.136   6.525
 5420POPC   C3A69365  24.680  36.325   6.934
 5420POPC   C4A69366  24.472  36.124   7.292
 5420POPC   C1B69367  24.065  35.936   6.313
 5420POPC   C2B69368  24.096  36.078   6.739
 5420POPC   C3B69369  23.968  36.022   7.149
 5420POPC   C4B69370  24.150  35.799   7.498
 5421POPC   NC369371  31.646  41.150   5.462
 5421POPC   PO469372  31.140  40.800   5.278
 5421POPC   GL169373  31.398  40.766   5.745
 5421POPC   GL269374  31.737  40.935   5.906
 5421POPC   C1A69375  31.440  40.772   6.255
 5421POPC   D2A69376  31.485  40.990   6.676
 5421POPC   C3A69377  31.485  40.691   7.017
 5421POPC   C4A69378  31.084  40.647   7.230
 5421POPC   C1B69379  31.901  41.189   6.299
 5421POPC   C2B69380  31.922  41.276   6.758
 5421POPC   C3B69381  31.723  41.140   7.130
 5421POPC   C4B69382  31.527  40.910   7.481
 5422POPC   NC369383  18.457  39.823   5.332
 5422POPC   PO469384  18.128  40.421   5.236
 5422POPC   GL169385  18.217  40.200   5.674
 5422POPC   GL269386  18.352  39.838   5.819
 5422POPC   C1A69387  18.255  40.190   6.148
 5422POPC   D2A69388  18.361  39.969   6.557
 5422POPC   C3A69389  18.171  40.185   6.892
 5422POPC   C4A69390  18.328  40.177   7.278
 5422POPC   C1B69391  18.097  39.682   6.188
 5422POPC   C2B69392  17.889  39.828   6.608
 5422POPC   C3B69393  18.022  39.719   7.014
 5422POPC   C4B69394  18.395  39.646   7.222
 5423POPC   NC369395   6.852  40.862   5.556
 5423POPC   PO469396   7.520  40.858   5.503
 5423POPC   GL169397   7.290  40.765   5.849
 5423POPC   GL269398   7.157  41.111   5.899
 5423POPC   C1A69399   7.345  40.538   6.246
 5423POPC   D2A69400   7.212  40.597   6.678
 5423POPC   C3A69401   7.503  40.514   6.995
 5423POPC   C4A69402   7.595  40.545   7.410
 5423POPC   C1B69403   7.481  41.067   6.210
 5423POPC   C2B69404   7.446  41.143   6.619
 5423POPC   C3B69405   7.201  41.058   6.931
 5423POPC   C4B69406   7.479  40.998   7.207
 5424POPC   NC369407   9.281   1.418   5.516
 5424POPC   PO469408   9.906   1.475   5.217
 5424POPC   GL169409   9.753   1.255   5.651
 5424POPC   GL269410   9.564   0.954   5.584
 5424POPC   C1A69411   9.875   1.292   6.109
 5424POPC   D2A69412   9.772   1.560   6.476
 5424POPC   C3A69413   9.779   1.372   6.891
 5424POPC   C4A69414   9.886   0.995   7.142
 5424POPC   C1B69415   9.523   0.930   6.047
 5424POPC   C2B69416   9.521   1.069   6.513
 5424POPC   C3B69417   9.432   0.869   6.929
 5424POPC   C4B69418   9.412   0.839   7.394
 5425POPC   NC369419  29.497  21.173   5.316
 5425POPC   PO469420  29.139  21.691   5.370
 5425POPC   GL169421  29.058  21.425   5.733
 5425POPC   GL269422  29.359  21.218   5.821
 5425POPC   C1A69423  29.129  21.525   6.180
 5425POPC   D2A69424  29.155  21.276   6.547
 5425POPC   C3A69425  29.061  21.456   6.942
 5425POPC   C4A69426  28.958  21.275   7.339
 5425POPC   C1B69427  29.583  21.287   6.214
 5425POPC   C2B69428  29.669  21.288   6.646
 5425POPC   C3B69429  29.545  21.292   7.081
 5425POPC   C4B69430  29.384  20.972   7.336
 5426POPC   NC369431   6.072  21.195   5.486
 5426POPC   PO469432   5.700  21.690   5.346
 5426POPC   GL169433   5.699  21.514   5.758
 5426POPC   GL269434   5.588  21.184   5.698
 5426POPC   C1A69435   5.915  21.378   6.144
 5426POPC   D2A69436   6.043  21.576   6.533
 5426POPC   C3A69437   5.908  21.430   6.920
 5426POPC   C4A69438   6.156  21.194   7.188
 5426POPC   C1B69439   5.487  21.091   6.095
 5426POPC   C2B69440   5.581  21.188   6.510
 5426POPC   C3B69441   5.595  21.009   6.899
 5426POPC   C4B69442   5.654  21.135   7.287
 5427POPC   NC369443  11.114  42.548   5.367
 5427POPC   PO469444  11.103  41.984   5.699
 5427POPC   GL169445  11.221  42.399   5.885
 5427POPC   GL269446  11.602  42.441   5.895
 5427POPC   C1A69447  11.230  42.381   6.343
 5427POPC   D2A69448  11.379  42.072   6.626
 5427POPC   C3A69449  11.213  42.051   7.036
 5427POPC   C4A69450  11.248  42.447   7.160
 5427POPC   C1B69451  11.604  42.696   6.284
 5427POPC   C2B69452  11.525  42.610   6.736
 5427POPC   C3B69453  11.731  42.542   7.135
 5427POPC   C4B69454  11.696  42.684   7.603
 5428POPC   NC369455  25.777   3.002   5.333
 5428POPC   PO469456  25.044   2.688   5.394
 5428POPC   GL169457  25.263   2.963   5.669
 5428POPC   GL269458  25.585   2.842   5.787
 5428POPC   C1A69459  25.174   3.089   6.117
 5428POPC   D2A69460  25.079   3.276   6.533
 5428POPC   C3A69461  25.120   3.004   6.898
 5428POPC   C4A69462  25.304   2.634   7.020
 5428POPC   C1B69463  25.671   3.012   6.176
 5428POPC   C2B69464  25.451   2.863   6.514
 5428POPC   C3B69465  25.659   2.953   6.841
 5428POPC   C4B69466  25.587   3.038   7.222
 5429POPC   NC369467  22.327  10.314   5.406
 5429POPC   PO469468  21.900  10.772   5.327
 5429POPC   GL169469  21.993  10.540   5.743
 5429POPC   GL269470  21.886  10.192   5.697
 5429POPC   C1A69471  22.158  10.662   6.181
 5429POPC   D2A69472  22.092  10.801   6.604
 5429POPC   C3A69473  22.279  10.623   6.949
 5429POPC   C4A69474  22.031  10.626   7.300
 5429POPC   C1B69475  22.105  10.155   6.108
 5429POPC   C2B69476  22.127  10.254   6.543
 5429POPC   C3B69477  21.884  10.306   6.906
 5429POPC   C4B69478  21.914  10.115   7.314
 5430POPC   NC369479  12.046  33.605   5.388
 5430POPC   PO469480  12.128  34.185   5.453
 5430POPC   GL169481  11.821  33.933   5.741
 5430POPC   GL269482  12.109  33.847   5.918
 5430POPC   C1A69483  11.687  33.803   6.194
 5430POPC   D2A69484  11.777  33.564   6.591
 5430POPC   C3A69485  11.822  33.650   7.048
 5430POPC   C4A69486  11.912  33.367   7.444
 5430POPC   C1B69487  12.190  33.816   6.368
 5430POPC   C2B69488  12.260  33.612   6.754
 5430POPC   C3B69489  12.327  33.673   7.184
 5430POPC   C4B69490  12.612  33.908   7.463
 5431POPC   NC369491  10.431  24.688   5.594
 5431POPC   PO469492  10.683  24.183   5.189
 5431POPC   GL169493  10.591  24.179   5.696
 5431POPC   GL269494  10.247  24.117   5.898
 5431POPC   C1A69495  10.614  24.324   6.174
 5431POPC   D2A69496  10.347  24.226   6.551
 5431POPC   C3A69497  10.518  24.265   6.966
 5431POPC   C4A69498  10.617  24.680   7.207
 5431POPC   C1B69499  10.136  24.489   6.149
 5431POPC   C2B69500  10.149  24.740   6.492
 5431POPC   C3B69501  10.178  24.642   6.903
 5431POPC   C4B69502  10.182  24.435   7.312
 5432POPC   NC369503  34.975  38.848   5.497
 5432POPC   PO469504  34.392  39.170   5.535
 5432POPC   GL169505  34.675  39.246   5.873
 5432POPC   GL269506  34.744  38.929   5.994
 5432POPC   C1A69507  34.512  39.389   6.256
 5432POPC   D2A69508  34.412  39.093   6.562
 5432POPC   C3A69509  34.668  39.069   6.913
 5432POPC   C4A69510  34.560  39.263   7.305
 5432POPC   C1B69511  34.929  39.128   6.377
 5432POPC   C2B69512  34.943  39.463   6.693
 5432POPC   C3B69513  35.034  39.368   7.122
 5432POPC   C4B69514  34.999  39.228   7.533
 5433POPC   NC369515  14.055  20.144   5.473
 5433POPC   PO469516  13.427  20.022   5.280
 5433POPC   GL169517  13.666  19.892   5.667
 5433POPC   GL269518  13.750  19.577   5.792
 5433POPC   C1A69519  13.800  20.035   6.102
 5433POPC   D2A69520  13.774  19.924   6.574
 5433POPC   C3A69521  13.691  20.124   6.972
 5433POPC   C4A69522  13.664  19.907   7.359
 5433POPC   C1B69523  13.543  19.589   6.206
 5433POPC   C2B69524  13.701  19.437   6.589
 5433POPC   C3B69525  13.569  19.557   6.977
 5433POPC   C4B69526  13.767  19.359   7.282
 5434POPC   NC369527  39.827  37.254   5.661
 5434POPC   PO469528  39.213  37.372   5.367
 5434POPC   GL169529  39.236  37.549   5.781
 5434POPC   GL269530  39.551  37.685   5.819
 5434POPC   C1A69531  38.991  37.655   6.142
 5434POPC   D2A69532  38.886  37.527   6.543
 5434POPC   C3A69533  38.972  37.824   6.860
 5434POPC   C4A69534  39.109  37.851   7.245
 5434POPC   C1B69535  39.538  37.536   6.260
 5434POPC   C2B69536  39.432  37.731   6.650
 5434POPC   C3B69537  39.604  37.831   7.081
 5434POPC   C4B69538  39.619  37.756   7.555
 5435POPC   NC369539  22.806  41.126   5.343
 5435POPC   PO469540  23.023  40.573   5.385
 5435POPC   GL169541  23.031  40.860   5.726
 5435POPC   GL269542  22.652  40.931   5.787
 5435POPC   C1A69543  23.170  40.775   6.136
 5435POPC   D2A69544  22.917  40.709   6.506
 5435POPC   C3A69545  23.032  40.891   6.889
 5435POPC   C4A69546  22.882  40.701   7.238
 5435POPC   C1B69547  22.776  41.102   6.173
 5435POPC   C2B69548  22.660  41.161   6.590
 5435POPC   C3B69549  22.520  40.927   6.940
 5435POPC   C4B69550  22.741  41.186   7.203
 5436POPC   NC369551  18.491  43.521   5.525
 5436POPC   PO469552  18.556  44.160   5.272
 5436POPC   GL169553  18.546  44.007   5.725
 5436POPC   GL269554  18.217  43.828   5.833
 5436POPC   C1A69555  18.508  44.039   6.188
 5436POPC   D2A69556  18.163  44.041   6.490
 5436POPC   C3A69557  18.403  44.122   6.867
 5436POPC   C4A69558  18.484  44.045   7.270
 5436POPC   C1B69559  18.023  43.589   6.183
 5436POPC   C2B69560  17.946  43.590   6.624
 5436POPC   C3B69561  18.034  43.808   6.989
 5436POPC   C4B69562  17.896  43.556   7.300
 5437POPC   NC369563  23.607  15.728   5.446
 5437POPC   PO469564  23.817  16.433   5.308
 5437POPC   GL169565  23.784  16.196   5.720
 5437POPC   GL269566  23.739  16.478   5.874
 5437POPC   C1A69567  23.560  16.095   6.170
 5437POPC   D2A69568  23.631  16.250   6.611
 5437POPC   C3A69569  23.560  16.003   6.956
 5437POPC   C4A69570  23.691  15.899   7.349
 5437POPC   C1B69571  23.930  16.485   6.281
 5437POPC   C2B69572  24.124  16.342   6.666
 5437POPC   C3B69573  23.990  16.245   7.099
 5437POPC   C4B69574  24.178  15.859   7.301
 5438POPC   NC369575  40.697  24.471   5.297
 5438POPC   PO469576  40.021  24.442   5.339
 5438POPC   GL169577  40.037  24.307   5.787
 5438POPC   GL269578  40.397  24.379   5.801
 5438POPC   C1A69579  39.843  24.297   6.233
 5438POPC   D2A69580  39.834  24.060   6.632
 5438POPC   C3A69581  40.107  24.221   6.919
 5438POPC   C4A69582  39.987  24.310   7.311
 5438POPC   C1B69583  40.190  24.666   6.131
 5438POPC   C2B69584  40.073  24.640   6.594
 5438POPC   C3B69585  40.069  24.746   7.052
 5438POPC   C4B69586  40.137  24.775   7.517
 5439POPC   NC369587  42.883   4.782   5.530
 5439POPC   PO469588  43.253   4.129   5.497
 5439POPC   GL169589  43.076   4.124   5.888
 5439POPC   GL269590  43.149   4.483   5.902
 5439POPC   C1A69591  43.080   4.195   6.326
 5439POPC   D2A69592  42.981   4.448   6.658
 5439POPC   C3A69593  43.001   4.227   7.047
 5439POPC   C4A69594  43.020   4.389   7.453
 5439POPC   C1B69595  43.387   4.616   6.281
 5439POPC   C2B69596  43.338   4.817   6.716
 5439POPC   C3B69597  43.344   4.625   7.147
 5439POPC   C4B69598  43.461   4.764   7.621
 5440POPC   NC369599  23.459  35.854   5.162
 5440POPC   PO469600  23.796  36.380   5.518
 5440POPC   GL169601  23.741  36.127   5.893
 5440POPC   GL269602  23.513  35.902   5.703
 5440POPC   C1A69603  23.634  36.240   6.357
 5440POPC   D2A69604  23.630  36.253   6.824
 5440POPC   C3A69605  23.942  36.540   7.064
 5440POPC   C4A69606  24.365  36.617   7.239
 5440POPC   C1B69607  23.386  35.841   6.156
 5440POPC   C2B69608  23.607  35.756   6.579
 5440POPC   C3B69609  23.493  35.810   7.032
 5440POPC   C4B69610  23.630  35.820   7.501
 5441POPC   NC369611   3.825  14.077   5.078
 5441POPC   PO469612   3.630  14.668   5.325
 5441POPC   GL169613   3.367  14.708   5.774
 5441POPC   GL269614   3.443  14.341   5.883
 5441POPC   C1A69615   3.420  14.684   6.274
 5441POPC   D2A69616   3.738  14.448   6.591
 5441POPC   C3A69617   3.799  14.609   7.027
 5441POPC   C4A69618   3.429  14.842   7.201
 5441POPC   C1B69619   3.596  14.053   6.252
 5441POPC   C2B69620   3.517  13.976   6.703
 5441POPC   C3B69621   3.515  14.170   7.104
 5441POPC   C4B69622   3.475  14.003   7.540
 5442POPC   NC369623   0.347  36.998   4.921
 5442POPC   PO469624   0.829  36.833   5.400
 5442POPC   GL169625   0.649  36.871   5.846
 5442POPC   GL269626   0.291  36.827   5.950
 5442POPC   C1A69627   0.641  36.967   6.312
 5442POPC   D2A69628   0.731  37.206   6.690
 5442POPC   C3A69629   0.607  37.085   7.090
 5442POPC   C4A69630   0.512  36.671   7.234
 5442POPC   C1B69631   0.225  36.686   6.354
 5442POPC   C2B69632   0.380  36.762   6.733
 5442POPC   C3B69633   0.111  36.942   7.043
 5442POPC   C4B69634   0.202  37.017   7.465
 5443POPC   NC369635  32.031  22.756   5.469
 5443POPC   PO469636  32.542  23.192   5.345
 5443POPC   GL169637  32.322  23.050   5.756
 5443POPC   GL269638  32.473  22.727   5.846
 5443POPC   C1A69639  32.082  22.871   6.132
 5443POPC   D2A69640  32.301  22.806   6.490
 5443POPC   C3A69641  32.209  22.900   6.900
 5443POPC   C4A69642  32.035  23.179   7.246
 5443POPC   C1B69643  32.707  22.616   6.227
 5443POPC   C2B69644  32.647  22.505   6.685
 5443POPC   C3B69645  32.588  22.616   7.133
 5443POPC   C4B69646  32.243  22.725   7.384
 5444POPC   NC369647  25.710  27.648   5.419
 5444POPC   PO469648  25.081  27.558   5.276
 5444POPC   GL169649  25.180  27.586   5.718
 5444POPC   GL269650  24.953  27.280   5.730
 5444POPC   C1A69651  25.457  27.707   6.125
 5444POPC   D2A69652  25.511  27.615   6.604
 5444POPC   C3A69653  25.171  27.730   6.882
 5444POPC   C4A69654  25.291  27.890   7.256
 5444POPC   C1B69655  25.205  27.258   6.110
 5444POPC   C2B69656  25.106  27.301   6.542
 5444POPC   C3B69657  25.270  27.238   6.959
 5444POPC   C4B69658  25.093  27.405   7.342
 5445POPC   NC369659  37.346  17.002   5.425
 5445POPC   PO469660  37.442  16.323   5.343
 5445POPC   GL169661  37.681  16.575   5.657
 5445POPC   GL269662  37.938  16.369   5.829
 5445POPC   C1A69663  37.592  16.800   6.054
 5445POPC   D2A69664  37.391  16.783   6.469
 5445POPC   C3A69665  37.594  16.851   6.862
 5445POPC   C4A69666  37.412  16.945   7.255
 5445POPC   C1B69667  38.093  16.684   6.132
 5445POPC   C2B69668  38.127  16.811   6.575
 5445POPC   C3B69669  38.058  16.547   6.942
 5445POPC   C4B69670  37.711  16.461   7.211
 5446POPC   NC369671  39.605  29.973   5.590
 5446POPC   PO469672  38.959  29.805   5.556
 5446POPC   GL169673  39.085  30.074   5.883
 5446POPC   GL269674  39.434  30.081   6.051
 5446POPC   C1A69675  39.022  29.965   6.312
 5446POPC   D2A69676  39.278  29.922   6.674
 5446POPC   C3A69677  39.030  30.030   7.063
 5446POPC   C4A69678  39.014  30.073   7.532
 5446POPC   C1B69679  39.759  29.846   6.273
 5446POPC   C2B69680  39.753  29.679   6.687
 5446POPC   C3B69681  39.631  29.908   7.053
 5446POPC   C4B69682  39.481  29.971   7.480
 5447POPC   NC369683  33.292  11.237   5.328
 5447POPC   PO469684  32.771  11.651   5.305
 5447POPC   GL169685  32.827  11.497   5.713
 5447POPC   GL269686  33.175  11.436   5.869
 5447POPC   C1A69687  32.731  11.506   6.140
 5447POPC   D2A69688  33.063  11.396   6.414
 5447POPC   C3A69689  33.031  11.300   6.832
 5447POPC   C4A69690  32.927  11.466   7.233
 5447POPC   C1B69691  33.531  11.438   6.215
 5447POPC   C2B69692  33.582  11.359   6.693
 5447POPC   C3B69693  33.425  11.388   7.161
 5447POPC   C4B69694  33.283  11.082   7.562
 5448POPC   NC369695  34.836   0.966   5.507
 5448POPC   PO469696  34.357   1.431   5.496
 5448POPC   GL169697  34.627   1.431   5.849
 5448POPC   GL269698  34.654   1.095   5.974
 5448POPC   C1A69699  34.743   1.507   6.272
 5448POPC   D2A69700  34.722   1.230   6.624
 5448POPC   C3A69701  34.885   1.401   6.996
 5448POPC   C4A69702  34.497   1.457   7.242
 5448POPC   C1B69703  34.809   0.765   6.246
 5448POPC   C2B69704  34.664   0.688   6.690
 5448POPC   C3B69705  34.642   0.962   7.106
 5448POPC   C4B69706  34.756   0.869   7.582
 5449POPC   NC369707  33.022  34.051   5.386
 5449POPC   PO469708  32.553  34.566   5.381
 5449POPC   GL169709  32.791  34.541   5.767
 5449POPC   GL269710  32.699  34.187   5.845
 5449POPC   C1A69711  33.132  34.606   6.089
 5449POPC   D2A69712  33.251  34.397   6.482
 5449POPC   C3A69713  33.232  34.522   6.920
 5449POPC   C4A69714  32.909  34.768   7.151
 5449POPC   C1B69715  32.736  34.338   6.293
 5449POPC   C2B69716  32.755  34.448   6.760
 5449POPC   C3B69717  32.771  34.156   7.120
 5449POPC   C4B69718  32.885  34.137   7.576
 5450POPC   NC369719  35.167  27.105   5.043
 5450POPC   PO469720  35.353  26.670   5.529
 5450POPC   GL169721  35.066  26.757   5.802
 5450POPC   GL269722  35.071  27.125   5.808
 5450POPC   C1A69723  35.196  26.657   6.193
 5450POPC   D2A69724  35.541  26.643   6.427
 5450POPC   C3A69725  35.339  26.591   6.804
 5450POPC   C4A69726  35.383  26.681   7.209
 5450POPC   C1B69727  35.227  27.164   6.236
 5450POPC   C2B69728  35.416  27.094   6.629
 5450POPC   C3B69729  35.318  27.170   7.044
 5450POPC   C4B69730  35.551  27.493   7.233
 5451POPC   NC369731  14.185  29.392   5.371
 5451POPC   PO469732  14.178  28.743   5.310
 5451POPC   GL169733  14.467  28.837   5.698
 5451POPC   GL269734  14.504  29.211   5.774
 5451POPC   C1A69735  14.585  28.747   6.156
 5451POPC   D2A69736  14.603  29.007   6.544
 5451POPC   C3A69737  14.458  28.930   6.948
 5451POPC   C4A69738  14.438  29.096   7.368
 5451POPC   C1B69739  14.489  29.421   6.188
 5451POPC   C2B69740  14.711  29.504   6.576
 5451POPC   C3B69741  14.556  29.434   6.988
 5451POPC   C4B69742  14.451  29.599   7.391
 5452POPC   NC369743  40.764   7.507   5.314
 5452POPC   PO469744  41.063   7.016   5.607
 5452POPC   GL169745  40.799   7.386   5.842
 5452POPC   GL269746  40.714   7.759   5.758
 5452POPC   C1A69747  40.747   7.470   6.298
 5452POPC   D2A69748  40.585   7.255   6.669
 5452POPC   C3A69749  40.834   7.192   7.047
 5452POPC   C4A69750  40.710   7.448   7.406
 5452POPC   C1B69751  40.456   7.822   6.096
 5452POPC   C2B69752  40.336   7.696   6.532
 5452POPC   C3B69753  40.447   7.715   6.984
 5452POPC   C4B69754  40.287   8.076   7.201
 5453POPC   NC369755  26.292  43.698   5.617
 5453POPC   PO469756  25.958  44.317   5.502
 5453POPC   GL169757  26.099  44.227   5.921
 5453POPC   GL269758  25.984  43.871   5.987
 5453POPC   C1A69759  26.181  44.162   6.370
 5453POPC   D2A69760  25.873  43.878   6.541
 5453POPC   C3A69761  25.899  43.853   6.957
 5453POPC   C4A69762  26.014  44.192   7.255
 5453POPC   C1B69763  26.229  43.618   6.293
 5453POPC   C2B69764  26.404  43.613   6.714
 5453POPC   C3B69765  26.410  43.868   7.091
 5453POPC   C4B69766  26.104  43.733   7.399
 5454POPC   NC369767  12.123  41.822   5.541
 5454POPC   PO469768  11.624  41.402   5.346
 5454POPC   GL169769  11.910  41.365   5.718
 5454POPC   GL269770  12.292  41.296   5.802
 5454POPC   C1A69771  11.989  41.515   6.148
 5454POPC   D2A69772  12.306  41.586   6.438
 5454POPC   C3A69773  12.175  41.500   6.840
 5454POPC   C4A69774  11.838  41.514   7.100
 5454POPC   C1B69775  12.277  41.041   6.222
 5454POPC   C2B69776  12.147  41.010   6.674
 5454POPC   C3B69777  12.157  41.076   7.115
 5454POPC   C4B69778  12.294  41.430   7.401
 5455POPC   NC369779  26.167  31.202   5.411
 5455POPC   PO469780  25.887  31.847   5.321
 5455POPC   GL169781  26.058  31.632   5.739
 5455POPC   GL269782  26.018  31.283   5.888
 5455POPC   C1A69783  26.201  31.637   6.189
 5455POPC   D2A69784  25.951  31.493   6.487
 5455POPC   C3A69785  25.878  31.475   6.948
 5455POPC   C4A69786  26.055  31.366   7.331
 5455POPC   C1B69787  26.238  31.120   6.260
 5455POPC   C2B69788  26.351  31.224   6.690
 5455POPC   C3B69789  26.399  31.000   7.059
 5455POPC   C4B69790  26.382  31.023   7.503
 5456POPC   NC369791  35.431  16.213   5.406
 5456POPC   PO469792  35.542  15.618   5.615
 5456POPC   GL169793  35.521  15.985   5.852
 5456POPC   GL269794  35.160  16.094   5.807
 5456POPC   C1A69795  35.613  15.968   6.283
 5456POPC   D2A69796  35.296  15.723   6.528
 5456POPC   C3A69797  35.341  15.787   6.946
 5456POPC   C4A69798  35.420  16.031   7.305
 5456POPC   C1B69799  35.213  16.276   6.211
 5456POPC   C2B69800  35.336  16.231   6.634
 5456POPC   C3B69801  35.060  16.217   6.959
 5456POPC   C4B69802  35.101  16.412   7.322
 5457POPC   NC369803  28.449  30.108   5.092
 5457POPC   PO469804  28.242  29.477   5.271
 5457POPC   GL169805  28.274  29.678   5.695
 5457POPC   GL269806  28.613  29.768   5.831
 5457POPC   C1A69807  28.242  29.560   6.157
 5457POPC   D2A69808  28.161  29.769   6.558
 5457POPC   C3A69809  28.322  29.683   6.944
 5457POPC   C4A69810  28.015  29.658   7.277
 5457POPC   C1B69811  28.375  30.037   6.183
 5457POPC   C2B69812  28.160  30.279   6.471
 5457POPC   C3B69813  28.064  30.179   6.876
 5457POPC   C4B69814  28.160  30.143   7.291
 5458POPC   NC369815  26.435  44.429   5.406
 5458POPC   PO469816  26.781  43.797   5.464
 5458POPC   GL169817  26.827  44.020   5.857
 5458POPC   GL269818  26.525  43.944   6.018
 5458POPC   C1A69819  26.947  44.119   6.306
 5458POPC   D2A69820  26.759  43.983   6.701
 5458POPC   C3A69821  26.955  43.981   7.109
 5458POPC   C4A69822  26.936  44.012   7.566
 5458POPC   C1B69823  26.745  43.661   6.288
 5458POPC   C2B69824  26.898  43.484   6.686
 5458POPC   C3B69825  26.894  43.478   7.113
 5458POPC   C4B69826  26.519  43.460   7.374
 5459POPC   NC369827  11.313  20.225   5.558
 5459POPC   PO469828  11.139  19.614   5.281
 5459POPC   GL169829  11.173  19.743   5.714
 5459POPC   GL269830  10.996  19.491   5.880
 5459POPC   C1A69831  10.999  20.005   6.078
 5459POPC   D2A69832  10.932  20.057   6.529
 5459POPC   C3A69833  11.291  20.063   6.765
 5459POPC   C4A69834  11.332  19.858   7.135
 5459POPC   C1B69835  11.277  19.596   6.244
 5459POPC   C2B69836  11.183  19.556   6.703
 5459POPC   C3B69837  11.038  19.454   7.135
 5459POPC   C4B69838  11.123  19.603   7.565
 5460POPC   NC369839  37.709  24.261   5.426
 5460POPC   PO469840  37.943  24.907   5.531
 5460POPC   GL169841  37.715  24.603   5.825
 5460POPC   GL269842  37.871  24.232   5.890
 5460POPC   C1A69843  37.653  24.519   6.266
 5460POPC   D2A69844  37.409  24.735   6.561
 5460POPC   C3A69845  37.409  24.565   6.956
 5460POPC   C4A69846  37.380  24.231   7.200
 5460POPC   C1B69847  38.128  24.282   6.223
 5460POPC   C2B69848  38.088  24.461   6.615
 5460POPC   C3B69849  37.870  24.307   6.963
 5460POPC   C4B69850  37.800  24.493   7.344
 5461POPC   NC369851  32.692   0.607   5.537
 5461POPC   PO469852  33.117   0.142   5.431
 5461POPC   GL169853  33.102   0.409   5.801
 5461POPC   GL269854  32.841   0.250   5.878
 5461POPC   C1A69855  33.245   0.560   6.234
 5461POPC   D2A69856  33.194   0.823   6.612
 5461POPC   C3A69857  32.883   0.740   6.964
 5461POPC   C4A69858  32.968   0.588   7.414
 5461POPC   C1B69859  32.736   0.466   6.246
 5461POPC   C2B69860  32.942   0.367   6.631
 5461POPC   C3B69861  32.798   0.229   7.072
 5461POPC   C4B69862  32.714   0.129   7.524
 5462POPC   NC369863  39.654  18.988   5.486
 5462POPC   PO469864  40.188  18.593   5.442
 5462POPC   GL169865  40.085  18.889   5.820
 5462POPC   GL269866  40.002  19.260   5.863
 5462POPC   C1A69867  39.985  18.964   6.272
 5462POPC   D2A69868  40.186  19.047   6.650
 5462POPC   C3A69869  39.901  19.175   6.974
 5462POPC   C4A69870  39.773  18.931   7.314
 5462POPC   C1B69871  40.311  19.394   6.198
 5462POPC   C2B69872  40.383  19.523   6.635
 5462POPC   C3B69873  40.332  19.451   7.077
 5462POPC   C4B69874  40.171  19.404   7.502
 5463POPC   NC369875  19.378  33.316   5.247
 5463POPC   PO469876  18.983  33.756   5.453
 5463POPC   GL169877  18.966  33.871   5.862
 5463POPC   GL269878  19.310  33.934   5.840
 5463POPC   C1A69879  18.858  33.889   6.300
 5463POPC   D2A69880  19.053  33.961   6.679
 5463POPC   C3A69881  18.873  33.903   7.068
 5463POPC   C4A69882  19.059  33.816   7.471
 5463POPC   C1B69883  19.360  33.742   6.222
 5463POPC   C2B69884  19.499  33.715   6.627
 5463POPC   C3B69885  19.370  33.720   7.050
 5463POPC   C4B69886  19.610  33.803   7.424
 5464POPC   NC369887   4.761  30.392   5.499
 5464POPC   PO469888   5.152  30.992   5.416
 5464POPC   GL169889   5.201  30.977   5.855
 5464POPC   GL269890   5.012  30.659   5.886
 5464POPC   C1A69891   5.128  30.952   6.321
 5464POPC   D2A69892   4.874  30.663   6.603
 5464POPC   C3A69893   4.974  30.537   7.062
 5464POPC   C4A69894   4.988  30.753   7.449
 5464POPC   C1B69895   5.245  30.471   6.249
 5464POPC   C2B69896   5.365  30.514   6.712
 5464POPC   C3B69897   5.430  30.241   7.102
 5464POPC   C4B69898   5.354  30.350   7.537
 5465POPC   NC369899  34.973  28.518   5.578
 5465POPC   PO469900  34.481  28.301   5.182
 5465POPC   GL169901  34.562  28.225   5.662
 5465POPC   GL269902  34.467  27.941   5.809
 5465POPC   C1A69903  34.605  28.285   6.162
 5465POPC   D2A69904  34.752  28.143   6.590
 5465POPC   C3A69905  34.612  28.436   6.919
 5465POPC   C4A69906  34.614  28.452   7.369
 5465POPC   C1B69907  34.139  28.068   6.110
 5465POPC   C2B69908  34.227  28.199   6.547
 5465POPC   C3B69909  34.250  28.083   6.969
 5465POPC   C4B69910  34.115  28.263   7.362
 5466POPC   NC369911  35.560  15.221   5.399
 5466POPC   PO469912  35.146  14.734   5.234
 5466POPC   GL169913  35.195  14.970   5.658
 5466POPC   GL269914  35.558  14.962   5.815
 5466POPC   C1A69915  35.121  15.135   6.091
 5466POPC   D2A69916  35.288  15.191   6.510
 5466POPC   C3A69917  35.132  15.315   6.897
 5466POPC   C4A69918  35.151  15.132   7.284
 5466POPC   C1B69919  35.696  15.198   6.179
 5466POPC   C2B69920  35.748  15.418   6.601
 5466POPC   C3B69921  35.632  15.251   7.009
 5466POPC   C4B69922  35.482  15.506   7.337
 5467POPC   NC369923  22.629  13.129   5.379
 5467POPC   PO469924  22.026  12.849   5.222
 5467POPC   GL169925  22.250  13.071   5.689
 5467POPC   GL269926  22.556  12.957   5.863
 5467POPC   C1A69927  22.188  13.209   6.133
 5467POPC   D2A69928  22.332  13.086   6.550
 5467POPC   C3A69929  22.048  13.139   6.903
 5467POPC   C4A69930  22.186  13.129   7.327
 5467POPC   C1B69931  22.378  12.693   6.206
 5467POPC   C2B69932  22.483  12.586   6.638
 5467POPC   C3B69933  22.321  12.718   7.050
 5467POPC   C4B69934  22.366  12.654   7.518
 5468POPC   NC369935  21.973  11.248   5.354
 5468POPC   PO469936  22.550  11.350   5.443
 5468POPC   GL169937  22.296  11.255   5.830
 5468POPC   GL269938  21.942  11.363   5.850
 5468POPC   C1A69939  22.205  11.223   6.288
 5468POPC   D2A69940  22.046  11.297   6.703
 5468POPC   C3A69941  22.263  11.126   7.051
 5468POPC   C4A69942  22.488  11.308   7.379
 5468POPC   C1B69943  21.757  11.485   6.235
 5468POPC   C2B69944  21.622  11.671   6.597
 5468POPC   C3B69945  21.754  11.603   6.997
 5468POPC   C4B69946  22.011  11.508   7.311
 5469POPC   NC369947  41.711  32.677   5.416
 5469POPC   PO469948  41.357  33.135   5.440
 5469POPC   GL169949  41.530  33.106   5.831
 5469POPC   GL269950  41.508  32.779   5.873
 5469POPC   C1A69951  41.532  33.333   6.221
 5469POPC   D2A69952  41.472  33.567   6.582
 5469POPC   C3A69953  41.622  33.264   6.866
 5469POPC   C4A69954  41.524  33.156   7.287
 5469POPC   C1B69955  41.611  32.553   6.243
 5469POPC   C2B69956  41.577  32.798   6.601
 5469POPC   C3B69957  41.353  32.813   6.956
 5469POPC   C4B69958  41.443  32.664   7.330
 5470POPC   NC369959  38.658  40.343   5.556
 5470POPC   PO469960  38.218  40.739   5.242
 5470POPC   GL169961  38.295  40.781   5.731
 5470POPC   GL269962  38.241  40.466   5.828
 5470POPC   C1A69963  38.534  40.885   6.178
 5470POPC   D2A69964  38.633  41.089   6.592
 5470POPC   C3A69965  38.502  40.922   6.997
 5470POPC   C4A69966  38.252  41.078   7.360
 5470POPC   C1B69967  38.073  40.691   6.202
 5470POPC   C2B69968  38.169  40.751   6.646
 5470POPC   C3B69969  38.058  40.683   7.090
 5470POPC   C4B69970  38.150  40.399   7.425
 5471POPC   NC369971  25.703  12.576   5.559
 5471POPC   PO469972  25.015  12.784   5.367
 5471POPC   GL169973  25.204  12.592   5.718
 5471POPC   GL269974  25.397  12.878   5.816
 5471POPC   C1A69975  25.280  12.570   6.190
 5471POPC   D2A69976  25.137  12.757   6.604
 5471POPC   C3A69977  25.281  12.674   7.032
 5471POPC   C4A69978  25.663  12.605   7.248
 5471POPC   C1B69979  25.221  13.093   6.171
 5471POPC   C2B69980  25.174  13.290   6.547
 5471POPC   C3B69981  25.329  13.192   6.922
 5471POPC   C4B69982  25.204  13.158   7.314
 5472POPC   NC369983  30.989  29.798   5.441
 5472POPC   PO469984  30.445  29.638   5.115
 5472POPC   GL169985  30.455  29.965   5.533
 5472POPC   GL269986  30.743  30.068   5.776
 5472POPC   C1A69987  30.317  29.965   6.017
 5472POPC   D2A69988  30.217  30.131   6.456
 5472POPC   C3A69989  30.427  30.098   6.885
 5472POPC   C4A69990  30.490  29.928   7.309
 5472POPC   C1B69991  30.808  29.820   6.180
 5472POPC   C2B69992  30.770  29.792   6.659
 5472POPC   C3B69993  30.891  29.673   7.079
 5472POPC   C4B69994  31.179  29.859   7.399
 5473POPC   NC369995  30.449   4.956   5.272
 5473POPC   PO469996  31.154   5.039   5.424
 5473POPC   GL169997  30.957   4.977   5.807
 5473POPC   GL269998  30.713   5.181   5.679
 5473POPC   C1A69999  30.973   4.831   6.222
 5473POPC   D2A70000  30.733   4.979   6.555
 5473POPC   C3A70001  30.861   4.905   6.965
 5473POPC   C4A70002  30.469   4.966   7.171
 5473POPC   C1B70003  30.758   5.328   6.104
 5473POPC   C2B70004  30.716   5.511   6.506
 5473POPC   C3B70005  30.846   5.411   6.902
 5473POPC   C4B70006  30.866   5.258   7.328
 5474POPC   NC370007  19.836  19.339   4.933
 5474POPC   PO470008  20.152  18.871   5.372
 5474POPC   GL170009  20.038  18.882   5.812
 5474POPC   GL270010  19.797  19.114   5.764
 5474POPC   C1A70011  20.054  19.118   6.211
 5474POPC   D2A70012  20.148  19.061   6.640
 5474POPC   C3A70013  19.806  18.957   6.889
 5474POPC   C4A70014  19.753  19.154   7.304
 5474POPC   C1B70015  19.592  19.331   6.133
 5474POPC   C2B70016  19.508  19.167   6.543
 5474POPC   C3B70017  19.369  19.193   6.989
 5474POPC   C4B70018  19.282  19.280   7.465
 5475POPC   NC370019  36.048  40.487   5.383
 5475POPC   PO470020  36.037  41.100   5.621
 5475POPC   GL170021  36.247  40.919   5.903
 5475POPC   GL270022  36.245  40.580   5.846
 5475POPC   C1A70023  36.137  40.837   6.319
 5475POPC   D2A70024  36.292  40.750   6.715
 5475POPC   C3A70025  36.028  40.956   6.992
 5475POPC   C4A70026  35.955  40.914   7.417
 5475POPC   C1B70027  36.194  40.330   6.207
 5475POPC   C2B70028  36.035  40.332   6.614
 5475POPC   C3B70029  36.019  40.394   7.051
 5475POPC   C4B70030  35.997  40.411   7.503
 5476POPC   NC370031   0.841  43.148   5.496
 5476POPC   PO470032   1.084  42.565   5.616
 5476POPC   GL170033   1.037  42.891   5.895
 5476POPC   GL270034   1.304  43.087   5.754
 5476POPC   C1A70035   1.086  42.963   6.329
 5476POPC   D2A70036   1.106  42.682   6.705
 5476POPC   C3A70037   1.220  42.915   7.092
 5476POPC   C4A70038   1.094  43.275   7.346
 5476POPC   C1B70039   1.316  43.413   6.062
 5476POPC   C2B70040   1.305  43.499   6.480
 5476POPC   C3B70041   1.338  43.367   6.894
 5476POPC   C4B70042   1.595  43.382   7.265
 5477POPC   NC370043  35.553  30.467   5.343
 5477POPC   PO470044  35.132  31.035   5.383
 5477POPC   GL170045  35.398  30.835   5.728
 5477POPC   GL270046  35.610  30.548   5.840
 5477POPC   C1A70047  35.462  30.884   6.176
 5477POPC   D2A70048  35.251  30.717   6.530
 5477POPC   C3A70049  35.438  30.702   6.909
 5477POPC   C4A70050  35.545  30.906   7.294
 5477POPC   C1B70051  35.220  30.421   6.099
 5477POPC   C2B70052  35.231  30.197   6.522
 5477POPC   C3B70053  35.058  30.322   6.936
 5477POPC   C4B70054  35.156  30.598   7.313
 5478POPC   NC370055  43.916   7.401   5.394
 5478POPC   PO470056  43.254   7.476   5.425
 5478POPC   GL170057  43.554   7.634   5.810
 5478POPC   GL270058  43.918   7.528   5.873
 5478POPC   C1A70059  43.713   7.664   6.292
 5478POPC   D2A70060  43.591   7.364   6.620
 5478POPC   C3A70061  43.815   7.310   6.994
 5478POPC   C4A70062  43.967   6.957   7.224
 5478POPC   C1B70063  43.998   7.228   6.246
 5478POPC   C2B70064  44.221   7.233   6.675
 5478POPC   C3B70065  44.324   7.330   7.127
 5478POPC   C4B70066  44.439   7.654   7.440
 5479POPC   NC370067   2.972  41.757   5.298
 5479POPC   PO470068   3.038  41.153   5.178
 5479POPC   GL170069   2.969  41.380   5.663
 5479POPC   GL270070   2.717  41.664   5.723
 5479POPC   C1A70071   2.925  41.330   6.164
 5479POPC   D2A70072   3.053  41.277   6.664
 5479POPC   C3A70073   2.906  41.333   7.106
 5479POPC   C4A70074   2.901  41.547   7.527
 5479POPC   C1B70075   2.900  41.835   6.080
 5479POPC   C2B70076   2.855  41.727   6.498
 5479POPC   C3B70077   3.101  41.781   6.846
 5479POPC   C4B70078   2.916  41.924   7.196
 5480POPC   NC370079  13.127  27.972   5.453
 5480POPC   PO470080  13.213  28.587   5.332
 5480POPC   GL170081  13.064  28.402   5.741
 5480POPC   GL270082  12.772  28.629   5.788
 5480POPC   C1A70083  13.059  28.208   6.176
 5480POPC   D2A70084  12.807  28.119   6.566
 5480POPC   C3A70085  12.947  28.245   6.976
 5480POPC   C4A70086  13.328  28.132   7.130
 5480POPC   C1B70087  12.793  28.663   6.238
 5480POPC   C2B70088  12.874  28.687   6.690
 5480POPC   C3B70089  12.773  28.707   7.143
 5480POPC   C4B70090  12.548  28.471   7.420
 5481POPC   NC370091  17.549  25.524   5.393
 5481POPC   PO470092  17.512  24.916   5.297
 5481POPC   GL170093  17.414  25.173   5.736
 5481POPC   GL270094  17.248  25.531   5.827
 5481POPC   C1A70095  17.487  25.223   6.198
 5481POPC   D2A70096  17.760  25.194   6.587
 5481POPC   C3A70097  17.681  25.193   7.049
 5481POPC   C4A70098  17.429  25.076   7.433
 5481POPC   C1B70099  17.243  25.673   6.285
 5481POPC   C2B70100  17.092  25.605   6.701
 5481POPC   C3B70101  17.254  25.452   7.101
 5481POPC   C4B70102  17.356  25.589   7.525
 5482POPC   NC370103  14.952  13.430   5.061
 5482POPC   PO470104  15.223  13.997   5.442
 5482POPC   GL170105  15.356  13.816   5.854
 5482POPC   GL270106  15.220  13.486   5.956
 5482POPC   C1A70107  15.304  13.892   6.242
 5482POPC   D2A70108  15.270  13.506   6.465
 5482POPC   C3A70109  15.212  13.618   6.847
 5482POPC   C4A70110  15.103  13.423   7.186
 5482POPC   C1B70111  14.832  13.739   6.182
 5482POPC   C2B70112  14.830  13.951   6.569
 5482POPC   C3B70113  14.755  13.792   6.966
 5482POPC   C4B70114  14.935  13.878   7.330
 5483POPC   NC370115  30.668  33.486   5.445
 5483POPC   PO470116  30.424  34.156   5.554
 5483POPC   GL170117  30.711  33.881   5.776
 5483POPC   GL270118  30.446  33.688   5.846
 5483POPC   C1A70119  30.867  33.756   6.193
 5483POPC   D2A70120  30.967  34.005   6.571
 5483POPC   C3A70121  30.974  33.808   6.957
 5483POPC   C4A70122  30.922  33.973   7.360
 5483POPC   C1B70123  30.396  33.482   6.203
 5483POPC   C2B70124  30.595  33.578   6.601
 5483POPC   C3B70125  30.466  33.653   7.012
 5483POPC   C4B70126  30.480  33.713   7.465
 5484POPC   NC370127  42.264  37.399   5.580
 5484POPC   PO470128  42.258  36.849   5.206
 5484POPC   GL170129  42.343  36.888   5.682
 5484POPC   GL270130  42.489  37.137   5.940
 5484POPC   C1A70131  42.056  36.848   6.047
 5484POPC   D2A70132  41.995  36.808   6.508
 5484POPC   C3A70133  42.223  37.019   6.851
 5484POPC   C4A70134  42.126  36.972   7.279
 5484POPC   C1B70135  42.541  36.741   6.166
 5484POPC   C2B70136  42.480  36.598   6.601
 5484POPC   C3B70137  42.610  36.660   7.017
 5484POPC   C4B70138  42.637  37.039   7.215
 5485POPC   NC370139  35.004  23.841   5.484
 5485POPC   PO470140  34.468  23.482   5.069
 5485POPC   GL170141  34.373  23.547   5.556
 5485POPC   GL270142  34.712  23.500   5.711
 5485POPC   C1A70143  34.383  23.683   6.035
 5485POPC   D2A70144  34.684  23.644   6.407
 5485POPC   C3A70145  34.527  23.725   6.826
 5485POPC   C4A70146  34.599  23.733   7.255
 5485POPC   C1B70147  34.915  23.294   6.048
 5485POPC   C2B70148  35.044  23.273   6.479
 5485POPC   C3B70149  34.797  23.278   6.844
 5485POPC   C4B70150  34.765  23.236   7.263
 5486POPC   NC370151  18.049  36.235   5.278
 5486POPC   PO470152  18.568  35.793   5.430
 5486POPC   GL170153  18.428  35.991   5.765
 5486POPC   GL270154  18.441  36.338   5.660
 5486POPC   C1A70155  18.583  36.043   6.196
 5486POPC   D2A70156  18.773  36.091   6.598
 5486POPC   C3A70157  18.461  36.037   6.929
 5486POPC   C4A70158  18.297  36.049   7.347
 5486POPC   C1B70159  18.173  36.332   6.060
 5486POPC   C2B70160  18.195  36.358   6.533
 5486POPC   C3B70161  17.968  36.186   6.898
 5486POPC   C4B70162  17.862  36.290   7.329
 5487POPC   NC370163  18.003  30.053   5.382
 5487POPC   PO470164  18.389  29.574   5.476
 5487POPC   GL170165  18.282  29.826   5.828
 5487POPC   GL270166  18.127  30.159   5.849
 5487POPC   C1A70167  18.235  29.902   6.273
 5487POPC   D2A70168  18.358  30.071   6.675
 5487POPC   C3A70169  18.249  29.751   6.944
 5487POPC   C4A70170  18.335  29.723   7.356
 5487POPC   C1B70171  17.823  30.279   6.117
 5487POPC   C2B70172  17.862  30.145   6.548
 5487POPC   C3B70173  17.904  30.222   6.971
 5487POPC   C4B70174  18.101  30.180   7.361
 5488POPC   NC370175  37.389  28.844   5.500
 5488POPC   PO470176  37.611  29.518   5.422
 5488POPC   GL170177  37.600  29.230   5.782
 5488POPC   GL270178  37.232  29.176   5.846
 5488POPC   C1A70179  37.862  29.181   6.166
 5488POPC   D2A70180  37.797  28.969   6.593
 5488POPC   C3A70181  37.680  29.172   6.982
 5488POPC   C4A70182  37.560  28.998   7.384
 5488POPC   C1B70183  37.367  29.101   6.265
 5488POPC   C2B70184  37.273  29.221   6.681
 5488POPC   C3B70185  37.200  29.294   7.119
 5488POPC   C4B70186  37.164  29.274   7.547
 5489POPC   NC370187  33.760  41.783   5.538
 5489POPC   PO470188  33.703  41.146   5.525
 5489POPC   GL170189  33.798  41.407   5.887
 5489POPC   GL270190  34.143  41.400   5.905
 5489POPC   C1A70191  33.792  41.792   6.219
 5489POPC   D2A70192  33.728  42.052   6.631
 5489POPC   C3A70193  33.845  41.807   6.993
 5489POPC   C4A70194  33.682  41.386   7.130
 5489POPC   C1B70195  34.091  41.387   6.317
 5489POPC   C2B70196  34.016  41.400   6.740
 5489POPC   C3B70197  34.225  41.201   7.058
 5489POPC   C4B70198  34.227  41.276   7.498
 5490POPC   NC370199  22.647  30.070   5.620
 5490POPC   PO470200  23.178  29.752   5.525
 5490POPC   GL170201  23.016  29.877   5.911
 5490POPC   GL270202  22.731  29.634   5.912
 5490POPC   C1A70203  23.120  30.098   6.291
 5490POPC   D2A70204  23.208  29.973   6.717
 5490POPC   C3A70205  22.896  29.983   7.072
 5490POPC   C4A70206  22.523  30.211   7.113
 5490POPC   C1B70207  22.636  29.889   6.266
 5490POPC   C2B70208  22.642  29.805   6.675
 5490POPC   C3B70209  22.591  29.538   7.035
 5490POPC   C4B70210  22.513  29.770   7.424
 5491POPC   NC370211  41.730  22.015   5.366
 5491POPC   PO470212  41.713  22.716   5.434
 5491POPC   GL170213  41.492  22.377   5.725
 5491POPC   GL270214  41.682  22.103   5.857
 5491POPC   C1A70215  41.264  22.205   6.108
 5491POPC   D2A70216  41.444  22.199   6.535
 5491POPC   C3A70217  41.223  22.426   6.891
 5491POPC   C4A70218  41.428  22.293   7.275
 5491POPC   C1B70219  41.878  22.038   6.248
 5491POPC   C2B70220  41.879  21.818   6.612
 5491POPC   C3B70221  41.773  22.048   6.953
 5491POPC   C4B70222  41.749  21.849   7.306
 5492POPC   NC370223  26.358   4.911   5.437
 5492POPC   PO470224  25.756   5.245   5.474
 5492POPC   GL170225  25.989   5.129   5.820
 5492POPC   GL270226  26.333   5.229   5.859
 5492POPC   C1A70227  25.971   5.161   6.257
 5492POPC   D2A70228  26.277   5.212   6.570
 5492POPC   C3A70229  26.054   5.178   6.946
 5492POPC   C4A70230  25.797   5.290   7.283
 5492POPC   C1B70231  26.313   4.822   6.101
 5492POPC   C2B70232  26.203   4.692   6.533
 5492POPC   C3B70233  26.326   4.752   7.001
 5492POPC   C4B70234  26.263   5.061   7.392
 5493POPC   NC370235   9.488  14.418   5.364
 5493POPC   PO470236   9.714  13.953   5.437
 5493POPC   GL170237   9.527  14.169   5.829
 5493POPC   GL270238   9.817  14.357   5.958
 5493POPC   C1A70239   9.454  14.277   6.314
 5493POPC   D2A70240   9.764  14.356   6.673
 5493POPC   C3A70241   9.656  14.212   7.121
 5493POPC   C4A70242   9.479  14.432   7.492
 5493POPC   C1B70243   9.763  14.696   6.263
 5493POPC   C2B70244   9.585  14.864   6.646
 5493POPC   C3B70245   9.714  14.722   7.061
 5493POPC   C4B70246   9.725  14.925   7.458
 5494POPC   NC370247   7.161  39.603   5.475
 5494POPC   PO470248   7.524  39.087   5.489
 5494POPC   GL170249   7.412  39.191   5.833
 5494POPC   GL270250   7.631  39.459   5.890
 5494POPC   C1A70251   7.598  39.008   6.206
 5494POPC   D2A70252   7.727  39.183   6.599
 5494POPC   C3A70253   7.580  38.984   6.970
 5494POPC   C4A70254   7.325  38.962   7.334
 5494POPC   C1B70255   7.319  39.447   6.249
 5494POPC   C2B70256   7.416  39.592   6.647
 5494POPC   C3B70257   7.230  39.457   7.015
 5494POPC   C4B70258   6.894  39.680   7.216
 5495POPC   NC370259  19.067  44.065   5.174
 5495POPC   PO470260  18.971  43.498   5.507
 5495POPC   GL170261  19.036  43.824   5.822
 5495POPC   GL270262  19.061  44.202   5.745
 5495POPC   C1A70263  18.970  43.803   6.266
 5495POPC   D2A70264  19.250  43.612   6.570
 5495POPC   C3A70265  19.196  43.761   6.935
 5495POPC   C4A70266  18.797  43.733   7.029
 5495POPC   C1B70267  18.974  44.323   6.203
 5495POPC   C2B70268  18.848  44.140   6.621
 5495POPC   C3B70269  18.930  44.217   7.051
 5495POPC   C4B70270  19.294  44.179   7.295
 5496POPC   NC370271  34.087  17.375   5.256
 5496POPC   PO470272  34.588  17.759   5.040
 5496POPC   GL170273  34.439  17.655   5.587
 5496POPC   GL270274  34.243  17.362   5.740
 5496POPC   C1A70275  34.675  17.517   6.002
 5496POPC   D2A70276  34.739  17.659   6.460
 5496POPC   C3A70277  34.513  17.567   6.846
 5496POPC   C4A70278  34.631  17.457   7.291
 5496POPC   C1B70279  34.189  17.092   6.097
 5496POPC   C2B70280  34.320  17.114   6.526
 5496POPC   C3B70281  34.263  17.139   6.958
 5496POPC   C4B70282  34.208  17.175   7.391
 5497POPC   NC370283  34.287  43.947   5.612
 5497POPC   PO470284  34.926  44.128   5.356
 5497POPC   GL170285  34.762  44.094   5.806
 5497POPC   GL270286  34.755  44.415   5.995
 5497POPC   C1A70287  34.713  43.745   6.146
 5497POPC   D2A70288  34.760  43.575   6.590
 5497POPC   C3A70289  34.543  43.772   6.930
 5497POPC   C4A70290  34.806  43.748   7.292
 5497POPC   C1B70291  34.541  44.215   6.344
 5497POPC   C2B70292  34.430  44.283   6.778
 5497POPC   C3B70293  34.624  44.220   7.156
 5497POPC   C4B70294  34.542  44.112   7.583
 5498POPC   NC370295  34.436  42.067   5.420
 5498POPC   PO470296  33.851  42.253   5.604
 5498POPC   GL170297  33.951  42.260   6.024
 5498POPC   GL270298  33.963  42.607   6.039
 5498POPC   C1A70299  34.089  42.363   6.453
 5498POPC   D2A70300  33.810  42.562   6.751
 5498POPC   C3A70301  33.834  42.345   7.101
 5498POPC   C4A70302  33.588  42.093   7.327
 5498POPC   C1B70303  33.569  42.519   6.301
 5498POPC   C2B70304  33.280  42.568   6.687
 5498POPC   C3B70305  33.325  42.504   7.146
 5498POPC   C4B70306  33.319  42.448   7.624
 5499POPC   NC370307  12.219  35.275   5.530
 5499POPC   PO470308  11.650  35.671   5.630
 5499POPC   GL170309  11.963  35.536   5.873
 5499POPC   GL270310  11.820  35.213   5.860
 5499POPC   C1A70311  12.175  35.471   6.252
 5499POPC   D2A70312  12.243  35.206   6.620
 5499POPC   C3A70313  12.281  35.459   7.017
 5499POPC   C4A70314  12.043  35.409   7.401
 5499POPC   C1B70315  11.686  35.274   6.286
 5499POPC   C2B70316  11.727  35.117   6.685
 5499POPC   C3B70317  11.978  35.048   7.052
 5499POPC   C4B70318  11.812  34.990   7.494
 5500POPC   NC370319  40.368  29.326   5.589
 5500POPC   PO470320  40.881  28.832   5.445
 5500POPC   GL170321  40.654  28.955   5.799
 5500POPC   GL270322  40.904  29.186   5.845
 5500POPC   C1A70323  40.585  29.115   6.233
 5500POPC   D2A70324  40.605  29.354   6.598
 5500POPC   C3A70325  40.505  29.276   7.043
 5500POPC   C4A70326  40.783  29.328   7.378
 5500POPC   C1B70327  41.070  28.962   6.213
 5500POPC   C2B70328  40.980  29.022   6.642
 5500POPC   C3B70329  41.099  29.114   7.042
 5500POPC   C4B70330  41.331  29.225   7.410
 5501POPC   NC370331   3.145  20.570   5.565
 5501POPC   PO470332   2.570  20.821   5.358
 5501POPC   GL170333   2.635  20.486   5.728
 5501POPC   GL270334   2.874  20.248   5.847
 5501POPC   C1A70335   2.537  20.447   6.219
 5501POPC   D2A70336   2.453  20.384   6.708
 5501POPC   C3A70337   2.494  20.735   7.058
 5501POPC   C4A70338   2.747  20.730   7.493
 5501POPC   C1B70339   3.060  20.464   6.216
 5501POPC   C2B70340   2.875  20.662   6.592
 5501POPC   C3B70341   2.998  20.705   7.019
 5501POPC   C4B70342   3.195  20.431   7.303
 5502POPC   NC370343   2.934  21.072   5.176
 5502POPC   PO470344   2.535  21.521   5.454
 5502POPC   GL170345   2.438  21.548   5.871
 5502POPC   GL270346   2.391  21.885   5.889
 5502POPC   C1A70347   2.515  21.403   6.320
 5502POPC   D2A70348   2.698  21.146   6.641
 5502POPC   C3A70349   2.661  21.222   7.064
 5502POPC   C4A70350   2.976  21.137   7.330
 5502POPC   C1B70351   2.790  21.796   6.174
 5502POPC   C2B70352   2.827  21.677   6.653
 5502POPC   C3B70353   3.022  21.579   7.069
 5502POPC   C4B70354   2.945  21.627   7.543
 5503POPC   NC370355  11.972  42.636   5.118
 5503POPC   PO470356  12.316  43.000   5.556
 5503POPC   GL170357  12.148  43.130   5.966
 5503POPC   GL270358  12.328  43.412   5.970
 5503POPC   C1A70359  11.994  42.992   6.384
 5503POPC   D2A70360  12.042  42.743   6.746
 5503POPC   C3A70361  11.984  42.968   7.125
 5503POPC   C4A70362  11.788  43.181   7.456
 5503POPC   C1B70363  12.051  43.494   6.345
 5503POPC   C2B70364  11.977  43.357   6.775
 5503POPC   C3B70365  12.191  43.435   7.180
 5503POPC   C4B70366  12.088  43.784   7.453
 5504POPC   NC370367   0.793  33.213   5.538
 5504POPC   PO470368   0.112  33.048   5.461
 5504POPC   GL170369   0.409  32.884   5.785
 5504POPC   GL270370   0.455  33.211   5.935
 5504POPC   C1A70371   0.565  32.682   6.197
 5504POPC   D2A70372   0.384  32.664   6.624
 5504POPC   C3A70373   0.523  32.823   7.030
 5504POPC   C4A70374   0.338  33.192   7.256
 5504POPC   C1B70375   0.800  33.142   6.212
 5504POPC   C2B70376   0.804  32.952   6.608
 5504POPC   C3B70377   0.837  33.211   6.943
 5504POPC   C4B70378   0.805  33.429   7.294
 5505POPC   NC370379  27.251   7.868   5.373
 5505POPC   PO470380  27.688   7.443   5.062
 5505POPC   GL170381  27.808   7.405   5.560
 5505POPC   GL270382  27.471   7.487   5.679
 5505POPC   C1A70383  27.863   7.326   6.076
 5505POPC   D2A70384  27.861   7.093   6.522
 5505POPC   C3A70385  27.788   7.307   6.916
 5505POPC   C4A70386  27.541   7.245   7.223
 5505POPC   C1B70387  27.341   7.357   6.099
 5505POPC   C2B70388  27.503   7.447   6.503
 5505POPC   C3B70389  27.333   7.650   6.854
 5505POPC   C4B70390  27.155   7.560   7.207
 5506POPC   NC370391  35.572  26.309   5.320
 5506POPC   PO470392  35.087  25.780   5.158
 5506POPC   GL170393  35.159  26.017   5.555
 5506POPC   GL270394  35.217  25.694   5.718
 5506POPC   C1A70395  35.227  26.189   6.002
 5506POPC   D2A70396  35.425  26.138   6.461
 5506POPC   C3A70397  35.235  26.102   6.901
 5506POPC   C4A70398  34.986  26.352   7.217
 5506POPC   C1B70399  35.387  25.727   6.133
 5506POPC   C2B70400  35.280  25.642   6.564
 5506POPC   C3B70401  35.604  25.594   6.828
 5506POPC   C4B70402  35.678  25.897   7.141
 5507POPC   NC370403   4.576  21.510   5.228
 5507POPC   PO470404   4.075  21.153   5.424
 5507POPC   GL170405   4.236  21.466   5.713
 5507POPC   GL270406   4.592  21.376   5.770
 5507POPC   C1A70407   4.283  21.599   6.157
 5507POPC   D2A70408   4.152  21.558   6.621
 5507POPC   C3A70409   4.419  21.579   7.002
 5507POPC   C4A70410   4.272  21.660   7.429
 5507POPC   C1B70411   4.362  21.103   6.108
 5507POPC   C2B70412   4.204  21.063   6.533
 5507POPC   C3B70413   4.391  21.030   6.955
 5507POPC   C4B70414   4.246  21.138   7.358
 5508POPC   NC370415  14.271  42.727   5.396
 5508POPC   PO470416  14.774  43.285   5.490
 5508POPC   GL170417  14.449  43.145   5.708
 5508POPC   GL270418  14.534  42.840   5.819
 5508POPC   C1A70419  14.379  43.225   6.135
 5508POPC   D2A70420  14.577  43.331   6.500
 5508POPC   C3A70421  14.387  43.219   6.873
 5508POPC   C4A70422  14.327  43.167   7.283
 5508POPC   C1B70423  14.574  42.754   6.272
 5508POPC   C2B70424  14.368  42.726   6.696
 5508POPC   C3B70425  14.580  42.750   7.126
 5508POPC   C4B70426  14.541  42.845   7.600
 5509POPC   NC370427   0.047  24.737   5.362
 5509POPC   PO470428   0.668  24.502   5.374
 5509POPC   GL170429   0.451  24.661   5.734
 5509POPC   GL270430   0.149  24.532   5.817
 5509POPC   C1A70431   0.604  24.673   6.146
 5509POPC   D2A70432   0.520  24.454   6.504
 5509POPC   C3A70433   0.817  24.488   6.806
 5509POPC   C4A70434   0.776  24.530   7.232
 5509POPC   C1B70435   0.114  24.785   6.146
 5509POPC   C2B70436   0.118  24.777   6.547
 5509POPC   C3B70437   0.384  24.767   6.902
 5509POPC   C4B70438   0.278  24.622   7.304
 5510POPC   NC370439   0.534  15.943   5.334
 5510POPC   PO470440  44.860  15.939   5.324
 5510POPC   GL170441   0.169  15.818   5.713
 5510POPC   GL270442   0.532  15.711   5.780
 5510POPC   C1A70443   0.284  15.987   6.145
 5510POPC   D2A70444   0.455  16.205   6.512
 5510POPC   C3A70445   0.584  16.031   6.924
 5510POPC   C4A70446   0.223  16.008   7.210
 5510POPC   C1B70447   0.472  15.502   6.168
 5510POPC   C2B70448   0.581  15.610   6.571
 5510POPC   C3B70449   0.403  15.562   6.965
 5510POPC   C4B70450   0.549  15.660   7.350
 5511POPC   NC370451  23.316  27.250   5.344
 5511POPC   PO470452  23.839  26.761   5.416
 5511POPC   GL170453  23.849  26.806   5.850
 5511POPC   GL270454  23.494  26.730   5.863
 5511POPC   C1A70455  23.712  26.889   6.286
 5511POPC   D2A70456  23.540  26.771   6.688
 5511POPC   C3A70457  23.771  26.927   7.045
 5511POPC   C4A70458  23.742  27.319   7.225
 5511POPC   C1B70459  23.274  26.615   6.262
 5511POPC   C2B70460  23.110  26.456   6.657
 5511POPC   C3B70461  23.189  26.628   7.035
 5511POPC   C4B70462  23.564  26.495   7.175
 5512POPC   NC370463  44.139  31.239   5.408
 5512POPC   PO470464  44.847  31.424   5.366
 5512POPC   GL170465  44.605  31.379   5.760
 5512POPC   GL270466  44.515  31.024   5.711
 5512POPC   C1A70467  44.692  31.501   6.213
 5512POPC   D2A70468   0.041  31.732   6.474
 5512POPC   C3A70469  44.928  31.654   6.894
 5512POPC   C4A70470  44.908  31.419   7.253
 5512POPC   C1B70471  44.437  30.907   6.132
 5512POPC   C2B70472  44.551  31.081   6.518
 5512POPC   C3B70473  44.442  31.440   6.815
 5512POPC   C4B70474  44.392  31.407   7.272
 5513POPC   NC370475  15.206  14.445   5.353
 5513POPC   PO470476  14.754  13.901   5.239
 5513POPC   GL170477  14.891  14.180   5.741
 5513POPC   GL270478  15.306  14.309   5.826
 5513POPC   C1A70479  14.984  14.299   6.213
 5513POPC   D2A70480  15.289  14.252   6.601
 5513POPC   C3A70481  15.187  14.213   7.060
 5513POPC   C4A70482  15.452  14.134   7.475
 5513POPC   C1B70483  15.588  14.588   6.051
 5513POPC   C2B70484  15.669  14.620   6.499
 5513POPC   C3B70485  15.665  14.454   6.943
 5513POPC   C4B70486  15.369  14.648   7.259
 5514POPC   NC370487  44.903  41.709   5.458
 5514POPC   PO470488  44.313  41.332   5.154
 5514POPC   GL170489  44.466  41.475   5.644
 5514POPC   GL270490  44.429  41.851   5.686
 5514POPC   C1A70491  44.733  41.627   6.071
 5514POPC   D2A70492   0.055  41.756   6.410
 5514POPC   C3A70493  44.953  41.641   6.852
 5514POPC   C4A70494  44.984  41.684   7.305
 5514POPC   C1B70495  44.314  41.926   6.120
 5514POPC   C2B70496  44.495  41.751   6.534
 5514POPC   C3B70497  44.468  41.830   6.989
 5514POPC   C4B70498  44.493  41.757   7.429
 5515POPC   NC370499  36.379  30.306   5.724
 5515POPC   PO470500  35.891  30.776   5.456
 5515POPC   GL170501  36.136  30.775   5.832
 5515POPC   GL270502  36.452  31.008   5.896
 5515POPC   C1A70503  35.963  30.624   6.208
 5515POPC   D2A70504  35.744  30.462   6.560
 5515POPC   C3A70505  35.924  30.613   6.943
 5515POPC   C4A70506  35.781  30.470   7.344
 5515POPC   C1B70507  36.496  30.710   6.224
 5515POPC   C2B70508  36.350  30.615   6.629
 5515POPC   C3B70509  36.386  30.876   6.999
 5515POPC   C4B70510  36.216  30.723   7.341
 5516POPC   NC370511  23.578  17.062   5.461
 5516POPC   PO470512  24.020  17.536   5.370
 5516POPC   GL170513  23.722  17.488   5.710
 5516POPC   GL270514  23.675  17.842   5.805
 5516POPC   C1A70515  23.489  17.386   6.088
 5516POPC   D2A70516  23.575  17.538   6.504
 5516POPC   C3A70517  23.627  17.229   6.814
 5516POPC   C4A70518  23.655  17.230   7.217
 5516POPC   C1B70519  23.812  17.917   6.226
 5516POPC   C2B70520  24.031  17.787   6.607
 5516POPC   C3B70521  23.950  17.659   7.040
 5516POPC   C4B70522  24.073  17.838   7.476
 5517POPC   NC370523  11.795  30.499   5.398
 5517POPC   PO470524  12.368  30.782   5.417
 5517POPC   GL170525  12.241  30.982   5.818
 5517POPC   GL270526  11.935  30.822   5.849
 5517POPC   C1A70527  12.448  30.995   6.216
 5517POPC   D2A70528  12.469  30.871   6.665
 5517POPC   C3A70529  12.274  31.001   7.081
 5517POPC   C4A70530  12.207  30.664   7.426
 5517POPC   C1B70531  12.028  30.733   6.307
 5517POPC   C2B70532  11.924  30.834   6.751
 5517POPC   C3B70533  11.765  30.646   7.166
 5517POPC   C4B70534  11.760  30.248   7.436
 5518POPC   NC370535  27.605  12.502   5.529
 5518POPC   PO470536  27.289  13.042   5.351
 5518POPC   GL170537  27.304  12.860   5.779
 5518POPC   GL270538  27.654  12.813   5.922
 5518POPC   C1A70539  27.224  12.686   6.234
 5518POPC   D2A70540  27.460  12.655   6.658
 5518POPC   C3A70541  27.286  12.628   7.072
 5518POPC   C4A70542  27.420  12.810   7.449
 5518POPC   C1B70543  27.862  13.084   6.228
 5518POPC   C2B70544  27.724  13.111   6.642
 5518POPC   C3B70545  27.760  12.911   7.020
 5518POPC   C4B70546  27.837  13.112   7.380
 5519POPC   NC370547  14.387   4.780   5.519
 5519POPC   PO470548  14.523   5.384   5.490
 5519POPC   GL170549  14.479   5.229   5.902
 5519POPC   GL270550  14.148   5.061   5.880
 5519POPC   C1A70551  14.698   5.266   6.321
 5519POPC   D2A70552  14.782   5.356   6.748
 5519POPC   C3A70553  14.843   5.186   7.108
 5519POPC   C4A70554  14.533   4.904   7.126
 5519POPC   C1B70555  14.301   4.945   6.283
 5519POPC   C2B70556  14.297   5.077   6.718
 5519POPC   C3B70557  14.035   4.974   7.095
 5519POPC   C4B70558  13.894   4.667   7.450
 5520POPC   NC370559  26.479  25.250   5.336
 5520POPC   PO470560  26.999  25.584   5.309
 5520POPC   GL170561  26.854  25.381   5.712
 5520POPC   GL270562  26.637  25.591   5.895
 5520POPC   C1A70563  26.847  25.131   6.122
 5520POPC   D2A70564  26.776  25.214   6.577
 5520POPC   C3A70565  26.765  24.973   6.947
 5520POPC   C4A70566  26.970  25.228   7.241
 5520POPC   C1B70567  26.432  25.409   6.250
 5520POPC   C2B70568  26.349  25.491   6.668
 5520POPC   C3B70569  26.587  25.482   7.044
 5520POPC   C4B70570  26.685  25.542   7.526
 5521POPC   NC370571  16.303  13.059   5.178
 5521POPC   PO470572  16.938  12.770   5.288
 5521POPC   GL170573  17.115  12.717   5.704
 5521POPC   GL270574  17.067  12.406   5.865
 5521POPC   C1A70575  17.063  12.912   6.125
 5521POPC   D2A70576  16.823  12.917   6.505
 5521POPC   C3A70577  16.855  13.088   6.922
 5521POPC   C4A70578  16.481  12.910   7.101
 5521POPC   C1B70579  16.772  12.491   6.209
 5521POPC   C2B70580  16.676  12.442   6.657
 5521POPC   C3B70581  16.868  12.571   7.058
 5521POPC   C4B70582  17.046  12.514   7.498
 5522POPC   NC370583   9.154  10.148   5.393
 5522POPC   PO470584   8.682   9.563   5.385
 5522POPC   GL170585   8.819   9.562   5.799
 5522POPC   GL270586   9.173   9.593   5.810
 5522POPC   C1A70587   8.862   9.786   6.217
 5522POPC   D2A70588   9.131   9.661   6.604
 5522POPC   C3A70589   9.020   9.772   7.057
 5522POPC   C4A70590   9.194   9.843   7.481
 5522POPC   C1B70591   9.084   9.345   6.183
 5522POPC   C2B70592   8.937   9.177   6.563
 5522POPC   C3B70593   8.864   9.291   6.964
 5522POPC   C4B70594   8.695   9.326   7.412
 5523POPC   NC370595  22.478  29.245   5.524
 5523POPC   PO470596  21.827  29.122   5.453
 5523POPC   GL170597  22.001  29.349   5.822
 5523POPC   GL270598  22.161  29.034   5.883
 5523POPC   C1A70599  21.924  29.258   6.281
 5523POPC   D2A70600  22.052  28.980   6.608
 5523POPC   C3A70601  22.037  29.173   6.997
 5523POPC   C4A70602  21.837  29.065   7.351
 5523POPC   C1B70603  22.452  29.160   6.225
 5523POPC   C2B70604  22.631  29.144   6.648
 5523POPC   C3B70605  22.517  28.947   7.041
 5523POPC   C4B70606  22.650  28.943   7.483
 5524POPC   NC370607  35.887   4.585   5.302
 5524POPC   PO470608  36.376   4.231   5.362
 5524POPC   GL170609  36.036   4.257   5.736
 5524POPC   GL270610  35.750   3.998   5.781
 5524POPC   C1A70611  35.959   4.406   6.223
 5524POPC   D2A70612  35.981   4.593   6.681
 5524POPC   C3A70613  36.223   4.339   7.015
 5524POPC   C4A70614  36.588   4.438   7.337
 5524POPC   C1B70615  35.593   4.046   6.229
 5524POPC   C2B70616  35.720   4.154   6.652
 5524POPC   C3B70617  35.722   4.034   7.086
 5524POPC   C4B70618  35.814   3.804   7.466
 5525POPC   NC370619   2.630  35.070   5.399
 5525POPC   PO470620   3.040  35.607   5.416
 5525POPC   GL170621   2.893  35.302   5.776
 5525POPC   GL270622   2.507  35.206   5.880
 5525POPC   C1A70623   2.894  35.252   6.239
 5525POPC   D2A70624   3.017  35.509   6.606
 5525POPC   C3A70625   2.818  35.499   7.019
 5525POPC   C4A70626   2.873  35.499   7.500
 5525POPC   C1B70627   2.440  35.018   6.317
 5525POPC   C2B70628   2.698  35.033   6.725
 5525POPC   C3B70629   2.817  35.036   7.191
 5525POPC   C4B70630   2.673  35.051   7.623
 5526POPC   NC370631  32.927  18.774   5.370
 5526POPC   PO470632  33.295  19.357   5.299
 5526POPC   GL170633  33.117  19.159   5.671
 5526POPC   GL270634  33.347  18.886   5.697
 5526POPC   C1A70635  32.888  19.117   6.080
 5526POPC   D2A70636  32.939  19.244   6.523
 5526POPC   C3A70637  32.810  19.103   6.916
 5526POPC   C4A70638  32.935  19.340   7.270
 5526POPC   C1B70639  33.260  18.733   6.127
 5526POPC   C2B70640  33.090  18.741   6.555
 5526POPC   C3B70641  33.260  18.878   6.938
 5526POPC   C4B70642  33.060  18.856   7.305
 5527POPC   NC370643  24.749  36.542   4.994
 5527POPC   PO470644  24.365  37.026   5.248
 5527POPC   GL170645  24.550  37.058   5.673
 5527POPC   GL270646  24.234  37.156   5.803
 5527POPC   C1A70647  24.738  36.855   6.084
 5527POPC   D2A70648  24.551  36.696   6.519
 5527POPC   C3A70649  24.705  36.932   6.858
 5527POPC   C4A70650  24.813  36.902   7.231
 5527POPC   C1B70651  24.264  36.988   6.193
 5527POPC   C2B70652  24.367  37.194   6.569
 5527POPC   C3B70653  24.211  36.992   6.930
 5527POPC   C4B70654  24.306  37.122   7.323
 5528POPC   NC370655   4.297  39.764   5.584
 5528POPC   PO470656   4.118  40.355   5.469
 5528POPC   GL170657   4.412  40.245   5.779
 5528POPC   GL270658   4.116  40.108   5.944
 5528POPC   C1A70659   4.561  39.980   6.151
 5528POPC   D2A70660   4.225  39.919   6.439
 5528POPC   C3A70661   4.226  39.859   6.871
 5528POPC   C4A70662   4.482  39.767   7.185
 5528POPC   C1B70663   4.345  40.423   6.249
 5528POPC   C2B70664   4.647  40.264   6.576
 5528POPC   C3B70665   4.604  40.221   7.001
 5528POPC   C4B70666   4.268  40.240   7.253
 5529POPC   NC370667  24.914  41.520   5.447
 5529POPC   PO470668  24.255  41.551   5.458
 5529POPC   GL170669  24.258  41.662   5.898
 5529POPC   GL270670  24.288  41.340   5.963
 5529POPC   C1A70671  24.359  41.591   6.383
 5529POPC   D2A70672  24.764  41.629   6.608
 5529POPC   C3A70673  24.811  41.612   7.065
 5529POPC   C4A70674  24.408  41.598   7.256
 5529POPC   C1B70675  24.122  41.045   6.231
 5529POPC   C2B70676  23.939  41.181   6.585
 5529POPC   C3B70677  24.115  41.364   6.923
 5529POPC   C4B70678  24.182  41.132   7.303
 5530POPC   NC370679  20.350  29.442   5.435
 5530POPC   PO470680  20.866  29.033   5.680
 5530POPC   GL170681  20.776  29.418   5.887
 5530POPC   GL270682  20.426  29.359   5.941
 5530POPC   C1A70683  20.794  29.376   6.329
 5530POPC   D2A70684  20.874  28.988   6.537
 5530POPC   C3A70685  20.533  29.018   6.800
 5530POPC   C4A70686  20.608  29.248   7.165
 5530POPC   C1B70687  20.440  28.986   6.228
 5530POPC   C2B70688  20.133  28.809   6.512
 5530POPC   C3B70689  20.140  28.648   6.944
 5530POPC   C4B70690  20.405  28.814   7.283
 5531POPC   NC370691   4.574   3.577   5.395
 5531POPC   PO470692   4.037   3.956   5.425
 5531POPC   GL170693   4.077   3.600   5.765
 5531POPC   GL270694   4.250   3.311   5.691
 5531POPC   C1A70695   4.125   3.319   6.174
 5531POPC   D2A70696   4.025   3.458   6.566
 5531POPC   C3A70697   4.148   3.421   6.965
 5531POPC   C4A70698   4.164   3.718   7.341
 5531POPC   C1B70699   4.538   3.521   6.017
 5531POPC   C2B70700   4.618   3.441   6.441
 5531POPC   C3B70701   4.691   3.424   6.863
 5531POPC   C4B70702   4.521   3.343   7.275
 5532POPC   NC370703  26.610  25.974   5.424
 5532POPC   PO470704  27.099  26.531   5.402
 5532POPC   GL170705  27.024  26.197   5.731
 5532POPC   GL270706  26.672  26.117   5.894
 5532POPC   C1A70707  27.104  25.841   6.001
 5532POPC   D2A70708  26.877  25.697   6.374
 5532POPC   C3A70709  26.931  25.986   6.730
 5532POPC   C4A70710  26.846  25.900   7.179
 5532POPC   C1B70711  26.864  26.243   6.255
 5532POPC   C2B70712  26.667  26.425   6.600
 5532POPC   C3B70713  26.787  26.401   7.012
 5532POPC   C4B70714  26.472  26.320   7.284
 5533POPC   NC370715  17.994  37.233   5.309
 5533POPC   PO470716  18.322  36.623   5.222
 5533POPC   GL170717  18.161  36.826   5.629
 5533POPC   GL270718  18.402  37.054   5.810
 5533POPC   C1A70719  18.034  36.830   6.095
 5533POPC   D2A70720  18.156  36.898   6.550
 5533POPC   C3A70721  18.074  36.696   6.952
 5533POPC   C4A70722  18.431  36.497   7.141
 5533POPC   C1B70723  18.275  37.263   6.204
 5533POPC   C2B70724  17.941  37.354   6.529
 5533POPC   C3B70725  18.067  37.231   6.950
 5533POPC   C4B70726  17.907  37.249   7.358
 5534POPC   NC370727  14.789   8.355   5.141
 5534POPC   PO470728  14.205   8.257   5.354
 5534POPC   GL170729  14.186   8.128   5.799
 5534POPC   GL270730  13.846   8.124   5.820
 5534POPC   C1A70731  14.262   8.171   6.284
 5534POPC   D2A70732  14.284   8.389   6.731
 5534POPC   C3A70733  14.398   8.316   7.196
 5534POPC   C4A70734  14.120   8.424   7.567
 5534POPC   C1B70735  13.809   7.925   6.240
 5534POPC   C2B70736  13.976   7.977   6.677
 5534POPC   C3B70737  14.173   7.858   7.077
 5534POPC   C4B70738  14.046   7.924   7.503
 5535POPC   NC370739  13.412  29.790   5.089
 5535POPC   PO470740  13.366  29.201   5.513
 5535POPC   GL170741  13.741  29.150   5.779
 5535POPC   GL270742  13.941  28.859   5.750
 5535POPC   C1A70743  13.662  29.064   6.218
 5535POPC   D2A70744  13.677  29.293   6.606
 5535POPC   C3A70745  13.542  29.108   7.002
 5535POPC   C4A70746  13.356  29.451   7.223
 5535POPC   C1B70747  14.154  28.998   6.120
 5535POPC   C2B70748  14.086  28.996   6.564
 5535POPC   C3B70749  14.043  29.200   6.983
 5535POPC   C4B70750  13.997  28.862   7.235
 5536POPC   NC370751  13.507  15.481   5.296
 5536POPC   PO470752  13.346  14.746   5.414
 5536POPC   GL170753  13.399  14.991   5.793
 5536POPC   GL270754  13.343  15.357   5.754
 5536POPC   C1A70755  13.547  14.943   6.232
 5536POPC   D2A70756  13.399  15.097   6.638
 5536POPC   C3A70757  13.486  14.947   7.052
 5536POPC   C4A70758  13.715  14.983   7.426
 5536POPC   C1B70759  13.651  15.422   6.063
 5536POPC   C2B70760  13.841  15.325   6.468
 5536POPC   C3B70761  13.841  15.280   6.910
 5536POPC   C4B70762  13.870  15.458   7.311
 5537POPC   NC370763   1.783  17.935   5.209
 5537POPC   PO470764   2.248  18.411   5.344
 5537POPC   GL170765   2.029  18.303   5.793
 5537POPC   GL270766   1.767  18.567   5.862
 5537POPC   C1A70767   1.956  18.143   6.271
 5537POPC   D2A70768   2.040  17.861   6.655
 5537POPC   C3A70769   2.028  18.070   7.067
 5537POPC   C4A70770   2.345  18.302   7.318
 5537POPC   C1B70771   1.561  18.719   6.233
 5537POPC   C2B70772   1.376  18.587   6.652
 5537POPC   C3B70773   1.568  18.585   7.081
 5537POPC   C4B70774   1.633  18.750   7.501
 5538POPC   NC370775  27.045   5.552   5.779
 5538POPC   PO470776  26.893   4.973   5.390
 5538POPC   GL170777  26.765   4.938   5.815
 5538POPC   GL270778  26.661   4.597   5.764
 5538POPC   C1A70779  26.688   5.140   6.236
 5538POPC   D2A70780  26.860   5.221   6.649
 5538POPC   C3A70781  26.592   5.210   6.993
 5538POPC   C4A70782  26.726   5.333   7.385
 5538POPC   C1B70783  26.689   4.487   6.208
 5538POPC   C2B70784  26.715   4.729   6.582
 5538POPC   C3B70785  26.876   4.763   6.987
 5538POPC   C4B70786  26.686   4.803   7.377
 5539POPC   NC370787  22.019  41.116   5.344
 5539POPC   PO470788  22.338  40.496   5.402
 5539POPC   GL170789  22.126  40.529   5.787
 5539POPC   GL270790  21.930  40.819   5.745
 5539POPC   C1A70791  21.971  40.397   6.191
 5539POPC   D2A70792  22.222  40.475   6.549
 5539POPC   C3A70793  22.070  40.481   6.967
 5539POPC   C4A70794  22.390  40.580   7.326
 5539POPC   C1B70795  22.138  40.890   6.157
 5539POPC   C2B70796  22.174  41.017   6.583
 5539POPC   C3B70797  21.962  40.972   6.975
 5539POPC   C4B70798  21.917  40.717   7.385
 5540POPC   NC370799   7.934   8.051   5.470
 5540POPC   PO470800   8.228   8.674   5.433
 5540POPC   GL170801   8.003   8.497   5.780
 5540POPC   GL270802   8.271   8.268   5.818
 5540POPC   C1A70803   8.014   8.421   6.244
 5540POPC   D2A70804   7.991   8.116   6.592
 5540POPC   C3A70805   8.065   8.307   7.006
 5540POPC   C4A70806   8.002   8.006   7.319
 5540POPC   C1B70807   8.493   7.934   6.023
 5540POPC   C2B70808   8.608   7.823   6.432
 5540POPC   C3B70809   8.460   8.034   6.782
 5540POPC   C4B70810   8.499   8.094   7.198
 5541POPC   NC370811  11.856  39.433   5.242
 5541POPC   PO470812  12.391  39.154   5.387
 5541POPC   GL170813  12.122  39.385   5.691
 5541POPC   GL270814  12.362  39.550   5.878
 5541POPC   C1A70815  11.949  39.320   6.135
 5541POPC   D2A70816  12.052  38.994   6.502
 5541POPC   C3A70817  11.975  39.096   6.953
 5541POPC   C4A70818  12.159  39.414   7.219
 5541POPC   C1B70819  12.402  39.091   6.046
 5541POPC   C2B70820  12.607  38.958   6.418
 5541POPC   C3B70821  12.505  39.054   6.831
 5541POPC   C4B70822  12.423  38.957   7.232
 5542POPC   NC370823  13.286   5.366   5.009
 5542POPC   PO470824  12.738   5.227   5.409
 5542POPC   GL170825  12.814   5.238   5.830
 5542POPC   GL270826  12.784   5.562   5.914
 5542POPC   C1A70827  12.913   5.246   6.289
 5542POPC   D2A70828  13.072   5.211   6.694
 5542POPC   C3A70829  12.776   4.986   6.930
 5542POPC   C4A70830  12.640   5.072   7.335
 5542POPC   C1B70831  13.127   5.701   6.235
 5542POPC   C2B70832  13.335   5.672   6.625
 5542POPC   C3B70833  13.254   5.562   7.027
 5542POPC   C4B70834  13.127   5.207   7.215
 5543POPC   NC370835   6.715  26.937   5.501
 5543POPC   PO470836   7.171  26.430   5.351
 5543POPC   GL170837   7.220  26.543   5.786
 5543POPC   GL270838   7.156  26.894   5.767
 5543POPC   C1A70839   7.093  26.693   6.227
 5543POPC   D2A70840   6.975  26.701   6.659
 5543POPC   C3A70841   7.259  26.624   6.994
 5543POPC   C4A70842   7.198  26.714   7.419
 5543POPC   C1B70843   7.469  27.012   6.105
 5543POPC   C2B70844   7.312  27.071   6.557
 5543POPC   C3B70845   7.097  27.110   6.986
 5543POPC   C4B70846   7.275  27.220   7.411
 5544POPC   NC370847  33.138   5.870   5.372
 5544POPC   PO470848  32.536   6.196   5.588
 5544POPC   GL170849  32.865   6.147   5.833
 5544POPC   GL270850  32.949   5.821   5.848
 5544POPC   C1A70851  33.084   6.135   6.237
 5544POPC   D2A70852  33.066   5.967   6.657
 5544POPC   C3A70853  33.154   6.170   7.048
 5544POPC   C4A70854  33.050   6.006   7.475
 5544POPC   C1B70855  32.984   5.589   6.249
 5544POPC   C2B70856  33.210   5.481   6.644
 5544POPC   C3B70857  33.104   5.641   7.081
 5544POPC   C4B70858  33.101   5.493   7.515
 5545POPC   NC370859  43.656   3.896   5.413
 5545POPC   PO470860  43.691   3.240   5.360
 5545POPC   GL170861  43.825   3.483   5.733
 5545POPC   GL270862  44.059   3.766   5.741
 5545POPC   C1A70863  43.735   3.450   6.178
 5545POPC   D2A70864  43.719   3.710   6.548
 5545POPC   C3A70865  43.574   3.565   6.932
 5545POPC   C4A70866  43.820   3.465   7.246
 5545POPC   C1B70867  44.035   3.923   6.167
 5545POPC   C2B70868  44.044   4.117   6.584
 5545POPC   C3B70869  44.002   3.873   6.964
 5545POPC   C4B70870  44.272   3.756   7.332
 5546POPC   NC370871  13.482  40.803   5.287
 5546POPC   PO470872  14.142  40.768   5.195
 5546POPC   GL170873  13.806  40.693   5.670
 5546POPC   GL270874  13.464  40.887   5.783
 5546POPC   C1A70875  13.664  40.589   6.112
 5546POPC   D2A70876  13.445  40.429   6.456
 5546POPC   C3A70877  13.431  40.715   6.837
 5546POPC   C4A70878  13.515  40.744   7.282
 5546POPC   C1B70879  13.377  41.048   6.216
 5546POPC   C2B70880  13.178  41.136   6.634
 5546POPC   C3B70881  13.322  41.186   7.075
 5546POPC   C4B70882  13.339  41.136   7.548
 5547POPC   NC370883  20.574  22.073   5.094
 5547POPC   PO470884  20.632  21.523   5.462
 5547POPC   GL170885  20.677  21.220   5.837
 5547POPC   GL270886  21.023  21.102   5.896
 5547POPC   C1A70887  20.579  21.193   6.314
 5547POPC   D2A70888  20.556  21.392   6.767
 5547POPC   C3A70889  20.321  21.349   7.166
 5547POPC   C4A70890  20.335  21.312   7.637
 5547POPC   C1B70891  21.078  21.331   6.286
 5547POPC   C2B70892  21.054  21.429   6.714
 5547POPC   C3B70893  20.985  21.526   7.136
 5547POPC   C4B70894  20.759  21.191   7.354
 5548POPC   NC370895  21.191  17.146   5.504
 5548POPC   PO470896  21.488  17.721   5.432
 5548POPC   GL170897  21.406  17.569   5.815
 5548POPC   GL270898  21.091  17.773   5.818
 5548POPC   C1A70899  21.643  17.393   6.189
 5548POPC   D2A70900  21.529  17.516   6.601
 5548POPC   C3A70901  21.615  17.370   7.004
 5548POPC   C4A70902  21.726  17.686   7.335
 5548POPC   C1B70903  21.128  17.662   6.266
 5548POPC   C2B70904  21.057  17.663   6.703
 5548POPC   C3B70905  21.153  17.635   7.116
 5548POPC   C4B70906  20.975  17.630   7.523
 5549POPC   NC370907  23.258   3.065   5.476
 5549POPC   PO470908  22.708   2.682   5.454
 5549POPC   GL170909  22.916   2.809   5.794
 5549POPC   GL270910  22.822   3.135   5.737
 5549POPC   C1A70911  23.099   2.813   6.198
 5549POPC   D2A70912  23.030   2.794   6.649
 5549POPC   C3A70913  23.160   2.443   6.914
 5549POPC   C4A70914  23.117   2.778   7.193
 5549POPC   C1B70915  22.650   3.225   6.110
 5549POPC   C2B70916  22.745   3.235   6.547
 5549POPC   C3B70917  22.719   3.057   6.948
 5549POPC   C4B70918  22.586   3.036   7.336
 5550POPC   NC370919   6.822  37.478   5.570
 5550POPC   PO470920   6.173  37.710   5.335
 5550POPC   GL170921   6.373  37.588   5.788
 5550POPC   GL270922   6.676  37.763   5.972
 5550POPC   C1A70923   6.525  37.326   6.170
 5550POPC   D2A70924   6.603  37.595   6.513
 5550POPC   C3A70925   6.260  37.600   6.775
 5550POPC   C4A70926   6.241  37.580   7.206
 5550POPC   C1B70927   7.023  37.488   6.195
 5550POPC   C2B70928   6.989  37.271   6.584
 5550POPC   C3B70929   6.868  37.461   6.972
 5550POPC   C4B70930   7.125  37.469   7.306
 5551POPC   NC370931  33.940  23.155   5.255
 5551POPC   PO470932  33.634  23.696   5.469
 5551POPC   GL170933  33.855  23.652   5.853
 5551POPC   GL270934  33.490  23.659   5.969
 5551POPC   C1A70935  33.925  23.762   6.292
 5551POPC   D2A70936  33.776  24.050   6.631
 5551POPC   C3A70937  33.646  23.799   6.983
 5551POPC   C4A70938  33.922  23.607   7.360
 5551POPC   C1B70939  33.472  23.536   6.392
 5551POPC   C2B70940  33.812  23.380   6.637
 5551POPC   C3B70941  33.740  23.304   7.014
 5551POPC   C4B70942  33.368  23.483   7.262
 5552POPC   NC370943   7.812  21.599   5.504
 5552POPC   PO470944   8.528  21.404   5.508
 5552POPC   GL170945   8.206  21.366   5.830
 5552POPC   GL270946   7.930  21.148   5.826
 5552POPC   C1A70947   8.339  21.251   6.244
 5552POPC   D2A70948   8.547  21.467   6.571
 5552POPC   C3A70949   8.429  21.258   6.952
 5552POPC   C4A70950   8.178  21.537   7.207
 5552POPC   C1B70951   7.835  21.233   6.274
 5552POPC   C2B70952   8.015  21.387   6.676
 5552POPC   C3B70953   7.882  21.169   7.069
 5552POPC   C4B70954   7.855  20.965   7.461
 5553POPC   NC370955  25.168  37.174   5.647
 5553POPC   PO470956  25.279  36.540   5.513
 5553POPC   GL170957  25.446  36.767   5.862
 5553POPC   GL270958  25.636  37.072   5.872
 5553POPC   C1A70959  25.273  36.665   6.223
 5553POPC   D2A70960  25.045  36.810   6.513
 5553POPC   C3A70961  25.137  36.637   6.905
 5553POPC   C4A70962  25.409  36.759   7.222
 5553POPC   C1B70963  25.437  37.190   6.285
 5553POPC   C2B70964  25.233  37.232   6.713
 5553POPC   C3B70965  25.205  37.228   7.152
 5553POPC   C4B70966  25.537  37.230   7.465
 5554POPC   NC370967  14.126  13.106   5.529
 5554POPC   PO470968  14.475  12.697   5.110
 5554POPC   GL170969  14.474  12.740   5.605
 5554POPC   GL270970  14.514  12.458   5.816
 5554POPC   C1A70971  14.404  12.930   6.063
 5554POPC   D2A70972  14.461  13.012   6.508
 5554POPC   C3A70973  14.180  12.924   6.844
 5554POPC   C4A70974  14.385  12.805   7.198
 5554POPC   C1B70975  14.500  12.479   6.298
 5554POPC   C2B70976  14.528  12.526   6.765
 5554POPC   C3B70977  14.774  12.497   7.153
 5554POPC   C4B70978  14.740  12.629   7.609
 5555POPC   NC370979   4.131  33.300   5.623
 5555POPC   PO470980   4.668  33.040   5.319
 5555POPC   GL170981   4.524  32.998   5.754
 5555POPC   GL270982   4.547  33.307   5.948
 5555POPC   C1A70983   4.308  32.916   6.171
 5555POPC   D2A70984   4.438  32.733   6.547
 5555POPC   C3A70985   4.236  32.762   6.917
 5555POPC   C4A70986   4.393  32.663   7.347
 5555POPC   C1B70987   4.344  33.422   6.322
 5555POPC   C2B70988   4.377  33.226   6.729
 5555POPC   C3B70989   4.323  33.193   7.173
 5555POPC   C4B70990   4.587  33.126   7.477
 5556POPC   NC370991  43.569   8.346   5.385
 5556POPC   PO470992  44.000   7.858   5.441
 5556POPC   GL170993  43.795   8.096   5.850
 5556POPC   GL270994  43.650   8.420   5.870
 5556POPC   C1A70995  43.709   8.173   6.352
 5556POPC   D2A70996  43.968   7.931   6.648
 5556POPC   C3A70997  43.848   7.904   7.062
 5556POPC   C4A70998  43.771   8.066   7.479
 5556POPC   C1B70999  43.801   8.667   6.162
 5556POPC   C2B71000  43.897   8.699   6.574
 5556POPC   C3B71001  43.820   8.396   6.865
 5556POPC   C4B71002  43.885   8.511   7.257
 5557POPC   NC371003  24.737  32.081   5.426
 5557POPC   PO471004  24.289  32.507   5.229
 5557POPC   GL171005  24.518  32.493   5.686
 5557POPC   GL271006  24.585  32.181   5.908
 5557POPC   C1A71007  24.387  32.624   6.143
 5557POPC   D2A71008  24.137  32.628   6.554
 5557POPC   C3A71009  24.332  32.411   6.904
 5557POPC   C4A71010  24.689  32.275   7.188
 5557POPC   C1B71011  24.349  31.946   6.244
 5557POPC   C2B71012  24.424  31.895   6.701
 5557POPC   C3B71013  24.285  31.947   7.118
 5557POPC   C4B71014  24.488  31.974   7.565
 5558POPC   NC371015  12.188  31.876   5.403
 5558POPC   PO471016  11.837  32.448   5.390
 5558POPC   GL171017  11.753  32.326   5.811
 5558POPC   GL271018  12.101  32.372   5.864
 5558POPC   C1A71019  11.820  32.203   6.246
 5558POPC   D2A71020  12.016  32.137   6.678
 5558POPC   C3A71021  11.816  32.131   7.104
 5558POPC   C4A71022  11.737  32.119   7.576
 5558POPC   C1B71023  12.290  32.395   6.307
 5558POPC   C2B71024  12.519  32.200   6.685
 5558POPC   C3B71025  12.565  32.126   7.134
 5558POPC   C4B71026  12.513  32.391   7.516
 5559POPC   NC371027   2.472  14.938   5.430
 5559POPC   PO471028   3.072  15.172   5.523
 5559POPC   GL171029   2.963  14.983   5.944
 5559POPC   GL271030   2.616  14.864   5.918
 5559POPC   C1A71031   2.824  15.040   6.402
 5559POPC   D2A71032   2.561  15.374   6.616
 5559POPC   C3A71033   2.711  15.469   7.006
 5559POPC   C4A71034   3.041  15.187   7.126
 5559POPC   C1B71035   2.349  15.102   6.226
 5559POPC   C2B71036   2.275  14.931   6.620
 5559POPC   C3B71037   2.600  14.944   6.928
 5559POPC   C4B71038   2.587  15.080   7.361
 5560POPC   NC371039  34.764   3.449   5.365
 5560POPC   PO471040  34.140   3.626   5.472
 5560POPC   GL171041  34.457   3.534   5.812
 5560POPC   GL271042  34.714   3.263   5.826
 5560POPC   C1A71043  34.725   3.643   6.187
 5560POPC   D2A71044  34.928   3.746   6.615
 5560POPC   C3A71045  34.689   3.693   6.977
 5560POPC   C4A71046  34.581   3.852   7.359
 5560POPC   C1B71047  34.575   3.102   6.203
 5560POPC   C2B71048  34.319   3.027   6.580
 5560POPC   C3B71049  34.583   3.109   6.945
 5560POPC   C4B71050  34.594   3.329   7.336
 5561POPC   NC371051  31.010   0.942   5.579
 5561POPC   PO471052  31.426   0.278   5.438
 5561POPC   GL171053  31.722   0.291   5.764
 5561POPC   GL271054  31.671   0.655   5.793
 5561POPC   C1A71055  31.707   0.334   6.218
 5561POPC   D2A71056  31.340   0.419   6.494
 5561POPC   C3A71057  31.492   0.428   6.918
 5561POPC   C4A71058  31.442   0.268   7.327
 5561POPC   C1B71059  31.856   0.825   6.155
 5561POPC   C2B71060  31.760   0.721   6.589
 5561POPC   C3B71061  31.759   0.891   7.010
 5561POPC   C4B71062  31.652   0.904   7.454
 5562POPC   NC371063  17.188  40.907   5.482
 5562POPC   PO471064  16.502  40.990   5.696
 5562POPC   GL171065  16.831  40.750   5.827
 5562POPC   GL271066  17.023  41.039   5.953
 5562POPC   C1A71067  16.825  40.427   6.112
 5562POPC   D2A71068  16.723  40.398   6.524
 5562POPC   C3A71069  16.826  40.699   6.843
 5562POPC   C4A71070  16.822  40.565   7.268
 5562POPC   C1B71071  16.760  40.912   6.328
 5562POPC   C2B71072  16.434  41.084   6.613
 5562POPC   C3B71073  16.479  41.113   7.053
 5562POPC   C4B71074  16.857  41.074   7.272
 5563POPC   NC371075  30.703  20.700   5.091
 5563POPC   PO471076  31.065  20.325   5.497
 5563POPC   GL171077  30.893  20.371   5.884
 5563POPC   GL271078  30.674  20.659   5.830
 5563POPC   C1A71079  30.764  20.433   6.279
 5563POPC   D2A71080  30.898  20.655   6.581
 5563POPC   C3A71081  30.725  20.477   6.878
 5563POPC   C4A71082  30.763  20.511   7.281
 5563POPC   C1B71083  30.741  20.937   6.154
 5563POPC   C2B71084  30.530  20.989   6.545
 5563POPC   C3B71085  30.520  20.924   7.003
 5563POPC   C4B71086  30.512  20.974   7.499
 5564POPC   NC371087  42.766   5.425   5.447
 5564POPC   PO471088  43.344   4.959   5.574
 5564POPC   GL171089  43.142   4.997   5.938
 5564POPC   GL271090  42.952   5.287   5.902
 5564POPC   C1A71091  42.961   4.859   6.322
 5564POPC   D2A71092  42.809   4.972   6.719
 5564POPC   C3A71093  42.851   4.739   7.094
 5564POPC   C4A71094  42.982   4.902   7.518
 5564POPC   C1B71095  43.198   5.370   6.278
 5564POPC   C2B71096  43.188   5.320   6.695
 5564POPC   C3B71097  43.116   5.182   7.093
 5564POPC   C4B71098  42.937   5.445   7.369
 5565POPC   NC371099  26.137  12.182   5.291
 5565POPC   PO471100  26.089  11.602   5.519
 5565POPC   GL171101  25.979  11.907   5.803
 5565POPC   GL271102  26.120  12.251   5.797
 5565POPC   C1A71103  25.874  11.917   6.235
 5565POPC   D2A71104  25.678  11.810   6.616
 5565POPC   C3A71105  25.870  11.999   6.963
 5565POPC   C4A71106  25.705  12.127   7.348
 5565POPC   C1B71107  26.346  12.095   6.178
 5565POPC   C2B71108  26.264  11.970   6.598
 5565POPC   C3B71109  26.405  12.090   6.995
 5565POPC   C4B71110  26.205  12.283   7.336
 5566POPC   NC371111  13.502  36.267   5.318
 5566POPC   PO471112  14.081  35.934   5.247
 5566POPC   GL171113  13.856  36.141   5.691
 5566POPC   GL271114  13.516  36.340   5.802
 5566POPC   C1A71115  13.877  36.220   6.186
 5566POPC   D2A71116  14.054  36.185   6.644
 5566POPC   C3A71117  13.873  36.195   7.102
 5566POPC   C4A71118  13.684  36.039   7.528
 5566POPC   C1B71119  13.363  36.180   6.169
 5566POPC   C2B71120  13.460  36.349   6.554
 5566POPC   C3B71121  13.366  36.317   6.973
 5566POPC   C4B71122  13.530  36.498   7.334
 5567POPC   NC371123  34.711  14.797   5.474
 5567POPC   PO471124  34.441  15.362   5.515
 5567POPC   GL171125  34.476  15.108   5.832
 5567POPC   GL271126  34.238  14.893   5.742
 5567POPC   C1A71127  34.629  15.110   6.225
 5567POPC   D2A71128  34.792  15.019   6.625
 5567POPC   C3A71129  34.630  15.237   6.952
 5567POPC   C4A71130  34.735  15.410   7.340
 5567POPC   C1B71131  34.132  14.915   6.168
 5567POPC   C2B71132  34.361  14.733   6.481
 5567POPC   C3B71133  34.406  14.696   6.890
 5567POPC   C4B71134  34.410  14.897   7.269
 5568POPC   NC371135  30.374  37.273   5.582
 5568POPC   PO471136  30.620  36.731   5.252
 5568POPC   GL171137  30.809  36.765   5.687
 5568POPC   GL271138  30.767  37.099   5.875
 5568POPC   C1A71139  30.736  36.635   6.140
 5568POPC   D2A71140  30.527  36.586   6.527
 5568POPC   C3A71141  30.743  36.587   6.879
 5568POPC   C4A71142  30.806  36.863   7.235
 5568POPC   C1B71143  30.636  37.105   6.322
 5568POPC   C2B71144  30.691  37.092   6.786
 5568POPC   C3B71145  30.755  37.368   7.179
 5568POPC   C4B71146  30.537  37.318   7.624
 5569POPC   NC371147   6.398  25.480   5.466
 5569POPC   PO471148   6.836  25.010   5.586
 5569POPC   GL171149   6.883  25.048   5.978
 5569POPC   GL271150   6.638  25.329   5.959
 5569POPC   C1A71151   6.904  24.951   6.411
 5569POPC   D2A71152   6.976  25.252   6.725
 5569POPC   C3A71153   6.769  25.262   7.112
 5569POPC   C4A71154   6.746  25.432   7.479
 5569POPC   C1B71155   6.619  25.423   6.387
 5569POPC   C2B71156   6.500  25.110   6.679
 5569POPC   C3B71157   6.353  24.985   7.063
 5569POPC   C4B71158   6.421  25.006   7.532
 5570POPC   NC371159   4.938  25.086   5.387
 5570POPC   PO471160   5.259  25.670   5.371
 5570POPC   GL171161   5.248  25.358   5.730
 5570POPC   GL271162   4.879  25.348   5.822
 5570POPC   C1A71163   5.216  25.304   6.198
 5570POPC   D2A71164   4.849  25.365   6.463
 5570POPC   C3A71165   4.933  25.508   6.864
 5570POPC   C4A71166   4.955  25.352   7.272
 5570POPC   C1B71167   4.762  25.007   6.101
 5570POPC   C2B71168   4.636  24.888   6.560
 5570POPC   C3B71169   4.721  24.888   7.013
 5570POPC   C4B71170   4.996  24.815   7.370
 5571POPC   NC371171  14.117  12.348   5.311
 5571POPC   PO471172  14.724  11.963   5.116
 5571POPC   GL171173  14.520  12.009   5.555
 5571POPC   GL271174  14.789  11.881   5.769
 5571POPC   C1A71175  14.300  12.038   6.003
 5571POPC   D2A71176  14.156  11.846   6.422
 5571POPC   C3A71177  14.297  12.041   6.831
 5571POPC   C4A71178  14.270  12.285   7.204
 5571POPC   C1B71179  14.785  12.053   6.184
 5571POPC   C2B71180  14.903  12.227   6.557
 5571POPC   C3B71181  15.020  12.095   6.955
 5571POPC   C4B71182  14.692  11.987   7.207
 5572POPC   NC371183  40.981  31.739   5.189
 5572POPC   PO471184  40.620  31.203   5.515
 5572POPC   GL171185  40.751  31.599   5.747
 5572POPC   GL271186  41.096  31.619   5.724
 5572POPC   C1A71187  40.659  31.698   6.196
 5572POPC   D2A71188  40.462  31.839   6.607
 5572POPC   C3A71189  40.651  31.619   6.990
 5572POPC   C4A71190  40.715  31.171   7.173
 5572POPC   C1B71191  41.044  31.334   6.095
 5572POPC   C2B71192  40.965  31.293   6.556
 5572POPC   C3B71193  41.132  31.408   6.968
 5572POPC   C4B71194  41.213  31.734   7.251
 5573POPC   NC371195  20.458   1.403   5.439
 5573POPC   PO471196  20.515   2.064   5.429
 5573POPC   GL171197  20.507   1.791   5.799
 5573POPC   GL271198  20.814   1.724   5.839
 5573POPC   C1A71199  20.424   1.742   6.267
 5573POPC   D2A71200  20.685   1.809   6.655
 5573POPC   C3A71201  20.430   1.866   7.025
 5573POPC   C4A71202  20.072   2.112   7.194
 5573POPC   C1B71203  20.852   1.989   6.200
 5573POPC   C2B71204  20.860   2.325   6.559
 5573POPC   C3B71205  20.997   2.311   7.012
 5573POPC   C4B71206  20.758   2.106   7.379
 5574POPC   NC371207  18.602  36.955   5.345
 5574POPC   PO471208  19.196  37.190   5.429
 5574POPC   GL171209  18.920  37.084   5.737
 5574POPC   GL271210  18.851  36.703   5.729
 5574POPC   C1A71211  18.816  37.227   6.145
 5574POPC   D2A71212  18.650  37.118   6.549
 5574POPC   C3A71213  18.897  37.171   6.923
 5574POPC   C4A71214  18.811  36.852   7.246
 5574POPC   C1B71215  19.153  36.785   6.081
 5574POPC   C2B71216  19.151  36.918   6.512
 5574POPC   C3B71217  19.266  36.790   6.926
 5574POPC   C4B71218  19.521  36.444   7.053
 5575POPC   NC371219  24.682  42.808   5.481
 5575POPC   PO471220  24.359  43.399   5.305
 5575POPC   GL171221  24.493  43.245   5.752
 5575POPC   GL271222  24.253  43.550   5.869
 5575POPC   C1A71223  24.591  43.003   6.174
 5575POPC   D2A71224  24.546  42.799   6.607
 5575POPC   C3A71225  24.525  43.009   7.032
 5575POPC   C4A71226  24.647  42.928   7.510
 5575POPC   C1B71227  24.179  43.297   6.218
 5575POPC   C2B71228  24.019  43.346   6.615
 5575POPC   C3B71229  24.092  43.448   7.014
 5575POPC   C4B71230  24.257  43.241   7.401
 5576POPC   NC371231  41.979  36.383   5.324
 5576POPC   PO471232  42.592  36.267   5.528
 5576POPC   GL171233  42.229  36.390   5.796
 5576POPC   GL271234  42.006  36.097   5.784
 5576POPC   C1A71235  42.160  36.367   6.253
 5576POPC   D2A71236  42.463  36.082   6.496
 5576POPC   C3A71237  42.435  36.175   6.933
 5576POPC   C4A71238  42.129  36.464   7.148
 5576POPC   C1B71239  42.075  35.876   6.195
 5576POPC   C2B71240  41.983  35.995   6.688
 5576POPC   C3B71241  42.080  35.898   7.163
 5576POPC   C4B71242  42.032  35.753   7.605
 5577POPC   NC371243   0.842  13.099   5.531
 5577POPC   PO471244   1.191  12.562   5.473
 5577POPC   GL171245   1.168  12.804   5.841
 5577POPC   GL271246   0.836  12.885   6.000
 5577POPC   C1A71247   1.309  12.885   6.245
 5577POPC   D2A71248   1.040  12.912   6.584
 5577POPC   C3A71249   1.348  12.922   6.866
 5577POPC   C4A71250   1.314  12.962   7.285
 5577POPC   C1B71251   0.979  13.274   6.189
 5577POPC   C2B71252   0.979  13.453   6.606
 5577POPC   C3B71253   1.003  13.279   6.985
 5577POPC   C4B71254   0.825  13.207   7.338
 5578POPC   NC371255  27.213   8.866   5.313
 5578POPC   PO471256  26.631   9.036   5.464
 5578POPC   GL171257  26.749   8.987   5.896
 5578POPC   GL271258  26.871   9.318   6.000
 5578POPC   C1A71259  26.724   8.919   6.352
 5578POPC   D2A71260  26.968   8.866   6.712
 5578POPC   C3A71261  26.687   8.853   7.078
 5578POPC   C4A71262  26.453   8.496   7.200
 5578POPC   C1B71263  26.440   9.314   6.148
 5578POPC   C2B71264  26.335   9.236   6.591
 5578POPC   C3B71265  26.549   9.382   6.983
 5578POPC   C4B71266  26.883   9.304   7.240
 5579POPC   NC371267  33.744  44.506   5.311
 5579POPC   PO471268  34.304  44.402   5.701
 5579POPC   GL171269  33.886  44.607   5.811
 5579POPC   GL271270  33.910  44.965   5.869
 5579POPC   C1A71271  33.744  44.661   6.237
 5579POPC   D2A71272  34.010  44.449   6.536
 5579POPC   C3A71273  33.978  44.518   6.990
 5579POPC   C4A71274  33.660  44.556   7.358
 5579POPC   C1B71275  34.078   0.094   6.252
 5579POPC   C2B71276  33.843   0.034   6.642
 5579POPC   C3B71277  33.683  44.948   7.038
 5579POPC   C4B71278  34.090  44.955   7.231
 5580POPC   NC371279  37.141  44.066   5.341
 5580POPC   PO471280  36.503  43.986   5.352
 5580POPC   GL171281  36.767  44.162   5.723
 5580POPC   GL271282  37.165  44.264   5.788
 5580POPC   C1A71283  36.829  43.937   6.127
 5580POPC   D2A71284  36.627  43.801   6.534
 5580POPC   C3A71285  36.677  44.018   6.953
 5580POPC   C4A71286  36.647  43.832   7.374
 5580POPC   C1B71287  37.314  44.089   6.153
 5580POPC   C2B71288  37.203  43.861   6.530
 5580POPC   C3B71289  37.261  44.011   6.953
 5580POPC   C4B71290  37.067  44.120   7.325
 5581POPC   NC371291  14.411  41.142   5.134
 5581POPC   PO471292  14.440  40.626   5.640
 5581POPC   GL171293  14.483  40.764   6.007
 5581POPC   GL271294  14.148  40.802   6.053
 5581POPC   C1A71295  14.576  40.581   6.401
 5581POPC   D2A71296  14.358  40.383   6.737
 5581POPC   C3A71297  14.412  40.646   7.055
 5581POPC   C4A71298  14.748  40.818   7.238
 5581POPC   C1B71299  14.105  40.441   6.289
 5581POPC   C2B71300  13.899  40.627   6.619
 5581POPC   C3B71301  13.935  40.838   6.982
 5581POPC   C4B71302  14.016  40.646   7.373
 5582POPC   NC371303   5.943  17.855   5.178
 5582POPC   PO471304   5.978  18.571   5.344
 5582POPC   GL171305   6.041  18.562   5.788
 5582POPC   GL271306   6.151  18.892   5.814
 5582POPC   C1A71307   5.895  18.388   6.218
 5582POPC   D2A71308   5.505  18.468   6.495
 5582POPC   C3A71309   5.434  18.245   6.926
 5582POPC   C4A71310   5.750  18.185   7.264
 5582POPC   C1B71311   6.239  18.771   6.225
 5582POPC   C2B71312   6.161  18.577   6.625
 5582POPC   C3B71313   6.180  18.389   7.028
 5582POPC   C4B71314   6.222  18.363   7.489
 5583POPC   NC371315  12.610  36.187   5.368
 5583POPC   PO471316  13.197  35.891   5.403
 5583POPC   GL171317  13.007  36.064   5.811
 5583POPC   GL271318  12.784  36.340   5.846
 5583POPC   C1A71319  12.887  35.978   6.281
 5583POPC   D2A71320  12.600  35.976   6.674
 5583POPC   C3A71321  12.777  35.812   7.091
 5583POPC   C4A71322  12.813  35.978   7.529
 5583POPC   C1B71323  12.965  36.499   6.233
 5583POPC   C2B71324  12.938  36.385   6.633
 5583POPC   C3B71325  12.810  36.336   7.020
 5583POPC   C4B71326  13.044  36.369   7.363
 5584POPC   NC371327   8.844  42.625   5.437
 5584POPC   PO471328   8.596  41.963   5.500
 5584POPC   GL171329   8.893  42.110   5.853
 5584POPC   GL271330   9.044  42.450   5.869
 5584POPC   C1A71331   8.879  42.255   6.307
 5584POPC   D2A71332   8.529  42.432   6.578
 5584POPC   C3A71333   8.748  42.410   6.921
 5584POPC   C4A71334   8.814  42.114   7.200
 5584POPC   C1B71335   9.261  42.606   6.230
 5584POPC   C2B71336   9.319  42.446   6.669
 5584POPC   C3B71337   9.231  42.390   7.133
 5584POPC   C4B71338   9.289  42.600   7.583
 5585POPC   NC371339  14.325  14.065   5.374
 5585POPC   PO471340  14.335  14.722   5.562
 5585POPC   GL171341  14.408  14.352   5.784
 5585POPC   GL271342  14.113  14.104   5.841
 5585POPC   C1A71343  14.477  14.187   6.189
 5585POPC   D2A71344  14.207  14.302   6.526
 5585POPC   C3A71345  14.438  14.178   6.869
 5585POPC   C4A71346  14.621  14.257   7.256
 5585POPC   C1B71347  13.915  13.958   6.241
 5585POPC   C2B71348  13.841  14.003   6.714
 5585POPC   C3B71349  14.006  14.142   7.122
 5585POPC   C4B71350  14.183  14.232   7.542
 5586POPC   NC371351   1.863  25.906   5.087
 5586POPC   PO471352   2.235  26.397   5.410
 5586POPC   GL171353   2.182  26.092   5.734
 5586POPC   GL271354   1.861  25.898   5.676
 5586POPC   C1A71355   2.116  26.063   6.176
 5586POPC   D2A71356   2.175  25.900   6.596
 5586POPC   C3A71357   2.124  26.192   6.940
 5586POPC   C4A71358   2.229  26.146   7.379
 5586POPC   C1B71359   1.618  25.919   6.071
 5586POPC   C2B71360   1.688  26.050   6.490
 5586POPC   C3B71361   1.575  26.096   6.897
 5586POPC   C4B71362   1.738  26.085   7.270
 5587POPC   NC371363  11.814  26.788   5.394
 5587POPC   PO471364  12.513  27.015   5.267
 5587POPC   GL171365  12.286  26.770   5.702
 5587POPC   GL271366  11.945  26.839   5.861
 5587POPC   C1A71367  12.162  26.529   6.163
 5587POPC   D2A71368  11.957  26.417   6.572
 5587POPC   C3A71369  12.035  26.666   6.966
 5587POPC   C4A71370  12.077  26.843   7.378
 5587POPC   C1B71371  11.971  27.048   6.238
 5587POPC   C2B71372  11.827  27.016   6.656
 5587POPC   C3B71373  11.988  27.189   7.024
 5587POPC   C4B71374  11.823  27.380   7.376
 5588POPC   NC371375  36.461  41.162   5.412
 5588POPC   PO471376  36.226  41.803   5.237
 5588POPC   GL171377  36.143  41.608   5.660
 5588POPC   GL271378  36.390  41.422   5.831
 5588POPC   C1A71379  36.004  41.563   6.121
 5588POPC   D2A71380  36.108  41.831   6.434
 5588POPC   C3A71381  36.074  41.675   6.840
 5588POPC   C4A71382  36.280  41.748   7.232
 5588POPC   C1B71383  36.481  41.270   6.228
 5588POPC   C2B71384  36.266  41.250   6.610
 5588POPC   C3B71385  36.425  41.282   7.025
 5588POPC   C4B71386  36.343  41.282   7.467
 5589POPC   NC371387  29.699  35.086   5.460
 5589POPC   PO471388  30.174  34.592   5.257
 5589POPC   GL171389  30.036  34.527   5.701
 5589POPC   GL271390  29.699  34.374   5.686
 5589POPC   C1A71391  30.112  34.727   6.115
 5589POPC   D2A71392  30.384  34.688   6.483
 5589POPC   C3A71393  30.209  34.573   6.890
 5589POPC   C4A71394  30.113  34.514   7.329
 5589POPC   C1B71395  29.775  34.318   6.152
 5589POPC   C2B71396  29.800  34.595   6.539
 5589POPC   C3B71397  29.679  34.548   6.983
 5589POPC   C4B71398  29.714  34.127   7.145
 5590POPC   NC371399  44.248  23.188   5.492
 5590POPC   PO471400  43.743  22.730   5.500
 5590POPC   GL171401  43.920  22.631   5.863
 5590POPC   GL271402  44.173  22.847   5.882
 5590POPC   C1A71403  43.833  22.751   6.271
 5590POPC   D2A71404  43.661  23.059   6.525
 5590POPC   C3A71405  43.779  22.879   6.899
 5590POPC   C4A71406  43.713  22.987   7.305
 5590POPC   C1B71407  44.071  23.206   6.179
 5590POPC   C2B71408  44.131  23.225   6.634
 5590POPC   C3B71409  44.060  23.267   7.076
 5590POPC   C4B71410  44.129  23.170   7.534
 5591POPC   NC371411  23.660   9.352   5.206
 5591POPC   PO471412  23.506   8.735   5.244
 5591POPC   GL171413  23.599   8.919   5.689
 5591POPC   GL271414  23.618   9.302   5.717
 5591POPC   C1A71415  23.906   8.847   6.079
 5591POPC   D2A71416  23.970   8.566   6.469
 5591POPC   C3A71417  23.793   8.767   6.824
 5591POPC   C4A71418  23.990   9.095   7.072
 5591POPC   C1B71419  23.591   9.316   6.152
 5591POPC   C2B71420  23.795   9.160   6.508
 5591POPC   C3B71421  23.553   9.224   6.876
 5591POPC   C4B71422  23.647   9.411   7.291
 5592POPC   NC371423  18.111  44.344   5.256
 5592POPC   PO471424  18.426  44.914   5.440
 5592POPC   GL171425  18.195  44.767   5.752
 5592POPC   GL271426  18.214   0.060   5.938
 5592POPC   C1A71427  18.200  44.461   6.089
 5592POPC   D2A71428  18.416  44.472   6.488
 5592POPC   C3A71429  18.104  44.535   6.816
 5592POPC   C4A71430  18.007  44.283   7.178
 5592POPC   C1B71431  18.203  44.916   6.344
 5592POPC   C2B71432  18.407  44.944   6.714
 5592POPC   C3B71433  18.284  44.988   7.101
 5592POPC   C4B71434  18.019   0.255   7.208
 5593POPC   NC371435  30.459   7.948   5.173
 5593POPC   PO471436  29.884   7.952   5.450
 5593POPC   GL171437  29.690   8.179   5.783
 5593POPC   GL271438  29.981   8.141   5.945
 5593POPC   C1A71439  29.570   8.187   6.231
 5593POPC   D2A71440  29.524   7.897   6.579
 5593POPC   C3A71441  29.772   7.974   6.895
 5593POPC   C4A71442  29.911   8.323   7.123
 5593POPC   C1B71443  30.190   8.313   6.258
 5593POPC   C2B71444  30.167   8.193   6.640
 5593POPC   C3B71445  30.379   8.267   6.966
 5593POPC   C4B71446  30.369   8.687   7.141
 5594POPC   NC371447  29.710  31.304   5.616
 5594POPC   PO471448  29.013  31.353   5.523
 5594POPC   GL171449  29.125  31.504   5.922
 5594POPC   GL271450  29.472  31.503   6.015
 5594POPC   C1A71451  29.057  31.516   6.365
 5594POPC   D2A71452  28.868  31.336   6.718
 5594POPC   C3A71453  29.074  31.392   7.117
 5594POPC   C4A71454  29.248  31.664   7.490
 5594POPC   C1B71455  29.417  31.159   6.329
 5594POPC   C2B71456  29.419  31.375   6.717
 5594POPC   C3B71457  29.537  31.629   7.055
 5594POPC   C4B71458  29.533  31.281   7.307
 5595POPC   NC371459  32.899  35.038   5.493
 5595POPC   PO471460  33.166  35.656   5.286
 5595POPC   GL171461  33.092  35.458   5.757
 5595POPC   GL271462  33.003  35.117   5.965
 5595POPC   C1A71463  32.975  35.537   6.227
 5595POPC   D2A71464  33.080  35.339   6.642
 5595POPC   C3A71465  33.023  35.547   7.049
 5595POPC   C4A71466  32.785  35.476   7.452
 5595POPC   C1B71467  33.351  35.065   6.253
 5595POPC   C2B71468  33.426  34.927   6.669
 5595POPC   C3B71469  33.312  35.070   7.097
 5595POPC   C4B71470  33.142  35.082   7.548
 5596POPC   NC371471  35.295   4.155   5.225
 5596POPC   PO471472  35.501   4.786   5.453
 5596POPC   GL171473  35.356   4.442   5.656
 5596POPC   GL271474  35.581   4.476   5.896
 5596POPC   C1A71475  35.165   4.189   5.990
 5596POPC   D2A71476  35.057   4.232   6.435
 5596POPC   C3A71477  35.237   4.105   6.802
 5596POPC   C4A71478  35.239   4.280   7.198
 5596POPC   C1B71479  35.435   4.563   6.321
 5596POPC   C2B71480  35.427   4.572   6.778
 5596POPC   C3B71481  35.713   4.535   7.119
 5596POPC   C4B71482  35.716   4.312   7.513
 5597POPC   NC371483  44.705   1.628   5.200
 5597POPC   PO471484  44.528   1.078   5.688
 5597POPC   GL171485  44.785   1.028   6.016
 5597POPC   GL271486  44.762   1.374   6.139
 5597POPC   C1A71487  44.960   1.014   6.415
 5597POPC   D2A71488  44.680   1.173   6.712
 5597POPC   C3A71489  44.719   0.919   7.072
 5597POPC   C4A71490  44.548   0.921   7.486
 5597POPC   C1B71491  44.425   1.677   6.227
 5597POPC   C2B71492  44.233   1.714   6.620
 5597POPC   C3B71493  44.469   1.590   6.950
 5597POPC   C4B71494  44.488   1.393   7.336
 5598POPC   NC371495   2.198  41.133   5.404
 5598POPC   PO471496   1.707  40.622   5.424
 5598POPC   GL171497   1.832  40.956   5.717
 5598POPC   GL271498   2.163  40.778   5.793
 5598POPC   C1A71499   1.976  41.120   6.140
 5598POPC   D2A71500   2.248  40.952   6.479
 5598POPC   C3A71501   2.072  40.873   6.894
 5598POPC   C4A71502   1.938  41.185   7.195
 5598POPC   C1B71503   2.258  40.530   6.170
 5598POPC   C2B71504   2.556  40.449   6.517
 5598POPC   C3B71505   2.409  40.447   6.940
 5598POPC   C4B71506   1.973  40.317   7.026
 5599POPC   NC371507  36.501   7.422   5.372
 5599POPC   PO471508  37.097   7.477   5.130
 5599POPC   GL171509  37.035   7.427   5.628
 5599POPC   GL271510  36.682   7.333   5.827
 5599POPC   C1A71511  37.070   7.480   6.103
 5599POPC   D2A71512  37.004   7.266   6.511
 5599POPC   C3A71513  36.986   7.455   6.944
 5599POPC   C4A71514  36.835   7.762   7.226
 5599POPC   C1B71515  36.515   7.209   6.261
 5599POPC   C2B71516  36.525   7.291   6.728
 5599POPC   C3B71517  36.545   7.130   7.181
 5599POPC   C4B71518  36.543   6.947   7.628
 5600POPC   NC371519   7.445  26.026   5.377
 5600POPC   PO471520   7.627  25.410   5.435
 5600POPC   GL171521   7.572  25.727   5.813
 5600POPC   GL271522   7.277  25.977   5.854
 5600POPC   C1A71523   7.521  25.789   6.289
 5600POPC   D2A71524   7.568  25.834   6.772
 5600POPC   C3A71525   7.430  26.162   7.128
 5600POPC   C4A71526   7.431  26.285   7.600
 5600POPC   C1B71527   7.255  26.217   6.207
 5600POPC   C2B71528   7.228  26.242   6.629
 5600POPC   C3B71529   6.941  26.187   6.939
 5600POPC   C4B71530   6.970  26.248   7.375
 5601POPC   NC371531  31.540   5.520   5.391
 5601POPC   PO471532  31.038   5.967   5.347
 5601POPC   GL171533  31.373   5.898   5.748
 5601POPC   GL271534  31.691   5.644   5.848
 5601POPC   C1A71535  31.439   5.825   6.235
 5601POPC   D2A71536  31.204   5.665   6.587
 5601POPC   C3A71537  31.227   5.871   6.950
 5601POPC   C4A71538  31.475   6.108   7.220
 5601POPC   C1B71539  31.791   5.386   6.209
 5601POPC   C2B71540  31.680   5.437   6.649
 5601POPC   C3B71541  31.724   5.666   7.036
 5601POPC   C4B71542  31.841   5.583   7.436
 5602POPC   NC371543  27.986   5.341   5.676
 5602POPC   PO471544  28.451   5.734   5.302
 5602POPC   GL171545  28.317   5.762   5.738
 5602POPC   GL271546  28.294   6.112   5.758
 5602POPC   C1A71547  28.328   5.745   6.215
 5602POPC   D2A71548  28.551   5.952   6.577
 5602POPC   C3A71549  28.339   5.919   6.965
 5602POPC   C4A71550  28.472   5.799   7.363
 5602POPC   C1B71551  28.445   6.253   6.161
 5602POPC   C2B71552  28.218   6.340   6.553
 5602POPC   C3B71553  28.262   6.420   6.993
 5602POPC   C4B71554  28.348   6.299   7.417
 5603POPC   NC371555  29.278  14.116   5.060
 5603POPC   PO471556  29.062  13.578   5.350
 5603POPC   GL171557  29.166  13.592   5.828
 5603POPC   GL271558  29.455  13.799   5.965
 5603POPC   C1A71559  29.255  13.368   6.227
 5603POPC   D2A71560  29.071  13.455   6.598
 5603POPC   C3A71561  29.172  13.331   7.008
 5603POPC   C4A71562  29.061  13.470   7.386
 5603POPC   C1B71563  29.536  13.741   6.421
 5603POPC   C2B71564  29.318  13.844   6.821
 5603POPC   C3B71565  29.167  13.993   7.221
 5603POPC   C4B71566  29.419  14.085   7.578
 5604POPC   NC371567  23.007  44.994   5.596
 5604POPC   PO471568  22.764  44.417   5.473
 5604POPC   GL171569  23.008  44.518   5.824
 5604POPC   GL271570  22.831  44.362   6.028
 5604POPC   C1A71571  23.187  44.661   6.218
 5604POPC   D2A71572  23.044  44.880   6.591
 5604POPC   C3A71573  23.104  44.783   7.035
 5604POPC   C4A71574  23.108  44.817   7.514
 5604POPC   C1B71575  22.580  44.398   6.364
 5604POPC   C2B71576  22.705  44.514   6.766
 5604POPC   C3B71577  22.693  44.493   7.203
 5604POPC   C4B71578  22.915  44.334   7.546
 5605POPC   NC371579  33.295   9.541   5.344
 5605POPC   PO471580  32.989  10.096   5.590
 5605POPC   GL171581  32.958   9.726   5.869
 5605POPC   GL271582  33.209   9.451   5.833
 5605POPC   C1A71583  32.938   9.778   6.304
 5605POPC   D2A71584  32.999  10.023   6.675
 5605POPC   C3A71585  32.898   9.826   7.071
 5605POPC   C4A71586  33.008   9.770   7.491
 5605POPC   C1B71587  33.090   9.296   6.229
 5605POPC   C2B71588  33.142   9.467   6.645
 5605POPC   C3B71589  33.262   9.479   7.055
 5605POPC   C4B71590  33.078   9.287   7.396
 5606POPC   NC371591  33.550  22.844   5.478
 5606POPC   PO471592  34.234  22.911   5.504
 5606POPC   GL171593  33.943  22.905   5.807
 5606POPC   GL271594  33.714  23.167   5.843
 5606POPC   C1A71595  34.008  22.718   6.173
 5606POPC   D2A71596  34.072  22.873   6.558
 5606POPC   C3A71597  33.822  22.822   6.875
 5606POPC   C4A71598  34.087  22.705   7.141
 5606POPC   C1B71599  33.632  23.054   6.294
 5606POPC   C2B71600  33.388  23.035   6.711
 5606POPC   C3B71601  33.413  22.985   7.202
 5606POPC   C4B71602  33.538  22.900   7.668
 5607POPC   NC371603  20.341  26.364   5.440
 5607POPC   PO471604  20.749  25.863   5.388
 5607POPC   GL171605  20.665  26.092   5.778
 5607POPC   GL271606  20.321  26.039   5.832
 5607POPC   C1A71607  20.618  25.936   6.239
 5607POPC   D2A71608  20.365  25.923   6.620
 5607POPC   C3A71609  20.695  25.906   6.967
 5607POPC   C4A71610  20.730  25.765   7.413
 5607POPC   C1B71611  20.367  26.362   6.151
 5607POPC   C2B71612  20.586  26.366   6.566
 5607POPC   C3B71613  20.410  26.317   6.971
 5607POPC   C4B71614  20.596  26.260   7.361
 5608POPC   NC371615  41.637  20.166   5.402
 5608POPC   PO471616  41.201  19.748   5.409
 5608POPC   GL171617  41.318  19.947   5.775
 5608POPC   GL271618  41.664  19.810   5.798
 5608POPC   C1A71619  41.296  19.789   6.189
 5608POPC   D2A71620  41.604  19.496   6.367
 5608POPC   C3A71621  41.615  19.481   6.802
 5608POPC   C4A71622  41.322  19.622   7.118
 5608POPC   C1B71623  41.799  19.940   6.204
 5608POPC   C2B71624  41.567  19.962   6.613
 5608POPC   C3B71625  41.738  19.932   7.032
 5608POPC   C4B71626  41.821  20.115   7.437
 5609POPC   NC371627  23.665  11.548   5.477
 5609POPC   PO471628  24.198  11.236   5.252
 5609POPC   GL171629  24.004  11.171   5.764
 5609POPC   GL271630  23.658  11.247   5.889
 5609POPC   C1A71631  23.976  11.241   6.259
 5609POPC   D2A71632  24.157  11.377   6.623
 5609POPC   C3A71633  23.932  11.251   6.993
 5609POPC   C4A71634  23.815  11.292   7.433
 5609POPC   C1B71635  23.486  11.443   6.269
 5609POPC   C2B71636  23.546  11.271   6.660
 5609POPC   C3B71637  23.433  11.160   7.091
 5609POPC   C4B71638  23.339  11.154   7.585
 5610POPC   NC371639  29.497   5.139   5.518
 5610POPC   PO471640  28.893   5.076   5.251
 5610POPC   GL171641  28.998   5.050   5.731
 5610POPC   GL271642  29.307   4.961   5.942
 5610POPC   C1A71643  28.896   5.083   6.185
 5610POPC   D2A71644  29.177   5.258   6.509
 5610POPC   C3A71645  28.957   5.219   6.887
 5610POPC   C4A71646  28.894   4.887   7.172
 5610POPC   C1B71647  29.557   5.284   6.169
 5610POPC   C2B71648  29.712   5.302   6.576
 5610POPC   C3B71649  29.525   5.227   6.961
 5610POPC   C4B71650  29.247   5.287   7.297
 5611POPC   NC371651  18.581   4.445   5.578
 5611POPC   PO471652  18.042   4.099   5.377
 5611POPC   GL171653  18.219   4.114   5.808
 5611POPC   GL271654  18.163   4.466   5.919
 5611POPC   C1A71655  18.257   4.101   6.281
 5611POPC   D2A71656  18.405   4.069   6.743
 5611POPC   C3A71657  18.146   4.224   7.146
 5611POPC   C4A71658  18.036   4.455   7.532
 5611POPC   C1B71659  18.492   4.560   6.248
 5611POPC   C2B71660  18.588   4.554   6.685
 5611POPC   C3B71661  18.406   4.649   7.086
 5611POPC   C4B71662  18.408   4.848   7.511
 5612POPC   NC371663  41.478  43.164   5.392
 5612POPC   PO471664  41.851  42.698   5.579
 5612POPC   GL171665  41.538  42.889   5.848
 5612POPC   GL271666  41.331  42.643   5.974
 5612POPC   C1A71667  41.579  42.962   6.313
 5612POPC   D2A71668  41.791  42.826   6.688
 5612POPC   C3A71669  41.820  43.145   7.030
 5612POPC   C4A71670  41.494  43.370   7.244
 5612POPC   C1B71671  41.087  42.918   6.205
 5612POPC   C2B71672  41.127  43.087   6.566
 5612POPC   C3B71673  41.332  43.007   6.912
 5612POPC   C4B71674  41.171  42.779   7.220
 5613POPC   NC371675  12.431   4.909   5.267
 5613POPC   PO471676  12.049   5.409   5.432
 5613POPC   GL171677  12.017   5.219   5.835
 5613POPC   GL271678  12.306   5.029   5.765
 5613POPC   C1A71679  11.898   5.137   6.273
 5613POPC   D2A71680  11.949   4.893   6.656
 5613POPC   C3A71681  11.867   4.991   7.102
 5613POPC   C4A71682  12.189   4.872   7.435
 5613POPC   C1B71683  12.416   5.277   6.142
 5613POPC   C2B71684  12.413   5.362   6.577
 5613POPC   C3B71685  12.311   5.216   6.964
 5613POPC   C4B71686  12.141   5.403   7.300
 5614POPC   NC371687   5.574  12.484   5.267
 5614POPC   PO471688   4.983  12.476   5.513
 5614POPC   GL171689   5.174  12.684   5.828
 5614POPC   GL271690   4.980  12.974   5.775
 5614POPC   C1A71691   5.375  12.702   6.246
 5614POPC   D2A71692   5.339  12.506   6.680
 5614POPC   C3A71693   5.273  12.800   7.034
 5614POPC   C4A71694   4.966  12.743   7.386
 5614POPC   C1B71695   4.864  12.874   6.189
 5614POPC   C2B71696   5.055  12.941   6.588
 5614POPC   C3B71697   4.832  13.061   6.952
 5614POPC   C4B71698   4.620  13.103   7.352
 5615POPC   NC371699   3.618  10.994   5.086
 5615POPC   PO471700   3.346  10.418   5.411
 5615POPC   GL171701   3.488  10.594   5.807
 5615POPC   GL271702   3.824  10.514   5.748
 5615POPC   C1A71703   3.412  10.799   6.231
 5615POPC   D2A71704   3.401  11.012   6.645
 5615POPC   C3A71705   3.523  10.697   7.004
 5615POPC   C4A71706   3.524  10.203   7.073
 5615POPC   C1B71707   3.943  10.672   6.158
 5615POPC   C2B71708   3.779  10.507   6.550
 5615POPC   C3B71709   3.985  10.349   6.925
 5615POPC   C4B71710   3.918  10.374   7.366
 5616POPC   NC371711   9.808   5.185   5.214
 5616POPC   PO471712   9.198   4.939   5.455
 5616POPC   GL171713   9.450   4.949   5.805
 5616POPC   GL271714   9.670   5.223   5.734
 5616POPC   C1A71715   9.433   5.058   6.249
 5616POPC   D2A71716   9.306   5.248   6.627
 5616POPC   C3A71717   9.535   5.029   6.950
 5616POPC   C4A71718   9.450   5.109   7.382
 5616POPC   C1B71719   9.918   5.061   6.113
 5616POPC   C2B71720   9.910   4.866   6.525
 5616POPC   C3B71721  10.058   5.043   6.917
 5616POPC   C4B71722   9.931   5.174   7.284
 5617POPC   NC371723  22.797  17.566   5.153
 5617POPC   PO471724  23.115  17.125   5.478
 5617POPC   GL171725  22.953  17.392   5.804
 5617POPC   GL271726  23.209  17.635   5.722
 5617POPC   C1A71727  22.691  17.308   6.202
 5617POPC   D2A71728  22.486  17.602   6.510
 5617POPC   C3A71729  22.703  17.621   6.893
 5617POPC   C4A71730  22.810  17.282   7.159
 5617POPC   C1B71731  23.243  17.821   6.142
 5617POPC   C2B71732  23.060  17.585   6.504
 5617POPC   C3B71733  23.213  17.497   6.928
 5617POPC   C4B71734  23.464  17.708   7.221
 5618POPC   NC371735  12.350  16.640   5.262
 5618POPC   PO471736  12.816  16.720   5.697
 5618POPC   GL171737  13.000  16.928   6.032
 5618POPC   GL271738  12.958  16.569   6.161
 5618POPC   C1A71739  13.083  16.937   6.481
 5618POPC   D2A71740  12.853  16.599   6.669
 5618POPC   C3A71741  13.010  16.480   7.022
 5618POPC   C4A71742  12.880  16.505   7.418
 5618POPC   C1B71743  12.595  16.867   6.308
 5618POPC   C2B71744  12.552  17.026   6.719
 5618POPC   C3B71745  12.557  16.743   7.086
 5618POPC   C4B71746  12.461  16.796   7.514
 5619POPC   NC371747  20.554  18.691   5.204
 5619POPC   PO471748  20.572  18.110   5.343
 5619POPC   GL171749  20.676  18.383   5.678
 5619POPC   GL271750  21.046  18.352   5.684
 5619POPC   C1A71751  20.659  18.382   6.138
 5619POPC   D2A71752  20.376  18.229   6.469
 5619POPC   C3A71753  20.561  18.306   6.874
 5619POPC   C4A71754  20.389  18.335   7.259
 5619POPC   C1B71755  21.121  18.184   6.114
 5619POPC   C2B71756  20.928  18.151   6.528
 5619POPC   C3B71757  21.050  18.130   6.950
 5619POPC   C4B71758  20.903  18.316   7.309
 5620POPC   NC371759  39.887  17.245   5.449
 5620POPC   PO471760  40.061  17.876   5.410
 5620POPC   GL171761  40.094  17.641   5.768
 5620POPC   GL271762  39.731  17.621   5.779
 5620POPC   C1A71763  40.112  17.523   6.208
 5620POPC   D2A71764  39.954  17.666   6.575
 5620POPC   C3A71765  40.216  17.591   6.909
 5620POPC   C4A71766  40.164  17.312   7.248
 5620POPC   C1B71767  39.611  17.516   6.195
 5620POPC   C2B71768  39.583  17.309   6.596
 5620POPC   C3B71769  39.709  17.451   7.000
 5620POPC   C4B71770  39.639  17.209   7.356
 5621POPC   NC371771  18.989  19.048   5.444
 5621POPC   PO471772  19.555  19.375   5.306
 5621POPC   GL171773  19.321  19.339   5.704
 5621POPC   GL271774  19.323  18.941   5.808
 5621POPC   C1A71775  19.058  19.255   6.086
 5621POPC   D2A71776  19.109  18.910   6.345
 5621POPC   C3A71777  18.958  18.974   6.747
 5621POPC   C4A71778  18.985  18.951   7.186
 5621POPC   C1B71779  19.604  18.794   6.133
 5621POPC   C2B71780  19.541  18.607   6.522
 5621POPC   C3B71781  19.348  18.672   6.916
 5621POPC   C4B71782  19.497  18.728   7.311
 5622POPC   NC371783  31.906  17.506   5.280
 5622POPC   PO471784  31.504  17.084   5.414
 5622POPC   GL171785  31.724  17.229   5.753
 5622POPC   GL271786  31.424  17.169   5.942
 5622POPC   C1A71787  31.844  17.380   6.192
 5622POPC   D2A71788  31.736  17.421   6.657
 5622POPC   C3A71789  31.937  17.430   7.085
 5622POPC   C4A71790  31.789  17.678   7.452
 5622POPC   C1B71791  31.328  17.427   6.314
 5622POPC   C2B71792  31.216  17.477   6.767
 5622POPC   C3B71793  31.238  17.328   7.203
 5622POPC   C4B71794  31.225  17.448   7.642
 5623POPC   NC371795  12.841  44.107   5.249
 5623POPC   PO471796  13.091  43.460   5.401
 5623POPC   GL171797  13.025  43.632   5.823
 5623POPC   GL271798  12.657  43.761   5.787
 5623POPC   C1A71799  13.211  43.700   6.292
 5623POPC   D2A71800  12.912  43.859   6.668
 5623POPC   C3A71801  13.009  43.781   7.120
 5623POPC   C4A71802  13.260  44.074   7.365
 5623POPC   C1B71803  12.366  43.882   6.178
 5623POPC   C2B71804  12.471  44.113   6.574
 5623POPC   C3B71805  12.645  44.138   7.000
 5623POPC   C4B71806  12.561  43.900   7.364
 5624POPC   NC371807   8.622   5.206   5.372
 5624POPC   PO471808   7.968   4.945   5.345
 5624POPC   GL171809   8.238   5.082   5.691
 5624POPC   GL271810   8.153   5.421   5.824
 5624POPC   C1A71811   8.405   5.004   6.105
 5624POPC   D2A71812   8.426   5.198   6.499
 5624POPC   C3A71813   8.375   4.865   6.839
 5624POPC   C4A71814   8.590   5.010   7.199
 5624POPC   C1B71815   7.949   5.203   6.194
 5624POPC   C2B71816   7.950   5.041   6.608
 5624POPC   C3B71817   7.987   5.106   7.063
 5624POPC   C4B71818   7.855   5.052   7.476
 5625POPC   NC371819  13.676  27.140   5.530
 5625POPC   PO471820  13.927  26.538   5.515
 5625POPC   GL171821  13.629  26.738   5.836
 5625POPC   GL271822  13.364  26.554   5.922
 5625POPC   C1A71823  13.475  27.002   6.177
 5625POPC   D2A71824  13.358  26.902   6.601
 5625POPC   C3A71825  13.446  27.115   6.991
 5625POPC   C4A71826  13.836  27.210   7.169
 5625POPC   C1B71827  13.437  26.310   6.247
 5625POPC   C2B71828  13.309  26.395   6.609
 5625POPC   C3B71829  13.531  26.493   6.947
 5625POPC   C4B71830  13.342  26.338   7.303
 5626POPC   NC371831  32.858  25.581   5.263
 5626POPC   PO471832  32.847  24.837   5.314
 5626POPC   GL171833  33.078  25.077   5.654
 5626POPC   GL271834  32.805  25.282   5.752
 5626POPC   C1A71835  33.163  25.220   6.137
 5626POPC   D2A71836  33.035  25.337   6.594
 5626POPC   C3A71837  33.207  25.126   7.010
 5626POPC   C4A71838  33.431  25.029   7.418
 5626POPC   C1B71839  32.763  24.903   6.021
 5626POPC   C2B71840  32.816  24.868   6.474
 5626POPC   C3B71841  32.701  25.047   6.888
 5626POPC   C4B71842  32.779  25.474   7.042
 5627POPC   NC371843  29.727  27.697   5.374
 5627POPC   PO471844  29.510  27.181   5.630
 5627POPC   GL171845  29.656  27.536   5.871
 5627POPC   GL271846  30.017  27.626   5.800
 5627POPC   C1A71847  29.793  27.575   6.293
 5627POPC   D2A71848  30.083  27.563   6.633
 5627POPC   C3A71849  29.921  27.511   7.045
 5627POPC   C4A71850  29.636  27.435   7.369
 5627POPC   C1B71851  30.070  27.969   6.110
 5627POPC   C2B71852  30.059  28.087   6.563
 5627POPC   C3B71853  30.184  27.941   6.968
 5627POPC   C4B71854  30.065  27.880   7.374
 5628POPC   NC371855  27.250   5.353   5.337
 5628POPC   PO471856  27.894   5.077   5.294
 5628POPC   GL171857  27.661   4.969   5.731
 5628POPC   GL271858  27.293   5.045   5.779
 5628POPC   C1A71859  27.709   5.035   6.223
 5628POPC   D2A71860  27.606   5.363   6.579
 5628POPC   C3A71861  27.688   5.208   7.038
 5628POPC   C4A71862  27.598   5.122   7.486
 5628POPC   C1B71863  27.188   5.001   6.246
 5628POPC   C2B71864  27.301   4.983   6.718
 5628POPC   C3B71865  27.160   5.222   7.106
 5628POPC   C4B71866  27.096   5.023   7.534
 5629POPC   NC371867  18.739  33.353   5.472
 5629POPC   PO471868  19.295  32.861   5.357
 5629POPC   GL171869  19.076  33.045   5.717
 5629POPC   GL271870  19.188  33.400   5.768
 5629POPC   C1A71871  19.029  32.891   6.140
 5629POPC   D2A71872  19.236  32.928   6.535
 5629POPC   C3A71873  18.973  32.954   6.852
 5629POPC   C4A71874  19.034  32.848   7.239
 5629POPC   C1B71875  18.981  33.402   6.179
 5629POPC   C2B71876  19.084  33.426   6.632
 5629POPC   C3B71877  18.919  33.403   7.074
 5629POPC   C4B71878  18.948  33.320   7.507
 5630POPC   NC371879  24.781   3.069   5.395
 5630POPC   PO471880  24.705   3.690   5.449
 5630POPC   GL171881  24.514   3.669   5.808
 5630POPC   GL271882  24.509   3.302   5.789
 5630POPC   C1A71883  24.378   3.577   6.209
 5630POPC   D2A71884  24.584   3.488   6.577
 5630POPC   C3A71885  24.391   3.681   6.924
 5630POPC   C4A71886  24.494   3.822   7.318
 5630POPC   C1B71887  24.666   3.140   6.186
 5630POPC   C2B71888  24.673   2.956   6.616
 5630POPC   C3B71889  24.663   3.217   6.999
 5630POPC   C4B71890  24.298   3.284   7.243
 5631POPC   NC371891  14.658   5.672   5.156
 5631POPC   PO471892  14.249   6.129   5.316
 5631POPC   GL171893  14.336   5.924   5.748
 5631POPC   GL271894  14.149   5.611   5.826
 5631POPC   C1A71895  14.354   5.914   6.228
 5631POPC   D2A71896  14.070   6.096   6.532
 5631POPC   C3A71897  14.235   6.151   6.909
 5631POPC   C4A71898  14.455   5.876   7.124
 5631POPC   C1B71899  14.200   5.445   6.263
 5631POPC   C2B71900  14.304   5.580   6.693
 5631POPC   C3B71901  14.330   5.394   7.138
 5631POPC   C4B71902  14.254   5.593   7.552
 5632POPC   NC371903  23.455  41.633   5.317
 5632POPC   PO471904  23.735  41.032   5.382
 5632POPC   GL171905  23.792  41.395   5.712
 5632POPC   GL271906  23.463  41.453   5.839
 5632POPC   C1A71907  23.853  41.497   6.175
 5632POPC   D2A71908  23.521  41.471   6.487
 5632POPC   C3A71909  23.624  41.545   6.925
 5632POPC   C4A71910  23.838  41.511   7.337
 5632POPC   C1B71911  23.479  41.830   6.105
 5632POPC   C2B71912  23.564  42.002   6.541
 5632POPC   C3B71913  23.369  42.051   6.951
 5632POPC   C4B71914  23.356  41.799   7.309
 5633POPC   NC371915  41.682  33.714   5.349
 5633POPC   PO471916  41.060  33.690   5.247
 5633POPC   GL171917  41.317  33.587   5.706
 5633POPC   GL271918  41.714  33.592   5.825
 5633POPC   C1A71919  41.371  33.835   6.125
 5633POPC   D2A71920  41.247  34.059   6.496
 5633POPC   C3A71921  41.483  33.998   6.878
 5633POPC   C4A71922  41.469  33.657   7.165
 5633POPC   C1B71923  41.880  33.807   6.193
 5633POPC   C2B71924  41.790  34.164   6.478
 5633POPC   C3B71925  41.939  34.246   6.901
 5633POPC   C4B71926  41.799  34.046   7.296
 5634POPC   NC371927  31.104  37.961   5.530
 5634POPC   PO471928  30.786  37.386   5.407
 5634POPC   GL171929  30.734  37.628   5.765
 5634POPC   GL271930  31.045  37.573   5.860
 5634POPC   C1A71931  30.530  37.627   6.174
 5634POPC   D2A71932  30.659  37.555   6.595
 5634POPC   C3A71933  30.544  37.816   6.925
 5634POPC   C4A71934  30.435  37.746   7.356
 5634POPC   C1B71935  31.037  37.737   6.264
 5634POPC   C2B71936  30.949  37.965   6.612
 5634POPC   C3B71937  31.083  37.828   6.974
 5634POPC   C4B71938  30.887  38.012   7.269
 5635POPC   NC371939  42.208  42.435   5.422
 5635POPC   PO471940  42.711  41.938   5.417
 5635POPC   GL171941  42.442  42.116   5.753
 5635POPC   GL271942  42.519  42.485   5.832
 5635POPC   C1A71943  42.260  42.173   6.168
 5635POPC   D2A71944  42.457  42.160   6.582
 5635POPC   C3A71945  42.189  42.127   6.970
 5635POPC   C4A71946  42.127  42.443   7.259
 5635POPC   C1B71947  42.351  42.680   6.223
 5635POPC   C2B71948  42.285  42.655   6.677
 5635POPC   C3B71949  42.549  42.467   6.968
 5635POPC   C4B71950  42.812  42.478   7.267
 5636POPC   NC371951  23.583  23.275   5.334
 5636POPC   PO471952  24.021  22.732   5.483
 5636POPC   GL171953  23.871  23.037   5.767
 5636POPC   GL271954  23.574  22.855   5.794
 5636POPC   C1A71955  23.969  23.072   6.216
 5636POPC   D2A71956  23.832  22.914   6.633
 5636POPC   C3A71957  23.744  23.196   6.957
 5636POPC   C4A71958  23.812  23.133   7.370
 5636POPC   C1B71959  23.547  22.768   6.228
 5636POPC   C2B71960  23.338  22.725   6.606
 5636POPC   C3B71961  23.424  22.772   7.042
 5636POPC   C4B71962  23.450  22.813   7.485
 5637POPC   NC371963  14.586  15.030   5.314
 5637POPC   PO471964  13.940  15.324   5.443
 5637POPC   GL171965  14.189  15.280   5.814
 5637POPC   GL271966  14.534  15.104   5.855
 5637POPC   C1A71967  14.279  15.488   6.207
 5637POPC   D2A71968  14.496  15.541   6.612
 5637POPC   C3A71969  14.314  15.493   7.030
 5637POPC   C4A71970  14.209  15.069   7.230
 5637POPC   C1B71971  14.617  14.711   6.142
 5637POPC   C2B71972  14.662  14.540   6.562
 5637POPC   C3B71973  14.526  14.682   6.983
 5637POPC   C4B71974  14.854  14.715   7.298
 5638POPC   NC371975  41.760  17.648   5.130
 5638POPC   PO471976  42.370  17.555   5.384
 5638POPC   GL171977  42.299  17.692   5.840
 5638POPC   GL271978  41.964  17.672   5.798
 5638POPC   C1A71979  42.553  17.865   6.220
 5638POPC   D2A71980  42.796  17.803   6.636
 5638POPC   C3A71981  42.572  17.841   7.043
 5638POPC   C4A71982  42.248  17.556   7.160
 5638POPC   C1B71983  42.068  17.424   6.209
 5638POPC   C2B71984  42.033  17.428   6.683
 5638POPC   C3B71985  41.935  17.171   7.061
 5638POPC   C4B71986  41.976  17.286   7.494
 5639POPC   NC371987  38.940  43.432   5.443
 5639POPC   PO471988  39.412  42.955   5.400
 5639POPC   GL171989  39.425  43.221   5.767
 5639POPC   GL271990  39.096  43.234   5.880
 5639POPC   C1A71991  39.480  43.040   6.215
 5639POPC   D2A71992  39.349  42.864   6.635
 5639POPC   C3A71993  39.274  43.115   7.009
 5639POPC   C4A71994  39.256  42.919   7.386
 5639POPC   C1B71995  39.124  43.421   6.279
 5639POPC   C2B71996  38.943  43.254   6.654
 5639POPC   C3B71997  38.838  43.393   7.081
 5639POPC   C4B71998  39.058  43.358   7.493
 5640POPC   NC371999  22.417  34.727   5.025
 5640POPC   PO472000  21.958  34.881   5.493
 5640POPC   GL172001  22.084  34.621   5.833
 5640POPC   GL272002  22.374  34.397   5.753
 5640POPC   C1A72003  21.952  34.649   6.259
 5640POPC   D2A72004  21.947  34.540   6.692
 5640POPC   C3A72005  22.217  34.789   6.932
 5640POPC   C4A72006  22.143  34.994   7.297
 5640POPC   C1B72007  22.367  34.290   6.186
 5640POPC   C2B72008  22.326  34.040   6.559
 5640POPC   C3B72009  22.211  34.156   6.936
 5640POPC   C4B72010  22.178  34.428   7.271
 5641POPC   NC372011  26.656  20.170   5.409
 5641POPC   PO472012  26.822  19.511   5.511
 5641POPC   GL172013  26.740  19.818   5.817
 5641POPC   GL272014  26.939  20.134   5.813
 5641POPC   C1A72015  26.659  19.768   6.257
 5641POPC   D2A72016  26.750  19.954   6.670
 5641POPC   C3A72017  26.906  19.684   7.041
 5641POPC   C4A72018  26.943  19.460   7.471
 5641POPC   C1B72019  26.594  20.241   6.103
 5641POPC   C2B72020  26.498  20.403   6.551
 5641POPC   C3B72021  26.665  20.322   7.004
 5641POPC   C4B72022  26.419  20.301   7.365
 5642POPC   NC372023  41.141  15.028   5.536
 5642POPC   PO472024  40.509  14.906   5.251
 5642POPC   GL172025  40.655  14.950   5.717
 5642POPC   GL272026  40.809  15.282   5.813
 5642POPC   C1A72027  40.504  15.081   6.166
 5642POPC   D2A72028  40.499  15.505   6.374
 5642POPC   C3A72029  40.449  15.504   6.834
 5642POPC   C4A72030  40.653  15.270   7.154
 5642POPC   C1B72031  41.001  15.194   6.206
 5642POPC   C2B72032  40.933  15.332   6.651
 5642POPC   C3B72033  41.140  15.217   7.044
 5642POPC   C4B72034  41.020  14.995   7.461
 5643POPC   NC372035   9.558  40.196   5.461
 5643POPC   PO472036  10.029  39.626   5.499
 5643POPC   GL172037   9.780  39.687   5.890
 5643POPC   GL272038   9.514  39.911   5.881
 5643POPC   C1A72039   9.607  39.725   6.339
 5643POPC   D2A72040   9.319  39.747   6.710
 5643POPC   C3A72041   9.540  39.866   7.086
 5643POPC   C4A72042  10.000  39.952   7.171
 5643POPC   C1B72043   9.842  40.173   6.109
 5643POPC   C2B72044   9.975  40.399   6.484
 5643POPC   C3B72045   9.823  40.378   6.908
 5643POPC   C4B72046   9.634  40.300   7.299
 5644POPC   NC372047  27.440   9.962   5.070
 5644POPC   PO472048  27.339  10.080   5.636
 5644POPC   GL172049  27.688   9.827   5.789
 5644POPC   GL272050  27.516   9.516   5.769
 5644POPC   C1A72051  27.793   9.655   6.206
 5644POPC   D2A72052  27.545   9.594   6.574
 5644POPC   C3A72053  27.726   9.669   6.967
 5644POPC   C4A72054  27.574   9.843   7.358
 5644POPC   C1B72055  27.453   9.284   6.156
 5644POPC   C2B72056  27.137   9.275   6.440
 5644POPC   C3B72057  27.180   9.344   6.845
 5644POPC   C4B72058  27.382   9.393   7.237
 5645POPC   NC372059  39.673  33.104   5.138
 5645POPC   PO472060  39.052  33.254   5.319
 5645POPC   GL172061  39.268  33.033   5.666
 5645POPC   GL272062  39.307  32.664   5.560
 5645POPC   C1A72063  39.440  33.123   6.127
 5645POPC   D2A72064  39.270  33.084   6.561
 5645POPC   C3A72065  39.199  33.352   6.939
 5645POPC   C4A72066  39.328  33.243   7.368
 5645POPC   C1B72067  39.286  32.644   6.008
 5645POPC   C2B72068  39.422  32.605   6.427
 5645POPC   C3B72069  39.505  32.735   6.857
 5645POPC   C4B72070  39.244  32.751   7.216
 5646POPC   NC372071  45.000   2.429   5.487
 5646POPC   PO472072  44.503   2.876   5.501
 5646POPC   GL172073  44.756   2.719   5.832
 5646POPC   GL272074  44.907   2.995   5.933
 5646POPC   C1A72075  44.754   2.621   6.274
 5646POPC   D2A72076  44.539   2.596   6.637
 5646POPC   C3A72077  44.688   2.446   7.034
 5646POPC   C4A72078  44.456   2.647   7.399
 5646POPC   C1B72079  44.652   3.140   6.266
 5646POPC   C2B72080  44.690   3.081   6.726
 5646POPC   C3B72081  44.835   2.929   7.123
 5646POPC   C4B72082  44.967   2.671   7.434
 5647POPC   NC372083  28.536  31.389   5.502
 5647POPC   PO472084  27.898  31.451   5.712
 5647POPC   GL172085  28.283  31.628   5.893
 5647POPC   GL272086  28.655  31.813   5.791
 5647POPC   C1A72087  28.356  31.336   6.286
 5647POPC   D2A72088  28.515  30.969   6.544
 5647POPC   C3A72089  28.492  31.061   6.995
 5647POPC   C4A72090  28.117  31.296   7.059
 5647POPC   C1B72091  28.636  31.744   6.223
 5647POPC   C2B72092  28.460  31.751   6.635
 5647POPC   C3B72093  28.542  31.589   7.033
 5647POPC   C4B72094  28.808  31.799   7.240
 5648POPC   NC372095  32.007  15.976   5.342
 5648POPC   PO472096  32.596  16.119   5.637
 5648POPC   GL172097  32.238  15.928   5.815
 5648POPC   GL272098  32.153  15.558   5.798
 5648POPC   C1A72099  32.283  15.866   6.233
 5648POPC   D2A72100  32.300  16.162   6.569
 5648POPC   C3A72101  32.238  15.938   6.934
 5648POPC   C4A72102  32.269  16.225   7.231
 5648POPC   C1B72103  31.921  15.449   6.200
 5648POPC   C2B72104  31.699  15.418   6.639
 5648POPC   C3B72105  31.859  15.547   7.080
 5648POPC   C4B72106  32.153  15.747   7.409
 5649POPC   NC372107  23.478  40.609   5.481
 5649POPC   PO472108  24.147  40.638   5.451
 5649POPC   GL172109  23.859  40.767   5.831
 5649POPC   GL272110  23.634  40.501   5.967
 5649POPC   C1A72111  23.622  41.013   6.178
 5649POPC   D2A72112  23.460  40.973   6.634
 5649POPC   C3A72113  23.727  41.026   7.032
 5649POPC   C4A72114  23.915  40.707   7.315
 5649POPC   C1B72115  23.985  40.445   6.263
 5649POPC   C2B72116  23.952  40.336   6.723
 5649POPC   C3B72117  23.628  40.514   6.925
 5649POPC   C4B72118  23.384  40.694   7.232
 5650POPC   NC372119  32.850  41.414   5.349
 5650POPC   PO472120  33.309  41.881   5.445
 5650POPC   GL172121  33.153  41.514   5.749
 5650POPC   GL272122  33.297  41.162   5.818
 5650POPC   C1A72123  32.915  41.317   6.112
 5650POPC   D2A72124  33.020  41.401   6.548
 5650POPC   C3A72125  32.769  41.359   6.909
 5650POPC   C4A72126  32.790  41.677   7.246
 5650POPC   C1B72127  33.412  41.423   6.201
 5650POPC   C2B72128  33.508  41.574   6.633
 5650POPC   C3B72129  33.247  41.609   6.994
 5650POPC   C4B72130  33.140  41.306   7.285
 5651POPC   NC372131   2.448  12.284   5.465
 5651POPC   PO472132   1.713  12.048   5.461
 5651POPC   GL172133   2.089  12.034   5.719
 5651POPC   GL272134   2.222  11.685   5.749
 5651POPC   C1A72135   2.072  12.281   6.107
 5651POPC   D2A72136   1.802  12.226   6.465
 5651POPC   C3A72137   2.028  12.191   6.851
 5651POPC   C4A72138   1.854  11.879   7.141
 5651POPC   C1B72139   2.032  11.769   6.144
 5651POPC   C2B72140   2.250  11.896   6.507
 5651POPC   C3B72141   2.334  11.793   6.933
 5651POPC   C4B72142   2.327  12.066   7.277
 5652POPC   NC372143  43.318  33.317   5.296
 5652POPC   PO472144  43.546  32.725   5.534
 5652POPC   GL172145  43.255  33.034   5.743
 5652POPC   GL272146  42.882  33.072   5.694
 5652POPC   C1A72147  43.177  33.077   6.197
 5652POPC   D2A72148  42.955  32.812   6.508
 5652POPC   C3A72149  43.093  32.749   6.896
 5652POPC   C4A72150  43.237  33.085   7.111
 5652POPC   C1B72151  42.682  32.946   6.105
 5652POPC   C2B72152  42.562  33.146   6.519
 5652POPC   C3B72153  42.749  33.149   6.952
 5652POPC   C4B72154  42.790  32.821   7.300
 5653POPC   NC372155  14.636  25.575   5.056
 5653POPC   PO472156  14.792  26.053   5.475
 5653POPC   GL172157  14.591  26.107   5.873
 5653POPC   GL272158  14.271  26.223   5.838
 5653POPC   C1A72159  14.365  25.905   6.233
 5653POPC   D2A72160  14.517  26.038   6.661
 5653POPC   C3A72161  14.362  25.827   7.035
 5653POPC   C4A72162  14.194  25.918   7.431
 5653POPC   C1B72163  14.398  26.410   6.271
 5653POPC   C2B72164  14.206  26.442   6.691
 5653POPC   C3B72165  14.465  26.344   7.090
 5653POPC   C4B72166  14.673  26.057   7.419
 5654POPC   NC372167  40.420  13.896   5.608
 5654POPC   PO472168  40.772  13.354   5.631
 5654POPC   GL172169  40.552  13.510   5.926
 5654POPC   GL272170  40.781  13.796   5.955
 5654POPC   C1A72171  40.704  13.459   6.318
 5654POPC   D2A72172  40.815  13.656   6.673
 5654POPC   C3A72173  40.707  13.396   7.050
 5654POPC   C4A72174  40.627  13.240   7.489
 5654POPC   C1B72175  40.526  13.946   6.297
 5654POPC   C2B72176  40.441  13.984   6.740
 5654POPC   C3B72177  40.604  13.880   7.147
 5654POPC   C4B72178  40.900  14.070   7.456
 5655POPC   NC372179   6.584  22.756   5.213
 5655POPC   PO472180   6.866  23.313   5.260
 5655POPC   GL172181   6.656  23.136   5.632
 5655POPC   GL272182   6.573  22.800   5.718
 5655POPC   C1A72183   6.776  23.091   6.079
 5655POPC   D2A72184   6.920  22.801   6.421
 5655POPC   C3A72185   6.872  23.021   6.810
 5655POPC   C4A72186   6.704  23.022   7.215
 5655POPC   C1B72187   6.524  22.651   6.149
 5655POPC   C2B72188   6.500  22.523   6.553
 5655POPC   C3B72189   6.644  22.577   6.954
 5655POPC   C4B72190   6.364  22.622   7.263
 5656POPC   NC372191  22.491  21.246   5.283
 5656POPC   PO472192  23.035  21.530   5.224
 5656POPC   GL172193  23.092  21.589   5.685
 5656POPC   GL272194  23.064  21.244   5.824
 5656POPC   C1A72195  23.122  21.642   6.182
 5656POPC   D2A72196  22.984  21.441   6.639
 5656POPC   C3A72197  22.821  21.595   7.077
 5656POPC   C4A72198  23.066  21.633   7.495
 5656POPC   C1B72199  22.769  21.253   6.200
 5656POPC   C2B72200  22.562  21.070   6.583
 5656POPC   C3B72201  22.761  21.103   7.009
 5656POPC   C4B72202  23.137  21.191   7.253
 5657POPC   NC372203  16.568  43.212   5.257
 5657POPC   PO472204  16.297  42.752   5.682
 5657POPC   GL172205  16.536  43.004   5.923
 5657POPC   GL272206  16.867  43.094   5.844
 5657POPC   C1A72207  16.619  43.076   6.350
 5657POPC   D2A72208  16.763  42.843   6.656
 5657POPC   C3A72209  16.509  42.858   7.004
 5657POPC   C4A72210  16.627  43.031   7.382
 5657POPC   C1B72211  16.958  43.414   6.164
 5657POPC   C2B72212  17.035  43.352   6.594
 5657POPC   C3B72213  17.094  43.540   6.983
 5657POPC   C4B72214  16.988  43.367   7.352
 5658POPC   NC372215  33.511   7.745   5.142
 5658POPC   PO472216  34.007   7.981   5.586
 5658POPC   GL172217  33.723   8.317   5.777
 5658POPC   GL272218  33.722   8.073   6.058
 5658POPC   C1A72219  33.417   8.467   6.111
 5658POPC   D2A72220  33.292   8.279   6.517
 5658POPC   C3A72221  33.607   8.438   6.802
 5658POPC   C4A72222  33.935   8.494   7.128
 5658POPC   C1B72223  33.934   8.355   6.349
 5658POPC   C2B72224  34.138   8.232   6.725
 5658POPC   C3B72225  33.823   7.992   6.919
 5658POPC   C4B72226  33.673   7.875   7.292
 5659POPC   NC372227  43.949  44.264   5.361
 5659POPC   PO472228  43.359  44.167   5.692
 5659POPC   GL172229  43.820  44.091   5.832
 5659POPC   GL272230  44.024  43.766   5.757
 5659POPC   C1A72231  44.041  44.021   6.216
 5659POPC   D2A72232  43.813  43.974   6.572
 5659POPC   C3A72233  43.938  44.071   6.971
 5659POPC   C4A72234  43.699  43.951   7.320
 5659POPC   C1B72235  44.313  43.566   6.086
 5659POPC   C2B72236  44.485  43.672   6.490
 5659POPC   C3B72237  44.340  43.736   6.910
 5659POPC   C4B72238  44.180  43.752   7.319
 5660POPC   NC372239   5.033  26.072   5.247
 5660POPC   PO472240   5.698  25.952   5.249
 5660POPC   GL172241   5.453  26.048   5.671
 5660POPC   GL272242   5.125  26.218   5.714
 5660POPC   C1A72243   5.204  25.825   6.026
 5660POPC   D2A72244   5.036  25.923   6.463
 5660POPC   C3A72245   5.299  25.891   6.844
 5660POPC   C4A72246   5.013  25.887   7.211
 5660POPC   C1B72247   5.083  26.369   6.118
 5660POPC   C2B72248   5.124  26.472   6.535
 5660POPC   C3B72249   5.016  26.311   6.922
 5660POPC   C4B72250   4.999  26.416   7.316
 5661POPC   NC372251  22.157   9.095   5.225
 5661POPC   PO472252  22.122   8.404   5.433
 5661POPC   GL172253  22.122   8.675   5.824
 5661POPC   GL272254  22.168   9.043   5.760
 5661POPC   C1A72255  22.029   8.836   6.264
 5661POPC   D2A72256  21.888   9.146   6.621
 5661POPC   C3A72257  22.082   9.107   7.045
 5661POPC   C4A72258  21.979   8.709   7.246
 5661POPC   C1B72259  22.443   9.106   6.149
 5661POPC   C2B72260  22.479   8.801   6.523
 5661POPC   C3B72261  22.473   8.772   6.977
 5661POPC   C4B72262  22.597   9.194   7.132
 5662POPC   NC372263  13.986   7.821   5.405
 5662POPC   PO472264  13.466   8.296   5.414
 5662POPC   GL172265  13.375   8.339   5.820
 5662POPC   GL272266  13.364   7.967   5.858
 5662POPC   C1A72267  13.594   8.397   6.199
 5662POPC   D2A72268  13.358   8.408   6.564
 5662POPC   C3A72269  13.499   8.348   6.961
 5662POPC   C4A72270  13.904   8.314   7.116
 5662POPC   C1B72271  13.296   7.965   6.270
 5662POPC   C2B72272  13.472   7.893   6.664
 5662POPC   C3B72273  13.645   7.881   7.061
 5662POPC   C4B72274  13.270   7.970   7.223
 5663POPC   NC372275   4.275   9.546   5.413
 5663POPC   PO472276   4.611  10.051   5.623
 5663POPC   GL172277   4.389   9.784   5.915
 5663POPC   GL272278   4.289   9.432   5.915
 5663POPC   C1A72279   4.183   9.762   6.331
 5663POPC   D2A72280   4.271   9.965   6.731
 5663POPC   C3A72281   4.251   9.998   7.181
 5663POPC   C4A72282   4.242   9.887   7.616
 5663POPC   C1B72283   4.371   9.299   6.354
 5663POPC   C2B72284   4.166   9.461   6.741
 5663POPC   C3B72285   4.306   9.494   7.149
 5663POPC   C4B72286   4.511   9.121   7.296
 5664POPC   NC372287  11.621   4.806   4.973
 5664POPC   PO472288  11.478   4.267   5.292
 5664POPC   GL172289  11.416   4.369   5.737
 5664POPC   GL272290  11.145   4.596   5.666
 5664POPC   C1A72291  11.528   4.295   6.215
 5664POPC   D2A72292  11.650   4.475   6.658
 5664POPC   C3A72293  11.500   4.262   7.039
 5664POPC   C4A72294  11.212   4.075   7.361
 5664POPC   C1B72295  11.067   4.503   6.101
 5664POPC   C2B72296  11.143   4.476   6.550
 5664POPC   C3B72297  11.010   4.394   6.976
 5664POPC   C4B72298  11.053   4.569   7.390
 5665POPC   NC372299  39.703  23.075   5.712
 5665POPC   PO472300  39.128  22.823   5.391
 5665POPC   GL172301  39.152  22.964   5.757
 5665POPC   GL272302  39.385  22.688   5.843
 5665POPC   C1A72303  39.168  23.134   6.143
 5665POPC   D2A72304  39.409  22.933   6.453
 5665POPC   C3A72305  39.532  23.145   6.826
 5665POPC   C4A72306  39.509  22.898   7.194
 5665POPC   C1B72307  39.065  22.624   6.165
 5665POPC   C2B72308  38.971  22.708   6.618
 5665POPC   C3B72309  39.099  22.603   7.019
 5665POPC   C4B72310  38.818  22.504   7.338
 5666POPC   NC372311  25.921   8.591   5.513
 5666POPC   PO472312  25.981   9.259   5.486
 5666POPC   GL172313  25.976   9.009   5.873
 5666POPC   GL272314  25.646   8.831   5.848
 5666POPC   C1A72315  26.209   8.846   6.276
 5666POPC   D2A72316  26.267   8.757   6.757
 5666POPC   C3A72317  26.144   9.090   7.081
 5666POPC   C4A72318  26.104   9.462   7.393
 5666POPC   C1B72319  25.711   8.803   6.284
 5666POPC   C2B72320  25.786   8.967   6.716
 5666POPC   C3B72321  25.782   8.716   7.113
 5666POPC   C4B72322  25.644   8.620   7.574
 5667POPC   NC372323  34.757   9.057   5.538
 5667POPC   PO472324  34.141   8.906   5.364
 5667POPC   GL172325  34.294   9.052   5.810
 5667POPC   GL272326  34.535   8.869   5.979
 5667POPC   C1A72327  34.266   9.342   6.203
 5667POPC   D2A72328  34.511   9.500   6.573
 5667POPC   C3A72329  34.579   9.238   6.924
 5667POPC   C4A72330  34.652   8.972   7.271
 5667POPC   C1B72331  34.527   8.965   6.428
 5667POPC   C2B72332  34.845   8.862   6.701
 5667POPC   C3B72333  35.002   8.681   7.047
 5667POPC   C4B72334  35.059   8.758   7.504
 5668POPC   NC372335  39.194  14.898   5.363
 5668POPC   PO472336  39.616  15.335   5.117
 5668POPC   GL172337  39.537  15.362   5.691
 5668POPC   GL272338  39.288  15.094   5.844
 5668POPC   C1A72339  39.245  15.503   6.107
 5668POPC   D2A72340  39.254  15.516   6.564
 5668POPC   C3A72341  39.156  15.371   7.001
 5668POPC   C4A72342  39.307  15.214   7.431
 5668POPC   C1B72343  39.070  14.936   6.201
 5668POPC   C2B72344  39.083  15.000   6.650
 5668POPC   C3B72345  39.277  14.867   7.049
 5668POPC   C4B72346  39.653  14.813   7.334
 5669POPC   NC372347  12.864  41.176   5.356
 5669POPC   PO472348  12.552  41.691   5.581
 5669POPC   GL172349  12.973  41.536   5.773
 5669POPC   GL272350  13.031  41.186   5.849
 5669POPC   C1A72351  13.170  41.554   6.217
 5669POPC   D2A72352  13.126  41.853   6.582
 5669POPC   C3A72353  13.017  41.732   7.030
 5669POPC   C4A72354  12.684  41.764   7.328
 5669POPC   C1B72355  12.708  41.325   6.166
 5669POPC   C2B72356  12.769  41.460   6.600
 5669POPC   C3B72357  12.636  41.350   7.010
 5669POPC   C4B72358  12.898  41.305   7.363
 5670POPC   NC372359   4.838  12.038   5.414
 5670POPC   PO472360   5.496  12.015   5.296
 5670POPC   GL172361   5.384  12.202   5.724
 5670POPC   GL272362   5.038  12.152   5.874
 5670POPC   C1A72363   5.421  12.131   6.191
 5670POPC   D2A72364   5.535  11.956   6.565
 5670POPC   C3A72365   5.354  12.056   6.976
 5670POPC   C4A72366   5.376  11.924   7.405
 5670POPC   C1B72367   4.987  12.375   6.266
 5670POPC   C2B72368   4.855  12.286   6.661
 5670POPC   C3B72369   4.958  12.386   7.044
 5670POPC   C4B72370   4.930  12.237   7.468
 5671POPC   NC372371  24.990  35.779   5.310
 5671POPC   PO472372  25.400  35.278   5.250
 5671POPC   GL172373  25.406  35.361   5.702
 5671POPC   GL272374  25.083  35.214   5.831
 5671POPC   C1A72375  25.515  35.245   6.149
 5671POPC   D2A72376  25.330  35.251   6.565
 5671POPC   C3A72377  25.354  35.569   6.874
 5671POPC   C4A72378  25.566  35.356   7.165
 5671POPC   C1B72379  24.940  35.342   6.257
 5671POPC   C2B72380  24.872  35.403   6.732
 5671POPC   C3B72381  25.050  35.145   7.112
 5671POPC   C4B72382  24.895  35.194   7.584
 5672POPC   NC372383   8.403   2.665   5.314
 5672POPC   PO472384   8.033   3.043   5.082
 5672POPC   GL172385   8.008   2.810   5.595
 5672POPC   GL272386   8.308   2.913   5.816
 5672POPC   C1A72387   7.970   2.616   6.077
 5672POPC   D2A72388   7.809   2.461   6.536
 5672POPC   C3A72389   7.920   2.690   6.956
 5672POPC   C4A72390   7.943   3.061   7.251
 5672POPC   C1B72391   8.346   3.126   6.241
 5672POPC   C2B72392   8.251   3.096   6.694
 5672POPC   C3B72393   8.417   2.754   6.935
 5672POPC   C4B72394   8.298   2.505   7.252
 5673POPC   NC372395  42.039  11.276   5.615
 5673POPC   PO472396  42.624  11.584   5.483
 5673POPC   GL172397  42.493  11.428   5.885
 5673POPC   GL272398  42.475  11.054   5.880
 5673POPC   C1A72399  42.447  11.477   6.350
 5673POPC   D2A72400  42.205  11.696   6.695
 5673POPC   C3A72401  42.365  11.534   7.063
 5673POPC   C4A72402  42.151  11.143   7.173
 5673POPC   C1B72403  42.139  11.024   6.216
 5673POPC   C2B72404  42.146  11.158   6.645
 5673POPC   C3B72405  42.534  11.080   6.856
 5673POPC   C4B72406  42.657  11.020   7.287
 5674POPC   NC372407  16.247  23.753   5.407
 5674POPC   PO472408  15.716  23.696   5.348
 5674POPC   GL172409  15.846  23.768   5.820
 5674POPC   GL272410  16.168  23.639   5.919
 5674POPC   C1A72411  15.860  23.687   6.323
 5674POPC   D2A72412  15.886  23.478   6.763
 5674POPC   C3A72413  15.828  23.761   7.103
 5674POPC   C4A72414  16.141  24.092   7.142
 5674POPC   C1B72415  16.319  23.448   6.333
 5674POPC   C2B72416  16.386  23.337   6.780
 5674POPC   C3B72417  16.276  23.570   7.141
 5674POPC   C4B72418  15.949  23.444   7.465
 5675POPC   NC372419   5.475  43.787   5.340
 5675POPC   PO472420   4.846  43.793   5.289
 5675POPC   GL172421   4.941  43.978   5.737
 5675POPC   GL272422   5.278  43.956   5.881
 5675POPC   C1A72423   4.902  43.912   6.238
 5675POPC   D2A72424   4.884  43.702   6.676
 5675POPC   C3A72425   4.769  43.888   7.097
 5675POPC   C4A72426   4.771  43.753   7.588
 5675POPC   C1B72427   5.325  44.270   6.245
 5675POPC   C2B72428   5.318  44.272   6.695
 5675POPC   C3B72429   5.253  43.934   6.949
 5675POPC   C4B72430   5.201  43.767   7.345
 5676POPC   NC372431  33.688  21.262   5.631
 5676POPC   PO472432  34.130  21.762   5.494
 5676POPC   GL172433  34.090  21.499   5.867
 5676POPC   GL272434  34.117  21.115   5.865
 5676POPC   C1A72435  33.952  21.653   6.293
 5676POPC   D2A72436  33.686  21.813   6.648
 5676POPC   C3A72437  33.716  21.562   7.035
 5676POPC   C4A72438  33.561  21.292   7.370
 5676POPC   C1B72439  33.977  21.125   6.277
 5676POPC   C2B72440  34.046  21.310   6.678
 5676POPC   C3B72441  33.824  21.077   6.966
 5676POPC   C4B72442  33.919  20.901   7.334
 5677POPC   NC372443  28.440  10.101   5.104
 5677POPC   PO472444  28.278   9.739   5.647
 5677POPC   GL172445  28.286   9.735   6.058
 5677POPC   GL272446  28.111  10.044   6.034
 5677POPC   C1A72447  28.508   9.780   6.475
 5677POPC   D2A72448  28.721   9.962   6.868
 5677POPC   C3A72449  28.618   9.778   7.292
 5677POPC   C4A72450  28.333   9.485   7.613
 5677POPC   C1B72451  28.052  10.029   6.474
 5677POPC   C2B72452  28.177  10.027   6.908
 5677POPC   C3B72453  28.097   9.817   7.294
 5677POPC   C4B72454  27.917   9.866   7.712
 5678POPC   NC372455  37.333   1.195   5.377
 5678POPC   PO472456  36.860   1.616   5.432
 5678POPC   GL172457  36.858   1.199   5.681
 5678POPC   GL272458  37.167   1.041   5.843
 5678POPC   C1A72459  36.687   0.988   6.076
 5678POPC   D2A72460  36.487   1.115   6.498
 5678POPC   C3A72461  36.700   1.064   6.926
 5678POPC   C4A72462  36.970   1.400   7.106
 5678POPC   C1B72463  37.150   0.749   6.191
 5678POPC   C2B72464  37.080   0.791   6.654
 5678POPC   C3B72465  37.274   0.963   7.042
 5678POPC   C4B72466  37.361   1.056   7.492
 5679POPC   NC372467  20.671  15.746   5.003
 5679POPC   PO472468  20.683  16.068   5.591
 5679POPC   GL172469  20.551  15.908   5.932
 5679POPC   GL272470  20.287  15.686   5.867
 5679POPC   C1A72471  20.815  15.701   6.200
 5679POPC   D2A72472  20.993  15.599   6.575
 5679POPC   C3A72473  20.719  15.792   6.858
 5679POPC   C4A72474  20.766  15.983   7.230
 5679POPC   C1B72475  20.306  15.712   6.329
 5679POPC   C2B72476  20.216  15.952   6.669
 5679POPC   C3B72477  20.267  16.009   7.095
 5679POPC   C4B72478  20.333  15.991   7.527
 5680POPC   NC372479  40.279   9.063   5.277
 5680POPC   PO472480  40.159   8.466   5.155
 5680POPC   GL172481  40.229   8.747   5.637
 5680POPC   GL272482  40.337   9.112   5.771
 5680POPC   C1A72483  39.940   8.984   6.041
 5680POPC   D2A72484  39.715   9.188   6.421
 5680POPC   C3A72485  39.781   9.072   6.881
 5680POPC   C4A72486  39.882   9.111   7.321
 5680POPC   C1B72487  40.426   9.126   6.214
 5680POPC   C2B72488  40.584   9.056   6.626
 5680POPC   C3B72489  40.341   9.096   7.020
 5680POPC   C4B72490  40.302   8.808   7.389
 5681POPC   NC372491  16.582  13.898   5.329
 5681POPC   PO472492  17.258  13.694   5.497
 5681POPC   GL172493  16.930  13.929   5.735
 5681POPC   GL272494  16.644  13.663   5.807
 5681POPC   C1A72495  16.819  13.965   6.179
 5681POPC   D2A72496  16.666  13.702   6.518
 5681POPC   C3A72497  16.933  13.629   6.868
 5681POPC   C4A72498  16.779  13.710   7.278
 5681POPC   C1B72499  16.699  13.337   6.161
 5681POPC   C2B72500  16.441  13.240   6.553
 5681POPC   C3B72501  16.436  13.430   6.948
 5681POPC   C4B72502  16.465  13.322   7.380
 5682POPC   NC372503  38.697  24.127   5.351
 5682POPC   PO472504  38.655  23.423   5.432
 5682POPC   GL172505  38.487  23.602   5.838
 5682POPC   GL272506  38.274  23.892   5.815
 5682POPC   C1A72507  38.633  23.522   6.273
 5682POPC   D2A72508  38.832  23.737   6.625
 5682POPC   C3A72509  38.759  23.526   6.998
 5682POPC   C4A72510  38.372  23.455   7.184
 5682POPC   C1B72511  38.549  24.006   6.150
 5682POPC   C2B72512  38.483  24.113   6.582
 5682POPC   C3B72513  38.496  23.963   7.015
 5682POPC   C4B72514  38.195  24.122   7.308
 5683POPC   NC372515  32.101  37.917   5.095
 5683POPC   PO472516  32.329  38.532   5.295
 5683POPC   GL172517  32.423  38.423   5.727
 5683POPC   GL272518  32.240  38.688   5.888
 5683POPC   C1A72519  32.561  38.341   6.154
 5683POPC   D2A72520  32.516  38.553   6.564
 5683POPC   C3A72521  32.558  38.315   6.964
 5683POPC   C4A72522  32.465  38.485   7.360
 5683POPC   C1B72523  32.062  38.388   6.190
 5683POPC   C2B72524  31.862  38.405   6.596
 5683POPC   C3B72525  32.080  38.474   6.943
 5683POPC   C4B72526  32.085  38.155   7.206
 5684POPC   NC372527  41.353  24.291   5.462
 5684POPC   PO472528  40.733  24.072   5.517
 5684POPC   GL172529  40.943  24.369   5.793
 5684POPC   GL272530  41.025  24.693   5.706
 5684POPC   C1A72531  40.729  24.600   6.124
 5684POPC   D2A72532  40.507  24.404   6.437
 5684POPC   C3A72533  40.535  24.580   6.829
 5684POPC   C4A72534  40.471  24.447   7.226
 5684POPC   C1B72535  41.187  24.808   6.174
 5684POPC   C2B72536  41.197  24.698   6.639
 5684POPC   C3B72537  40.990  24.653   7.074
 5684POPC   C4B72538  40.621  24.912   7.238
 5685POPC   NC372539  27.898  20.317   5.542
 5685POPC   PO472540  28.424  20.725   5.358
 5685POPC   GL172541  28.234  20.761   5.773
 5685POPC   GL272542  28.314  20.455   5.917
 5685POPC   C1A72543  28.239  20.887   6.217
 5685POPC   D2A72544  28.180  21.062   6.643
 5685POPC   C3A72545  28.270  20.815   7.024
 5685POPC   C4A72546  28.221  20.785   7.481
 5685POPC   C1B72547  28.455  20.424   6.369
 5685POPC   C2B72548  28.473  20.369   6.826
 5685POPC   C3B72549  28.419  20.316   7.282
 5685POPC   C4B72550  28.402  20.022   7.702
 5686POPC   NC372551   1.862  37.495   5.442
 5686POPC   PO472552   2.457  37.945   5.299
 5686POPC   GL172553   2.200  37.953   5.746
 5686POPC   GL272554   2.092  37.598   5.920
 5686POPC   C1A72555   2.076  37.992   6.231
 5686POPC   D2A72556   2.057  38.130   6.635
 5686POPC   C3A72557   1.797  37.827   6.839
 5686POPC   C4A72558   2.024  37.623   7.154
 5686POPC   C1B72559   1.776  37.572   6.319
 5686POPC   C2B72560   1.622  37.363   6.728
 5686POPC   C3B72561   1.545  37.466   7.186
 5686POPC   C4B72562   1.734  37.315   7.619
 5687POPC   NC372563  44.390   8.965   5.459
 5687POPC   PO472564  44.792   9.404   5.829
 5687POPC   GL172565  44.415   9.223   5.933
 5687POPC   GL272566  44.502   8.911   5.947
 5687POPC   C1A72567  44.448   9.232   6.396
 5687POPC   D2A72568  44.812   9.113   6.626
 5687POPC   C3A72569  44.926   9.230   7.032
 5687POPC   C4A72570  44.729   9.086   7.393
 5687POPC   C1B72571  44.318   8.751   6.298
 5687POPC   C2B72572  44.386   8.827   6.736
 5687POPC   C3B72573  44.725   8.721   7.023
 5687POPC   C4B72574  44.685   8.578   7.468
 5688POPC   NC372575   0.750   3.055   5.455
 5688POPC   PO472576   0.848   2.387   5.384
 5688POPC   GL172577   0.658   2.623   5.736
 5688POPC   GL272578   0.303   2.680   5.827
 5688POPC   C1A72579   0.691   2.596   6.177
 5688POPC   D2A72580   0.481   2.480   6.543
 5688POPC   C3A72581   0.284   2.676   6.915
 5688POPC   C4A72582   0.445   2.516   7.336
 5688POPC   C1B72583   0.231   2.823   6.262
 5688POPC   C2B72584   0.486   3.050   6.536
 5688POPC   C3B72585   0.550   3.105   6.980
 5688POPC   C4B72586   0.327   3.017   7.306
 5689POPC   NC372587  29.572  37.768   5.250
 5689POPC   PO472588  29.814  37.171   5.308
 5689POPC   GL172589  29.823  37.398   5.729
 5689POPC   GL272590  29.686  37.730   5.781
 5689POPC   C1A72591  29.962  37.529   6.175
 5689POPC   D2A72592  30.160  37.694   6.576
 5689POPC   C3A72593  30.113  37.488   6.994
 5689POPC   C4A72594  29.698  37.499   7.197
 5689POPC   C1B72595  29.541  37.857   6.184
 5689POPC   C2B72596  29.621  37.958   6.610
 5689POPC   C3B72597  29.897  37.948   6.967
 5689POPC   C4B72598  29.952  37.916   7.410
 5690POPC   NC372599  14.964  42.851   5.412
 5690POPC   PO472600  15.475  43.100   5.438
 5690POPC   GL172601  15.314  43.143   5.853
 5690POPC   GL272602  14.987  43.066   5.903
 5690POPC   C1A72603  15.477  43.319   6.213
 5690POPC   D2A72604  15.597  43.096   6.554
 5690POPC   C3A72605  15.293  43.221   6.839
 5690POPC   C4A72606  15.359  43.320   7.261
 5690POPC   C1B72607  15.012  43.101   6.353
 5690POPC   C2B72608  14.837  42.975   6.738
 5690POPC   C3B72609  14.848  43.200   7.119
 5690POPC   C4B72610  15.016  42.985   7.457
 5691POPC   NC372611   8.642  37.887   5.131
 5691POPC   PO472612   7.964  37.736   5.165
 5691POPC   GL172613   7.946  37.623   5.664
 5691POPC   GL272614   7.825  37.937   5.835
 5691POPC   C1A72615   8.184  37.579   6.083
 5691POPC   D2A72616   8.047  37.506   6.543
 5691POPC   C3A72617   8.324  37.452   6.921
 5691POPC   C4A72618   8.671  37.568   7.184
 5691POPC   C1B72619   7.903  37.964   6.273
 5691POPC   C2B72620   7.711  38.121   6.639
 5691POPC   C3B72621   7.784  38.072   7.051
 5691POPC   C4B72622   7.971  37.725   7.206
 5692POPC   NC372623  26.944  11.888   5.414
 5692POPC   PO472624  26.518  12.411   5.436
 5692POPC   GL172625  26.640  12.111   5.768
 5692POPC   GL272626  26.512  11.766   5.755
 5692POPC   C1A72627  26.859  11.913   6.150
 5692POPC   D2A72628  26.765  12.007   6.600
 5692POPC   C3A72629  26.931  12.236   6.965
 5692POPC   C4A72630  26.868  12.391   7.398
 5692POPC   C1B72631  26.453  11.601   6.198
 5692POPC   C2B72632  26.590  11.525   6.656
 5692POPC   C3B72633  26.777  11.729   7.051
 5692POPC   C4B72634  27.080  11.923   7.374
 5693POPC   NC372635  36.042  37.703   5.482
 5693POPC   PO472636  36.510  37.227   5.323
 5693POPC   GL172637  36.196  37.276   5.739
 5693POPC   GL272638  36.158  37.646   5.960
 5693POPC   C1A72639  35.926  37.256   6.138
 5693POPC   D2A72640  36.014  37.561   6.469
 5693POPC   C3A72641  35.970  37.419   6.881
 5693POPC   C4A72642  36.286  37.411   7.187
 5693POPC   C1B72643  35.938  38.028   6.097
 5693POPC   C2B72644  35.702  38.195   6.454
 5693POPC   C3B72645  35.799  37.927   6.783
 5693POPC   C4B72646  36.170  37.897   7.031
 5694POPC   NC372647  41.615   2.077   5.404
 5694POPC   PO472648  41.317   1.444   5.399
 5694POPC   GL172649  41.557   1.716   5.745
 5694POPC   GL272650  41.365   2.017   5.836
 5694POPC   C1A72651  41.752   1.881   6.153
 5694POPC   D2A72652  41.624   2.093   6.539
 5694POPC   C3A72653  41.766   2.054   6.985
 5694POPC   C4A72654  41.868   1.984   7.418
 5694POPC   C1B72655  41.240   1.813   6.230
 5694POPC   C2B72656  41.162   1.903   6.679
 5694POPC   C3B72657  41.285   2.225   6.991
 5694POPC   C4B72658  41.446   2.294   7.408
 5695POPC   NC372659  42.886  37.734   5.372
 5695POPC   PO472660  43.614  37.670   5.386
 5695POPC   GL172661  43.305  37.708   5.705
 5695POPC   GL272662  43.084  37.440   5.748
 5695POPC   C1A72663  43.040  37.877   6.063
 5695POPC   D2A72664  42.949  38.101   6.491
 5695POPC   C3A72665  42.800  37.904   6.872
 5695POPC   C4A72666  43.026  37.836   7.256
 5695POPC   C1B72667  43.012  37.328   6.134
 5695POPC   C2B72668  43.002  37.574   6.485
 5695POPC   C3B72669  43.151  37.525   6.854
 5695POPC   C4B72670  43.061  37.309   7.198
 5696POPC   NC372671  12.297  11.728   5.553
 5696POPC   PO472672  11.813  12.089   5.390
 5696POPC   GL172673  11.962  12.036   5.796
 5696POPC   GL272674  11.971  12.339   5.913
 5696POPC   C1A72675  11.810  11.955   6.227
 5696POPC   D2A72676  12.007  12.046   6.641
 5696POPC   C3A72677  12.007  11.823   7.044
 5696POPC   C4A72678  12.456  11.795   7.082
 5696POPC   C1B72679  12.040  12.567   6.278
 5696POPC   C2B72680  12.093  12.580   6.696
 5696POPC   C3B72681  11.999  12.376   7.043
 5696POPC   C4B72682  12.113  12.227   7.393
 5697POPC   NC372683  19.776   3.637   5.360
 5697POPC   PO472684  19.513   3.143   5.749
 5697POPC   GL172685  19.823   3.432   5.829
 5697POPC   GL272686  20.002   3.171   5.984
 5697POPC   C1A72687  19.942   3.674   6.186
 5697POPC   D2A72688  19.895   3.498   6.608
 5697POPC   C3A72689  20.087   3.689   6.982
 5697POPC   C4A72690  19.892   3.770   7.412
 5697POPC   C1B72691  20.305   3.211   6.321
 5697POPC   C2B72692  20.306   3.223   6.756
 5697POPC   C3B72693  19.999   3.175   7.050
 5697POPC   C4B72694  20.155   3.323   7.410
 5698POPC   NC372695   8.347  11.714   5.245
 5698POPC   PO472696   8.187  11.096   5.308
 5698POPC   GL172697   8.200  11.241   5.739
 5698POPC   GL272698   8.458  11.533   5.728
 5698POPC   C1A72699   7.899  11.213   6.113
 5698POPC   D2A72700   8.130  11.326   6.477
 5698POPC   C3A72701   8.042  11.319   6.878
 5698POPC   C4A72702   8.235  11.204   7.254
 5698POPC   C1B72703   8.537  11.428   6.161
 5698POPC   C2B72704   8.546  11.630   6.578
 5698POPC   C3B72705   8.519  11.535   7.018
 5698POPC   C4B72706   8.543  11.506   7.521
 5699POPC   NC372707   4.138  25.689   5.364
 5699POPC   PO472708   4.474  25.085   5.420
 5699POPC   GL172709   4.363  25.227   5.819
 5699POPC   GL272710   4.387  25.589   5.813
 5699POPC   C1A72711   4.269  25.057   6.223
 5699POPC   D2A72712   4.125  24.925   6.618
 5699POPC   C3A72713   4.202  25.046   7.046
 5699POPC   C4A72714   3.834  25.052   7.288
 5699POPC   C1B72715   4.259  25.584   6.256
 5699POPC   C2B72716   4.316  25.424   6.690
 5699POPC   C3B72717   4.457  25.500   7.139
 5699POPC   C4B72718   4.590  25.624   7.569
 5700POPC   NC372719  27.149  13.389   5.602
 5700POPC   PO472720  26.473  13.399   5.289
 5700POPC   GL172721  26.551  13.701   5.751
 5700POPC   GL272722  26.908  13.788   5.845
 5700POPC   C1A72723  26.504  13.720   6.204
 5700POPC   D2A72724  26.633  13.388   6.491
 5700POPC   C3A72725  26.918  13.475   6.807
 5700POPC   C4A72726  26.884  13.438   7.215
 5700POPC   C1B72727  27.006  13.741   6.310
 5700POPC   C2B72728  26.800  13.955   6.679
 5700POPC   C3B72729  26.854  13.957   7.151
 5700POPC   C4B72730  26.843  14.043   7.626
 5701POPC   NC372731  10.906   7.476   5.443
 5701POPC   PO472732  11.439   7.810   5.139
 5701POPC   GL172733  11.407   7.521   5.642
 5701POPC   GL272734  11.107   7.562   5.887
 5701POPC   C1A72735  11.441   7.314   6.149
 5701POPC   D2A72736  11.418   7.399   6.644
 5701POPC   C3A72737  11.560   7.165   7.063
 5701POPC   C4A72738  11.541   7.171   7.539
 5701POPC   C1B72739  11.041   7.624   6.328
 5701POPC   C2B72740  10.933   7.525   6.749
 5701POPC   C3B72741  11.211   7.539   7.089
 5701POPC   C4B72742  11.425   7.828   7.282
 5702POPC   NC372743  44.767  21.644   5.426
 5702POPC   PO472744   0.185  21.171   5.369
 5702POPC   GL172745  44.910  21.319   5.804
 5702POPC   GL272746  44.535  21.237   5.960
 5702POPC   C1A72747  44.784  21.612   6.177
 5702POPC   D2A72748  44.497  21.687   6.553
 5702POPC   C3A72749  44.583  21.442   6.927
 5702POPC   C4A72750  44.651  21.520   7.388
 5702POPC   C1B72751  44.787  21.102   6.327
 5702POPC   C2B72752  44.897  21.072   6.780
 5702POPC   C3B72753  44.715  20.883   7.149
 5702POPC   C4B72754  44.543  21.032   7.544
 5703POPC   NC372755  17.581  38.331   5.292
 5703POPC   PO472756  17.690  37.582   5.410
 5703POPC   GL172757  17.528  37.596   5.820
 5703POPC   GL272758  17.653  37.883   5.885
 5703POPC   C1A72759  17.553  37.626   6.284
 5703POPC   D2A72760  17.410  37.456   6.631
 5703POPC   C3A72761  17.659  37.555   6.932
 5703POPC   C4A72762  17.601  37.739   7.289
 5703POPC   C1B72763  17.770  38.123   6.246
 5703POPC   C2B72764  17.615  37.986   6.632
 5703POPC   C3B72765  17.773  38.097   6.981
 5703POPC   C4B72766  17.697  38.278   7.328
 5704POPC   NC372767  15.739  44.891   5.503
 5704POPC   PO472768  16.242  44.509   5.338
 5704POPC   GL172769  16.073  44.603   5.766
 5704POPC   GL272770  15.751  44.462   5.885
 5704POPC   C1A72771  16.119  44.653   6.209
 5704POPC   D2A72772  15.986  44.425   6.560
 5704POPC   C3A72773  15.999  44.629   6.951
 5704POPC   C4A72774  15.789  44.424   7.249
 5704POPC   C1B72775  15.595  44.637   6.302
 5704POPC   C2B72776  15.523  44.733   6.758
 5704POPC   C3B72777  15.576  44.874   7.205
 5704POPC   C4B72778  15.680  44.981   7.646
 5705POPC   NC372779   6.984   8.371   5.562
 5705POPC   PO472780   7.584   8.348   5.493
 5705POPC   GL172781   7.411   8.232   5.877
 5705POPC   GL272782   7.220   7.938   5.798
 5705POPC   C1A72783   7.557   8.128   6.284
 5705POPC   D2A72784   7.507   7.895   6.632
 5705POPC   C3A72785   7.587   8.118   7.008
 5705POPC   C4A72786   7.495   8.198   7.441
 5705POPC   C1B72787   7.150   7.804   6.227
 5705POPC   C2B72788   7.009   7.887   6.621
 5705POPC   C3B72789   7.150   7.845   7.021
 5705POPC   C4B72790   7.034   7.984   7.403
 5706POPC   NC372791   8.812   7.750   5.224
 5706POPC   PO472792   8.865   7.120   5.352
 5706POPC   GL172793   9.052   7.459   5.643
 5706POPC   GL272794   8.891   7.812   5.726
 5706POPC   C1A72795   9.104   7.488   6.094
 5706POPC   D2A72796   8.888   7.345   6.479
 5706POPC   C3A72797   9.071   7.254   6.893
 5706POPC   C4A72798   8.824   7.110   7.248
 5706POPC   C1B72799   9.016   7.985   6.167
 5706POPC   C2B72800   9.117   7.773   6.582
 5706POPC   C3B72801   8.814   7.683   6.894
 5706POPC   C4B72802   8.750   7.608   7.316
 5707POPC   NC372803  39.310  33.667   5.349
 5707POPC   PO472804  38.837  34.193   5.419
 5707POPC   GL172805  39.129  33.953   5.753
 5707POPC   GL272806  39.249  33.556   5.823
 5707POPC   C1A72807  39.161  33.894   6.210
 5707POPC   D2A72808  39.339  34.080   6.578
 5707POPC   C3A72809  39.085  33.982   6.927
 5707POPC   C4A72810  39.164  34.210   7.267
 5707POPC   C1B72811  39.605  33.611   6.095
 5707POPC   C2B72812  39.480  33.573   6.518
 5707POPC   C3B72813  39.582  33.732   6.898
 5707POPC   C4B72814  39.422  33.737   7.283
 5708POPC   NC372815  34.385   2.540   5.189
 5708POPC   PO472816  34.899   2.979   5.405
 5708POPC   GL172817  34.640   2.756   5.729
 5708POPC   GL272818  34.314   2.967   5.695
 5708POPC   C1A72819  34.774   2.600   6.167
 5708POPC   D2A72820  34.762   2.792   6.583
 5708POPC   C3A72821  34.867   2.625   6.982
 5708POPC   C4A72822  34.633   2.754   7.340
 5708POPC   C1B72823  34.185   2.794   6.106
 5708POPC   C2B72824  34.319   2.528   6.464
 5708POPC   C3B72825  34.372   2.632   6.907
 5708POPC   C4B72826  34.182   2.968   7.230
 5709POPC   NC372827   6.403  32.261   5.408
 5709POPC   PO472828   6.960  32.483   5.207
 5709POPC   GL172829   6.921  32.282   5.704
 5709POPC   GL272830   6.579  32.202   5.887
 5709POPC   C1A72831   6.861  32.493   6.192
 5709POPC   D2A72832   6.702  32.443   6.647
 5709POPC   C3A72833   6.989  32.494   7.021
 5709POPC   C4A72834   6.996  32.368   7.468
 5709POPC   C1B72835   6.415  32.080   6.312
 5709POPC   C2B72836   6.421  32.008   6.773
 5709POPC   C3B72837   6.596  32.170   7.149
 5709POPC   C4B72838   6.531  32.146   7.584
 5710POPC   NC372839  18.093   5.742   5.200
 5710POPC   PO472840  18.737   5.637   5.170
 5710POPC   GL172841  18.445   5.636   5.589
 5710POPC   GL272842  18.535   5.920   5.846
 5710POPC   C1A72843  18.281   5.514   6.041
 5710POPC   D2A72844  18.395   5.325   6.473
 5710POPC   C3A72845  18.261   5.499   6.875
 5710POPC   C4A72846  18.157   5.734   7.238
 5710POPC   C1B72847  18.670   5.745   6.282
 5710POPC   C2B72848  18.731   5.669   6.745
 5710POPC   C3B72849  18.625   5.909   7.154
 5710POPC   C4B72850  18.746   6.234   7.466
 5711POPC   NC372851  33.665  22.005   5.354
 5711POPC   PO472852  33.881  22.681   5.188
 5711POPC   GL172853  33.859  22.438   5.605
 5711POPC   GL272854  33.529  22.405   5.725
 5711POPC   C1A72855  33.849  22.239   6.062
 5711POPC   D2A72856  34.047  22.220   6.473
 5711POPC   C3A72857  33.965  22.276   6.894
 5711POPC   C4A72858  33.681  22.051   7.116
 5711POPC   C1B72859  33.487  22.620   6.087
 5711POPC   C2B72860  33.632  22.546   6.484
 5711POPC   C3B72861  33.475  22.436   6.868
 5711POPC   C4B72862  33.624  22.547   7.280
 5712POPC   NC372863  30.880   1.699   5.485
 5712POPC   PO472864  30.251   1.936   5.668
 5712POPC   GL172865  30.592   1.978   5.852
 5712POPC   GL272866  30.624   1.630   5.906
 5712POPC   C1A72867  30.688   2.205   6.223
 5712POPC   D2A72868  30.851   2.137   6.644
 5712POPC   C3A72869  30.512   2.164   6.965
 5712POPC   C4A72870  30.547   2.079   7.411
 5712POPC   C1B72871  30.754   1.683   6.315
 5712POPC   C2B72872  30.531   1.690   6.698
 5712POPC   C3B72873  30.680   1.663   7.092
 5712POPC   C4B72874  31.071   1.577   7.279
 5713POPC   NC372875   0.388  40.479   5.471
 5713POPC   PO472876   0.959  40.750   5.183
 5713POPC   GL172877   0.808  40.800   5.641
 5713POPC   GL272878   0.464  40.932   5.768
 5713POPC   C1A72879   0.834  40.793   6.111
 5713POPC   D2A72880   0.654  40.605   6.480
 5713POPC   C3A72881   0.470  40.803   6.829
 5713POPC   C4A72882   0.528  40.676   7.218
 5713POPC   C1B72883   0.292  40.830   6.208
 5713POPC   C2B72884   0.116  40.553   6.538
 5713POPC   C3B72885   0.018  40.593   6.998
 5713POPC   C4B72886   0.092  40.904   7.327
 5714POPC   NC372887   5.311  36.919   5.431
 5714POPC   PO472888   4.638  37.114   5.482
 5714POPC   GL172889   4.908  36.882   5.804
 5714POPC   GL272890   4.802  36.506   5.906
 5714POPC   C1A72891   5.216  36.796   6.128
 5714POPC   D2A72892   5.444  36.998   6.476
 5714POPC   C3A72893   5.197  37.032   6.846
 5714POPC   C4A72894   5.154  36.786   7.186
 5714POPC   C1B72895   4.715  36.622   6.306
 5714POPC   C2B72896   4.755  36.932   6.612
 5714POPC   C3B72897   4.655  36.917   7.057
 5714POPC   C4B72898   4.737  36.843   7.496
 5715POPC   NC372899  14.960  13.657   5.569
 5715POPC   PO472900  14.250  13.586   5.508
 5715POPC   GL172901  14.461  13.402   5.831
 5715POPC   GL272902  14.717  13.197   5.724
 5715POPC   C1A72903  14.371  13.450   6.248
 5715POPC   D2A72904  14.341  13.794   6.504
 5715POPC   C3A72905  14.243  13.702   6.893
 5715POPC   C4A72906  14.369  13.816   7.291
 5715POPC   C1B72907  14.835  13.228   6.184
 5715POPC   C2B72908  14.776  13.414   6.604
 5715POPC   C3B72909  14.560  13.291   6.980
 5715POPC   C4B72910  14.198  13.340   7.259
 5716POPC   NC372911  40.074  10.876   5.362
 5716POPC   PO472912  40.099  10.220   5.263
 5716POPC   GL172913  40.111  10.398   5.730
 5716POPC   GL272914  40.288  10.732   5.810
 5716POPC   C1A72915  39.870  10.384   6.150
 5716POPC   D2A72916  39.806  10.142   6.569
 5716POPC   C3A72917  39.764  10.421   6.952
 5716POPC   C4A72918  39.972  10.442   7.366
 5716POPC   C1B72919  40.341  10.586   6.244
 5716POPC   C2B72920  40.153  10.664   6.660
 5716POPC   C3B72921  40.307  10.725   7.099
 5716POPC   C4B72922  40.311  10.730   7.604
 5717POPC   NC372923  43.273  21.897   5.561
 5717POPC   PO472924  42.966  22.457   5.436
 5717POPC   GL172925  42.891  22.140   5.825
 5717POPC   GL272926  42.649  21.831   5.869
 5717POPC   C1A72927  43.103  22.222   6.258
 5717POPC   D2A72928  42.979  22.357   6.686
 5717POPC   C3A72929  43.279  22.234   7.003
 5717POPC   C4A72930  43.271  22.306   7.453
 5717POPC   C1B72931  42.771  21.847   6.273
 5717POPC   C2B72932  43.003  21.843   6.622
 5717POPC   C3B72933  42.854  21.950   6.985
 5717POPC   C4B72934  43.075  21.870   7.329
 5718POPC   NC372935   1.523   3.415   5.444
 5718POPC   PO472936   0.831   3.556   5.401
 5718POPC   GL172937   1.112   3.675   5.726
 5718POPC   GL272938   0.998   3.448   5.953
 5718POPC   C1A72939   1.331   3.840   6.116
 5718POPC   D2A72940   1.261   3.966   6.578
 5718POPC   C3A72941   1.263   3.625   6.905
 5718POPC   C4A72942   1.216   3.652   7.359
 5718POPC   C1B72943   1.086   3.509   6.403
 5718POPC   C2B72944   0.939   3.280   6.720
 5718POPC   C3B72945   1.040   3.144   7.130
 5718POPC   C4B72946   0.879   3.310   7.483
 5719POPC   NC372947  43.897  20.092   5.635
 5719POPC   PO472948  44.111  19.472   5.327
 5719POPC   GL172949  43.948  19.563   5.751
 5719POPC   GL272950  43.655  19.373   5.857
 5719POPC   C1A72951  44.147  19.675   6.152
 5719POPC   D2A72952  44.093  19.897   6.534
 5719POPC   C3A72953  44.024  19.674   6.916
 5719POPC   C4A72954  44.083  19.759   7.360
 5719POPC   C1B72955  43.638  19.665   6.201
 5719POPC   C2B72956  43.581  19.751   6.617
 5719POPC   C3B72957  43.583  19.937   6.999
 5719POPC   C4B72958  43.249  20.108   7.212
 5720POPC   NC372959  27.277  19.532   5.442
 5720POPC   PO472960  27.506  20.127   5.388
 5720POPC   GL172961  27.467  20.063   5.831
 5720POPC   GL272962  27.274  19.768   5.904
 5720POPC   C1A72963  27.651  20.009   6.254
 5720POPC   D2A72964  27.637  20.217   6.653
 5720POPC   C3A72965  27.786  19.926   6.963
 5720POPC   C4A72966  28.065  19.940   7.313
 5720POPC   C1B72967  27.123  20.012   6.259
 5720POPC   C2B72968  27.254  19.878   6.636
 5720POPC   C3B72969  27.284  20.017   7.022
 5720POPC   C4B72970  27.365  19.742   7.368
 5721POPC   NC372971  40.451  37.838   5.521
 5721POPC   PO472972  41.050  37.524   5.453
 5721POPC   GL172973  40.841  37.477   5.844
 5721POPC   GL272974  40.468  37.443   5.825
 5721POPC   C1A72975  40.987  37.682   6.209
 5721POPC   D2A72976  40.842  37.776   6.586
 5721POPC   C3A72977  41.053  37.742   6.957
 5721POPC   C4A72978  40.916  37.777   7.355
 5721POPC   C1B72979  40.459  37.670   6.199
 5721POPC   C2B72980  40.382  37.560   6.611
 5721POPC   C3B72981  40.539  37.640   6.999
 5721POPC   C4B72982  40.536  37.451   7.365
 5722POPC   NC372983  31.098   7.206   5.576
 5722POPC   PO472984  30.497   7.462   5.302
 5722POPC   GL172985  30.623   7.352   5.706
 5722POPC   GL272986  30.509   7.016   5.768
 5722POPC   C1A72987  30.625   7.402   6.157
 5722POPC   D2A72988  30.517   7.494   6.587
 5722POPC   C3A72989  30.718   7.393   6.991
 5722POPC   C4A72990  30.933   7.593   7.324
 5722POPC   C1B72991  30.580   6.901   6.219
 5722POPC   C2B72992  30.553   6.976   6.693
 5722POPC   C3B72993  30.504   6.959   7.164
 5722POPC   C4B72994  30.631   7.117   7.558
 5723POPC   NC372995  31.124  13.039   5.447
 5723POPC   PO472996  31.352  12.476   5.584
 5723POPC   GL172997  31.530  12.824   5.821
 5723POPC   GL272998  31.909  12.728   5.892
 5723POPC   C1A72999  31.570  13.005   6.249
 5723POPC   D2A73000  31.641  13.043   6.709
 5723POPC   C3A73001  31.318  12.849   6.936
 5723POPC   C4A73002  31.118  12.884   7.311
 5723POPC   C1B73003  31.651  12.488   6.197
 5723POPC   C2B73004  31.611  12.516   6.630
 5723POPC   C3B73005  31.469  12.359   7.011
 5723POPC   C4B73006  31.734  12.547   7.291
 5724POPC   NC373007  33.571   0.030   5.495
 5724POPC   PO473008  33.977   0.644   5.519
 5724POPC   GL173009  33.926   0.476   5.910
 5724POPC   GL273010  33.605   0.390   5.869
 5724POPC   C1A73011  33.801   0.621   6.312
 5724POPC   D2A73012  33.594   0.488   6.660
 5724POPC   C3A73013  33.825   0.429   7.044
 5724POPC   C4A73014  33.788   0.719   7.394
 5724POPC   C1B73015  33.566   0.158   6.238
 5724POPC   C2B73016  33.333   0.043   6.611
 5724POPC   C3B73017  33.287   0.272   6.999
 5724POPC   C4B73018  33.458   0.342   7.375
 5725POPC   NC373019  35.040   2.491   5.431
 5725POPC   PO473020  35.688   2.763   5.338
 5725POPC   GL173021  35.459   2.641   5.731
 5725POPC   GL273022  35.145   2.781   5.831
 5725POPC   C1A73023  35.518   2.768   6.178
 5725POPC   D2A73024  35.246   2.765   6.524
 5725POPC   C3A73025  35.348   2.725   6.967
 5725POPC   C4A73026  35.570   2.442   7.240
 5725POPC   C1B73027  35.112   3.116   6.097
 5725POPC   C2B73028  34.994   3.264   6.466
 5725POPC   C3B73029  35.054   3.302   6.865
 5725POPC   C4B73030  35.023   3.055   7.207
 5726POPC   NC373031  34.264  13.379   5.519
 5726POPC   PO473032  34.714  13.860   5.261
 5726POPC   GL173033  34.682  13.699   5.700
 5726POPC   GL273034  34.350  13.794   5.805
 5726POPC   C1A73035  34.612  13.565   6.164
 5726POPC   D2A73036  34.577  13.751   6.613
 5726POPC   C3A73037  34.645  13.517   7.032
 5726POPC   C4A73038  34.913  13.401   7.414
 5726POPC   C1B73039  34.146  13.860   6.165
 5726POPC   C2B73040  34.073  13.789   6.580
 5726POPC   C3B73041  34.243  13.872   6.995
 5726POPC   C4B73042  34.180  13.623   7.355
 5727POPC   NC373043  20.684  33.155   5.473
 5727POPC   PO473044  21.034  32.692   5.808
 5727POPC   GL173045  20.946  33.137   5.953
 5727POPC   GL273046  20.609  33.323   5.946
 5727POPC   C1A73047  20.834  33.231   6.394
 5727POPC   D2A73048  20.539  33.044   6.708
 5727POPC   C3A73049  20.733  33.134   7.083
 5727POPC   C4A73050  21.042  32.849   7.232
 5727POPC   C1B73051  20.330  33.347   6.322
 5727POPC   C2B73052  20.412  33.534   6.736
 5727POPC   C3B73053  20.366  33.484   7.189
 5727POPC   C4B73054  20.388  33.168   7.486
 5728POPC   NC373055  23.701  26.332   5.435
 5728POPC   PO473056  23.775  25.744   5.286
 5728POPC   GL173057  23.489  25.856   5.691
 5728POPC   GL273058  23.477  26.187   5.865
 5728POPC   C1A73059  23.586  25.783   6.173
 5728POPC   D2A73060  23.836  25.883   6.557
 5728POPC   C3A73061  23.743  26.081   6.983
 5728POPC   C4A73062  23.772  26.098   7.454
 5728POPC   C1B73063  23.728  26.355   6.207
 5728POPC   C2B73064  23.888  26.413   6.625
 5728POPC   C3B73065  24.133  26.536   6.980
 5728POPC   C4B73066  24.171  26.389   7.386
 5729POPC   NC373067  10.673  34.051   5.475
 5729POPC   PO473068   9.970  33.892   5.298
 5729POPC   GL173069  10.245  33.806   5.716
 5729POPC   GL273070  10.517  33.937   5.930
 5729POPC   C1A73071  10.228  33.638   6.205
 5729POPC   D2A73072  10.375  33.549   6.638
 5729POPC   C3A73073  10.506  33.851   6.911
 5729POPC   C4A73074  10.363  34.072   7.223
 5729POPC   C1B73075  10.730  33.722   6.285
 5729POPC   C2B73076  10.944  33.750   6.677
 5729POPC   C3B73077  10.909  33.503   7.043
 5729POPC   C4B73078  10.658  33.610   7.391
 5730POPC   NC373079  26.037  24.871   5.539
 5730POPC   PO473080  26.277  25.605   5.537
 5730POPC   GL173081  26.124  25.378   5.850
 5730POPC   GL273082  26.352  25.071   5.872
 5730POPC   C1A73083  25.942  25.531   6.278
 5730POPC   D2A73084  25.906  25.742   6.705
 5730POPC   C3A73085  26.007  25.463   7.058
 5730POPC   C4A73086  26.293  25.088   7.164
 5730POPC   C1B73087  25.972  25.040   6.178
 5730POPC   C2B73088  26.068  25.038   6.610
 5730POPC   C3B73089  25.823  24.984   6.967
 5730POPC   C4B73090  25.788  25.096   7.392
 5731POPC   NC373091  43.009  28.930   5.404
 5731POPC   PO473092  42.886  29.616   5.314
 5731POPC   GL173093  42.967  29.356   5.713
 5731POPC   GL273094  43.336  29.321   5.746
 5731POPC   C1A73095  43.052  29.111   6.133
 5731POPC   D2A73096  42.917  29.051   6.585
 5731POPC   C3A73097  43.123  29.003   6.985
 5731POPC   C4A73098  43.238  28.658   7.220
 5731POPC   C1B73099  43.466  29.431   6.190
 5731POPC   C2B73100  43.395  29.314   6.645
 5731POPC   C3B73101  43.159  29.509   7.005
 5731POPC   C4B73102  43.321  29.649   7.442
 5732POPC   NC373103  34.803  32.068   5.553
 5732POPC   PO473104  34.233  32.601   5.460
 5732POPC   GL173105  34.413  32.329   5.789
 5732POPC   GL273106  34.756  32.424   5.908
 5732POPC   C1A73107  34.408  32.072   6.176
 5732POPC   D2A73108  34.424  32.099   6.640
 5732POPC   C3A73109  34.643  32.413   6.865
 5732POPC   C4A73110  34.391  32.454   7.212
 5732POPC   C1B73111  34.741  32.431   6.337
 5732POPC   C2B73112  34.914  32.067   6.494
 5732POPC   C3B73113  34.908  31.950   6.896
 5732POPC   C4B73114  34.613  32.010   7.214
 5733POPC   NC373115  16.514  15.666   5.740
 5733POPC   PO473116  16.858  16.216   5.502
 5733POPC   GL173117  16.886  16.107   5.911
 5733POPC   GL273118  16.990  15.794   5.896
 5733POPC   C1A73119  16.675  15.936   6.303
 5733POPC   D2A73120  16.482  15.815   6.714
 5733POPC   C3A73121  16.645  16.011   7.116
 5733POPC   C4A73122  16.760  15.880   7.571
 5733POPC   C1B73123  17.183  15.974   6.298
 5733POPC   C2B73124  17.022  15.860   6.666
 5733POPC   C3B73125  16.924  15.605   6.950
 5733POPC   C4B73126  17.212  15.717   7.249
 5734POPC   NC373127  38.208  28.267   5.319
 5734POPC   PO473128  38.823  28.390   5.731
 5734POPC   GL173129  38.404  28.564   5.749
 5734POPC   GL273130  38.188  28.291   5.855
 5734POPC   C1A73131  38.238  28.672   6.181
 5734POPC   D2A73132  38.322  28.380   6.561
 5734POPC   C3A73133  38.459  28.546   6.958
 5734POPC   C4A73134  38.815  28.516   7.237
 5734POPC   C1B73135  37.945  28.208   6.245
 5734POPC   C2B73136  37.934  28.069   6.689
 5734POPC   C3B73137  38.120  28.167   7.082
 5734POPC   C4B73138  38.529  28.104   7.230
 5735POPC   NC373139  19.166  31.400   5.381
 5735POPC   PO473140  18.788  31.997   5.477
 5735POPC   GL173141  18.877  31.646   5.804
 5735POPC   GL273142  18.983  31.280   5.834
 5735POPC   C1A73143  18.991  31.651   6.228
 5735POPC   D2A73144  19.251  31.630   6.582
 5735POPC   C3A73145  19.158  31.659   6.980
 5735POPC   C4A73146  19.227  31.297   7.190
 5735POPC   C1B73147  18.993  31.156   6.260
 5735POPC   C2B73148  18.849  31.330   6.636
 5735POPC   C3B73149  18.731  31.382   7.025
 5735POPC   C4B73150  18.766  31.466   7.469
 5736POPC   NC373151  12.714  26.600   5.000
 5736POPC   PO473152  13.269  26.802   5.474
 5736POPC   GL173153  12.940  26.812   5.801
 5736POPC   GL273154  12.709  27.105   5.778
 5736POPC   C1A73155  13.020  26.725   6.254
 5736POPC   D2A73156  12.844  26.876   6.641
 5736POPC   C3A73157  13.070  26.733   6.991
 5736POPC   C4A73158  13.096  26.847   7.404
 5736POPC   C1B73159  12.540  26.863   6.149
 5736POPC   C2B73160  12.334  26.915   6.566
 5736POPC   C3B73161  12.479  27.135   6.914
 5736POPC   C4B73162  12.604  26.855   7.201
 5737POPC   NC373163   9.380  40.962   5.549
 5737POPC   PO473164   9.923  40.547   5.450
 5737POPC   GL173165   9.735  40.669   5.841
 5737POPC   GL273166   9.473  40.452   5.918
 5737POPC   C1A73167   9.799  40.853   6.260
 5737POPC   D2A73168   9.666  40.824   6.691
 5737POPC   C3A73169  10.013  40.850   6.989
 5737POPC   C4A73170  10.088  40.579   7.297
 5737POPC   C1B73171   9.292  40.719   6.204
 5737POPC   C2B73172   9.140  40.739   6.613
 5737POPC   C3B73173   9.251  40.927   6.995
 5737POPC   C4B73174   9.587  40.787   7.246
 5738POPC   NC373175  44.872   0.788   5.515
 5738POPC   PO473176  44.779   0.183   5.317
 5738POPC   GL173177  44.791   0.272   5.753
 5738POPC   GL273178  44.596   0.560   5.882
 5738POPC   C1A73179  44.703   0.151   6.183
 5738POPC   D2A73180  44.405   0.102   6.522
 5738POPC   C3A73181  44.645   0.137   6.896
 5738POPC   C4A73182  44.959   0.279   7.174
 5738POPC   C1B73183  44.580   0.657   6.337
 5738POPC   C2B73184  44.256   0.817   6.632
 5738POPC   C3B73185  44.231   0.828   7.071
 5738POPC   C4B73186  44.484   0.472   7.253
 5739POPC   NC373187   4.687  13.753   5.438
 5739POPC   PO473188   3.925  13.788   5.430
 5739POPC   GL173189   4.243  13.784   5.733
 5739POPC   GL273190   4.385  13.441   5.733
 5739POPC   C1A73191   4.337  13.743   6.173
 5739POPC   D2A73192   4.150  13.564   6.535
 5739POPC   C3A73193   3.992  13.820   6.851
 5739POPC   C4A73194   4.156  13.688   7.209
 5739POPC   C1B73195   4.686  13.353   6.077
 5739POPC   C2B73196   4.629  13.259   6.504
 5739POPC   C3B73197   4.550  13.493   6.892
 5739POPC   C4B73198   4.656  13.613   7.316
 5740POPC   NC373199  21.820  18.775   5.387
 5740POPC   PO473200  22.376  19.108   5.247
 5740POPC   GL173201  22.287  18.973   5.694
 5740POPC   GL273202  22.354  18.612   5.763
 5740POPC   C1A73203  22.411  18.990   6.154
 5740POPC   D2A73204  22.182  19.194   6.485
 5740POPC   C3A73205  22.263  19.019   6.876
 5740POPC   C4A73206  22.159  19.163   7.262
 5740POPC   C1B73207  22.002  18.700   6.044
 5740POPC   C2B73208  21.987  18.736   6.505
 5740POPC   C3B73209  21.813  18.787   6.960
 5740POPC   C4B73210  21.897  18.719   7.382
 5741POPC   NC373211   8.990  19.908   5.442
 5741POPC   PO473212   8.915  19.241   5.359
 5741POPC   GL173213   8.709  19.577   5.739
 5741POPC   GL273214   8.630  19.966   5.801
 5741POPC   C1A73215   8.655  19.633   6.214
 5741POPC   D2A73216   8.968  19.553   6.559
 5741POPC   C3A73217   8.863  19.455   6.973
 5741POPC   C4A73218   8.914  19.612   7.340
 5741POPC   C1B73219   8.984  20.024   6.129
 5741POPC   C2B73220   8.964  20.066   6.601
 5741POPC   C3B73221   8.909  20.070   7.059
 5741POPC   C4B73222   8.627  20.019   7.419
 5742POPC   NC373223  18.821   1.993   5.387
 5742POPC   PO473224  19.393   1.787   5.097
 5742POPC   GL173225  19.236   1.746   5.612
 5742POPC   GL273226  19.069   2.049   5.816
 5742POPC   C1A73227  19.304   1.710   6.108
 5742POPC   D2A73228  19.069   1.779   6.520
 5742POPC   C3A73229  19.245   1.934   6.939
 5742POPC   C4A73230  19.155   1.780   7.403
 5742POPC   C1B73231  18.800   2.291   6.086
 5742POPC   C2B73232  18.719   2.377   6.495
 5742POPC   C3B73233  18.769   2.180   6.865
 5742POPC   C4B73234  18.935   2.191   7.258
 5743POPC   NC373235  40.835  41.690   5.565
 5743POPC   PO473236  41.316  41.234   5.548
 5743POPC   GL173237  41.109  41.441   5.927
 5743POPC   GL273238  41.123  41.807   5.973
 5743POPC   C1A73239  40.703  41.417   6.174
 5743POPC   D2A73240  40.634  41.154   6.535
 5743POPC   C3A73241  40.828  41.417   6.847
 5743POPC   C4A73242  40.763  41.468   7.295
 5743POPC   C1B73243  41.090  41.714   6.413
 5743POPC   C2B73244  40.880  41.909   6.763
 5743POPC   C3B73245  40.801  41.963   7.190
 5743POPC   C4B73246  40.689  41.908   7.631
 5744POPC   NC373247   8.612   8.395   5.442
 5744POPC   PO473248   9.192   8.065   5.342
 5744POPC   GL173249   9.085   8.296   5.755
 5744POPC   GL273250   8.777   8.404   5.923
 5744POPC   C1A73251   9.252   8.442   6.170
 5744POPC   D2A73252   9.329   8.244   6.570
 5744POPC   C3A73253   8.946   8.194   6.789
 5744POPC   C4A73254   8.988   8.056   7.200
 5744POPC   C1B73255   8.623   8.353   6.357
 5744POPC   C2B73256   8.531   8.551   6.768
 5744POPC   C3B73257   8.786   8.538   7.138
 5744POPC   C4B73258   8.737   8.560   7.580
 5745POPC   NC373259  28.764   7.069   5.466
 5745POPC   PO473260  29.109   6.486   5.267
 5745POPC   GL173261  29.100   6.662   5.698
 5745POPC   GL273262  29.475   6.626   5.722
 5745POPC   C1A73263  29.184   6.627   6.178
 5745POPC   D2A73264  29.093   6.835   6.596
 5745POPC   C3A73265  29.135   6.563   6.957
 5745POPC   C4A73266  28.941   6.611   7.364
 5745POPC   C1B73267  29.613   6.875   6.066
 5745POPC   C2B73268  29.594   6.815   6.479
 5745POPC   C3B73269  29.529   6.901   6.898
 5745POPC   C4B73270  29.439   6.756   7.335
 5746POPC   NC373271  20.967  14.232   5.612
 5746POPC   PO473272  21.538  14.314   5.460
 5746POPC   GL173273  21.429  14.421   5.887
 5746POPC   GL273274  21.060  14.395   6.066
 5746POPC   C1A73275  21.449  14.193   6.281
 5746POPC   D2A73276  21.165  14.197   6.584
 5746POPC   C3A73277  21.459  14.085   6.873
 5746POPC   C4A73278  21.516  14.141   7.253
 5746POPC   C1B73279  21.314  14.696   6.291
 5746POPC   C2B73280  21.445  14.617   6.669
 5746POPC   C3B73281  21.235  14.509   7.035
 5746POPC   C4B73282  21.297  14.882   7.198
 5747POPC   NC373283  22.189  33.419   5.338
 5747POPC   PO473284  21.886  32.865   5.314
 5747POPC   GL173285  21.991  32.804   5.751
 5747POPC   GL273286  22.247  33.057   5.734
 5747POPC   C1A73287  21.866  32.837   6.203
 5747POPC   D2A73288  21.757  32.760   6.657
 5747POPC   C3A73289  22.030  32.944   6.996
 5747POPC   C4A73290  22.014  32.777   7.425
 5747POPC   C1B73291  22.361  32.884   6.135
 5747POPC   C2B73292  22.269  32.802   6.556
 5747POPC   C3B73293  22.554  32.687   6.891
 5747POPC   C4B73294  22.491  32.688   7.319
 5748POPC   NC373295  18.607  16.493   5.283
 5748POPC   PO473296  18.241  17.105   5.424
 5748POPC   GL173297  18.272  16.811   5.774
 5748POPC   GL273298  18.500  16.535   5.788
 5748POPC   C1A73299  18.116  16.832   6.175
 5748POPC   D2A73300  18.297  17.042   6.512
 5748POPC   C3A73301  18.197  16.750   6.799
 5748POPC   C4A73302  18.208  16.801   7.230
 5748POPC   C1B73303  18.617  16.319   6.185
 5748POPC   C2B73304  18.461  16.259   6.611
 5748POPC   C3B73305  18.493  16.420   7.030
 5748POPC   C4B73306  18.728  16.348   7.371
 5749POPC   NC373307  38.017  29.248   5.334
 5749POPC   PO473308  38.593  28.936   5.299
 5749POPC   GL173309  38.648  29.038   5.744
 5749POPC   GL273310  38.275  29.092   5.772
 5749POPC   C1A73311  38.861  29.322   6.080
 5749POPC   D2A73312  38.767  29.535   6.506
 5749POPC   C3A73313  38.678  29.252   6.883
 5749POPC   C4A73314  38.576  28.960   7.245
 5749POPC   C1B73315  38.359  29.333   6.141
 5749POPC   C2B73316  38.218  29.321   6.577
 5749POPC   C3B73317  38.174  29.112   6.982
 5749POPC   C4B73318  38.026  29.194   7.419
 5750POPC   NC373319   6.309  19.647   5.386
 5750POPC   PO473320   6.635  20.117   5.600
 5750POPC   GL173321   6.646  19.690   5.812
 5750POPC   GL273322   6.289  19.552   5.887
 5750POPC   C1A73323   6.839  19.657   6.224
 5750POPC   D2A73324   6.695  20.005   6.515
 5750POPC   C3A73325   6.833  19.913   6.938
 5750POPC   C4A73326   6.661  19.958   7.347
 5750POPC   C1B73327   6.322  19.710   6.304
 5750POPC   C2B73328   6.477  19.578   6.713
 5750POPC   C3B73329   6.276  19.683   7.093
 5750POPC   C4B73330   6.251  19.394   7.421
 5751POPC   NC373331  31.107  10.481   5.525
 5751POPC   PO473332  30.509  10.210   5.591
 5751POPC   GL173333  30.686  10.565   5.830
 5751POPC   GL273334  30.494  10.915   5.787
 5751POPC   C1A73335  30.742  10.368   6.235
 5751POPC   D2A73336  30.905  10.144   6.595
 5751POPC   C3A73337  30.766  10.284   7.006
 5751POPC   C4A73338  30.858  10.644   7.251
 5751POPC   C1B73339  30.418  10.759   6.221
 5751POPC   C2B73340  30.595  10.645   6.642
 5751POPC   C3B73341  30.401  10.658   7.031
 5751POPC   C4B73342  30.394  10.929   7.404
 5752POPC   NC373343  38.283  43.010   5.253
 5752POPC   PO473344  38.494  43.587   5.582
 5752POPC   GL173345  38.575  43.180   5.732
 5752POPC   GL273346  38.273  42.960   5.767
 5752POPC   C1A73347  38.652  43.175   6.182
 5752POPC   D2A73348  38.436  43.199   6.578
 5752POPC   C3A73349  38.598  42.949   6.916
 5752POPC   C4A73350  38.737  42.972   7.351
 5752POPC   C1B73351  38.094  43.084   6.158
 5752POPC   C2B73352  37.896  43.136   6.547
 5752POPC   C3B73353  38.083  43.040   6.913
 5752POPC   C4B73354  38.289  43.273   7.172
 5753POPC   NC373355  13.877  14.826   5.561
 5753POPC   PO473356  13.811  14.174   5.430
 5753POPC   GL173357  13.670  14.380   5.812
 5753POPC   GL273358  13.449  14.125   5.894
 5753POPC   C1A73359  13.684  14.429   6.315
 5753POPC   D2A73360  13.796  14.760   6.656
 5753POPC   C3A73361  13.914  14.643   7.092
 5753POPC   C4A73362  13.725  14.455   7.477
 5753POPC   C1B73363  13.247  14.536   6.060
 5753POPC   C2B73364  13.212  14.639   6.502
 5753POPC   C3B73365  13.406  14.484   6.885
 5753POPC   C4B73366  13.263  14.536   7.296
 5754POPC   NC373367   3.957  36.186   5.438
 5754POPC   PO473368   3.299  36.479   5.384
 5754POPC   GL173369   3.589  36.391   5.728
 5754POPC   GL273370   3.599  36.022   5.756
 5754POPC   C1A73371   3.770  36.386   6.151
 5754POPC   D2A73372   3.437  36.391   6.484
 5754POPC   C3A73373   3.389  36.311   6.908
 5754POPC   C4A73374   3.790  36.361   7.143
 5754POPC   C1B73375   3.402  36.013   6.139
 5754POPC   C2B73376   3.365  35.894   6.569
 5754POPC   C3B73377   3.659  35.883   6.889
 5754POPC   C4B73378   3.495  35.944   7.260
 5755POPC   NC373379  34.859   1.689   5.480
 5755POPC   PO473380  34.429   2.117   5.343
 5755POPC   GL173381  34.500   1.945   5.763
 5755POPC   GL273382  34.781   2.187   5.792
 5755POPC   C1A73383  34.344   1.833   6.199
 5755POPC   D2A73384  34.533   1.807   6.648
 5755POPC   C3A73385  34.253   1.868   7.008
 5755POPC   C4A73386  34.393   1.924   7.456
 5755POPC   C1B73387  34.827   2.047   6.221
 5755POPC   C2B73388  34.756   2.264   6.621
 5755POPC   C3B73389  34.642   2.184   7.064
 5755POPC   C4B73390  34.751   2.279   7.504
 5756POPC   NC373391  22.536  15.330   5.140
 5756POPC   PO473392  21.816  15.118   5.320
 5756POPC   GL173393  21.997  15.166   5.762
 5756POPC   GL273394  22.215  15.452   5.838
 5756POPC   C1A73395  22.180  14.918   6.144
 5756POPC   D2A73396  22.258  14.628   6.510
 5756POPC   C3A73397  22.233  14.822   6.924
 5756POPC   C4A73398  22.161  14.896   7.358
 5756POPC   C1B73399  22.125  15.401   6.283
 5756POPC   C2B73400  22.314  15.260   6.666
 5756POPC   C3B73401  22.261  15.380   7.101
 5756POPC   C4B73402  22.090  15.376   7.505
 5757POPC   NC373403  30.145  23.268   5.446
 5757POPC   PO473404  29.636  23.597   5.473
 5757POPC   GL173405  29.868  23.808   5.800
 5757POPC   GL273406  30.041  23.521   5.884
 5757POPC   C1A73407  29.886  23.872   6.259
 5757POPC   D2A73408  29.911  23.606   6.663
 5757POPC   C3A73409  29.825  23.856   7.068
 5757POPC   C4A73410  29.709  23.904   7.501
 5757POPC   C1B73411  30.315  23.599   6.247
 5757POPC   C2B73412  30.488  23.622   6.645
 5757POPC   C3B73413  30.295  23.718   7.012
 5757POPC   C4B73414  30.090  23.587   7.412
 5758POPC   NC373415   4.304  40.775   5.521
 5758POPC   PO473416   3.932  41.359   5.575
 5758POPC   GL173417   4.084  41.035   5.909
 5758POPC   GL273418   4.007  40.631   5.918
 5758POPC   C1A73419   4.399  40.991   6.236
 5758POPC   D2A73420   4.523  40.769   6.600
 5758POPC   C3A73421   4.477  40.970   6.968
 5758POPC   C4A73422   4.492  40.695   7.299
 5758POPC   C1B73423   3.943  40.784   6.346
 5758POPC   C2B73424   4.025  40.845   6.781
 5758POPC   C3B73425   3.948  40.629   7.183
 5758POPC   C4B73426   3.896  40.348   7.583
 5759POPC   NC373427  18.434  31.716   5.557
 5759POPC   PO473428  18.505  31.038   5.499
 5759POPC   GL173429  18.471  31.286   5.865
 5759POPC   GL273430  18.136  31.232   5.921
 5759POPC   C1A73431  18.489  31.417   6.297
 5759POPC   D2A73432  18.290  31.344   6.726
 5759POPC   C3A73433  18.295  31.575   7.162
 5759POPC   C4A73434  18.289  31.633   7.624
 5759POPC   C1B73435  18.080  31.017   6.327
 5759POPC   C2B73436  17.846  31.033   6.721
 5759POPC   C3B73437  17.869  31.272   7.114
 5759POPC   C4B73438  17.874  31.169   7.559
 5760POPC   NC373439  12.352  14.129   5.524
 5760POPC   PO473440  11.757  14.016   5.380
 5760POPC   GL173441  11.921  14.235   5.767
 5760POPC   GL273442  12.161  14.546   5.738
 5760POPC   C1A73443  12.156  14.147   6.155
 5760POPC   D2A73444  12.173  14.358   6.567
 5760POPC   C3A73445  11.921  14.216   6.911
 5760POPC   C4A73446  12.157  14.221   7.261
 5760POPC   C1B73447  12.225  14.674   6.162
 5760POPC   C2B73448  12.138  14.870   6.574
 5760POPC   C3B73449  12.130  14.691   7.000
 5760POPC   C4B73450  11.996  14.670   7.460
 5761POPC   NC373451  26.998  22.283   5.374
 5761POPC   PO473452  26.386  22.307   5.188
 5761POPC   GL173453  26.616  22.317   5.687
 5761POPC   GL273454  26.968  22.158   5.859
 5761POPC   C1A73455  26.677  22.367   6.209
 5761POPC   D2A73456  26.748  22.501   6.674
 5761POPC   C3A73457  26.724  22.212   7.057
 5761POPC   C4A73458  26.343  21.929   7.186
 5761POPC   C1B73459  26.874  21.870   6.203
 5761POPC   C2B73460  26.768  21.888   6.656
 5761POPC   C3B73461  26.774  21.687   7.091
 5761POPC   C4B73462  26.823  21.935   7.485
 5762POPC   NC373463  12.097  16.096   4.660
 5762POPC   PO473464  12.214  16.007   5.366
 5762POPC   GL173465  12.330  16.012   5.788
 5762POPC   GL273466  12.523  16.305   5.735
 5762POPC   C1A73467  12.155  15.964   6.239
 5762POPC   D2A73468  11.967  16.124   6.652
 5762POPC   C3A73469  11.891  15.915   7.069
 5762POPC   C4A73470  11.895  16.111   7.502
 5762POPC   C1B73471  12.441  16.391   6.172
 5762POPC   C2B73472  12.497  16.224   6.594
 5762POPC   C3B73473  12.348  16.201   7.035
 5762POPC   C4B73474  12.372  16.293   7.472
 5763POPC   NC373475  42.924  41.066   5.457
 5763POPC   PO473476  43.371  41.566   5.391
 5763POPC   GL173477  43.016  41.577   5.678
 5763POPC   GL273478  43.012  41.298   5.901
 5763POPC   C1A73479  42.966  41.785   6.073
 5763POPC   D2A73480  42.960  41.853   6.507
 5763POPC   C3A73481  42.830  41.547   6.815
 5763POPC   C4A73482  42.977  41.623   7.223
 5763POPC   C1B73483  42.904  41.337   6.333
 5763POPC   C2B73484  43.211  41.243   6.650
 5763POPC   C3B73485  43.226  41.214   7.099
 5763POPC   C4B73486  42.963  41.159   7.465
 5764POPC   NC373487  44.280  13.308   5.581
 5764POPC   PO473488  43.675  13.641   5.396
 5764POPC   GL173489  43.844  13.677   5.799
 5764POPC   GL273490  43.591  13.543   6.015
 5764POPC   C1A73491  43.860  13.903   6.213
 5764POPC   D2A73492  43.986  13.834   6.597
 5764POPC   C3A73493  43.748  13.762   6.905
 5764POPC   C4A73494  43.985  13.756   7.272
 5764POPC   C1B73495  43.784  13.370   6.388
 5764POPC   C2B73496  43.886  13.282   6.817
 5764POPC   C3B73497  43.656  13.371   7.221
 5764POPC   C4B73498  43.769  13.417   7.669
 5765POPC   NC373499   6.594  41.812   5.461
 5765POPC   PO473500   6.581  41.172   5.360
 5765POPC   GL173501   6.500  41.167   5.799
 5765POPC   GL273502   6.143  41.094   5.804
 5765POPC   C1A73503   6.746  41.287   6.186
 5765POPC   D2A73504   6.999  41.385   6.566
 5765POPC   C3A73505   6.846  41.418   6.985
 5765POPC   C4A73506   6.980  41.783   7.214
 5765POPC   C1B73507   6.227  41.310   6.233
 5765POPC   C2B73508   6.397  41.553   6.615
 5765POPC   C3B73509   6.404  41.656   7.069
 5765POPC   C4B73510   6.400  41.246   7.214
 5766POPC   NC373511   9.118   4.477   5.440
 5766POPC   PO473512   8.925   3.799   5.415
 5766POPC   GL173513   8.976   4.114   5.768
 5766POPC   GL273514   8.845   4.451   5.890
 5766POPC   C1A73515   9.156   4.119   6.197
 5766POPC   D2A73516   8.988   4.281   6.600
 5766POPC   C3A73517   8.909   4.042   6.996
 5766POPC   C4A73518   8.822   4.160   7.433
 5766POPC   C1B73519   9.143   4.634   6.205
 5766POPC   C2B73520   9.237   4.730   6.669
 5766POPC   C3B73521   9.203   4.668   7.165
 5766POPC   C4B73522   9.403   4.671   7.622
 5767POPC   NC373523  22.496  41.739   4.934
 5767POPC   PO473524  22.964  41.572   5.372
 5767POPC   GL173525  22.959  41.394   5.766
 5767POPC   GL273526  22.665  41.487   5.850
 5767POPC   C1A73527  23.048  41.541   6.197
 5767POPC   D2A73528  23.106  41.752   6.591
 5767POPC   C3A73529  23.142  41.398   6.873
 5767POPC   C4A73530  23.291  41.245   7.259
 5767POPC   C1B73531  22.540  41.860   6.093
 5767POPC   C2B73532  22.574  41.928   6.518
 5767POPC   C3B73533  22.684  41.616   6.828
 5767POPC   C4B73534  22.868  41.679   7.217
 5768POPC   NC373535   8.563  43.221   5.513
 5768POPC   PO473536   8.021  43.356   5.192
 5768POPC   GL173537   8.081  43.256   5.685
 5768POPC   GL273538   8.350  43.548   5.827
 5768POPC   C1A73539   7.973  43.008   6.112
 5768POPC   D2A73540   7.992  43.232   6.567
 5768POPC   C3A73541   8.045  43.033   7.000
 5768POPC   C4A73542   8.117  42.942   7.475
 5768POPC   C1B73543   8.407  43.242   6.168
 5768POPC   C2B73544   8.404  42.936   6.512
 5768POPC   C3B73545   8.546  42.890   6.919
 5768POPC   C4B73546   8.548  43.138   7.287
 5769POPC   NC373547  23.368  19.806   5.449
 5769POPC   PO473548  23.917  20.109   5.467
 5769POPC   GL173549  23.761  19.876   5.790
 5769POPC   GL273550  23.534  20.143   5.844
 5769POPC   C1A73551  23.776  19.785   6.234
 5769POPC   D2A73552  23.611  19.583   6.594
 5769POPC   C3A73553  23.696  19.713   7.018
 5769POPC   C4A73554  23.768  19.949   7.399
 5769POPC   C1B73555  23.402  20.120   6.257
 5769POPC   C2B73556  23.348  20.007   6.704
 5769POPC   C3B73557  23.335  20.053   7.145
 5769POPC   C4B73558  23.274  19.837   7.544
 5770POPC   NC373559  39.676  21.509   5.498
 5770POPC   PO473560  39.098  21.247   5.217
 5770POPC   GL173561  39.232  21.350   5.707
 5770POPC   GL273562  38.950  21.461   5.993
 5770POPC   C1A73563  39.423  21.278   6.128
 5770POPC   D2A73564  39.279  21.506   6.509
 5770POPC   C3A73565  39.470  21.633   6.931
 5770POPC   C4A73566  39.235  21.698   7.351
 5770POPC   C1B73567  38.975  21.110   6.352
 5770POPC   C2B73568  39.096  21.046   6.809
 5770POPC   C3B73569  39.183  21.188   7.254
 5770POPC   C4B73570  39.146  20.955   7.695
 5771POPC   NC373571  34.652  10.179   5.526
 5771POPC   PO473572  34.498   9.478   5.577
 5771POPC   GL173573  34.643   9.793   5.863
 5771POPC   GL273574  34.989   9.805   5.709
 5771POPC   C1A73575  34.494   9.916   6.280
 5771POPC   D2A73576  34.444   9.991   6.744
 5771POPC   C3A73577  34.336   9.680   7.071
 5771POPC   C4A73578  34.051   9.689   7.441
 5771POPC   C1B73579  35.040   9.680   6.153
 5771POPC   C2B73580  34.926   9.837   6.546
 5771POPC   C3B73581  34.853   9.692   6.950
 5771POPC   C4B73582  34.822   9.479   7.330
 5772POPC   NC373583  34.846  11.600   5.270
 5772POPC   PO473584  34.340  11.263   5.449
 5772POPC   GL173585  34.425  11.275   5.864
 5772POPC   GL273586  34.469  11.648   5.876
 5772POPC   C1A73587  34.388  11.316   6.309
 5772POPC   D2A73588  34.337  11.295   6.739
 5772POPC   C3A73589  34.641  11.030   6.956
 5772POPC   C4A73590  34.289  10.915   7.203
 5772POPC   C1B73591  34.840  11.480   6.106
 5772POPC   C2B73592  34.943  11.400   6.540
 5772POPC   C3B73593  34.738  11.568   6.877
 5772POPC   C4B73594  34.494  11.437   7.230
 5773POPC   NC373595  42.118   9.294   5.466
 5773POPC   PO473596  42.455   9.884   5.286
 5773POPC   GL173597  42.526   9.819   5.738
 5773POPC   GL273598  42.200   9.696   5.819
 5773POPC   C1A73599  42.536   9.754   6.221
 5773POPC   D2A73600  42.681   9.910   6.643
 5773POPC   C3A73601  42.445   9.906   7.067
 5773POPC   C4A73602  42.518   9.814   7.531
 5773POPC   C1B73603  42.018   9.620   6.214
 5773POPC   C2B73604  42.190   9.626   6.601
 5773POPC   C3B73605  42.115   9.340   6.922
 5773POPC   C4B73606  42.265   9.449   7.297
 5774POPC   NC373607   3.205  42.454   5.308
 5774POPC   PO473608   2.603  42.087   5.323
 5774POPC   GL173609   2.905  42.173   5.644
 5774POPC   GL273610   2.761  42.497   5.681
 5774POPC   C1A73611   3.022  42.332   6.078
 5774POPC   D2A73612   2.764  42.226   6.448
 5774POPC   C3A73613   2.840  42.333   6.873
 5774POPC   C4A73614   2.816  42.611   7.227
 5774POPC   C1B73615   2.496  42.475   6.060
 5774POPC   C2B73616   2.491  42.658   6.470
 5774POPC   C3B73617   2.405  42.592   6.886
 5774POPC   C4B73618   2.311  42.695   7.286
 5775POPC   NC373619  14.081  36.982   5.540
 5775POPC   PO473620  14.622  36.595   5.386
 5775POPC   GL173621  14.581  36.817   5.806
 5775POPC   GL273622  14.454  37.144   5.844
 5775POPC   C1A73623  14.731  36.982   6.229
 5775POPC   D2A73624  14.592  37.164   6.605
 5775POPC   C3A73625  14.638  36.929   6.960
 5775POPC   C4A73626  14.510  36.993   7.376
 5775POPC   C1B73627  14.203  37.027   6.214
 5775POPC   C2B73628  14.080  37.114   6.647
 5775POPC   C3B73629  14.134  36.986   7.037
 5775POPC   C4B73630  14.023  36.668   7.323
 5776POPC   NC373631  30.877  32.240   5.330
 5776POPC   PO473632  30.129  32.406   5.433
 5776POPC   GL173633  30.472  32.343   5.683
 5776POPC   GL273634  30.572  32.676   5.678
 5776POPC   C1A73635  30.706  32.138   6.042
 5776POPC   D2A73636  30.724  31.931   6.437
 5776POPC   C3A73637  30.740  32.107   6.865
 5776POPC   C4A73638  30.539  31.918   7.187
 5776POPC   C1B73639  30.817  32.663   6.081
 5776POPC   C2B73640  30.889  32.457   6.482
 5776POPC   C3B73641  30.813  32.596   6.914
 5776POPC   C4B73642  30.809  32.411   7.323
 5777POPC   NC373643   2.725  32.301   5.249
 5777POPC   PO473644   2.942  31.695   5.240
 5777POPC   GL173645   2.789  31.946   5.627
 5777POPC   GL273646   2.985  31.882   5.934
 5777POPC   C1A73647   2.740  32.318   5.946
 5777POPC   D2A73648   2.488  32.345   6.361
 5777POPC   C3A73649   2.689  32.357   6.786
 5777POPC   C4A73650   2.578  32.466   7.206
 5777POPC   C1B73651   2.932  32.019   6.393
 5777POPC   C2B73652   2.980  31.915   6.844
 5777POPC   C3B73653   3.045  32.098   7.271
 5777POPC   C4B73654   3.177  32.131   7.695
 5778POPC   NC373655  17.838  18.425   5.582
 5778POPC   PO473656  17.203  18.387   5.522
 5778POPC   GL173657  17.417  18.245   5.871
 5778POPC   GL273658  17.152  18.323   6.070
 5778POPC   C1A73659  17.660  18.298   6.255
 5778POPC   D2A73660  17.899  18.457   6.623
 5778POPC   C3A73661  17.769  18.674   6.944
 5778POPC   C4A73662  17.668  18.591   7.339
 5778POPC   C1B73663  17.226  17.940   6.263
 5778POPC   C2B73664  17.419  18.017   6.637
 5778POPC   C3B73665  17.431  18.264   6.992
 5778POPC   C4B73666  17.391  18.095   7.389
 5779POPC   NC373667  38.286  14.621   5.335
 5779POPC   PO473668  38.716  14.177   5.590
 5779POPC   GL173669  38.405  14.358   5.822
 5779POPC   GL273670  38.394  14.715   5.807
 5779POPC   C1A73671  38.367  14.232   6.254
 5779POPC   D2A73672  38.535  14.352   6.655
 5779POPC   C3A73673  38.296  14.391   7.029
 5779POPC   C4A73674  38.151  14.014   7.224
 5779POPC   C1B73675  38.596  14.708   6.189
 5779POPC   C2B73676  38.608  14.852   6.591
 5779POPC   C3B73677  38.782  14.684   6.953
 5779POPC   C4B73678  38.773  14.437   7.288
 5780POPC   NC373679  10.981  10.926   5.566
 5780POPC   PO473680  11.573  11.298   5.279
 5780POPC   GL173681  11.463  11.265   5.745
 5780POPC   GL273682  11.346  10.975   5.958
 5780POPC   C1A73683  11.326  11.550   6.092
 5780POPC   D2A73684  11.089  11.635   6.471
 5780POPC   C3A73685  11.303  11.419   6.810
 5780POPC   C4A73686  11.516  11.558   7.196
 5780POPC   C1B73687  11.119  11.113   6.350
 5780POPC   C2B73688  10.749  11.286   6.593
 5780POPC   C3B73689  10.812  11.509   6.980
 5780POPC   C4B73690  11.092  11.290   7.267
 5781POPC   NC373691   3.198  19.746   5.308
 5781POPC   PO473692   2.533  20.026   5.443
 5781POPC   GL173693   2.645  19.786   5.796
 5781POPC   GL273694   3.008  19.763   5.776
 5781POPC   C1A73695   2.752  19.926   6.230
 5781POPC   D2A73696   2.931  20.133   6.586
 5781POPC   C3A73697   2.736  20.013   6.953
 5781POPC   C4A73698   2.655  20.295   7.260
 5781POPC   C1B73699   3.210  19.670   6.157
 5781POPC   C2B73700   3.072  19.630   6.593
 5781POPC   C3B73701   3.139  19.533   7.024
 5781POPC   C4B73702   2.954  19.441   7.461
 5782POPC   NC373703  26.435   1.357   5.317
 5782POPC   PO473704  27.135   1.312   5.309
 5782POPC   GL173705  26.854   1.176   5.698
 5782POPC   GL273706  26.640   1.486   5.775
 5782POPC   C1A73707  26.965   0.961   6.140
 5782POPC   D2A73708  27.089   1.037   6.612
 5782POPC   C3A73709  26.989   0.848   7.048
 5782POPC   C4A73710  26.849   1.058   7.483
 5782POPC   C1B73711  26.822   1.480   6.193
 5782POPC   C2B73712  26.709   1.386   6.612
 5782POPC   C3B73713  26.826   1.330   7.035
 5782POPC   C4B73714  26.632   1.533   7.417
 5783POPC   NC373715  12.448  19.058   5.379
 5783POPC   PO473716  11.783  18.900   5.414
 5783POPC   GL173717  11.944  18.841   5.807
 5783POPC   GL273718  12.209  19.032   5.818
 5783POPC   C1A73719  11.787  18.966   6.182
 5783POPC   D2A73720  11.971  19.058   6.538
 5783POPC   C3A73721  11.826  18.869   6.888
 5783POPC   C4A73722  11.922  19.115   7.251
 5783POPC   C1B73723  12.332  19.200   6.173
 5783POPC   C2B73724  12.494  19.040   6.532
 5783POPC   C3B73725  12.311  18.976   6.914
 5783POPC   C4B73726  12.419  18.947   7.320
 5784POPC   NC373727  20.806  42.043   5.374
 5784POPC   PO473728  20.573  42.644   5.512
 5784POPC   GL173729  20.440  42.310   5.722
 5784POPC   GL273730  20.728  42.165   5.890
 5784POPC   C1A73731  20.274  42.327   6.136
 5784POPC   D2A73732  20.153  42.200   6.556
 5784POPC   C3A73733  20.446  42.235   6.881
 5784POPC   C4A73734  20.593  42.610   7.113
 5784POPC   C1B73735  20.733  42.248   6.356
 5784POPC   C2B73736  20.907  42.025   6.724
 5784POPC   C3B73737  20.870  42.150   7.147
 5784POPC   C4B73738  20.779  42.034   7.580
 5785POPC   NC373739  21.783   4.100   5.660
 5785POPC   PO473740  21.155   3.988   5.419
 5785POPC   GL173741  21.270   4.342   5.719
 5785POPC   GL273742  21.416   4.180   5.989
 5785POPC   C1A73743  21.211   4.648   6.122
 5785POPC   D2A73744  20.943   4.684   6.493
 5785POPC   C3A73745  21.147   4.622   6.875
 5785POPC   C4A73746  21.168   4.336   7.213
 5785POPC   C1B73747  21.367   4.265   6.405
 5785POPC   C2B73748  21.361   4.142   6.786
 5785POPC   C3B73749  21.601   4.396   6.997
 5785POPC   C4B73750  21.861   4.578   7.230
 5786POPC   NC373751   8.062  34.771   5.496
 5786POPC   PO473752   8.629  34.394   5.537
 5786POPC   GL173753   8.365  34.416   5.852
 5786POPC   GL273754   8.017  34.303   5.782
 5786POPC   C1A73755   8.497  34.545   6.258
 5786POPC   D2A73756   8.310  34.752   6.590
 5786POPC   C3A73757   8.338  34.606   6.997
 5786POPC   C4A73758   8.441  34.807   7.360
 5786POPC   C1B73759   7.973  34.573   6.150
 5786POPC   C2B73760   7.873  34.489   6.566
 5786POPC   C3B73761   7.834  34.642   6.975
 5786POPC   C4B73762   7.982  34.452   7.350
 5787POPC   NC373763  39.896   0.807   5.579
 5787POPC   PO473764  40.068   0.263   5.135
 5787POPC   GL173765  39.974   0.267   5.625
 5787POPC   GL273766  40.300   0.211   5.830
 5787POPC   C1A73767  39.871   0.370   6.073
 5787POPC   D2A73768  39.673   0.257   6.462
 5787POPC   C3A73769  39.636   0.514   6.824
 5787POPC   C4A73770  39.778   0.506   7.235
 5787POPC   C1B73771  40.257   0.125   6.294
 5787POPC   C2B73772  40.423   0.178   6.712
 5787POPC   C3B73773  40.244   0.366   7.083
 5787POPC   C4B73774  40.295   0.335   7.536
 5788POPC   NC373775   3.841  30.779   5.434
 5788POPC   PO473776   3.330  30.517   5.130
 5788POPC   GL173777   3.388  30.860   5.626
 5788POPC   GL273778   3.650  30.871   5.877
 5788POPC   C1A73779   3.265  30.615   6.096
 5788POPC   D2A73780   3.395  30.635   6.540
 5788POPC   C3A73781   3.194  30.838   6.908
 5788POPC   C4A73782   3.347  30.675   7.277
 5788POPC   C1B73783   3.799  30.669   6.211
 5788POPC   C2B73784   3.874  30.792   6.617
 5788POPC   C3B73785   3.731  30.524   6.934
 5788POPC   C4B73786   4.048  30.578   7.187
 5789POPC   NC373787  24.270  26.608   5.426
 5789POPC   PO473788  24.594  27.191   5.347
 5789POPC   GL173789  24.428  26.989   5.744
 5789POPC   GL273790  24.634  26.685   5.783
 5789POPC   C1A73791  24.324  26.826   6.185
 5789POPC   D2A73792  24.111  26.877   6.591
 5789POPC   C3A73793  24.261  27.063   6.975
 5789POPC   C4A73794  24.195  26.895   7.386
 5789POPC   C1B73795  24.702  26.460   6.174
 5789POPC   C2B73796  24.573  26.629   6.629
 5789POPC   C3B73797  24.623  26.713   7.102
 5789POPC   C4B73798  24.617  26.573   7.539
 5790POPC   NC373799  44.899  30.260   5.429
 5790POPC   PO473800  44.541  29.672   5.540
 5790POPC   GL173801  44.412  29.936   5.848
 5790POPC   GL273802  44.735  30.002   5.898
 5790POPC   C1A73803  44.392  29.880   6.299
 5790POPC   D2A73804  44.243  30.147   6.588
 5790POPC   C3A73805  44.413  30.160   6.970
 5790POPC   C4A73806  44.262  30.035   7.346
 5790POPC   C1B73807  44.939  30.046   6.268
 5790POPC   C2B73808   0.179  30.131   6.619
 5790POPC   C3B73809  44.925  30.157   6.960
 5790POPC   C4B73810  44.772  29.942   7.308
 5791POPC   NC373811  43.625   5.428   5.710
 5791POPC   PO473812  44.000   5.155   5.232
 5791POPC   GL173813  44.031   4.923   5.672
 5791POPC   GL273814  43.737   4.855   5.877
 5791POPC   C1A73815  44.184   4.916   6.136
 5791POPC   D2A73816  44.113   5.092   6.555
 5791POPC   C3A73817  44.288   5.010   6.972
 5791POPC   C4A73818  44.034   4.788   7.261
 5791POPC   C1B73819  43.656   5.043   6.272
 5791POPC   C2B73820  43.681   5.355   6.570
 5791POPC   C3B73821  43.849   5.303   6.959
 5791POPC   C4B73822  43.594   5.045   7.195
 5792POPC   NC373823  14.852  12.413   5.125
 5792POPC   PO473824  15.478  12.383   5.365
 5792POPC   GL173825  15.398  12.206   5.771
 5792POPC   GL273826  15.057  12.314   5.836
 5792POPC   C1A73827  15.294  11.956   6.152
 5792POPC   D2A73828  15.165  11.769   6.578
 5792POPC   C3A73829  15.453  11.741   6.900
 5792POPC   C4A73830  15.412  11.961   7.271
 5792POPC   C1B73831  15.243  12.464   6.243
 5792POPC   C2B73832  15.345  12.433   6.706
 5792POPC   C3B73833  15.313  12.493   7.159
 5792POPC   C4B73834  15.081  12.273   7.491
 5793POPC   NC373835  38.861  10.017   5.558
 5793POPC   PO473836  38.275   9.886   5.445
 5793POPC   GL173837  38.431   9.720   5.807
 5793POPC   GL273838  38.692   9.525   5.656
 5793POPC   C1A73839  38.297   9.640   6.231
 5793POPC   D2A73840  38.033   9.752   6.579
 5793POPC   C3A73841  38.105   9.968   6.950
 5793POPC   C4A73842  38.442   9.818   7.159
 5793POPC   C1B73843  38.774   9.474   6.093
 5793POPC   C2B73844  38.769   9.406   6.521
 5793POPC   C3B73845  38.561   9.382   6.894
 5793POPC   C4B73846  38.812   9.416   7.242
 5794POPC   NC373847  21.869  35.361   5.456
 5794POPC   PO473848  21.201  35.217   5.487
 5794POPC   GL173849  21.250  35.470   5.811
 5794POPC   GL273850  21.597  35.463   5.861
 5794POPC   C1A73851  21.077  35.483   6.197
 5794POPC   D2A73852  21.251  35.325   6.544
 5794POPC   C3A73853  21.085  35.463   6.911
 5794POPC   C4A73854  21.183  35.324   7.278
 5794POPC   C1B73855  21.567  35.124   6.161
 5794POPC   C2B73856  21.681  35.017   6.588
 5794POPC   C3B73857  21.574  35.276   6.942
 5794POPC   C4B73858  21.749  35.326   7.314
 5795POPC   NC373859  36.728   2.054   5.374
 5795POPC   PO473860  36.042   1.713   5.374
 5795POPC   GL173861  36.121   1.824   5.763
 5795POPC   GL273862  36.474   1.818   5.758
 5795POPC   C1A73863  35.861   1.852   6.149
 5795POPC   D2A73864  35.612   1.997   6.505
 5795POPC   C3A73865  35.763   2.023   6.925
 5795POPC   C4A73866  35.838   1.620   7.142
 5795POPC   C1B73867  36.368   1.988   6.175
 5795POPC   C2B73868  36.137   2.050   6.564
 5795POPC   C3B73869  36.287   1.945   6.999
 5795POPC   C4B73870  36.677   1.787   7.281
 5796POPC   NC373871  37.729  33.411   5.371
 5796POPC   PO473872  37.476  32.768   5.250
 5796POPC   GL173873  37.668  32.969   5.617
 5796POPC   GL273874  37.945  32.790   5.757
 5796POPC   C1A73875  37.689  33.162   6.043
 5796POPC   D2A73876  37.472  33.196   6.455
 5796POPC   C3A73877  37.695  33.221   6.844
 5796POPC   C4A73878  37.617  33.011   7.275
 5796POPC   C1B73879  38.041  32.720   6.148
 5796POPC   C2B73880  37.894  32.862   6.520
 5796POPC   C3B73881  37.849  32.724   6.922
 5796POPC   C4B73882  38.030  32.716   7.311
 5797POPC   NC373883  32.699   4.435   5.497
 5797POPC   PO473884  33.352   4.651   5.543
 5797POPC   GL173885  33.133   4.316   5.791
 5797POPC   GL273886  33.398   4.108   5.892
 5797POPC   C1A73887  32.838   4.337   6.157
 5797POPC   D2A73888  32.765   4.695   6.448
 5797POPC   C3A73889  32.966   4.698   6.850
 5797POPC   C4A73890  32.810   4.604   7.269
 5797POPC   C1B73891  33.319   4.297   6.325
 5797POPC   C2B73892  33.025   4.220   6.709
 5797POPC   C3B73893  32.872   4.083   7.163
 5797POPC   C4B73894  32.822   3.812   7.578
 5798POPC   NC373895  44.687  20.595   5.285
 5798POPC   PO473896  44.513  21.260   5.453
 5798POPC   GL173897  44.738  20.835   5.727
 5798POPC   GL273898  44.537  20.505   5.770
 5798POPC   C1A73899  44.827  20.597   6.156
 5798POPC   D2A73900  44.686  20.648   6.574
 5798POPC   C3A73901  44.777  20.367   6.887
 5798POPC   C4A73902  44.842  20.403   7.323
 5798POPC   C1B73903  44.305  20.460   6.185
 5798POPC   C2B73904  44.247  20.387   6.666
 5798POPC   C3B73905  44.296  20.341   7.134
 5798POPC   C4B73906  44.001  20.274   7.504
 5799POPC   NC373907  32.169   5.242   5.230
 5799POPC   PO473908  32.656   4.895   5.459
 5799POPC   GL173909  32.371   4.989   5.790
 5799POPC   GL273910  32.173   5.307   5.770
 5799POPC   C1A73911  32.309   4.857   6.214
 5799POPC   D2A73912  32.223   4.957   6.629
 5799POPC   C3A73913  32.504   4.917   6.948
 5799POPC   C4A73914  32.416   4.934   7.365
 5799POPC   C1B73915  32.333   5.371   6.219
 5799POPC   C2B73916  32.217   5.469   6.665
 5799POPC   C3B73917  32.157   5.274   7.084
 5799POPC   C4B73918  32.275   5.363   7.574
 5800POPC   NC373919  21.620  36.295   5.201
 5800POPC   PO473920  21.015  36.198   5.445
 5800POPC   GL173921  21.270  36.329   5.772
 5800POPC   GL273922  21.592  36.111   5.764
 5800POPC   C1A73923  21.376  36.343   6.202
 5800POPC   D2A73924  21.626  36.140   6.519
 5800POPC   C3A73925  21.523  36.366   6.877
 5800POPC   C4A73926  21.531  36.272   7.289
 5800POPC   C1B73927  21.443  35.845   6.137
 5800POPC   C2B73928  21.199  35.850   6.521
 5800POPC   C3B73929  21.284  35.922   6.919
 5800POPC   C4B73930  21.425  35.758   7.282
 5801POPC   NC373931  40.289  31.569   5.537
 5801POPC   PO473932  39.803  31.144   5.428
 5801POPC   GL173933  39.880  31.399   5.808
 5801POPC   GL273934  39.755  31.711   5.920
 5801POPC   C1A73935  40.172  31.461   6.176
 5801POPC   D2A73936  40.457  31.340   6.515
 5801POPC   C3A73937  40.242  31.333   6.906
 5801POPC   C4A73938  39.955  31.568   7.129
 5801POPC   C1B73939  39.660  31.411   6.277
 5801POPC   C2B73940  39.663  31.453   6.732
 5801POPC   C3B73941  39.529  31.313   7.156
 5801POPC   C4B73942  39.605  31.178   7.607
 5802POPC   NC373943  24.273  21.003   5.488
 5802POPC   PO473944  24.716  20.677   5.272
 5802POPC   GL173945  24.488  20.575   5.700
 5802POPC   GL273946  24.562  20.863   5.913
 5802POPC   C1A73947  24.405  20.410   6.152
 5802POPC   D2A73948  24.425  20.624   6.545
 5802POPC   C3A73949  24.280  20.468   6.927
 5802POPC   C4A73950  24.603  20.306   7.165
 5802POPC   C1B73951  24.178  20.852   6.153
 5802POPC   C2B73952  24.011  20.896   6.551
 5802POPC   C3B73953  23.840  20.769   6.926
 5802POPC   C4B73954  24.042  20.781   7.312
 5803POPC   NC373955  34.623  23.126   5.361
 5803POPC   PO473956  34.795  22.507   5.556
 5803POPC   GL173957  34.668  22.870   5.854
 5803POPC   GL273958  34.409  23.141   5.904
 5803POPC   C1A73959  34.648  22.947   6.328
 5803POPC   D2A73960  34.889  22.788   6.698
 5803POPC   C3A73961  34.579  22.803   7.031
 5803POPC   C4A73962  34.424  22.899   7.466
 5803POPC   C1B73963  34.120  23.261   6.208
 5803POPC   C2B73964  34.320  23.310   6.614
 5803POPC   C3B73965  34.277  23.249   7.067
 5803POPC   C4B73966  34.345  23.389   7.509
 5804POPC   NC373967  12.689  39.528   5.384
 5804POPC   PO473968  13.095  38.967   5.454
 5804POPC   GL173969  12.813  39.191   5.742
 5804POPC   GL273970  13.108  39.372   5.838
 5804POPC   C1A73971  12.767  39.408   6.186
 5804POPC   D2A73972  13.029  39.536   6.545
 5804POPC   C3A73973  12.925  39.340   6.916
 5804POPC   C4A73974  12.682  39.448   7.281
 5804POPC   C1B73975  13.062  39.002   6.131
 5804POPC   C2B73976  13.164  39.039   6.550
 5804POPC   C3B73977  13.114  38.855   6.937
 5804POPC   C4B73978  12.933  38.972   7.312
 5805POPC   NC373979  37.786  18.721   4.992
 5805POPC   PO473980  37.676  19.148   5.561
 5805POPC   GL173981  37.706  18.897   5.874
 5805POPC   GL273982  37.408  18.997   5.994
 5805POPC   C1A73983  37.846  19.055   6.248
 5805POPC   D2A73984  37.562  19.173   6.522
 5805POPC   C3A73985  37.770  19.034   6.869
 5805POPC   C4A73986  37.747  19.181   7.245
 5805POPC   C1B73987  37.141  19.266   6.201
 5805POPC   C2B73988  37.159  19.530   6.537
 5805POPC   C3B73989  37.378  19.415   6.937
 5805POPC   C4B73990  37.265  19.305   7.358
 5806POPC   NC373991  12.601  38.747   5.466
 5806POPC   PO473992  12.908  38.265   5.169
 5806POPC   GL173993  12.889  38.366   5.658
 5806POPC   GL273994  13.124  38.597   5.783
 5806POPC   C1A73995  12.734  38.558   6.100
 5806POPC   D2A73996  12.579  38.464   6.539
 5806POPC   C3A73997  12.694  38.583   6.960
 5806POPC   C4A73998  12.511  38.446   7.333
 5806POPC   C1B73999  13.229  38.407   6.144
 5806POPC   C2B74000  13.230  38.524   6.568
 5806POPC   C3B74001  13.145  38.337   6.987
 5806POPC   C4B74002  13.016  38.476   7.393
 5807POPC   NC374003  13.499  26.365   5.476
 5807POPC   PO474004  13.475  25.717   5.428
 5807POPC   GL174005  13.701  25.870   5.804
 5807POPC   GL274006  13.762  26.216   5.875
 5807POPC   C1A74007  13.587  25.784   6.227
 5807POPC   D2A74008  13.240  25.878   6.491
 5807POPC   C3A74009  13.376  25.968   6.921
 5807POPC   C4A74010  13.521  25.810   7.302
 5807POPC   C1B74011  13.938  26.186   6.254
 5807POPC   C2B74012  13.777  26.128   6.641
 5807POPC   C3B74013  13.876  26.072   7.068
 5807POPC   C4B74014  13.806  26.249   7.511
 5808POPC   NC374015  15.793  38.263   5.094
 5808POPC   PO474016  15.749  37.723   5.602
 5808POPC   GL174017  16.113  37.654   5.847
 5808POPC   GL274018  16.348  37.925   5.819
 5808POPC   C1A74019  16.068  37.614   6.295
 5808POPC   D2A74020  15.762  37.598   6.618
 5808POPC   C3A74021  15.944  37.536   7.026
 5808POPC   C4A74022  15.791  37.340   7.402
 5808POPC   C1B74023  16.216  38.086   6.215
 5808POPC   C2B74024  16.086  38.005   6.647
 5808POPC   C3B74025  16.155  38.008   7.078
 5808POPC   C4B74026  16.059  38.200   7.465
 5809POPC   NC374027   0.540   1.130   5.398
 5809POPC   PO474028  44.852   1.179   5.270
 5809POPC   GL174029   0.177   1.126   5.735
 5809POPC   GL274030   0.466   1.327   5.859
 5809POPC   C1A74031   0.390   0.922   6.142
 5809POPC   D2A74032   0.691   0.845   6.513
 5809POPC   C3A74033   0.676   1.187   6.832
 5809POPC   C4A74034   0.435   1.268   7.203
 5809POPC   C1B74035   0.278   1.437   6.265
 5809POPC   C2B74036   0.198   1.351   6.733
 5809POPC   C3B74037  44.939   1.382   7.107
 5809POPC   C4B74038  44.948   1.402   7.581
 5810POPC   NC374039  22.465   8.209   5.162
 5810POPC   PO474040  23.073   8.094   5.452
 5810POPC   GL174041  22.956   8.120   5.841
 5810POPC   GL274042  23.007   8.491   5.819
 5810POPC   C1A74043  22.869   7.911   6.257
 5810POPC   D2A74044  23.015   7.997   6.682
 5810POPC   C3A74045  22.785   7.917   7.056
 5810POPC   C4A74046  22.875   7.958   7.524
 5810POPC   C1B74047  23.065   8.368   6.271
 5810POPC   C2B74048  22.893   8.505   6.658
 5810POPC   C3B74049  23.005   8.359   7.061
 5810POPC   C4B74050  23.173   8.364   7.480
 5811POPC   NC374051  32.843  39.809   5.417
 5811POPC   PO474052  33.075  39.197   5.240
 5811POPC   GL174053  32.908  39.327   5.661
 5811POPC   GL274054  33.197  39.253   5.832
 5811POPC   C1A74055  32.783  39.273   6.130
 5811POPC   D2A74056  32.788  39.012   6.524
 5811POPC   C3A74057  32.827  39.242   6.933
 5811POPC   C4A74058  32.934  38.992   7.268
 5811POPC   C1B74059  33.259  39.084   6.255
 5811POPC   C2B74060  33.111  39.393   6.525
 5811POPC   C3B74061  33.216  39.622   6.850
 5811POPC   C4B74062  33.290  39.374   7.208
 5812POPC   NC374063  34.190  24.732   5.431
 5812POPC   PO474064  33.585  24.906   5.678
 5812POPC   GL174065  33.890  25.093   5.892
 5812POPC   GL274066  33.844  25.421   5.721
 5812POPC   C1A74067  33.689  25.091   6.314
 5812POPC   D2A74068  33.573  25.284   6.690
 5812POPC   C3A74069  33.741  25.003   6.999
 5812POPC   C4A74070  34.051  25.090   7.310
 5812POPC   C1B74071  33.890  25.532   6.153
 5812POPC   C2B74072  33.950  25.827   6.462
 5812POPC   C3B74073  33.911  25.651   6.881
 5812POPC   C4B74074  33.673  25.463   7.212
 5813POPC   NC374075  11.080   6.500   5.308
 5813POPC   PO474076  11.538   6.872   5.411
 5813POPC   GL174077  11.388   6.942   5.778
 5813POPC   GL274078  11.078   7.050   5.648
 5813POPC   C1A74079  11.359   6.798   6.191
 5813POPC   D2A74080  11.495   6.882   6.603
 5813POPC   C3A74081  11.453   6.657   6.962
 5813POPC   C4A74082  11.371   6.717   7.396
 5813POPC   C1B74083  10.963   7.079   6.059
 5813POPC   C2B74084  11.026   7.090   6.499
 5813POPC   C3B74085  11.080   7.056   6.954
 5813POPC   C4B74086  10.986   7.036   7.410
 5814POPC   NC374087   5.778  33.592   5.459
 5814POPC   PO474088   6.155  34.164   5.310
 5814POPC   GL174089   5.918  34.030   5.700
 5814POPC   GL274090   6.211  33.816   5.748
 5814POPC   C1A74091   5.607  34.009   6.100
 5814POPC   D2A74092   5.453  33.748   6.411
 5814POPC   C3A74093   5.568  33.920   6.834
 5814POPC   C4A74094   5.621  33.757   7.246
 5814POPC   C1B74095   6.040  33.761   6.142
 5814POPC   C2B74096   5.929  33.632   6.535
 5814POPC   C3B74097   6.033  33.725   6.935
 5814POPC   C4B74098   6.062  33.393   7.211
 5815POPC   NC374099  13.184  24.055   5.462
 5815POPC   PO474100  12.543  24.418   5.386
 5815POPC   GL174101  12.755  24.279   5.800
 5815POPC   GL274102  13.097  24.264   5.907
 5815POPC   C1A74103  12.784  24.361   6.283
 5815POPC   D2A74104  12.974  24.565   6.598
 5815POPC   C3A74105  12.740  24.525   6.936
 5815POPC   C4A74106  12.779  24.705   7.311
 5815POPC   C1B74107  13.172  24.042   6.311
 5815POPC   C2B74108  13.241  24.164   6.746
 5815POPC   C3B74109  13.197  24.401   7.140
 5815POPC   C4B74110  12.937  24.266   7.519
 5816POPC   NC374111  37.221  33.133   5.371
 5816POPC   PO474112  36.874  32.661   5.617
 5816POPC   GL174113  36.952  33.052   5.826
 5816POPC   GL274114  36.812  33.348   5.613
 5816POPC   C1A74115  36.996  33.052   6.296
 5816POPC   D2A74116  36.769  32.824   6.640
 5816POPC   C3A74117  36.890  32.812   7.076
 5816POPC   C4A74118  37.120  33.039   7.350
 5816POPC   C1B74119  36.745  33.460   6.049
 5816POPC   C2B74120  36.733  33.457   6.501
 5816POPC   C3B74121  36.807  33.302   6.916
 5816POPC   C4B74122  36.603  33.220   7.295
 5817POPC   NC374123  35.163  42.274   5.504
 5817POPC   PO474124  34.548  42.570   5.472
 5817POPC   GL174125  34.424  42.374   5.849
 5817POPC   GL274126  34.746  42.234   5.813
 5817POPC   C1A74127  34.391  42.010   6.156
 5817POPC   D2A74128  34.212  41.839   6.558
 5817POPC   C3A74129  34.263  42.132   6.899
 5817POPC   C4A74130  34.302  42.594   6.900
 5817POPC   C1B74131  34.810  42.357   6.196
 5817POPC   C2B74132  34.596  42.455   6.512
 5817POPC   C3B74133  34.748  42.330   6.858
 5817POPC   C4B74134  34.961  42.375   7.202
 5818POPC   NC374135  20.162  13.130   5.140
 5818POPC   PO474136  19.726  13.566   5.428
 5818POPC   GL174137  19.767  13.622   5.829
 5818POPC   GL274138  19.522  13.368   5.895
 5818POPC   C1A74139  20.125  13.642   6.077
 5818POPC   D2A74140  20.177  13.810   6.452
 5818POPC   C3A74141  19.870  13.756   6.767
 5818POPC   C4A74142  19.963  13.750   7.196
 5818POPC   C1B74143  19.551  13.541   6.310
 5818POPC   C2B74144  19.480  13.407   6.725
 5818POPC   C3B74145  19.446  13.519   7.146
 5818POPC   C4B74146  19.728  13.358   7.428
 5819POPC   NC374147  19.883  36.095   5.426
 5819POPC   PO474148  19.280  36.461   5.459
 5819POPC   GL174149  19.677  36.381   5.781
 5819POPC   GL274150  19.781  35.996   5.902
 5819POPC   C1A74151  19.848  36.346   6.247
 5819POPC   D2A74152  19.715  36.139   6.660
 5819POPC   C3A74153  19.975  36.194   7.055
 5819POPC   C4A74154  20.213  36.420   7.391
 5819POPC   C1B74155  20.024  35.796   6.231
 5819POPC   C2B74156  20.179  35.623   6.622
 5819POPC   C3B74157  20.065  35.677   7.052
 5819POPC   C4B74158  19.965  35.569   7.472
 5820POPC   NC374159  40.920  12.322   5.428
 5820POPC   PO474160  40.626  11.844   5.293
 5820POPC   GL174161  40.625  11.974   5.747
 5820POPC   GL274162  40.696  12.295   5.883
 5820POPC   C1A74163  40.451  11.889   6.150
 5820POPC   D2A74164  40.641  11.655   6.511
 5820POPC   C3A74165  40.524  11.722   6.960
 5820POPC   C4A74166  40.811  11.701   7.327
 5820POPC   C1B74167  40.878  12.125   6.243
 5820POPC   C2B74168  40.663  12.166   6.613
 5820POPC   C3B74169  40.849  12.373   6.930
 5820POPC   C4B74170  40.765  12.264   7.316
 5821POPC   NC374171   8.569   1.377   5.264
 5821POPC   PO474172   9.057   1.014   5.473
 5821POPC   GL174173   8.959   1.113   5.832
 5821POPC   GL274174   8.817   1.419   5.761
 5821POPC   C1A74175   9.068   1.063   6.239
 5821POPC   D2A74176   8.998   0.967   6.642
 5821POPC   C3A74177   9.151   1.286   6.935
 5821POPC   C4A74178   8.970   0.981   7.180
 5821POPC   C1B74179   8.651   1.345   6.186
 5821POPC   C2B74180   8.770   1.420   6.619
 5821POPC   C3B74181   8.621   1.376   7.068
 5821POPC   C4B74182   8.393   1.341   7.490
 5822POPC   NC374183  24.522   9.542   5.248
 5822POPC   PO474184  24.674   8.912   5.423
 5822POPC   GL174185  24.602   8.722   5.853
 5822POPC   GL274186  24.376   8.975   5.873
 5822POPC   C1A74187  24.438   8.678   6.295
 5822POPC   D2A74188  24.276   8.918   6.677
 5822POPC   C3A74189  24.424   8.801   7.098
 5822POPC   C4A74190  24.817   8.647   7.228
 5822POPC   C1B74191  24.288   9.201   6.239
 5822POPC   C2B74192  24.312   9.442   6.607
 5822POPC   C3B74193  24.427   9.319   7.006
 5822POPC   C4B74194  24.433   9.226   7.412
 5823POPC   NC374195  10.825   9.958   5.366
 5823POPC   PO474196  10.371   9.529   5.233
 5823POPC   GL174197  10.521   9.657   5.676
 5823POPC   GL274198  10.759   9.434   5.802
 5823POPC   C1A74199  10.506   9.889   6.105
 5823POPC   D2A74200  10.689   9.881   6.541
 5823POPC   C3A74201  10.440  10.002   6.890
 5823POPC   C4A74202  10.275  10.103   7.274
 5823POPC   C1B74203  10.911   9.594   6.174
 5823POPC   C2B74204  11.017   9.499   6.584
 5823POPC   C3B74205  10.733   9.460   6.941
 5823POPC   C4B74206  10.456   9.616   7.245
 5824POPC   NC374207  30.144  31.927   5.507
 5824POPC   PO474208  30.139  31.174   5.503
 5824POPC   GL174209  30.120  31.292   5.926
 5824POPC   GL274210  29.988  31.663   5.928
 5824POPC   C1A74211  29.892  31.346   6.305
 5824POPC   D2A74212  29.861  31.636   6.626
 5824POPC   C3A74213  29.932  31.353   6.940
 5824POPC   C4A74214  30.049  31.154   7.304
 5824POPC   C1B74215  30.215  31.895   6.270
 5824POPC   C2B74216  30.304  31.858   6.723
 5824POPC   C3B74217  30.050  31.815   7.103
 5824POPC   C4B74218  30.127  31.993   7.499
 5825POPC   NC374219  42.896  35.863   5.467
 5825POPC   PO474220  43.246  35.195   5.465
 5825POPC   GL174221  43.108  35.408   5.817
 5825POPC   GL274222  42.872  35.227   5.926
 5825POPC   C1A74223  43.065  35.615   6.223
 5825POPC   D2A74224  42.816  35.678   6.606
 5825POPC   C3A74225  42.889  35.378   6.917
 5825POPC   C4A74226  42.994  35.468   7.299
 5825POPC   C1B74227  42.594  35.063   6.194
 5825POPC   C2B74228  42.568  35.191   6.568
 5825POPC   C3B74229  42.466  35.082   6.955
 5825POPC   C4B74230  42.622  35.150   7.343
 5826W        W74231  38.755   7.412  13.455
 5827W        W74232  15.343  15.093   3.759
 5828W        W74233  39.278  30.151   4.571
 5829W        W74234  31.740  42.662  13.163
 5830W        W74235  33.486  42.012   4.536
 5831W        W74236   5.009  36.957   3.704
 5832W        W74237  40.480  30.247   0.386
 5833W        W74238  17.235  22.580  11.869
 5834W        W74239  26.311  13.043   2.291
 5835W        W74240  17.777   7.719  13.068
 5836W        W74241   1.768  19.750  10.431
 5837W        W74242  42.830   6.953  10.681
 5838W        W74243  35.623  35.161  11.546
 5839W        W74244  36.633   4.975   0.911
 5840W        W74245  18.630  34.008   2.244
 5841W        W74246  22.755  19.203   0.291
 5842W        W74247  29.574  40.089  12.220
 5843W        W74248  15.759  34.247  14.890
 5844W        W74249   1.436  35.098  13.976
 5845W        W74250  41.862  32.628  13.952
 5846W        W74251  40.825  26.676  12.959
 5847W        W74252  13.363   7.395  13.723
 5848W        W74253  11.738  25.723  11.574
 5849W        W74254  13.333  14.044   3.274
 5850W        W74255  22.062   3.053   1.170
 5851W        W74256  35.608  13.839  14.746
 5852W        W74257  10.992  34.002  11.093
 5853W        W74258  26.516  37.963   4.154
 5854W        W74259  14.266  21.196   1.883
 5855W        W74260   9.902  27.293  10.704
 5856W        W74261  30.405  28.489  10.655
 5857W        W74262  26.978  37.902  12.935
 5858W        W74263  16.093  35.027  10.713
 5859W        W74264  43.446  41.305   2.667
 5860W        W74265   6.443  22.228   2.848
 5861W        W74266  34.168  20.781  10.602
 5862W        W74267   8.220   0.410  11.341
 5863W        W74268   5.866  11.684   2.385
 5864W        W74269  27.882   9.415   4.112
 5865W        W74270  23.800  41.455  10.525
 5866W        W74271   7.075  12.593  12.559
 5867W        W74272  42.962  18.788   3.608
 5868W        W74273  12.408  15.658  10.660
 5869W        W74274  38.409   2.985   1.785
 5870W        W74275  24.026   4.829   3.544
 5871W        W74276  13.600  31.445  12.003
 5872W        W74277  28.553  31.262  11.172
 5873W        W74278  10.134  35.918  14.389
 5874W        W74279  33.032  20.813  11.567
 5875W        W74280  39.590   2.986   1.818
 5876W        W74281   8.282   3.448   3.562
 5877W        W74282  38.083  13.061   0.978
 5878W        W74283  21.405  29.666   2.428
 5879W        W74284  28.685   5.338   1.205
 5880W        W74285  41.085  38.743   1.269
 5881W        W74286  31.930  34.977   5.015
 5882W        W74287  12.609  43.979   3.740
 5883W        W74288   3.777   6.941   1.428
 5884W        W74289  44.968   5.900   2.251
 5885W        W74290  43.474  11.194   3.125
 5886W        W74291  40.035  16.206  14.879
 5887W        W74292  39.578  15.370   1.807
 5888W        W74293   3.403  30.566  13.922
 5889W        W74294  43.885  42.990   0.633
 5890W        W74295  17.605   5.287  14.575
 5891W        W74296  34.438   6.282   3.067
 5892W        W74297  10.827  29.889  14.943
 5893W        W74298  39.019  10.275   0.877
 5894W        W74299  32.561  32.447  14.510
 5895W        W74300  15.462   0.401   2.288
 5896W        W74301  22.125   1.962   2.223
 5897W        W74302  23.206  14.355   4.094
 5898W        W74303   1.434  40.795  14.435
 5899W        W74304  43.011  31.908   4.068
 5900W        W74305  15.153  19.527  10.842
 5901W        W74306  37.136   0.950  11.375
 5902W        W74307   8.258  17.780   1.817
 5903W        W74308  25.126   5.604   2.902
 5904W        W74309  32.968  16.823   1.467
 5905W        W74310  27.514   7.396  13.498
 5906W        W74311  12.888  15.065  13.884
 5907W        W74312  18.398   3.651  12.685
 5908W        W74313  40.286  28.159   0.310
 5909W        W74314  13.546  15.208   3.020
 5910W        W74315  37.921  33.168  14.307
 5911W        W74316  36.501  10.791   2.855
 5912W        W74317  23.479  15.580  13.410
 5913W        W74318  16.769   1.576   1.961
 5914W        W74319  39.123  42.798   0.696
 5915W        W74320  15.007   3.938   1.832
 5916W        W74321  18.967  19.693   4.187
 5917W        W74322  33.613  37.686  10.282
 5918W        W74323   1.427  14.743  13.912
 5919W        W74324  17.225  36.097  14.760
 5920W        W74325  39.810   1.157   4.970
 5921W        W74326  15.589   1.808  13.849
 5922W        W74327   0.728  43.576   1.170
 5923W        W74328   6.797   4.685   1.433
 5924W        W74329  34.869  35.047  11.110
 5925W        W74330  31.980   5.710  12.891
 5926W        W74331  19.779  17.794   1.390
 5927W        W74332  39.972  27.169  13.037
 5928W        W74333  14.570  42.531   2.915
 5929W        W74334   9.704   8.739  11.670
 5930W        W74335   3.987  30.609   4.580
 5931W        W74336  17.027   9.441  13.417
 5932W        W74337  18.521  26.660  12.118
 5933W        W74338  30.489  20.325   2.577
 5934W        W74339  18.697  10.960   2.943
 5935W        W74340  20.052  20.585  10.994
 5936W        W74341   1.244   7.379  12.380
 5937W        W74342   2.110   9.388   4.577
 5938W        W74343  25.953  21.072   1.860
 5939W        W74344   5.769  24.730   1.944
 5940W        W74345  22.033  11.881  11.506
 5941W        W74346  19.639  29.488   4.276
 5942W        W74347  42.706   6.693   1.432
 5943W        W74348  38.956  27.480  11.706
 5944W        W74349  36.889   4.941  13.811
 5945W        W74350  20.174  28.213  11.999
 5946W        W74351  13.095  20.522   0.304
 5947W        W74352  12.763  27.478   1.286
 5948W        W74353  18.849   0.923  13.379
 5949W        W74354  13.813  33.856   1.915
 5950W        W74355   6.445  37.393   3.256
 5951W        W74356  43.506  27.055  10.458
 5952W        W74357   5.903  38.469   1.654
 5953W        W74358  40.553   2.228  12.052
 5954W        W74359  25.015  43.356   2.086
 5955W        W74360  16.092  29.891   2.590
 5956W        W74361  37.646  43.627   3.622
 5957W        W74362  12.092  23.477   4.649
 5958W        W74363   9.869  14.764  14.422
 5959W        W74364  26.437  38.356  11.142
 5960W        W74365  23.782   8.802   3.175
 5961W        W74366   9.915  32.016  14.867
 5962W        W74367  34.342   4.197   2.230
 5963W        W74368   2.655  30.593  14.546
 5964W        W74369  36.486  27.352  13.104
 5965W        W74370  14.277  28.977  11.490
 5966W        W74371  17.903  23.336   1.448
 5967W        W74372  27.467   1.289  12.609
 5968W        W74373  20.692  23.454   3.647
 5969W        W74374  10.862  40.858  13.360
 5970W        W74375  22.274  27.966  14.333
 5971W        W74376  43.073  18.471   3.191
 5972W        W74377  26.704  28.938   3.414
 5973W        W74378   3.222  17.431   1.154
 5974W        W74379  41.792   1.926  12.005
 5975W        W74380  43.921  31.468   0.741
 5976W        W74381  38.882  27.038   1.814
 5977W        W74382   0.180  39.381   2.824
 5978W        W74383  42.062  12.646   2.793
 5979W        W74384   4.750  19.331  11.431
 5980W        W74385   0.029  13.347  11.992
 5981W        W74386  24.320  23.119   2.362
 5982W        W74387   4.009  21.190   3.305
 5983W        W74388  24.632  15.445   2.263
 5984W        W74389  16.996  19.991  12.859
 5985W        W74390  38.947  26.147   0.834
 5986W        W74391  11.939  18.931  12.090
 5987W        W74392  28.971  15.284   2.293
 5988W        W74393  37.400  29.643   4.570
 5989W        W74394  19.140  24.951   4.191
 5990W        W74395  24.421  12.192   3.842
 5991W        W74396  31.922  16.111  12.531
 5992W        W74397  42.867  35.066   0.473
 5993W        W74398   5.439  31.388  13.818
 5994W        W74399  25.938  26.105   3.753
 5995W        W74400  42.247  18.161  13.450
 5996W        W74401   1.068  15.234  13.331
 5997W        W74402  14.062   9.735  11.187
 5998W        W74403  15.564   9.162   4.173
 5999W        W74404  30.416  27.750   0.430
 6000W        W74405   7.628  24.119  13.823
 6001W        W74406  22.312  43.827   0.404
 6002W        W74407   3.683  32.991  14.875
 6003W        W74408  16.362   7.178   2.774
 6004W        W74409   8.208  23.340   3.150
 6005W        W74410  26.911   5.983  14.894
 6006W        W74411  18.316  11.597  10.763
 6007W        W74412  37.934   2.345   1.243
 6008W        W74413  23.955   0.862   2.188
 6009W        W74414  11.609   1.468  14.228
 6010W        W74415  32.086  40.211  13.021
 6011W        W74416  12.806  15.298   1.749
 6012W        W74417  36.600  33.279  11.177
 6013W        W74418  15.196   4.723   3.728
 6014W        W74419  26.396  25.947  14.815
 6015W        W74420  19.719  14.704  13.138
 6016W        W74421  22.237  16.210   0.129
 6017W        W74422  25.910  42.798   3.262
 6018W        W74423   8.889  26.519  14.438
 6019W        W74424  34.163   0.524  14.553
 6020W        W74425  32.483  14.206   4.184
 6021W        W74426  20.525   2.421   5.071
 6022W        W74427  10.180  24.809  11.122
 6023W        W74428  33.694  32.625  10.016
 6024W        W74429  10.594   3.952   1.084
 6025W        W74430  24.805  13.782  12.491
 6026W        W74431  33.161  42.440   4.006
 6027W        W74432   9.971  14.649  13.029
 6028W        W74433  39.021  28.367  10.621
 6029W        W74434  19.758  36.856  13.422
 6030W        W74435   5.723  33.053  10.441
 6031W        W74436  11.663  33.786   4.514
 6032W        W74437  20.726  25.543   0.374
 6033W        W74438  25.848  13.762   3.197
 6034W        W74439   4.459  28.160  10.710
 6035W        W74440   6.821  12.485  13.446
 6036W        W74441  25.986  25.997  12.926
 6037W        W74442  43.183  14.255   2.595
 6038W        W74443   4.502  17.660  11.953
 6039W        W74444  12.698  29.023  12.627
 6040W        W74445  28.062  33.873   2.446
 6041W        W74446  42.589   2.877  12.521
 6042W        W74447  16.055   7.348  12.153
 6043W        W74448  26.689  44.537  12.869
 6044W        W74449  27.598  38.198  10.579
 6045W        W74450  44.736  43.666   2.804
 6046W        W74451  19.680  22.056  10.171
 6047W        W74452  19.650  41.414   2.233
 6048W        W74453  43.747  23.621  13.936
 6049W        W74454   1.827  16.481  13.432
 6050W        W74455  37.344  43.040   4.281
 6051W        W74456   9.123  41.970  13.488
 6052W        W74457  20.266  18.711  10.696
 6053W        W74458  15.047  23.352   2.312
 6054W        W74459   3.867  14.856   1.130
 6055W        W74460   1.925  17.874  14.301
 6056W        W74461  42.373  41.412  11.546
 6057W        W74462  17.363   7.377   1.819
 6058W        W74463  40.934   7.377   1.373
 6059W        W74464   7.077  40.558   0.892
 6060W        W74465  26.640  27.460   3.666
 6061W        W74466  32.789   3.836  12.579
 6062W        W74467  37.425   9.351   2.481
 6063W        W74468  16.826  11.446  11.997
 6064W        W74469   1.909  16.281   0.788
 6065W        W74470  27.746  26.555  14.945
 6066W        W74471  44.782   8.012   9.950
 6067W        W74472   5.797  14.361  11.472
 6068W        W74473  37.408  31.622   3.140
 6069W        W74474  39.555  30.012   0.161
 6070W        W74475  25.535  43.447  11.151
 6071W        W74476  30.618  32.209   4.812
 6072W        W74477  11.283  13.158  10.596
 6073W        W74478  11.116  35.831   1.407
 6074W        W74479  25.460   2.813   1.374
 6075W        W74480  11.326  29.673  10.848
 6076W        W74481   0.973   8.225  13.543
 6077W        W74482  20.096  29.626  13.184
 6078W        W74483  35.561  13.539  13.385
 6079W        W74484  17.428  13.108   3.710
 6080W        W74485  39.573  11.436  14.761
 6081W        W74486  38.488  37.474  14.876
 6082W        W74487  42.115  38.422  13.026
 6083W        W74488  43.564  20.616  14.980
 6084W        W74489  27.159  40.377  11.447
 6085W        W74490  18.670  13.853   2.682
 6086W        W74491   0.923  30.388   0.270
 6087W        W74492   9.835   7.013  14.795
 6088W        W74493  37.335  33.412   2.878
 6089W        W74494  17.780  30.618  12.052
 6090W        W74495  37.625   0.854  11.034
 6091W        W74496  33.940   7.762   4.870
 6092W        W74497  44.423   8.892  11.617
 6093W        W74498   5.885  41.134  13.418
 6094W        W74499  27.062  20.181   0.202
 6095W        W74500  14.668  24.479  13.756
 6096W        W74501  26.012  10.003  14.798
 6097W        W74502  10.279  32.570   0.534
 6098W        W74503  30.204   2.744  12.976
 6099W        W74504  32.942  18.772  14.501
 6100W        W74505  39.332   6.085  10.580
 6101W        W74506  18.728  41.121   2.877
 6102W        W74507  11.585  32.580  14.177
 6103W        W74508  10.706   2.925   4.897
 6104W        W74509  10.941   4.961  13.016
 6105W        W74510  26.780  18.645  11.629
 6106W        W74511  44.494  38.173  12.969
 6107W        W74512  41.089   2.490   4.938
 6108W        W74513  16.462  37.997  12.568
 6109W        W74514  43.715  31.956  14.884
 6110W        W74515  14.618   1.219  12.457
 6111W        W74516   3.753   2.329  11.119
 6112W        W74517  31.320  17.533   5.574
 6113W        W74518  30.169  15.683  11.024
 6114W        W74519  35.951  30.783  13.306
 6115W        W74520  14.217  14.652   0.847
 6116W        W74521   8.017  37.452  11.466
 6117W        W74522  30.960  23.084   3.329
 6118W        W74523  41.368  20.300   0.507
 6119W        W74524   6.671  30.701   2.790
 6120W        W74525  40.611  10.723  11.020
 6121W        W74526  43.216  28.622   4.869
 6122W        W74527   4.469  15.688   1.870
 6123W        W74528   8.009  25.942   1.846
 6124W        W74529  35.937  23.611  14.880
 6125W        W74530  37.982   1.915  13.280
 6126W        W74531   7.433  13.172   2.786
 6127W        W74532  22.504  37.011   3.150
 6128W        W74533  25.601  36.259  13.861
 6129W        W74534  25.169  15.470  13.515
 6130W        W74535  23.644   3.361   0.657
 6131W        W74536  30.327   7.926  12.002
 6132W        W74537  15.104   4.398   4.967
 6133W        W74538  11.274  26.696  10.872
 6134W        W74539  24.909   7.465   4.744
 6135W        W74540  44.001  10.130   3.337
 6136W        W74541   3.491  22.750   1.361
 6137W        W74542  43.226  39.837   9.979
 6138W        W74543   9.391  35.524   4.418
 6139W        W74544  13.140  29.364  12.057
 6140W        W74545  33.492   2.399   0.965
 6141W        W74546  39.615  17.151   2.737
 6142W        W74547  31.481  35.782   3.347
 6143W        W74548  35.523   5.438  12.931
 6144W        W74549  10.102  21.138   4.654
 6145W        W74550  21.563   7.163   1.862
 6146W        W74551  16.687  11.673   2.707
 6147W        W74552  18.689  26.485  14.464
 6148W        W74553  22.193  35.528   1.754
 6149W        W74554  13.621   7.207  10.993
 6150W        W74555  36.475  36.135  14.003
 6151W        W74556  33.817   8.174   1.765
 6152W        W74557  44.827  31.057   3.635
 6153W        W74558  11.285  21.741  14.783
 6154W        W74559  28.189   0.381  13.155
 6155W        W74560  18.667  44.493   2.203
 6156W        W74561  29.447  12.021  12.598
 6157W        W74562  11.187  27.995  14.035
 6158W        W74563   8.771   9.709   2.409
 6159W        W74564  12.584  25.996   2.878
 6160W        W74565   4.120  26.658   3.772
 6161W        W74566  11.324  30.361   4.511
 6162W        W74567   5.194   0.867  14.785
 6163W        W74568  37.956  32.078   0.347
 6164W        W74569  17.274   2.254   4.469
 6165W        W74570  16.276  27.209   1.104
 6166W        W74571   2.502  11.291  13.029
 6167W        W74572   9.359  19.543   5.307
 6168W        W74573  21.103  29.753   3.188
 6169W        W74574  42.951  10.287   2.302
 6170W        W74575  33.829  38.980  11.314
 6171W        W74576  12.845   6.853   0.064
 6172W        W74577   0.100  20.456   1.391
 6173W        W74578  14.722  32.017  10.300
 6174W        W74579  15.213  16.197  13.212
 6175W        W74580  17.210   6.905   2.172
 6176W        W74581   8.135  26.137  13.512
 6177W        W74582   7.896  18.757   3.213
 6178W        W74583  25.556  38.318   3.651
 6179W        W74584  41.617   5.445   3.632
 6180W        W74585  26.452  25.910   3.577
 6181W        W74586  14.698  33.308  13.906
 6182W        W74587  30.442  21.276   3.832
 6183W        W74588  13.558  30.243   3.700
 6184W        W74589   2.280   4.210  14.981
 6185W        W74590   3.446  34.612  12.401
 6186W        W74591  19.960  38.634  11.384
 6187W        W74592   2.682  38.755   2.445
 6188W        W74593  18.204  37.660   0.013
 6189W        W74594  15.726  41.116   4.197
 6190W        W74595  18.370  34.006   3.197
 6191W        W74596  32.692  20.652  14.519
 6192W        W74597  26.188  42.312   1.397
 6193W        W74598   9.858  38.379   4.142
 6194W        W74599  20.106  22.216  13.971
 6195W        W74600   0.257  15.201   1.863
 6196W        W74601  32.109  17.270   2.321
 6197W        W74602  34.902  11.316   3.867
 6198W        W74603   2.713  22.572   4.578
 6199W        W74604  36.141  26.690  14.011
 6200W        W74605  40.310   7.888   0.312
 6201W        W74606  31.917  33.825  14.305
 6202W        W74607  34.057  23.461   4.747
 6203W        W74608  30.116  44.422  11.856
 6204W        W74609  23.672  27.887  11.933
 6205W        W74610  39.443  31.947   4.548
 6206W        W74611  28.361  21.250  11.522
 6207W        W74612  34.307  37.981  12.510
 6208W        W74613   4.484  38.155  11.043
 6209W        W74614  25.948  18.824   2.497
 6210W        W74615  21.117  37.140  12.083
 6211W        W74616  38.198  26.130   1.692
 6212W        W74617   8.399  10.902   1.709
 6213W        W74618  20.932  20.705  14.507
 6214W        W74619  13.619   0.409  12.679
 6215W        W74620  43.058   6.341  12.042
 6216W        W74621   3.793  17.848   3.634
 6217W        W74622  40.031  26.262   2.182
 6218W        W74623   2.845  40.890   4.216
 6219W        W74624  20.965  25.516   1.319
 6220W        W74625  30.930  17.370   9.723
 6221W        W74626  21.148  35.114   1.441
 6222W        W74627  17.820   4.749  11.514
 6223W        W74628  33.850  25.609  13.897
 6224W        W74629  42.150  23.634  14.845
 6225W        W74630  12.379  39.889  13.373
 6226W        W74631   9.138  13.779  10.758
 6227W        W74632  26.669   9.922   1.382
 6228W        W74633  31.169  40.340  11.003
 6229W        W74634  11.237  41.789   1.688
 6230W        W74635   2.282   6.319  14.779
 6231W        W74636  33.677  27.690  10.332
 6232W        W74637  43.791  44.761   1.289
 6233W        W74638  15.867  17.987  10.499
 6234W        W74639   4.312   2.657   2.237
 6235W        W74640  38.337  11.885   1.843
 6236W        W74641  10.607  16.231  11.989
 6237W        W74642   6.838  40.348   0.176
 6238W        W74643  30.625  14.802  14.824
 6239W        W74644  28.316  10.254   1.789
 6240W        W74645  29.003  31.943  14.425
 6241W        W74646  24.497  31.091  11.098
 6242W        W74647   8.384  22.974   2.776
 6243W        W74648   2.323   8.835  12.997
 6244W        W74649  19.045  40.591   4.642
 6245W        W74650  23.191  23.747   1.693
 6246W        W74651  42.898  22.573   2.280
 6247W        W74652  26.723   4.814  12.677
 6248W        W74653  19.176  39.142   4.570
 6249W        W74654  34.941  20.031  11.674
 6250W        W74655   1.330  15.840   2.718
 6251W        W74656  41.306  14.593   0.861
 6252W        W74657  19.242  10.396   0.398
 6253W        W74658  20.542  10.295  13.131
 6254W        W74659   9.982  41.951  12.842
 6255W        W74660  20.031  44.307  11.645
 6256W        W74661  13.326  16.971  10.692
 6257W        W74662  30.031  37.050  12.932
 6258W        W74663   8.339  11.268  13.485
 6259W        W74664  17.353  43.880   2.627
 6260W        W74665  27.505  41.964  12.916
 6261W        W74666   9.286   7.231   3.082
 6262W        W74667  40.477  14.037   1.002
 6263W        W74668   2.723  17.169   1.770
 6264W        W74669  21.675   5.051   4.175
 6265W        W74670   4.807   2.834  13.817
 6266W        W74671  19.606  26.643   3.898
 6267W        W74672  29.730  15.091   1.271
 6268W        W74673   5.421  26.283   4.957
 6269W        W74674  15.946   4.947   3.070
 6270W        W74675   1.882  21.002  13.092
 6271W        W74676  21.523  30.334   2.856
 6272W        W74677  14.304   3.719  11.489
 6273W        W74678  23.042  31.870   0.308
 6274W        W74679  19.687  37.934  12.534
 6275W        W74680   0.448  31.479  14.845
 6276W        W74681  34.933  34.635   0.238
 6277W        W74682   1.188  33.396  13.622
 6278W        W74683  15.573  15.749   1.247
 6279W        W74684  15.550  31.862   4.652
 6280W        W74685  11.081   3.747   1.821
 6281W        W74686  37.795  23.598   3.906
 6282W        W74687  14.702  23.681   4.148
 6283W        W74688  20.631  12.303   0.311
 6284W        W74689  38.719   5.593  10.319
 6285W        W74690  13.708   1.743  14.920
 6286W        W74691   8.711   6.933  14.413
 6287W        W74692  24.003   6.874  12.178
 6288W        W74693  24.063  10.548  10.763
 6289W        W74694   2.213  10.678  14.486
 6290W        W74695   8.591  37.855   2.408
 6291W        W74696   3.285  42.357   2.648
 6292W        W74697  36.584  40.481   1.191
 6293W        W74698   1.636  37.981  14.910
 6294W        W74699  18.457  33.937   0.761
 6295W        W74700  37.100  37.000  14.146
 6296W        W74701  21.579  37.784   2.345
 6297W        W74702  14.759  10.226   2.287
 6298W        W74703   7.799  11.416   0.244
 6299W        W74704  13.790   0.958   3.538
 6300W        W74705  20.545   6.017   1.532
 6301W        W74706  26.071  25.494   1.939
 6302W        W74707   4.686  21.228   2.241
 6303W        W74708  38.981  33.921  11.496
 6304W        W74709  25.960  27.226  12.524
 6305W        W74710   7.702  22.766   1.258
 6306W        W74711  23.102  27.727   3.061
 6307W        W74712  24.975   6.923   0.296
 6308W        W74713  44.294  20.041  11.595
 6309W        W74714  29.934  30.612   0.723
 6310W        W74715  22.985  38.160  11.078
 6311W        W74716  32.084  21.035   3.587
 6312W        W74717  28.183   8.241  11.229
 6313W        W74718   4.647  26.571  11.700
 6314W        W74719   3.469   4.488   0.488
 6315W        W74720   6.213   7.445   1.872
 6316W        W74721  12.441  16.435  11.610
 6317W        W74722  10.384  40.134   4.725
 6318W        W74723   9.084   5.308  11.573
 6319W        W74724  28.715  29.018   3.286
 6320W        W74725  24.564  31.154   3.812
 6321W        W74726  20.472  26.054  12.937
 6322W        W74727  28.165  11.782  10.350
 6323W        W74728  29.682  12.313  12.103
 6324W        W74729  16.371  26.102   1.117
 6325W        W74730  37.812  39.912   3.600
 6326W        W74731  38.434  31.566  14.996
 6327W        W74732  11.044  30.779   3.741
 6328W        W74733  17.270  37.109  11.487
 6329W        W74734  23.689  16.180   1.913
 6330W        W74735  43.074  42.261   0.371
 6331W        W74736  14.137  18.647  13.997
 6332W        W74737  32.515  39.236  11.149
 6333W        W74738  24.854  19.179  13.201
 6334W        W74739  25.670  16.081  13.943
 6335W        W74740  13.307   6.521   1.324
 6336W        W74741  35.853   6.474  11.659
 6337W        W74742  42.415  24.940  13.973
 6338W        W74743  30.599  30.375  11.676
 6339W        W74744   9.805   7.675  11.516
 6340W        W74745  20.182  13.773   3.909
 6341W        W74746   9.913  27.650   0.799
 6342W        W74747   1.736  10.208   0.903
 6343W        W74748   7.693  21.598  14.218
 6344W        W74749  32.612   4.255   2.863
 6345W        W74750   9.673   2.365  10.796
 6346W        W74751   9.268   3.234   0.821
 6347W        W74752   2.985  44.031  12.117
 6348W        W74753  12.622  24.161   2.669
 6349W        W74754  23.976  10.133   3.647
 6350W        W74755  18.623  27.611  10.652
 6351W        W74756  32.915  35.854   1.674
 6352W        W74757  11.293  33.826  14.265
 6353W        W74758  40.419   3.645   1.627
 6354W        W74759  27.326  29.086   2.219
 6355W        W74760  27.666  20.970  13.286
 6356W        W74761  28.584  33.149  12.297
 6357W        W74762   5.136  22.550  14.279
 6358W        W74763  17.075  29.392   9.498
 6359W        W74764  36.605  22.717  13.024
 6360W        W74765  43.375   1.215  14.005
 6361W        W74766  33.447  39.345   0.836
 6362W        W74767  42.302  28.595   4.285
 6363W        W74768  17.895  31.554  12.133
 6364W        W74769   7.076  31.929  13.119
 6365W        W74770  43.259  27.371  12.623
 6366W        W74771   8.462  38.410   0.560
 6367W        W74772  35.696   1.910  12.941
 6368W        W74773  24.034   9.247   3.229
 6369W        W74774  43.948  23.489  11.200
 6370W        W74775  32.868  24.646  12.011
 6371W        W74776  33.187  32.565  13.462
 6372W        W74777   4.480  30.070   2.970
 6373W        W74778  12.226  11.299   1.819
 6374W        W74779  19.785   8.596   2.843
 6375W        W74780   8.670  35.099   2.816
 6376W        W74781  25.129  20.504  13.854
 6377W        W74782   6.780   2.418  13.021
 6378W        W74783  21.831   1.238   0.836
 6379W        W74784  36.573  11.833   0.374
 6380W        W74785  13.407  21.588   3.373
 6381W        W74786   5.372  41.739  13.816
 6382W        W74787  37.357  35.374   2.365
 6383W        W74788  37.811  37.988  13.388
 6384W        W74789  39.856  11.049   1.580
 6385W        W74790   1.418  21.170   1.183
 6386W        W74791  13.267  16.667   4.367
 6387W        W74792   4.195  30.029   4.101
 6388W        W74793  37.252  30.556  14.981
 6389W        W74794  36.586  28.423   3.344
 6390W        W74795  27.719  13.287   3.323
 6391W        W74796   3.918   8.278   0.745
 6392W        W74797  17.449  21.731  13.470
 6393W        W74798  27.116  25.252   1.447
 6394W        W74799  34.849  24.844   3.134
 6395W        W74800  27.445  24.712   1.074
 6396W        W74801   8.228  24.025   4.329
 6397W        W74802   8.928  42.732   1.912
 6398W        W74803  16.758   9.414   0.403
 6399W        W74804  21.098  35.721  11.706
 6400W        W74805   6.011  39.006   4.491
 6401W        W74806  22.073  33.949  14.525
 6402W        W74807  16.066  26.498  11.409
 6403W        W74808  34.471   3.284   3.373
 6404W        W74809   6.227  20.096  14.480
 6405W        W74810  21.992  13.258  11.445
 6406W        W74811   3.916  23.678  14.964
 6407W        W74812  36.977  33.393   0.255
 6408W        W74813  15.218  23.968  13.251
 6409W        W74814  37.530   1.299  13.286
 6410W        W74815  14.085  41.837  11.213
 6411W        W74816  23.681   8.227  13.406
 6412W        W74817  15.216  44.267   0.424
 6413W        W74818  12.095  43.644   4.915
 6414W        W74819  44.454  44.772  14.917
 6415W        W74820  19.833  12.129  11.131
 6416W        W74821  26.509  11.012  13.862
 6417W        W74822  15.646  39.034   0.555
 6418W        W74823  41.101  13.772  11.995
 6419W        W74824   1.453  16.825  13.431
 6420W        W74825   4.833  18.517   2.589
 6421W        W74826  13.717  44.834   0.229
 6422W        W74827  13.286  39.018  12.432
 6423W        W74828  42.009  13.439  11.846
 6424W        W74829  17.005  31.831   2.272
 6425W        W74830  19.829  43.856  11.403
 6426W        W74831  44.756   5.237  13.385
 6427W        W74832  33.789  34.011   2.384
 6428W        W74833   6.144   8.807  12.907
 6429W        W74834   7.100   7.760   3.742
 6430W        W74835  10.990  39.975  11.944
 6431W        W74836  44.185  12.717  12.128
 6432W        W74837  41.852  19.611   0.153
 6433W        W74838   8.500   9.982  12.984
 6434W        W74839  12.402  20.688   2.497
 6435W        W74840  30.991  42.007   2.191
 6436W        W74841  12.775  20.775   1.464
 6437W        W74842   4.553  11.691   3.662
 6438W        W74843  37.929  23.281  11.128
 6439W        W74844  23.099  17.003  13.024
 6440W        W74845  16.320   6.890  12.868
 6441W        W74846  36.570  26.307   3.366
 6442W        W74847  41.829  44.026   2.841
 6443W        W74848   8.568   2.456  10.756
 6444W        W74849  36.015  44.024   4.678
 6445W        W74850  23.589  35.934  14.540
 6446W        W74851   5.710  11.612   2.895
 6447W        W74852  43.445  34.612   1.424
 6448W        W74853  27.577  34.570   0.974
 6449W        W74854  14.170  34.342  12.915
 6450W        W74855   9.665  14.286  14.324
 6451W        W74856  24.188  16.633   3.706
 6452W        W74857   7.248  11.738  12.675
 6453W        W74858  20.237  16.166   4.713
 6454W        W74859  23.605  25.543   2.197
 6455W        W74860  32.816  32.300   3.719
 6456W        W74861  31.544  12.192   0.056
 6457W        W74862  31.883   1.794  13.750
 6458W        W74863  32.933  24.169   1.664
 6459W        W74864  23.583  41.147  11.283
 6460W        W74865  11.814  15.201   1.529
 6461W        W74866   5.720   0.451   2.348
 6462W        W74867  36.037   9.546   3.631
 6463W        W74868  24.571  33.683  14.426
 6464W        W74869  42.716  41.483   4.669
 6465W        W74870  25.496  40.574   4.615
 6466W        W74871   7.291  29.387  14.846
 6467W        W74872  15.748  28.758  14.896
 6468W        W74873   9.694  16.768   0.855
 6469W        W74874   1.538  34.428   4.637
 6470W        W74875  25.926  25.075   0.315
 6471W        W74876   4.740  29.563   0.910
 6472W        W74877  44.696  15.878   4.639
 6473W        W74878   1.248  28.365   0.389
 6474W        W74879  12.399   6.821  11.667
 6475W        W74880  24.685  27.714   3.288
 6476W        W74881  19.791  39.527   1.409
 6477W        W74882  29.651  34.793   1.379
 6478W        W74883  22.271  15.246  14.972
 6479W        W74884  20.319   2.237   2.772
 6480W        W74885  30.960  17.707  12.360
 6481W        W74886   2.961   3.905   1.720
 6482W        W74887  22.604  13.893  12.867
 6483W        W74888  22.985   9.850   2.825
 6484W        W74889  31.459  20.818   0.028
 6485W        W74890  22.707   8.375   1.735
 6486W        W74891   5.366  38.072   0.825
 6487W        W74892  12.731  40.810  14.465
 6488W        W74893  27.622  11.674  12.352
 6489W        W74894  40.480   7.802  12.392
 6490W        W74895  32.348  40.884   3.731
 6491W        W74896  20.312  43.258   3.763
 6492W        W74897  28.683  20.697  14.958
 6493W        W74898  30.171  26.671  10.638
 6494W        W74899  17.628  19.563   0.295
 6495W        W74900   1.458  41.018  14.927
 6496W        W74901   9.678  29.469  13.930
 6497W        W74902  31.853  26.399   4.038
 6498W        W74903  18.175  17.900   4.183
 6499W        W74904  42.187  37.320   3.271
 6500W        W74905  14.278  16.640  12.459
 6501W        W74906  25.044  10.067   1.416
 6502W        W74907  10.942  16.937   1.395
 6503W        W74908  14.083  24.484  11.360
 6504W        W74909  12.744  11.351  10.898
 6505W        W74910  10.254  26.104  12.057
 6506W        W74911  28.933  19.808   4.526
 6507W        W74912  44.819  10.720   2.250
 6508W        W74913  17.499   8.714  11.408
 6509W        W74914   9.923   0.384  10.684
 6510W        W74915   7.249   9.944  13.792
 6511W        W74916  42.578  29.150  10.717
 6512W        W74917   7.349   4.903   3.245
 6513W        W74918   7.341  12.281   1.510
 6514W        W74919   5.133  23.508  14.425
 6515W        W74920  21.880  36.371   0.854
 6516W        W74921  28.595  29.252  13.453
 6517W        W74922  15.540  42.620  12.931
 6518W        W74923  19.588  23.660  14.011
 6519W        W74924  21.282  32.511  14.260
 6520W        W74925  31.937  17.614   3.348
 6521W        W74926   1.809  34.119   0.389
 6522W        W74927  15.600  14.680  12.515
 6523W        W74928   8.685  13.320  14.339
 6524W        W74929  30.517  17.609   0.470
 6525W        W74930  39.851  24.206  14.923
 6526W        W74931  34.882  24.511  13.610
 6527W        W74932  41.754  35.104  12.027
 6528W        W74933  19.015  22.785   0.286
 6529W        W74934  24.208  30.332   2.707
 6530W        W74935  12.515   6.823   3.284
 6531W        W74936  33.168  18.120   1.639
 6532W        W74937   5.527   8.288  10.696
 6533W        W74938  20.095  21.648  11.872
 6534W        W74939  39.189  20.572   4.595
 6535W        W74940  17.010  25.302  11.168
 6536W        W74941   9.849   2.191  12.126
 6537W        W74942  24.528  41.848   2.331
 6538W        W74943  20.282   3.359   1.134
 6539W        W74944  31.732  39.610   3.308
 6540W        W74945  24.591   4.729  10.282
 6541W        W74946   6.115  12.389  10.749
 6542W        W74947  18.911   2.218  11.922
 6543W        W74948  34.056  25.125  13.803
 6544W        W74949   5.796   7.685  10.872
 6545W        W74950  27.870  43.494  10.857
 6546W        W74951  24.332   8.154   0.342
 6547W        W74952  41.763  21.757  12.343
 6548W        W74953   2.625  29.753   3.684
 6549W        W74954  28.448  41.191   4.021
 6550W        W74955  13.470  21.614  14.108
 6551W        W74956  12.737  43.541  12.373
 6552W        W74957  11.751  13.373   3.782
 6553W        W74958  28.574  30.023  10.696
 6554W        W74959   7.910  19.855   2.385
 6555W        W74960  19.306  38.946  10.676
 6556W        W74961  21.962  23.527  12.604
 6557W        W74962  30.383  15.756  14.415
 6558W        W74963  17.859  35.505  10.680
 6559W        W74964  19.674  27.483   1.469
 6560W        W74965   6.637  21.968   3.837
 6561W        W74966  26.202  21.968   1.985
 6562W        W74967  38.504  21.770  10.368
 6563W        W74968   4.229  37.173  11.178
 6564W        W74969   1.719  27.952   2.441
 6565W        W74970  17.726  19.462   4.869
 6566W        W74971  22.143   5.860   4.035
 6567W        W74972  28.136  33.358   1.157
 6568W        W74973  44.695  10.172   0.630
 6569W        W74974  35.914   9.798  14.064
 6570W        W74975  43.264  18.319  12.471
 6571W        W74976   7.834  19.600   1.471
 6572W        W74977  30.421  43.665  14.771
 6573W        W74978  26.295  44.305   2.247
 6574W        W74979   5.893  20.485  12.428
 6575W        W74980  44.958  16.590   2.287
 6576W        W74981  11.385  17.766  10.144
 6577W        W74982  30.537  30.479  11.190
 6578W        W74983  29.090  17.612   3.713
 6579W        W74984  44.586   9.868  12.526
 6580W        W74985  22.855  25.391   0.841
 6581W        W74986   1.410  36.060  10.918
 6582W        W74987  19.538   7.817   3.266
 6583W        W74988   0.191  27.995  12.036
 6584W        W74989   1.386  39.396  11.619
 6585W        W74990  35.466  44.246  12.455
 6586W        W74991   2.496  25.654  10.561
 6587W        W74992  25.654  19.792   4.898
 6588W        W74993   1.271   5.298  10.672
 6589W        W74994  36.061  19.095  11.858
 6590W        W74995  10.688  32.590   1.810
 6591W        W74996   9.668   8.255  11.477
 6592W        W74997   9.226   2.772   1.157
 6593W        W74998  16.723  39.555  12.217
 6594W        W74999  16.722  28.265   2.668
 6595W        W75000  36.573  34.603  14.900
 6596W        W75001  21.996   6.150  13.383
 6597W        W75002   5.410  22.847  13.812
 6598W        W75003   2.866  23.710  13.947
 6599W        W75004  38.967  38.370   2.330
 6600W        W75005  15.678  21.646   3.304
 6601W        W75006  27.352  35.026  13.995
 6602W        W75007  43.259  18.224  13.423
 6603W        W75008  41.920  32.752  11.171
 6604W        W75009   3.362  10.951   1.243
 6605W        W75010  30.560  10.696  14.484
 6606W        W75011  14.122   0.319  12.525
 6607W        W75012  23.305   6.222   4.544
 6608W        W75013  14.333  35.074  13.026
 6609W        W75014  20.835  19.837   4.568
 6610W        W75015  43.769  11.626   0.343
 6611W        W75016  32.201  29.095  11.555
 6612W        W75017  33.086   6.762  10.484
 6613W        W75018  24.680   5.222  14.347
 6614W        W75019  31.438  28.259   3.780
 6615W        W75020  44.342  10.142   0.156
 6616W        W75021   0.274   7.629   1.863
 6617W        W75022  20.104   4.977   4.745
 6618W        W75023  31.027  39.095  13.375
 6619W        W75024  31.278  17.737  10.958
 6620W        W75025  21.976   8.333  14.409
 6621W        W75026   5.352  20.525   2.378
 6622W        W75027  37.041  36.881  10.881
 6623W        W75028  17.877  29.250   1.412
 6624W        W75029  11.622  27.174  12.485
 6625W        W75030  23.412  41.424  14.161
 6626W        W75031  37.996  14.698   0.764
 6627W        W75032  17.663  18.747   3.293
 6628W        W75033  32.194  24.280  10.691
 6629W        W75034  19.825  10.226  12.507
 6630W        W75035  28.309  12.248  10.098
 6631W        W75036  24.290  33.020   0.757
 6632W        W75037  19.780   2.454   0.344
 6633W        W75038  33.429  31.924  14.341
 6634W        W75039   9.713   2.744   1.435
 6635W        W75040  10.614  41.409   2.365
 6636W        W75041  16.908  10.291  13.974
 6637W        W75042  31.222  27.076   4.214
 6638W        W75043  12.303  20.968  12.554
 6639W        W75044  18.214  15.752  14.394
 6640W        W75045   8.789  36.995   4.599
 6641W        W75046  42.744  33.817   0.258
 6642W        W75047  42.384  38.720   4.812
 6643W        W75048  16.322  28.237   4.834
 6644W        W75049  36.925  42.278   4.320
 6645W        W75050   8.269   6.822   4.586
 6646W        W75051  24.128   0.256   0.469
 6647W        W75052   0.744  26.138  14.332
 6648W        W75053  31.329  20.649  10.903
 6649W        W75054  17.860  16.390   3.981
 6650W        W75055   5.907  14.804  10.608
 6651W        W75056   6.566  42.355  13.672
 6652W        W75057  10.389  18.279  10.303
 6653W        W75058  26.907   6.390  12.714
 6654W        W75059   9.195  11.761   4.142
 6655W        W75060  12.634   2.909  10.223
 6656W        W75061  44.261   7.548  13.025
 6657W        W75062   4.465  18.548   1.822
 6658W        W75063  44.738  12.132  11.436
 6659W        W75064  26.643  37.565   3.237
 6660W        W75065  15.599  26.044   2.936
 6661W        W75066  13.829  33.072   1.020
 6662W        W75067  18.070  28.532   3.724
 6663W        W75068   3.653  21.809   3.772
 6664W        W75069  35.453  34.435  13.078
 6665W        W75070  32.390   0.966   3.728
 6666W        W75071   0.007  27.462  12.714
 6667W        W75072  23.187   5.467  12.850
 6668W        W75073  23.148   4.858   1.941
 6669W        W75074   9.161  19.184   4.358
 6670W        W75075  35.801  16.345  11.176
 6671W        W75076   7.857  20.145   3.399
 6672W        W75077  23.070  19.405  14.494
 6673W        W75078   9.584  42.128  11.115
 6674W        W75079   8.575  23.719   2.252
 6675W        W75080  19.822  33.295  13.045
 6676W        W75081  15.890   7.436   2.780
 6677W        W75082  12.866  24.987   3.674
 6678W        W75083  35.148  19.148   3.623
 6679W        W75084  20.094   0.894   0.999
 6680W        W75085  36.145  41.294   4.548
 6681W        W75086   5.663  16.682  13.467
 6682W        W75087  27.701  41.784   2.211
 6683W        W75088  26.464   8.635   3.066
 6684W        W75089  18.271   7.769  12.915
 6685W        W75090  39.860   1.619   4.711
 6686W        W75091  30.191  16.247   1.809
 6687W        W75092  16.195  20.752   4.259
 6688W        W75093  20.581  28.388   4.271
 6689W        W75094   7.247   6.414   2.556
 6690W        W75095  44.825  35.170  12.016
 6691W        W75096   8.164  30.692   0.389
 6692W        W75097  28.163   7.067   4.231
 6693W        W75098  21.918  33.064   1.337
 6694W        W75099  40.331   5.214   4.126
 6695W        W75100  19.073  27.089  12.528
 6696W        W75101  20.222  32.362  11.162
 6697W        W75102  15.357  30.132  13.798
 6698W        W75103  27.677  21.293   0.166
 6699W        W75104  21.656  17.519   4.532
 6700W        W75105   3.196  12.148  12.860
 6701W        W75106  17.711   7.281   0.359
 6702W        W75107   9.407  39.842   3.729
 6703W        W75108  38.794   2.646   1.575
 6704W        W75109   8.236  15.261  14.059
 6705W        W75110  29.381  40.910   1.258
 6706W        W75111   3.731  20.328  11.091
 6707W        W75112   1.840   1.265  14.856
 6708W        W75113   9.972  13.008   4.592
 6709W        W75114  20.855  34.932  11.663
 6710W        W75115  41.351  17.730   0.274
 6711W        W75116   9.836  37.045   3.327
 6712W        W75117  27.645  12.221   4.187
 6713W        W75118  30.068   3.649   1.286
 6714W        W75119  44.400  28.711   1.900
 6715W        W75120   1.792   6.169   0.876
 6716W        W75121  30.944  25.193   0.138
 6717W        W75122  10.592  34.721  11.675
 6718W        W75123   6.453   8.361   1.357
 6719W        W75124  37.434  40.453   1.583
 6720W        W75125  30.042  26.232   1.150
 6721W        W75126  27.117  30.598  10.803
 6722W        W75127  42.860  40.429   2.763
 6723W        W75128   4.436  29.448   4.154
 6724W        W75129  13.207  25.525   1.828
 6725W        W75130  41.035  25.211  14.772
 6726W        W75131  34.616  34.881   3.795
 6727W        W75132  34.393  20.661  11.964
 6728W        W75133  24.590  22.736   1.826
 6729W        W75134  16.983  21.111   1.775
 6730W        W75135  32.285   5.766   2.007
 6731W        W75136  19.587   9.859  12.831
 6732W        W75137  25.280  41.347   1.007
 6733W        W75138  27.636  15.272  13.574
 6734W        W75139  21.394  22.276   0.624
 6735W        W75140   7.791   1.908   1.649
 6736W        W75141  36.977   2.453   4.176
 6737W        W75142  21.484   4.403  11.699
 6738W        W75143   1.862   6.842  12.913
 6739W        W75144  36.972  32.911  12.448
 6740W        W75145  28.001   6.612  13.370
 6741W        W75146  14.836   6.792   1.871
 6742W        W75147  19.057  32.516  12.985
 6743W        W75148  18.913  26.436   5.437
 6744W        W75149   1.766  28.565   4.546
 6745W        W75150  26.602  20.481   4.175
 6746W        W75151   8.454  43.573   3.707
 6747W        W75152  26.522  21.328   2.386
 6748W        W75153  36.747  42.710  10.919
 6749W        W75154  33.940  12.129   1.853
 6750W        W75155  14.834  36.986  11.554
 6751W        W75156  32.869  25.589   0.136
 6752W        W75157  36.939  37.611   1.275
 6753W        W75158  27.364  18.019   3.714
 6754W        W75159   0.200  40.385  12.497
 6755W        W75160  29.055  27.938   2.287
 6756W        W75161  29.489  34.301   1.581
 6757W        W75162  44.459  11.200   4.093
 6758W        W75163  10.961  12.800  14.834
 6759W        W75164  27.913  34.033   4.767
 6760W        W75165  22.641   1.790   2.378
 6761W        W75166  29.570   8.720  14.666
 6762W        W75167  27.674  27.291  13.665
 6763W        W75168   9.718   4.797  12.038
 6764W        W75169  22.351  33.205  14.891
 6765W        W75170  17.721  13.681   4.469
 6766W        W75171  15.801  24.083  13.927
 6767W        W75172  37.490   3.727   2.285
 6768W        W75173  44.418  23.459  11.476
 6769W        W75174   0.836   9.383  10.632
 6770W        W75175  10.245  26.506  13.509
 6771W        W75176  36.450  35.038   0.825
 6772W        W75177   2.166  32.284  10.774
 6773W        W75178   2.495  10.926  12.652
 6774W        W75179  27.843  23.464  14.253
 6775W        W75180   1.087  33.925  12.377
 6776W        W75181   8.765  29.654   0.952
 6777W        W75182   4.356  15.923   2.809
 6778W        W75183  10.349   3.121  14.078
 6779W        W75184  44.905  24.228  13.103
 6780W        W75185   4.873  41.909   2.229
 6781W        W75186   5.055  24.752   1.514
 6782W        W75187  14.058  18.147  14.079
 6783W        W75188   3.022  34.150  13.905
 6784W        W75189  28.670  11.289   2.407
 6785W        W75190  30.613  18.486  11.440
 6786W        W75191  25.329   6.664  11.332
 6787W        W75192  11.360   3.095   9.976
 6788W        W75193  22.063  23.396  12.108
 6789W        W75194  24.218   2.650  12.974
 6790W        W75195  36.797   6.310   1.331
 6791W        W75196  12.688  34.330  10.476
 6792W        W75197   5.041  40.706   0.226
 6793W        W75198  10.167  11.977  12.998
 6794W        W75199  44.836  37.588   2.295
 6795W        W75200  22.503   1.552  13.704
 6796W        W75201  39.429  30.362   0.545
 6797W        W75202  40.434  14.326   3.277
 6798W        W75203  34.139   5.657  14.923
 6799W        W75204  18.620  11.122   9.912
 6800W        W75205  40.537  14.286  13.573
 6801W        W75206  44.245  39.000   3.637
 6802W        W75207  24.008   8.455  11.188
 6803W        W75208  29.070  27.622  12.633
 6804W        W75209  16.844  17.237  10.816
 6805W        W75210  17.597  14.693   0.214
 6806W        W75211   9.835  16.549  14.381
 6807W        W75212  11.817  11.201  13.829
 6808W        W75213  35.222  43.181  13.940
 6809W        W75214  25.495  21.041  14.797
 6810W        W75215  38.708  27.097  13.496
 6811W        W75216  34.987  13.198   4.125
 6812W        W75217  43.107  26.758   0.809
 6813W        W75218  43.684  22.532   1.969
 6814W        W75219  31.938  16.463  14.723
 6815W        W75220  38.424  18.161  11.623
 6816W        W75221  14.224  12.358   1.962
 6817W        W75222  17.298  35.003   3.346
 6818W        W75223  35.480  44.714  10.730
 6819W        W75224   1.993  34.332  13.864
 6820W        W75225  15.679  24.088   3.677
 6821W        W75226  13.203  28.616   1.729
 6822W        W75227  44.617   1.888  11.120
 6823W        W75228  19.175  29.395  14.978
 6824W        W75229  17.457  13.050  12.508
 6825W        W75230  36.862  15.514   0.840
 6826W        W75231  33.850   6.620   1.476
 6827W        W75232  14.574  33.671   3.168
 6828W        W75233   4.091   7.539   4.747
 6829W        W75234  39.881  44.223  14.462
 6830W        W75235   2.384  44.804   1.044
 6831W        W75236  10.317  11.685  10.797
 6832W        W75237   8.826  38.971   2.679
 6833W        W75238   4.270  40.346   1.072
 6834W        W75239  30.995  22.105   4.194
 6835W        W75240  19.371  27.114   3.864
 6836W        W75241  27.475  30.512  12.218
 6837W        W75242  33.053  38.111  14.908
 6838W        W75243  42.843  20.833  12.492
 6839W        W75244  34.007  39.965   0.797
 6840W        W75245   9.786  25.176   3.082
 6841W        W75246  10.146   2.274  10.125
 6842W        W75247   6.780  25.394   3.214
 6843W        W75248   2.224  14.331   4.524
 6844W        W75249  19.567  25.319  14.524
 6845W        W75250  20.156  44.954  10.520
 6846W        W75251  20.746  21.290   2.724
 6847W        W75252  20.651  33.588   0.032
 6848W        W75253  41.438  25.799  12.075
 6849W        W75254  37.559  21.607   4.578
 6850W        W75255  14.647  32.489  11.109
 6851W        W75256  41.451  38.006   1.252
 6852W        W75257   5.398  30.050  11.378
 6853W        W75258  37.142  24.164  13.062
 6854W        W75259  13.674  22.149  10.968
 6855W        W75260   3.547  29.100   1.829
 6856W        W75261  44.995   5.880   0.755
 6857W        W75262  12.533  31.886   2.865
 6858W        W75263  10.492  17.035   1.917
 6859W        W75264   4.135  28.617  10.809
 6860W        W75265  13.805  13.391   2.404
 6861W        W75266  11.165  27.287  12.306
 6862W        W75267  16.307  28.254   1.219
 6863W        W75268  14.105  23.466   3.172
 6864W        W75269   7.484  34.373  14.322
 6865W        W75270  14.967   1.289  14.944
 6866W        W75271  37.482  22.907   1.898
 6867W        W75272   6.714  15.624  10.225
 6868W        W75273  14.719   6.695   0.344
 6869W        W75274  35.593   2.807   0.029
 6870W        W75275  32.614  37.338  13.406
 6871W        W75276  25.951   9.911   2.890
 6872W        W75277  12.329  32.644   4.895
 6873W        W75278  12.070  14.807   3.753
 6874W        W75279  43.258  37.315   0.011
 6875W        W75280  11.458  12.810  11.963
 6876W        W75281   9.351  25.556  13.278
 6877W        W75282  28.896  11.684  10.967
 6878W        W75283   6.847  19.034   1.174
 6879W        W75284   3.604   6.385  14.869
 6880W        W75285  39.318   7.241  11.841
 6881W        W75286  11.728  12.700   3.029
 6882W        W75287   0.845   7.262  13.999
 6883W        W75288   9.688   1.515   0.961
 6884W        W75289  16.713  11.145   0.849
 6885W        W75290  42.664  41.260  11.129
 6886W        W75291  13.877  38.422  11.726
 6887W        W75292  33.110  40.794  14.332
 6888W        W75293  44.721  20.756   1.165
 6889W        W75294  17.811  25.484  12.017
 6890W        W75295  32.435  32.833  11.112
 6891W        W75296   0.057  11.747  10.654
 6892W        W75297  23.025  37.385   4.431
 6893W        W75298  14.605  39.641   0.883
 6894W        W75299  28.734  27.591  11.629
 6895W        W75300  15.814  21.313   1.016
 6896W        W75301  39.539  40.603   2.342
 6897W        W75302  33.564  11.242   4.416
 6898W        W75303  24.228  33.544  12.088
 6899W        W75304  10.384   3.826   3.274
 6900W        W75305  16.589  32.469   0.943
 6901W        W75306  19.564  31.642   0.026
 6902W        W75307   3.409  28.581  14.554
 6903W        W75308  34.236   3.316   4.176
 6904W        W75309  21.704  29.551   0.258
 6905W        W75310  14.719   6.268   4.547
 6906W        W75311  12.091  25.490  13.479
 6907W        W75312   4.037  33.038  13.610
 6908W        W75313  40.979  30.947   4.257
 6909W        W75314   6.286  43.700   2.436
 6910W        W75315  34.798  16.531  13.974
 6911W        W75316   7.722  10.775   4.246
 6912W        W75317  29.499  38.756   2.356
 6913W        W75318   7.927  39.331   1.797
 6914W        W75319  44.099   0.240   4.632
 6915W        W75320  39.420  32.941  11.913
 6916W        W75321   9.613  42.945   3.707
 6917W        W75322  25.973   5.321  12.951
 6918W        W75323   5.104  42.838  14.372
 6919W        W75324   0.032  27.474  14.336
 6920W        W75325  41.122  28.675  12.044
 6921W        W75326  37.493   6.762  13.851
 6922W        W75327  32.567   6.401   4.201
 6923W        W75328  11.393  44.412   0.962
 6924W        W75329  29.552  35.995   2.129
 6925W        W75330  39.540   2.551  14.277
 6926W        W75331   2.071   5.327   1.219
 6927W        W75332  20.132  33.893  11.954
 6928W        W75333  34.942  19.792  14.493
 6929W        W75334  42.062  17.748  11.034
 6930W        W75335  14.749  35.462  10.422
 6931W        W75336  44.633   1.334   4.046
 6932W        W75337  12.770  23.498  13.078
 6933W        W75338  27.143   5.929  14.420
 6934W        W75339   2.685  19.261   3.815
 6935W        W75340  41.020   6.077   9.681
 6936W        W75341  13.566  34.664   0.283
 6937W        W75342  19.255  16.494  13.400
 6938W        W75343  38.963  21.539  13.552
 6939W        W75344  24.728  35.866  13.555
 6940W        W75345  34.846  19.504  14.024
 6941W        W75346  34.150   6.332  11.066
 6942W        W75347  43.226  34.113  11.643
 6943W        W75348  13.097  16.476   0.419
 6944W        W75349  11.400  23.599  10.449
 6945W        W75350  21.000  30.505   3.779
 6946W        W75351  43.900  23.719   1.837
 6947W        W75352  16.308   2.657  13.593
 6948W        W75353   3.397  19.946  11.018
 6949W        W75354   5.119  23.782  11.085
 6950W        W75355   8.763  41.545  12.571
 6951W        W75356   5.727  34.789   1.711
 6952W        W75357  10.716  32.433  14.007
 6953W        W75358   5.677  23.073  11.049
 6954W        W75359  21.562  16.233  14.339
 6955W        W75360   4.881   7.337   0.032
 6956W        W75361  42.349   4.566   0.477
 6957W        W75362  10.505  31.072   2.916
 6958W        W75363   2.359  20.435  11.403
 6959W        W75364  30.559  29.856   2.762
 6960W        W75365  13.200  37.623  12.458
 6961W        W75366  22.578  10.253   3.557
 6962W        W75367   3.905  26.200   2.851
 6963W        W75368   0.484  26.605   1.571
 6964W        W75369  37.380  14.898  12.008
 6965W        W75370  41.512  12.318  14.363
 6966W        W75371  39.097  19.315  12.630
 6967W        W75372  22.552   1.940  12.848
 6968W        W75373  12.357  40.097  11.533
 6969W        W75374  38.525   0.766  11.458
 6970W        W75375  34.598  24.154  14.785
 6971W        W75376   3.241  13.330  11.114
 6972W        W75377  24.747  34.140   3.694
 6973W        W75378  24.742  34.249   1.920
 6974W        W75379   8.607   2.662  12.569
 6975W        W75380  43.370  43.948   1.818
 6976W        W75381  40.308  20.572  12.845
 6977W        W75382  35.040  11.345   3.367
 6978W        W75383  32.949  37.734   4.696
 6979W        W75384  29.529  22.142  14.368
 6980W        W75385  34.346  12.843   0.458
 6981W        W75386  27.125  41.299   4.184
 6982W        W75387   5.979  35.573  14.404
 6983W        W75388  24.065  23.475   0.734
 6984W        W75389  12.858   3.855  14.809
 6985W        W75390  18.078  32.442  12.664
 6986W        W75391  11.543  19.647   4.984
 6987W        W75392  44.982  28.665   0.828
 6988W        W75393   4.490   1.364  13.625
 6989W        W75394   1.663  43.546   1.474
 6990W        W75395  10.830   7.436  12.878
 6991W        W75396  14.812  35.021  11.149
 6992W        W75397  43.522  27.793  12.543
 6993W        W75398   5.736  27.162  14.980
 6994W        W75399  13.679   7.423   0.260
 6995W        W75400  13.197   1.428  12.352
 6996W        W75401  15.318  32.506  14.744
 6997W        W75402  41.471   8.856  13.536
 6998W        W75403  14.589  21.731   0.696
 6999W        W75404  36.074   2.400   2.478
 7000W        W75405  15.227  23.996   0.988
 7001W        W75406   1.955  11.349   1.930
 7002W        W75407  21.987   9.307  14.291
 7003W        W75408  25.288  25.480   2.827
 7004W        W75409  32.555  10.187  13.616
 7005W        W75410  36.311  10.796  14.918
 7006W        W75411   7.534  18.927   4.119
 7007W        W75412  35.778  28.623   0.435
 7008W        W75413   6.146  23.750  14.314
 7009W        W75414  30.074   7.253  13.547
 7010W        W75415  10.712  44.071  14.560
 7011W        W75416   4.807   4.974  11.759
 7012W        W75417  34.188  27.705   0.952
 7013W        W75418   3.737  32.627   0.277
 7014W        W75419  38.013  10.261  10.328
 7015W        W75420  22.212  43.990   1.055
 7016W        W75421  40.741  41.613   4.177
 7017W        W75422  12.803   3.774  14.280
 7018W        W75423   4.991   2.049   4.852
 7019W        W75424   7.312  16.552  13.184
 7020W        W75425   1.485  26.592   3.207
 7021W        W75426  35.781  10.191  10.680
 7022W        W75427  40.541  36.428  11.626
 7023W        W75428  16.516   6.755  11.372
 7024W        W75429  36.630  13.465  13.983
 7025W        W75430  18.050  25.655  12.458
 7026W        W75431  43.314  13.377   4.087
 7027W        W75432  25.718  32.495   0.412
 7028W        W75433   2.945  36.609   3.173
 7029W        W75434  17.324  42.755   4.127
 7030W        W75435  22.378  25.283  12.027
 7031W        W75436  16.775  39.148  14.486
 7032W        W75437  21.038  39.404   2.129
 7033W        W75438   2.111  38.750  10.081
 7034W        W75439  25.047   6.929   3.137
 7035W        W75440  25.136  38.793   3.078
 7036W        W75441   5.899  28.140   3.136
 7037W        W75442  13.677  11.102   4.288
 7038W        W75443  11.162  18.610  10.711
 7039W        W75444  40.982  15.804  10.678
 7040W        W75445  33.436  27.721  13.418
 7041W        W75446  27.570  13.769   0.709
 7042W        W75447  18.489  16.770  13.887
 7043W        W75448   1.305   6.664   0.339
 7044W        W75449  18.683  18.636   3.592
 7045W        W75450   4.479  32.598   1.773
 7046W        W75451  44.886  30.699  10.581
 7047W        W75452  16.071  11.188  14.442
 7048W        W75453  25.503  41.588   5.045
 7049W        W75454   2.525  25.499   4.227
 7050W        W75455  19.224  11.223   1.214
 7051W        W75456   9.088   2.336  12.605
 7052W        W75457  21.486  28.871   1.991
 7053W        W75458  27.983  11.582   3.323
 7054W        W75459  28.515  16.824   2.812
 7055W        W75460  32.541  24.251  11.883
 7056W        W75461  23.994  43.460  10.601
 7057W        W75462   3.282  42.881  12.107
 7058W        W75463  13.857   5.187  14.330
 7059W        W75464  42.472  15.292   1.266
 7060W        W75465  44.927  21.971  10.865
 7061W        W75466  37.080  18.481  12.450
 7062W        W75467   9.150   2.876  13.286
 7063W        W75468  22.996  16.214  11.457
 7064W        W75469  44.685  26.652   4.166
 7065W        W75470   5.179   6.320   2.826
 7066W        W75471  28.019  33.145   4.462
 7067W        W75472  43.609  27.916  11.171
 7068W        W75473  13.687  11.207   3.347
 7069W        W75474  23.534  33.045  11.934
 7070W        W75475  43.157  21.616   1.819
 7071W        W75476   7.283   7.829  14.071
 7072W        W75477  16.760  30.956  11.152
 7073W        W75478  43.585  10.671  14.944
 7074W        W75479  44.147  39.768  14.668
 7075W        W75480  35.483   2.427   4.703
 7076W        W75481  34.663  36.324   0.883
 7077W        W75482   2.002  13.785  14.434
 7078W        W75483  16.217  40.285   4.407
 7079W        W75484  33.429  32.231   2.619
 7080W        W75485  38.757  34.104  12.435
 7081W        W75486  13.818  39.774   2.168
 7082W        W75487  18.081  44.002   0.279
 7083W        W75488  21.241  12.826  13.465
 7084W        W75489  17.481  20.192  13.904
 7085W        W75490  17.158  18.533   3.283
 7086W        W75491   2.504  23.002  12.469
 7087W        W75492   2.049  16.374  12.978
 7088W        W75493  27.213  10.991   0.888
 7089W        W75494  23.911  26.664   3.100
 7090W        W75495   3.272   6.452  13.042
 7091W        W75496  25.730   5.318   1.801
 7092W        W75497  29.899  24.996   4.559
 7093W        W75498  28.447  21.021   1.037
 7094W        W75499   7.002  39.434   2.720
 7095W        W75500  16.605  44.060   1.361
 7096W        W75501  13.116  15.669  10.103
 7097W        W75502   4.135  27.252   1.758
 7098W        W75503  29.076  28.519   0.386
 7099W        W75504  31.083  16.487  10.622
 7100W        W75505  23.006   5.353  11.517
 7101W        W75506  33.997  41.884  10.734
 7102W        W75507   9.350   1.294   1.283
 7103W        W75508  41.903  32.231  11.193
 7104W        W75509  12.243   9.195   3.322
 7105W        W75510   4.491  40.474   4.205
 7106W        W75511  13.201  35.416  10.879
 7107W        W75512  37.785  40.795  11.160
 7108W        W75513   5.209  37.629  12.058
 7109W        W75514  33.655   5.426   1.870
 7110W        W75515   5.581   5.226   1.252
 7111W        W75516  38.278   3.954  12.866
 7112W        W75517   6.244  37.079   4.849
 7113W        W75518  40.982   1.851  12.957
 7114W        W75519  38.458  22.065   1.730
 7115W        W75520   9.286  10.394  10.595
 7116W        W75521  29.632  43.237   4.098
 7117W        W75522  21.489  11.984   0.905
 7118W        W75523  35.497  41.922  13.184
 7119W        W75524  37.102   4.796  14.789
 7120W        W75525  38.579  34.893   1.669
 7121W        W75526  39.851  44.849  13.517
 7122W        W75527  20.934  30.408   4.794
 7123W        W75528  43.380  21.797   2.635
 7124W        W75529  33.536  26.580   4.120
 7125W        W75530   2.093  42.764  11.484
 7126W        W75531  10.899  36.545   4.835
 7127W        W75532  39.955  34.151   4.653
 7128W        W75533  21.983  33.030   3.926
 7129W        W75534  39.057  24.724   4.576
 7130W        W75535  43.112   6.238  14.504
 7131W        W75536  22.539  20.746   3.652
 7132W        W75537   8.883  23.099   0.280
 7133W        W75538  16.304  20.969  14.291
 7134W        W75539   7.423   4.209   0.942
 7135W        W75540   9.666  18.887  10.850
 7136W        W75541  41.741  17.042  12.971
 7137W        W75542  43.477  18.590   4.617
 7138W        W75543   1.809  37.035   1.124
 7139W        W75544  34.021  26.391  12.016
 7140W        W75545  17.748  32.599  14.017
 7141W        W75546  11.703   7.816  14.983
 7142W        W75547  36.499  41.891   2.894
 7143W        W75548   1.297  30.187  11.675
 7144W        W75549   5.705  29.392  11.245
 7145W        W75550  43.435  16.658  11.043
 7146W        W75551  32.107  25.574   5.077
 7147W        W75552  20.627  30.409   2.913
 7148W        W75553  33.907  18.216  14.374
 7149W        W75554  43.492   3.969  13.910
 7150W        W75555   6.821  31.861   0.834
 7151W        W75556  16.828  30.973  13.891
 7152W        W75557   6.664   7.207  13.412
 7153W        W75558  22.532  24.575  11.147
 7154W        W75559  44.303   5.855  11.780
 7155W        W75560  14.715  37.861   2.245
 7156W        W75561  30.682  31.526   2.151
 7157W        W75562   2.244   6.204   0.287
 7158W        W75563  26.092  15.842   4.201
 7159W        W75564  41.928  12.120   2.775
 7160W        W75565   2.861  40.867   3.329
 7161W        W75566  24.629  37.389  11.714
 7162W        W75567   1.429  26.962  12.087
 7163W        W75568   2.671  31.171  13.121
 7164W        W75569  28.091  29.165  10.549
 7165W        W75570   3.277  41.622  12.406
 7166W        W75571   0.107   8.829   4.596
 7167W        W75572  38.430  22.227   4.043
 7168W        W75573  22.315  15.888   3.318
 7169W        W75574   3.099  38.429  14.017
 7170W        W75575  11.080  26.476   4.389
 7171W        W75576  23.665  28.680  12.497
 7172W        W75577  32.241  16.061  11.679
 7173W        W75578   4.233  26.029   2.437
 7174W        W75579  37.935  39.258  14.460
 7175W        W75580   2.386   1.843  11.934
 7176W        W75581   4.159  17.466  12.412
 7177W        W75582   9.226   1.917  13.391
 7178W        W75583  15.286   7.152  10.258
 7179W        W75584  28.611  17.787   0.199
 7180W        W75585  38.199  39.933  11.615
 7181W        W75586  28.389  20.263  12.528
 7182W        W75587  21.648  44.730  13.317
 7183W        W75588  35.225  18.580  10.676
 7184W        W75589  31.719  26.624  14.467
 7185W        W75590  40.935  28.148  11.761
 7186W        W75591  30.634  15.830   4.287
 7187W        W75592  38.476  13.815  14.987
 7188W        W75593  30.646  17.119   0.628
 7189W        W75594   7.691   5.141  11.502
 7190W        W75595  39.778  18.216  12.417
 7191W        W75596  31.845  36.178   4.110
 7192W        W75597  10.091  32.221   4.229
 7193W        W75598   0.323  27.182   0.276
 7194W        W75599  42.839  32.373  14.573
 7195W        W75600  36.461  18.488  13.818
 7196W        W75601  35.374   0.714   0.440
 7197W        W75602  29.694   0.448  12.705
 7198W        W75603   7.961  16.575   4.018
 7199W        W75604  42.041  21.089  12.131
 7200W        W75605   9.750   0.989   5.096
 7201W        W75606  24.550  15.412   3.141
 7202W        W75607  27.393  23.854   4.569
 7203W        W75608  34.421  26.487   3.166
 7204W        W75609   9.768  35.401  10.706
 7205W        W75610  18.683  11.821  10.461
 7206W        W75611   2.085  21.765   3.674
 7207W        W75612   1.373  25.529  13.618
 7208W        W75613  26.076  30.958  12.003
 7209W        W75614  24.174  39.273   3.680
 7210W        W75615  11.834  19.490   2.350
 7211W        W75616  13.199  29.699   1.191
 7212W        W75617  34.465  28.896  13.501
 7213W        W75618  37.526  35.530  13.889
 7214W        W75619  17.940   4.276   4.176
 7215W        W75620  36.925  14.137   0.322
 7216W        W75621  14.678  31.817   4.209
 7217W        W75622   2.298  32.159   4.625
 7218W        W75623  26.162  10.873  11.268
 7219W        W75624  38.386  24.586  14.829
 7220W        W75625  29.287   3.214  11.094
 7221W        W75626  29.987  43.416  12.654
 7222W        W75627  17.690  44.284  12.974
 7223W        W75628  44.978  34.583  14.440
 7224W        W75629  31.183   5.088   3.491
 7225W        W75630  27.008  36.064  14.191
 7226W        W75631  20.591  19.144  10.655
 7227W        W75632  13.183  27.866  11.958
 7228W        W75633  32.879   3.183  13.102
 7229W        W75634  34.449  28.509  13.090
 7230W        W75635  43.419   4.690   2.227
 7231W        W75636   4.457  44.818   0.521
 7232W        W75637  36.294   2.551   1.224
 7233W        W75638  27.907   0.534  14.311
 7234W        W75639  32.096  18.923  11.551
 7235W        W75640  41.190  25.466  12.555
 7236W        W75641   8.931  29.901  12.467
 7237W        W75642  17.769   7.927   0.764
 7238W        W75643  22.520  24.115   3.626
 7239W        W75644  25.677  14.316  13.419
 7240W        W75645  22.598  10.134   1.425
 7241W        W75646  44.252  33.094  10.684
 7242W        W75647  17.665  22.259  11.937
 7243W        W75648  34.389   2.706  11.938
 7244W        W75649  13.124  25.172   2.672
 7245W        W75650  17.007  14.298   4.215
 7246W        W75651  26.600   3.720  14.439
 7247W        W75652  12.809  13.979   0.361
 7248W        W75653  20.294  10.242   3.941
 7249W        W75654   0.883  38.448   1.416
 7250W        W75655   6.871   3.737   2.797
 7251W        W75656  30.543  34.310   0.247
 7252W        W75657  42.949   8.699  11.712
 7253W        W75658   8.922  26.282   0.804
 7254W        W75659  29.533  41.765  12.281
 7255W        W75660  40.383  30.963  14.873
 7256W        W75661   3.212  18.136   4.351
 7257W        W75662   4.316  23.677  11.417
 7258W        W75663  12.062  20.173   4.064
 7259W        W75664  42.392  15.327   2.835
 7260W        W75665  19.519   3.949  14.715
 7261W        W75666  38.420  38.820   4.301
 7262W        W75667  20.619   8.231   0.904
 7263W        W75668  15.809  15.042  13.243
 7264W        W75669  14.190  14.411   2.773
 7265W        W75670  17.545  21.578   2.429
 7266W        W75671  24.174  20.324  13.312
 7267W        W75672  42.659  26.504   5.068
 7268W        W75673  40.397   7.260  14.038
 7269W        W75674  28.173  16.754   0.006
 7270W        W75675   4.882  11.105   2.788
 7271W        W75676  42.343  28.493   3.374
 7272W        W75677  35.878  27.505   1.900
 7273W        W75678  19.228  12.096   2.159
 7274W        W75679  41.434  33.385  10.422
 7275W        W75680   4.864  41.872   3.862
 7276W        W75681  42.537  14.927  12.046
 7277W        W75682  16.802   4.814  14.304
 7278W        W75683  15.285   3.718   3.641
 7279W        W75684   1.684  25.565   4.685
 7280W        W75685  24.587  37.992   2.863
 7281W        W75686   7.860  19.565   4.162
 7282W        W75687   4.390  41.719   3.733
 7283W        W75688   4.711  30.417  13.068
 7284W        W75689  38.041  44.872   4.497
 7285W        W75690  38.556  14.067  14.008
 7286W        W75691  29.538   3.536   0.638
 7287W        W75692  21.472   0.656   0.318
 7288W        W75693  25.180  26.621   4.185
 7289W        W75694  20.820  25.554   4.089
 7290W        W75695  25.486  33.303  12.498
 7291W        W75696  22.715  34.894  14.651
 7292W        W75697  14.886  34.837  12.638
 7293W        W75698  15.422  43.480  11.896
 7294W        W75699   0.764  42.804   2.455
 7295W        W75700   9.601   4.864  13.395
 7296W        W75701  42.405  13.403   3.266
 7297W        W75702   2.032  28.799  14.430
 7298W        W75703  34.014  24.154  12.360
 7299W        W75704   0.799  37.875   0.160
 7300W        W75705  15.739  19.296  14.036
 7301W        W75706  26.949   3.257   1.117
 7302W        W75707  28.914  38.959   1.757
 7303W        W75708   4.795  37.121   5.000
 7304W        W75709  14.671  33.589   2.278
 7305W        W75710   7.775  14.816   1.479
 7306W        W75711  12.881  23.831  10.002
 7307W        W75712  33.503  43.186  11.679
 7308W        W75713   7.285  21.125   5.055
 7309W        W75714  12.286  27.982  13.118
 7310W        W75715  42.994  13.038   3.817
 7311W        W75716  21.182  32.333   1.660
 7312W        W75717  12.768  26.565   2.248
 7313W        W75718  37.626  13.716  11.186
 7314W        W75719  38.617  25.969  10.723
 7315W        W75720  38.424  33.270   3.662
 7316W        W75721  35.230  18.152  11.149
 7317W        W75722   0.635  34.867  10.899
 7318W        W75723  21.108  23.057  11.917
 7319W        W75724   7.310  29.980   4.288
 7320W        W75725  16.004  22.224   4.622
 7321W        W75726   6.602  42.826  12.583
 7322W        W75727   0.783  23.032   3.479
 7323W        W75728  13.423   3.608  11.331
 7324W        W75729   4.928  14.618   3.071
 7325W        W75730  14.087  36.765  11.040
 7326W        W75731   4.359  20.907   5.055
 7327W        W75732  35.429  33.931   1.395
 7328W        W75733  24.218  36.873  13.253
 7329W        W75734  36.012  33.071  13.420
 7330W        W75735  32.406  35.728  11.548
 7331W        W75736  23.295  42.466  12.922
 7332W        W75737   2.693  26.964  11.567
 7333W        W75738  41.414  39.592  11.204
 7334W        W75739  22.916  42.137  12.051
 7335W        W75740  37.968   7.681  10.648
 7336W        W75741   7.292  25.605  14.416
 7337W        W75742  17.778  18.739   0.330
 7338W        W75743  11.871  19.043   0.810
 7339W        W75744  41.668  29.582   2.659
 7340W        W75745  41.539  19.644  12.771
 7341W        W75746  23.139  13.146  12.344
 7342W        W75747  44.739  29.684  10.688
 7343W        W75748   2.499  26.028   4.310
 7344W        W75749  44.181  11.730  10.857
 7345W        W75750  42.265  20.159   3.724
 7346W        W75751  30.492   3.068  11.547
 7347W        W75752  23.109  16.399   0.740
 7348W        W75753  20.397  10.320   3.410
 7349W        W75754  13.715  37.017   0.321
 7350W        W75755  38.351  17.775  14.081
 7351W        W75756   2.308  10.305   2.731
 7352W        W75757  39.663  33.345  10.999
 7353W        W75758  23.125  17.721   1.918
 7354W        W75759  16.859  30.690   4.994
 7355W        W75760  32.218  38.046  10.655
 7356W        W75761  14.315   6.834   1.883
 7357W        W75762  43.326  17.315   4.140
 7358W        W75763   4.933   5.934  11.633
 7359W        W75764   6.757  42.946  10.722
 7360W        W75765  23.871  24.477   0.493
 7361W        W75766  31.490  16.713   1.835
 7362W        W75767  17.754  31.446  13.485
 7363W        W75768  21.034  33.867   4.393
 7364W        W75769   6.433  39.149  12.123
 7365W        W75770   2.464   0.784  10.405
 7366W        W75771  18.488  35.655  13.991
 7367W        W75772  40.945  27.750  13.989
 7368W        W75773   6.730   2.274   1.376
 7369W        W75774  19.256   1.677  13.750
 7370W        W75775  44.981  21.767  14.123
 7371W        W75776  39.593  25.494  13.894
 7372W        W75777  27.081  21.016  11.362
 7373W        W75778  44.610  37.017   4.661
 7374W        W75779   4.241  44.107  13.379
 7375W        W75780  17.188  30.063  12.456
 7376W        W75781   0.817  34.631  11.933
 7377W        W75782  21.226  23.544   3.630
 7378W        W75783  25.494  35.807   0.706
 7379W        W75784   3.351   6.823   2.910
 7380W        W75785  38.292  33.407   1.771
 7381W        W75786  26.513   7.832   3.685
 7382W        W75787  31.086  44.395  10.693
 7383W        W75788   4.903  26.027  13.306
 7384W        W75789  17.854  16.190   2.611
 7385W        W75790  18.050   0.424  14.168
 7386W        W75791  15.737   6.298  10.909
 7387W        W75792  16.084  31.391  13.040
 7388W        W75793  20.705   8.345   1.401
 7389W        W75794  17.521   4.848  13.993
 7390W        W75795  29.243  23.771  13.353
 7391W        W75796  10.781  20.211   3.092
 7392W        W75797  23.004  26.077  12.891
 7393W        W75798  36.403  20.544  13.812
 7394W        W75799  30.411  34.307  14.321
 7395W        W75800  12.205  17.208   4.044
 7396W        W75801   1.495  33.590   4.128
 7397W        W75802   2.799  15.128   3.609
 7398W        W75803  41.248   7.696   4.214
 7399W        W75804  23.000  38.074   1.357
 7400W        W75805  15.987  31.435   2.636
 7401W        W75806  18.349  28.033  10.704
 7402W        W75807   5.843  22.973  13.491
 7403W        W75808  28.303  40.734  11.119
 7404W        W75809  32.566  17.316   4.545
 7405W        W75810  19.245  16.206   1.714
 7406W        W75811  43.276  18.523   1.878
 7407W        W75812  41.654  35.866  14.208
 7408W        W75813  39.165  39.564   0.377
 7409W        W75814  23.944  39.962   1.767
 7410W        W75815  20.730  35.157   3.208
 7411W        W75816  12.765  25.567   1.563
 7412W        W75817  31.882  26.114   1.364
 7413W        W75818  11.059   1.416   1.800
 7414W        W75819  43.531   1.288   3.162
 7415W        W75820  36.395  39.372  14.451
 7416W        W75821  14.478  25.012  11.171
 7417W        W75822  35.148   1.454   2.731
 7418W        W75823  12.124  17.142  11.067
 7419W        W75824  34.812  12.007  14.002
 7420W        W75825  25.172  42.925   9.973
 7421W        W75826   0.864  37.429  12.455
 7422W        W75827  35.063  18.621  14.737
 7423W        W75828   2.898   3.008  14.811
 7424W        W75829   2.267  39.089   2.579
 7425W        W75830  10.281   4.938   1.790
 7426W        W75831  15.417  32.061  11.991
 7427W        W75832  13.782   2.973   2.849
 7428W        W75833  35.417  44.744   2.953
 7429W        W75834  12.386  29.075   2.673
 7430W        W75835  20.878  39.571   3.857
 7431W        W75836  25.601   4.797   3.800
 7432W        W75837  25.582  36.014   0.222
 7433W        W75838  14.996   2.909   3.273
 7434W        W75839   3.727  25.569  11.440
 7435W        W75840  33.613   5.966  13.445
 7436W        W75841  21.559  23.103   2.178
 7437W        W75842  37.310  24.708  14.853
 7438W        W75843  16.170  37.311  12.029
 7439W        W75844  36.900  15.398   4.341
 7440W        W75845  40.382  17.112  12.088
 7441W        W75846  13.192  18.486   0.430
 7442W        W75847   8.201   4.484  13.436
 7443W        W75848  21.626  36.102  10.444
 7444W        W75849   7.766  44.848   3.254
 7445W        W75850  38.376  29.674   1.779
 7446W        W75851  26.994   5.774  13.547
 7447W        W75852  40.375  19.055  12.856
 7448W        W75853  12.209  12.391  11.612
 7449W        W75854  38.107  16.033   1.121
 7450W        W75855  30.382  13.857  14.843
 7451W        W75856  38.316  33.997   4.019
 7452W        W75857  30.000  18.859   0.376
 7453W        W75858  25.505  15.202  11.135
 7454W        W75859  42.766  40.718  14.269
 7455W        W75860   5.325  13.871   4.919
 7456W        W75861  28.840  33.937   0.887
 7457W        W75862   2.240  27.098  14.290
 7458W        W75863  20.349  29.892  11.186
 7459W        W75864  27.338  14.803  13.611
 7460W        W75865  10.855   8.793  13.529
 7461W        W75866  17.952  13.171  12.478
 7462W        W75867  37.439  13.578  12.205
 7463W        W75868   4.970  30.101   0.203
 7464W        W75869  44.566  22.120   3.094
 7465W        W75870  44.010   8.669  10.459
 7466W        W75871  35.936  26.691   2.123
 7467W        W75872   0.797  36.773   0.842
 7468W        W75873  19.870  37.099  12.147
 7469W        W75874  13.220  39.822  11.649
 7470W        W75875   3.954  29.680  11.230
 7471W        W75876  18.265  26.203   4.900
 7472W        W75877  16.768   3.912   4.643
 7473W        W75878  26.411   3.588   4.968
 7474W        W75879  38.191  43.021   4.272
 7475W        W75880   2.362   2.966  12.837
 7476W        W75881  15.697  44.186   0.990
 7477W        W75882  38.648  40.451   0.231
 7478W        W75883   0.496  22.199   4.312
 7479W        W75884  14.207  12.697   0.581
 7480W        W75885   5.580  44.383  14.384
 7481W        W75886  39.703  10.589   1.376
 7482W        W75887  13.758  13.050   4.667
 7483W        W75888   8.276   1.781  12.340
 7484W        W75889  41.648  25.996   4.256
 7485W        W75890  41.753  35.659   0.460
 7486W        W75891  41.911   8.726  11.554
 7487W        W75892  41.082   6.063  12.818
 7488W        W75893  19.602   5.926  11.543
 7489W        W75894  14.100  34.393   4.195
 7490W        W75895  33.968  13.347   3.184
 7491W        W75896  20.133  44.563   4.236
 7492W        W75897   7.257  20.230  10.973
 7493W        W75898  32.135  11.922   0.940
 7494W        W75899   3.965  32.588   1.642
 7495W        W75900   3.681   0.228   1.260
 7496W        W75901  20.303  24.447  10.526
 7497W        W75902  36.599  32.960   4.116
 7498W        W75903  29.679  25.881  12.378
 7499W        W75904  11.830  12.529  14.102
 7500W        W75905  23.629  17.336  10.987
 7501W        W75906  33.202   7.510  12.068
 7502W        W75907   7.763  24.361  12.208
 7503W        W75908   3.914  17.563  14.435
 7504W        W75909  20.705  38.838   0.829
 7505W        W75910  11.751   3.463  13.999
 7506W        W75911  38.374  25.925  13.758
 7507W        W75912  25.958  18.698   0.775
 7508W        W75913  13.961  35.747  10.284
 7509W        W75914   8.935  26.205  13.742
 7510W        W75915  28.053  25.148   2.177
 7511W        W75916  40.125  39.533  11.519
 7512W        W75917   5.654  39.816   4.614
 7513W        W75918   6.268  19.816   0.002
 7514W        W75919  23.204   2.764  11.421
 7515W        W75920  12.728  21.914  11.387
 7516W        W75921   2.944  12.176   4.281
 7517W        W75922  29.856  35.260  11.103
 7518W        W75923  10.597  19.118   4.314
 7519W        W75924  43.058  40.309   2.264
 7520W        W75925  44.056  38.390   3.354
 7521W        W75926  35.575  23.920  10.720
 7522W        W75927  13.697  20.755  12.051
 7523W        W75928  42.268   1.410   3.807
 7524W        W75929  31.702  37.917   1.852
 7525W        W75930  18.010  19.131  12.661
 7526W        W75931  29.877  18.538   3.671
 7527W        W75932   4.862  43.814  13.989
 7528W        W75933   6.866  36.801   0.369
 7529W        W75934  43.345  23.090  12.526
 7530W        W75935  19.459  25.752   1.203
 7531W        W75936  31.455  17.825   4.626
 7532W        W75937  39.052  25.210   0.893
 7533W        W75938  15.585  14.013   3.732
 7534W        W75939  33.152  44.776  10.339
 7535W        W75940  38.391  22.568  12.570
 7536W        W75941  41.534   6.711   3.632
 7537W        W75942  15.212  36.944  13.305
 7538W        W75943  16.279  43.754  13.323
 7539W        W75944  43.314  27.491  11.242
 7540W        W75945  40.307  26.626  10.588
 7541W        W75946  22.021  31.371   2.709
 7542W        W75947   5.255   5.269  13.380
 7543W        W75948  41.157  42.893  11.776
 7544W        W75949  22.790  17.610   3.910
 7545W        W75950  31.721  40.069  11.617
 7546W        W75951   9.047  25.512  10.783
 7547W        W75952  15.165  30.458   1.901
 7548W        W75953  18.645  34.117  10.515
 7549W        W75954   5.140   4.791  13.615
 7550W        W75955  29.629  38.561  11.970
 7551W        W75956   9.423   8.089   2.565
 7552W        W75957  31.886  37.911   1.000
 7553W        W75958  10.100   4.691  14.980
 7554W        W75959   5.381  34.318   4.012
 7555W        W75960   6.747  29.735  14.860
 7556W        W75961  16.782  12.741   1.068
 7557W        W75962  10.310   4.910  11.241
 7558W        W75963  28.207  36.641  12.077
 7559W        W75964   8.895  27.598   4.087
 7560W        W75965  14.578  26.544   3.740
 7561W        W75966  42.525   5.303  10.913
 7562W        W75967  29.774  21.064  14.074
 7563W        W75968   3.374  34.030  11.037
 7564W        W75969  35.462   4.855  10.643
 7565W        W75970  34.284   5.146  12.474
 7566W        W75971  40.653  40.832   2.923
 7567W        W75972  41.285  21.402  10.392
 7568W        W75973  29.561  29.635  10.755
 7569W        W75974   9.666  22.206  13.840
 7570W        W75975  18.541   1.140   1.790
 7571W        W75976   2.577  26.434   1.211
 7572W        W75977  10.568  10.709  11.613
 7573W        W75978  44.916   6.950  11.067
 7574W        W75979  26.612  14.876  12.877
 7575W        W75980  39.833  34.819  10.994
 7576W        W75981  26.092  15.250  14.588
 7577W        W75982  41.876  43.035   4.736
 7578W        W75983  34.013  43.477   1.742
 7579W        W75984  36.035  17.699  14.360
 7580W        W75985  40.858  15.066  14.006
 7581W        W75986  15.024  42.303   1.741
 7582W        W75987  14.724  10.310  12.030
 7583W        W75988  21.506   8.314   0.327
 7584W        W75989  30.273  44.711   1.253
 7585W        W75990  27.639   5.114   3.147
 7586W        W75991  33.805   7.771   2.502
 7587W        W75992  13.301  25.694  10.362
 7588W        W75993  28.978  30.241  12.044
 7589W        W75994  24.396   9.862  11.667
 7590W        W75995  13.638  24.551  14.519
 7591W        W75996  16.652  23.957  12.139
 7592W        W75997   1.550   4.013  13.163
 7593W        W75998  13.816  10.594  13.982
 7594W        W75999  16.730   7.174  14.948
 7595W        W76000  18.277  25.270   4.235
 7596W        W76001   5.768   1.430   4.568
 7597W        W76002  31.515  25.066  12.509
 7598W        W76003   8.162  25.999  14.435
 7599W        W76004  11.911  30.062  14.968
 7600W        W76005  38.306  10.691  14.559
 7601W        W76006  24.519  34.949  11.667
 7602W        W76007  41.368  36.289   0.719
 7603W        W76008  12.192  27.486  13.134
 7604W        W76009  22.010  43.691  14.435
 7605W        W76010  28.877   2.457  13.456
 7606W        W76011  17.939  16.787   0.756
 7607W        W76012  38.033   0.958   4.576
 7608W        W76013  25.459  10.070   2.892
 7609W        W76014  31.796  20.441  10.984
 7610W        W76015  21.447  27.672  12.099
 7611W        W76016  27.225   6.340  11.193
 7612W        W76017  16.554   6.346  12.901
 7613W        W76018   2.882  44.339  12.537
 7614W        W76019  27.963  35.900  11.634
 7615W        W76020  36.286  14.170   3.686
 7616W        W76021  32.225  16.903  14.889
 7617W        W76022  21.237  10.826   2.347
 7618W        W76023  14.213  22.648  10.911
 7619W        W76024  30.410  42.083   4.203
 7620W        W76025  12.392  18.568  12.992
 7621W        W76026  26.041  25.095  14.812
 7622W        W76027  21.595   3.824   4.318
 7623W        W76028   9.467  23.911   0.320
 7624W        W76029  37.883  21.159  10.734
 7625W        W76030   2.553  14.529   4.172
 7626W        W76031  33.450  41.005   2.761
 7627W        W76032   0.691   3.003  12.060
 7628W        W76033  27.999  12.174  11.613
 7629W        W76034  44.920  12.891   3.386
 7630W        W76035  25.673   4.141   3.639
 7631W        W76036  23.363  24.627   0.456
 7632W        W76037  27.546  16.586  11.139
 7633W        W76038  14.587  19.773  11.953
 7634W        W76039  22.092   6.222  10.772
 7635W        W76040   5.374  30.047  13.538
 7636W        W76041   4.760  14.817  13.948
 7637W        W76042   1.785  33.928   1.806
 7638W        W76043  34.064  43.821   2.184
 7639W        W76044  13.190   8.951  11.651
 7640W        W76045   9.807   2.465   0.782
 7641W        W76046  12.788  43.533  11.496
 7642W        W76047  35.315  13.887   1.129
 7643W        W76048  26.646  17.711   0.913
 7644W        W76049  39.523  23.103  12.570
 7645W        W76050  11.118  32.378  14.316
 7646W        W76051  13.826  37.608  14.259
 7647W        W76052   8.959  24.273  11.165
 7648W        W76053  26.527  43.563   0.178
 7649W        W76054  25.127  12.096   1.363
 7650W        W76055  19.747  37.956   1.810
 7651W        W76056  13.699  10.761  11.676
 7652W        W76057  32.859  28.177  14.092
 7653W        W76058  25.026  44.518  14.968
 7654W        W76059  41.098  44.260   4.185
 7655W        W76060  32.422  43.829  12.490
 7656W        W76061  38.911  29.318  11.578
 7657W        W76062  31.388  16.713   4.989
 7658W        W76063  23.698  39.807   3.163
 7659W        W76064   1.300  30.424   3.183
 7660W        W76065  33.028  39.986   4.957
 7661W        W76066  20.241  33.275  14.965
 7662W        W76067   2.006   7.227  12.599
 7663W        W76068  32.159   4.973   3.705
 7664W        W76069  40.301  27.705   3.309
 7665W        W76070  11.291   3.792  13.480
 7666W        W76071  40.953  27.255   4.100
 7667W        W76072  30.185   9.651  14.375
 7668W        W76073  41.109  19.284  14.926
 7669W        W76074  18.543  20.670   0.543
 7670W        W76075  38.191  11.605  12.965
 7671W        W76076  23.030  11.767  12.470
 7672W        W76077   2.357  19.357  13.879
 7673W        W76078   5.353  38.210   3.292
 7674W        W76079  33.195  24.564  10.838
 7675W        W76080  18.594   7.452   1.356
 7676W        W76081  30.523  24.442  12.052
 7677W        W76082  23.745  14.133  14.939
 7678W        W76083  21.274  29.572   0.537
 7679W        W76084  34.704  19.438   4.864
 7680W        W76085  36.510  23.465   4.068
 7681W        W76086  29.942   9.879  12.514
 7682W        W76087  33.823  38.657   4.120
 7683W        W76088  24.677  23.019  14.676
 7684W        W76089  28.629   4.813   1.263
 7685W        W76090  13.659  42.231   3.273
 7686W        W76091   1.791   6.377  14.102
 7687W        W76092  33.540   2.700  13.272
 7688W        W76093  31.664  41.527  10.660
 7689W        W76094  11.150   4.021  12.013
 7690W        W76095  13.422  33.390   9.926
 7691W        W76096  24.696  27.539  14.336
 7692W        W76097  29.730  23.098   1.981
 7693W        W76098  33.331  40.332   4.133
 7694W        W76099  39.052   4.515   5.004
 7695W        W76100  44.480   3.800  14.760
 7696W        W76101  13.378   1.769  14.054
 7697W        W76102  34.113  29.706   3.450
 7698W        W76103   3.653   2.693  12.825
 7699W        W76104   0.785  29.720  13.809
 7700W        W76105  42.797  41.015  10.685
 7701W        W76106  22.147  35.460  14.303
 7702W        W76107   0.284  42.781   2.644
 7703W        W76108   9.365  33.319   1.341
 7704W        W76109  12.616  29.334  11.118
 7705W        W76110   6.909  33.606   4.188
 7706W        W76111  28.512   2.701   0.293
 7707W        W76112  40.085   9.402   4.829
 7708W        W76113  20.455  35.334  13.676
 7709W        W76114   5.671  22.094  13.514
 7710W        W76115  44.521  29.234  12.099
 7711W        W76116  39.930  17.853   0.317
 7712W        W76117  44.904  12.508  11.753
 7713W        W76118  32.452   1.690   4.726
 7714W        W76119  18.101  41.895   2.889
 7715W        W76120  18.871  28.241   3.669
 7716W        W76121  36.850   4.891   5.336
 7717W        W76122   8.669  15.137  11.853
 7718W        W76123  39.800  12.128  11.240
 7719W        W76124   7.541  26.791   2.431
 7720W        W76125  43.264  42.833   2.881
 7721W        W76126  17.896   6.857  13.796
 7722W        W76127   7.114  14.421   4.241
 7723W        W76128  24.678   4.709  14.447
 7724W        W76129  10.202  37.316   4.952
 7725W        W76130  30.858  11.097  14.403
 7726W        W76131  36.077   5.939  12.537
 7727W        W76132  11.450  17.281   0.595
 7728W        W76133   2.439  12.191   1.480
 7729W        W76134  28.691  31.685  14.086
 7730W        W76135   1.159  21.197   4.856
 7731W        W76136  18.649  42.414   3.558
 7732W        W76137  27.632  27.425  14.545
 7733W        W76138  36.724  43.749   3.846
 7734W        W76139   5.577  34.376  12.572
 7735W        W76140  28.435   1.336  13.474
 7736W        W76141  38.696  37.631  11.934
 7737W        W76142  22.077  40.708  12.943
 7738W        W76143  16.104  34.431  11.273
 7739W        W76144  24.470  30.115  14.141
 7740W        W76145   6.402  26.148   4.280
 7741W        W76146  20.321  44.282  12.090
 7742W        W76147  25.717   2.094  12.379
 7743W        W76148  39.281   5.108   0.387
 7744W        W76149   9.296  44.881   0.859
 7745W        W76150   7.861   3.848  12.071
 7746W        W76151  35.114   8.271   4.125
 7747W        W76152  19.132  15.857   3.935
 7748W        W76153  32.772  28.104   4.176
 7749W        W76154   9.134  27.242   0.926
 7750W        W76155   9.263  37.425   0.119
 7751W        W76156  21.094  13.392   0.751
 7752W        W76157  38.878   4.930   4.732
 7753W        W76158  44.379  18.074  11.093
 7754W        W76159  12.002  34.879   1.078
 7755W        W76160  35.340   4.437   2.176
 7756W        W76161  11.165  11.344   3.683
 7757W        W76162  26.474  28.598  13.616
 7758W        W76163  44.983   3.277  14.519
 7759W        W76164  14.722  17.077   2.843
 7760W        W76165   5.818   4.164   2.922
 7761W        W76166  16.482  12.088  13.535
 7762W        W76167  17.909  19.227  14.012
 7763W        W76168  43.977  30.070  13.414
 7764W        W76169   0.405  31.086   0.932
 7765W        W76170  27.183  12.842   2.534
 7766W        W76171  26.700  18.776   3.801
 7767W        W76172   4.386  38.996  14.956
 7768W        W76173  37.945  22.754  11.099
 7769W        W76174  19.372  21.473  13.929
 7770W        W76175  16.662  44.427  15.000
 7771W        W76176  22.262  15.810   0.451
 7772W        W76177  23.456   9.505  13.016
 7773W        W76178   9.621  37.542   0.469
 7774W        W76179  14.052  11.199   3.723
 7775W        W76180  26.390  42.904   3.443
 7776W        W76181  29.697   5.468  13.798
 7777W        W76182  43.030  12.195   4.327
 7778W        W76183   6.880   6.442  11.611
 7779W        W76184  32.521  30.599   0.947
 7780W        W76185  35.469  23.261  13.570
 7781W        W76186   6.027  42.844  11.872
 7782W        W76187  30.675  23.148   2.046
 7783W        W76188  24.670  20.676   1.993
 7784W        W76189  37.360   8.841  14.023
 7785W        W76190   8.805  16.360  13.157
 7786W        W76191  28.043   5.410   2.296
 7787W        W76192  28.745  35.590   3.294
 7788W        W76193  15.659   2.428   3.338
 7789W        W76194  42.447  43.795  12.561
 7790W        W76195  18.619  32.964   2.819
 7791W        W76196   6.315  40.530   3.727
 7792W        W76197  21.605  40.046  13.758
 7793W        W76198   8.683   1.216  13.458
 7794W        W76199  29.844  35.614  12.548
 7795W        W76200  20.276  31.895  13.848
 7796W        W76201  14.723  44.904   4.112
 7797W        W76202  44.473   2.048   3.601
 7798W        W76203  19.608  33.938   3.735
 7799W        W76204   2.840  22.141   0.217
 7800W        W76205  31.570  36.221   1.283
 7801W        W76206   5.211  24.295   0.257
 7802W        W76207  36.801  38.454  13.950
 7803W        W76208  13.616  30.087  12.425
 7804W        W76209  22.050  21.025   1.277
 7805W        W76210  18.527  15.861  11.735
 7806W        W76211  33.554  25.706   3.758
 7807W        W76212  18.134  15.462   1.115
 7808W        W76213  19.345  21.657   1.721
 7809W        W76214  35.619  31.103   3.234
 7810W        W76215  37.471  18.989  12.017
 7811W        W76216  21.233  30.686   3.336
 7812W        W76217  27.919  10.317   4.056
 7813W        W76218  10.348  39.604   4.469
 7814W        W76219  21.525  10.657   2.779
 7815W        W76220  35.390  38.253  12.862
 7816W        W76221   7.057  20.130  11.429
 7817W        W76222   9.369  43.336  12.486
 7818W        W76223  30.453  17.833  12.269
 7819W        W76224  16.705   9.843   2.170
 7820W        W76225  37.402  12.339   4.917
 7821W        W76226  34.359   2.867   1.923
 7822W        W76227  32.015  15.293  10.256
 7823W        W76228  38.472  37.139   3.345
 7824W        W76229  25.526  10.268   2.376
 7825W        W76230  42.976  37.303  12.889
 7826W        W76231   6.752  13.526  11.592
 7827W        W76232  10.545  12.412   1.364
 7828W        W76233  37.928  18.050  13.349
 7829W        W76234  15.250  14.695  10.806
 7830W        W76235  31.094  28.450  13.109
 7831W        W76236  11.491  44.732  12.418
 7832W        W76237  21.141  37.573   4.611
 7833W        W76238   6.155  28.389  14.801
 7834W        W76239   9.952   1.938  11.687
 7835W        W76240  15.221  16.364  11.555
 7836W        W76241  20.691   0.861   2.112
 7837W        W76242  34.995  34.102  11.468
 7838W        W76243  32.160   0.040  13.092
 7839W        W76244  41.956  17.732  12.321
 7840W        W76245  22.148  43.310   0.335
 7841W        W76246  17.711  19.489   2.770
 7842W        W76247  25.671  17.576   3.082
 7843W        W76248  22.758   7.427   3.112
 7844W        W76249   5.373  42.383  14.464
 7845W        W76250  41.912  35.630  13.386
 7846W        W76251  28.842  25.680   4.629
 7847W        W76252  27.731  40.650   3.381
 7848W        W76253  10.867  36.380  12.671
 7849W        W76254  44.823  31.452  14.085
 7850W        W76255  36.027  21.124  12.374
 7851W        W76256  27.535  39.306   3.874
 7852W        W76257  10.697  40.780   0.875
 7853W        W76258  42.134  42.017  12.174
 7854W        W76259   3.365  37.567  14.501
 7855W        W76260  39.442   2.686   4.968
 7856W        W76261  35.364  43.023  11.387
 7857W        W76262   3.251  28.577   1.929
 7858W        W76263  18.491   2.230  13.348
 7859W        W76264  42.064   0.768   1.769
 7860W        W76265  11.313  12.359  13.996
 7861W        W76266  20.451   6.386  10.233
 7862W        W76267  33.050  23.665  11.076
 7863W        W76268  35.691   7.445   2.731
 7864W        W76269   2.847  34.403  12.515
 7865W        W76270  42.318  32.466  11.421
 7866W        W76271  36.818  37.428   4.582
 7867W        W76272   9.382  28.712  11.662
 7868W        W76273  41.079  35.004   3.759
 7869W        W76274  37.129  14.408   4.194
 7870W        W76275  15.080  44.417   4.174
 7871W        W76276   7.954  41.364  10.342
 7872W        W76277   4.875  17.662   0.492
 7873W        W76278  13.585   3.761  10.216
 7874W        W76279   9.994  33.347  10.806
 7875W        W76280  43.454  24.254   2.163
 7876W        W76281   1.305  40.187  10.962
 7877W        W76282   0.527  43.223   2.742
 7878W        W76283  38.620   3.991   1.911
 7879W        W76284  24.471  34.165  11.165
 7880W        W76285  39.014  14.263  12.059
 7881W        W76286  19.704  24.037   4.224
 7882W        W76287  38.485  41.377   0.384
 7883W        W76288  23.308  28.305  12.539
 7884W        W76289  18.531  17.045   4.145
 7885W        W76290   0.026  17.392  13.460
 7886W        W76291  36.568  14.302   3.264
 7887W        W76292  25.407  19.578  12.299
 7888W        W76293   9.694   8.784   2.795
 7889W        W76294  39.750  33.971   3.104
 7890W        W76295  13.652  26.170  14.306
 7891W        W76296  21.657  22.738   9.985
 7892W        W76297  13.325  36.749  10.707
 7893W        W76298  38.992  36.292   0.866
 7894W        W76299  35.122  39.079   2.818
 7895W        W76300  43.020  33.167   3.672
 7896W        W76301  30.255   5.928   1.717
 7897W        W76302   9.200  35.479  13.407
 7898W        W76303  29.089   6.648   4.083
 7899W        W76304  35.484  32.805  12.202
 7900W        W76305  15.118  34.078  14.535
 7901W        W76306  20.512  34.108  11.129
 7902W        W76307  34.136   1.943   3.965
 7903W        W76308  32.888  40.842   1.936
 7904W        W76309   8.107   9.182  12.079
 7905W        W76310  37.307  17.663   0.770
 7906W        W76311  33.990  35.520   4.255
 7907W        W76312  11.216  20.350  14.028
 7908W        W76313   6.905   8.249  13.812
 7909W        W76314  21.136   3.394  11.848
 7910W        W76315   3.884  40.327   3.280
 7911W        W76316  15.365   6.913  11.985
 7912W        W76317  41.050  43.685  12.437
 7913W        W76318  27.868  14.807  13.585
 7914W        W76319  41.409  29.473  11.578
 7915W        W76320  33.595  16.890  13.440
 7916W        W76321  30.790  28.542   2.393
 7917W        W76322  42.782  17.792   2.150
 7918W        W76323  38.247  26.986  12.623
 7919W        W76324  21.268  24.123  14.226
 7920W        W76325   4.796  23.771   0.789
 7921W        W76326  37.089  37.980  13.944
 7922W        W76327   0.882  17.411   3.284
 7923W        W76328  15.994  23.192  14.083
 7924W        W76329  23.555  14.738  13.086
 7925W        W76330  35.412   9.274   1.726
 7926W        W76331  29.931  22.632   1.879
 7927W        W76332  14.582  44.923   5.085
 7928W        W76333   3.697   2.961   1.257
 7929W        W76334  19.433  13.365   3.248
 7930W        W76335   4.340  44.855  11.660
 7931W        W76336  35.844  16.969  12.468
 7932W        W76337   1.182  34.132  13.883
 7933W        W76338   5.844  36.567   2.788
 7934W        W76339  21.562  23.355   3.981
 7935W        W76340  38.651  22.107  12.543
 7936W        W76341  12.260  32.007  11.986
 7937W        W76342   8.687  23.992   0.060
 7938W        W76343  24.669  23.262  13.139
 7939W        W76344  29.444  10.684   3.460
 7940W        W76345  37.977  16.134  14.713
 7941W        W76346  37.063  36.544  14.434
 7942W        W76347   0.382  20.623   0.413
 7943W        W76348  25.146  40.921  11.451
 7944W        W76349  39.827   2.031   0.015
 7945W        W76350  43.701  44.496  12.779
 7946W        W76351  39.583  21.957   2.828
 7947W        W76352  19.006   7.712  13.421
 7948W        W76353  36.944  17.278  14.981
 7949W        W76354  13.836  17.566   2.810
 7950W        W76355  27.093  22.944   1.151
 7951W        W76356  39.867  31.591  13.492
 7952W        W76357  35.485   6.122   1.545
 7953W        W76358  44.539  42.890  13.369
 7954W        W76359   7.929  22.600  12.211
 7955W        W76360  25.395  43.951  12.818
 7956W        W76361  15.285  27.468  12.267
 7957W        W76362  17.845   7.433   3.581
 7958W        W76363  20.621  14.888   2.174
 7959W        W76364   4.527   0.822   2.669
 7960W        W76365  16.524  28.835  12.612
 7961W        W76366  20.156  30.163  14.414
 7962W        W76367   3.124   5.372  14.627
 7963W        W76368  20.828  10.416  11.063
 7964W        W76369   6.401  17.031  13.132
 7965W        W76370   8.888   5.790  11.602
 7966W        W76371   1.657  20.798  14.779
 7967W        W76372   0.932   3.491   1.857
 7968W        W76373  26.547  42.077   2.902
 7969W        W76374  23.479  37.103   0.878
 7970W        W76375  15.009  31.016  11.544
 7971W        W76376  15.297  14.575  12.115
 7972W        W76377  16.997   6.665  13.888
 7973W        W76378  17.038  29.466   1.290
 7974W        W76379   2.649  41.396   2.702
 7975W        W76380  17.654  19.654   2.262
 7976W        W76381  25.543  40.963   3.159
 7977W        W76382  32.548   8.668  14.717
 7978W        W76383  11.433  36.255  10.938
 7979W        W76384  15.600  30.652   2.104
 7980W        W76385   6.370  18.630   2.915
 7981W        W76386  12.851   6.283  11.087
 7982W        W76387   6.340  25.409  10.726
 7983W        W76388   2.694   8.881   0.911
 7984W        W76389  34.450  25.285  14.443
 7985W        W76390  34.211   1.841  14.920
 7986W        W76391  15.856  42.832  10.160
 7987W        W76392  18.895  16.073  13.410
 7988W        W76393   3.727  34.917  12.116
 7989W        W76394  15.326  35.090  12.898
 7990W        W76395  17.852  43.993   2.872
 7991W        W76396  36.933  20.474  12.564
 7992W        W76397  17.743  33.135   4.268
 7993W        W76398  18.908  41.078  12.941
 7994W        W76399   4.206  43.917  13.842
 7995W        W76400  32.119  16.997  12.601
 7996W        W76401  12.182  13.223  14.764
 7997W        W76402  43.787  11.089  11.193
 7998W        W76403  39.640  43.584   1.102
 7999W        W76404  28.276   7.363   0.983
 8000W        W76405  17.727   0.031  12.439
 8001W        W76406  15.268  43.988   4.412
 8002W        W76407  29.635   6.195   0.737
 8003W        W76408   3.377  16.836  11.584
 8004W        W76409  14.557  21.098   4.611
 8005W        W76410   7.337  36.336  13.029
 8006W        W76411  29.326  43.354   9.814
 8007W        W76412  36.351  31.770   4.589
 8008W        W76413  31.920  35.726  14.548
 8009W        W76414  32.614  36.782  12.489
 8010W        W76415  41.285  12.721   4.779
 8011W        W76416  44.336  40.473   1.519
 8012W        W76417  17.034  42.834   3.697
 8013W        W76418  43.694  22.442   4.169
 8014W        W76419  28.079  37.460  14.893
 8015W        W76420  44.678  17.326   2.654
 8016W        W76421   7.234  20.845  10.256
 8017W        W76422  19.455  39.252  11.051
 8018W        W76423   8.411  26.454   2.238
 8019W        W76424   9.286  29.173  13.002
 8020W        W76425  18.893  18.000   2.406
 8021W        W76426  33.465   7.372  11.079
 8022W        W76427  32.600   2.825  14.311
 8023W        W76428  20.656   7.078   3.155
 8024W        W76429  36.060  11.241  12.662
 8025W        W76430   8.087   9.247   2.841
 8026W        W76431  26.035   4.479   1.167
 8027W        W76432  39.286   0.770   4.194
 8028W        W76433  32.663  28.585  13.491
 8029W        W76434  23.872   6.490  12.968
 8030W        W76435   8.828  18.718   5.323
 8031W        W76436   2.398  19.577  11.965
 8032W        W76437  30.896   3.243  14.932
 8033W        W76438  16.573  28.950  11.745
 8034W        W76439  35.204  23.630   4.078
 8035W        W76440   2.947  40.593  14.558
 8036W        W76441  10.560   7.613   5.104
 8037W        W76442  37.555  44.632   1.758
 8038W        W76443  16.225  11.565  14.928
 8039W        W76444  16.597   0.912  10.998
 8040W        W76445   0.560   0.070  14.313
 8041W        W76446  23.166  40.478   0.492
 8042W        W76447  28.540  18.853   4.531
 8043W        W76448   0.444  14.107  11.584
 8044W        W76449  31.349   0.809  11.089
 8045W        W76450  33.053  38.056   1.000
 8046W        W76451  11.661   3.889  11.465
 8047W        W76452  17.210  18.988  11.499
 8048W        W76453  14.079  19.782  11.126
 8049W        W76454   4.720  42.862  13.300
 8050W        W76455  27.570   3.278  11.830
 8051W        W76456  18.382  35.337   2.837
 8052W        W76457  21.156   2.189  14.995
 8053W        W76458   4.695  39.538   0.881
 8054W        W76459  39.470  15.814  11.520
 8055W        W76460  41.374   5.710   0.797
 8056W        W76461   1.114  18.132  13.453
 8057W        W76462  15.306  28.240  13.807
 8058W        W76463  21.123  18.560   3.507
 8059W        W76464  11.902  20.946   4.123
 8060W        W76465  23.639  25.713   3.704
 8061W        W76466  27.086  13.709   3.465
 8062W        W76467  31.929  20.476   0.020
 8063W        W76468  32.531  13.956   3.716
 8064W        W76469  26.121  19.817  12.880
 8065W        W76470  21.169  24.208   0.233
 8066W        W76471  11.204   7.361   4.567
 8067W        W76472  41.096  28.079   4.483
 8068W        W76473   1.247  21.339  11.341
 8069W        W76474  16.905   6.702   3.428
 8070W        W76475  44.716  41.473   2.165
 8071W        W76476  27.740   2.265   1.974
 8072W        W76477  12.938  30.734   0.887
 8073W        W76478  24.543  23.019  11.258
 8074W        W76479   9.582   8.948  10.753
 8075W        W76480   5.151   1.323   0.063
 8076W        W76481  22.784  36.390  12.191
 8077W        W76482   6.193  30.894  11.587
 8078W        W76483  38.604  42.236  14.998
 8079W        W76484  41.418   6.916   1.978
 8080W        W76485  42.039  43.025   5.235
 8081W        W76486  19.567  21.198   0.820
 8082W        W76487  35.165  32.874   2.691
 8083W        W76488  28.536  40.705  10.650
 8084W        W76489   6.904  12.575   4.865
 8085W        W76490  17.319  44.521  11.067
 8086W        W76491  20.005  27.526   4.544
 8087W        W76492  30.379  18.768  10.155
 8088W        W76493  10.654  40.087  12.681
 8089W        W76494  39.097  37.914   3.278
 8090W        W76495  25.707  15.557  14.007
 8091W        W76496  19.930  19.280  11.888
 8092W        W76497   1.786  27.939   1.917
 8093W        W76498  14.854  24.892   1.260
 8094W        W76499  34.278  19.739   0.826
 8095W        W76500  23.906  19.133   4.051
 8096W        W76501   6.395  35.018  11.483
 8097W        W76502  39.048   5.973   1.429
 8098W        W76503   8.490  15.731   3.206
 8099W        W76504  12.078  14.261   2.657
 8100W        W76505  16.462   5.339   1.228
 8101W        W76506  44.461   9.267  10.933
 8102W        W76507  40.088   4.460   1.678
 8103W        W76508  22.619  41.694   9.587
 8104W        W76509   9.737   2.714  13.393
 8105W        W76510  40.409  21.639  14.964
 8106W        W76511  11.632  13.267  10.997
 8107W        W76512  40.096  12.097  12.933
 8108W        W76513   2.565  28.941   1.149
 8109W        W76514  24.632  12.607   0.787
 8110W        W76515  24.611  23.525  10.571
 8111W        W76516  24.909   2.152  12.481
 8112W        W76517   0.032  10.470  12.011
 8113W        W76518  21.085  44.842  14.542
 8114W        W76519  27.602  10.372  12.219
 8115W        W76520   1.367  11.471   2.805
 8116W        W76521   4.969   7.432   2.222
 8117W        W76522  12.612  28.103   3.160
 8118W        W76523   3.123   0.311  12.068
 8119W        W76524   1.815   9.417  10.240
 8120W        W76525  41.314  41.344  12.858
 8121W        W76526  13.402  16.182  11.872
 8122W        W76527  42.384  30.650  12.816
 8123W        W76528  21.621   7.621  14.708
 8124W        W76529  11.169  11.380  14.665
 8125W        W76530  12.300  31.521  14.796
 8126W        W76531  39.730  38.931   0.560
 8127W        W76532  27.717   8.168   2.477
 8128W        W76533  22.492  42.901  13.969
 8129W        W76534   6.007   2.954  11.113
 8130W        W76535   4.802  23.086  11.962
 8131W        W76536   6.459  35.012   2.185
 8132W        W76537  26.637   2.368  13.996
 8133W        W76538  27.082   2.620  13.124
 8134W        W76539  10.116  26.756   1.724
 8135W        W76540   1.362  42.448   1.291
 8136W        W76541  18.182  34.477   3.131
 8137W        W76542   1.493  36.544  13.704
 8138W        W76543  22.525  26.540  14.873
 8139W        W76544  22.223  34.366   4.124
 8140W        W76545  40.997   3.789   4.129
 8141W        W76546  10.872  27.634  12.597
 8142W        W76547  23.415  16.613   1.968
 8143W        W76548   7.595  33.978  13.962
 8144W        W76549  41.722  18.028   1.231
 8145W        W76550   4.019   3.159   4.855
 8146W        W76551  13.673  28.812   4.201
 8147W        W76552   6.544   7.267   1.217
 8148W        W76553  37.282  42.577   4.568
 8149W        W76554   5.802   5.650  11.239
 8150W        W76555   2.931  27.313   0.671
 8151W        W76556  39.497  37.482  11.508
 8152W        W76557  38.167  37.504   3.116
 8153W        W76558   1.832  30.462  12.655
 8154W        W76559  24.276  28.616   0.802
 8155W        W76560  36.143  36.349   3.245
 8156W        W76561  14.996  34.926   4.188
 8157W        W76562  17.680  33.389   0.917
 8158W        W76563  25.925  40.284  13.018
 8159W        W76564  16.403  19.394   5.018
 8160W        W76565  33.204  29.902  10.267
 8161W        W76566  17.436  14.384  10.252
 8162W        W76567   0.789  29.878  11.803
 8163W        W76568   9.871  43.272  13.187
 8164W        W76569  11.736  19.953  11.154
 8165W        W76570  10.301   8.979  11.209
 8166W        W76571   2.106   9.398   2.324
 8167W        W76572  12.413   6.367   2.425
 8168W        W76573  16.371   9.349   4.594
 8169W        W76574  44.419   3.426   3.709
 8170W        W76575  20.760  29.642  13.457
 8171W        W76576  12.652   2.503  11.165
 8172W        W76577  10.787   5.175   0.306
 8173W        W76578  15.771   1.695  14.918
 8174W        W76579  40.498  12.594  11.292
 8175W        W76580  28.875  30.013   3.994
 8176W        W76581   4.114  36.775   2.409
 8177W        W76582   2.168   9.100  13.926
 8178W        W76583   4.998  28.140   3.663
 8179W        W76584  26.933  44.098   3.587
 8180W        W76585  38.974  15.178   1.253
 8181W        W76586  13.184   4.795  12.635
 8182W        W76587  17.865  24.577  13.579
 8183W        W76588  44.403  32.537   5.093
 8184W        W76589   1.788  28.900  11.991
 8185W        W76590  16.279  26.683  10.343
 8186W        W76591   3.881   9.775   2.136
 8187W        W76592  22.162  13.953   0.305
 8188W        W76593   6.436  12.588  10.355
 8189W        W76594  14.347   7.254   3.117
 8190W        W76595  37.554  16.180   4.179
 8191W        W76596  37.290   7.236  14.949
 8192W        W76597  30.649  31.644  11.663
 8193W        W76598  20.320  35.859  11.924
 8194W        W76599  11.362  40.088  11.593
 8195W        W76600  44.753   3.741  14.306
 8196W        W76601  24.614  38.829   0.875
 8197W        W76602  29.064  22.507   3.801
 8198W        W76603  20.943  16.149   3.070
 8199W        W76604  17.080   9.265  10.622
 8200W        W76605  15.339   2.485   2.641
 8201W        W76606  30.939  18.052  13.571
 8202W        W76607   7.199  24.930   4.677
 8203W        W76608  35.039   0.949   3.157
 8204W        W76609  29.062  39.410   2.773
 8205W        W76610  34.259  15.072   4.331
 8206W        W76611  14.491  15.809  10.010
 8207W        W76612   8.168   5.896   2.670
 8208W        W76613   8.155   0.477   2.560
 8209W        W76614   3.307   6.963  12.949
 8210W        W76615   3.492  41.301   3.598
 8211W        W76616  30.943  24.734  12.082
 8212W        W76617  33.850  23.897   0.237
 8213W        W76618   9.922  34.207  12.603
 8214W        W76619  42.965  44.419   3.460
 8215W        W76620   5.370  41.436   1.247
 8216W        W76621  37.957  18.688   0.473
 8217W        W76622  20.176  32.562   3.367
 8218W        W76623  27.951   0.780   0.938
 8219W        W76624  34.030  22.934   3.665
 8220W        W76625  34.297   3.187  13.888
 8221W        W76626  39.688  23.204  14.548
 8222W        W76627  32.418  15.864  12.656
 8223W        W76628  43.023   2.915   4.611
 8224W        W76629  22.900  11.554   0.384
 8225W        W76630   5.654  40.803   1.978
 8226W        W76631  28.656  38.267   4.946
 8227W        W76632  43.953  35.418   1.512
 8228W        W76633  28.752  13.756  10.967
 8229W        W76634   6.073  30.688  11.107
 8230W        W76635  29.909  10.262  11.545
 8231W        W76636  34.784  12.484   1.403
 8232W        W76637  25.994  27.560  14.253
 8233W        W76638  37.860  18.209  12.852
 8234W        W76639   1.479  31.586  11.335
 8235W        W76640  40.963  21.125   0.269
 8236W        W76641  29.213  36.563   0.138
 8237W        W76642  43.515  42.971  13.421
 8238W        W76643  31.821  37.502   5.020
 8239W        W76644  14.283   3.178  13.862
 8240W        W76645  14.313  11.768   3.791
 8241W        W76646  30.995   7.938   1.310
 8242W        W76647  30.677   1.362   2.422
 8243W        W76648   7.276  10.892   3.088
 8244W        W76649  29.612  23.319  14.097
 8245W        W76650  20.777  35.726   3.216
 8246W        W76651  37.304  33.532  12.552
 8247W        W76652  11.418  28.579  12.525
 8248W        W76653  15.010   5.999   0.449
 8249W        W76654  24.056  14.107  10.783
 8250W        W76655  26.173  30.384   2.746
 8251W        W76656  40.159  20.642   1.836
 8252W        W76657  33.684  28.452  12.100
 8253W        W76658  10.163  37.704   4.609
 8254W        W76659  18.709   1.212  12.439
 8255W        W76660   6.355  24.545   2.557
 8256W        W76661  42.822  33.679  12.513
 8257W        W76662  22.217  38.274  14.801
 8258W        W76663  34.522  22.702   0.296
 8259W        W76664  36.419   8.367   4.285
 8260W        W76665  29.518  11.895   4.691
 8261W        W76666  37.088   9.107   3.248
 8262W        W76667  41.482   9.174   0.158
 8263W        W76668   5.191   9.783   3.862
 8264W        W76669   6.148   2.389   3.614
 8265W        W76670  11.181   2.991  12.992
 8266W        W76671  10.036  10.161  14.929
 8267W        W76672  36.397  26.083   4.758
 8268W        W76673  40.432   0.505  10.483
 8269W        W76674   9.111  18.122  11.501
 8270W        W76675  40.483   0.696   0.826
 8271W        W76676  44.240   3.874   3.911
 8272W        W76677  18.014  16.412  14.980
 8273W        W76678  36.029   3.775  12.993
 8274W        W76679   6.400  22.355   4.181
 8275W        W76680  14.647  15.049  12.533
 8276W        W76681   6.332  37.297  14.647
 8277W        W76682  34.209  13.041   0.919
 8278W        W76683  19.774  44.362  10.976
 8279W        W76684  39.643  23.202   4.196
 8280W        W76685  12.786  15.397  13.456
 8281W        W76686  41.535  33.349  13.340
 8282W        W76687  21.358  12.546  14.264
 8283W        W76688  24.670  10.951  12.867
 8284W        W76689   8.134  41.727   1.323
 8285W        W76690  30.409  29.197   0.043
 8286W        W76691  31.505  25.769   0.034
 8287W        W76692  16.762  12.054  13.968
 8288W        W76693  30.070  10.869  13.775
 8289W        W76694  19.584  27.910   3.256
 8290W        W76695  43.059   6.929  12.483
 8291W        W76696  40.432  39.306  14.781
 8292W        W76697  21.695   2.974  14.557
 8293W        W76698  18.563  17.623   1.809
 8294W        W76699  23.460   8.198  14.358
 8295W        W76700  12.328  23.694  12.929
 8296W        W76701  23.462  20.622  11.659
 8297W        W76702   2.483  26.763   2.215
 8298W        W76703  43.309  17.196   1.308
 8299W        W76704  32.908  38.586   4.415
 8300W        W76705  40.300  44.794   1.020
 8301W        W76706  31.484  19.061  14.094
 8302W        W76707  21.716  39.501  13.582
 8303W        W76708  21.295   2.142  13.313
 8304W        W76709   3.249  44.720   0.792
 8305W        W76710  11.479  30.797  14.738
 8306W        W76711  36.374   7.610   1.718
 8307W        W76712   1.417   3.360   4.382
 8308W        W76713  26.534  35.057   4.514
 8309W        W76714   8.401  40.998  14.482
 8310W        W76715   8.097  44.829   0.037
 8311W        W76716  21.236  38.977   2.850
 8312W        W76717  32.421  37.796  12.439
 8313W        W76718  42.860  41.226   1.372
 8314W        W76719   6.159  11.422   2.726
 8315W        W76720  26.746  38.382  11.543
 8316W        W76721  21.145  33.524   1.153
 8317W        W76722  28.492   3.046   0.700
 8318W        W76723  13.103  30.169  12.452
 8319W        W76724  31.429  11.094  11.891
 8320W        W76725  33.012  25.943   0.521
 8321W        W76726  25.122   3.198  12.208
 8322W        W76727  19.153  21.179   0.397
 8323W        W76728  18.533   2.880  14.954
 8324W        W76729  35.611   8.202  12.825
 8325W        W76730  33.342   5.599  10.132
 8326W        W76731  18.663  19.780  11.502
 8327W        W76732  29.860  11.282   3.348
 8328W        W76733  43.510  22.950   4.149
 8329W        W76734  42.618  14.888  14.058
 8330W        W76735  24.249  24.443  12.856
 8331W        W76736  37.106  34.513   2.633
 8332W        W76737   4.770  33.032   1.183
 8333W        W76738   7.431  30.425  12.910
 8334W        W76739   7.026   7.889  11.024
 8335W        W76740  42.841  25.708   3.799
 8336W        W76741  28.695  38.967  13.892
 8337W        W76742  31.382  27.975   4.427
 8338W        W76743  43.965  42.519  13.039
 8339W        W76744  34.114  28.747   1.566
 8340W        W76745  35.508  35.485   0.226
 8341W        W76746  39.606   9.076   2.406
 8342W        W76747  38.761  15.347   0.810
 8343W        W76748   6.218  10.915   2.802
 8344W        W76749  15.989   6.808  11.390
 8345W        W76750  26.028  28.887  10.528
 8346W        W76751  29.474  34.471   0.558
 8347W        W76752  27.669  19.229   1.000
 8348W        W76753   0.410  23.235  12.480
 8349W        W76754  38.917  40.810   1.633
 8350W        W76755  27.480   0.647   0.263
 8351W        W76756  27.115  38.309   1.906
 8352W        W76757   2.499  25.053   1.848
 8353W        W76758  38.728   8.665   4.446
 8354W        W76759   2.351  21.670  12.074
 8355W        W76760  42.966  43.610   1.816
 8356W        W76761   4.675  19.476  13.967
 8357W        W76762  25.441  26.322  12.533
 8358W        W76763  18.739   0.517   0.313
 8359W        W76764  12.664   5.398  12.990
 8360W        W76765   1.106  20.791  12.583
 8361W        W76766   5.261  27.855   0.936
 8362W        W76767  11.284   6.435  11.965
 8363W        W76768  13.061  41.737   3.786
 8364W        W76769  33.894   5.276   1.415
 8365W        W76770  24.181  11.699  13.799
 8366W        W76771   1.223  40.397   1.581
 8367W        W76772  27.888  42.983   0.686
 8368W        W76773  25.236  42.054   5.144
 8369W        W76774   8.835  43.801   4.908
 8370W        W76775  17.346  25.630  13.875
 8371W        W76776   1.648  41.314   1.602
 8372W        W76777  31.360  37.023   4.577
 8373W        W76778  34.654  23.004  11.570
 8374W        W76779  26.366  26.515   0.536
 8375W        W76780   2.884  19.493   4.664
 8376W        W76781   9.365   6.219  10.104
 8377W        W76782  30.398  42.100  14.943
 8378W        W76783  35.272  39.939  13.680
 8379W        W76784  27.902   5.666   1.817
 8380W        W76785  13.675  43.250   3.286
 8381W        W76786  25.373  13.176   0.979
 8382W        W76787  22.618  26.900  12.603
 8383W        W76788  18.395  19.238  13.859
 8384W        W76789   2.465   2.846   3.904
 8385W        W76790  37.925  18.320  11.057
 8386W        W76791  43.291  37.949   4.748
 8387W        W76792  23.232   5.192   1.163
 8388W        W76793  35.943  36.044   0.278
 8389W        W76794  36.040  31.535   0.965
 8390W        W76795  38.031  14.708  11.268
 8391W        W76796   2.856  17.465   0.430
 8392W        W76797   3.397  15.703   2.482
 8393W        W76798   6.675  27.459  14.413
 8394W        W76799  25.708  32.804   0.841
 8395W        W76800  40.559  26.456   3.260
 8396W        W76801  24.312  29.480   3.211
 8397W        W76802  29.554  10.629  11.649
 8398W        W76803   0.873  35.355   4.632
 8399W        W76804   7.273  35.506  12.532
 8400W        W76805   9.767  37.158  12.603
 8401W        W76806  44.212   3.929   0.721
 8402W        W76807  11.050  35.855   0.446
 8403W        W76808  41.315   0.852  14.042
 8404W        W76809   8.188  17.097  14.268
 8405W        W76810   1.196  34.519  13.070
 8406W        W76811  16.629  16.008   4.448
 8407W        W76812   9.737   7.976  13.820
 8408W        W76813  27.701  12.227  11.158
 8409W        W76814  13.354  11.308   0.890
 8410W        W76815   9.426  28.268   2.854
 8411W        W76816  23.492  11.680  11.662
 8412W        W76817   2.401  25.160   0.015
 8413W        W76818   1.885  19.133  12.102
 8414W        W76819  40.302  29.191  10.761
 8415W        W76820  41.953  20.262  14.343
 8416W        W76821  28.483   6.254   2.335
 8417W        W76822  15.729  12.330   2.180
 8418W        W76823   9.229  31.427   3.141
 8419W        W76824  30.383  44.169  13.995
 8420W        W76825  11.848  23.712  13.889
 8421W        W76826   3.748  36.964   4.644
 8422W        W76827  32.054   5.692  14.709
 8423W        W76828   4.439   3.375   0.771
 8424W        W76829  21.232  20.965  11.891
 8425W        W76830   7.913  40.997   2.376
 8426W        W76831  37.830   6.193   3.685
 8427W        W76832  17.031  30.048   2.483
 8428W        W76833  29.495  39.355   3.713
 8429W        W76834  10.248  29.102  11.948
 8430W        W76835  38.992  40.316  14.246
 8431W        W76836  30.239  28.413   4.060
 8432W        W76837  18.682   7.702  11.224
 8433W        W76838  41.970  24.674  14.022
 8434W        W76839  40.204   5.021  10.718
 8435W        W76840   9.210  30.753   5.579
 8436W        W76841  28.173  25.805   0.196
 8437W        W76842   7.296  15.694   9.854
 8438W        W76843   9.989  12.731  10.482
 8439W        W76844   1.783  25.614  11.665
 8440W        W76845  17.785  14.343  13.364
 8441W        W76846   6.727  44.258   0.874
 8442W        W76847   1.955  24.211   1.923
 8443W        W76848  30.900  42.714  12.769
 8444W        W76849  20.172  42.245  12.951
 8445W        W76850  33.506  42.295   1.752
 8446W        W76851  38.104  17.570  13.532
 8447W        W76852  24.924  40.852   1.758
 8448W        W76853  38.416  35.837  13.990
 8449W        W76854  15.267  26.969  13.918
 8450W        W76855   8.221  36.281   3.745
 8451W        W76856  39.057  22.930  13.684
 8452W        W76857   5.841  19.615   1.150
 8453W        W76858   1.721  42.876   0.700
 8454W        W76859  36.296  24.254   4.330
 8455W        W76860   4.167  32.455  12.031
 8456W        W76861   3.966  18.842  14.978
 8457W        W76862  35.539   9.949   0.239
 8458W        W76863  25.811  39.581   2.219
 8459W        W76864  23.268  20.753   4.622
 8460W        W76865   5.422  14.402  14.856
 8461W        W76866  28.537  39.785   0.720
 8462W        W76867  21.962  44.073   1.976
 8463W        W76868  22.434  30.016   1.377
 8464W        W76869  16.865  24.758  13.420
 8465W        W76870   2.917  16.608   3.725
 8466W        W76871  18.195  39.480  12.851
 8467W        W76872  43.913  22.506  11.545
 8468W        W76873  38.005  26.402   4.073
 8469W        W76874  21.701  32.592   1.443
 8470W        W76875  44.506  18.752  11.570
 8471W        W76876  24.459  16.733   3.291
 8472W        W76877  44.486   2.950   0.705
 8473W        W76878   9.314  36.373  12.978
 8474W        W76879  19.272  11.427  14.871
 8475W        W76880  21.832  27.563   4.187
 8476W        W76881  17.281   3.299  14.261
 8477W        W76882  16.836   6.696  14.697
 8478W        W76883   6.179  14.784  12.473
 8479W        W76884   7.293  26.885  14.002
 8480W        W76885  27.580  30.133   2.309
 8481W        W76886  39.210  33.637  14.772
 8482W        W76887  43.463  31.721   1.306
 8483W        W76888  18.745  30.947   1.458
 8484W        W76889  21.533  23.072  10.842
 8485W        W76890  16.120   2.753   4.659
 8486W        W76891  40.291   1.339  12.231
 8487W        W76892  28.686  42.159  13.427
 8488W        W76893  18.568  11.408   0.968
 8489W        W76894  29.231  38.019   1.928
 8490W        W76895   8.856   0.208  14.505
 8491W        W76896  12.869   6.383   4.193
 8492W        W76897  19.064  19.380   0.946
 8493W        W76898  31.933  44.381  13.800
 8494W        W76899  42.428  14.610  12.484
 8495W        W76900  21.296  33.734   4.826
 8496W        W76901  38.039   5.900  11.107
 8497W        W76902  17.563  19.070   4.128
 8498W        W76903  12.944   2.845   4.069
 8499W        W76904  22.944   9.801  12.854
 8500W        W76905  12.627  44.650  14.889
 8501W        W76906  16.635  33.446  11.649
 8502W        W76907  26.176   7.355  13.946
 8503W        W76908  24.318   2.959   1.624
 8504W        W76909  43.303   4.860   1.749
 8505W        W76910  12.306   7.959   2.662
 8506W        W76911   9.302  13.331  10.547
 8507W        W76912  36.573  43.969  11.118
 8508W        W76913   9.690  42.498  11.654
 8509W        W76914  20.377  22.262  10.666
 8510W        W76915  23.037  11.255  13.535
 8511W        W76916  13.253  29.136   4.214
 8512W        W76917  26.478  14.237  11.973
 8513W        W76918   6.245  10.961   3.893
 8514W        W76919  36.943  30.992  10.639
 8515W        W76920  29.232  25.812   0.958
 8516W        W76921   5.254  40.517   4.659
 8517W        W76922  42.927   0.987  12.432
 8518W        W76923  27.275   5.813  11.102
 8519W        W76924  43.367  44.307   1.408
 8520W        W76925  10.788  33.920  12.087
 8521W        W76926   4.403   7.703   4.157
 8522W        W76927  27.262  30.428  11.775
 8523W        W76928  24.442   7.375   1.187
 8524W        W76929  44.202  21.721   3.119
 8525W        W76930   7.388  36.854  13.850
 8526W        W76931  42.268  44.349   0.639
 8527W        W76932  29.798   6.568   5.003
 8528W        W76933  15.443   7.929   1.311
 8529W        W76934  11.800  15.337  10.188
 8530W        W76935   7.705  19.181  14.854
 8531W        W76936   6.298  11.711  13.133
 8532W        W76937  14.481  38.316   2.201
 8533W        W76938   9.884  37.989   1.821
 8534W        W76939  36.454  21.166   4.583
 8535W        W76940  22.486   6.467  13.324
 8536W        W76941  30.439  12.352   2.602
 8537W        W76942  39.971   0.070   2.757
 8538W        W76943   3.290  10.975   1.942
 8539W        W76944  38.146   6.666   4.101
 8540W        W76945  44.312  43.509   1.446
 8541W        W76946   0.479  17.778  14.219
 8542W        W76947   7.879   0.528  12.878
 8543W        W76948  10.443  41.065   0.413
 8544W        W76949  43.643  41.388   4.577
 8545W        W76950   0.315  20.862   4.527
 8546W        W76951  37.565  34.614   3.833
 8547W        W76952  12.141  16.208  14.968
 8548W        W76953  23.584  37.071  14.906
 8549W        W76954  30.053   0.727   0.303
 8550W        W76955  30.189  22.236   3.333
 8551W        W76956  17.607   6.366   4.579
 8552W        W76957  35.581   3.346   2.565
 8553W        W76958   7.941  20.566  10.620
 8554W        W76959  10.363  26.137  10.631
 8555W        W76960  25.871   0.310  14.280
 8556W        W76961  36.683   0.704   4.046
 8557W        W76962  42.350  39.956  11.110
 8558W        W76963  34.474  36.385   3.698
 8559W        W76964   2.489  31.091   2.848
 8560W        W76965   5.872  44.690   3.276
 8561W        W76966  13.716   6.944   0.011
 8562W        W76967  17.035  44.743   1.716
 8563W        W76968  19.586  34.517  11.453
 8564W        W76969   2.336  11.711  11.449
 8565W        W76970  30.205  40.363  13.856
 8566W        W76971  36.329  19.928  13.013
 8567W        W76972  21.720   0.246  12.427
 8568W        W76973   4.694   5.408   1.673
 8569W        W76974  40.540  30.685   3.166
 8570W        W76975  26.543  34.150  11.996
 8571W        W76976   8.070  15.382  10.284
 8572W        W76977  14.243   0.834  12.401
 8573W        W76978   6.233  12.030  13.537
 8574W        W76979   0.229   1.460   1.723
 8575W        W76980  30.887   1.682   2.780
 8576W        W76981  28.319  32.399  12.845
 8577W        W76982  36.577  28.180  11.158
 8578W        W76983  44.150  24.939   5.005
 8579W        W76984   1.472  43.523   3.702
 8580W        W76985  41.747   3.288   3.246
 8581W        W76986  26.097  21.544   4.505
 8582W        W76987   2.051   2.363   2.718
 8583W        W76988  38.294  37.329  11.794
 8584W        W76989  22.353  39.268   3.606
 8585W        W76990   5.624  19.702   0.679
 8586W        W76991  20.121  12.418   4.080
 8587W        W76992   6.380  27.414   3.606
 8588W        W76993  35.382   6.182   2.832
 8589W        W76994  40.731  26.563  11.993
 8590W        W76995  41.498  36.352  12.159
 8591W        W76996  18.802  30.212   2.804
 8592W        W76997   5.523  25.515   1.023
 8593W        W76998  16.209   1.846  11.195
 8594W        W76999  12.233  32.344   2.845
 8595W        W77000  37.580   8.721  10.141
 8596W        W77001  33.631  14.735   2.753
 8597W        W77002   9.657  43.595   1.845
 8598W        W77003   4.188  34.811   1.750
 8599W        W77004   5.682  21.623  13.816
 8600W        W77005   8.209  22.537   2.097
 8601W        W77006  23.453  11.722  12.187
 8602W        W77007  36.213  14.357  11.998
 8603W        W77008  44.442  44.277   4.605
 8604W        W77009  35.433   6.793   3.592
 8605W        W77010  40.427  29.132   4.567
 8606W        W77011  24.878  13.146   0.788
 8607W        W77012  33.676  27.638   0.914
 8608W        W77013  43.766  39.852   2.164
 8609W        W77014  22.075  40.012  11.066
 8610W        W77015  11.175  15.956  12.796
 8611W        W77016  43.191  19.064   1.419
 8612W        W77017   1.247  17.488   3.969
 8613W        W77018  20.414  43.563  10.795
 8614W        W77019  31.370  19.840  12.417
 8615W        W77020  39.298  33.485   4.649
 8616W        W77021  10.450  32.392  12.290
 8617W        W77022  16.955  39.521  10.729
 8618W        W77023  22.956  44.164   9.944
 8619W        W77024  17.715   3.708   3.802
 8620W        W77025  22.026  25.094   0.773
 8621W        W77026   2.713  22.456  11.632
 8622W        W77027  10.752  15.434   5.430
 8623W        W77028  30.608  12.297  12.155
 8624W        W77029  18.464  37.851  12.128
 8625W        W77030  18.269  24.277   1.643
 8626W        W77031  40.291   4.169  13.448
 8627W        W77032   5.379   7.156   4.587
 8628W        W77033  32.674   0.184   2.584
 8629W        W77034  35.504  31.965   2.432
 8630W        W77035  40.272   6.147   0.325
 8631W        W77036  39.442   5.297   5.378
 8632W        W77037  29.890  15.247  11.164
 8633W        W77038  19.971   3.828  14.997
 8634W        W77039  37.385  24.772   1.738
 8635W        W77040  26.149  14.075  11.618
 8636W        W77041  33.680   2.380   3.315
 8637W        W77042  39.041  36.704  11.564
 8638W        W77043  20.251  27.753  14.831
 8639W        W77044  11.652  43.049   3.756
 8640W        W77045   2.340  38.860  12.922
 8641W        W77046  22.647  31.975   4.523
 8642W        W77047  14.352  10.643   4.709
 8643W        W77048  20.713   5.261  13.470
 8644W        W77049  27.224   1.530   1.962
 8645W        W77050   0.516  17.628   0.819
 8646W        W77051  44.292   6.446   4.055
 8647W        W77052  16.008  43.727   4.876
 8648W        W77053  26.685  39.512   1.775
 8649W        W77054   2.409  16.294   3.822
 8650W        W77055  26.567  27.768  11.063
 8651W        W77056  44.470  41.964   1.154
 8652W        W77057  24.028  43.578  12.336
 8653W        W77058  36.567  43.209   3.575
 8654W        W77059  39.971  28.413   1.394
 8655W        W77060  18.374  13.033   1.860
 8656W        W77061  13.498   4.348   4.232
 8657W        W77062  19.487  21.105  11.449
 8658W        W77063  33.985   5.777  11.496
 8659W        W77064  32.817  28.425  11.071
 8660W        W77065  26.591   5.623   3.305
 8661W        W77066  31.103   7.425  11.472
 8662W        W77067  14.309  17.737  13.874
 8663W        W77068  30.403  36.625  13.792
 8664W        W77069  32.626   4.193   0.534
 8665W        W77070  36.592  41.473   5.005
 8666W        W77071  31.940  18.165   4.609
 8667W        W77072  12.060  35.793  14.793
 8668W        W77073  27.656  27.194  13.090
 8669W        W77074   8.104   5.145  13.065
 8670W        W77075   3.831  34.153   0.543
 8671W        W77076   1.890   7.303  13.881
 8672W        W77077  44.444   2.420   4.668
 8673W        W77078   4.900  44.235  10.292
 8674W        W77079  30.827  26.830   2.625
 8675W        W77080  32.725  13.919  13.985
 8676W        W77081  15.728  35.010   3.707
 8677W        W77082  21.728  27.507  11.129
 8678W        W77083   3.806  26.403  14.495
 8679W        W77084   2.292  13.065   0.491
 8680W        W77085  10.008  34.999   2.375
 8681W        W77086  12.117  13.066   3.598
 8682W        W77087  10.347  28.997  14.450
 8683W        W77088  43.768   3.897  11.623
 8684W        W77089  39.794  32.450   0.509
 8685W        W77090   9.729  15.724   1.693
 8686W        W77091  11.457  17.729  14.986
 8687W        W77092  38.110  29.459   0.834
 8688W        W77093  40.510  35.844   3.177
 8689W        W77094  24.056   9.687  14.773
 8690W        W77095  11.009  27.952   5.012
 8691W        W77096  40.881   5.751  10.639
 8692W        W77097  39.109   8.082  12.473
 8693W        W77098  23.225  32.873   1.796
 8694W        W77099   9.380  33.944   4.187
 8695W        W77100  28.543  18.238   2.793
 8696W        W77101  35.791  43.272  11.113
 8697W        W77102  28.108  15.978   3.522
 8698W        W77103  14.798  42.164   3.764
 8699W        W77104  22.184  43.798   4.127
 8700W        W77105  44.207  42.391   1.306
 8701W        W77106  26.100  35.590   3.477
 8702W        W77107  39.041  42.725  14.887
 8703W        W77108   2.304  30.913  13.406
 8704W        W77109  36.084  28.584   3.228
 8705W        W77110  40.775  28.101  11.266
 8706W        W77111  11.190   7.388  11.892
 8707W        W77112   4.991  10.280  13.707
 8708W        W77113  20.562  36.948  10.794
 8709W        W77114  41.029  22.100  14.738
 8710W        W77115  43.903  20.209  14.768
 8711W        W77116  30.649  18.135  13.093
 8712W        W77117  23.378  37.135   2.880
 8713W        W77118  34.280  20.213  12.578
 8714W        W77119  35.883   8.297   1.428
 8715W        W77120  18.543  29.478  12.140
 8716W        W77121   4.716  39.490   2.397
 8717W        W77122  40.945  36.590   0.789
 8718W        W77123  26.176   6.662   0.339
 8719W        W77124   9.968  43.752  13.423
 8720W        W77125  14.702  43.024  12.296
 8721W        W77126  16.215  10.190   4.605
 8722W        W77127  13.112  44.578  12.999
 8723W        W77128  40.487  25.720   4.392
 8724W        W77129   0.323   1.708   3.653
 8725W        W77130  14.030  19.510  12.662
 8726W        W77131  24.954   1.003  13.462
 8727W        W77132   8.418  36.715  12.602
 8728W        W77133  37.927  43.396   4.000
 8729W        W77134  42.271  15.675   4.936
 8730W        W77135  32.845  16.643   3.304
 8731W        W77136  30.610  19.326   0.654
 8732W        W77137  29.695  30.435   4.159
 8733W        W77138  44.327  20.781   1.896
 8734W        W77139  12.567  25.685   2.448
 8735W        W77140  42.329  27.843  13.584
 8736W        W77141  30.444  32.950  13.402
 8737W        W77142  30.445  35.998  11.950
 8738W        W77143  26.181  43.828  13.502
 8739W        W77144  30.005  14.902   0.871
 8740W        W77145  15.328   9.595  14.498
 8741W        W77146  21.493  35.498  13.061
 8742W        W77147   8.053  24.407   2.590
 8743W        W77148  22.272  26.382  12.437
 8744W        W77149  37.890   5.548   2.376
 8745W        W77150   6.231  39.435  14.419
 8746W        W77151  40.356  32.952   1.819
 8747W        W77152   2.657  31.697  11.678
 8748W        W77153  41.216  22.194   2.677
 8749W        W77154  27.074  28.143   0.657
 8750W        W77155  36.381  36.206  10.274
 8751W        W77156  26.589  24.993   2.146
 8752W        W77157  13.122   6.869   2.792
 8753W        W77158   7.680  44.356   3.087
 8754W        W77159   7.724  23.908  12.458
 8755W        W77160  20.707  16.242  13.940
 8756W        W77161  31.777  30.162  14.414
 8757W        W77162  34.831  38.058  14.515
 8758W        W77163  34.458  25.608  11.095
 8759W        W77164  19.860  25.012  11.546
 8760W        W77165  25.162   3.848   4.121
 8761W        W77166  27.704  25.560   4.832
 8762W        W77167  44.896  21.133  11.980
 8763W        W77168  31.466  22.000  13.776
 8764W        W77169  21.026  38.470   2.913
 8765W        W77170  31.909  14.658   4.678
 8766W        W77171  11.252  12.857  12.687
 8767W        W77172  26.653  19.296  12.047
 8768W        W77173   0.366  10.139   2.432
 8769W        W77174  14.131  31.858   2.321
 8770W        W77175  18.592  36.530  14.307
 8771W        W77176  42.213   3.653  12.418
 8772W        W77177  33.714  22.735   4.056
 8773W        W77178  35.961   6.713   0.811
 8774W        W77179  15.857  25.537  13.816
 8775W        W77180  21.047  32.735   0.462
 8776W        W77181  22.479  39.962  10.739
 8777W        W77182   2.983  12.253  14.682
 8778W        W77183  12.300   7.821  11.694
 8779W        W77184   0.460  26.170   3.288
 8780W        W77185  38.091  20.479   3.486
 8781W        W77186  41.381   6.038   0.320
 8782W        W77187  43.322   1.774   4.675
 8783W        W77188  22.244  19.276   0.489
 8784W        W77189  21.818   4.600   1.823
 8785W        W77190   3.851   5.892  12.689
 8786W        W77191  35.039  43.397  12.434
 8787W        W77192   9.251  18.255   1.918
 8788W        W77193   1.303  23.043   1.474
 8789W        W77194  44.277  20.645   1.384
 8790W        W77195  33.573   9.639   1.706
 8791W        W77196  23.684  32.761  13.826
 8792W        W77197  11.968  13.169   1.506
 8793W        W77198  38.801   3.134   3.200
 8794W        W77199  36.821  28.396  13.836
 8795W        W77200   1.258  21.845  11.193
 8796W        W77201  41.050  29.474   3.324
 8797W        W77202  23.770   4.792  11.604
 8798W        W77203   1.439  44.116  13.987
 8799W        W77204  11.493  24.413  13.418
 8800W        W77205   2.749  14.208   1.703
 8801W        W77206  24.319  42.066   1.409
 8802W        W77207  28.052  22.392  12.529
 8803W        W77208  40.786   9.759   1.487
 8804W        W77209  34.500  29.434   0.732
 8805W        W77210   9.202  23.009   0.702
 8806W        W77211  10.887  44.407   4.370
 8807W        W77212  34.355  30.971   3.672
 8808W        W77213  37.647  29.965  11.410
 8809W        W77214  38.089  20.658   2.989
 8810W        W77215  16.541  13.184   2.397
 8811W        W77216   7.902  14.047  12.871
 8812W        W77217  28.397  27.594   1.254
 8813W        W77218  28.435  26.943   0.670
 8814W        W77219  41.002  40.815  10.830
 8815W        W77220  16.161  23.479  14.961
 8816W        W77221  29.478   1.413   1.496
 8817W        W77222  34.506  42.229   4.501
 8818W        W77223  28.565  31.457  10.673
 8819W        W77224  31.521   6.494  12.061
 8820W        W77225  35.084  39.588  11.797
 8821W        W77226  25.493  15.579   5.032
 8822W        W77227   7.460   9.655  11.826
 8823W        W77228  11.129   9.755   1.172
 8824W        W77229  37.114  15.169   3.806
 8825W        W77230  12.886  29.123   4.574
 8826W        W77231  17.967   7.384  12.643
 8827W        W77232  34.817  11.110   2.514
 8828W        W77233  37.457  25.080  12.026
 8829W        W77234   3.356   9.341  13.434
 8830W        W77235  18.476  18.689   1.337
 8831W        W77236  43.401   5.252  10.919
 8832W        W77237  26.771  32.816   3.696
 8833W        W77238  17.835  34.590   0.883
 8834W        W77239  36.587  16.585   3.371
 8835W        W77240  14.194  42.996  10.510
 8836W        W77241  10.194  17.960   5.102
 8837W        W77242  19.767  14.616   1.906
 8838W        W77243   6.613  27.544   0.161
 8839W        W77244  20.031  34.437   3.263
 8840W        W77245   9.679  39.735   4.157
 8841W        W77246  18.102  14.426  11.095
 8842W        W77247   8.627  17.157   0.818
 8843W        W77248  40.682  18.243  13.428
 8844W        W77249  34.026  31.465  13.954
 8845W        W77250  34.097   4.317   3.335
 8846W        W77251  15.654  17.294  11.282
 8847W        W77252  40.553  43.306  12.499
 8848W        W77253   2.538  28.340  10.679
 8849W        W77254   4.236   2.247   3.926
 8850W        W77255  34.109  38.396   0.526
 8851W        W77256   7.682  24.119  10.659
 8852W        W77257  26.257  39.837  11.981
 8853W        W77258  26.511  42.543   2.158
 8854W        W77259  34.679  29.121  11.621
 8855W        W77260  18.621  42.635   0.436
 8856W        W77261   9.827  36.973   1.819
 8857W        W77262   2.914  40.012  11.787
 8858W        W77263  10.305  35.295  13.816
 8859W        W77264  12.251  27.224   4.708
 8860W        W77265   4.849  25.107  12.291
 8861W        W77266   7.662  41.917  12.033
 8862W        W77267   8.042  29.796  14.244
 8863W        W77268  26.538  35.830   3.700
 8864W        W77269  37.113   4.814  14.269
 8865W        W77270  42.835  29.978  11.184
 8866W        W77271  23.237  23.701  10.697
 8867W        W77272  28.386   9.370   4.184
 8868W        W77273  41.939  14.615   0.328
 8869W        W77274  16.730  10.117   4.502
 8870W        W77275   8.774   2.751   3.263
 8871W        W77276   5.321  40.039   2.863
 8872W        W77277  30.108  17.342   0.609
 8873W        W77278   4.704   1.325  14.114
 8874W        W77279   3.404  29.064  10.761
 8875W        W77280   7.784  33.877  13.475
 8876W        W77281   4.851  24.726   2.422
 8877W        W77282  22.064  34.510   3.658
 8878W        W77283  32.566  16.160   3.312
 8879W        W77284  44.430  12.980   4.583
 8880W        W77285  31.198  32.555   0.224
 8881W        W77286  44.027  30.436  10.441
 8882W        W77287  24.167  35.708  12.938
 8883W        W77288  16.138  18.038  14.294
 8884W        W77289   9.367  19.018  13.459
 8885W        W77290  36.471  41.971   4.239
 8886W        W77291  11.652  39.596  12.417
 8887W        W77292  22.725  13.793   0.932
 8888W        W77293  41.279  21.178  13.938
 8889W        W77294  27.546  38.049   4.103
 8890W        W77295  36.640  20.600   3.619
 8891W        W77296  40.397  19.696  13.347
 8892W        W77297   8.529   7.339  12.556
 8893W        W77298  20.958  32.899  13.456
 8894W        W77299  21.154  36.030  10.209
 8895W        W77300  42.843  39.263   0.778
 8896W        W77301   4.391  34.429   2.072
 8897W        W77302  43.436  11.761  13.918
 8898W        W77303  29.413  14.692   1.256
 8899W        W77304  19.713  23.964  11.631
 8900W        W77305   4.682  22.769  14.302
 8901W        W77306  12.667  32.117   0.270
 8902W        W77307  40.971  39.179  11.249
 8903W        W77308  17.377  21.144   3.171
 8904W        W77309  19.248  34.205   2.924
 8905W        W77310  33.971  27.998   4.175
 8906W        W77311  39.900   5.622   4.178
 8907W        W77312  18.066  13.050  13.909
 8908W        W77313  19.147  28.139  13.336
 8909W        W77314  20.528  16.812   1.140
 8910W        W77315  29.428  10.216  11.369
 8911W        W77316  32.448  31.083  14.880
 8912W        W77317   3.783  41.762   3.279
 8913W        W77318  11.945  12.597  12.014
 8914W        W77319   2.788  22.167   1.208
 8915W        W77320   6.912  32.125   1.870
 8916W        W77321   8.834  26.732  10.746
 8917W        W77322  11.609  43.391   2.474
 8918W        W77323  19.719  37.383  11.488
 8919W        W77324   2.932   8.627   1.342
 8920W        W77325   0.946  36.986  14.815
 8921W        W77326   3.348  22.976  13.398
 8922W        W77327  31.107  22.744  13.466
 8923W        W77328  20.146  36.264   4.195
 8924W        W77329  37.571  38.795  11.687
 8925W        W77330  38.536  27.540   1.231
 8926W        W77331  11.298  13.552   2.593
 8927W        W77332  38.733  31.047  12.642
 8928W        W77333  30.104  26.003  13.363
 8929W        W77334  31.338  15.652  13.327
 8930W        W77335   9.591  10.182  14.097
 8931W        W77336  36.630  14.675   2.711
 8932W        W77337  37.836  42.562   2.667
 8933W        W77338  20.648  22.987   0.009
 8934W        W77339  42.967  26.205   4.716
 8935W        W77340   2.736  24.674  13.075
 8936W        W77341   1.218   6.195  11.075
 8937W        W77342  29.603  24.044  11.437
 8938W        W77343  35.333   9.286  12.408
 8939W        W77344  15.409   3.287   2.269
 8940W        W77345  13.512  35.905   3.559
 8941W        W77346  44.467  15.322  12.413
 8942W        W77347  41.818  33.466  14.403
 8943W        W77348   9.144   8.729   4.981
 8944W        W77349  25.062  27.209  12.241
 8945W        W77350  24.229  11.287  14.737
 8946W        W77351   9.702  17.645  13.662
 8947W        W77352  23.078  11.399   0.856
 8948W        W77353  41.871  41.551  11.644
 8949W        W77354  22.131   0.775   3.204
 8950W        W77355  17.691  35.893  14.810
 8951W        W77356  35.077   9.310  14.530
 8952W        W77357  23.975  34.129  10.945
 8953W        W77358  19.997  19.740   4.142
 8954W        W77359  42.524  41.176   2.636
 8955W        W77360   8.023   7.078   4.185
 8956W        W77361  17.567  31.113  14.800
 8957W        W77362  22.557  14.366   1.868
 8958W        W77363  11.590   0.653   0.376
 8959W        W77364  14.610  29.885  14.914
 8960W        W77365  42.289  35.459  14.091
 8961W        W77366   9.119  28.400  12.058
 8962W        W77367  34.416   7.686  11.657
 8963W        W77368  32.520  10.530  11.957
 8964W        W77369  19.022   8.903  14.775
 8965W        W77370  43.345   8.248   4.749
 8966W        W77371  13.306  38.199  13.522
 8967W        W77372  38.608  24.141   2.257
 8968W        W77373   8.653  24.073  10.763
 8969W        W77374  41.380   9.584   3.669
 8970W        W77375  22.135  33.446   3.368
 8971W        W77376  33.689  28.169   2.811
 8972W        W77377  37.860  38.526  13.946
 8973W        W77378  44.934   0.595  14.817
 8974W        W77379  12.228  31.488   2.765
 8975W        W77380   2.774  26.467  14.933
 8976W        W77381  26.300  39.841  10.250
 8977W        W77382  26.938  10.635   4.901
 8978W        W77383  23.797  43.343   1.379
 8979W        W77384   3.093  28.003  13.989
 8980W        W77385   4.338  34.394  12.863
 8981W        W77386  10.594  30.530   2.950
 8982W        W77387  42.942   8.858   0.847
 8983W        W77388  23.522  38.809  14.294
 8984W        W77389  31.470  34.960   0.878
 8985W        W77390   0.710  19.334   2.209
 8986W        W77391  30.106  36.399  14.447
 8987W        W77392  38.473  13.158  10.789
 8988W        W77393  22.573  23.872   1.894
 8989W        W77394   2.175  32.979   1.842
 8990W        W77395  32.128  10.840  13.120
 8991W        W77396  16.333  42.589  12.488
 8992W        W77397   0.773  30.596  13.899
 8993W        W77398  18.658  18.576  14.414
 8994W        W77399  34.131  26.331   3.674
 8995W        W77400  33.829  10.702   3.781
 8996W        W77401  11.464   0.239   4.278
 8997W        W77402  36.077  41.207   3.112
 8998W        W77403  13.329  38.934   4.255
 8999W        W77404  28.159  37.741   0.334
 9000W        W77405  23.228  10.316   2.758
 9001W        W77406   2.452  16.406   4.339
 9002W        W77407  15.683  43.981  12.323
 9003W        W77408  42.477  40.567   0.857
 9004W        W77409  28.695   0.750   0.180
 9005W        W77410  32.610  27.044  14.012
 9006W        W77411   6.109   7.647  12.146
 9007W        W77412  35.787  37.756   0.930
 9008W        W77413  27.079  39.301  13.572
 9009W        W77414  33.075   3.943   0.378
 9010W        W77415  11.181  34.315  11.466
 9011W        W77416  27.994   5.151  14.337
 9012W        W77417  39.661  43.837  13.714
 9013W        W77418  37.853  42.906   2.280
 9014W        W77419   9.400   9.218   0.672
 9015W        W77420  34.937  26.201   2.692
 9016W        W77421  32.418  41.540   2.782
 9017W        W77422   3.994   6.298   0.889
 9018W        W77423  32.139  31.273   3.645
 9019W        W77424  35.631  27.455   0.683
 9020W        W77425  20.011   4.328  14.918
 9021W        W77426  21.238  27.011   2.626
 9022W        W77427  28.079  26.727   1.225
 9023W        W77428  26.555  43.487   2.207
 9024W        W77429   9.746   4.702  11.118
 9025W        W77430  22.850  36.998  10.055
 9026W        W77431  18.566   0.476  13.949
 9027W        W77432  43.858  14.099   1.309
 9028W        W77433  41.651  10.717   2.735
 9029W        W77434  19.747  29.577   1.480
 9030W        W77435   2.024   5.709   0.843
 9031W        W77436  20.542  20.559   0.493
 9032W        W77437  10.626  18.702  11.190
 9033W        W77438  11.080  15.803   4.167
 9034W        W77439  12.694  12.858   2.999
 9035W        W77440  29.954  24.896  12.541
 9036W        W77441  15.731  36.964   4.137
 9037W        W77442   5.599  23.899   4.901
 9038W        W77443   4.964  15.789   0.872
 9039W        W77444  10.126  42.814  11.591
 9040W        W77445  30.674  26.750  10.818
 9041W        W77446  24.041   3.421   1.853
 9042W        W77447  13.849  19.659   2.187
 9043W        W77448   4.814  19.073   0.281
 9044W        W77449  28.744  14.767   5.550
 9045W        W77450  30.946  43.933   0.242
 9046W        W77451   2.482   2.479  13.900
 9047W        W77452  13.269   3.348   3.274
 9048W        W77453   2.225  38.803   1.602
 9049W        W77454  40.249  25.183  11.255
 9050W        W77455  34.073  31.255   1.190
 9051W        W77456  15.146   5.332   1.774
 9052W        W77457   7.773  41.094  11.642
 9053W        W77458  14.029  40.830  14.701
 9054W        W77459  10.923  37.915   1.880
 9055W        W77460   5.603  11.904  14.994
 9056W        W77461  12.031  39.001  13.431
 9057W        W77462  25.928  44.793  14.422
 9058W        W77463  42.029  19.750   3.914
 9059W        W77464  40.815  12.696   2.788
 9060W        W77465  26.770   1.444  11.525
 9061W        W77466  36.712  31.005  11.171
 9062W        W77467  36.860  21.457  14.347
 9063W        W77468  18.800  15.090  11.612
 9064W        W77469  25.643  42.814  10.158
 9065W        W77470   4.946  12.791   2.812
 9066W        W77471  44.324  36.176  10.767
 9067W        W77472  35.910   8.168   0.410
 9068W        W77473  42.887   3.419  11.192
 9069W        W77474  41.743  43.609  14.225
 9070W        W77475  30.896  38.056   1.254
 9071W        W77476  28.104   7.316  10.442
 9072W        W77477  33.002  41.745   4.561
 9073W        W77478  23.150  19.214  12.972
 9074W        W77479   1.024   4.918  10.918
 9075W        W77480  28.859  28.725  13.820
 9076W        W77481  24.160  43.849   3.167
 9077W        W77482  40.129   2.538  12.896
 9078W        W77483   1.636  20.566  11.876
 9079W        W77484  28.827   4.867   2.779
 9080W        W77485   2.197  31.638  10.523
 9081W        W77486  32.936   0.446   2.214
 9082W        W77487  24.230  16.777   2.287
 9083W        W77488  33.537  15.882  14.419
 9084W        W77489  12.137  33.175  14.385
 9085W        W77490  40.468  29.524  12.092
 9086W        W77491   5.718   3.463  11.604
 9087W        W77492  36.058  17.613  10.445
 9088W        W77493   1.270  10.659  14.367
 9089W        W77494  40.192  32.095  10.785
 9090W        W77495  36.760  28.296  10.159
 9091W        W77496  18.839   7.311  10.769
 9092W        W77497  43.526  33.913  14.953
 9093W        W77498   5.973  42.426  14.288
 9094W        W77499  10.648   9.681  14.445
 9095W        W77500  25.367  21.902  12.984
 9096W        W77501   7.026   4.596   2.957
 9097W        W77502  42.895  13.222   3.355
 9098W        W77503  44.898  36.752   5.049
 9099W        W77504  15.594  27.180   0.873
 9100W        W77505  19.828   9.899   4.984
 9101W        W77506  17.289  29.655   4.188
 9102W        W77507  44.542  32.206   1.844
 9103W        W77508  15.608  10.016   0.289
 9104W        W77509  17.464  30.493   9.850
 9105W        W77510  44.225   1.782  12.082
 9106W        W77511   3.277  44.343  10.462
 9107W        W77512  21.768   1.911  13.340
 9108W        W77513  24.953  23.532   3.701
 9109W        W77514   9.929  16.637  11.610
 9110W        W77515  13.629   2.194   2.411
 9111W        W77516  26.051   6.706   0.918
 9112W        W77517  39.817  24.687   1.949
 9113W        W77518  40.480  40.429   0.776
 9114W        W77519   2.209  12.110   2.867
 9115W        W77520  30.573   7.471  11.988
 9116W        W77521   4.974  44.798   0.437
 9117W        W77522  42.729  28.692  13.800
 9118W        W77523  17.079  13.721  10.703
 9119W        W77524   7.381  25.044  14.826
 9120W        W77525  43.588  20.190  10.631
 9121W        W77526  38.743  10.674   1.153
 9122W        W77527  29.202  32.606  13.256
 9123W        W77528  43.540  30.098   1.794
 9124W        W77529  10.514  19.574  14.048
 9125W        W77530  43.055  43.930   2.228
 9126W        W77531  11.630  17.062  11.899
 9127W        W77532  39.847  43.764   0.363
 9128W        W77533  42.744  30.585  11.786
 9129W        W77534   7.896  42.401  11.180
 9130W        W77535   2.383  36.549  12.368
 9131W        W77536  43.155   9.907  13.887
 9132W        W77537  12.328  38.790   0.949
 9133W        W77538  40.073  20.628  10.625
 9134W        W77539  41.750  44.470   3.090
 9135W        W77540  42.611   5.394  14.506
 9136W        W77541  37.451  33.661  11.281
 9137W        W77542  21.543   9.955   1.888
 9138W        W77543  19.728  30.406  14.239
 9139W        W77544  28.202  29.537  14.350
 9140W        W77545   5.710  33.182  14.349
 9141W        W77546  41.735  42.388   3.649
 9142W        W77547  25.084  35.326   2.312
 9143W        W77548   1.694  36.488  12.928
 9144W        W77549  10.812  19.527   3.825
 9145W        W77550   9.251  43.411  10.626
 9146W        W77551  18.252   1.303  10.649
 9147W        W77552  27.180  22.591   3.633
 9148W        W77553  38.800  35.502  10.760
 9149W        W77554  18.588  23.504  13.939
 9150W        W77555  42.845  16.128   2.730
 9151W        W77556   4.886  13.713  12.974
 9152W        W77557  39.235  39.042   0.492
 9153W        W77558  32.179   0.101   4.310
 9154W        W77559  31.199  12.334  13.885
 9155W        W77560  16.192  24.435   2.227
 9156W        W77561  16.810  35.795  13.090
 9157W        W77562   5.196  41.904  12.525
 9158W        W77563  44.271  43.137   4.163
 9159W        W77564  23.374  18.607  12.218
 9160W        W77565  12.561  10.108  14.417
 9161W        W77566  34.321   7.784   2.406
 9162W        W77567  29.164  12.729  13.742
 9163W        W77568  35.054  42.555  14.339
 9164W        W77569  20.777  31.898  10.605
 9165W        W77570  22.192  44.281   0.647
 9166W        W77571  24.538  43.175   2.157
 9167W        W77572  22.161  37.788   1.029
 9168W        W77573  10.920  25.079  14.311
 9169W        W77574  34.670   0.661  11.680
 9170W        W77575   4.525  24.215   3.379
 9171W        W77576   8.426  41.280  10.576
 9172W        W77577  11.632  17.788  10.597
 9173W        W77578  15.090  40.799  14.477
 9174W        W77579   3.574  13.674  12.647
 9175W        W77580  26.042  21.669  13.820
 9176W        W77581  37.690  30.255  12.501
 9177W        W77582  20.242  38.332   0.307
 9178W        W77583   3.855  28.500  11.450
 9179W        W77584  37.109  20.013  14.556
 9180W        W77585   7.074  19.640   0.256
 9181W        W77586  10.318  43.349   4.677
 9182W        W77587  11.891  24.162  12.532
 9183W        W77588  36.821   7.264  11.984
 9184W        W77589  42.448  26.937   2.479
 9185W        W77590  10.142   6.278  10.486
 9186W        W77591  22.140  29.214  13.823
 9187W        W77592  18.235   4.313  11.603
 9188W        W77593   8.231  41.766  10.846
 9189W        W77594  24.238  11.599  12.841
 9190W        W77595  12.205  22.564   0.415
 9191W        W77596  43.049  21.264  10.643
 9192W        W77597  40.317  19.574  12.334
 9193W        W77598  12.884   3.564   9.630
 9194W        W77599  31.585   5.663   4.520
 9195W        W77600  12.063  17.101  14.921
 9196W        W77601  23.134  12.888   4.760
 9197W        W77602  33.486  24.394   2.429
 9198W        W77603  17.284   1.076  14.851
 9199W        W77604   3.714  44.021  14.567
 9200W        W77605  38.577  34.637   3.774
 9201W        W77606  39.844   9.124  11.630
 9202W        W77607  44.958  40.246  11.143
 9203W        W77608  35.953  36.839   3.246
 9204W        W77609  19.308  12.407   3.369
 9205W        W77610   9.099   0.919  13.495
 9206W        W77611   7.292  11.758   2.264
 9207W        W77612  23.801  39.419  11.015
 9208W        W77613  38.578  22.214  14.465
 9209W        W77614   0.317  21.539  13.262
 9210W        W77615   5.862  37.888   0.848
 9211W        W77616  39.330  14.625  13.948
 9212W        W77617  20.598  15.719  13.959
 9213W        W77618  33.414  28.756  12.932
 9214W        W77619  39.129  16.806  11.106
 9215W        W77620  27.974  21.523  14.807
 9216W        W77621  11.068   2.535  14.864
 9217W        W77622  14.178   4.295   3.343
 9218W        W77623  13.075  23.121  13.887
 9219W        W77624  42.529  35.890   2.842
 9220W        W77625  16.340  44.489  14.293
 9221W        W77626   6.319  16.039  10.719
 9222W        W77627  41.295  16.156  14.354
 9223W        W77628  20.510  29.618  12.005
 9224W        W77629  12.384  17.063  13.017
 9225W        W77630  41.113   8.291   0.180
 9226W        W77631  23.953  19.622  10.506
 9227W        W77632  28.090  26.598   2.871
 9228W        W77633   5.721  10.117  12.535
 9229W        W77634  39.870  30.225  11.239
 9230W        W77635  44.660  18.249  14.983
 9231W        W77636  43.236   9.139  11.539
 9232W        W77637  37.808   1.417   4.635
 9233W        W77638  11.062  40.777  12.899
 9234W        W77639  42.412  32.656  14.198
 9235W        W77640  19.724  40.766   2.880
 9236W        W77641  38.891  26.398  14.407
 9237W        W77642  27.958   0.433   0.255
 9238W        W77643  34.397   6.645  11.622
 9239W        W77644   5.302  31.881  12.430
 9240W        W77645  11.475   0.419  11.957
 9241W        W77646  37.872   3.415   3.140
 9242W        W77647  33.001   6.067   4.117
 9243W        W77648  15.174  37.574  12.707
 9244W        W77649  20.028  32.578   1.446
 9245W        W77650  35.043   6.249   3.986
 9246W        W77651  42.413  21.636   0.744
 9247W        W77652   2.748  16.062   4.602
 9248W        W77653  22.469  11.791  10.250
 9249W        W77654  37.485   3.247   0.479
 9250W        W77655   1.758  30.396  11.661
 9251W        W77656  22.295  26.260   1.432
 9252W        W77657   8.913  17.092   1.366
 9253W        W77658  15.305  41.387   2.775
 9254W        W77659  14.789  11.629   4.579
 9255W        W77660  23.076  25.477  14.335
 9256W        W77661  11.219  24.681   4.173
 9257W        W77662  38.494  18.779   0.586
 9258W        W77663  28.201  20.311  11.170
 9259W        W77664   7.825  37.487   2.066
 9260W        W77665  12.090  25.669   1.127
 9261W        W77666  37.809  42.293  14.520
 9262W        W77667  34.605  42.097  12.569
 9263W        W77668  24.519  35.947   2.372
 9264W        W77669  11.628   2.378  13.772
 9265W        W77670  17.733  35.110   3.651
 9266W        W77671  32.017  10.651  11.745
 9267W        W77672  14.709   1.285   0.877
 9268W        W77673  13.787  10.565  12.135
 9269W        W77674  10.113   8.864  13.972
 9270W        W77675  39.383  11.534   2.275
 9271W        W77676  14.048  41.162  13.824
 9272W        W77677  26.036  14.302   4.151
 9273W        W77678  20.692  40.959  14.840
 9274W        W77679   8.891  32.473   4.349
 9275W        W77680  19.548  22.846   3.924
 9276W        W77681  31.872  41.503   0.504
 9277W        W77682  17.715  34.159  11.993
 9278W        W77683  41.967  40.302   5.392
 9279W        W77684  36.697  28.539  11.904
 9280W        W77685  39.791  11.209   3.063
 9281W        W77686  27.062  42.462  11.114
 9282W        W77687  39.962  25.728  13.044
 9283W        W77688  37.134  32.893  14.348
 9284W        W77689  30.555  41.773   2.382
 9285W        W77690   8.970  20.250   1.340
 9286W        W77691  14.102  44.727   1.253
 9287W        W77692   4.194  34.666   2.947
 9288W        W77693  33.551  17.753  12.114
 9289W        W77694  33.819  13.841   0.708
 9290W        W77695  21.985  19.956  11.002
 9291W        W77696  35.131  26.714  14.836
 9292W        W77697  28.905  16.029   4.004
 9293W        W77698  29.749  14.138   1.307
 9294W        W77699  42.299  22.959  12.399
 9295W        W77700  15.856  12.137  12.988
 9296W        W77701  21.988  17.097   4.650
 9297W        W77702  27.082  44.821  12.645
 9298W        W77703  39.327   9.862   3.484
 9299W        W77704  18.560  44.525  11.586
 9300W        W77705  26.893  34.118   4.613
 9301W        W77706   6.659  14.937  12.587
 9302W        W77707  23.252  41.075  13.770
 9303W        W77708  36.001  12.161  14.886
 9304W        W77709   1.040  14.751  13.088
 9305W        W77710  33.346  27.106   3.597
 9306W        W77711   5.749  22.076   2.267
 9307W        W77712  30.850  31.937   0.962
 9308W        W77713  24.161  40.056  11.957
 9309W        W77714   6.104   7.851   1.509
 9310W        W77715   9.855   1.398  11.660
 9311W        W77716  37.202  40.430   0.165
 9312W        W77717  37.766   3.850   2.914
 9313W        W77718  16.665  38.332  10.840
 9314W        W77719  12.107   0.953  12.523
 9315W        W77720  29.346   1.064  13.421
 9316W        W77721  44.889  22.507   3.542
 9317W        W77722  34.500  32.164  12.541
 9318W        W77723  44.949  26.965   0.865
 9319W        W77724  25.749  12.879  12.390
 9320W        W77725  29.927  22.805  11.037
 9321W        W77726   9.226  30.623   4.216
 9322W        W77727  43.542  13.712   1.824
 9323W        W77728   7.309  37.369  11.993
 9324W        W77729  21.639  29.448   4.288
 9325W        W77730   1.167  42.952   3.929
 9326W        W77731   6.788   2.869   3.101
 9327W        W77732  13.606  36.145  13.147
 9328W        W77733  14.334  16.659   1.155
 9329W        W77734  34.286   4.861   4.818
 9330W        W77735  32.630  29.191   3.135
 9331W        W77736  43.409  24.057  12.037
 9332W        W77737  31.133  15.802   3.733
 9333W        W77738  43.700  28.007   1.808
 9334W        W77739  11.891  19.733  13.544
 9335W        W77740  29.229   1.872   4.383
 9336W        W77741  24.757   4.053   3.285
 9337W        W77742  37.104  23.705   2.218
 9338W        W77743  17.976  27.620   2.375
 9339W        W77744  15.302  21.302   3.219
 9340W        W77745  17.668  31.127  11.937
 9341W        W77746  28.541  24.986   4.897
 9342W        W77747  23.265  25.664   0.734
 9343W        W77748  18.363   8.259   1.369
 9344W        W77749   5.750  33.804   2.769
 9345W        W77750  40.040   0.241  14.491
 9346W        W77751  11.724  26.838   3.442
 9347W        W77752   8.911  36.884  12.589
 9348W        W77753  28.780  42.024  14.384
 9349W        W77754  35.384  15.727   2.717
 9350W        W77755   1.790  44.810  14.380
 9351W        W77756  31.713  21.540   2.690
 9352W        W77757  15.251  28.271   2.852
 9353W        W77758  39.878  36.848   1.002
 9354W        W77759  28.387  38.554  14.012
 9355W        W77760  14.303  25.470   0.385
 9356W        W77761  29.599  43.777  10.712
 9357W        W77762  10.732   8.458  10.691
 9358W        W77763   8.621  23.108  14.840
 9359W        W77764   9.339   5.938   4.866
 9360W        W77765  18.175   2.462   2.848
 9361W        W77766  43.830   5.680  10.862
 9362W        W77767  42.394   4.011  11.518
 9363W        W77768   6.399   0.508   2.732
 9364W        W77769  15.802  20.795   0.967
 9365W        W77770  13.384  14.208   2.353
 9366W        W77771   7.830  25.558   4.182
 9367W        W77772  23.344  42.308  11.283
 9368W        W77773  39.483  36.086   0.869
 9369W        W77774  40.812  24.771  13.799
 9370W        W77775   3.746  35.179   0.353
 9371W        W77776  40.117  14.222  13.870
 9372W        W77777  34.905  28.499  14.497
 9373W        W77778  24.079   8.252  13.730
 9374W        W77779  22.273  17.092  14.996
 9375W        W77780  27.040  10.606  11.603
 9376W        W77781  21.256  25.785   0.960
 9377W        W77782  15.557  11.616   3.577
 9378W        W77783  36.029   5.464   0.060
 9379W        W77784  33.591  36.332   4.659
 9380W        W77785  33.663  31.753   3.769
 9381W        W77786   9.749  17.510   4.650
 9382W        W77787  19.920  14.648   4.249
 9383W        W77788  37.942  37.256  10.161
 9384W        W77789  11.845  36.607  14.718
 9385W        W77790   1.350   0.580   2.390
 9386W        W77791  23.298  34.354  14.832
 9387W        W77792  20.793  26.923   2.325
 9388W        W77793  30.760   4.965   0.457
 9389W        W77794  15.871   3.712  11.076
 9390W        W77795  12.410  33.172  13.918
 9391W        W77796  29.130   1.770  12.902
 9392W        W77797  31.874  39.983   1.279
 9393W        W77798  21.112  19.297  13.048
 9394W        W77799  13.594  11.178  11.395
 9395W        W77800   8.985   7.254   2.466
 9396W        W77801  31.977  24.428   0.994
 9397W        W77802  32.648  44.443  12.387
 9398W        W77803  35.618   0.493  13.695
 9399W        W77804   8.300  36.180  12.505
 9400W        W77805  21.100  44.818   1.966
 9401W        W77806  17.619  25.601   3.626
 9402W        W77807  43.164  25.498   5.032
 9403W        W77808   0.244   7.413   5.433
 9404W        W77809  32.567  39.488   4.521
 9405W        W77810  23.004  14.600  14.031
 9406W        W77811   0.805  23.466   3.796
 9407W        W77812  16.012  29.553   0.733
 9408W        W77813   4.746  38.343  12.848
 9409W        W77814  42.204   3.770   3.835
 9410W        W77815  42.371  44.751   0.314
 9411W        W77816   6.721  16.084   2.796
 9412W        W77817  31.382   7.040  12.267
 9413W        W77818  29.659   3.416  13.853
 9414W        W77819  26.177  12.350   4.745
 9415W        W77820   1.997  22.665  14.810
 9416W        W77821  14.307   9.346  11.398
 9417W        W77822  40.447  33.906   4.074
 9418W        W77823  26.843   0.949   5.104
 9419W        W77824   9.876  36.843  13.032
 9420W        W77825  11.446   8.141  11.103
 9421W        W77826   9.004   8.210   4.503
 9422W        W77827  11.856  44.786  10.742
 9423W        W77828  44.020  10.792  10.854
 9424W        W77829  19.286  43.884   1.045
 9425W        W77830  32.972  14.008   0.863
 9426W        W77831  24.443  43.982   3.704
 9427W        W77832  16.353   3.285   3.350
 9428W        W77833  22.865  33.891   2.860
 9429W        W77834  14.412  19.388   4.844
 9430W        W77835  30.615  43.700  10.659
 9431W        W77836  15.411   9.151  12.172
 9432W        W77837   9.692  35.621  13.478
 9433W        W77838  32.193  37.714   1.875
 9434W        W77839  30.529  36.862  12.148
 9435W        W77840  38.624  17.191  11.356
 9436W        W77841  11.798   8.699  11.732
 9437W        W77842  32.113  18.671  10.612
 9438W        W77843  26.385  28.294   1.777
 9439W        W77844  23.013  39.498  10.651
 9440W        W77845  42.367   2.404  11.771
 9441W        W77846   4.950  25.046  13.250
 9442W        W77847  17.178  20.298  12.060
 9443W        W77848  23.474   7.388   0.442
 9444W        W77849  12.246  21.658  11.484
 9445W        W77850  24.180  18.892   2.769
 9446W        W77851  34.409  39.980  13.353
 9447W        W77852  38.737  19.142  10.367
 9448W        W77853  23.335  21.891  11.917
 9449W        W77854   9.891  27.960  11.594
 9450W        W77855  32.407  35.430   2.681
 9451W        W77856  27.434  38.617  11.847
 9452W        W77857  15.546   1.545  12.443
 9453W        W77858  15.424  31.295  11.471
 9454W        W77859  32.342  36.860   3.727
 9455W        W77860  13.053  21.720  13.442
 9456W        W77861  38.849  33.878   1.807
 9457W        W77862  39.006  44.314   2.651
 9458W        W77863  11.161  22.735  11.907
 9459W        W77864  40.271  10.178   3.707
 9460W        W77865   8.539  23.855   1.331
 9461W        W77866   2.030  22.716  10.546
 9462W        W77867  12.354   6.344  12.683
 9463W        W77868  34.782   8.664   4.083
 9464W        W77869   0.863  22.138   2.964
 9465W        W77870  27.783  42.164  10.720
 9466W        W77871   3.228  24.492   4.205
 9467W        W77872  22.167  32.994  10.614
 9468W        W77873  11.763  21.153   1.310
 9469W        W77874  27.538  44.213   4.108
 9470W        W77875  20.191   1.355  13.926
 9471W        W77876  32.428   3.295  10.216
 9472W        W77877  28.242  42.939   2.025
 9473W        W77878  10.318  31.195   0.425
 9474W        W77879  18.708   7.864  13.829
 9475W        W77880  35.439  11.206  11.193
 9476W        W77881  24.960  14.644  10.749
 9477W        W77882  44.256  43.194  10.754
 9478W        W77883  39.497  32.866  14.973
 9479W        W77884   8.316  25.451  10.711
 9480W        W77885  36.978  16.843   3.582
 9481W        W77886  25.614  39.588   3.207
 9482W        W77887   9.865   3.375   4.606
 9483W        W77888  22.259  19.964  11.479
 9484W        W77889  11.692  25.996   1.347
 9485W        W77890  38.336   2.873  10.581
 9486W        W77891  24.074  20.017   0.934
 9487W        W77892  22.321   7.272   0.748
 9488W        W77893  16.143  26.996   0.226
 9489W        W77894  18.687  40.850  14.633
 9490W        W77895  38.899  43.052   0.263
 9491W        W77896   1.506  27.556   0.880
 9492W        W77897  31.276   7.810  12.162
 9493W        W77898  38.518  35.765   1.307
 9494W        W77899  16.722   3.053  14.392
 9495W        W77900  40.019  24.806   4.824
 9496W        W77901  29.486  44.446   0.974
 9497W        W77902  13.737  44.771  10.626
 9498W        W77903  10.324   7.851   0.416
 9499W        W77904  15.826  30.008   4.327
 9500W        W77905  35.357  13.585   3.205
 9501W        W77906  32.300  41.382  12.641
 9502W        W77907  36.112  12.364   4.523
 9503W        W77908  44.382  42.168   0.699
 9504W        W77909  31.676  24.200   3.626
 9505W        W77910  37.151  24.628  11.194
 9506W        W77911   8.912   1.719  11.924
 9507W        W77912  16.155   9.165   1.167
 9508W        W77913  20.526  39.758  11.736
 9509W        W77914   7.764  37.326   4.335
 9510W        W77915  16.146   2.143   9.784
 9511W        W77916  16.132  36.116  12.921
 9512W        W77917   3.847   7.937   5.017
 9513W        W77918  42.173  28.266   5.095
 9514W        W77919  16.220  23.753   3.433
 9515W        W77920  34.525  34.099   4.442
 9516W        W77921  42.950  28.787   0.926
 9517W        W77922  37.958   1.586  14.526
 9518W        W77923  31.380   4.239  10.393
 9519W        W77924   0.762  26.789   2.544
 9520W        W77925  34.956  24.042   3.791
 9521W        W77926  30.968  16.241   2.422
 9522W        W77927  16.035  25.706   0.946
 9523W        W77928  39.460   6.771   2.187
 9524W        W77929  26.963   8.315   1.215
 9525W        W77930  34.375   5.853   0.347
 9526W        W77931  22.202  16.588  10.779
 9527W        W77932   1.022  24.010  12.492
 9528W        W77933  10.229  12.238  14.796
 9529W        W77934  11.131  11.418  11.973
 9530W        W77935   5.684  41.312   2.176
 9531W        W77936  30.090  14.082  11.928
 9532W        W77937  13.252  36.259   4.462
 9533W        W77938  10.463  12.112  11.611
 9534W        W77939  40.678  41.472   0.387
 9535W        W77940  29.610  22.100   2.778
 9536W        W77941  30.255  13.275  10.425
 9537W        W77942  37.093   9.276   4.541
 9538W        W77943  11.240  39.335   4.235
 9539W        W77944  38.637  30.598  12.434
 9540W        W77945  27.655  33.477   1.348
 9541W        W77946  33.833   8.731   3.217
 9542W        W77947  41.089  31.403   2.934
 9543W        W77948   0.500  14.567   3.301
 9544W        W77949   7.634   9.484   1.724
 9545W        W77950  13.030  40.274  13.884
 9546W        W77951  30.556   6.577  14.682
 9547W        W77952  12.331  10.379   3.256
 9548W        W77953  21.138  15.973  11.983
 9549W        W77954  41.331  23.102  14.612
 9550W        W77955  38.302  26.951   0.034
 9551W        W77956  44.244  19.799   3.682
 9552W        W77957  19.808   9.889  10.210
 9553W        W77958  43.062  34.596   1.037
 9554W        W77959   4.752  28.359  12.978
 9555W        W77960  13.931  33.940  11.141
 9556W        W77961   9.361  36.883  12.888
 9557W        W77962  39.858  15.883   1.344
 9558W        W77963  38.138  27.108   2.311
 9559W        W77964  15.792  19.285   4.902
 9560W        W77965  20.683  39.313  14.895
 9561W        W77966  30.425  16.290   4.063
 9562W        W77967  37.710  36.547  14.894
 9563W        W77968  25.281  13.050   0.461
 9564W        W77969  11.471   3.389   1.716
 9565W        W77970  30.975  27.943  11.603
 9566W        W77971  19.897  30.394  12.353
 9567W        W77972   1.491  32.442  12.485
 9568W        W77973  44.235  42.853  11.148
 9569W        W77974  44.100   3.165  12.044
 9570W        W77975   9.395  18.982  11.519
 9571W        W77976   3.681  31.238   0.248
 9572W        W77977  14.692  14.440   5.314
 9573W        W77978  19.878  30.492  13.572
 9574W        W77979   6.816   5.871  10.566
 9575W        W77980  25.970  27.496   1.649
 9576W        W77981  17.487  25.521   4.634
 9577W        W77982  39.720  27.288  12.604
 9578W        W77983  13.664  24.477  14.008
 9579W        W77984  25.089  25.025   2.707
 9580W        W77985  23.285  43.326   1.372
 9581W        W77986   6.221  37.065  13.193
 9582W        W77987   1.049  10.203  11.330
 9583W        W77988   5.169  32.091   3.323
 9584W        W77989   4.797  25.561   4.422
 9585W        W77990  33.658   9.383  13.768
 9586W        W77991  31.072   9.401   0.433
 9587W        W77992  18.651  22.157  11.107
 9588W        W77993  23.001  32.060  12.575
 9589W        W77994   9.915  27.941   0.369
 9590W        W77995  32.589   8.755   1.009
 9591W        W77996  32.360  18.569   1.921
 9592W        W77997  44.272  19.614  13.284
 9593W        W77998   1.227   8.030   2.602
 9594W        W77999  38.014  38.804  11.945
 9595W        W78000  35.420  24.164   3.975
 9596W        W78001  24.680  44.120  14.762
 9597W        W78002  36.016  43.314   1.188
 9598W        W78003   9.773  17.129  13.757
 9599W        W78004   5.826  15.717   1.738
 9600W        W78005  20.740   0.027   4.531
 9601W        W78006  13.839  13.938   2.334
 9602W        W78007  40.213  36.337   0.294
 9603W        W78008  21.293  41.364  11.128
 9604W        W78009  27.413  18.364   5.074
 9605W        W78010   7.817  11.511   2.412
 9606W        W78011  14.259  10.850  12.810
 9607W        W78012   2.318   6.731   1.372
 9608W        W78013   6.968  44.525  14.271
 9609W        W78014  23.886   5.800   3.478
 9610W        W78015  23.605  43.585   4.456
 9611W        W78016  26.168   6.406   3.260
 9612W        W78017  39.011   8.281  11.985
 9613W        W78018  41.445   8.892  11.677
 9614W        W78019   9.158  25.159  13.571
 9615W        W78020  42.538  12.751   2.618
 9616W        W78021  40.407  30.166  11.606
 9617W        W78022  18.500  35.738   3.671
 9618W        W78023  21.025  11.792   1.237
 9619W        W78024  18.233  24.120   0.314
 9620W        W78025  19.762  40.064  12.363
 9621W        W78026  13.227   3.107  12.609
 9622W        W78027   0.458   5.732  11.179
 9623W        W78028   4.221  27.035  13.900
 9624W        W78029  24.043  36.376  10.736
 9625W        W78030  14.083  34.356   2.419
 9626W        W78031  38.437  40.198  14.013
 9627W        W78032   6.721  24.818  11.451
 9628W        W78033  23.592  28.901   2.974
 9629W        W78034  14.661  41.543  13.138
 9630W        W78035  11.572   2.607  10.199
 9631W        W78036   7.802  40.041  11.236
 9632W        W78037  17.806   8.301   0.046
 9633W        W78038  21.054   7.124  11.554
 9634W        W78039  17.477  21.248  12.591
 9635W        W78040  40.327  13.041  13.351
 9636W        W78041  43.335  17.695   3.090
 9637W        W78042   3.996   2.368  14.996
 9638W        W78043  23.947   9.263   0.421
 9639W        W78044   5.268  20.501   2.910
 9640W        W78045  14.370  41.407   0.944
 9641W        W78046   6.330  17.026  14.152
 9642W        W78047  16.781  16.326   0.159
 9643W        W78048  24.863  23.912  14.931
 9644W        W78049  40.555  39.046   2.083
 9645W        W78050  31.093  22.009  13.103
 9646W        W78051  18.046  40.012  12.202
 9647W        W78052  40.541  26.424   0.725
 9648W        W78053  27.707  11.199   3.643
 9649W        W78054   8.093  29.920  13.006
 9650W        W78055  14.202  39.405  12.650
 9651W        W78056   8.309  29.841   0.722
 9652W        W78057  35.859  38.868   2.193
 9653W        W78058  39.428  37.985  11.508
 9654W        W78059  18.129  43.891  10.920
 9655W        W78060  14.276  27.685   4.190
 9656W        W78061   0.981  37.423  13.329
 9657W        W78062  40.443  38.821   3.516
 9658W        W78063  15.797  23.944   3.157
 9659W        W78064  39.898  17.515  13.836
 9660W        W78065   7.516  23.582  10.716
 9661W        W78066  41.917  23.168  12.776
 9662W        W78067  37.885  37.833  14.472
 9663W        W78068  35.303  21.729   1.056
 9664W        W78069  29.965  44.987   2.180
 9665W        W78070  38.969  30.300  14.656
 9666W        W78071  26.072   9.869  13.045
 9667W        W78072  25.884  44.182   1.974
 9668W        W78073  21.118  15.859  13.942
 9669W        W78074  14.255  40.298   0.360
 9670W        W78075  25.090  17.301   0.498
 9671W        W78076   6.332  30.829   0.453
 9672W        W78077  15.184  27.605  11.226
 9673W        W78078  18.997  44.397   0.746
 9674W        W78079  21.039  16.675   4.360
 9675W        W78080  29.367  42.816  10.706
 9676W        W78081  17.964  21.401  12.053
 9677W        W78082  16.368  28.661  13.799
 9678W        W78083   4.152  15.043   0.707
 9679W        W78084   0.286  39.944  11.842
 9680W        W78085   9.164  42.343  10.803
 9681W        W78086   8.909  20.264  14.869
 9682W        W78087  32.837  39.881   0.177
 9683W        W78088   1.026  20.018   0.265
 9684W        W78089  31.154  40.939  14.435
 9685W        W78090  41.811  24.444   1.775
 9686W        W78091   4.602  25.075   9.912
 9687W        W78092   1.832   8.955   2.223
 9688W        W78093  40.749  23.723   1.783
 9689W        W78094  37.115   1.410  12.107
 9690W        W78095  39.967  27.279   2.349
 9691W        W78096  38.606  41.830   0.756
 9692W        W78097  38.717  37.923   3.598
 9693W        W78098  28.712  23.241   1.805
 9694W        W78099   7.121   2.038   2.191
 9695W        W78100  21.319  24.216  13.281
 9696W        W78101  44.787   2.126  12.546
 9697W        W78102   4.901   8.374  12.656
 9698W        W78103  29.882   9.658   1.407
 9699W        W78104   4.759  10.678  13.068
 9700W        W78105  25.734  32.001   0.554
 9701W        W78106  15.797  21.564  12.040
 9702W        W78107  23.710  28.398  12.000
 9703W        W78108  18.609  43.960  13.091
 9704W        W78109   7.681  25.948   2.256
 9705W        W78110  14.980   3.375   5.555
 9706W        W78111  19.679   3.052  14.840
 9707W        W78112   8.694  13.850  10.508
 9708W        W78113  21.091   2.274  11.491
 9709W        W78114  11.455  15.790  14.488
 9710W        W78115  35.008  15.376   1.261
 9711W        W78116  43.625  41.603  13.461
 9712W        W78117  35.067   2.029  10.624
 9713W        W78118  38.938  42.700  12.903
 9714W        W78119  34.453  11.308   4.539
 9715W        W78120   9.779  33.581  11.218
 9716W        W78121   9.383  33.861   1.849
 9717W        W78122   1.938   8.940  10.349
 9718W        W78123  40.982  26.242  14.916
 9719W        W78124  40.035  37.448   2.670
 9720W        W78125  15.110  14.850  12.501
 9721W        W78126  37.627  38.987  14.801
 9722W        W78127   8.662  42.663   3.696
 9723W        W78128  11.928  25.287   4.010
 9724W        W78129  27.543  40.055  11.335
 9725W        W78130  34.358  31.664  13.602
 9726W        W78131   7.214  18.057  12.666
 9727W        W78132  23.621  24.958  14.733
 9728W        W78133   3.873  35.874   2.452
 9729W        W78134  28.128  20.029   3.646
 9730W        W78135   4.210  30.623  11.530
 9731W        W78136  12.257  18.049   4.675
 9732W        W78137  39.299  36.289   0.398
 9733W        W78138   8.447  22.566  13.098
 9734W        W78139  36.799  41.110   2.783
 9735W        W78140  20.370  31.431   2.449
 9736W        W78141  20.310  12.362   3.130
 9737W        W78142  42.055  43.478   1.216
 9738W        W78143  38.965  16.364   2.124
 9739W        W78144   1.792  10.210  10.196
 9740W        W78145  14.487   2.479  11.106
 9741W        W78146  10.461   5.185   2.427
 9742W        W78147  23.874  16.406  10.127
 9743W        W78148   5.729   9.799   1.686
 9744W        W78149  35.489  26.970  13.066
 9745W        W78150  35.754  39.272   0.285
 9746W        W78151  15.507  31.577   2.552
 9747W        W78152  40.385  16.690   3.754
 9748W        W78153  33.036  39.661  12.603
 9749W        W78154   9.386  28.513   1.135
 9750W        W78155  26.568  18.508   2.843
 9751W        W78156  32.573   9.252   1.184
 9752W        W78157  14.512  14.074  13.993
 9753W        W78158   4.221  34.399   0.295
 9754W        W78159   6.201  14.335   4.553
 9755W        W78160  25.701  34.288   0.864
 9756W        W78161   6.687   2.497   0.563
 9757W        W78162  27.558  43.358  11.237
 9758W        W78163  21.540   7.784   1.149
 9759W        W78164  27.380   2.202  13.336
 9760W        W78165   5.647   0.985  11.917
 9761W        W78166   3.951  26.671   1.390
 9762W        W78167  14.297  20.703  12.797
 9763W        W78168   7.262  14.603  13.580
 9764W        W78169   8.250   3.429   0.253
 9765W        W78170  24.345  20.119   1.755
 9766W        W78171  11.377  42.452   4.386
 9767W        W78172  28.750  42.015  10.656
 9768W        W78173  21.542  38.861  14.789
 9769W        W78174  35.302  37.404   2.413
 9770W        W78175  32.879   8.634   0.083
 9771W        W78176  43.225  27.507  10.340
 9772W        W78177   1.194  27.762  10.657
 9773W        W78178  16.587  38.784   1.941
 9774W        W78179   1.024  26.524   1.601
 9775W        W78180  42.933  23.657   4.364
 9776W        W78181  26.529  24.562  13.735
 9777W        W78182  12.098  19.463   4.520
 9778W        W78183  15.607   9.875  13.446
 9779W        W78184  27.716   0.072  12.010
 9780W        W78185   0.047  35.590  13.364
 9781W        W78186  12.031  16.426   5.631
 9782W        W78187   6.742  38.622  11.494
 9783W        W78188  23.204   5.735   1.435
 9784W        W78189  25.198  42.667   2.602
 9785W        W78190  43.287   1.282  14.840
 9786W        W78191  31.176  18.484  14.889
 9787W        W78192  17.991  23.145  13.994
 9788W        W78193  40.342  27.031   1.042
 9789W        W78194  25.755  13.561  13.939
 9790W        W78195  19.308  28.385   3.364
 9791W        W78196  26.305  42.306  10.165
 9792W        W78197  26.237  42.902  13.955
 9793W        W78198  40.807  15.331  10.765
 9794W        W78199   3.423  12.086  13.708
 9795W        W78200  27.589  17.330   0.088
 9796W        W78201  37.459  23.739   4.271
 9797W        W78202  21.183   5.784   1.778
 9798W        W78203   7.200  14.244  13.227
 9799W        W78204  36.600  25.178   2.651
 9800W        W78205  27.968   5.465   4.246
 9801W        W78206  11.915  30.527  14.747
 9802W        W78207  26.416  40.457  13.033
 9803W        W78208  14.449  36.800   0.762
 9804W        W78209  20.016  16.353   0.295
 9805W        W78210  18.943  37.974  12.298
 9806W        W78211  22.729  35.408  12.045
 9807W        W78212  11.891  37.038   2.436
 9808W        W78213  31.369   0.068  12.647
 9809W        W78214   9.888  18.861   4.964
 9810W        W78215  12.948  32.343  14.877
 9811W        W78216  27.095   1.546  13.865
 9812W        W78217   3.475  44.188   0.028
 9813W        W78218  29.196   8.817  13.120
 9814W        W78219  20.417  21.394  10.426
 9815W        W78220  24.158  44.273   0.007
 9816W        W78221  27.215  19.157   4.714
 9817W        W78222  29.747  30.801  10.279
 9818W        W78223  17.300  11.195  12.598
 9819W        W78224  20.816   3.868  12.244
 9820W        W78225  15.958  12.353  11.241
 9821W        W78226  27.989  41.678  10.573
 9822W        W78227  39.096   4.468   4.474
 9823W        W78228  28.994  34.031  11.702
 9824W        W78229  38.835  14.632   3.582
 9825W        W78230  28.516  19.532   2.301
 9826W        W78231  22.190  31.287   1.310
 9827W        W78232  33.796  10.290  11.478
 9828W        W78233  30.556   1.286  11.267
 9829W        W78234  27.027  27.157   0.307
 9830W        W78235   8.258  38.901   3.471
 9831W        W78236  26.170  16.517   1.492
 9832W        W78237  31.891  26.605  12.695
 9833W        W78238  42.045   4.113  10.501
 9834W        W78239  19.073  17.876  14.709
 9835W        W78240  26.421  14.094   1.277
 9836W        W78241  23.699  33.923   0.896
 9837W        W78242  44.854  33.901  13.985
 9838W        W78243  30.523  20.612  10.732
 9839W        W78244  18.067  38.649  13.181
 9840W        W78245  27.989   7.529  12.998
 9841W        W78246  32.125  36.314  13.911
 9842W        W78247  33.485  41.603   3.749
 9843W        W78248   6.877  41.768  12.890
 9844W        W78249  18.146  43.754  13.436
 9845W        W78250  36.135  31.375  12.383
 9846W        W78251  43.474  42.668   0.888
 9847W        W78252  15.079  20.628  14.978
 9848W        W78253  23.248   7.338  14.516
 9849W        W78254   6.035  22.455  13.354
 9850W        W78255  17.982  15.750   1.527
 9851W        W78256  27.764  36.046  11.197
 9852W        W78257  31.719  42.290   2.745
 9853W        W78258   6.690  36.965   3.362
 9854W        W78259  39.331  11.108   0.061
 9855W        W78260  12.205   8.151  12.824
 9856W        W78261  36.093  23.579  11.023
 9857W        W78262  18.958   1.885  11.540
 9858W        W78263  33.588  10.469   2.383
 9859W        W78264  44.293  12.594   0.300
 9860W        W78265   8.619  43.092  13.556
 9861W        W78266  29.403  19.660  12.925
 9862W        W78267  41.851  26.211  14.907
 9863W        W78268  28.146  33.544  13.441
 9864W        W78269  14.656   9.210   5.527
 9865W        W78270  19.721  17.722   0.845
 9866W        W78271   2.685  41.787  13.955
 9867W        W78272   7.136   3.735  11.679
 9868W        W78273   7.336  10.708  11.229
 9869W        W78274  42.367  25.674  13.306
 9870W        W78275  34.933  26.175  10.683
 9871W        W78276  22.511  27.984  13.834
 9872W        W78277  22.116  16.042   4.342
 9873W        W78278  17.136  36.117   5.012
 9874W        W78279  40.019  36.377   2.853
 9875W        W78280  27.588   9.660   1.315
 9876W        W78281   7.251  42.409  10.608
 9877W        W78282  36.785   5.726  13.878
 9878W        W78283  43.855   3.984  14.899
 9879W        W78284  12.860  40.026   2.392
 9880W        W78285  26.743  31.729  11.624
 9881W        W78286  38.539  43.023  11.718
 9882W        W78287  35.993  30.242   4.097
 9883W        W78288  24.253   4.023  11.582
 9884W        W78289  27.876  43.342   1.973
 9885W        W78290  13.374  17.342  11.553
 9886W        W78291   8.834  17.599  12.446
 9887W        W78292   3.377  39.000  13.339
 9888W        W78293  37.010  17.970  12.397
 9889W        W78294  25.338  29.832  13.531
 9890W        W78295  32.373  14.288  13.831
 9891W        W78296  30.270  13.379   2.547
 9892W        W78297   9.937   8.389   0.769
 9893W        W78298  28.828  14.604  10.442
 9894W        W78299   6.214  27.617   4.111
 9895W        W78300  28.295   0.563  13.960
 9896W        W78301  44.128  17.203   0.329
 9897W        W78302   2.279   6.799   0.012
 9898W        W78303  29.577  38.345   1.244
 9899W        W78304  25.628  39.809   5.025
 9900W        W78305  14.092  29.985   4.526
 9901W        W78306  44.274  43.735  10.761
 9902W        W78307  18.682   2.310   0.025
 9903W        W78308  27.432  24.731   4.348
 9904W        W78309  32.773  35.393  10.505
 9905W        W78310  21.948   2.249  13.956
 9906W        W78311  34.813  44.879  12.118
 9907W        W78312  31.898  15.297   2.765
 9908W        W78313  24.040  24.655   4.930
 9909W        W78314  16.819   4.251  10.660
 9910W        W78315  24.710  28.702   1.329
 9911W        W78316  26.445  10.899   1.541
 9912W        W78317  31.046  22.835   0.843
 9913W        W78318  35.432  14.634   2.139
 9914W        W78319  36.147  43.857  14.526
 9915W        W78320   9.085  12.252   1.064
 9916W        W78321  34.976  23.017   0.400
 9917W        W78322  32.411   5.333  14.915
 9918W        W78323  13.764  36.420   3.821
 9919W        W78324  22.122  38.125   3.332
 9920W        W78325  21.007  36.485  13.776
 9921W        W78326  17.680  12.988  12.045
 9922W        W78327  34.980  24.518  11.636
 9923W        W78328  18.637   7.920   0.436
 9924W        W78329  43.760   0.903  12.209
 9925W        W78330   2.559  36.558  13.775
 9926W        W78331  10.248  21.632   2.270
 9927W        W78332  35.884   7.894  12.512
 9928W        W78333   4.903  25.234   1.662
 9929W        W78334   5.631   7.270  10.659
 9930W        W78335  39.381  17.207  14.498
 9931W        W78336  23.498  19.242  11.619
 9932W        W78337  18.718  19.274  11.637
 9933W        W78338   8.186   2.977   3.837
 9934W        W78339  14.309  37.427  14.031
 9935W        W78340   9.846   3.036  12.485
 9936W        W78341  30.363  38.459   3.836
 9937W        W78342  37.549  41.243  11.894
 9938W        W78343  13.203   4.842  10.533
 9939W        W78344   4.750   5.231  11.066
 9940W        W78345  31.030  44.748   2.693
 9941W        W78346  23.425   9.414  13.849
 9942W        W78347  26.964  37.845   0.855
 9943W        W78348  37.869  33.684  14.251
 9944W        W78349   7.130  20.215  10.478
 9945W        W78350  13.807   1.202   2.438
 9946W        W78351  14.285  24.131  14.944
 9947W        W78352  40.303  28.490   2.148
 9948W        W78353  36.337   7.064   3.249
 9949W        W78354  31.676  18.585  14.147
 9950W        W78355  23.900  40.441   4.279
 9951W        W78356  19.477   5.402   3.578
 9952W        W78357  36.960  27.386  14.714
 9953W        W78358  30.811  17.266   2.553
 9954W        W78359   8.393   4.707  12.995
 9955W        W78360  31.964  25.984   0.811
 9956W        W78361   4.915  21.307  14.956
 9957W        W78362  39.239   0.038  10.560
 9958W        W78363  41.938  17.696  13.438
 9959W        W78364  17.340  35.445   0.432
 9960W        W78365   5.961  30.535  13.963
 9961W        W78366  21.004  29.116  14.738
 9962W        W78367  14.161  23.441   1.209
 9963W        W78368   9.635  19.247   4.065
 9964W        W78369  15.634  20.790  13.188
 9965W        W78370  42.623  22.398  12.487
 9966W        W78371  32.263  32.816   2.286
 9967W        W78372  21.779  12.748  14.965
 9968W        W78373   6.420   6.794   1.452
 9969W        W78374  20.812   2.913  13.324
 9970W        W78375  18.716  20.081  12.082
 9971W        W78376  30.731  20.132  10.653
 9972W        W78377  17.868  24.092  12.850
 9973W        W78378  22.334  29.326  12.530
 9974W        W78379  24.183  29.864  14.516
 9975W        W78380   2.993  28.146   2.655
 9976W        W78381   0.057   4.759   1.250
 9977W        W78382  36.085  40.442  13.865
 9978W        W78383  21.824  26.485  10.738
 9979W        W78384  11.781   1.963   0.912
 9980W        W78385  28.982  28.618  14.905
 9981W        W78386  35.909   1.413   3.448
 9982W        W78387  29.507  44.624  13.940
 9983W        W78388  37.022  16.064  11.604
 9984W        W78389   8.046  34.867   0.885
 9985W        W78390   6.100  15.228   2.358
 9986W        W78391   4.998  19.512   2.756
 9987W        W78392  18.597   2.950  12.103
 9988W        W78393   1.771  11.414  14.952
 9989W        W78394  38.879  22.524   5.025
 9990W        W78395  28.591  33.738   3.332
 9991W        W78396  24.415  11.723   0.488
 9992W        W78397  41.476  28.946  13.436
 9993W        W78398  14.128  35.406   3.227
 9994W        W78399  13.845  17.756  11.139
 9995W        W78400  24.056  34.604  11.163
 9996W        W78401  29.047  27.160  12.863
 9997W        W78402  40.414   3.320   2.079
 9998W        W78403   9.485   8.151  12.607
 9999W        W78404  10.670  44.537  11.079
10000W        W78405   2.896  38.079   1.436
10001W        W78406  30.130  31.274   3.889
10002W        W78407  35.054  40.718   2.320
10003W        W78408  43.429  21.592  11.982
10004W        W78409   2.173  43.241   4.158
10005W        W78410  33.911  12.811   1.270
10006W        W78411  24.163  30.122   4.090
10007W        W78412  24.421  35.643  11.061
10008W        W78413  26.256   0.417  11.640
10009W        W78414   3.755  40.890  13.005
10010W        W78415  22.095   2.229   4.553
10011W        W78416  29.129  37.908   1.048
10012W        W78417  33.455  38.481   2.585
10013W        W78418   1.464  41.621  13.104
10014W        W78419  26.308  24.394   1.726
10015W        W78420   9.091   4.477   0.488
10016W        W78421  33.258  35.562   0.702
10017W        W78422  12.905  42.311   1.207
10018W        W78423  18.021  33.570   4.178
10019W        W78424  41.745  30.184  14.944
10020W        W78425  13.748  29.010  13.395
10021W        W78426  29.018  16.150   1.256
10022W        W78427  27.400  10.307  14.470
10023W        W78428  20.623   1.295   2.389
10024W        W78429  28.584   2.550   0.798
10025W        W78430  15.906  14.228  10.873
10026W        W78431  38.085  31.589   0.403
10027W        W78432   2.610  25.600  12.603
10028W        W78433  23.460  17.010  11.928
10029W        W78434  16.068  41.209   2.286
10030W        W78435  24.631   9.443  13.516
10031W        W78436  32.894  17.340   1.486
10032W        W78437  12.675   2.348   0.943
10033W        W78438  14.705  14.399   3.393
10034W        W78439  28.676  17.268   3.654
10035W        W78440  43.849  44.850  14.109
10036W        W78441   3.114  13.035   2.227
10037W        W78442  25.155  32.649  11.603
10038W        W78443  42.571  11.639  13.580
10039W        W78444  37.439  35.653   0.971
10040W        W78445  43.041  44.468   0.965
10041W        W78446  17.618  43.260  13.959
10042W        W78447  16.518   5.743  11.156
10043W        W78448   7.163  10.353  10.301
10044W        W78449  33.167  13.114   5.057
10045W        W78450  40.926  29.601  13.982
10046W        W78451  39.430   4.215  11.292
10047W        W78452  33.434  37.021   0.263
10048W        W78453   3.356   7.436   0.786
10049W        W78454  15.258   3.707   2.778
10050W        W78455  14.871  36.298  14.911
10051W        W78456  28.989  20.994   1.707
10052W        W78457  26.608  43.994   1.880
10053W        W78458  24.182  39.751  14.091
10054W        W78459  13.604  17.040   1.378
10055W        W78460  26.285  17.648   1.630
10056W        W78461  44.484  41.889  13.449
10057W        W78462  13.634  20.059   2.871
10058W        W78463  40.213  27.905  11.168
10059W        W78464  17.987  32.202  11.372
10060W        W78465  16.265   2.430   5.041
10061W        W78466  21.294  37.345  13.753
10062W        W78467  42.340  16.783  14.921
10063W        W78468  19.398  24.717  12.222
10064W        W78469   2.526  12.558  13.782
10065W        W78470  26.629  27.177   3.209
10066W        W78471   6.520   4.336   0.801
10067W        W78472  40.314  22.030  14.269
10068W        W78473  21.979   8.287   4.933
10069W        W78474  34.780   8.342  11.150
10070W        W78475  39.541  41.914  12.525
10071W        W78476  24.007  18.622  10.746
10072W        W78477  44.527   7.908   4.475
10073W        W78478  36.441   9.758   4.854
10074W        W78479  16.364  24.418   4.056
10075W        W78480  18.308   8.345   2.226
10076W        W78481  36.736  27.105   2.926
10077W        W78482   7.431  40.394   2.645
10078W        W78483   2.351  20.983   3.769
10079W        W78484  29.036  26.097   2.512
10080W        W78485  40.062  11.657  11.153
10081W        W78486   2.520   9.259  10.887
10082W        W78487  22.197  21.347   0.829
10083W        W78488  24.539  40.099   0.829
10084W        W78489   0.884   1.014   3.759
10085W        W78490   6.791  29.414  11.027
10086W        W78491  13.841  11.718  13.352
10087W        W78492  22.631  29.652   1.069
10088W        W78493  11.567  42.054   0.927
10089W        W78494   6.370  20.247  12.455
10090W        W78495  24.983   5.170  12.992
10091W        W78496  18.553  19.570  13.477
10092W        W78497   5.149   4.329  14.305
10093W        W78498   3.588  23.776  12.032
10094W        W78499  35.558  30.901   0.328
10095W        W78500  12.193  30.497   4.559
10096W        W78501  23.464  11.051   0.900
10097W        W78502   7.880  15.746   2.197
10098W        W78503  19.231  37.283  11.164
10099W        W78504   0.832   5.241   3.703
10100W        W78505  33.026  18.257   2.110
10101W        W78506  36.426   1.711   3.165
10102W        W78507   8.900  44.233  13.680
10103W        W78508  18.591  43.022  13.599
10104W        W78509  34.366  37.035   4.111
10105W        W78510  33.525   2.571   4.505
10106W        W78511  11.167   7.371  13.798
10107W        W78512  24.581  17.765   2.664
10108W        W78513  10.844  25.084   4.178
10109W        W78514   9.141  19.691   4.517
10110W        W78515  43.877  41.612   0.215
10111W        W78516  20.727  10.874   0.387
10112W        W78517  24.748  44.980   3.741
10113W        W78518  34.057  17.720  12.046
10114W        W78519  29.656  25.891  13.799
10115W        W78520  13.328  17.921  10.399
10116W        W78521  15.766  36.150  14.042
10117W        W78522  38.911  37.126   0.418
10118W        W78523   1.445  39.666   2.767
10119W        W78524   3.332  17.288  14.349
10120W        W78525  14.794  22.994   1.458
10121W        W78526  30.554  24.979   0.912
10122W        W78527  32.871   2.637   1.461
10123W        W78528   2.246   3.362  10.688
10124W        W78529   4.777   9.896   3.534
10125W        W78530  37.637  44.921   3.513
10126W        W78531  37.885   7.707  14.459
10127W        W78532   0.563   8.205   3.601
10128W        W78533  29.983  42.843  13.942
10129W        W78534  24.537   6.157  12.511
10130W        W78535  40.489  20.203   1.901
10131W        W78536   0.317  13.156   1.453
10132W        W78537  19.234  27.079   2.283
10133W        W78538  32.238  20.977  11.907
10134W        W78539   6.311  21.589   3.717
10135W        W78540  17.315  36.105  11.686
10136W        W78541  44.303  40.108   4.429
10137W        W78542  37.386  15.825  12.406
10138W        W78543   7.739  19.476  11.187
10139W        W78544  22.939  41.485   1.439
10140W        W78545   1.714  38.068  13.355
10141W        W78546  28.269  26.343   2.442
10142W        W78547  15.654   6.866   2.278
10143W        W78548  30.670  39.971   4.548
10144W        W78549  13.819  13.149  14.426
10145W        W78550  42.392  31.953   2.417
10146W        W78551   1.953   5.723  11.175
10147W        W78552   1.865  25.969  12.987
10148W        W78553  14.861  39.195   0.913
10149W        W78554   1.695  12.418   3.706
10150W        W78555  10.704  11.470  10.533
10151W        W78556   7.291  31.786   9.944
10152W        W78557  38.104  29.364  14.902
10153W        W78558  15.190   8.433   0.211
10154W        W78559  11.169  43.275   3.633
10155W        W78560  26.478   4.461  13.099
10156W        W78561  16.735  33.990  12.084
10157W        W78562  34.625  43.170   1.846
10158W        W78563  29.112  32.864  14.083
10159W        W78564  28.426  21.805  12.988
10160W        W78565  36.552  20.515   2.788
10161W        W78566  12.707  16.969   3.611
10162W        W78567   3.214   1.948  12.885
10163W        W78568  39.011   6.331  11.974
10164W        W78569  32.724  22.593   0.801
10165W        W78570  14.264  16.178   0.030
10166W        W78571   3.276  11.791   4.639
10167W        W78572  24.097  31.655  11.654
10168W        W78573  19.302  25.127  14.942
10169W        W78574  17.697  13.596   3.580
10170W        W78575  23.989  29.156  13.384
10171W        W78576  18.578  21.442  12.377
10172W        W78577  15.203  34.421   2.272
10173W        W78578  19.883   0.022  13.734
10174W        W78579  11.999  10.302   4.066
10175W        W78580  17.916   0.310  11.601
10176W        W78581  28.200   2.353  14.326
10177W        W78582  15.683  32.334  13.617
10178W        W78583  42.795  38.784   0.939
10179W        W78584  27.043  29.088   1.736
10180W        W78585   4.644  10.169   1.362
10181W        W78586   7.113  15.710   4.163
10182W        W78587  32.380  28.489   3.528
10183W        W78588  14.197  25.175   3.195
10184W        W78589  33.415  38.078   4.676
10185W        W78590  10.739   7.714   3.959
10186W        W78591  43.232  14.102  10.296
10187W        W78592   6.457  31.953   0.016
10188W        W78593  38.450  32.418   3.344
10189W        W78594   6.653  14.019  11.550
10190W        W78595   6.629  14.448  12.431
10191W        W78596  10.635  24.009  14.436
10192W        W78597  39.331   0.068   0.844
10193W        W78598  38.469  16.008  13.425
10194W        W78599   1.772  38.582  13.473
10195W        W78600  35.923  19.663   4.099
10196W        W78601  42.423  20.141  13.099
10197W        W78602  29.202  39.521   0.915
10198W        W78603  32.307  44.823  11.948
10199W        W78604  41.299  22.920   1.582
10200W        W78605  42.077  42.123  14.543
10201W        W78606  10.716  22.417  13.039
10202W        W78607  31.008  31.306  10.869
10203W        W78608  33.552  41.267   3.347
10204W        W78609  17.642   9.251   3.340
10205W        W78610  37.114  37.378  11.064
10206W        W78611  12.136  34.412   0.484
10207W        W78612  23.971  39.510  13.049
10208W        W78613  43.559   2.186  14.906
10209W        W78614   4.954  31.848   5.128
10210W        W78615  20.492  29.149  14.686
10211W        W78616  15.082   6.220   2.648
10212W        W78617  34.600   2.048   4.180
10213W        W78618  35.430  18.224   4.640
10214W        W78619   1.785  36.333   0.523
10215W        W78620  38.119  26.078  10.680
10216W        W78621  21.513  25.588  13.439
10217W        W78622  13.155  42.905  11.450
10218W        W78623  14.875   2.235   2.731
10219W        W78624  44.418  30.767  10.297
10220W        W78625  38.345  40.506   1.960
10221W        W78626  37.496  37.084  10.748
10222W        W78627  12.060  26.729   4.631
10223W        W78628  13.667  35.680   5.461
10224W        W78629   9.823  15.612  11.910
10225W        W78630  10.601  30.840  14.756
10226W        W78631  43.516  38.580   0.753
10227W        W78632  26.280  20.477  13.493
10228W        W78633  31.411  17.866  10.483
10229W        W78634  26.266  41.223  13.973
10230W        W78635  15.377   0.959   9.826
10231W        W78636  29.397  41.766   1.022
10232W        W78637  41.100  22.158  10.585
10233W        W78638  36.843  29.561   0.336
10234W        W78639  26.570  27.012  10.653
10235W        W78640  43.193  44.284   9.981
10236W        W78641  10.639  37.921  13.973
10237W        W78642   0.272  14.646  12.560
10238W        W78643   1.186  15.862  10.612
10239W        W78644  24.718  16.658   3.740
10240W        W78645  44.245  15.134  10.743
10241W        W78646  12.293  26.293   3.229
10242W        W78647  18.158  16.629  10.748
10243W        W78648  14.882  19.233   4.571
10244W        W78649   1.366  41.013   0.833
10245W        W78650   0.793  30.977  14.403
10246W        W78651  16.625  29.889   4.944
10247W        W78652  37.919  34.386  11.023
10248W        W78653  36.357  25.054  14.990
10249W        W78654  42.563  35.392   0.733
10250W        W78655   2.633  41.515   1.903
10251W        W78656  25.205   6.253   4.848
10252W        W78657  31.839  18.616   3.707
10253W        W78658  37.757  28.155  13.814
10254W        W78659  44.798   9.756  11.596
10255W        W78660   5.660  27.668   2.249
10256W        W78661  43.932  34.626   2.214
10257W        W78662   3.056  28.105   3.598
10258W        W78663  18.991   2.626   2.362
10259W        W78664  31.528  18.347  10.603
10260W        W78665  32.840  39.457   1.367
10261W        W78666   4.316   2.463   0.960
10262W        W78667  21.023   0.397  13.376
10263W        W78668  22.592   9.839   4.299
10264W        W78669  18.595  19.159   1.034
10265W        W78670  42.027   2.407   2.073
10266W        W78671  10.531  36.445   4.178
10267W        W78672   0.486  28.304  14.751
10268W        W78673  44.302  42.507  12.109
10269W        W78674   0.701  20.828  10.590
10270W        W78675  16.103  10.296  11.844
10271W        W78676  30.456  20.766  14.479
10272W        W78677  18.278  15.234   4.653
10273W        W78678  33.311   1.964   0.726
10274W        W78679  40.125  42.160   0.295
10275W        W78680   4.226  15.717   2.342
10276W        W78681  27.544   0.222   2.195
10277W        W78682   3.880  32.136  11.595
10278W        W78683  37.075  44.241   4.092
10279W        W78684  34.120  31.042  12.016
10280W        W78685  31.957  35.072  13.359
10281W        W78686  37.825  35.600   1.935
10282W        W78687  42.880  38.559  13.548
10283W        W78688  17.398  13.294   0.778
10284W        W78689  41.487  30.031   1.260
10285W        W78690  10.623  39.478   2.692
10286W        W78691  11.813  14.073  11.484
10287W        W78692  32.107  38.202   1.969
10288W        W78693  27.534  39.884   0.968
10289W        W78694  35.058  15.750  14.339
10290W        W78695  16.442  35.752  11.484
10291W        W78696  33.608  22.329   0.947
10292W        W78697  40.950  33.630   1.508
10293W        W78698  19.696  13.334   4.500
10294W        W78699  10.117   3.713   1.358
10295W        W78700   6.889  10.646  13.285
10296W        W78701  42.397   9.747   0.974
10297W        W78702  39.867  42.960  14.960
10298W        W78703  27.056  34.612   1.950
10299W        W78704  41.163  10.784  12.891
10300W        W78705  12.767  14.342   1.737
10301W        W78706  19.553  26.998   1.652
10302W        W78707   5.052  24.102  11.947
10303W        W78708  44.404  12.889  10.366
10304W        W78709   2.302  38.825   4.666
10305W        W78710  10.930  29.681  11.204
10306W        W78711  39.482  26.192   3.418
10307W        W78712  10.685   2.313  13.963
10308W        W78713  11.853  37.639  11.206
10309W        W78714  23.645  42.493  13.318
10310W        W78715  28.924  20.402  13.933
10311W        W78716  13.244  44.831   1.481
10312W        W78717  27.678   5.543   3.601
10313W        W78718  35.951  14.640   4.332
10314W        W78719   1.702  14.107  12.140
10315W        W78720   4.259  32.807  12.886
10316W        W78721  18.317  11.225   1.720
10317W        W78722  37.376  42.046   1.370
10318W        W78723  41.403  10.401  11.490
10319W        W78724   3.273  30.119  14.094
10320W        W78725  14.651   8.920   2.810
10321W        W78726  38.921  42.265   0.789
10322W        W78727  25.900  21.070  14.488
10323W        W78728   4.191  43.511   0.353
10324W        W78729  13.617  44.464   1.290
10325W        W78730  14.558  27.572   1.250
10326W        W78731  12.787  12.669   1.763
10327W        W78732  22.523   7.364  13.377
10328W        W78733  30.618   1.979  14.455
10329W        W78734  30.698  19.212   4.502
10330W        W78735  41.891  19.617  11.635
10331W        W78736  28.535  18.779   5.383
10332W        W78737  13.692  29.595   2.595
10333W        W78738  42.406  14.302  14.603
10334W        W78739  13.697  41.207  12.974
10335W        W78740  37.617  13.326   1.055
10336W        W78741   5.911  17.125  13.373
10337W        W78742  42.474  37.449  12.927
10338W        W78743  14.134  11.832   0.778
10339W        W78744  40.639  23.021   1.306
10340W        W78745  44.520  22.595   3.891
10341W        W78746  11.378  26.960   1.762
10342W        W78747  26.738  34.073  13.322
10343W        W78748  18.650  28.647  11.919
10344W        W78749   9.146  14.671   0.394
10345W        W78750   8.365  43.945   1.617
10346W        W78751   6.250  44.715   1.420
10347W        W78752  26.476  44.516   1.817
10348W        W78753  18.493  19.505   4.130
10349W        W78754   1.747  21.223  14.471
10350W        W78755   0.988   2.039   2.637
10351W        W78756  16.063   8.763   1.498
10352W        W78757  16.581  27.021   3.651
10353W        W78758  22.540  31.110   0.192
10354W        W78759  30.096  20.632  10.437
10355W        W78760  18.245  25.130   4.720
10356W        W78761  21.255  31.659   2.416
10357W        W78762  36.546  35.311   3.457
10358W        W78763  11.922  42.995   2.466
10359W        W78764  25.065  17.852  14.768
10360W        W78765  35.386  19.483  12.822
10361W        W78766  15.924   0.373   1.232
10362W        W78767  14.868  10.690   0.899
10363W        W78768  43.495  14.454   1.301
10364W        W78769  15.070  28.934   0.683
10365W        W78770   0.789  10.932   3.323
10366W        W78771  43.586  38.797  10.624
10367W        W78772   0.271  11.779   4.851
10368W        W78773  32.512  18.348   4.405
10369W        W78774  31.843  40.927   1.243
10370W        W78775  26.943  26.897  14.823
10371W        W78776   0.925  33.118   2.279
10372W        W78777  35.291  43.448  11.102
10373W        W78778  11.111  17.815  10.587
10374W        W78779  28.143  33.858   0.347
10375W        W78780  30.525  23.001  12.649
10376W        W78781   3.672  43.474   0.368
10377W        W78782  43.117   6.966   2.287
10378W        W78783   7.144   5.872   0.809
10379W        W78784  25.169   5.108   2.703
10380W        W78785  20.165   2.033  10.801
10381W        W78786  29.390  13.769   4.320
10382W        W78787   1.619  35.662  12.165
10383W        W78788  25.633  27.978  12.174
10384W        W78789  25.198  11.205  12.087
10385W        W78790   0.726  21.044   1.796
10386W        W78791  19.130   6.391  14.759
10387W        W78792   0.084  39.918   1.762
10388W        W78793  16.217  40.459   3.926
10389W        W78794   0.374   0.171  13.469
10390W        W78795  38.849  17.778  14.302
10391W        W78796   6.129  24.678   4.223
10392W        W78797  14.868  13.505  12.602
10393W        W78798  23.553  26.555  12.367
10394W        W78799  35.122   3.918   3.961
10395W        W78800  41.869  36.602   4.403
10396W        W78801  36.235   0.501  12.593
10397W        W78802  29.733  17.810  12.996
10398W        W78803  42.377  12.715  12.024
10399W        W78804  30.907  19.210  10.609
10400W        W78805  27.039  36.632  12.422
10401W        W78806  10.429  14.210   4.244
10402W        W78807  16.720  37.949  13.065
10403W        W78808  22.198  31.892  10.257
10404W        W78809   4.327  44.737  12.182
10405W        W78810  16.602  44.902   0.252
10406W        W78811  23.705  26.946   4.174
10407W        W78812  44.035  36.443  14.889
10408W        W78813  30.416  32.474   1.413
10409W        W78814  44.984  29.409  12.318
10410W        W78815   5.839  10.334   0.476
10411W        W78816   4.651  16.334   1.598
10412W        W78817  21.233  37.433   1.329
10413W        W78818  10.205   9.962   2.545
10414W        W78819   8.838  33.288   1.396
10415W        W78820  12.113  43.748   4.405
10416W        W78821  43.501  37.799   4.284
10417W        W78822  18.272   8.797  13.942
10418W        W78823  13.710  36.168   3.038
10419W        W78824   1.276  32.210   1.323
10420W        W78825   7.978  40.163  12.974
10421W        W78826  36.419  14.938   1.834
10422W        W78827  32.810  39.393  14.979
10423W        W78828  25.740   3.263   1.728
10424W        W78829  36.588  33.844  12.870
10425W        W78830  29.527  36.303  14.808
10426W        W78831  39.247  29.943   1.697
10427W        W78832  11.397  19.038  11.063
10428W        W78833   4.409  14.849  12.453
10429W        W78834   7.330  41.952  14.672
10430W        W78835  23.516   8.752  10.638
10431W        W78836   9.866  17.622   5.358
10432W        W78837  13.270  21.160  10.104
10433W        W78838   2.460   4.223  13.462
10434W        W78839  27.233  28.289  12.076
10435W        W78840  24.085   4.625   4.015
10436W        W78841  15.475   0.932   0.564
10437W        W78842  33.496  14.624  10.468
10438W        W78843  44.797   1.054   0.009
10439W        W78844  38.879  27.600  12.631
10440W        W78845  30.845   5.987   0.888
10441W        W78846  32.969  30.241  12.989
10442W        W78847  32.546  21.500   4.622
10443W        W78848  36.192  15.988   4.719
10444W        W78849  20.742  33.821   1.097
10445W        W78850  19.019  27.052   0.242
10446W        W78851  12.466  30.521   4.075
10447W        W78852   0.958  42.912   2.915
10448W        W78853   4.481   6.931  14.025
10449W        W78854  31.884  42.329  14.087
10450W        W78855  10.991   6.412   3.739
10451W        W78856  40.705   1.886  14.261
10452W        W78857  28.262  14.119  11.672
10453W        W78858   1.046  44.578   2.732
10454W        W78859   4.749   5.757   3.235
10455W        W78860  40.233  26.560   4.844
10456W        W78861  13.024   0.967  12.502
10457W        W78862  25.697   6.885   5.041
10458W        W78863   0.300  39.807  13.618
10459W        W78864  40.803  18.523  14.978
10460W        W78865   6.109   5.234  11.447
10461W        W78866  15.231  22.473  10.787
10462W        W78867  13.145  19.713  13.061
10463W        W78868  29.583  28.732   4.550
10464W        W78869   5.293  15.118   3.634
10465W        W78870  11.646  12.562  13.612
10466W        W78871  10.398  35.067  12.655
10467W        W78872  33.611  25.282   1.323
10468W        W78873  17.126  12.792   1.445
10469W        W78874  17.563  36.098   3.888
10470W        W78875  15.870  43.043   1.063
10471W        W78876  25.111  44.909   1.246
10472W        W78877   4.299  24.973  13.868
10473W        W78878  16.289  37.150  13.114
10474W        W78879  14.186  34.503  14.942
10475W        W78880  14.328  30.550  10.174
10476W        W78881  21.575   3.814   2.819
10477W        W78882  37.596   2.481   0.848
10478W        W78883  38.777  30.623   2.238
10479W        W78884  21.157  31.528   2.906
10480W        W78885  43.517   2.941  11.555
10481W        W78886  35.909  32.942  12.466
10482W        W78887   4.286   3.724   0.365
10483W        W78888  16.767  27.981   3.700
10484W        W78889   0.318  33.051  11.491
10485W        W78890   6.455  29.742  11.948
10486W        W78891  18.962  28.655  10.677
10487W        W78892  38.144   8.239  11.447
10488W        W78893  21.644  15.153   0.563
10489W        W78894  37.944  15.427  13.948
10490W        W78895   9.492  43.413   4.222
10491W        W78896  26.155  14.210  11.115
10492W        W78897   9.599  43.335   3.325
10493W        W78898  18.491   9.079  14.805
10494W        W78899  36.471   8.733   2.519
10495W        W78900   8.833  24.835   0.780
10496W        W78901  20.202  36.376  11.531
10497W        W78902  10.287  31.440  11.556
10498W        W78903  39.004  42.283   3.642
10499W        W78904  18.594  36.875  13.062
10500W        W78905  12.823   9.566   4.785
10501W        W78906  39.257  26.576   5.055
10502W        W78907   1.605  37.028  12.228
10503W        W78908  16.072  41.796  13.143
10504W        W78909  37.909  28.124  14.695
10505W        W78910  23.910  20.474   0.761
10506W        W78911  42.951  25.480  11.186
10507W        W78912  16.691  33.851  13.053
10508W        W78913  33.264   7.329   4.963
10509W        W78914   8.462  41.896   4.688
10510W        W78915  17.601  23.657  11.898
10511W        W78916  16.857  22.171  12.565
10512W        W78917  19.064   7.914  14.775
10513W        W78918  13.670  14.343  11.478
10514W        W78919   1.573  10.567   1.818
10515W        W78920  13.302  39.838  14.011
10516W        W78921  14.334  17.074   3.615
10517W        W78922   9.853   3.281  11.125
10518W        W78923  15.745  11.250  14.859
10519W        W78924  43.798  24.091  14.780
10520W        W78925  38.664  42.979   2.964
10521W        W78926  21.670  22.111  11.158
10522W        W78927  27.177  36.692  11.121
10523W        W78928   1.110   6.943   2.950
10524W        W78929  35.465  21.118  12.980
10525W        W78930  39.326  23.372  10.360
10526W        W78931  11.293  19.900   1.349
10527W        W78932  17.906   3.927   0.456
10528W        W78933  12.318   8.282   3.083
10529W        W78934  20.937  20.193  13.845
10530W        W78935  24.613  38.508   1.314
10531W        W78936  28.179   9.585  14.843
10532W        W78937  30.579  33.438   4.407
10533W        W78938  15.876  37.448  13.993
10534W        W78939  25.601   5.282  13.353
10535W        W78940   7.615  24.279   1.264
10536W        W78941   4.198   9.469   3.443
10537W        W78942  31.565   9.304   4.901
10538W        W78943  10.219  13.343   3.811
10539W        W78944  12.715   4.162  10.247
10540W        W78945   5.978   2.833  14.375
10541W        W78946  22.979  25.728  14.768
10542W        W78947  32.386  15.254   2.621
10543W        W78948  37.789  32.046   1.397
10544W        W78949  14.719  24.105   1.907
10545W        W78950  37.767   6.872  11.076
10546W        W78951  43.192  23.789   2.132
10547W        W78952  35.704  42.403  14.954
10548W        W78953   4.818   8.279  10.310
10549W        W78954  13.287  14.277   4.272
10550W        W78955  22.649  31.356   3.176
10551W        W78956  37.392   8.244   4.180
10552W        W78957  36.457   2.395   4.311
10553W        W78958  27.940  15.945  14.328
10554W        W78959  43.379  21.074   9.872
10555W        W78960   5.824  40.211  11.592
10556W        W78961  17.687   9.627  11.201
10557W        W78962  18.213  23.489   0.960
10558W        W78963  41.316  18.131  11.607
10559W        W78964   0.858  21.506  10.954
10560W        W78965  25.344   7.869   2.718
10561W        W78966  27.116  30.496   1.329
10562W        W78967   4.759   7.968  11.857
10563W        W78968  16.078   8.926   4.565
10564W        W78969   9.692  19.153   3.248
10565W        W78970  12.379  44.321   1.292
10566W        W78971  33.585  27.244  13.362
10567W        W78972   7.358  27.474   1.924
10568W        W78973  22.460  21.685   1.147
10569W        W78974  27.390  34.619   3.837
10570W        W78975  13.074  22.434  14.450
10571W        W78976  16.166  40.751   1.333
10572W        W78977   6.629  31.659   2.776
10573W        W78978  17.447  26.220   4.259
10574W        W78979  33.609  26.902   3.163
10575W        W78980   3.868   9.657   2.691
10576W        W78981   1.247  13.075  14.367
10577W        W78982  28.853  43.246  13.996
10578W        W78983  33.474   6.939   1.626
10579W        W78984  15.852  43.991  12.986
10580W        W78985  14.731  44.485  10.634
10581W        W78986  41.796  32.638   0.704
10582W        W78987  30.778  16.053  10.613
10583W        W78988  18.775   9.769  14.296
10584W        W78989  26.494  27.126  13.492
10585W        W78990   6.258  21.833  11.491
10586W        W78991  13.907   7.783   4.718
10587W        W78992  26.540   2.956   1.400
10588W        W78993  21.319  38.541  14.441
10589W        W78994   1.474  20.182  10.570
10590W        W78995  18.027  22.812   3.776
10591W        W78996  20.543  28.899   1.892
10592W        W78997  27.879   5.396  10.546
10593W        W78998  37.767  21.205  14.882
10594W        W78999  22.541   9.791   3.794
10595W        W79000   3.534  44.700  13.707
10596W        W79001  17.605  11.641  14.002
10597W        W79002  36.165   6.979  14.870
10598W        W79003  24.043  34.985   3.433
10599W        W79004   4.015  17.806  14.873
10600W        W79005   8.108  41.218   1.359
10601W        W79006  34.868  26.654  14.387
10602W        W79007  15.344  30.498  12.659
10603W        W79008   9.422  27.949   3.747
10604W        W79009  16.846  23.674   2.332
10605W        W79010  26.172  16.355  11.143
10606W        W79011   9.103  16.557   4.455
10607W        W79012  11.360   6.054   1.354
10608W        W79013  43.057  35.952   1.251
10609W        W79014   2.321   3.287   0.021
10610W        W79015  41.018  31.457   1.470
10611W        W79016   3.314  33.474   3.234
10612W        W79017  20.529   7.767  10.414
10613W        W79018   0.800  33.309  11.467
10614W        W79019   5.746  42.758   1.600
10615W        W79020   7.601  28.613  13.923
10616W        W79021  17.229  10.570   3.075
10617W        W79022   3.208  44.590  13.300
10618W        W79023  17.224   8.340  12.626
10619W        W79024  38.049   3.809   1.488
10620W        W79025  40.778  31.109  11.452
10621W        W79026   4.801  17.725   1.046
10622W        W79027  43.019  21.562   2.340
10623W        W79028  15.878  41.231  11.213
10624W        W79029  28.657  33.758  12.167
10625W        W79030  15.770   1.288   0.786
10626W        W79031  13.801   3.886  13.779
10627W        W79032   6.714  40.018  11.983
10628W        W79033   7.913   9.771  14.429
10629W        W79034  42.241  24.718   1.828
10630W        W79035  23.061  15.182   0.394
10631W        W79036  44.458  43.224  11.544
10632W        W79037  25.081   3.800  14.845
10633W        W79038  12.999  44.555   1.900
10634W        W79039   3.375  32.991   3.400
10635W        W79040   9.656  40.041   4.570
10636W        W79041  24.455  19.848   2.731
10637W        W79042  37.489  43.763   1.866
10638W        W79043   6.242  29.946  13.298
10639W        W79044  31.353  39.966   1.492
10640W        W79045   3.166   4.363   1.857
10641W        W79046   8.214  43.413  13.434
10642W        W79047   7.082  15.336  14.552
10643W        W79048  10.744  20.731   4.316
10644W        W79049  38.202   8.872   1.250
10645W        W79050  19.547  44.277  11.435
10646W        W79051  29.517  13.700  12.325
10647W        W79052   5.391  36.099   4.456
10648W        W79053   2.144  17.101  14.865
10649W        W79054  34.594  38.962  14.782
10650W        W79055  33.602  34.839  14.948
10651W        W79056  15.146  18.451   0.897
10652W        W79057  31.756   8.200  14.254
10653W        W79058  19.232  41.897   4.646
10654W        W79059  43.012  31.850   1.830
10655W        W79060  41.506  18.087  13.062
10656W        W79061   0.360   4.765   2.860
10657W        W79062  12.810   9.713   0.423
10658W        W79063   8.810   4.466   3.371
10659W        W79064  19.177  30.694  13.461
10660W        W79065  44.252  22.607  12.809
10661W        W79066  40.502  12.366  13.089
10662W        W79067  32.641  29.392  11.963
10663W        W79068  13.770  14.753   4.373
10664W        W79069  33.095  15.190  13.853
10665W        W79070   0.056  35.084   0.851
10666W        W79071   8.228   6.800   0.898
10667W        W79072  11.931  38.230   1.746
10668W        W79073  13.449  10.866   3.646
10669W        W79074   6.249  24.737  14.482
10670W        W79075  28.037  43.408  12.971
10671W        W79076  30.734   5.845  11.837
10672W        W79077  44.559  32.498   4.528
10673W        W79078   8.753  37.510   2.822
10674W        W79079  44.695   9.756  10.231
10675W        W79080   2.495  36.587  11.502
10676W        W79081  20.168  33.347   4.272
10677W        W79082   1.148   2.695   3.821
10678W        W79083  27.662  20.075   2.806
10679W        W79084  28.204   9.828  10.619
10680W        W79085  28.908  22.321   0.751
10681W        W79086   4.140  14.206  11.051
10682W        W79087   1.778   8.762  11.235
10683W        W79088  35.831  37.323   2.336
10684W        W79089   3.778  21.743  12.306
10685W        W79090  12.663  36.014   2.092
10686W        W79091  36.557  13.679   3.741
10687W        W79092   9.413   0.980  14.985
10688W        W79093  17.512  14.046  12.796
10689W        W79094   3.464   1.324   2.828
10690W        W79095  27.167  23.940   0.415
10691W        W79096   1.492  24.017  11.595
10692W        W79097  34.308  21.297  14.681
10693W        W79098  42.428  34.979  11.228
10694W        W79099  39.259  16.768   2.597
10695W        W79100  33.633  44.383  13.763
10696W        W79101  20.671   1.153  13.977
10697W        W79102  13.155  39.521  11.155
10698W        W79103  35.128   3.972  13.026
10699W        W79104  28.081  38.398   2.399
10700W        W79105  12.902  18.583  11.943
10701W        W79106  36.670   3.915   3.309
10702W        W79107  16.792   7.722  13.096
10703W        W79108  20.054  22.934   4.096
10704W        W79109  11.360  33.342   4.494
10705W        W79110  38.966   1.988   3.761
10706W        W79111  38.935  11.584  12.161
10707W        W79112  35.917  16.073  11.584
10708W        W79113  28.471  25.505   0.635
10709W        W79114  27.886  26.480  10.932
10710W        W79115  39.335  40.564   3.191
10711W        W79116  25.869  33.837   4.636
10712W        W79117   5.952  22.599   3.686
10713W        W79118   5.006  22.755  13.302
10714W        W79119  33.822  32.026   4.565
10715W        W79120  40.980  17.185   2.745
10716W        W79121  12.839  11.429   4.116
10717W        W79122  41.957  43.840  11.306
10718W        W79123  11.778   8.806   4.593
10719W        W79124   4.728  42.251  12.126
10720W        W79125  36.826  35.065   3.907
10721W        W79126  23.387  31.401   1.170
10722W        W79127  25.467   2.382   1.688
10723W        W79128   9.280  29.439   0.903
10724W        W79129  33.865  14.884   4.046
10725W        W79130  34.521  39.378  14.462
10726W        W79131   8.439  31.799   1.607
10727W        W79132  38.921  31.348  11.620
10728W        W79133   8.873  22.220   4.193
10729W        W79134  18.069  28.090   2.122
10730W        W79135  38.497  29.283  11.921
10731W        W79136  38.245  10.425  13.495
10732W        W79137  42.197  20.638   0.381
10733W        W79138  31.067   7.852   4.741
10734W        W79139  10.293  41.803   1.675
10735W        W79140  43.929  36.878  10.675
10736W        W79141  31.887  37.027  11.615
10737W        W79142  11.510  33.916  11.251
10738W        W79143  29.785  43.806  11.497
10739W        W79144  44.970   9.777   1.201
10740W        W79145  12.875  18.055   4.532
10741W        W79146  20.598  31.399  11.271
10742W        W79147   0.455   8.752  14.016
10743W        W79148  39.107  38.792   3.819
10744W        W79149  17.790  22.335   3.996
10745W        W79150  28.466   3.325   0.264
10746W        W79151  26.149  11.719   3.358
10747W        W79152  19.752   7.213   4.546
10748W        W79153  31.372  31.563  11.498
10749W        W79154  29.105   1.001   4.544
10750W        W79155   5.834  31.168   4.664
10751W        W79156  22.735  14.052   4.055
10752W        W79157  38.068  25.885   3.003
10753W        W79158  28.915  22.729  14.500
10754W        W79159  21.540   7.110  11.657
10755W        W79160  39.893  16.600  11.528
10756W        W79161  16.520  10.881   0.358
10757W        W79162  38.784   6.485   9.958
10758W        W79163  13.047  26.123  10.698
10759W        W79164  39.963  12.704   3.873
10760W        W79165  36.137  23.130  10.732
10761W        W79166   7.361   0.032  13.467
10762W        W79167  28.965   8.309   0.069
10763W        W79168  20.060   2.323   4.122
10764W        W79169  10.316   3.519  12.141
10765W        W79170  43.206   2.803  11.165
10766W        W79171   3.511   5.845   3.691
10767W        W79172  24.546  25.674  11.671
10768W        W79173  24.172  20.788   2.891
10769W        W79174  13.215  16.386  13.302
10770W        W79175  22.918  40.336  11.064
10771W        W79176  25.416  38.489   4.129
10772W        W79177  10.418  36.578   4.669
10773W        W79178  13.382  30.847  14.733
10774W        W79179  34.156  14.487  13.826
10775W        W79180  44.329  34.149  13.891
10776W        W79181  17.024   4.657   1.862
10777W        W79182  26.117  15.530   2.469
10778W        W79183  23.234  18.635   4.447
10779W        W79184   3.715  19.266   4.836
10780W        W79185  32.657   1.670   1.424
10781W        W79186  31.434  40.621   3.302
10782W        W79187  27.000   4.130   2.730
10783W        W79188  17.444  41.169  12.981
10784W        W79189  26.041  33.144   1.033
10785W        W79190  42.527  29.657  14.569
10786W        W79191  35.687   7.711  12.962
10787W        W79192  34.225  38.758  13.819
10788W        W79193  35.318  16.196  12.869
10789W        W79194  11.042  40.916   3.223
10790W        W79195  36.416   4.509  12.936
10791W        W79196   3.988   9.860  11.308
10792W        W79197  44.206  26.213   2.417
10793W        W79198  34.026  19.498  13.964
10794W        W79199  19.679  36.091   2.901
10795W        W79200  24.547   1.377  12.154
10796W        W79201  25.073  22.092  11.741
10797W        W79202   8.321  22.525   0.730
10798W        W79203  42.066  36.231   4.115
10799W        W79204  41.036   3.228  10.670
10800W        W79205   3.707  40.199  10.946
10801W        W79206  42.534  10.575   2.443
10802W        W79207  18.012   4.165   0.902
10803W        W79208  34.576  12.604   2.287
10804W        W79209  39.572  17.266   3.359
10805W        W79210  13.560  30.369  10.231
10806W        W79211   8.380  31.374  11.381
10807W        W79212  19.574  35.873   1.925
10808W        W79213  11.883   8.873   3.569
10809W        W79214  20.199  38.350  12.271
10810W        W79215   1.798  19.204  11.588
10811W        W79216  15.758  42.919   4.131
10812W        W79217  36.851  26.602   4.604
10813W        W79218  13.498  44.909  12.888
10814W        W79219  22.135  41.272   2.827
10815W        W79220  23.924  28.661  10.873
10816W        W79221  28.959   0.839  12.241
10817W        W79222  33.916  12.570  13.343
10818W        W79223  43.867  24.312   1.836
10819W        W79224  36.067  27.044   1.754
10820W        W79225  38.339  26.586   0.429
10821W        W79226  11.051  38.520   1.191
10822W        W79227  24.575  12.755   4.178
10823W        W79228   6.435  35.414  12.086
10824W        W79229  18.701  19.457  10.607
10825W        W79230  28.377   6.945  14.972
10826W        W79231  36.781  38.101  13.508
10827W        W79232  25.608  27.901   2.471
10828W        W79233  23.420  37.103   3.402
10829W        W79234  24.017  19.336  13.439
10830W        W79235   1.135  42.893   2.105
10831W        W79236  18.173  44.469  12.557
10832W        W79237  42.958  40.762   4.645
10833W        W79238   2.089  39.834  11.460
10834W        W79239  24.007  23.084   1.746
10835W        W79240  20.815  29.040   4.324
10836W        W79241  13.356  15.749   4.801
10837W        W79242  41.785  27.256  13.881
10838W        W79243  37.037   3.786  11.396
10839W        W79244  28.747  39.859  11.062
10840W        W79245  19.084  26.882  11.517
10841W        W79246  14.268  26.070   4.643
10842W        W79247   5.339  42.867  14.831
10843W        W79248  15.704  15.769   2.319
10844W        W79249  41.040   7.154  11.340
10845W        W79250  12.543  25.240  12.059
10846W        W79251  29.543   1.751   3.707
10847W        W79252  12.337  42.548   0.150
10848W        W79253  31.008  19.996   0.858
10849W        W79254   6.349  18.107   3.808
10850W        W79255  27.417  26.652  14.275
10851W        W79256  14.461  27.383  11.082
10852W        W79257  24.681  43.177   3.389
10853W        W79258  15.765  35.073   5.417
10854W        W79259  37.198   7.174  10.289
10855W        W79260  37.802   3.219   5.075
10856W        W79261  34.797  30.531   1.408
10857W        W79262  38.365  39.882   4.476
10858W        W79263  21.502  30.601   3.782
10859W        W79264  26.716  15.270   1.333
10860W        W79265  39.853   4.421  13.578
10861W        W79266  13.837  37.522   0.404
10862W        W79267  25.937  36.114  12.371
10863W        W79268  20.692  34.503   2.857
10864W        W79269  10.798   3.016  13.347
10865W        W79270  14.278  20.058   3.538
10866W        W79271  30.996  24.216   4.200
10867W        W79272  23.540  17.027  11.403
10868W        W79273  23.782  32.101   2.333
10869W        W79274  37.825  28.924  14.886
10870W        W79275  39.944  22.273  14.524
10871W        W79276  18.969  24.043  14.713
10872W        W79277   5.646   5.157  14.349
10873W        W79278  15.138  11.682  13.325
10874W        W79279  32.859  27.517   2.829
10875W        W79280  29.630   9.189  11.606
10876W        W79281  34.800  33.518  11.553
10877W        W79282  37.149  16.488   0.836
10878W        W79283  39.849  34.590  12.961
10879W        W79284  17.045   5.231  10.171
10880W        W79285  24.218  21.209   4.684
10881W        W79286  16.253   0.107  11.658
10882W        W79287  11.596  19.068   1.267
10883W        W79288  43.269   2.502  10.747
10884W        W79289  36.485   1.556  12.498
10885W        W79290  43.008  16.228  14.716
10886W        W79291  11.628  20.170   3.009
10887W        W79292  19.364   6.396  11.573
10888W        W79293  25.507  41.140  14.505
10889W        W79294   3.866  30.163  12.810
10890W        W79295  10.203   7.755  13.977
10891W        W79296   1.226  42.424  11.951
10892W        W79297   8.611   5.457   1.222
10893W        W79298  40.472  19.359  13.728
10894W        W79299  44.116  23.747  12.505
10895W        W79300  32.301  33.597   4.131
10896W        W79301  38.186  14.301  12.393
10897W        W79302  33.445  12.836  11.712
10898W        W79303  37.101  22.023   3.619
10899W        W79304  12.522  10.434  14.825
10900W        W79305   9.017  14.527  14.050
10901W        W79306  18.646  16.528  13.426
10902W        W79307   1.935  30.409  12.158
10903W        W79308  22.579  26.233  11.991
10904W        W79309  22.027  10.802   1.360
10905W        W79310   0.165  44.679  12.053
10906W        W79311  23.942   3.579   2.365
10907W        W79312  40.394  37.571   4.650
10908W        W79313  24.064  32.086  12.550
10909W        W79314  11.284  14.695  10.978
10910W        W79315  38.460  23.712   2.471
10911W        W79316   2.934  27.015  10.897
10912W        W79317  19.341   7.246   1.610
10913W        W79318  23.510  43.610   0.977
10914W        W79319  27.782   7.746  10.444
10915W        W79320  36.862  22.762   3.798
10916W        W79321  37.368   7.714   1.930
10917W        W79322  29.909   9.130   2.168
10918W        W79323  40.912  41.264  11.047
10919W        W79324  11.710  28.556  14.556
10920W        W79325   4.183  16.034   1.555
10921W        W79326   7.684   7.136  11.143
10922W        W79327  42.560  11.957   3.875
10923W        W79328  37.870  21.534  13.361
10924W        W79329  40.892  42.763   3.185
10925W        W79330  14.144  18.081  11.545
10926W        W79331   9.889  36.349  11.700
10927W        W79332  18.755  36.983   0.364
10928W        W79333  41.073  44.188   0.306
10929W        W79334  18.534  14.188  12.877
10930W        W79335  16.152  42.560   4.081
10931W        W79336   4.213  18.223   3.264
10932W        W79337  32.468   6.839   3.571
10933W        W79338  44.824   0.907  13.765
10934W        W79339  24.620   6.075   0.979
10935W        W79340  35.933  22.989   4.621
10936W        W79341  28.066   4.853  10.530
10937W        W79342   3.834  12.996   2.277
10938W        W79343  41.825   3.899   0.578
10939W        W79344  31.162   4.715   4.550
10940W        W79345  41.713   1.051  12.111
10941W        W79346   4.803   6.971  12.355
10942W        W79347  41.277  28.462   4.188
10943W        W79348  40.805  15.732  13.425
10944W        W79349   4.631  37.677   0.460
10945W        W79350   1.248  35.505   2.891
10946W        W79351  38.503   1.365  12.315
10947W        W79352  35.545  44.580  13.792
10948W        W79353  23.466  20.095   4.167
10949W        W79354  32.511  38.776   0.825
10950W        W79355   4.193   0.941  13.818
10951W        W79356  13.690  31.411  12.929
10952W        W79357  25.461   4.252  12.313
10953W        W79358  33.858  21.190  10.584
10954W        W79359   3.325  19.477  13.487
10955W        W79360  20.215   0.125   1.987
10956W        W79361  31.332  41.847   1.380
10957W        W79362  38.630  40.553  12.427
10958W        W79363   8.146  24.388  10.507
10959W        W79364   8.174  18.247   3.307
10960W        W79365  35.490  27.977  12.068
10961W        W79366  20.182  14.983   4.920
10962W        W79367  40.044  17.668  11.166
10963W        W79368  11.662   9.827  12.625
10964W        W79369   4.064   5.614  10.712
10965W        W79370  32.965  11.672  13.959
10966W        W79371   8.826  34.173  11.493
10967W        W79372  24.912  28.589  13.439
10968W        W79373  37.352  13.191   3.708
10969W        W79374  31.513  29.942  13.891
10970W        W79375  42.562  28.612   3.852
10971W        W79376  34.305  18.289  13.337
10972W        W79377  40.284   2.314   3.322
10973W        W79378  12.500  18.258  13.526
10974W        W79379  19.669  18.241  14.039
10975W        W79380  42.610  43.475  13.964
10976W        W79381  34.544  17.627   0.505
10977W        W79382  12.550   5.958   4.104
10978W        W79383  42.661  41.984  12.114
10979W        W79384  40.303  41.234   2.940
10980W        W79385  13.586  39.253   1.386
10981W        W79386  32.549  44.766   3.384
10982W        W79387   6.831  38.954   2.762
10983W        W79388  32.624  38.580  12.095
10984W        W79389  17.779  25.650   1.664
10985W        W79390  28.491   5.232   2.585
10986W        W79391  44.440  35.870   1.799
10987W        W79392  18.032  37.331   0.379
10988W        W79393  14.230  23.078  10.597
10989W        W79394  18.581  18.319   2.138
10990W        W79395  29.552  10.148  13.267
10991W        W79396  22.036  31.961  14.443
10992W        W79397   6.833  27.109   3.660
10993W        W79398  20.135  11.642  13.969
10994W        W79399   5.422  35.936   3.984
10995W        W79400  35.659   0.758  13.249
10996W        W79401  12.649   7.395  13.379
10997W        W79402  11.246  25.711  12.951
10998W        W79403  11.376  33.028  14.006
10999W        W79404   0.705  23.948   2.969
11000W        W79405   0.619  13.640  11.526
11001W        W79406  41.495  15.237   4.394
11002W        W79407  33.354  34.093   2.135
11003W        W79408  26.117  43.598   1.416
11004W        W79409  20.415  25.001   4.754
11005W        W79410  29.275  41.935  14.230
11006W        W79411  16.345   6.720   1.472
11007W        W79412  15.806   5.429  10.799
11008W        W79413   7.218  12.792   2.230
11009W        W79414  26.314   4.928  12.950
11010W        W79415   0.745   9.968  10.973
11011W        W79416   9.214  30.332   4.933
11012W        W79417  16.766   1.819   2.862
11013W        W79418  27.040  33.943  11.084
11014W        W79419  18.100  28.509   2.759
11015W        W79420  43.012   5.517  12.016
11016W        W79421  38.628  43.872  13.541
11017W        W79422   7.705  40.746   1.952
11018W        W79423   7.689  14.534   2.876
11019W        W79424  36.452  29.878   1.971
11020W        W79425  42.366  41.956   1.421
11021W        W79426  19.635  16.065   3.845
11022W        W79427  19.168  32.994  11.394
11023W        W79428  12.156  27.397   0.699
11024W        W79429  29.844  33.575  14.290
11025W        W79430  38.056   0.288   4.181
11026W        W79431  25.054  26.192   4.832
11027W        W79432  37.913  12.013   3.221
11028W        W79433  13.272  30.012  12.937
11029W        W79434  31.213  12.615   5.091
11030W        W79435  27.918  27.009  10.932
11031W        W79436  16.907  37.047   1.864
11032W        W79437  44.290  38.437   4.244
11033W        W79438  35.296  16.155   0.463
11034W        W79439  30.945  10.235  10.724
11035W        W79440   6.130  14.115   3.302
11036W        W79441  34.674   6.304   0.274
11037W        W79442  35.497  22.140   2.705
11038W        W79443  37.336  33.781  14.334
11039W        W79444  36.780  22.485  13.472
11040W        W79445  39.379   2.314   0.275
11041W        W79446  13.702  27.940  10.707
11042W        W79447  16.262  22.967   0.016
11043W        W79448  12.604  16.566   0.481
11044W        W79449  15.419  24.239  11.142
11045W        W79450  41.505  29.262  11.128
11046W        W79451  14.085  34.548   1.468
11047W        W79452   3.036   9.145   5.101
11048W        W79453  28.471  42.500  13.754
11049W        W79454  37.929  26.913   4.066
11050W        W79455  34.795  22.214   1.449
11051W        W79456  42.616  19.139   3.758
11052W        W79457  37.942  38.521   2.620
11053W        W79458  42.452  25.195   1.234
11054W        W79459  22.649   0.161   0.757
11055W        W79460   5.825   2.553   0.259
11056W        W79461  24.120  40.613   1.341
11057W        W79462  32.077  17.527  11.178
11058W        W79463  26.567  16.181  13.520
11059W        W79464  30.555  43.686  13.878
11060W        W79465  23.802  34.925  12.953
11061W        W79466  38.467  41.256   2.438
11062W        W79467  37.938   6.252   0.441
11063W        W79468  11.767  43.814   3.234
11064W        W79469  24.529  40.667  10.484
11065W        W79470  31.397  22.647   2.646
11066W        W79471  15.152  11.105   2.797
11067W        W79472   4.011  31.163   2.372
11068W        W79473  40.065  44.675  12.087
11069W        W79474   2.961   9.595   4.835
11070W        W79475  27.315  39.562  13.181
11071W        W79476  15.109   8.347   4.389
11072W        W79477  19.114  12.866   3.188
11073W        W79478  12.051  16.176   3.325
11074W        W79479   9.096  33.601   0.968
11075W        W79480  23.106  24.177   4.466
11076W        W79481  40.788   0.177   1.747
11077W        W79482  12.369  26.398   0.758
11078W        W79483  21.136  25.128  13.091
11079W        W79484  37.547  35.435  12.003
11080W        W79485  43.172  38.325   2.708
11081W        W79486   2.463  19.122  12.780
11082W        W79487  11.971  33.497   1.451
11083W        W79488  22.576  16.061   4.115
11084W        W79489  32.316   7.335   0.374
11085W        W79490  38.505  25.721   3.776
11086W        W79491  22.662  19.794   2.902
11087W        W79492  39.466   8.344  12.750
11088W        W79493  25.100  22.061   0.805
11089W        W79494  25.707  13.132   0.120
11090W        W79495  24.229  25.926   4.939
11091W        W79496  20.105  41.963   4.132
11092W        W79497  12.016  34.071   4.829
11093W        W79498  22.476   8.929   2.810
11094W        W79499  11.765   1.374  11.151
11095W        W79500  18.945  39.288  10.875
11096W        W79501   0.233   2.827   0.268
11097W        W79502  30.101  32.651   2.795
11098W        W79503  31.007  33.889   2.888
11099W        W79504  36.554  11.597  13.995
11100W        W79505  11.249  35.824  11.150
11101W        W79506  12.875  39.515  10.585
11102W        W79507  25.619  28.758  14.512
11103W        W79508  40.802  42.062  13.043
11104W        W79509  39.795  20.743  12.837
11105W        W79510  34.871   7.042  12.025
11106W        W79511  38.406  17.909   2.849
11107W        W79512  13.615  39.884   4.554
11108W        W79513  38.502  14.468   0.805
11109W        W79514  13.216   1.945   4.051
11110W        W79515   8.602  19.766  12.031
11111W        W79516   8.196  31.084  13.553
11112W        W79517  14.594   2.994  11.149
11113W        W79518  12.629  40.634   4.274
11114W        W79519   8.271   9.202  12.578
11115W        W79520  19.311  32.104   2.682
11116W        W79521  18.006  22.633  14.448
11117W        W79522  15.018  42.740   2.826
11118W        W79523  20.578  40.015   1.709
11119W        W79524  12.313   7.292   3.151
11120W        W79525  18.427  35.618  14.509
11121W        W79526  30.193   3.678   2.205
11122W        W79527  32.681   4.428  14.397
11123W        W79528  44.364  34.411   1.996
11124W        W79529  36.944  28.967  12.088
11125W        W79530  35.647  40.860  13.967
11126W        W79531  28.785  29.120   1.126
11127W        W79532  17.799  10.427   5.058
11128W        W79533   8.281  12.238   2.698
11129W        W79534  24.169  18.230  12.605
11130W        W79535  29.051   9.538  10.768
11131W        W79536  36.093  37.424   0.230
11132W        W79537  34.554  39.057  10.616
11133W        W79538  18.604  37.467   2.426
11134W        W79539  43.880  29.550   3.469
11135W        W79540  26.953  20.715  13.953
11136W        W79541  38.303  44.999   0.313
11137W        W79542  29.161  28.174  12.893
11138W        W79543  26.712  21.622   5.045
11139W        W79544  43.813  18.759  13.343
11140W        W79545  21.922   8.938   3.552
11141W        W79546  39.113  19.531  13.954
11142W        W79547  19.666  24.570  13.753
11143W        W79548   0.091  11.177   1.827
11144W        W79549   2.489  42.859  10.681
11145W        W79550  23.482  23.548  13.557
11146W        W79551  40.847  13.583   1.346
11147W        W79552   1.905  31.512  13.489
11148W        W79553  44.403  20.739   3.859
11149W        W79554  21.966  43.736  12.016
11150W        W79555   2.203   0.883  14.829
11151W        W79556  20.503  11.299   0.223
11152W        W79557   7.886  38.001   3.726
11153W        W79558   9.633  12.156   2.558
11154W        W79559  28.636  27.207   1.790
11155W        W79560  36.835  26.060   1.825
11156W        W79561  17.167  20.635   5.311
11157W        W79562  15.017   4.638  12.286
11158W        W79563  35.151  36.529   2.659
11159W        W79564  30.859  23.038  13.113
11160W        W79565  32.428  20.243   3.196
11161W        W79566  26.964  13.526   1.985
11162W        W79567  21.194  11.876  14.956
11163W        W79568  21.820  39.724  11.919
11164W        W79569  40.637  42.851  13.428
11165W        W79570  16.087  31.568  14.979
11166W        W79571  15.714  41.118   4.867
11167W        W79572  35.582  31.083   2.363
11168W        W79573   3.293  40.087  13.998
11169W        W79574  19.953  11.867   9.731
11170W        W79575   4.579   1.027  12.391
11171W        W79576   6.680   8.717  14.325
11172W        W79577   7.482  38.806  11.039
11173W        W79578  44.236   3.308  13.987
11174W        W79579  32.012   9.290   2.951
11175W        W79580  21.617  41.354  13.403
11176W        W79581   3.106  32.424   2.131
11177W        W79582  42.772   4.832  14.689
11178W        W79583   8.657   8.305   0.449
11179W        W79584  16.443  16.008  11.150
11180W        W79585   1.455  28.959   4.124
11181W        W79586  35.001   4.499  12.834
11182W        W79587  18.833  17.597  14.158
11183W        W79588  13.088  19.769  11.714
11184W        W79589  14.591  23.053   4.238
11185W        W79590   6.974   5.259   3.199
11186W        W79591  16.327  26.685  13.975
11187W        W79592   3.459  13.388   2.376
11188W        W79593   1.091   5.724  10.480
11189W        W79594  43.346  36.065   3.280
11190W        W79595  10.791  38.352   0.281
11191W        W79596  12.600  30.453  13.011
11192W        W79597  28.079  26.209  12.308
11193W        W79598  44.796  11.852  13.336
11194W        W79599   2.928  15.231  13.935
11195W        W79600   9.378  34.997  13.428
11196W        W79601   8.970   3.220   4.708
11197W        W79602   4.630   4.673  13.484
11198W        W79603   9.658  28.130   0.816
11199W        W79604  10.659  22.934  13.081
11200W        W79605  10.770  35.984  11.326
11201W        W79606  23.561   6.221  11.684
11202W        W79607  17.232  30.467   1.432
11203W        W79608  12.024  21.887   3.710
11204W        W79609  15.213  12.897   4.440
11205W        W79610   0.058   5.271   1.179
11206W        W79611  22.801  20.577   1.688
11207W        W79612   6.792  21.132  10.350
11208W        W79613  43.465   2.260  11.150
11209W        W79614  40.963  30.503   1.385
11210W        W79615  16.116   6.440  11.721
11211W        W79616  29.584  32.433   4.717
11212W        W79617  19.212  12.929   1.823
11213W        W79618  15.021  16.098  11.122
11214W        W79619  32.098  31.117   2.769
11215W        W79620  35.415  19.958   3.297
11216W        W79621   0.775   7.189  13.494
11217W        W79622  18.342  14.186   4.720
11218W        W79623  36.786  10.946   3.289
11219W        W79624   4.342  34.077   0.701
11220W        W79625  36.632  42.070   0.778
11221W        W79626  11.419  14.263  13.054
11222W        W79627  18.539   6.636  12.898
11223W        W79628  31.482  27.995   1.912
11224W        W79629   4.176  29.089   3.345
11225W        W79630  20.606   8.747   3.592
11226W        W79631  19.256   7.069   1.083
11227W        W79632  15.655  38.090   0.456
11228W        W79633   7.922  34.435  14.036
11229W        W79634  28.863  18.735  13.002
11230W        W79635  32.966   0.618   3.265
11231W        W79636  15.753  30.168   2.281
11232W        W79637  26.741  14.875   2.585
11233W        W79638   9.636  38.120  14.827
11234W        W79639   4.732  33.559   0.740
11235W        W79640  30.625  19.620   0.055
11236W        W79641   5.531  41.502  14.315
11237W        W79642   8.407  24.120   0.473
11238W        W79643  40.953  17.670  10.909
11239W        W79644   6.315  38.085  13.065
11240W        W79645  26.499  43.272   0.639
11241W        W79646  24.400  34.515   2.236
11242W        W79647   2.792  17.419   3.268
11243W        W79648   6.189  20.105  13.102
11244W        W79649  39.513   6.236   1.432
11245W        W79650   7.236  18.192   3.841
11246W        W79651  11.378  40.860  13.398
11247W        W79652  33.090  22.207   4.674
11248W        W79653  42.981   5.257  12.948
11249W        W79654  11.639  34.921   1.468
11250W        W79655  25.700   8.746  14.375
11251W        W79656  38.034  20.700   3.950
11252W        W79657  23.706  43.409   0.482
11253W        W79658   8.866  42.436   4.103
11254W        W79659   1.772  24.801   4.178
11255W        W79660   8.374  14.237  12.867
11256W        W79661   2.978   1.920  13.904
11257W        W79662  38.084   8.408   3.733
11258W        W79663  11.258  15.211  13.448
11259W        W79664   2.389  15.005  13.982
11260W        W79665  24.561  40.890  13.762
11261W        W79666  14.124  17.603  14.490
11262W        W79667  28.555  24.231  14.807
11263W        W79668  42.424  43.171   4.923
11264W        W79669  22.752   5.722   0.919
11265W        W79670  37.052   5.194   2.177
11266W        W79671  15.599  23.672  11.517
11267W        W79672  26.669   7.238   1.838
11268W        W79673  16.777   9.375  13.904
11269W        W79674  32.068  10.714   2.186
11270W        W79675  33.769   8.303  14.187
11271W        W79676  43.962  41.009   4.741
11272W        W79677  17.444  32.773  12.981
11273W        W79678  35.069  36.033   2.912
11274W        W79679  36.048   6.750  12.138
11275W        W79680  14.644   1.539   0.422
11276W        W79681  36.359   5.941  12.988
11277W        W79682   5.434   1.869   4.641
11278W        W79683   7.676  16.827  13.529
11279W        W79684   9.756  24.788  12.044
11280W        W79685  40.785  16.144   4.066
11281W        W79686   6.961  37.625  13.434
11282W        W79687   4.993  18.374  11.112
11283W        W79688  17.774   1.154   4.231
11284W        W79689  22.104  13.607   1.680
11285W        W79690  18.120  42.741  10.464
11286W        W79691  13.553   2.453   1.043
11287W        W79692   9.106  34.177  11.963
11288W        W79693  14.209  34.992   2.299
11289W        W79694   1.527   1.497  12.365
11290W        W79695  32.990  26.413   1.407
11291W        W79696   2.552   7.348   3.610
11292W        W79697  25.657  11.304  11.896
11293W        W79698   3.265   2.764   0.921
11294W        W79699  10.810  35.056  12.969
11295W        W79700  13.605   7.332  11.955
11296W        W79701  26.288   2.461   1.430
11297W        W79702   3.730  11.780   1.952
11298W        W79703   9.921  28.508   4.395
11299W        W79704  12.887  30.761  14.707
11300W        W79705   2.288  31.141   4.410
11301W        W79706   0.402   4.257   2.844
11302W        W79707  28.447  31.551  12.571
11303W        W79708   5.168  11.558   1.808
11304W        W79709   0.252  21.359   4.860
11305W        W79710  41.334  43.554  13.900
11306W        W79711  24.789   8.958   2.861
11307W        W79712  17.251  28.504  11.204
11308W        W79713  33.485  27.136   0.884
11309W        W79714  28.910   7.105   1.709
11310W        W79715  28.320  12.382   3.100
11311W        W79716  32.890  13.237   0.176
11312W        W79717  11.553  40.945  12.932
11313W        W79718  32.670  37.580  12.026
11314W        W79719  39.387  22.618  12.354
11315W        W79720  33.756  14.154  14.816
11316W        W79721  30.973  11.429  13.992
11317W        W79722  18.159  37.934   2.965
11318W        W79723   5.415  30.027   2.926
11319W        W79724  17.359  43.371   0.237
11320W        W79725   2.214  25.609   1.185
11321W        W79726  21.501  27.913   3.213
11322W        W79727  38.488  37.015   2.431
11323W        W79728  37.289  30.871  14.313
11324W        W79729  29.940  35.808  14.733
11325W        W79730  41.908  25.659   4.540
11326W        W79731  33.051  24.232   2.733
11327W        W79732  24.954  43.207   4.062
11328W        W79733   6.005   3.459  11.180
11329W        W79734   9.614  16.073  12.093
11330W        W79735   3.230  16.578   1.430
11331W        W79736  27.097  12.143   0.310
11332W        W79737  40.828  22.752   3.962
11333W        W79738  30.693   7.741  11.543
11334W        W79739   5.189  18.611  13.086
11335W        W79740  35.341  41.846  14.369
11336W        W79741  33.382  12.696   0.378
11337W        W79742  23.774  36.101   4.007
11338W        W79743  39.049  25.285   4.149
11339W        W79744  33.565  28.721  13.453
11340W        W79745  25.477  30.012  12.543
11341W        W79746  30.543  23.906  13.126
11342W        W79747  35.325  39.970   1.422
11343W        W79748  19.845  26.912  11.925
11344W        W79749  13.830  44.389  13.005
11345W        W79750   9.087  16.004   4.544
11346W        W79751  34.451  39.239   2.367
11347W        W79752  16.759  29.374   1.743
11348W        W79753   7.130  37.074  14.692
11349W        W79754  23.727  33.565   1.277
11350W        W79755   6.309  37.883   3.308
11351W        W79756  11.723  42.363  14.330
11352W        W79757   3.409  27.380  11.147
11353W        W79758  41.030   3.195   1.388
11354W        W79759  38.076  38.660  12.426
11355W        W79760   8.192  29.372   3.351
11356W        W79761   4.263  14.190   0.449
11357W        W79762  36.852  24.293   2.852
11358W        W79763  44.726  34.105  11.639
11359W        W79764  44.781   4.932  14.221
11360W        W79765  15.008   3.746  12.069
11361W        W79766   4.655  20.109   0.443
11362W        W79767  44.942  11.387   4.133
11363W        W79768  28.044   5.591   1.259
11364W        W79769   6.452  16.128  11.698
11365W        W79770  26.211  11.370   3.764
11366W        W79771  34.766   2.168  11.192
11367W        W79772  24.747  23.981   3.142
11368W        W79773   5.353  41.565   0.309
11369W        W79774  19.818  44.940   4.485
11370W        W79775   3.432  20.792   2.898
11371W        W79776  34.493  16.708   4.301
11372W        W79777  20.022  15.589  14.891
11373W        W79778   5.810  10.124  14.380
11374W        W79779  42.113   1.176  13.775
11375W        W79780  29.168  19.503   1.706
11376W        W79781  32.118  44.550   5.197
11377W        W79782  18.981  32.135  13.385
11378W        W79783  43.972  31.482  13.401
11379W        W79784   7.425   0.221  12.970
11380W        W79785  26.048  17.184  10.591
11381W        W79786  27.327  25.689   1.273
11382W        W79787  37.936  37.663  12.527
11383W        W79788  35.937  37.159  14.809
11384W        W79789  23.935   0.804   5.066
11385W        W79790  38.989  32.405  11.652
11386W        W79791  36.562  28.453   2.443
11387W        W79792  10.584  39.311   2.193
11388W        W79793  34.008  35.435  13.830
11389W        W79794   0.494  35.937   2.388
11390W        W79795   3.588  30.539  11.436
11391W        W79796  30.929  21.930  11.041
11392W        W79797   2.308   1.410   3.999
11393W        W79798  17.216  27.232  13.943
11394W        W79799  40.753  31.421   4.185
11395W        W79800  15.753  42.001   2.263
11396W        W79801   5.885  44.935   0.706
11397W        W79802  35.499  34.984   1.441
11398W        W79803  34.324  12.495  14.551
11399W        W79804  29.608  13.809   4.779
11400W        W79805  15.781  15.504  10.788
11401W        W79806  19.774  14.486  12.520
11402W        W79807   3.437   6.813   1.887
11403W        W79808  36.385  27.873  10.791
11404W        W79809  10.744   0.250  13.809
11405W        W79810  37.684  37.656   0.923
11406W        W79811  11.839  27.996   4.640
11407W        W79812  36.610  43.374   3.076
11408W        W79813  35.575  39.525   1.565
11409W        W79814  20.191   2.989  11.123
11410W        W79815  42.630  40.051   0.121
11411W        W79816  36.323  18.044  13.588
11412W        W79817  23.198  37.733  13.768
11413W        W79818  13.519   4.458  10.734
11414W        W79819  23.615  42.767  14.900
11415W        W79820  41.375  43.326   0.840
11416W        W79821  25.403  19.729   2.278
11417W        W79822  39.994  39.048   1.557
11418W        W79823   4.280  18.797  10.651
11419W        W79824  28.969  14.428  12.387
11420W        W79825  20.256  30.640   1.967
11421W        W79826  22.731  25.750   4.144
11422W        W79827  23.230  33.648  14.107
11423W        W79828  24.897  42.691   0.314
11424W        W79829  44.353  40.690   2.354
11425W        W79830  39.925  19.197  11.040
11426W        W79831  27.667   9.903   4.212
11427W        W79832  14.876  33.350  14.425
11428W        W79833  23.602  27.976  11.065
11429W        W79834  27.940  34.882  11.519
11430W        W79835  28.698   8.130   2.322
11431W        W79836  28.084   9.288   3.645
11432W        W79837  12.601  42.973   4.024
11433W        W79838  14.089  29.618  14.986
11434W        W79839   1.791  43.353  12.492
11435W        W79840   6.211   1.911  12.087
11436W        W79841  20.713  24.713   5.071
11437W        W79842  16.064  32.299  10.890
11438W        W79843   0.487  17.236   3.587
11439W        W79844   2.773  16.148   1.533
11440W        W79845  42.509   5.707  13.753
11441W        W79846  27.148  44.398   0.765
11442W        W79847   3.886   8.326  12.011
11443W        W79848  24.721  33.584  10.789
11444W        W79849  19.287  27.962   3.684
11445W        W79850  31.190  15.831   4.241
11446W        W79851  19.486  26.932  13.742
11447W        W79852   0.795  16.678   3.809
11448W        W79853   3.322  37.448  12.983
11449W        W79854   1.418  15.040   2.262
11450W        W79855  33.682  30.094   4.577
11451W        W79856   3.359  34.692   1.227
11452W        W79857  42.344  24.019  13.607
11453W        W79858  19.285  38.227  12.617
11454W        W79859   2.227   4.238  12.475
11455W        W79860  23.587   4.371   0.398
11456W        W79861   4.634  23.147   0.987
11457W        W79862   2.250   2.010  12.404
11458W        W79863   7.247   4.245   1.957
11459W        W79864  43.819  38.998   0.198
11460W        W79865   3.726  34.661   0.499
11461W        W79866  21.799  12.391  14.016
11462W        W79867  11.933  25.412   3.023
11463W        W79868  21.648  26.637  14.503
11464W        W79869   2.510  23.613  10.605
11465W        W79870  25.968  35.637  12.575
11466W        W79871  38.473  11.152  12.846
11467W        W79872  27.080  10.251  11.987
11468W        W79873   9.415   0.834   0.496
11469W        W79874  38.063  29.044  11.240
11470W        W79875   6.753  26.908   2.304
11471W        W79876  30.158  43.408  13.146
11472W        W79877  14.151  20.318  11.192
11473W        W79878  20.232  17.860   3.633
11474W        W79879   3.443  23.978  12.532
11475W        W79880  36.918  27.856  14.878
11476W        W79881  21.964  21.420   2.397
11477W        W79882  29.490  29.983  14.834
11478W        W79883  34.366  31.487   3.387
11479W        W79884  30.952  44.789   4.007
11480W        W79885   0.431  33.847  13.036
11481W        W79886  23.450   2.910   1.433
11482W        W79887  43.320   8.096  12.122
11483W        W79888  27.528   3.253   1.240
11484W        W79889  10.565  34.475   3.840
11485W        W79890  24.354  41.333   3.158
11486W        W79891  33.834  17.250   2.725
11487W        W79892  15.704  22.846   2.119
11488W        W79893  43.497   8.298   2.013
11489W        W79894  41.699  25.740   2.553
11490W        W79895  13.823  26.688  13.038
11491W        W79896  43.617  23.137  13.787
11492W        W79897  23.349  17.642   0.529
11493W        W79898  26.058   9.628   4.664
11494W        W79899   6.740  40.812   1.878
11495W        W79900  10.680  35.277   0.015
11496W        W79901  35.379   8.797   1.962
11497W        W79902  11.853  25.135   0.813
11498W        W79903  27.719  27.604  10.721
11499W        W79904  15.176   8.162   4.858
11500W        W79905  15.291   7.354  13.781
11501W        W79906  33.618  21.250   1.140
11502W        W79907  15.767  18.783  12.217
11503W        W79908  39.277  42.289   9.949
11504W        W79909  29.891   0.236   0.442
11505W        W79910  19.047  43.548   1.917
11506W        W79911  36.072   7.720  13.553
11507W        W79912  19.738  16.723  14.444
11508W        W79913  20.558  42.842   0.119
11509W        W79914  24.021   8.201   1.216
11510W        W79915  15.295  18.286   4.704
11511W        W79916  38.066  14.881   0.262
11512W        W79917  30.004  16.090  11.295
11513W        W79918  42.568   8.419  10.639
11514W        W79919  25.133  26.669   2.125
11515W        W79920  33.960  30.238  11.601
11516W        W79921  31.654   0.936   2.872
11517W        W79922  34.554  44.426   4.026
11518W        W79923  44.887  41.606   1.313
11519W        W79924  25.985  39.563  14.562
11520W        W79925  25.483   9.753   0.897
11521W        W79926  14.037  30.065   3.701
11522W        W79927  44.548  25.703   1.866
11523W        W79928  42.507  23.662  14.446
11524W        W79929  27.771   8.674   1.499
11525W        W79930  29.106  29.029   0.205
11526W        W79931  20.499  15.308   3.033
11527W        W79932   3.349   5.239  12.404
11528W        W79933  39.957  32.476  13.560
11529W        W79934  12.401  35.021  11.001
11530W        W79935  37.232   6.695  12.922
11531W        W79936  34.106   0.229   0.828
11532W        W79937  42.097  29.661   4.139
11533W        W79938  22.290  18.229  13.554
11534W        W79939  32.640  10.730  14.531
11535W        W79940  12.309  27.370  13.631
11536W        W79941  28.201  36.366  11.222
11537W        W79942  22.732  31.960  10.916
11538W        W79943  22.799  20.260  13.572
11539W        W79944  36.360  42.760   2.322
11540W        W79945  15.118  24.765  13.921
11541W        W79946  18.063  37.415  12.393
11542W        W79947  41.548  17.172  11.515
11543W        W79948  40.098  19.663   4.020
11544W        W79949  37.975  20.146   4.618
11545W        W79950  35.709  16.011   2.990
11546W        W79951  40.581   9.921  13.496
11547W        W79952  42.234  38.528  14.181
11548W        W79953  41.865  44.355   1.723
11549W        W79954  19.642  17.855  13.092
11550W        W79955  40.292  29.595  13.076
11551W        W79956  22.771  17.509  12.947
11552W        W79957  43.445  21.498  14.422
11553W        W79958  18.709   8.857  13.615
11554W        W79959  35.844  25.552   4.245
11555W        W79960   3.674  44.317   1.312
11556W        W79961  33.990  21.013   1.980
11557W        W79962   5.141   5.226  14.391
11558W        W79963  40.788  18.357   0.899
11559W        W79964  22.964  12.906  12.861
11560W        W79965  39.306  33.590   1.735
11561W        W79966  39.200   7.312  10.987
11562W        W79967  44.704  30.426   4.510
11563W        W79968  24.922  22.913  11.629
11564W        W79969  16.272  31.617  11.640
11565W        W79970   5.418   7.232   3.267
11566W        W79971  36.956  16.759   3.042
11567W        W79972  34.476  25.638   0.340
11568W        W79973   3.972  25.656   2.205
11569W        W79974  21.501   2.569  11.624
11570W        W79975  10.268   7.839   4.213
11571W        W79976  43.475  37.374  12.979
11572W        W79977  31.154  41.414  13.021
11573W        W79978   7.123  37.053  13.021
11574W        W79979  23.344  44.241  14.360
11575W        W79980  37.918  39.836  12.063
11576W        W79981  36.710  15.289  13.506
11577W        W79982   2.445   3.780  14.740
11578W        W79983  44.294  33.516   4.563
11579W        W79984  31.606  18.063  12.884
11580W        W79985  43.088   8.236  11.483
11581W        W79986  22.525  30.110   0.366
11582W        W79987   5.515  25.469   3.880
11583W        W79988  14.217  11.322   4.208
11584W        W79989  34.456  20.513  14.435
11585W        W79990   3.784  12.041   3.873
11586W        W79991  22.203  26.980   0.115
11587W        W79992   0.119   8.272   2.856
11588W        W79993  32.945  37.173  14.259
11589W        W79994  28.245  24.473  13.016
11590W        W79995  33.896   4.943   1.841
11591W        W79996   8.411  12.790  14.962
11592W        W79997   0.297  42.054  10.835
11593W        W79998   6.996  17.257   0.824
11594W        W79999  27.507  29.646  12.047
11595W        W80000  32.639  21.964  11.085
11596W        W80001  28.508  21.106  10.788
11597W        W80002  16.156  34.820   0.362
11598W        W80003  33.053  39.484   0.431
11599W        W80004  43.263  40.351   1.782
11600W        W80005  20.055  24.652  14.799
11601W        W80006   4.379   1.014  14.326
11602W        W80007   5.829  23.395   5.000
11603W        W80008   5.876  42.389  11.542
11604W        W80009  16.189  44.917  13.512
11605W        W80010  22.192  23.584   1.368
11606W        W80011  20.693  42.389  11.245
11607W        W80012  37.096  18.243  11.963
11608W        W80013  13.801  28.680  11.114
11609W        W80014  10.508  26.603  10.405
11610W        W80015   8.633  40.537  11.172
11611W        W80016  36.908  36.343   3.610
11612W        W80017  35.575  41.955  12.672
11613W        W80018  39.483  14.305   4.629
11614W        W80019  14.624  37.263   0.858
11615W        W80020  11.808  20.354   2.560
11616W        W80021  29.163   8.455  11.771
11617W        W80022  33.542  16.634   2.410
11618W        W80023  22.884  19.626   2.444
11619W        W80024  20.878  16.698  12.401
11620W        W80025  15.120  15.324  12.678
11621W        W80026  30.906  35.929   1.869
11622W        W80027  23.709   1.511  10.462
11623W        W80028  26.583   7.041  14.028
11624W        W80029  17.686  40.366   3.393
11625W        W80030   9.779   3.296   3.052
11626W        W80031  18.767   6.949  12.481
11627W        W80032  23.131  36.704  13.018
11628W        W80033  34.075  21.631   2.838
11629W        W80034  36.376   1.115   1.332
11630W        W80035  31.852  43.235   0.178
11631W        W80036  12.620  38.091   2.979
11632W        W80037  27.936  13.188   1.728
11633W        W80038  42.497  19.098  11.191
11634W        W80039  43.550  15.089  12.034
11635W        W80040  41.314   5.617   1.391
11636W        W80041  34.423  20.830  14.843
11637W        W80042   6.116  28.390  14.208
11638W        W80043   7.560  42.428   1.856
11639W        W80044  27.781  12.777  14.369
11640W        W80045  13.223  20.257   2.626
11641W        W80046   2.235  29.693   2.704
11642W        W80047  24.950   9.837  13.886
11643W        W80048  35.956  20.897  13.032
11644W        W80049  14.244  21.840   2.745
11645W        W80050  20.461   3.705  14.868
11646W        W80051  37.711  36.484   2.202
11647W        W80052   6.417   4.268  11.752
11648W        W80053   9.252   6.826   2.272
11649W        W80054  15.966   7.913  11.721
11650W        W80055  19.727  44.952   1.227
11651W        W80056  15.275  34.781   0.377
11652W        W80057  10.885  38.844  10.203
11653W        W80058  38.459  39.015  10.723
11654W        W80059  15.400  22.763   5.015
11655W        W80060  35.070  14.642   3.876
11656W        W80061   5.343  10.425   3.146
11657W        W80062   8.103  11.827   0.355
11658W        W80063   1.154  24.119   2.795
11659W        W80064  42.387   2.501  11.269
11660W        W80065  29.167  29.831   0.236
11661W        W80066  30.499  41.985  10.283
11662W        W80067  20.735   3.142   4.730
11663W        W80068  20.790  38.819   2.606
11664W        W80069  33.588  17.594  14.072
11665W        W80070  30.442   4.356   5.142
11666W        W80071  43.512  23.960   0.421
11667W        W80072  35.583  34.653  11.488
11668W        W80073   3.642  42.424   4.235
11669W        W80074  24.998  38.773  13.527
11670W        W80075   1.493  27.695  14.957
11671W        W80076  39.176   0.522  10.300
11672W        W80077  14.593  32.496   3.574
11673W        W80078  19.272   5.058   4.374
11674W        W80079  27.012   8.792   2.647
11675W        W80080  15.554  41.685  10.648
11676W        W80081  14.093  26.199  14.003
11677W        W80082  18.793  44.267  14.750
11678W        W80083  22.432  39.529   0.800
11679W        W80084   5.140  38.968  10.628
11680W        W80085  29.407  28.319  14.962
11681W        W80086  17.532  13.296   1.296
11682W        W80087  18.751   5.654  12.858
11683W        W80088  11.721  31.254   0.951
11684W        W80089  22.561  32.152   2.705
11685W        W80090  11.572  20.112  13.348
11686W        W80091  31.880   6.543   4.778
11687W        W80092  31.634   0.853  14.434
11688W        W80093  37.454  34.843   2.292
11689W        W80094   4.331  26.619   9.862
11690W        W80095  18.490  23.722  13.426
11691W        W80096  35.813   6.979  12.540
11692W        W80097  18.237  40.874  11.104
11693W        W80098  38.799   9.315   4.585
11694W        W80099  18.142  35.234   4.852
11695W        W80100  38.273  11.792   4.202
11696W        W80101  20.106  21.746   2.453
11697W        W80102  17.201  34.036   0.289
11698W        W80103  38.366  43.472   0.859
11699W        W80104  41.951  24.531  12.411
11700W        W80105  12.147  28.604   0.908
11701W        W80106  10.930  26.622  11.773
11702W        W80107  39.453  30.037  12.839
11703W        W80108  28.042   2.005   2.370
11704W        W80109  35.058  42.215   3.741
11705W        W80110  30.947  12.017  12.469
11706W        W80111  27.900  14.291   1.799
11707W        W80112  22.257  23.022   1.440
11708W        W80113  27.993  30.970  12.615
11709W        W80114  44.612  12.482   0.957
11710W        W80115   7.695   3.766  10.797
11711W        W80116  23.023  18.703  10.956
11712W        W80117  35.609  22.822   0.817
11713W        W80118   6.262  29.847   1.822
11714W        W80119  22.152  30.107  13.100
11715W        W80120  28.007  35.003  13.319
11716W        W80121  30.172   4.653   3.014
11717W        W80122  19.005  27.011   0.779
11718W        W80123  10.713  26.670   2.712
11719W        W80124   2.218  15.849   2.755
11720W        W80125  17.817  27.129  10.607
11721W        W80126  28.180  10.105  14.916
11722W        W80127  23.762   6.602   0.862
11723W        W80128  40.889  23.756   2.271
11724W        W80129   8.287  16.082   0.032
11725W        W80130  31.387  31.049   2.211
11726W        W80131   9.756   9.717  14.285
11727W        W80132  13.306  32.294  12.189
11728W        W80133   0.471  27.474  12.485
11729W        W80134   1.072  11.163   2.028
11730W        W80135  11.874  23.178   9.898
11731W        W80136  10.590  36.629  10.687
11732W        W80137  40.032  44.777  13.033
11733W        W80138  13.884  41.109   1.870
11734W        W80139  32.953  31.932  11.079
11735W        W80140  11.115   5.716  12.898
11736W        W80141  34.478   8.096  14.863
11737W        W80142   8.335  35.614  12.199
11738W        W80143   4.330  36.049   0.806
11739W        W80144  43.783   7.104   3.964
11740W        W80145   2.023   7.353   1.118
11741W        W80146  21.422  22.321   2.829
11742W        W80147   8.119  28.049   1.019
11743W        W80148  11.303   4.390  12.362
11744W        W80149   4.774  27.483  11.825
11745W        W80150  19.844  12.089  14.061
11746W        W80151   1.720  42.254  11.102
11747W        W80152   0.338  28.197   1.331
11748W        W80153   8.114  44.859  14.254
11749W        W80154  41.208  33.184   3.415
11750W        W80155   3.104  15.161   0.776
11751W        W80156  15.629  21.734  13.508
11752W        W80157   2.266   7.279  13.017
11753W        W80158  42.435  39.433  10.920
11754W        W80159   8.706  23.265  10.985
11755W        W80160  42.173  12.698  13.335
11756W        W80161  31.006   8.303  11.348
11757W        W80162  17.672   8.215  12.923
11758W        W80163  23.176  28.607   3.110
11759W        W80164   7.112  25.838   3.142
11760W        W80165  19.096  30.627   2.772
11761W        W80166  14.430  40.382   5.003
11762W        W80167  14.737  21.736   1.197
11763W        W80168  11.321  28.726  10.749
11764W        W80169   9.904  27.227   1.896
11765W        W80170  37.001   0.008   0.877
11766W        W80171  14.857  25.979  11.053
11767W        W80172   6.238  35.862   1.199
11768W        W80173   6.734   9.486   2.353
11769W        W80174  43.505   6.364  11.585
11770W        W80175  30.455  29.541  11.506
11771W        W80176  43.083  25.987  11.058
11772W        W80177  34.504   2.650   1.008
11773W        W80178   0.066  15.224  13.495
11774W        W80179  42.980  36.439  14.906
11775W        W80180  44.543  20.680  14.850
11776W        W80181  37.099  29.061   0.375
11777W        W80182  41.552   4.735   0.317
11778W        W80183  10.551   7.673  14.389
11779W        W80184  35.545  34.181   4.724
11780W        W80185  38.380   9.819   4.172
11781W        W80186   9.290   6.673   1.374
11782W        W80187   9.829  39.519   2.151
11783W        W80188  18.197  14.843  14.368
11784W        W80189  37.614  18.246   4.159
11785W        W80190   8.760  11.001  11.219
11786W        W80191   8.589  27.508   0.391
11787W        W80192  25.046  39.716  13.699
11788W        W80193  40.386  19.196  11.953
11789W        W80194   4.059  18.331  12.232
11790W        W80195  28.118  38.032  12.576
11791W        W80196   3.895  13.196  11.897
11792W        W80197  10.395  18.553  14.854
11793W        W80198  35.908  38.597   2.634
11794W        W80199  42.038  19.123   2.303
11795W        W80200  14.760  16.414   0.756
11796W        W80201  24.438   4.166  11.116
11797W        W80202   4.394  27.236  10.758
11798W        W80203  18.251  27.672   3.655
11799W        W80204  22.673  13.506   3.388
11800W        W80205   7.972  37.441  12.374
11801W        W80206   9.338  34.875  10.893
11802W        W80207  26.697  38.327   0.722
11803W        W80208  22.749  22.613  11.512
11804W        W80209  27.098  12.650   3.000
11805W        W80210  39.335  32.129   3.362
11806W        W80211  26.867  31.226  14.347
11807W        W80212  30.392  22.526   1.670
11808W        W80213  25.560  19.917  12.936
11809W        W80214  21.913  16.576   3.666
11810W        W80215   6.177  21.754   0.387
11811W        W80216   8.909   0.522  11.815
11812W        W80217  42.458  31.278  13.900
11813W        W80218   5.237  40.121   0.448
11814W        W80219  16.941   1.290  12.654
11815W        W80220   8.369  26.029  11.932
11816W        W80221  16.285  37.344  10.686
11817W        W80222  13.103  44.347   1.352
11818W        W80223   1.677  13.686  14.839
11819W        W80224  22.534  11.883  10.752
11820W        W80225   8.380  13.830  11.164
11821W        W80226  42.162  12.311   1.528
11822W        W80227  29.359  33.321  11.603
11823W        W80228  41.763  29.885   0.375
11824W        W80229  34.105  29.953  14.591
11825W        W80230  15.696   0.763   1.521
11826W        W80231  22.507   4.734  13.146
11827W        W80232  11.848  39.508  13.364
11828W        W80233  12.141  12.280  14.575
11829W        W80234  19.590  44.509   4.636
11830W        W80235  37.494  36.584   1.655
11831W        W80236   2.675   4.638   2.661
11832W        W80237  42.452  41.078  12.472
11833W        W80238   4.317  12.759  13.356
11834W        W80239  41.339   2.866   0.347
11835W        W80240  25.153  24.463   4.025
11836W        W80241  44.198  35.670  11.507
11837W        W80242  37.292   5.953   4.710
11838W        W80243  37.574  10.832   0.423
11839W        W80244  14.557  13.256  14.840
11840W        W80245  34.817  40.053  14.077
11841W        W80246  34.386  13.829   2.842
11842W        W80247  28.141  29.371  11.034
11843W        W80248   6.910   1.819   1.250
11844W        W80249  29.896  25.413  12.496
11845W        W80250  40.482  14.983  10.554
11846W        W80251   1.514  20.532  12.420
11847W        W80252  40.478  26.988   3.994
11848W        W80253   2.981   4.966   3.542
11849W        W80254  18.997  40.476   1.273
11850W        W80255  16.569  17.310   2.852
11851W        W80256   2.802   4.271  12.108
11852W        W80257  18.058  16.878  14.206
11853W        W80258  17.857  32.456  10.382
11854W        W80259  37.670  36.939   3.676
11855W        W80260  17.391   9.198  10.206
11856W        W80261  15.097   0.752  11.159
11857W        W80262  28.489  29.436   0.867
11858W        W80263  20.078   4.938   2.870
11859W        W80264   9.741  11.327   0.706
11860W        W80265  25.143  21.794  13.437
11861W        W80266  21.472  22.049   0.132
11862W        W80267   3.229  12.420   3.585
11863W        W80268  37.020  16.175  14.327
11864W        W80269  11.376  22.032  13.345
11865W        W80270  17.418   5.224   2.907
11866W        W80271  42.559  38.829  13.903
11867W        W80272   4.811  17.390   3.242
11868W        W80273   6.329   0.816  13.820
11869W        W80274  21.065  32.660  11.213
11870W        W80275  20.197  14.164  11.130
11871W        W80276   0.144  41.733  14.350
11872W        W80277   8.751  33.760  11.845
11873W        W80278  19.132  26.427  14.726
11874W        W80279  28.726  42.499  12.415
11875W        W80280  43.946   2.453  14.315
11876W        W80281  14.908   6.417  14.933
11877W        W80282  17.104  32.075  13.387
11878W        W80283  17.375   7.518  14.413
11879W        W80284  38.362   4.901   0.097
11880W        W80285  40.710  24.404  10.787
11881W        W80286  42.982  37.596  11.070
11882W        W80287   0.162  28.195  12.924
11883W        W80288   5.769  20.766   3.799
11884W        W80289  31.545  40.913  12.622
11885W        W80290  41.138  14.528  13.038
11886W        W80291  36.999   2.838   1.488
11887W        W80292   0.446   8.241   0.271
11888W        W80293   8.360  39.941  13.583
11889W        W80294  34.023  17.174   0.316
11890W        W80295  36.646  36.180   3.192
11891W        W80296  41.167  24.421  11.071
11892W        W80297  37.614  42.856   0.868
11893W        W80298   3.731   6.262   2.733
11894W        W80299  28.098   5.974   4.216
11895W        W80300   5.324  15.773  14.514
11896W        W80301  15.540  37.635   4.614
11897W        W80302   4.243  26.724   0.901
11898W        W80303  22.484   3.275  12.947
11899W        W80304  14.735  33.157   1.303
11900W        W80305  15.638  38.604  14.759
11901W        W80306  42.596  20.545   1.919
11902W        W80307  31.581  16.157   1.140
11903W        W80308   0.844  42.093   0.351
11904W        W80309  13.340  16.704  11.157
11905W        W80310  22.632  16.943   0.360
11906W        W80311  35.121   0.809  13.107
11907W        W80312  11.954   6.406   0.947
11908W        W80313  18.494  11.680  14.429
11909W        W80314   1.581  15.130   3.587
11910W        W80315  43.513  30.901  13.918
11911W        W80316  29.551  13.665   1.319
11912W        W80317   9.917  22.068  12.471
11913W        W80318  12.889  41.977  12.521
11914W        W80319   2.344  11.351   1.224
11915W        W80320   4.380   7.494   3.662
11916W        W80321  37.782  40.114   2.754
11917W        W80322  39.981  14.362   2.624
11918W        W80323  22.615  42.470  12.579
11919W        W80324  44.910  18.026   0.443
11920W        W80325  33.773  26.528   4.599
11921W        W80326  10.130  30.383   2.773
11922W        W80327  42.272  27.744  12.455
11923W        W80328  44.262  13.342  14.938
11924W        W80329  18.544  43.722   1.873
11925W        W80330  30.714  31.639  12.956
11926W        W80331   1.345  36.064  13.878
11927W        W80332  38.829  44.992   0.299
11928W        W80333  40.039  40.114  14.318
11929W        W80334   2.280  29.513  11.049
11930W        W80335  28.344   4.206  11.508
11931W        W80336  27.027  18.816   2.697
11932W        W80337   2.718  37.958   1.908
11933W        W80338  10.867   3.367  10.410
11934W        W80339   6.339  25.005   2.775
11935W        W80340  40.824  10.850   4.021
11936W        W80341  12.523  39.929  10.565
11937W        W80342   3.603   3.933   3.877
11938W        W80343   3.819   5.352  11.552
11939W        W80344  39.585  39.532  12.488
11940W        W80345  35.820  31.143   0.700
11941W        W80346  44.885  25.094  14.089
11942W        W80347  35.476   8.604   1.514
11943W        W80348  21.256  14.749  13.565
11944W        W80349   6.781  26.207   1.450
11945W        W80350  25.981  27.906   4.284
11946W        W80351  21.678  24.029   2.292
11947W        W80352  33.530  25.903   0.442
11948W        W80353   4.708  32.404  12.949
11949W        W80354   0.814  12.081  13.797
11950W        W80355  34.352  23.179   2.165
11951W        W80356  12.281  41.813  13.058
11952W        W80357  16.823   7.771  12.070
11953W        W80358   8.151  31.574   1.971
11954W        W80359  11.768  24.231  13.872
11955W        W80360  21.903   4.689   4.521
11956W        W80361   0.907   4.782  12.316
11957W        W80362  11.368  40.831  11.261
11958W        W80363  32.751  13.203  14.673
11959W        W80364  33.956  34.441  14.950
11960W        W80365  20.781   5.414  12.116
11961W        W80366  41.604  29.450   0.126
11962W        W80367  38.998  39.387   4.536
11963W        W80368  15.388  36.913  10.183
11964W        W80369   2.021  29.239  12.709
11965W        W80370  36.914  25.082   4.053
11966W        W80371  13.691  29.913   0.852
11967W        W80372  42.429  21.443   2.742
11968W        W80373  23.117  33.524   2.562
11969W        W80374  43.923  19.145   4.231
11970W        W80375  13.354  33.958  11.924
11971W        W80376  28.262  35.540   4.987
11972W        W80377  23.820   3.181   4.838
11973W        W80378   7.114  38.306  11.256
11974W        W80379  39.847  26.086   3.779
11975W        W80380  44.649  30.020  13.032
11976W        W80381  28.723   9.799   4.170
11977W        W80382  30.402  20.011  14.009
11978W        W80383   1.719  42.489  10.652
11979W        W80384   3.038   0.958   4.144
11980W        W80385  39.541  39.531  13.272
11981W        W80386   2.799   1.649  13.051
11982W        W80387  18.180  40.086   1.996
11983W        W80388   3.929  29.095   0.861
11984W        W80389  12.712  23.461   1.400
11985W        W80390  15.133  10.251  14.368
11986W        W80391  21.783  20.170   2.451
11987W        W80392   4.738   3.511  11.414
11988W        W80393   3.929   7.703   2.794
11989W        W80394   3.387  22.213  10.738
11990W        W80395  42.011  11.436   1.354
11991W        W80396  10.167   5.463  13.004
11992W        W80397  29.316   0.460  13.511
11993W        W80398  33.862  38.557  13.503
11994W        W80399  26.091  16.334  13.720
11995W        W80400  33.453  37.926   3.292
11996W        W80401  21.625  16.074   4.179
11997W        W80402  27.044  21.240  13.914
11998W        W80403  32.074   6.465  13.593
11999W        W80404  42.851   9.085   4.053
12000W        W80405  39.245  29.475   4.049
12001W        W80406  42.817  24.579   0.978
12002W        W80407  31.720  34.038   1.196
12003W        W80408  43.646  42.563   3.114
12004W        W80409  34.361  31.893   2.232
12005W        W80410  11.987   0.846   1.120
12006W        W80411   9.760  37.839   4.897
12007W        W80412   8.820  27.901   4.529
12008W        W80413  38.922  42.603  13.534
12009W        W80414  43.042  43.898   1.391
12010W        W80415  18.627  40.652  13.251
12011W        W80416   6.822  35.918   3.902
12012W        W80417  42.825  34.487   3.689
12013W        W80418  39.174   6.828   0.733
12014W        W80419  25.447  14.812   2.220
12015W        W80420  13.369  41.999  12.394
12016W        W80421  10.217  27.682   4.651
12017W        W80422  44.734  41.225  13.889
12018W        W80423  20.527  41.578  11.609
12019W        W80424   7.575  38.428  13.348
12020W        W80425  30.895   0.183  13.355
12021W        W80426  15.188  41.873   2.975
12022W        W80427  43.914   1.845   1.991
12023W        W80428  25.160  14.814   0.068
12024W        W80429   7.353  24.486   0.867
12025W        W80430  28.164  22.718   2.900
12026W        W80431  42.855   6.431  13.364
12027W        W80432  43.928  27.984   4.901
12028W        W80433   4.314  10.181  11.077
12029W        W80434  39.952   6.229  14.741
12030W        W80435  19.252  32.130  12.670
12031W        W80436  27.450  13.601   2.151
12032W        W80437  17.552  39.862   0.786
12033W        W80438  22.681  12.770  13.550
12034W        W80439  37.915  22.194  12.052
12035W        W80440  18.094   1.969  14.388
12036W        W80441  25.759  37.664   2.287
12037W        W80442   3.994  39.919   3.685
12038W        W80443  12.761  11.857  10.184
12039W        W80444  43.788   8.217   0.858
12040W        W80445   7.608  27.960  11.937
12041W        W80446  22.637  31.283   3.690
12042W        W80447   5.188   9.647  11.673
12043W        W80448   0.872  13.122  13.971
12044W        W80449  29.682   9.707   4.160
12045W        W80450  31.976  21.119  14.296
12046W        W80451  23.769  17.714  11.959
12047W        W80452  12.795  28.437   4.456
12048W        W80453  14.235  20.037   2.253
12049W        W80454  42.304   6.655  14.876
12050W        W80455  24.022  26.357  14.338
12051W        W80456  29.600  35.696  11.083
12052W        W80457  27.739   5.589  11.010
12053W        W80458  23.233  35.085  11.567
12054W        W80459  18.147  15.215   3.276
12055W        W80460  15.782  31.125   1.874
12056W        W80461  34.033  22.456   2.116
12057W        W80462  33.643  14.734   0.907
12058W        W80463  44.007   5.886  14.565
12059W        W80464  14.874  16.311   4.072
12060W        W80465   0.216  19.082  12.703
12061W        W80466  32.082  11.263  12.194
12062W        W80467   4.316  23.978   2.902
12063W        W80468   8.945   3.734   4.299
12064W        W80469  13.211   2.065   5.444
12065W        W80470   6.433  37.460  11.581
12066W        W80471  43.431   3.745   4.910
12067W        W80472   4.554   4.770   0.765
12068W        W80473  11.116   9.914  14.391
12069W        W80474   3.485  34.416  11.320
12070W        W80475  10.859  25.179   1.908
12071W        W80476   2.364   1.002   1.849
12072W        W80477  28.575   0.241   2.122
12073W        W80478  21.773  39.420  14.121
12074W        W80479  35.322  28.173  11.603
12075W        W80480  10.387  36.092   0.835
12076W        W80481  21.777  42.348   1.421
12077W        W80482  16.556  38.300   2.156
12078W        W80483   2.374  16.331   4.855
12079W        W80484   7.260  14.140  14.516
12080W        W80485   2.429   4.659   0.222
12081W        W80486  41.405   5.727   2.175
12082W        W80487  25.449   1.780   4.687
12083W        W80488  25.150   1.454  13.632
12084W        W80489  22.710  26.897   1.701
12085W        W80490  31.979   4.923  13.991
12086W        W80491  29.491  40.572  11.500
12087W        W80492  20.095  15.658  13.812
12088W        W80493  18.539   3.370   1.163
12089W        W80494  38.427  11.413   2.749
12090W        W80495  29.406   3.215   2.789
12091W        W80496  18.349   4.552   4.386
12092W        W80497   5.725   9.918  13.815
12093W        W80498   4.515  37.544   2.698
12094W        W80499  30.447  24.107   3.315
12095W        W80500  17.317  10.258  11.072
12096W        W80501  25.996  12.311   3.012
12097W        W80502  18.124   1.919  12.506
12098W        W80503  25.512   9.792   2.175
12099W        W80504  14.279  36.598  10.598
12100W        W80505  39.063  27.876  10.433
12101W        W80506   6.710  38.805   3.651
12102W        W80507  16.297  32.103  14.940
12103W        W80508  33.025  15.485   0.068
12104W        W80509  42.543  10.713   0.274
12105W        W80510  30.060  13.562   4.502
12106W        W80511  40.497   1.688   0.870
12107W        W80512   9.006  40.200  12.109
12108W        W80513  39.999  43.226  10.889
12109W        W80514  20.821  15.732  14.436
12110W        W80515  39.507  34.268   2.761
12111W        W80516   1.277   4.425   1.823
12112W        W80517  14.101  42.476   0.797
12113W        W80518  42.561  30.910  11.064
12114W        W80519  27.786  33.219  12.105
12115W        W80520  37.305   9.640   0.391
12116W        W80521   2.567  27.572   1.629
12117W        W80522  26.483  30.916   0.180
12118W        W80523  25.939  27.438  11.129
12119W        W80524  31.504  10.107  12.021
12120W        W80525  23.852  42.459   1.940
12121W        W80526   4.680  31.861   3.255
12122W        W80527  39.435  30.038  12.335
12123W        W80528  34.681   2.310   3.101
12124W        W80529  26.666  33.329  12.139
12125W        W80530  32.904  44.755   3.774
12126W        W80531  28.822  20.089   4.088
12127W        W80532  38.815   2.649  13.319
12128W        W80533  43.573  43.746   4.015
12129W        W80534   2.190  18.562   3.652
12130W        W80535  44.042  23.993  11.176
12131W        W80536  23.532   2.422   2.601
12132W        W80537  34.510  42.797  13.565
12133W        W80538  38.907  38.460  14.092
12134W        W80539  17.279   9.562   0.290
12135W        W80540  15.885  35.837   3.348
12136W        W80541  27.984   0.390  11.066
12137W        W80542  29.475  35.802  10.585
12138W        W80543  28.637  34.988  14.501
12139W        W80544   0.817  40.771   4.058
12140W        W80545  26.549  22.609   4.108
12141W        W80546  11.792  25.070  11.675
12142W        W80547  10.818  44.969   3.176
12143W        W80548  18.320  23.561  12.018
12144W        W80549  35.587  23.222  12.621
12145W        W80550  18.688  10.482   0.918
12146W        W80551   5.681  41.300  13.860
12147W        W80552  14.162   0.129   0.251
12148W        W80553   7.451   0.966  10.971
12149W        W80554  37.942  30.902  13.791
12150W        W80555   3.801   4.714   3.404
12151W        W80556   2.166  34.837   3.237
12152W        W80557  37.816  12.037   1.855
12153W        W80558  33.105   3.446  11.930
12154W        W80559  35.622  33.054   4.305
12155W        W80560   9.399  13.465  14.877
12156W        W80561  39.734  41.824  12.048
12157W        W80562  27.553  26.687   2.030
12158W        W80563  22.445   3.742  14.946
12159W        W80564  39.840  32.021  10.410
12160W        W80565  42.720  25.491   1.579
12161W        W80566  43.905  34.362  11.134
12162W        W80567  26.335   1.451  10.643
12163W        W80568  39.085  37.799  12.801
12164W        W80569  16.905  29.440  10.999
12165W        W80570   1.084   3.612  13.945
12166W        W80571  16.608   8.469   3.202
12167W        W80572  13.014   7.864  10.519
12168W        W80573   7.701  41.073  12.412
12169W        W80574  40.297  37.404   3.148
12170W        W80575  36.452  40.078  13.975
12171W        W80576   7.259   0.612   4.474
12172W        W80577  14.527  27.895  10.984
12173W        W80578  28.529  26.933  12.806
12174W        W80579  22.805  10.381   1.007
12175W        W80580   8.322  31.847   2.410
12176W        W80581  40.435  23.050   3.209
12177W        W80582   7.200  41.347   1.650
12178W        W80583  30.572  10.332   1.235
12179W        W80584  23.902  38.587  11.249
12180W        W80585  14.627  10.368  14.362
12181W        W80586  12.112  44.900   4.558
12182W        W80587   6.356  12.237   2.404
12183W        W80588  39.343  35.394   3.763
12184W        W80589  14.111  41.911  13.320
12185W        W80590  25.459  17.220   1.151
12186W        W80591   6.407  32.050  11.922
12187W        W80592  17.535  32.642   4.222
12188W        W80593  11.232  33.004   4.887
12189W        W80594  16.186  41.514  11.631
12190W        W80595  11.928  31.455  13.455
12191W        W80596   8.809  24.618  12.609
12192W        W80597  12.164  43.602  12.964
12193W        W80598  18.843  31.499  14.382
12194W        W80599  40.881  16.637   3.936
12195W        W80600  39.038  25.225  13.836
12196W        W80601  11.362  37.392   0.208
12197W        W80602  34.324   1.922  11.204
12198W        W80603   2.018  26.537  10.475
12199W        W80604  36.288   3.752  12.029
12200W        W80605   3.615  17.490  11.207
12201W        W80606   4.455  43.286   1.745
12202W        W80607  26.925  16.584  13.519
12203W        W80608  40.924  35.706  14.388
12204W        W80609   1.149  35.928  14.358
12205W        W80610  17.536  21.663   3.304
12206W        W80611  27.119   6.334   3.141
12207W        W80612   9.204  38.756  14.483
12208W        W80613   6.356  14.114  12.154
12209W        W80614   9.771  13.671  12.927
12210W        W80615   3.881  38.971   3.847
12211W        W80616  33.569  13.385   1.924
12212W        W80617  31.312  25.970   3.550
12213W        W80618  23.008   8.654   1.262
12214W        W80619  22.542  34.925  12.074
12215W        W80620  22.186  32.961   2.644
12216W        W80621  25.058  27.517   0.673
12217W        W80622  17.733  37.964  13.859
12218W        W80623  37.559  41.368   4.555
12219W        W80624  17.561  24.679  11.620
12220W        W80625  35.585  21.708  13.594
12221W        W80626   7.927  41.238  14.622
12222W        W80627  35.131  21.054   0.745
12223W        W80628  18.525   6.351   1.912
12224W        W80629  28.433  24.118  12.137
12225W        W80630  42.968  17.325   0.936
12226W        W80631   8.389   5.865  11.517
12227W        W80632   2.487  10.876  14.040
12228W        W80633  29.368  42.290  13.885
12229W        W80634  12.944  28.378  11.158
12230W        W80635  44.245  17.103   1.371
12231W        W80636  42.532  19.983  12.583
12232W        W80637  30.715   8.099  13.684
12233W        W80638  15.782   6.426   0.876
12234W        W80639  25.655  36.168  12.788
12235W        W80640  27.469  35.632  11.420
12236W        W80641   1.512  14.351   4.001
12237W        W80642  43.665  18.770   0.121
12238W        W80643  12.247  35.733   1.863
12239W        W80644  42.016  13.813   3.224
12240W        W80645   4.236  25.724  14.367
12241W        W80646  39.009  12.039  14.781
12242W        W80647  41.240   1.333  12.303
12243W        W80648  18.687   5.463  13.319
12244W        W80649  36.143  30.049  12.622
12245W        W80650  30.155   0.598  12.489
12246W        W80651  31.103  11.913  11.575
12247W        W80652  44.417  37.758  14.827
12248W        W80653  12.941   4.646  14.064
12249W        W80654  29.719  36.540   0.221
12250W        W80655   3.707  12.488   2.162
12251W        W80656  27.481   3.905  13.050
12252W        W80657  24.983   2.371  13.260
12253W        W80658  31.979  10.533  11.231
12254W        W80659  40.698  12.624   5.041
12255W        W80660   8.358  34.430  11.530
12256W        W80661  15.401  13.073   1.628
12257W        W80662  19.087   7.574   1.195
12258W        W80663  18.055   2.281  13.614
12259W        W80664   7.449  18.743  14.830
12260W        W80665   3.970  39.243  14.733
12261W        W80666  14.736   5.461  13.985
12262W        W80667  44.292  29.793   0.193
12263W        W80668  21.896  31.173  12.650
12264W        W80669   9.671  37.339   2.696
12265W        W80670  23.028   0.271   3.161
12266W        W80671  20.079  22.761   2.277
12267W        W80672  27.046  10.319   1.347
12268W        W80673  32.314  22.812   0.470
12269W        W80674  43.755  12.014   4.176
12270W        W80675  44.458  14.748   2.278
12271W        W80676  15.994  14.877   2.847
12272W        W80677  38.483  42.663  13.153
12273W        W80678  21.298  19.194  11.344
12274W        W80679   8.383  17.354   2.694
12275W        W80680   4.867   1.496   2.718
12276W        W80681  25.294   8.814  11.487
12277W        W80682  36.382  14.759   4.087
12278W        W80683  34.539   3.780  14.464
12279W        W80684  31.062  39.438   1.356
12280W        W80685   4.932  39.024   2.409
12281W        W80686  39.357  13.373  10.704
12282W        W80687  15.502   8.747   2.951
12283W        W80688  10.660   9.967   1.306
12284W        W80689  44.056   5.974   2.175
12285W        W80690  10.264  11.639  12.620
12286W        W80691   3.266  30.437   4.141
12287W        W80692  41.998  15.325   3.165
12288W        W80693  12.551  31.081   0.911
12289W        W80694  18.805  27.699   4.440
12290W        W80695  13.298  16.400  12.798
12291W        W80696  40.043   1.305   4.345
12292W        W80697  24.093  29.021  14.213
12293W        W80698  40.792   2.733   1.338
12294W        W80699  19.659  25.479   3.120
12295W        W80700  40.013  19.887  12.632
12296W        W80701  13.865  12.381  10.935
12297W        W80702  15.473  41.304  10.280
12298W        W80703  37.016  27.196   0.533
12299W        W80704  13.615  27.086  14.414
12300W        W80705  41.297  33.089  12.936
12301W        W80706   2.173  29.434   3.591
12302W        W80707  19.451  11.058   4.669
12303W        W80708  29.946  27.703   3.675
12304W        W80709  19.762  30.419  11.148
12305W        W80710  19.099  41.547  13.042
12306W        W80711  40.684  43.046  11.649
12307W        W80712   8.180  16.787  13.394
12308W        W80713   6.976  24.648  13.965
12309W        W80714   0.907  25.280   0.981
12310W        W80715  37.776  10.189  13.477
12311W        W80716  18.512  15.263  14.397
12312W        W80717  25.420  30.672   1.400
12313W        W80718  43.073  27.217   3.759
12314W        W80719   2.065  41.090  13.466
12315W        W80720   9.097  39.316   0.288
12316W        W80721  38.608  36.411  11.581
12317W        W80722   4.323  33.686   1.028
12318W        W80723   2.763  37.440   0.741
12319W        W80724   7.033  36.206  14.983
12320W        W80725  18.722  40.075   2.720
12321W        W80726  15.529  23.034  12.062
12322W        W80727  32.836  31.473   3.125
12323W        W80728   6.122  23.435   0.203
12324W        W80729   4.305  15.611  10.675
12325W        W80730  35.743  43.319   0.749
12326W        W80731  23.225  17.480   1.449
12327W        W80732  22.802  28.226  12.398
12328W        W80733  25.717  25.996   0.832
12329W        W80734   4.490  25.213   3.122
12330W        W80735  15.511  29.526  13.273
12331W        W80736  36.207  38.687   0.918
12332W        W80737   9.135  43.359  14.127
12333W        W80738   9.570  26.415  14.892
12334W        W80739  13.814  10.768   2.645
12335W        W80740   1.429  39.417   4.778
12336W        W80741  19.826  11.191   3.810
12337W        W80742  33.446   3.628   0.187
12338W        W80743   2.705  39.076   2.853
12339W        W80744  36.076  26.426   3.410
12340W        W80745   0.077  30.983  11.172
12341W        W80746  18.044   4.727   1.672
12342W        W80747  14.827  35.091  14.359
12343W        W80748  14.108  34.655   0.426
12344W        W80749  36.848  44.623  10.729
12345W        W80750   9.819   6.802  10.650
12346W        W80751  20.796  12.396  13.897
12347W        W80752  21.137  39.505   2.668
12348W        W80753   3.570  31.557   4.583
12349W        W80754  26.204  11.627   5.027
12350W        W80755   5.846  25.831   3.632
12351W        W80756  18.498  12.657   4.201
12352W        W80757  16.168  33.067   4.253
12353W        W80758  22.706  24.500   4.545
12354W        W80759   5.262  35.989   3.506
12355W        W80760  17.824  29.107   3.142
12356W        W80761  25.076  30.112   1.391
12357W        W80762  13.339  34.162   1.865
12358W        W80763   0.003  15.611   2.063
12359W        W80764  43.427   3.986   1.356
12360W        W80765   3.715  35.713   5.352
12361W        W80766   6.504   7.078   0.244
12362W        W80767   2.279  27.024   2.761
12363W        W80768  24.674  31.897   4.252
12364W        W80769   4.392  27.557  13.927
12365W        W80770  43.106  41.337  10.403
12366W        W80771  25.106  22.666   3.103
12367W        W80772  12.792  39.828   1.546
12368W        W80773  15.772   0.802  12.901
12369W        W80774   9.437  32.646  10.721
12370W        W80775  28.282   7.585   4.119
12371W        W80776  14.345   5.461  13.545
12372W        W80777   5.581  40.084  14.585
12373W        W80778  41.794  27.203  14.964
12374W        W80779  12.564   3.813  11.813
12375W        W80780  18.425  32.067  12.520
12376W        W80781  28.982  30.176   1.738
12377W        W80782  40.322  33.481   2.100
12378W        W80783  18.770  10.486   2.752
12379W        W80784  26.307   6.504  11.981
12380W        W80785   9.305  21.124   3.210
12381W        W80786  10.723  36.136   4.544
12382W        W80787  35.948  10.023  12.034
12383W        W80788   0.981   7.608  11.732
12384W        W80789   1.420  18.641  13.055
12385W        W80790  33.725  29.166  11.659
12386W        W80791   3.946  30.852  11.168
12387W        W80792  28.811  10.833  11.066
12388W        W80793  15.308  42.484   0.346
12389W        W80794  40.969   1.531  14.000
12390W        W80795  13.562  23.223   0.778
12391W        W80796   8.819  37.768  10.526
12392W        W80797  43.342  33.630  12.561
12393W        W80798  34.537  44.053  11.959
12394W        W80799  13.274   5.265   1.775
12395W        W80800  22.864  41.063   3.472
12396W        W80801  41.304  28.907   1.449
12397W        W80802  42.796  40.947  14.755
12398W        W80803   4.890  28.562  12.485
12399W        W80804  43.091  27.949  11.147
12400W        W80805  27.266   2.262  11.501
12401W        W80806   7.804  37.040   1.695
12402W        W80807  18.690  39.745   1.188
12403W        W80808  35.578  27.723   2.819
12404W        W80809  18.223  38.213  11.171
12405W        W80810  42.785  27.912   1.785
12406W        W80811   4.665  38.068   2.790
12407W        W80812   0.838   1.980  13.396
12408W        W80813   1.816  38.850   1.248
12409W        W80814  11.092  10.376  13.535
12410W        W80815  17.520  39.314  10.174
12411W        W80816  40.347  26.549  14.355
12412W        W80817  15.269  11.716   0.952
12413W        W80818  11.307  28.052   3.340
12414W        W80819   6.622  31.162   1.733
12415W        W80820  11.140  22.073  10.699
12416W        W80821   5.197   3.245  13.430
12417W        W80822   1.980  24.686   1.167
12418W        W80823   6.807  39.314   3.684
12419W        W80824  15.748  23.220   1.662
12420W        W80825  17.064  40.878  13.147
12421W        W80826  29.940  15.357   4.049
12422W        W80827  31.101  18.096  12.691
12423W        W80828  25.708  37.529   0.459
12424W        W80829  44.873  19.689   4.908
12425W        W80830  31.629  12.606  13.848
12426W        W80831  21.577  37.581   0.059
12427W        W80832  11.236  31.538   3.233
12428W        W80833   9.322  34.490  10.565
12429W        W80834   1.186  20.601  10.677
12430W        W80835  31.964   5.440   0.334
12431W        W80836  24.437  12.296  14.752
12432W        W80837  43.239  25.982  12.089
12433W        W80838   5.468  11.412   2.204
12434W        W80839  16.719  34.383  13.292
12435W        W80840  28.436  24.584   0.686
12436W        W80841  25.464  29.710   0.488
12437W        W80842  16.023   0.568   3.042
12438W        W80843  18.103  36.460  14.413
12439W        W80844  19.094   2.256   2.754
12440W        W80845  29.486  17.351  12.053
12441W        W80846   1.858   7.435   4.174
12442W        W80847  26.868   6.290   0.872
12443W        W80848  35.064  37.391   4.695
12444W        W80849  24.188  37.782   4.043
12445W        W80850  25.237  38.423   0.680
12446W        W80851   7.833  14.010   3.582
12447W        W80852  37.767   4.503   3.575
12448W        W80853  12.614  37.922  10.567
12449W        W80854  43.532  18.015  13.027
12450W        W80855  16.996  43.886   1.718
12451W        W80856  19.653  23.356  14.987
12452W        W80857  13.069  28.166   2.882
12453W        W80858  11.131  30.191   1.751
12454W        W80859   4.811  33.952  11.592
12455W        W80860  20.955   9.427   0.967
12456W        W80861  36.476   2.207  14.255
12457W        W80862  16.518   1.924   4.192
12458W        W80863  37.462  24.926   0.941
12459W        W80864  42.387  17.673   3.960
12460W        W80865  25.250   4.862  14.819
12461W        W80866   3.280  32.793  12.137
12462W        W80867  17.589  13.889  13.553
12463W        W80868  28.658  35.397  12.005
12464W        W80869   8.110  32.063   1.314
12465W        W80870  16.772  42.047   2.386
12466W        W80871  14.929  21.307   0.989
12467W        W80872  20.479  10.595  14.495
12468W        W80873  28.777  38.955  11.064
12469W        W80874  39.856  27.137   0.872
12470W        W80875   4.757   3.493   0.357
12471W        W80876  41.517  31.577   4.394
12472W        W80877  36.146  11.302   1.794
12473W        W80878  39.056   5.795   4.298
12474W        W80879  21.979  39.358   1.873
12475W        W80880  40.462   4.625   2.362
12476W        W80881   9.455  34.339   3.376
12477W        W80882  26.139  12.080  12.445
12478W        W80883  42.031  44.504   5.048
12479W        W80884  34.817  10.246   2.754
12480W        W80885  17.868   1.057   2.273
12481W        W80886  42.890  33.356  14.403
12482W        W80887  14.240  40.573  13.338
12483W        W80888  22.513  26.061  12.774
12484W        W80889   8.909   0.941   2.232
12485W        W80890  11.656  11.180   3.642
12486W        W80891  44.225  39.977  12.514
12487W        W80892  26.035  43.399   0.875
12488W        W80893  14.758   7.697  12.900
12489W        W80894  35.012  11.173   0.218
12490W        W80895  15.562  14.066   1.863
12491W        W80896  15.143   2.934   5.346
12492W        W80897  44.202   1.612  13.913
12493W        W80898   0.820   5.404  10.910
12494W        W80899  35.379  26.147   3.976
12495W        W80900   4.753   0.279   0.371
12496W        W80901  41.759  35.969   0.852
12497W        W80902  21.751  12.714   2.819
12498W        W80903  34.580   0.133   0.172
12499W        W80904  41.592  20.130   0.942
12500W        W80905  37.692  29.064  11.615
12501W        W80906  30.636  38.024   3.824
12502W        W80907  12.544   0.319  13.872
12503W        W80908  30.126   2.253  11.503
12504W        W80909  41.565  31.887  14.519
12505W        W80910  10.869  42.920   0.382
12506W        W80911  29.049   9.821   2.817
12507W        W80912   6.337  14.748   2.323
12508W        W80913  20.398  44.844  12.815
12509W        W80914  19.708  19.107   2.254
12510W        W80915  35.479  40.018   0.861
12511W        W80916   2.934  24.504   4.666
12512W        W80917   2.297  38.504  11.138
12513W        W80918  11.423  27.933  13.574
12514W        W80919  32.014  23.283  12.472
12515W        W80920  15.110  21.900  12.321
12516W        W80921  19.050  23.780   2.748
12517W        W80922  11.327  28.261   1.293
12518W        W80923   0.323  17.882   2.240
12519W        W80924  16.671   0.528   4.191
12520W        W80925  26.013  43.220  10.341
12521W        W80926  37.833   9.848   4.622
12522W        W80927  28.404  29.559  12.328
12523W        W80928   4.880  18.714  12.392
12524W        W80929  22.558  14.271   0.452
12525W        W80930  31.496  35.700   1.211
12526W        W80931  37.388  30.160   1.922
12527W        W80932  32.345  14.142  12.814
12528W        W80933   2.786  36.285  13.393
12529W        W80934   6.803  38.814   4.175
12530W        W80935  29.276   3.439   3.247
12531W        W80936  28.515  13.308  13.615
12532W        W80937  26.389  38.469   4.142
12533W        W80938   8.721  25.149  14.395
12534W        W80939  29.819   0.864   0.729
12535W        W80940  30.972  38.798  11.547
12536W        W80941   8.408   8.950  14.580
12537W        W80942  18.578  29.986   2.367
12538W        W80943   0.283  28.284  13.795
12539W        W80944  37.887   5.097  10.863
12540W        W80945  13.875  16.113   0.395
12541W        W80946  21.280  44.579  11.118
12542W        W80947  25.637  26.593   2.646
12543W        W80948  19.574  39.342  12.832
12544W        W80949  22.003  20.515   1.316
12545W        W80950  27.925  22.231  13.537
12546W        W80951  38.471  38.549   1.502
12547W        W80952  27.931  42.852  13.066
12548W        W80953  41.280  30.230  11.191
12549W        W80954  39.401   5.481  12.783
12550W        W80955   8.785  25.552   1.255
12551W        W80956  27.646  31.941   0.378
12552W        W80957  37.362  28.255  11.544
12553W        W80958  13.661  23.472  11.976
12554W        W80959  13.659  13.573  12.142
12555W        W80960   9.101   0.593   0.148
12556W        W80961   9.291  41.452  12.330
12557W        W80962  25.969  19.140  13.452
12558W        W80963  27.994   8.670  11.020
12559W        W80964  32.603  13.355  11.581
12560W        W80965  13.158  22.797   2.757
12561W        W80966   1.356   1.810  14.379
12562W        W80967  10.864  22.431  10.435
12563W        W80968  40.409  40.851   1.494
12564W        W80969   7.241  44.495  10.657
12565W        W80970   8.600   8.657   0.901
12566W        W80971  13.643  25.555   1.002
12567W        W80972  10.130  29.654   3.350
12568W        W80973  44.881   2.949   1.932
12569W        W80974   2.323  15.038  12.983
12570W        W80975  34.836  21.172   3.187
12571W        W80976  41.308  28.537  14.534
12572W        W80977  17.331   1.433   4.176
12573W        W80978  44.388  10.079   4.571
12574W        W80979   5.684  43.878   1.741
12575W        W80980   2.886  40.011  12.291
12576W        W80981  41.671  32.186   5.000
12577W        W80982   2.811  15.599  11.638
12578W        W80983  24.861  26.147  11.183
12579W        W80984   1.749  21.183   0.806
12580W        W80985  14.769   4.241  13.492
12581W        W80986  13.651  17.617  13.590
12582W        W80987  43.068   8.117  13.953
12583W        W80988  44.887  39.448   0.406
12584W        W80989  24.903  29.882  14.331
12585W        W80990   1.017  27.952   4.597
12586W        W80991  20.857  37.269  13.471
12587W        W80992  38.054  14.173   0.872
12588W        W80993   8.784  36.349  12.519
12589W        W80994  37.038   8.359   3.650
12590W        W80995  17.889  32.641  12.179
12591W        W80996  34.064  27.384   4.121
12592W        W80997   4.012   7.759  14.391
12593W        W80998   1.497  35.136  12.371
12594W        W80999  25.038  43.497   3.613
12595W        W81000  30.477  43.372   3.489
12596W        W81001  43.077  21.633   1.277
12597W        W81002  20.704  16.239  12.179
12598W        W81003  28.739   8.256   2.826
12599W        W81004  44.191  18.494   1.763
12600W        W81005  26.451   1.861  14.039
12601W        W81006   7.181  43.051   1.341
12602W        W81007  30.010   6.150   3.181
12603W        W81008   5.721  34.525  13.072
12604W        W81009  32.451   0.747   1.885
12605W        W81010  36.228  24.709  12.168
12606W        W81011  16.687  17.771   3.163
12607W        W81012  22.956  33.918  14.873
12608W        W81013  21.940  26.016   1.030
12609W        W81014  42.327   7.161  14.908
12610W        W81015  13.035  34.899   4.672
12611W        W81016   4.898   0.817   0.233
12612W        W81017   0.469  28.577   4.126
12613W        W81018  15.853  39.017   4.116
12614W        W81019   2.201  25.586  12.968
12615W        W81020  29.134  26.000   0.033
12616W        W81021   7.196   2.879  11.842
12617W        W81022  32.150  27.855  10.713
12618W        W81023  31.200  35.887  11.720
12619W        W81024  13.868  19.684   1.336
12620W        W81025   9.446   0.198   5.465
12621W        W81026  35.397  18.535   2.376
12622W        W81027  20.734   1.030  11.925
12623W        W81028  17.616   6.951   5.347
12624W        W81029   9.430  42.993  13.912
12625W        W81030  24.219  35.922   3.830
12626W        W81031  42.298   5.913   1.694
12627W        W81032  14.498  41.411   3.074
12628W        W81033  13.346  20.726  13.851
12629W        W81034  29.278  11.149   3.654
12630W        W81035   6.807   7.423   2.615
12631W        W81036  31.064   6.796   4.951
12632W        W81037   4.376  15.164   1.718
12633W        W81038  10.208  17.196   1.522
12634W        W81039  27.772  20.568  11.063
12635W        W81040   5.230  29.579   0.675
12636W        W81041   7.370  10.309  12.581
12637W        W81042  33.344  32.038   4.767
12638W        W81043   1.219  22.280  14.013
12639W        W81044  29.072  14.689  10.902
12640W        W81045  21.760  30.007  12.476
12641W        W81046  29.039   9.306   2.697
12642W        W81047  36.160  19.719   0.216
12643W        W81048  22.192  40.313  14.366
12644W        W81049  35.835  30.041  13.058
12645W        W81050   5.343  36.969  13.472
12646W        W81051   8.116  16.664   3.118
12647W        W81052   0.835  18.345  13.058
12648W        W81053   7.456  18.750  11.620
12649W        W81054  15.765  15.812  11.716
12650W        W81055  14.242  19.516   3.401
12651W        W81056  31.950  29.945   0.746
12652W        W81057  29.914  24.147   4.077
12653W        W81058  39.554  40.309  11.493
12654W        W81059  17.042  16.570  14.710
12655W        W81060  25.551  41.275  10.166
12656W        W81061   0.943  43.122   0.199
12657W        W81062  35.205  35.806  13.510
12658W        W81063  18.236  34.422   1.667
12659W        W81064  27.490  14.806   3.108
12660W        W81065  36.283  23.893   1.449
12661W        W81066  11.877  23.975   3.098
12662W        W81067  16.035  18.763   1.714
12663W        W81068  41.390   8.233  14.746
12664W        W81069  44.898   7.221  10.240
12665W        W81070   4.120  11.471   0.877
12666W        W81071  41.774   0.817   0.073
12667W        W81072   0.979  41.827  14.913
12668W        W81073  10.513  19.073  12.913
12669W        W81074  36.533  38.570   1.386
12670W        W81075  41.981  31.457  14.026
12671W        W81076  34.052  16.011   4.906
12672W        W81077   6.897  35.876  12.573
12673W        W81078  22.135  32.610   4.909
12674W        W81079  41.495  41.024  13.615
12675W        W81080   9.175   5.865   2.366
12676W        W81081  12.318   5.077  13.181
12677W        W81082  37.397  40.180  12.819
12678W        W81083   3.826  41.005   4.500
12679W        W81084  38.723  40.966  10.771
12680W        W81085  20.651  41.996  12.851
12681W        W81086   6.902   4.866  12.898
12682W        W81087  24.015   5.244  11.674
12683W        W81088  30.846  33.296  11.181
12684W        W81089  37.546  44.522   0.363
12685W        W81090  23.120  27.248  14.960
12686W        W81091  43.896  14.259   2.129
12687W        W81092  26.515  17.189   2.277
12688W        W81093  28.538  25.510  11.529
12689W        W81094  32.128  38.063   2.908
12690W        W81095  26.631  35.579  10.396
12691W        W81096  12.202  29.160  10.856
12692W        W81097  20.258   1.844   3.124
12693W        W81098   3.468  29.365   1.388
12694W        W81099  32.315  43.800   1.408
12695W        W81100  25.649  25.198  11.726
12696W        W81101   4.957  42.384   3.774
12697W        W81102  38.000  35.370  11.082
12698W        W81103  14.178  16.504  11.525
12699W        W81104   2.887  39.059  12.556
12700W        W81105  18.338  25.471   1.820
12701W        W81106  35.900  18.333   0.009
12702W        W81107  11.322  23.967   2.182
12703W        W81108  33.330  15.530  10.078
12704W        W81109  15.408  35.462  11.206
12705W        W81110   7.285  18.274  14.960
12706W        W81111  13.880  39.472   2.661
12707W        W81112  21.053  36.539   4.147
12708W        W81113  25.523   0.796   2.699
12709W        W81114  12.778   8.716   2.659
12710W        W81115  39.937  25.304   4.974
12711W        W81116   3.609  14.078  10.292
12712W        W81117  42.481  20.070   3.273
12713W        W81118  14.045  13.750  14.351
12714W        W81119  43.022  12.654  10.660
12715W        W81120  31.521  12.148   2.755
12716W        W81121  43.839  30.923  10.545
12717W        W81122   6.251  20.954  10.348
12718W        W81123   7.463   6.267   4.603
12719W        W81124  26.756   2.981   0.207
12720W        W81125  26.570   6.686   4.520
12721W        W81126  12.519   9.828   3.236
12722W        W81127  35.153  20.297  12.072
12723W        W81128  27.503  27.449   1.047
12724W        W81129   2.802  17.559  11.214
12725W        W81130  22.467  44.409   9.939
12726W        W81131  40.992  41.268   1.236
12727W        W81132  17.980  24.779   9.862
12728W        W81133  17.307   0.982   4.444
12729W        W81134  32.160  15.750   0.588
12730W        W81135  42.903  43.896  11.873
12731W        W81136  44.003  40.787   0.727
12732W        W81137  19.252  34.407  11.846
12733W        W81138  13.240  23.455  10.786
12734W        W81139  14.345  35.572   4.689
12735W        W81140   4.300  34.757  10.820
12736W        W81141  43.414   5.940   0.893
12737W        W81142  28.174   9.764   3.368
12738W        W81143  40.236   6.859  13.427
12739W        W81144  13.393  10.330  11.829
12740W        W81145   6.520  26.763   0.765
12741W        W81146  15.860  17.830  12.135
12742W        W81147  18.148  42.395   3.652
12743W        W81148  33.868  20.748   3.359
12744W        W81149   0.404  21.721  14.876
12745W        W81150  25.248  38.935   1.579
12746W        W81151   1.814  27.913  13.021
12747W        W81152  27.638  41.451  13.087
12748W        W81153  30.882  28.669  13.978
12749W        W81154  40.536  21.115  13.486
12750W        W81155  42.842   9.432   2.138
12751W        W81156  21.525  14.720   1.724
12752W        W81157  28.244  18.974  13.741
12753W        W81158  24.492  25.241  10.929
12754W        W81159  30.006   8.353   1.057
12755W        W81160  25.895  17.741  14.400
12756W        W81161  31.032  14.796  11.416
12757W        W81162  20.984  27.497   1.934
12758W        W81163  22.251  18.595   1.846
12759W        W81164  24.517  34.105  12.050
12760W        W81165  29.524  38.254   2.298
12761W        W81166  14.833  19.022   3.166
12762W        W81167  23.176  27.176   0.847
12763W        W81168  16.229  34.004  12.020
12764W        W81169  16.154  24.176  10.727
12765W        W81170  22.123   4.159  11.936
12766W        W81171   3.626  39.963  14.366
12767W        W81172  37.514  28.523  14.732
12768W        W81173  42.472  12.348   2.928
12769W        W81174  24.729  13.665   0.714
12770W        W81175  26.746   2.964   2.315
12771W        W81176  27.464  37.834  13.726
12772W        W81177   2.051  32.657  11.947
12773W        W81178  14.738  44.218  12.854
12774W        W81179   1.201  42.882   1.556
12775W        W81180  35.347  40.440   4.113
12776W        W81181  28.207  30.488   4.374
12777W        W81182  29.580  41.077  11.502
12778W        W81183  16.079  27.400   2.386
12779W        W81184  17.907   0.018   3.321
12780W        W81185  10.096  35.937  10.228
12781W        W81186  36.611  42.469   1.114
12782W        W81187  38.800  18.547   1.436
12783W        W81188  16.050   8.256  13.289
12784W        W81189  44.914  44.562   0.888
12785W        W81190  12.599  31.970   4.827
12786W        W81191  44.336  37.444  12.307
12787W        W81192  18.524  15.757   2.715
12788W        W81193  30.167  43.808   0.739
12789W        W81194  14.625  42.218  12.039
12790W        W81195   1.035   7.241   0.805
12791W        W81196  25.447  27.593   2.877
12792W        W81197  24.038  23.799   3.646
12793W        W81198  23.107  32.551  12.548
12794W        W81199  38.858  20.084   0.056
12795W        W81200  18.587   4.867   1.728
12796W        W81201  17.248  41.382   3.905
12797W        W81202   0.277   5.270  13.379
12798W        W81203  21.143  20.647  13.489
12799W        W81204  15.658  32.645   1.421
12800W        W81205   4.286   4.270  13.807
12801W        W81206  32.858  16.824  12.071
12802W        W81207  11.898  41.255  12.039
12803W        W81208  38.591  42.248  12.848
12804W        W81209  34.072   7.679   0.705
12805W        W81210   3.570   5.424   5.478
12806W        W81211  36.006  27.733  14.801
12807W        W81212   5.102  44.826   2.814
12808W        W81213  25.522  40.943  13.273
12809W        W81214  25.030  40.430  11.166
12810W        W81215  40.003  23.303  11.953
12811W        W81216   0.408  13.078  11.194
12812W        W81217  10.356  30.696   1.786
12813W        W81218   9.319  43.608  11.550
12814W        W81219   9.075  15.740  13.127
12815W        W81220  44.111   7.722   4.740
12816W        W81221  39.515  12.664   2.940
12817W        W81222  38.890  11.210   2.953
12818W        W81223  44.657   9.418   5.328
12819W        W81224  24.112  14.076   3.259
12820W        W81225  26.609   5.152  12.305
12821W        W81226   7.916  27.708  12.391
12822W        W81227  14.507  44.265   2.893
12823W        W81228  16.275  25.734  11.103
12824W        W81229  31.835   6.274   3.294
12825W        W81230  37.679  36.145   3.155
12826W        W81231  33.121   1.863  14.328
12827W        W81232   5.776   2.370   0.748
12828W        W81233   5.149  13.486   2.801
12829W        W81234  24.668  39.415  10.446
12830W        W81235  33.569  16.736   4.348
12831W        W81236  42.270  21.988  11.605
12832W        W81237   2.249   7.568  10.372
12833W        W81238   0.821  16.687  11.894
12834W        W81239   4.815  24.326  11.569
12835W        W81240  24.003  31.082   0.324
12836W        W81241  43.313  31.158  10.619
12837W        W81242  42.429  26.764   3.320
12838W        W81243  10.243  12.390   3.414
12839W        W81244   8.893  10.610  13.128
12840W        W81245  11.330  30.029   3.268
12841W        W81246  16.803   1.451   4.135
12842W        W81247  13.453  11.371  13.161
12843W        W81248  17.598  34.254  12.841
12844W        W81249  42.380   9.428   2.370
12845W        W81250   9.968  32.370   2.332
12846W        W81251   4.353  28.568   3.826
12847W        W81252  23.992  22.488  10.951
12848W        W81253  40.970  23.300   1.581
12849W        W81254  30.064  34.852   2.219
12850W        W81255  18.206  39.514   3.727
12851W        W81256   7.165  27.677  11.964
12852W        W81257   8.672   4.846   4.572
12853W        W81258   4.609   4.319  10.201
12854W        W81259  18.750  39.278   0.911
12855W        W81260  14.194   6.886   4.014
12856W        W81261   8.599  31.218   5.068
12857W        W81262  36.071  21.256   3.190
12858W        W81263  13.860   9.882   1.108
12859W        W81264   0.811   6.139  12.502
12860W        W81265   8.403  17.675  11.190
12861W        W81266  32.135   3.358  13.624
12862W        W81267  11.824  10.785  14.412
12863W        W81268  29.704  13.086   3.656
12864W        W81269  37.677  31.349  11.056
12865W        W81270  42.366  22.531   2.263
12866W        W81271  44.382   2.952   3.429
12867W        W81272  17.547   9.790  12.493
12868W        W81273  16.554  44.844   2.728
12869W        W81274  17.616  29.046   1.880
12870W        W81275  18.176  35.856  13.604
12871W        W81276  36.735  19.325   2.157
12872W        W81277   5.048  39.531   3.289
12873W        W81278  19.252  33.286  10.728
12874W        W81279  15.140  22.770  11.219
12875W        W81280  35.048  23.133   3.348
12876W        W81281  30.114   6.880   2.146
12877W        W81282  32.449   8.207  13.961
12878W        W81283  10.801  22.206  12.559
12879W        W81284   1.447  18.978   0.891
12880W        W81285  43.022  39.276   3.711
12881W        W81286  42.391  25.587   0.725
12882W        W81287  27.842   0.773  13.172
12883W        W81288  21.280  17.139   3.235
12884W        W81289   5.409  35.347   2.868
12885W        W81290  33.311  30.056   3.739
12886W        W81291   0.518  13.844   0.751
12887W        W81292  16.196  27.636  10.915
12888W        W81293  30.376  25.472  11.249
12889W        W81294   7.006  35.842   3.011
12890W        W81295  40.742  44.815   2.144
12891W        W81296  32.965  11.261  10.354
12892W        W81297  17.519   9.786   2.649
12893W        W81298  21.532  41.777   0.341
12894W        W81299   9.680  40.250   4.088
12895W        W81300  11.422  21.188   3.176
12896W        W81301  22.774  28.604   4.209
12897W        W81302  19.772  38.131   4.147
12898W        W81303  40.031  12.279  13.878
12899W        W81304   9.158  19.557   1.711
12900W        W81305  42.489  42.288   4.868
12901W        W81306  20.432  20.016  14.864
12902W        W81307  40.504  17.720   3.780
12903W        W81308  26.188   6.293  14.620
12904W        W81309   9.265  27.824   5.251
12905W        W81310  34.821  44.536   4.456
12906W        W81311  20.880  26.048   0.406
12907W        W81312  16.361   6.666   2.878
12908W        W81313   5.688  14.467  10.971
12909W        W81314  24.203  12.795   2.728
12910W        W81315  43.353  41.773   4.101
12911W        W81316  41.493   1.331   4.342
12912W        W81317  34.251  36.327  10.938
12913W        W81318  18.535  28.057   1.270
12914W        W81319  32.247  37.354  12.905
12915W        W81320  34.890  34.098   0.207
12916W        W81321  19.346  12.724   1.347
12917W        W81322  22.332  29.013   5.063
12918W        W81323   3.485  25.590  13.991
12919W        W81324   6.968   5.000  10.969
12920W        W81325  18.671  41.900  10.637
12921W        W81326   4.316  37.482  12.886
12922W        W81327  17.697   9.888  13.882
12923W        W81328   2.250  16.903  10.732
12924W        W81329  26.662  28.952   4.384
12925W        W81330   9.335  24.941   0.934
12926W        W81331  39.487  25.643  14.400
12927W        W81332  36.849  33.863  14.193
12928W        W81333  29.081   3.277   5.095
12929W        W81334  25.554  25.978  12.175
12930W        W81335  33.425  42.443   0.402
12931W        W81336  33.158  35.868  13.510
12932W        W81337  15.344  35.363   5.488
12933W        W81338  27.153  28.937   4.175
12934W        W81339   2.508  37.465  10.753
12935W        W81340  20.070   4.436   0.803
12936W        W81341  23.697  31.794  10.490
12937W        W81342   0.751   8.562  11.232
12938W        W81343  32.833   2.223   4.351
12939W        W81344  20.643  13.197   4.949
12940W        W81345   7.237  40.377   1.330
12941W        W81346  31.117  37.112   4.122
12942W        W81347  11.760  18.512  14.014
12943W        W81348  24.034  14.271  12.469
12944W        W81349   9.251  26.653   2.729
12945W        W81350   5.155  43.365  12.674
12946W        W81351  14.878  40.091  11.540
12947W        W81352  24.647  27.435  10.819
12948W        W81353  24.463  17.234   2.234
12949W        W81354  21.581   3.254  11.122
12950W        W81355  13.180  32.893   1.372
12951W        W81356  18.877  38.112  14.685
12952W        W81357  26.412  34.949   1.288
12953W        W81358  34.213  39.209  12.173
12954W        W81359  41.099  13.535   4.203
12955W        W81360  43.435  31.308  11.772
12956W        W81361  44.661   0.896   3.766
12957W        W81362  39.768   5.783   3.706
12958W        W81363  10.601   3.922   2.100
12959W        W81364   0.093  27.043  13.536
12960W        W81365  23.986  25.829  10.491
12961W        W81366  34.983  20.114  14.913
12962W        W81367   9.278  20.558  12.982
12963W        W81368   4.863   0.898   4.015
12964W        W81369  14.888  26.712   4.136
12965W        W81370   9.384  26.677  14.489
12966W        W81371  15.561  43.756  10.413
12967W        W81372  22.876  32.893   3.205
12968W        W81373  28.055  12.826   2.558
12969W        W81374  14.205   2.046  14.997
12970W        W81375   3.634  26.748  10.064
12971W        W81376  25.638  35.061  11.986
12972W        W81377   1.586  21.777  11.606
12973W        W81378  44.710  24.623   3.728
12974W        W81379   8.686   3.876  12.439
12975W        W81380  19.811  24.716   3.628
12976W        W81381   7.796   5.716  10.739
12977W        W81382   1.206  42.568   0.806
12978W        W81383   0.941  36.777  11.198
12979W        W81384   6.534   4.213  13.028
12980W        W81385  23.671  23.722   1.957
12981W        W81386  18.320  11.395  13.896
12982W        W81387  39.166  12.736  12.482
12983W        W81388  25.835   8.663   2.887
12984W        W81389   6.387  11.678   2.292
12985W        W81390  21.576  38.462  13.503
12986W        W81391   9.386  43.209  11.881
12987W        W81392  15.150   1.711   0.515
12988W        W81393  24.678  36.821  12.479
12989W        W81394  16.330  27.907   0.792
12990W        W81395  31.702  27.376  14.106
12991W        W81396  16.791  32.549  12.843
12992W        W81397  26.742  32.125  13.370
12993W        W81398  30.859   2.404   1.432
12994W        W81399  20.853  42.298   1.784
12995W        W81400  42.474  23.823  12.175
12996W        W81401   2.854  30.687  13.229
12997W        W81402  14.139  14.181  12.542
12998W        W81403  24.472  29.953   3.324
12999W        W81404  42.820  13.074   0.725
13000W        W81405  34.938   2.445   4.315
13001W        W81406  44.272  42.775   1.962
13002W        W81407  41.670  13.043   2.761
13003W        W81408  20.023   3.424   1.595
13004W        W81409  27.010  33.893   2.406
13005W        W81410  39.805  37.477   2.204
13006W        W81411  26.077   9.431  11.136
13007W        W81412   2.029  12.074  12.120
13008W        W81413  10.780  39.320  10.403
13009W        W81414  15.627   5.658   1.339
13010W        W81415  32.987  20.328  13.639
13011W        W81416  15.302  36.295  12.485
13012W        W81417  34.857   2.824   3.027
13013W        W81418  32.170  13.794   2.242
13014W        W81419   6.311  33.310  13.953
13015W        W81420  20.677   8.332   2.936
13016W        W81421  24.127  26.883  14.379
13017W        W81422  19.305   7.989  14.338
13018W        W81423  27.732  28.553  13.009
13019W        W81424  19.630   5.936  13.908
13020W        W81425  30.339  12.044  12.502
13021W        W81426   2.454  32.927  13.463
13022W        W81427   2.580  13.038   2.241
13023W        W81428  18.279   2.425  12.466
13024W        W81429  33.556  28.251   4.367
13025W        W81430   4.669  32.425   2.233
13026W        W81431  25.968  28.130   2.768
13027W        W81432  27.707  30.633   2.738
13028W        W81433   0.466  22.150   0.433
13029W        W81434  27.678  30.039  12.360
13030W        W81435   4.277  17.952  12.506
13031W        W81436  11.134  18.530   3.753
13032W        W81437   0.213  33.238   3.178
13033W        W81438   8.412  28.972  14.005
13034W        W81439  20.945  31.005  10.729
13035W        W81440   5.731  32.714   1.345
13036W        W81441  11.779   8.444   1.794
13037W        W81442  42.921  41.806   3.280
13038W        W81443  14.590  35.150   1.232
13039W        W81444  41.858  14.649   2.870
13040W        W81445  16.226  29.402  14.344
13041W        W81446  40.870   3.985   1.793
13042W        W81447  38.676   1.454  10.620
13043W        W81448  41.087  30.495   5.017
13044W        W81449  22.751  32.320  14.800
13045W        W81450  37.279  35.001   1.455
13046W        W81451  20.100   1.173   0.337
13047W        W81452  20.313  10.408  12.578
13048W        W81453  43.820  14.770  12.657
13049W        W81454   5.405  44.981   2.033
13050W        W81455  28.547  15.184   0.791
13051W        W81456   4.420  30.873   4.662
13052W        W81457  41.594  40.567   1.240
13053W        W81458  42.863  34.362  14.427
13054W        W81459  16.157  35.323  11.406
13055W        W81460   3.939  14.576   4.946
13056W        W81461  42.939  41.507   0.907
13057W        W81462  38.455  37.892   0.215
13058W        W81463   7.409  19.241   0.349
13059W        W81464  24.018  13.354  11.214
13060W        W81465   5.786  37.673  12.489
13061W        W81466  38.963  31.623  13.731
13062W        W81467  24.432  41.404  14.547
13063W        W81468  11.447  40.226   9.994
13064W        W81469  30.671  38.002  13.916
13065W        W81470  35.392  14.335   4.915
13066W        W81471  27.269   4.627  13.324
13067W        W81472   0.691  29.417   3.883
13068W        W81473  35.540  12.056   3.127
13069W        W81474   3.224  11.322   4.826
13070W        W81475  31.585  37.445  11.480
13071W        W81476  31.656  15.852  10.544
13072W        W81477  25.133  14.289   0.019
13073W        W81478  39.790   0.513   3.700
13074W        W81479   5.666  40.514   1.524
13075W        W81480   1.869  29.590  13.092
13076W        W81481  21.125   1.261  11.285
13077W        W81482  27.593  43.197   2.419
13078W        W81483  16.995   6.112  11.751
13079W        W81484  39.334   0.751  13.926
13080W        W81485  21.408  19.110   1.325
13081W        W81486   2.880  14.129  14.718
13082W        W81487  39.473  42.254  10.465
13083W        W81488   2.980  40.361  13.079
13084W        W81489  28.750  43.873  12.475
13085W        W81490   0.568   1.876  14.798
13086W        W81491  31.094   6.163  12.082
13087W        W81492  11.368  22.008  12.472
13088W        W81493   8.700  18.043   0.874
13089W        W81494  36.305  13.853   3.274
13090W        W81495  25.582   8.322   1.614
13091W        W81496   7.895   8.247  12.085
13092W        W81497  40.581   0.862   4.663
13093W        W81498  29.764   3.957   2.359
13094W        W81499  16.321  41.327   2.728
13095W        W81500  37.822  39.513  11.658
13096W        W81501  37.958   0.961  12.932
13097W        W81502  26.094  16.523   2.376
13098W        W81503  17.398   9.190  12.989
13099W        W81504  15.739  18.317   3.374
13100W        W81505   1.903   1.860   2.451
13101W        W81506  40.497  38.430  14.204
13102W        W81507  23.069   6.718   1.185
13103W        W81508  20.734  43.519  13.916
13104W        W81509  29.183   0.320  10.587
13105W        W81510  24.133  29.877   1.752
13106W        W81511  22.180  29.568   0.019
13107W        W81512  25.600  36.125  11.117
13108W        W81513  12.958  43.763  11.962
13109W        W81514  32.551  24.525   1.662
13110W        W81515  16.203   2.351  13.180
13111W        W81516   1.236   6.467  12.561
13112W        W81517  14.755  25.135  10.759
13113W        W81518  31.474  43.254   4.143
13114W        W81519  38.915  31.862  12.501
13115W        W81520  30.422  32.856   2.403
13116W        W81521  27.133   9.779  10.580
13117W        W81522  35.001  30.867   4.094
13118W        W81523  16.466  29.198   0.512
13119W        W81524   4.962  30.913  11.064
13120W        W81525  14.263  41.894   0.191
13121W        W81526  39.309  28.261  10.165
13122W        W81527  25.501  43.008  12.062
13123W        W81528  39.051  26.889  10.473
13124W        W81529  34.062  31.074   4.778
13125W        W81530  16.559   6.266  11.547
13126W        W81531  10.508  38.862  11.538
13127W        W81532  11.309  34.249  12.892
13128W        W81533   8.608   0.885   3.167
13129W        W81534  31.373   0.007  13.373
13130W        W81535   0.764  41.263  11.671
13131W        W81536  43.986  26.257   3.942
13132W        W81537  33.129  23.095   1.164
13133W        W81538  18.261  20.383   5.063
13134W        W81539  16.996   8.636  12.248
13135W        W81540  43.059  10.226   1.173
13136W        W81541  22.051  44.940  14.053
13137W        W81542   6.819  39.159   2.253
13138W        W81543  23.999  32.626  13.049
13139W        W81544   2.848  20.284  12.448
13140W        W81545   5.853   9.292   3.913
13141W        W81546  27.278  37.942  12.307
13142W        W81547  29.432  11.455  14.787
13143W        W81548  23.051   9.060   0.331
13144W        W81549  18.046  17.409   3.257
13145W        W81550  10.936  35.514  14.630
13146W        W81551  25.242  32.886   0.984
13147W        W81552  40.821  39.164   3.585
13148W        W81553  21.424   4.997  11.077
13149W        W81554  33.731  35.330   0.657
13150W        W81555  13.341  44.989   4.334
13151W        W81556  32.130  42.901  12.880
13152W        W81557   3.481  37.271   1.751
13153W        W81558   4.066   7.639   9.935
13154W        W81559  24.657  20.719  13.892
13155W        W81560  32.699  15.830   4.133
13156W        W81561  42.466  15.181   4.861
13157W        W81562   3.986  44.242  14.980
13158W        W81563  12.729  44.011  12.574
13159W        W81564  26.405   7.711  11.655
13160W        W81565  25.215   4.600   2.662
13161W        W81566   7.870  15.081   0.881
13162W        W81567  42.989  21.074   1.266
13163W        W81568  41.956  29.686  13.458
13164W        W81569   0.793  11.776  11.466
13165W        W81570  26.699  35.516   2.852
13166W        W81571  12.338  31.841   1.427
13167W        W81572  29.924  17.921  13.495
13168W        W81573  21.465  35.849   0.357
13169W        W81574  11.562  28.969   4.857
13170W        W81575   3.966  27.624   4.171
13171W        W81576  21.570  34.785  13.457
13172W        W81577   2.223  38.078  13.914
13173W        W81578  23.462  15.191   3.668
13174W        W81579  18.679  14.310  13.881
13175W        W81580  33.558  30.454  14.174
13176W        W81581  11.435  43.479   0.064
13177W        W81582  20.545   2.487   1.687
13178W        W81583  16.550   2.694   2.802
13179W        W81584  40.457  36.547  14.385
13180W        W81585  40.912   7.732  14.601
13181W        W81586   6.988  13.870   3.200
13182W        W81587  35.154  33.850  13.929
13183W        W81588   5.482  30.083   0.016
13184W        W81589  12.875   6.289   1.007
13185W        W81590  18.670  40.528  11.579
13186W        W81591   7.365  33.373   2.300
13187W        W81592  20.725  26.033  14.878
13188W        W81593  34.182  36.184  11.965
13189W        W81594  27.572  28.066   4.228
13190W        W81595  12.105  30.824  14.355
13191W        W81596  24.589  22.169   3.722
13192W        W81597  39.323  38.059   4.431
13193W        W81598  43.475   4.934  10.519
13194W        W81599   8.391  33.102   1.890
13195W        W81600  24.304  13.499   0.355
13196W        W81601  44.651  26.533   0.645
13197W        W81602  31.157  33.139   1.376
13198W        W81603  10.904  25.992  14.890
13199W        W81604   8.486   6.270   2.404
13200W        W81605  36.217   3.702   3.370
13201W        W81606  17.092  14.913  13.778
13202W        W81607   1.689  39.339   1.070
13203W        W81608  14.777  19.966  11.489
13204W        W81609  38.208  40.811  13.096
13205W        W81610  31.945  38.959   1.228
13206W        W81611   0.456  40.390   4.732
13207W        W81612  37.093   9.766   2.616
13208W        W81613  30.213  16.039  11.743
13209W        W81614  14.092   4.004   0.799
13210W        W81615  27.609  37.276   3.638
13211W        W81616  17.232  42.149   0.362
13212W        W81617   2.776  44.896   0.730
13213W        W81618  34.554  14.200   2.254
13214W        W81619  42.296  35.358  13.593
13215W        W81620  21.260  43.240  11.146
13216W        W81621  38.868   9.389  11.071
13217W        W81622  34.311  32.389  14.328
13218W        W81623  14.194  22.166   4.216
13219W        W81624   3.575  42.272  12.253
13220W        W81625  16.158   0.217  10.495
13221W        W81626   0.694  33.789  11.604
13222W        W81627  35.662   9.496  11.594
13223W        W81628  31.781  39.529   5.042
13224W        W81629  17.377  34.874  11.028
13225W        W81630  15.597  37.351  10.019
13226W        W81631  37.675  41.245   0.966
13227W        W81632  41.412  42.405   0.859
13228W        W81633   1.452  16.135   1.570
13229W        W81634  17.620   5.703  11.169
13230W        W81635   0.860  18.869   3.153
13231W        W81636  30.923  16.605  13.996
13232W        W81637  40.772  15.918  13.912
13233W        W81638  39.862   5.921  14.273
13234W        W81639  17.805  14.239   0.408
13235W        W81640  27.218  21.442  14.439
13236W        W81641  35.836   9.841   4.440
13237W        W81642   9.237  14.293  10.916
13238W        W81643   0.644  22.497   4.756
13239W        W81644  15.374  44.746  13.518
13240W        W81645  30.430  43.156  12.795
13241W        W81646  41.470  11.158   4.540
13242W        W81647  31.437   2.860  13.389
13243W        W81648   3.753  11.941   0.030
13244W        W81649  21.884  39.987   4.499
13245W        W81650  31.866  12.558   2.767
13246W        W81651  35.117  22.355  11.009
13247W        W81652  28.238   4.909   0.849
13248W        W81653   1.953  20.953  10.256
13249W        W81654  34.965  26.337  12.063
13250W        W81655  23.651   5.438  14.910
13251W        W81656  30.535  22.457  13.504
13252W        W81657  26.967  24.756  12.533
13253W        W81658  20.609   1.215  12.997
13254W        W81659  22.581   1.439   2.012
13255W        W81660  36.398  14.671   4.589
13256W        W81661   0.465  38.162   1.028
13257W        W81662   8.788   2.005  13.126
13258W        W81663   3.540  36.514  11.467
13259W        W81664  39.898   7.150   2.270
13260W        W81665  40.902  32.211  11.173
13261W        W81666  43.493  16.475   4.594
13262W        W81667   3.732  24.276  12.228
13263W        W81668  44.463  29.334  14.316
13264W        W81669  33.208  41.954   0.458
13265W        W81670   3.479  39.391   0.175
13266W        W81671  35.968  24.435  11.786
13267W        W81672  21.288  36.406  14.839
13268W        W81673  42.967  11.236   2.921
13269W        W81674  37.134  14.006   0.820
13270W        W81675  15.782  26.316   2.516
13271W        W81676  31.046  25.939   2.749
13272W        W81677  22.413  31.514   4.429
13273W        W81678  30.994  15.696  11.697
13274W        W81679  36.991  38.119   1.229
13275W        W81680  35.606   3.980  12.763
13276W        W81681   9.139   4.868  12.471
13277W        W81682  39.326  25.809  11.138
13278W        W81683  20.935  18.308  14.013
13279W        W81684  16.034  19.632  12.494
13280W        W81685  10.589  28.932  11.031
13281W        W81686  21.265  29.420   1.033
13282W        W81687   9.635   3.331   0.472
13283W        W81688  11.780  25.119  14.834
13284W        W81689  30.382  10.285   4.961
13285W        W81690  10.784   3.345  13.782
13286W        W81691  17.746  30.583   2.324
13287W        W81692  23.099   7.245  10.657
13288W        W81693  35.093  24.165  13.931
13289W        W81694   7.619   0.708   1.768
13290W        W81695   7.697  16.831   1.128
13291W        W81696  13.829  21.321  13.462
13292W        W81697   5.118  41.613   2.746
13293W        W81698  28.511  12.422   4.030
13294W        W81699  40.253  29.411  11.220
13295W        W81700  23.953  44.386  13.686
13296W        W81701   2.524  30.008   0.128
13297W        W81702  18.739  27.009  14.475
13298W        W81703  25.005   6.467   3.846
13299W        W81704  37.065  35.175  11.030
13300W        W81705  32.976   9.081   0.872
13301W        W81706  31.479  27.700   1.143
13302W        W81707  23.789   0.866   1.688
13303W        W81708   8.230  25.965   2.318
13304W        W81709  17.568   8.923   2.905
13305W        W81710   8.686  22.210   4.991
13306W        W81711   2.982  37.927  10.620
13307W        W81712  43.544  28.475  13.299
13308W        W81713  28.789  19.898  13.895
13309W        W81714   6.213  38.615  11.252
13310W        W81715  13.671   0.049  11.195
13311W        W81716  20.129  19.974   4.574
13312W        W81717  27.843  31.564  14.292
13313W        W81718   9.009   5.886   2.909
13314W        W81719  34.112  32.553   0.771
13315W        W81720   3.904  42.940   1.429
13316W        W81721   2.734  39.367   0.727
13317W        W81722  38.565   9.449  13.454
13318W        W81723  23.619  16.035   3.484
13319W        W81724   5.432  16.014  10.958
13320W        W81725  18.662   5.143   2.171
13321W        W81726  32.027  25.566  12.169
13322W        W81727  13.559  37.983   0.432
13323W        W81728   9.326  18.807   4.699
13324W        W81729  31.478  18.153   0.811
13325W        W81730  31.886  13.374   4.118
13326W        W81731  27.277  20.811   2.749
13327W        W81732   7.883  12.042   2.336
13328W        W81733  22.082   8.264  10.743
13329W        W81734  10.429  41.861  11.440
13330W        W81735  36.850  31.483   4.754
13331W        W81736  17.074  24.668  13.918
13332W        W81737  37.261  34.508   4.723
13333W        W81738  31.692  36.515  11.727
13334W        W81739  11.721  31.551   4.629
13335W        W81740  24.689   1.421  14.330
13336W        W81741  24.142  44.282  11.683
13337W        W81742   3.361   4.928   3.185
13338W        W81743   1.272   8.316   4.835
13339W        W81744   4.000  41.352  12.907
13340W        W81745  10.307  30.577  12.923
13341W        W81746   3.867   7.618   3.656
13342W        W81747   2.442   9.385   1.913
13343W        W81748  39.089  31.087   1.294
13344W        W81749  22.681  36.662  13.931
13345W        W81750  32.576  36.299  13.532
13346W        W81751   1.418   7.677   2.238
13347W        W81752   4.181  35.080  11.223
13348W        W81753   5.214  20.971  12.812
13349W        W81754  19.870  28.077  11.617
13350W        W81755  23.693  27.654   1.202
13351W        W81756  10.375  30.355  11.212
13352W        W81757   8.974  18.588   0.781
13353W        W81758  22.716  40.485  10.615
13354W        W81759  35.964   7.932   3.829
13355W        W81760  20.569  11.924   3.720
13356W        W81761  29.383  34.982  11.052
13357W        W81762   2.827  38.882  13.999
13358W        W81763  16.622  23.630  11.698
13359W        W81764   5.485  15.492  11.059
13360W        W81765   4.466  39.421  11.182
13361W        W81766  16.192  43.773   1.501
13362W        W81767  14.713   6.188   5.058
13363W        W81768   5.517  20.534  14.882
13364W        W81769   4.404  43.052   4.128
13365W        W81770  10.718  13.171  11.109
13366W        W81771  42.600  10.136  13.500
13367W        W81772  34.898  25.676  14.333
13368W        W81773   6.847  40.021  10.314
13369W        W81774  15.256   9.893  13.982
13370W        W81775  26.185  38.433   1.456
13371W        W81776  22.091  14.595  11.849
13372W        W81777  30.124  35.929   3.152
13373W        W81778  41.832   0.102  14.530
13374W        W81779  17.818  41.548  14.933
13375W        W81780  39.991  14.005  12.419
13376W        W81781  34.374  35.023   2.757
13377W        W81782   2.847  15.680  14.889
13378W        W81783  15.752   6.964   0.930
13379W        W81784   8.430  40.792  13.453
13380W        W81785   8.754  27.121  14.838
13381W        W81786  24.498  32.140   1.768
13382W        W81787  40.855   9.823   4.833
13383W        W81788   3.887   5.989   0.056
13384W        W81789  19.994  20.474  12.538
13385W        W81790  10.118  18.696  11.067
13386W        W81791   0.456   9.259  14.031
13387W        W81792  29.110   7.569   4.070
13388W        W81793  26.255  21.365   0.879
13389W        W81794   0.758   3.874  11.546
13390W        W81795   2.924   6.139  12.006
13391W        W81796  11.706  43.944   4.678
13392W        W81797   5.021  40.841   3.740
13393W        W81798  20.187  43.465   4.250
13394W        W81799   8.164  41.968  12.136
13395W        W81800  32.640  15.646   0.404
13396W        W81801  22.822  26.777   2.194
13397W        W81802  35.958   7.892  14.524
13398W        W81803   7.529  43.433   1.276
13399W        W81804  10.676  36.841  12.892
13400W        W81805  22.149   7.215   2.324
13401W        W81806  21.878   5.377   1.375
13402W        W81807  41.489   2.361  11.701
13403W        W81808  30.470   5.965   0.512
13404W        W81809  36.444  25.104   3.857
13405W        W81810  34.688  30.917   2.032
13406W        W81811   4.430   0.933  10.670
13407W        W81812   1.456  39.067   5.172
13408W        W81813  40.622  38.904  13.948
13409W        W81814  34.847  36.966  12.984
13410W        W81815  37.357   2.755  14.301
13411W        W81816  40.034  42.024   4.643
13412W        W81817  31.670  24.069  13.938
13413W        W81818   1.459  44.875  12.474
13414W        W81819  27.877  19.738   4.480
13415W        W81820  18.153  23.280  10.763
13416W        W81821  23.149  11.096   0.434
13417W        W81822  23.173  13.044  14.327
13418W        W81823  19.955  15.179   1.218
13419W        W81824  33.110  30.951  13.907
13420W        W81825  23.000   3.201   4.238
13421W        W81826  18.025  22.352  11.579
13422W        W81827   6.339  28.724   3.689
13423W        W81828  44.759  17.847  13.548
13424W        W81829  38.606   9.603   1.887
13425W        W81830  17.134  42.274   4.216
13426W        W81831  35.564   1.842   3.986
13427W        W81832  27.745  41.230   1.988
13428W        W81833  32.618  35.422   1.744
13429W        W81834  10.843   8.606   1.734
13430W        W81835  30.680  16.182   5.132
13431W        W81836  41.893  13.279   3.212
13432W        W81837  11.446  43.008   3.277
13433W        W81838  35.919  25.065   3.069
13434W        W81839   9.887   4.828   4.094
13435W        W81840  13.560   9.695   3.168
13436W        W81841  30.706  24.544   3.250
13437W        W81842  43.905   5.437  14.812
13438W        W81843  44.868  24.352  13.598
13439W        W81844   8.799  27.959  14.515
13440W        W81845  43.831  30.173  12.500
13441W        W81846  35.916  23.441   0.367
13442W        W81847  43.712  29.000   0.476
13443W        W81848  12.153  29.731   3.749
13444W        W81849  33.006   9.167   4.635
13445W        W81850   3.320  41.501  10.691
13446W        W81851  24.499  13.063  12.002
13447W        W81852   9.264  42.266   0.834
13448W        W81853  13.526  27.443   1.143
13449W        W81854  39.351  21.485   3.806
13450W        W81855  16.849   7.565   0.333
13451W        W81856  24.397   6.859  12.986
13452W        W81857  44.439  28.067  13.881
13453W        W81858  24.470  21.662   2.182
13454W        W81859   3.934  44.010  12.985
13455W        W81860  24.659  43.587  12.827
13456W        W81861  17.396  44.331   0.293
13457W        W81862   6.471  14.183   2.897
13458W        W81863  15.190  17.904   2.700
13459W        W81864  18.228  38.103   2.500
13460W        W81865   1.902   2.372   0.010
13461W        W81866  13.145  41.129  12.007
13462W        W81867   3.050  13.777  12.665
13463W        W81868   9.879   2.996  13.830
13464W        W81869  42.237  18.151   3.759
13465W        W81870   8.660   2.737   1.696
13466W        W81871  20.474  35.491   2.855
13467W        W81872   7.651  37.036  14.813
13468W        W81873  33.277   5.859   0.801
13469W        W81874  30.549  35.328   3.643
13470W        W81875  38.742  26.622  12.054
13471W        W81876  41.524  36.582  14.909
13472W        W81877  20.715  29.554  14.953
13473W        W81878  35.676  27.154   4.920
13474W        W81879  20.911  25.157  12.269
13475W        W81880  12.292  20.602   1.693
13476W        W81881  44.886  41.944   2.319
13477W        W81882  28.508   2.885   1.196
13478W        W81883   1.281  43.547   2.321
13479W        W81884  11.152  10.126  10.993
13480W        W81885  13.408  20.709  13.324
13481W        W81886  16.058  11.650   1.397
13482W        W81887   4.660  17.552  12.454
13483W        W81888  25.672  39.438   2.700
13484W        W81889  20.626  40.100   0.342
13485W        W81890   1.006  10.924  12.622
13486W        W81891  11.336   9.062   2.330
13487W        W81892  41.437  17.036   1.766
13488W        W81893  26.439  13.223   2.753
13489W        W81894  12.255  30.063  11.387
13490W        W81895  40.787  16.238  13.507
13491W        W81896  21.927  40.410  11.967
13492W        W81897  16.087  35.380   0.291
13493W        W81898   0.325  20.886   2.870
13494W        W81899  31.987  19.504  12.005
13495W        W81900  39.482  40.867  13.504
13496W        W81901  40.869  22.952   0.836
13497W        W81902  40.498  13.109   1.311
13498W        W81903  44.853  44.716   2.936
13499W        W81904  16.002  42.702   2.967
13500W        W81905  14.807  20.180   4.870
13501W        W81906  39.943  19.644   1.678
13502W        W81907  31.215  11.340   0.883
13503W        W81908  18.998  27.395  14.768
13504W        W81909  13.558   6.813  14.337
13505W        W81910  37.929   1.305   3.253
13506W        W81911  39.959  22.280   4.078
13507W        W81912  36.602  34.583   2.271
13508W        W81913  43.358  31.476   1.741
13509W        W81914  16.157  15.578  14.939
13510W        W81915  26.262   0.774  12.068
13511W        W81916  31.222   4.578   9.978
13512W        W81917  36.328  30.122  13.962
13513W        W81918  22.243  32.929  12.468
13514W        W81919  38.468  34.994   2.743
13515W        W81920  30.028   6.148  13.501
13516W        W81921   3.642   8.788   2.220
13517W        W81922  43.431  18.534   0.528
13518W        W81923   6.311  40.821  13.491
13519W        W81924   3.265  42.892   2.793
13520W        W81925   8.967  44.496   0.976
13521W        W81926   3.413  42.899   3.983
13522W        W81927  11.334  40.303  14.830
13523W        W81928  11.188   5.364   1.656
13524W        W81929  15.635  38.523   4.170
13525W        W81930  27.416  22.765   4.529
13526W        W81931  26.254  44.476  11.576
13527W        W81932  19.066   4.788  12.900
13528W        W81933   1.982  26.423  12.756
13529W        W81934  24.659   6.209   3.597
13530W        W81935  14.313  14.618  13.881
13531W        W81936  21.539   4.419   3.103
13532W        W81937  44.377  10.038  13.380
13533W        W81938  44.283  39.888   4.922
13534W        W81939  31.447  41.223   4.224
13535W        W81940  15.183   5.409  14.247
13536W        W81941  36.336   8.722  13.058
13537W        W81942   4.420  25.441  12.986
13538W        W81943  44.809  25.653   4.804
13539W        W81944  18.708  41.172  12.449
13540W        W81945  19.391  11.809   0.904
13541W        W81946  32.466  35.472  10.917
13542W        W81947  12.706  34.029  14.545
13543W        W81948   6.703   7.428  14.914
13544W        W81949  35.798  43.691  12.238
13545W        W81950  33.670  23.228   3.446
13546W        W81951  39.952   1.815   3.688
13547W        W81952  43.493  21.792  11.500
13548W        W81953  18.637  11.588   4.179
13549W        W81954  14.393   7.685   3.814
13550W        W81955  40.557  21.046  14.336
13551W        W81956  35.312  32.848   1.356
13552W        W81957  22.669  37.039   1.314
13553W        W81958  40.602  20.605  10.505
13554W        W81959  14.770   4.180  14.373
13555W        W81960  14.846  31.763   0.844
13556W        W81961   7.965  18.648  14.878
13557W        W81962  29.178  26.772  12.535
13558W        W81963  34.486  25.628  12.047
13559W        W81964   9.453  38.704   4.071
13560W        W81965  10.300  29.707   2.489
13561W        W81966  25.732  33.432  10.521
13562W        W81967  14.592   2.424   4.037
13563W        W81968  26.503  18.843   3.328
13564W        W81969  13.690  15.044  14.363
13565W        W81970   6.298   4.943   3.980
13566W        W81971  42.526   2.254   2.153
13567W        W81972  41.020  12.765   0.819
13568W        W81973  39.551  16.795   3.605
13569W        W81974  23.004  17.546  13.732
13570W        W81975   9.770  13.559  14.273
13571W        W81976  31.577  34.076  12.402
13572W        W81977  31.757   0.780  13.041
13573W        W81978   2.259  26.130   0.884
13574W        W81979  30.523  35.344  14.343
13575W        W81980  26.910  43.918   0.242
13576W        W81981  21.003  16.345   0.409
13577W        W81982   3.090  37.050   1.500
13578W        W81983  35.009   4.275  12.353
13579W        W81984   6.457   3.230   2.203
13580W        W81985  14.628  40.312   1.139
13581W        W81986   8.416  10.295   0.351
13582W        W81987  27.432  19.617  12.545
13583W        W81988   3.242   0.068  11.082
13584W        W81989  42.423  33.524  10.646
13585W        W81990  20.460  26.530   2.513
13586W        W81991  38.138  31.338  13.453
13587W        W81992  10.708   1.892  10.519
13588W        W81993  20.071  19.012  12.294
13589W        W81994  38.957  20.699   3.732
13590W        W81995  44.396  12.879  11.106
13591W        W81996   3.994  10.402   3.340
13592W        W81997  17.599  30.973  14.277
13593W        W81998  30.455  32.910  14.241
13594W        W81999   2.224   6.853  11.861
13595W        W82000  41.538  16.621  10.724
13596W        W82001  15.864  37.005   3.248
13597W        W82002   0.910  31.677  14.968
13598W        W82003  44.662   0.917  12.433
13599W        W82004  19.699   3.089   2.819
13600W        W82005  10.515  39.183   4.095
13601W        W82006  21.342  42.940   2.250
13602W        W82007  40.719  34.035   3.274
13603W        W82008  21.153   7.698  14.472
13604W        W82009   2.223  35.059  11.107
13605W        W82010  21.533  21.703  10.834
13606W        W82011  42.829   5.817  11.659
13607W        W82012   2.221   6.180  11.238
13608W        W82013  23.971  40.820   2.543
13609W        W82014  32.003  17.092   0.343
13610W        W82015  42.014  18.220  12.155
13611W        W82016  32.428  37.708   4.259
13612W        W82017  27.882  10.887   1.412
13613W        W82018  30.721   6.462   5.115
13614W        W82019   3.245   6.339   1.718
13615W        W82020   2.911   4.694   4.126
13616W        W82021  29.444  38.116   0.686
13617W        W82022  25.585   5.407   2.695
13618W        W82023  44.482   1.377  11.848
13619W        W82024  18.669  25.420   3.347
13620W        W82025  12.188  39.942   3.405
13621W        W82026  27.058  29.229  11.921
13622W        W82027   4.425  36.313   4.140
13623W        W82028  38.430   5.375   0.341
13624W        W82029  26.969  39.619   0.368
13625W        W82030  13.795   3.405   0.629
13626W        W82031  35.794  12.790   4.310
13627W        W82032  17.017  22.497   4.077
13628W        W82033  18.416  15.139   2.265
13629W        W82034  15.797  30.186  14.524
13630W        W82035  39.179   2.396  12.069
13631W        W82036   0.369  26.507  14.434
13632W        W82037   5.980  42.431   4.711
13633W        W82038  18.833   5.351   4.739
13634W        W82039  40.530  24.756   3.888
13635W        W82040  15.312  39.038   4.138
13636W        W82041  24.002  31.407   1.849
13637W        W82042   8.109   1.506  10.704
13638W        W82043  36.024   2.460   1.971
13639W        W82044   3.313   4.519  10.352
13640W        W82045  36.343   4.313  12.009
13641W        W82046  26.103  24.976   2.821
13642W        W82047  35.552  10.687  11.157
13643W        W82048  13.843  39.603  12.315
13644W        W82049  11.391  23.075  14.416
13645W        W82050  24.075  37.795   3.006
13646W        W82051  34.109  17.679   4.772
13647W        W82052  14.199   1.439   1.645
13648W        W82053   1.706  23.198   3.298
13649W        W82054  38.249  16.641   3.723
13650W        W82055  26.421  38.017   1.695
13651W        W82056  36.056  16.312  14.968
13652W        W82057  10.623  15.086  12.570
13653W        W82058  33.854   2.933   1.741
13654W        W82059  13.471  19.598   4.041
13655W        W82060  22.068  38.836  14.284
13656W        W82061  30.147  36.339   4.596
13657W        W82062  33.735  36.837   0.932
13658W        W82063  40.566  29.237   3.264
13659W        W82064  43.857   6.461   2.206
13660W        W82065  24.669  33.503  13.558
13661W        W82066  14.213  11.983   3.300
13662W        W82067  18.600  16.179  14.461
13663W        W82068  36.744  38.913   0.113
13664W        W82069   4.101  24.267  11.013
13665W        W82070   7.585  13.825   0.351
13666W        W82071  21.781  21.732   2.030
13667W        W82072  19.713  10.948   3.357
13668W        W82073   5.666  34.976   0.515
13669W        W82074   9.799  18.490  13.824
13670W        W82075  24.211  39.811   5.249
13671W        W82076  43.971  25.179   1.359
13672W        W82077  41.302  16.191   0.245
13673W        W82078  21.490  24.056   1.809
13674W        W82079  39.042  29.617   3.590
13675W        W82080  33.985  25.895   3.950
13676W        W82081  38.429  18.035   4.373
13677W        W82082  20.775  20.770   4.542
13678W        W82083  37.830  29.941   2.254
13679W        W82084  16.883  41.508  11.886
13680W        W82085   9.046   1.801   2.224
13681W        W82086  40.794  23.788   4.261
13682W        W82087   5.816   9.178  13.955
13683W        W82088   3.185   8.825   1.952
13684W        W82089  32.442  35.361   0.321
13685W        W82090  41.532  42.412   4.247
13686W        W82091  31.390  38.008   2.242
13687W        W82092  28.616   7.103  12.959
13688W        W82093  42.729  29.751  12.917
13689W        W82094   3.283   0.245   3.685
13690W        W82095  34.308   8.672  14.978
13691W        W82096   3.018  26.706   1.325
13692W        W82097   3.591  21.125  11.546
13693W        W82098  10.737  12.639   3.672
13694W        W82099  12.209   6.656  14.471
13695W        W82100  24.376  32.469   0.503
13696W        W82101  20.071  11.619   0.319
13697W        W82102  16.224   6.691   0.954
13698W        W82103  10.418   8.379  11.934
13699W        W82104  40.817  42.263  12.498
13700W        W82105  34.895   9.477  12.084
13701W        W82106  23.567   2.652  12.589
13702W        W82107  23.738  15.885  10.316
13703W        W82108  11.284  27.978  10.289
13704W        W82109  31.886  44.028  14.817
13705W        W82110   7.375  20.747  12.978
13706W        W82111   9.424  14.685   5.808
13707W        W82112  23.446   0.590   3.210
13708W        W82113  30.068   8.740   1.831
13709W        W82114  37.317  39.554  14.880
13710W        W82115   8.594  13.985   4.519
13711W        W82116  12.022  39.765  13.943
13712W        W82117  16.679  34.048   2.687
13713W        W82118  21.808  25.465   2.578
13714W        W82119  15.700  24.985   4.165
13715W        W82120  15.383  34.243  12.997
13716W        W82121  22.177  13.652   2.641
13717W        W82122   4.980  23.719  13.958
13718W        W82123  43.898  39.300  14.047
13719W        W82124   2.827  37.857  13.035
13720W        W82125   9.832  39.122   1.405
13721W        W82126  36.366  26.675   4.788
13722W        W82127   9.765  29.401  12.906
13723W        W82128  22.248   5.704  13.153
13724W        W82129  42.257  23.678  13.979
13725W        W82130  18.646  21.964  12.322
13726W        W82131  10.210  20.016   3.899
13727W        W82132  26.014   0.214  12.064
13728W        W82133   8.369  13.272  12.876
13729W        W82134  24.088  39.934   4.169
13730W        W82135  28.988   9.502   3.817
13731W        W82136  43.772  35.146  13.383
13732W        W82137  18.718  24.759   0.265
13733W        W82138  22.789   7.177   2.662
13734W        W82139  10.048  39.367   4.128
13735W        W82140  20.830   2.720  10.596
13736W        W82141  38.442  32.423   4.819
13737W        W82142  11.371   7.172   4.113
13738W        W82143  24.181   8.837  12.058
13739W        W82144   7.555  30.650  14.510
13740W        W82145   0.393  41.996   3.678
13741W        W82146  17.602  15.988   1.804
13742W        W82147  37.479   7.762  11.887
13743W        W82148  20.628  23.701   0.834
13744W        W82149  31.017  17.377  12.774
13745W        W82150  43.495   5.745  14.491
13746W        W82151  11.836  29.549   1.775
13747W        W82152   4.576  34.695   2.607
13748W        W82153  16.527  25.817  14.436
13749W        W82154  16.742  40.640  14.972
13750W        W82155  22.948   9.257  13.923
13751W        W82156   9.481  26.637  11.493
13752W        W82157  13.043  29.867   3.870
13753W        W82158  21.701  34.661  12.528
13754W        W82159  19.997  13.212   3.133
13755W        W82160  38.352  14.655   4.422
13756W        W82161  40.507  15.671  14.327
13757W        W82162  20.151  27.909  12.451
13758W        W82163  29.940  20.093  14.868
13759W        W82164  37.884  37.557  14.043
13760W        W82165  31.413  42.493   3.699
13761W        W82166  12.015  30.541  11.109
13762W        W82167  27.128  36.829   2.396
13763W        W82168   9.907  19.826   3.525
13764W        W82169   3.885  44.903   0.425
13765W        W82170   0.215  14.901  10.783
13766W        W82171  39.805  18.575  14.064
13767W        W82172  29.531  44.075  13.580
13768W        W82173  13.135  32.580  13.009
13769W        W82174   7.806  37.373  14.456
13770W        W82175  12.861   5.376  11.098
13771W        W82176   4.802   0.276  10.636
13772W        W82177  10.251  34.634  12.953
13773W        W82178   3.890  43.950   0.402
13774W        W82179  20.000   5.843   4.501
13775W        W82180   3.083   7.668   1.428
13776W        W82181  21.237  26.485  10.742
13777W        W82182  27.167  20.449  14.360
13778W        W82183  17.940  22.731   0.311
13779W        W82184  37.456  29.207   1.672
13780W        W82185  12.848  15.005  11.180
13781W        W82186   9.655  31.169  14.939
13782W        W82187  12.852  12.275   4.903
13783W        W82188   5.463  10.576  10.433
13784W        W82189  33.574  31.162  13.819
13785W        W82190  11.754  10.649   0.894
13786W        W82191  33.050  26.814  12.148
13787W        W82192  32.257   6.230   4.596
13788W        W82193  28.270  26.137   3.618
13789W        W82194  18.497  42.012  12.993
13790W        W82195  30.229  41.736   3.824
13791W        W82196   4.799  10.572  12.139
13792W        W82197  15.114  29.500   1.413
13793W        W82198  30.717   3.315  11.949
13794W        W82199  21.830  23.248   3.563
13795W        W82200  27.646  44.489   0.639
13796W        W82201  15.396   5.491   2.207
13797W        W82202  19.740  43.702   4.292
13798W        W82203  19.210   1.423  12.379
13799W        W82204  18.150  11.282   0.197
13800W        W82205   0.971  38.466   3.293
13801W        W82206  42.239  35.886   3.794
13802W        W82207  30.276  13.213   1.272
13803W        W82208  40.887  30.689  13.515
13804W        W82209  10.331  21.568   1.757
13805W        W82210  10.638  10.206   4.966
13806W        W82211  39.554  43.609  11.171
13807W        W82212  27.491  13.199  14.412
13808W        W82213  24.141  17.579   0.921
13809W        W82214  11.189   5.460  11.199
13810W        W82215   8.286   5.899  14.777
13811W        W82216  28.656  29.719  14.582
13812W        W82217  36.764   5.716  11.170
13813W        W82218  10.047   0.421   4.182
13814W        W82219  22.090  38.374   1.969
13815W        W82220  44.828  13.661   2.414
13816W        W82221  23.590  32.567  14.339
13817W        W82222  24.084  18.045   4.569
13818W        W82223  42.575  39.406   2.145
13819W        W82224  33.152  36.968   3.062
13820W        W82225  27.489  31.924   1.282
13821W        W82226  44.170  41.488  13.422
13822W        W82227  36.393  33.798  14.424
13823W        W82228  30.889  39.703   4.929
13824W        W82229  20.637  14.793   0.487
13825W        W82230   1.884  28.180   0.544
13826W        W82231  41.757  22.638   3.168
13827W        W82232  29.485  10.852  10.795
13828W        W82233  17.263  39.495   4.387
13829W        W82234  27.570  21.989   0.865
13830W        W82235  20.949  18.006   1.685
13831W        W82236  32.623  37.919  13.358
13832W        W82237  10.425  38.004   1.691
13833W        W82238  22.598  24.885  14.564
13834W        W82239  33.099  20.943  14.319
13835W        W82240  17.518  31.355   2.822
13836W        W82241  15.026  25.883  14.873
13837W        W82242   8.462  36.266  11.206
13838W        W82243  14.661  39.776   2.423
13839W        W82244  18.624  15.343  10.489
13840W        W82245  36.415  13.275  13.523
13841W        W82246  20.175   1.254  13.392
13842W        W82247  25.688   7.469  13.866
13843W        W82248  38.097   4.233   1.766
13844W        W82249   6.302  29.269   3.148
13845W        W82250  33.902  21.487   4.553
13846W        W82251   6.864  28.949  13.104
13847W        W82252  38.077  10.793   0.479
13848W        W82253  30.543  37.695   2.355
13849W        W82254  42.473  40.913  11.453
13850W        W82255  29.421  20.112  14.851
13851W        W82256  17.965  25.034   2.603
13852W        W82257  20.593  17.162  10.744
13853W        W82258  13.230  37.298   3.015
13854W        W82259   4.911  38.458   3.098
13855W        W82260  42.308  34.101   4.139
13856W        W82261   4.339   5.837   2.574
13857W        W82262  25.218  12.574  11.545
13858W        W82263   0.751  31.816   1.475
13859W        W82264  19.664  21.002   3.174
13860W        W82265   4.365  41.567   1.226
13861W        W82266  13.631  20.260  12.202
13862W        W82267  14.717  20.054  12.405
13863W        W82268  18.910  31.000   3.705
13864W        W82269  17.724  11.237  10.871
13865W        W82270  27.568  12.152   0.498
13866W        W82271  17.552  11.743   0.842
13867W        W82272  29.338  37.959  10.670
13868W        W82273  11.633   1.727  12.147
13869W        W82274  37.260  31.078  13.426
13870W        W82275  30.018  41.526  11.115
13871W        W82276  31.824  31.116   4.070
13872W        W82277  25.544  26.766  10.349
13873W        W82278  28.939  26.438   3.229
13874W        W82279   7.887   7.680   5.065
13875W        W82280  25.773  20.624   3.676
13876W        W82281  41.451  41.969   1.158
13877W        W82282  14.762  23.668   3.631
13878W        W82283  35.830   6.242  14.402
13879W        W82284  32.479  15.921  10.809
13880W        W82285  11.949  35.213  14.505
13881W        W82286  13.343   4.468   1.237
13882W        W82287   4.194  15.364  14.731
13883W        W82288  44.526  31.680  10.021
13884W        W82289   3.097  40.092  14.518
13885W        W82290  23.083  38.544  14.406
13886W        W82291  40.081   6.538   0.646
13887W        W82292  23.536  24.787  11.121
13888W        W82293  43.839  43.296   2.435
13889W        W82294  26.413  31.451  14.475
13890W        W82295  25.995   4.094  13.824
13891W        W82296  31.484  40.202  13.969
13892W        W82297   7.929  26.257   3.319
13893W        W82298  33.120  34.176   4.456
13894W        W82299  32.041   1.778  12.342
13895W        W82300  33.503  37.831  14.903
13896W        W82301  19.467  43.871   1.938
13897W        W82302  29.715   1.098  10.264
13898W        W82303  15.206   7.458   1.386
13899W        W82304  18.772  39.784  12.301
13900W        W82305  44.252   2.908   3.941
13901W        W82306  30.622  29.974   3.639
13902W        W82307   3.674  44.788   3.744
13903W        W82308  24.540  11.309  13.215
13904W        W82309  43.824  44.743   3.171
13905W        W82310  37.925  25.877   4.033
13906W        W82311   7.337  29.222  13.082
13907W        W82312   3.838  14.827   4.501
13908W        W82313  17.613  15.270   0.983
13909W        W82314   7.634  32.844   2.213
13910W        W82315  32.945  20.227   3.270
13911W        W82316  19.608  36.088   0.252
13912W        W82317  31.290  35.780   4.731
13913W        W82318   1.216   1.671  11.190
13914W        W82319  15.775  29.417  11.795
13915W        W82320  23.003  15.687   5.343
13916W        W82321  30.125  13.717  13.496
13917W        W82322  19.647  22.698   2.917
13918W        W82323   8.770  40.336   3.226
13919W        W82324  19.952  22.440   1.013
13920W        W82325  13.321  20.280   3.786
13921W        W82326  12.039  44.758  12.395
13922W        W82327   6.580  22.454  13.383
13923W        W82328  18.213  29.228  12.456
13924W        W82329   9.425  21.076  12.066
13925W        W82330  19.033  25.726  10.684
13926W        W82331  33.601  37.417   3.463
13927W        W82332  18.076   4.437  12.910
13928W        W82333  36.954   6.953   9.862
13929W        W82334  44.807  25.679   3.872
13930W        W82335   3.268  12.235  14.191
13931W        W82336  37.147   6.291   5.447
13932W        W82337  19.260  33.505   0.826
13933W        W82338  27.775  29.620  14.708
13934W        W82339   7.144  24.015   0.949
13935W        W82340  38.788  28.028   3.177
13936W        W82341  35.842  44.350   3.151
13937W        W82342  35.819  32.962   1.399
13938W        W82343  39.344   0.297   3.550
13939W        W82344  17.323  12.688  13.010
13940W        W82345   3.906   9.854   0.310
13941W        W82346  30.573  37.188   2.300
13942W        W82347  23.536  23.205  11.137
13943W        W82348  39.606  29.206  13.415
13944W        W82349  25.871  23.136  12.463
13945W        W82350  31.072  42.836   4.490
13946W        W82351  29.857  17.645   0.945
13947W        W82352  16.128  38.089   1.291
13948W        W82353  31.197  31.381   0.290
13949W        W82354  40.984   2.440  13.385
13950W        W82355  18.812  17.344  11.584
13951W        W82356   1.165  39.436  12.503
13952W        W82357  20.820  30.026  12.125
13953W        W82358  26.211  26.037   1.012
13954W        W82359  17.179  42.438   1.734
13955W        W82360  23.915  11.234  13.862
13956W        W82361  43.366  17.821   4.186
13957W        W82362  21.790  31.417  13.649
13958W        W82363  23.077  24.152   1.352
13959W        W82364  42.171  11.285   0.881
13960W        W82365  26.233  14.899   2.658
13961W        W82366  10.715   5.833   2.106
13962W        W82367  14.061   4.507   0.918
13963W        W82368   9.318   0.361   1.059
13964W        W82369   8.680  43.979  11.055
13965W        W82370  19.239   2.393   0.306
13966W        W82371  40.323   6.783   3.856
13967W        W82372  43.835  10.197  11.609
13968W        W82373   5.748  11.173   2.566
13969W        W82374   1.511  19.043  12.430
13970W        W82375  41.615  14.893  14.600
13971W        W82376   8.114  31.494   0.610
13972W        W82377  33.979  13.787  13.304
13973W        W82378   1.668  25.768   4.030
13974W        W82379  10.327  30.947  11.651
13975W        W82380  22.630  21.645  10.097
13976W        W82381  18.927  40.105  11.162
13977W        W82382  28.666  26.297  14.808
13978W        W82383  36.478  43.746   1.652
13979W        W82384  34.581  39.891  14.565
13980W        W82385  39.999  28.655   0.880
13981W        W82386  23.974  11.283   0.838
13982W        W82387  43.457  10.967   1.194
13983W        W82388  30.704   8.429  12.170
13984W        W82389  28.482  22.221  11.705
13985W        W82390  29.751  44.940  14.646
13986W        W82391  20.005  38.833  12.113
13987W        W82392  14.844   7.205   3.275
13988W        W82393   2.552  29.921  13.322
13989W        W82394   2.952  23.774  12.530
13990W        W82395  29.705  20.217   1.689
13991W        W82396   2.935  42.701  13.436
13992W        W82397  18.742  15.216  13.050
13993W        W82398  38.932  20.812  14.327
13994W        W82399  31.018   7.941   0.417
13995W        W82400  44.904  17.702   0.010
13996W        W82401  41.533  28.448  10.793
13997W        W82402   6.903  40.779  12.732
13998W        W82403  22.978   6.791   1.795
13999W        W82404  40.098  12.725   1.801
14000W        W82405   5.818  28.866  12.361
14001W        W82406  40.677  17.703   4.642
14002W        W82407  18.038  15.101  11.835
14003W        W82408  14.632  14.539  12.521
14004W        W82409  38.321  22.171  12.959
14005W        W82410  27.435  38.203  12.989
14006W        W82411   5.144  24.582  13.106
14007W        W82412  31.323  11.604  13.332
14008W        W82413  24.268  14.177  12.926
14009W        W82414  10.578  23.465  13.093
14010W        W82415  33.437  12.315   1.809
14011W        W82416   1.375  18.861  14.969
14012W        W82417   9.121  20.347  11.486
14013W        W82418  43.843  21.533  11.203
14014W        W82419  22.878  27.478   1.256
14015W        W82420   7.311  16.239   3.344
14016W        W82421  13.502  43.345  13.592
14017W        W82422  37.100  22.820  14.769
14018W        W82423  44.825  10.366  14.380
14019W        W82424  22.705   3.750  12.979
14020W        W82425  10.136  15.849   1.384
14021W        W82426  19.503  13.363   1.543
14022W        W82427  29.682  20.602   1.282
14023W        W82428  16.537  16.086   3.167
14024W        W82429  41.372  44.931  13.074
14025W        W82430  13.889  43.137  10.113
14026W        W82431  40.838   0.085  11.557
14027W        W82432   3.413  35.347   3.221
14028W        W82433   7.509   0.742   2.779
14029W        W82434  33.166  16.084  14.081
14030W        W82435  35.593   9.042   2.953
14031W        W82436  32.124  14.267   4.979
14032W        W82437  31.519  39.815   1.947
14033W        W82438  38.850  43.856   2.845
14034W        W82439   4.025   3.827  12.342
14035W        W82440   5.277  19.099  13.206
14036W        W82441  43.709  11.639   3.257
14037W        W82442  35.813  40.203   2.094
14038W        W82443  15.607   9.646  11.624
14039W        W82444  24.868   5.796   2.496
14040W        W82445   8.157  41.576  11.337
14041W        W82446   7.110  27.891   4.864
14042W        W82447  23.688   5.519   2.682
14043W        W82448  30.104  14.259  13.793
14044W        W82449  42.922  35.141  11.084
14045W        W82450  41.300  43.568   1.703
14046W        W82451  31.044  36.445   2.011
14047W        W82452  38.997  15.847  13.448
14048W        W82453  41.492   9.151  13.955
14049W        W82454  38.586   6.790  10.690
14050W        W82455   9.912  41.114  11.172
14051W        W82456   8.828  36.963   0.826
14052W        W82457  39.069  35.047  10.419
14053W        W82458   9.725  16.993  12.879
14054W        W82459  13.392  31.418  12.517
14055W        W82460  10.652  30.973  12.852
14056W        W82461  29.433  16.597  12.042
14057W        W82462   7.819  36.521  13.023
14058W        W82463  26.697  41.821  13.503
14059W        W82464  40.398  15.292  12.440
14060W        W82465  15.648  24.190  13.424
14061W        W82466  44.971  24.803   4.150
14062W        W82467   5.656  33.581   3.248
14063W        W82468   1.523  21.594   3.648
14064W        W82469  16.792  32.624  14.451
14065W        W82470  29.929  42.746   3.615
14066W        W82471  15.816  26.799   4.331
14067W        W82472  43.525  43.531   0.911
14068W        W82473  14.772  29.662   0.373
14069W        W82474   9.618  18.357   3.664
14070W        W82475  33.356  18.781   4.066
14071W        W82476  18.650  22.148   1.301
14072W        W82477  31.081  10.820   0.742
14073W        W82478  31.552  38.686  12.835
14074W        W82479   1.969  38.702  11.491
14075W        W82480  42.491  43.798  13.076
14076W        W82481  44.036   1.181   3.229
14077W        W82482  34.470  27.117   3.846
14078W        W82483  11.930  15.762   3.677
14079W        W82484  22.991  42.985  13.969
14080W        W82485   4.543  18.587  13.829
14081W        W82486  29.418  29.374   3.098
14082W        W82487  28.816  40.817  11.071
14083W        W82488  25.958  31.593   0.286
14084W        W82489  31.793  15.520  14.766
14085W        W82490  30.068  27.645  12.789
14086W        W82491  40.919  32.630  14.957
14087W        W82492  22.623  40.816   0.316
14088W        W82493  35.453  14.613  14.244
14089W        W82494  26.597  11.249  11.487
14090W        W82495  33.003   9.445   1.853
14091W        W82496  41.948   1.690  13.853
14092W        W82497  33.968  38.355   2.670
14093W        W82498  33.005   4.892  11.189
14094W        W82499  14.571  38.665  13.581
14095W        W82500  12.776  27.997   0.315
14096W        W82501  24.797   9.132   4.140
14097W        W82502  44.200  24.573  12.925
14098W        W82503  28.074  40.815   0.497
14099W        W82504  11.642  30.213   4.148
14100W        W82505   3.041  37.446   2.852
14101W        W82506  23.041  27.663   4.364
14102W        W82507  30.614  28.699  11.943
14103W        W82508  44.884  40.495   2.187
14104W        W82509   9.463  31.592   9.825
14105W        W82510  23.176   6.923   2.302
14106W        W82511  22.058  37.367  12.032
14107W        W82512  27.114  25.580  12.109
14108W        W82513   5.688   6.233  13.923
14109W        W82514  21.230  27.938  14.386
14110W        W82515   8.897  40.856   1.419
14111W        W82516  41.579  43.010   1.804
14112W        W82517  25.189   6.962  13.140
14113W        W82518   7.133  43.711   1.833
14114W        W82519  33.466   8.399   4.856
14115W        W82520  38.398   2.772   4.879
14116W        W82521  36.440  32.884  13.164
14117W        W82522   2.399  12.628   2.849
14118W        W82523  44.942  11.992  11.871
14119W        W82524   2.447  23.673   2.631
14120W        W82525  10.988  19.026   3.838
14121W        W82526   3.164  26.377   1.746
14122W        W82527  28.014   8.261   4.833
14123W        W82528  19.300   6.200  13.338
14124W        W82529  11.751  25.228  12.574
14125W        W82530   1.288  11.624   4.787
14126W        W82531  21.051   5.676  13.378
14127W        W82532  30.633  12.559   4.824
14128W        W82533  13.572  15.791  13.934
14129W        W82534  33.612  34.105   4.321
14130W        W82535   6.245  21.120  12.024
14131W        W82536  29.450  44.312   4.158
14132W        W82537  43.495  32.631   0.284
14133W        W82538  30.600  29.037  11.526
14134W        W82539   0.892  18.714  11.568
14135W        W82540  30.292  22.156  12.006
14136W        W82541  18.805  26.007  13.434
14137W        W82542  15.796   2.945  10.622
14138W        W82543  10.049  37.818   2.679
14139W        W82544  22.454  12.359   1.866
14140W        W82545  37.104  32.577   2.212
14141W        W82546  39.609   4.378  14.080
14142W        W82547   8.608   3.610   9.689
14143W        W82548  23.323  24.691  11.865
14144W        W82549  37.462   7.273   2.251
14145W        W82550   2.724  27.495  11.017
14146W        W82551  43.743  24.220  11.656
14147W        W82552   4.949  26.217   1.675
14148W        W82553   1.283   6.288   0.900
14149W        W82554  28.899  21.122   4.088
14150W        W82555  15.582  10.616   4.127
14151W        W82556  40.635  29.434  14.850
14152W        W82557  23.446   9.892   1.415
14153W        W82558  38.753   3.190   0.850
14154W        W82559  33.030   8.166  11.009
14155W        W82560  23.252   9.094  12.182
14156W        W82561  19.258  10.005  13.223
14157W        W82562  26.368   2.730  14.266
14158W        W82563  16.139  11.890   4.180
14159W        W82564  39.766   5.666   2.771
14160W        W82565  42.933  42.512   3.663
14161W        W82566  17.945  13.135   3.622
14162W        W82567  26.516  41.044  11.963
14163W        W82568  11.825  23.538   1.855
14164W        W82569  25.992  34.023   0.479
14165W        W82570  31.194  38.444   1.101
14166W        W82571  20.797  36.091   4.117
14167W        W82572  33.440   0.397  11.344
14168W        W82573  34.171  18.016  14.806
14169W        W82574   4.371  26.417   2.738
14170W        W82575  33.904   4.326  10.441
14171W        W82576  30.675  37.898   2.801
14172W        W82577  31.658  29.351   0.524
14173W        W82578  23.992  41.585   0.430
14174W        W82579  37.766   8.597   4.135
14175W        W82580   5.898  41.761  13.939
14176W        W82581   8.294  43.266   2.078
14177W        W82582  29.444  17.346  13.002
14178W        W82583  32.629  24.207   1.234
14179W        W82584  38.743   3.269  13.870
14180W        W82585  14.100  42.444  13.349
14181W        W82586   8.390  12.916  14.465
14182W        W82587   9.078  27.673   1.269
14183W        W82588   0.270  11.833  14.032
14184W        W82589  38.672   2.236   5.212
14185W        W82590  13.016   4.195   2.597
14186W        W82591  25.067  27.028   4.565
14187W        W82592  25.736  16.864  11.639
14188W        W82593  29.217  16.369  14.333
14189W        W82594  22.403   6.658  12.843
14190W        W82595   2.847  35.130   2.242
14191W        W82596   0.408  16.833   2.235
14192W        W82597  12.365  43.868   2.495
14193W        W82598  43.684  24.832   2.178
14194W        W82599  35.375  37.029   0.506
14195W        W82600  19.125  23.017   0.770
14196W        W82601  36.096  32.611  11.617
14197W        W82602  26.078   6.718   4.676
14198W        W82603  24.743   9.325   2.329
14199W        W82604   2.768  32.974   0.867
14200W        W82605  19.154  44.917   3.919
14201W        W82606  40.443  22.948  12.688
14202W        W82607   4.944  34.590   4.014
14203W        W82608   7.984  14.025   2.163
14204W        W82609  27.509   3.660  14.395
14205W        W82610  35.186  37.069   0.984
14206W        W82611   4.394  36.875   1.982
14207W        W82612  38.451  25.120   3.888
14208W        W82613   4.873  22.341   5.045
14209W        W82614  11.215   0.598  11.510
14210W        W82615   3.914   9.224  14.078
14211W        W82616  25.575  34.367  13.323
14212W        W82617   8.329  35.405   1.878
14213W        W82618   8.327  28.105   4.506
14214W        W82619   5.324   8.470   1.228
14215W        W82620  38.161  37.387  13.628
14216W        W82621  15.252  39.545  12.356
14217W        W82622  30.997  25.261   2.216
14218W        W82623   7.888   4.559  11.585
14219W        W82624   4.383   3.337  13.876
14220W        W82625  40.724  28.242  12.799
14221W        W82626  35.309  21.149   2.823
14222W        W82627   0.986  44.115   0.341
14223W        W82628  13.535  35.023  13.961
14224W        W82629   9.262  14.730   5.024
14225W        W82630  10.743   8.674   0.366
14226W        W82631   1.286  31.723   1.458
14227W        W82632  22.797  30.938   4.651
14228W        W82633  20.975  10.836  11.893
14229W        W82634  28.314  19.738  10.335
14230W        W82635  35.982  39.460   4.845
14231W        W82636  28.359   0.192  13.592
14232W        W82637   6.240   7.661   2.365
14233W        W82638  10.274   3.771  12.715
14234W        W82639  30.073  34.910   3.215
14235W        W82640  15.100  36.505   0.331
14236W        W82641  39.661   5.655  12.337
14237W        W82642  37.389  12.839   1.353
14238W        W82643  33.940  11.612   1.814
14239W        W82644  37.975  21.445   2.406
14240W        W82645  22.890  26.982  10.701
14241W        W82646  36.298   8.654   3.563
14242W        W82647  39.172  38.427  11.528
14243W        W82648   1.810  21.481  12.061
14244W        W82649  32.062  33.179   1.474
14245W        W82650  40.486  40.935  10.801
14246W        W82651  29.556  17.782   2.425
14247W        W82652  43.350  39.980   4.823
14248W        W82653  31.108   3.499   0.332
14249W        W82654  29.957  37.495   3.153
14250W        W82655  31.066  37.568   2.288
14251W        W82656  17.719  17.555  12.046
14252W        W82657   5.742  18.649   1.150
14253W        W82658  30.596  21.705   4.137
14254W        W82659  11.122  40.415  13.352
14255W        W82660  24.105  15.685   3.071
14256W        W82661   2.187   8.651   3.371
14257W        W82662  12.168  43.643   5.502
14258W        W82663  17.604   2.671   0.843
14259W        W82664   2.331  32.515   1.615
14260W        W82665   3.934  12.465   0.008
14261W        W82666   2.307  35.408  10.730
14262W        W82667  27.985   7.817   4.561
14263W        W82668  11.942  21.602  13.991
14264W        W82669  28.597  23.447   2.408
14265W        W82670  30.317  16.642   3.712
14266W        W82671   3.093  35.085   3.516
14267W        W82672  36.555  41.313   3.609
14268W        W82673  27.467  34.107   4.484
14269W        W82674   4.869  35.923  12.512
14270W        W82675   7.741  33.659   0.472
14271W        W82676   9.655  41.595  12.662
14272W        W82677   5.347   7.638   1.747
14273W        W82678  28.492  25.802  11.079
14274W        W82679  34.053   0.029  13.659
14275W        W82680  16.089  12.744   3.783
14276W        W82681  38.063  20.285  12.907
14277W        W82682  23.537  25.012   2.785
14278W        W82683  10.328  42.038   1.199
14279W        W82684  21.290  23.498  10.511
14280W        W82685  39.268  40.266  11.058
14281W        W82686   1.320  38.202   0.272
14282W        W82687  10.083  29.764   0.393
14283W        W82688  43.285  43.725   3.161
14284W        W82689  43.822  36.820  11.476
14285W        W82690  11.353   7.225   0.967
14286W        W82691   7.667   3.293  12.383
14287W        W82692   8.712  21.249   1.161
14288W        W82693   7.166  35.710  14.941
14289W        W82694  12.618  40.584  11.686
14290W        W82695  30.646  39.886  13.060
14291W        W82696  23.197  44.234   0.382
14292W        W82697  26.299  19.485   1.844
14293W        W82698   3.300  20.402   1.616
14294W        W82699  18.575  23.796  11.641
14295W        W82700  21.537   5.827  10.507
14296W        W82701   7.346  38.585   4.601
14297W        W82702   4.263  39.190   1.329
14298W        W82703  28.043  16.484   1.259
14299W        W82704  16.899  23.637  12.471
14300W        W82705  37.029  37.415   0.373
14301W        W82706   2.030   0.932  13.061
14302W        W82707  15.160  16.671  10.674
14303W        W82708  34.841  41.956  14.435
14304W        W82709  18.193  10.884  11.212
14305W        W82710   9.760  14.174  11.168
14306W        W82711   4.341   7.733  10.688
14307W        W82712  32.140   3.308   2.289
14308W        W82713  19.177  25.689   1.654
14309W        W82714   6.686   2.775   1.556
14310W        W82715  35.074   2.111   4.700
14311W        W82716  30.865  25.659   1.321
14312W        W82717  44.327  25.523   3.774
14313W        W82718  12.590  20.961   0.942
14314W        W82719  34.056  30.171   3.203
14315W        W82720  40.734  12.094   3.269
14316W        W82721  17.371  25.293   4.152
14317W        W82722   1.552  26.601   4.535
14318W        W82723  21.644  21.030   3.740
14319W        W82724  40.370  25.416   2.399
14320W        W82725  24.205  12.555  13.849
14321W        W82726  24.646  29.468  11.063
14322W        W82727   3.160   4.738   0.137
14323W        W82728  24.550  22.079  14.518
14324W        W82729  43.908  37.437   3.547
14325W        W82730  31.394  14.575   4.647
14326W        W82731  14.123  11.870  11.100
14327W        W82732  34.852  32.370   1.846
14328W        W82733   4.610   7.641   4.628
14329W        W82734  41.406   0.943   0.489
14330W        W82735  12.336  38.128  12.558
14331W        W82736   9.463  30.336   5.393
14332W        W82737   8.311  22.990   4.715
14333W        W82738  20.014  24.123   2.886
14334W        W82739  10.296  18.135   3.119
14335W        W82740  16.576  38.899  11.462
14336W        W82741  44.657  18.678  13.487
14337W        W82742  25.461  38.892   0.738
14338W        W82743  22.660  40.336  14.778
14339W        W82744  18.051   9.524  10.834
14340W        W82745   1.124  23.922   3.286
14341W        W82746  25.174   1.157   2.772
14342W        W82747  37.034  22.165   0.836
14343W        W82748   6.694   7.978  14.922
14344W        W82749   9.178   4.884  11.955
14345W        W82750  39.856   3.448  12.064
14346W        W82751  14.369  42.867  11.906
14347W        W82752  23.625   8.821   0.206
14348W        W82753  18.312  10.878  13.763
14349W        W82754  22.673   4.816   4.069
14350W        W82755  27.065  40.785   3.413
14351W        W82756   5.993  11.585  14.438
14352W        W82757  34.883  31.283  12.891
14353W        W82758  33.997  23.004  10.690
14354W        W82759  44.784  36.316  12.553
14355W        W82760  19.019   3.820   4.258
14356W        W82761  30.891  26.273  11.067
14357W        W82762  33.846  30.154   3.702
14358W        W82763  38.458  41.795   4.591
14359W        W82764  38.113  16.830   2.606
14360W        W82765  32.019  44.316   4.724
14361W        W82766  13.690  11.595  12.737
14362W        W82767  15.875  35.047   9.826
14363W        W82768  15.844  27.908  13.001
14364W        W82769  26.990  11.459   0.068
14365W        W82770  38.517   9.178   0.329
14366W        W82771  10.334  20.147  13.967
14367W        W82772  38.635  30.430   1.248
14368W        W82773  44.386  10.449   0.963
14369W        W82774  15.869   2.695  10.176
14370W        W82775  42.904  39.252   4.605
14371W        W82776  15.533  31.083   3.768
14372W        W82777  38.454  44.917   1.718
14373W        W82778  33.035  39.514   2.173
14374W        W82779  32.379  32.517  10.703
14375W        W82780  29.623  21.733   1.750
14376W        W82781  38.845  39.908  13.828
14377W        W82782  17.048  12.602  10.302
14378W        W82783  41.401  37.050  11.014
14379W        W82784  19.361  24.861  11.571
14380W        W82785  19.702   1.621   1.145
14381W        W82786  13.793   4.690   1.425
14382W        W82787  42.808  25.003   3.287
14383W        W82788  22.624  38.644   3.772
14384W        W82789  22.289  20.755   4.767
14385W        W82790  11.804  38.660  12.467
14386W        W82791  33.006  34.470   2.214
14387W        W82792  15.569   5.670   3.609
14388W        W82793  14.389  30.830   0.675
14389W        W82794  32.157  15.139   4.504
14390W        W82795  23.898  25.150  13.321
14391W        W82796  21.512  10.165  13.870
14392W        W82797  18.259   6.795  11.930
14393W        W82798  31.685   6.134   0.953
14394W        W82799  18.048  42.933   3.779
14395W        W82800   7.648  31.523  10.925
14396W        W82801  10.351  37.909   2.211
14397W        W82802  12.395   7.686   1.940
14398W        W82803  31.997   4.218  11.760
14399W        W82804   2.597  37.466  13.378
14400W        W82805   3.006  25.307   0.859
14401W        W82806  11.255  26.017  10.630
14402W        W82807  18.361  42.791   4.165
14403W        W82808  31.746  23.909  11.959
14404W        W82809  37.020   3.267   4.611
14405W        W82810  29.126  10.853  13.978
14406W        W82811   6.934  10.188   4.608
14407W        W82812   0.371  35.355   3.376
14408W        W82813  37.995  25.253   0.789
14409W        W82814  20.535  10.104   0.090
14410W        W82815   4.909  13.502  11.268
14411W        W82816  22.760  17.556   1.225
14412W        W82817  40.259  44.007   1.702
14413W        W82818   9.781  24.063  10.857
14414W        W82819   1.205  35.381  12.014
14415W        W82820  41.349   5.883  10.803
14416W        W82821   9.373   9.440  12.898
14417W        W82822  35.120  27.202   1.725
14418W        W82823  26.247   8.157  10.593
14419W        W82824  44.063  11.564   4.086
14420W        W82825  14.343  21.480   1.440
14421W        W82826  34.609  36.452   4.667
14422W        W82827   0.985  21.597   3.660
14423W        W82828  30.614  30.912   4.642
14424W        W82829   2.685   7.780   3.370
14425W        W82830  20.700   7.012  14.853
14426W        W82831  28.625  21.219   4.523
14427W        W82832  18.337  38.878   3.008
14428W        W82833  32.625  15.025  10.732
14429W        W82834  10.664  10.771  12.454
14430W        W82835  25.829   2.229  10.469
14431W        W82836  29.921   2.784  10.594
14432W        W82837  11.346   8.843  11.540
14433W        W82838   4.748  29.685   1.902
14434W        W82839  24.279   6.377   1.220
14435W        W82840  43.222   4.851  13.201
14436W        W82841  36.534  36.541   4.227
14437W        W82842  43.942  28.976   0.969
14438W        W82843  43.423  28.031   2.272
14439W        W82844  30.970  27.564   1.265
14440W        W82845  35.568  22.172   0.934
14441W        W82846  21.169  43.475   4.172
14442W        W82847  23.268  22.701  11.576
14443W        W82848  38.429   9.726  14.039
14444W        W82849  32.729  38.497  14.968
14445W        W82850   3.652  10.624  14.898
14446W        W82851  29.191  35.396   0.005
14447W        W82852  20.062  41.297  11.617
14448W        W82853  19.589  39.959  14.053
14449W        W82854  19.541  43.097  10.620
14450W        W82855   0.482  27.968   4.645
14451W        W82856  23.338  29.699   3.248
14452W        W82857  41.984  22.164   3.132
14453W        W82858  31.463   8.482  13.927
14454W        W82859   1.584  18.366  13.454
14455W        W82860  25.446  39.931  10.587
14456W        W82861  25.219  16.672  12.873
14457W        W82862   5.908  44.473   0.435
14458W        W82863   5.672   9.731   3.675
14459W        W82864   1.391  11.089   0.775
14460W        W82865  35.482   8.198   3.252
14461W        W82866  30.935  39.684   9.827
14462W        W82867  25.114  13.874   3.932
14463W        W82868  12.886   4.929   0.356
14464W        W82869   0.727  42.584  12.118
14465W        W82870  28.330  30.616  14.363
14466W        W82871  10.868  18.279   3.398
14467W        W82872  32.197  10.053  11.167
14468W        W82873  34.079   4.759   1.372
14469W        W82874   7.054  30.683  14.646
14470W        W82875  33.839   1.817  12.087
14471W        W82876  35.628  21.513  11.215
14472W        W82877   9.245  29.997  13.591
14473W        W82878  43.037   1.518  12.446
14474W        W82879  18.110  42.688   0.384
14475W        W82880  24.855   0.745   0.672
14476W        W82881  11.291  43.367   1.611
14477W        W82882  28.872  37.569   2.713
14478W        W82883  29.640  21.626  11.203
14479W        W82884   3.299  15.316   2.150
14480W        W82885  40.987  44.520   3.740
14481W        W82886   1.148  25.196   0.523
14482W        W82887  22.632  13.300  13.445
14483W        W82888  20.795  25.736  14.413
14484W        W82889  38.080  40.929  14.890
14485W        W82890  43.573   5.682   4.071
14486W        W82891  21.601  30.669   2.475
14487W        W82892   1.067  43.924  13.165
14488W        W82893  12.448  10.257  11.691
14489W        W82894   9.606  18.038  11.554
14490W        W82895   7.144  32.892   0.284
14491W        W82896  20.092  15.431   1.648
14492W        W82897  14.539  18.816  11.049
14493W        W82898   6.970   3.585   4.073
14494W        W82899  25.265  20.646   3.784
14495W        W82900  15.124   2.985  11.119
14496W        W82901  44.946   2.001  13.427
14497W        W82902  24.862  32.510   1.931
14498W        W82903  30.279  42.901  11.925
14499W        W82904   3.275  35.822   4.066
14500W        W82905  23.523   1.907   0.798
14501W        W82906   7.900   9.522   4.993
14502W        W82907  35.563  28.483  14.967
14503W        W82908   6.636  40.523  11.977
14504W        W82909  43.013   3.401   2.086
14505W        W82910  13.907  24.033  13.429
14506W        W82911  43.054  36.061   2.111
14507W        W82912   9.719  38.914  13.082
14508W        W82913  18.077  41.458   4.063
14509W        W82914  13.549  24.678  12.752
14510W        W82915  32.207  38.360  14.842
14511W        W82916  42.987  20.937  13.883
14512W        W82917  43.819  20.557  12.550
14513W        W82918  40.854  39.931  13.858
14514W        W82919  38.504   1.977   4.625
14515W        W82920  21.796  13.632   0.498
14516W        W82921   6.469  28.114  14.461
14517W        W82922   0.242   5.660  12.023
14518W        W82923   2.483   3.942  11.635
14519W        W82924  32.809  18.279  14.383
14520W        W82925  20.813  19.821   2.779
14521W        W82926  31.265  24.603  12.460
14522W        W82927  20.700   9.441  12.926
14523W        W82928  22.500  33.687  12.502
14524W        W82929   3.354  35.121  12.463
14525W        W82930  34.422  21.482   3.265
14526W        W82931  19.346  21.683  13.461
14527W        W82932  15.671  28.668  14.353
14528W        W82933   1.189  32.922  13.406
14529W        W82934  31.496   6.288  11.111
14530W        W82935   0.438  22.222   1.295
14531W        W82936  17.627   3.298  12.472
14532W        W82937  41.674  24.111  12.522
14533W        W82938  19.738   7.902   1.105
14534W        W82939  11.812  10.622   2.867
14535W        W82940  24.209   5.363   4.394
14536W        W82941  11.330  17.548   3.707
14537W        W82942   9.440   1.867  11.969
14538W        W82943  15.492  34.364  12.022
14539W        W82944  40.174  19.656  14.087
14540W        W82945  31.948  40.469   3.228
14541W        W82946  24.276  14.468  12.056
14542W        W82947  14.767  11.378  13.508
14543W        W82948   2.401  43.029   0.518
14544W        W82949   9.373  22.024  13.331
14545W        W82950   6.220  19.349  14.770
14546W        W82951  26.677   6.209  10.475
14547W        W82952  11.214  12.975  11.078
14548W        W82953  12.279  29.887   3.275
14549W        W82954  33.365  29.134   3.724
14550W        W82955   9.257  36.542  11.544
14551W        W82956  29.160   6.036   0.856
14552W        W82957  29.734  39.255  13.531
14553W        W82958   1.439  16.239   1.060
14554W        W82959   6.760   5.271  13.187
14555W        W82960  20.219  29.580  11.580
14556W        W82961  18.646  16.849  10.920
14557W        W82962  41.303  30.396   0.865
14558W        W82963   5.227  18.113  14.270
14559W        W82964   8.557  27.251  11.906
14560W        W82965  42.159  34.417   0.690
14561W        W82966  42.401  31.874  12.050
14562W        W82967  43.821  21.908  12.129
14563W        W82968  35.524  37.805   2.767
14564W        W82969  19.630  24.472   2.850
14565W        W82970  24.665  12.587   2.836
14566W        W82971  41.644   2.306   2.893
14567W        W82972  25.029  16.418   0.357
14568W        W82973   9.298   1.030   4.220
14569W        W82974  23.515  29.082  14.398
14570W        W82975  38.930  18.094   3.087
14571W        W82976  19.657  32.666   0.337
14572W        W82977  27.462  36.097  11.622
14573W        W82978  33.585  11.790  13.308
14574W        W82979   1.927   8.918   3.014
14575W        W82980   3.600  25.317   1.500
14576W        W82981  26.718  32.386  11.774
14577W        W82982  13.434  12.168   3.331
14578W        W82983   1.628  10.052   4.949
14579W        W82984  13.342  42.904  11.936
14580W        W82985  32.402  18.880  14.778
14581W        W82986  41.211  17.073  14.478
14582W        W82987  44.255  19.019   0.164
14583W        W82988  11.450  21.902   0.897
14584W        W82989   7.843  14.512   3.778
14585W        W82990  39.097  24.039   1.556
14586W        W82991   3.287  24.987   1.230
14587W        W82992  26.613  21.529   3.299
14588W        W82993   5.263  15.161   0.515
14589W        W82994   0.897  34.031   2.164
14590W        W82995  24.712  10.529  11.081
14591W        W82996  14.736  31.224  10.715
14592W        W82997  13.296  14.945   0.932
14593W        W82998  21.535   6.823  10.689
14594W        W82999  21.998  27.509  10.659
14595W        W83000  18.477  33.537   0.399
14596W        W83001  32.373  32.992  12.546
14597W        W83002  32.992   0.452   1.238
14598W        W83003  33.844  22.729  14.366
14599W        W83004  13.070   8.668  10.398
14600W        W83005  20.465  30.960  11.015
14601W        W83006  30.885  38.077   2.284
14602W        W83007   0.320  12.240  13.086
14603W        W83008  21.710  42.363   4.265
14604W        W83009  18.527   9.424   0.815
14605W        W83010   4.437  17.681   4.109
14606W        W83011   2.391  44.547  10.999
14607W        W83012  35.860  16.293  13.373
14608W        W83013  36.170  29.181  11.772
14609W        W83014   1.281   6.305   4.164
14610W        W83015   9.636   6.531   4.279
14611W        W83016  31.191  21.660   0.459
14612W        W83017  13.093  24.669   2.380
14613W        W83018  28.644  44.691   3.474
14614W        W83019  22.409   2.033  13.976
14615W        W83020  41.613   4.968   3.367
14616W        W83021  11.311   8.931  14.311
14617W        W83022   8.557   3.626   3.137
14618W        W83023  20.539  19.371  11.119
14619W        W83024  16.957  14.814  11.111
14620W        W83025  25.017  29.202  10.674
14621W        W83026  33.407   1.416  10.478
14622W        W83027  43.595  38.155  14.935
14623W        W83028  28.863  20.825  12.100
14624W        W83029  29.636  43.076   1.216
14625W        W83030   3.689   8.692  14.958
14626W        W83031  31.865  29.045   4.699
14627W        W83032  15.110  31.603   5.350
14628W        W83033  32.773  40.413   2.192
14629W        W83034  25.935  24.175   0.763
14630W        W83035  34.440  32.872   2.877
14631W        W83036   7.948   0.444  14.281
14632W        W83037  44.345  36.880   3.732
14633W        W83038  19.508  10.377  10.661
14634W        W83039   2.442  20.730  14.328
14635W        W83040  17.350   6.435  12.582
14636W        W83041  33.548  29.151   1.633
14637W        W83042   5.444   8.349  11.997
14638W        W83043  30.143  23.596  12.963
14639W        W83044  27.457  31.661   4.037
14640W        W83045  23.360  44.755   0.289
14641W        W83046   0.546   5.229   2.813
14642W        W83047  21.754  44.255  10.158
14643W        W83048  18.790  39.969   4.481
14644W        W83049  42.925  14.711  13.087
14645W        W83050  18.238  35.616   2.409
14646W        W83051   8.686  26.609   4.081
14647W        W83052  43.216  24.416  13.228
14648W        W83053  13.625  25.090   1.229
14649W        W83054  29.736   0.458   4.232
14650W        W83055  33.410  25.160  13.076
14651W        W83056  34.848  25.525  13.788
14652W        W83057  36.880   6.185  12.120
14653W        W83058  17.043  32.519  11.141
14654W        W83059  37.446   4.892   1.941
14655W        W83060  35.020  44.501  10.592
14656W        W83061  27.637  17.032   1.955
14657W        W83062  41.372  19.612  11.505
14658W        W83063  16.183  43.368   0.740
14659W        W83064   1.645  37.471  14.892
14660W        W83065  27.587  36.538  12.911
14661W        W83066  10.923  17.680  12.088
14662W        W83067  35.389  35.420   3.499
14663W        W83068  43.462  13.102   3.616
14664W        W83069   8.088  44.415   5.014
14665W        W83070  11.843  16.674   2.302
14666W        W83071   9.119   1.539   4.176
14667W        W83072  21.127  26.513   1.316
14668W        W83073  22.771  29.512  10.201
14669W        W83074   4.483  44.922   3.254
14670W        W83075   3.225   1.757  11.890
14671W        W83076  30.844  26.439   4.971
14672W        W83077   1.703   7.639  14.782
14673W        W83078   3.889  37.752  12.764
14674W        W83079  16.239  23.636   2.917
14675W        W83080  35.518  43.786   1.276
14676W        W83081  32.576  30.461  12.555
14677W        W83082  31.983  30.519  13.235
14678W        W83083   3.935  34.160   2.910
14679W        W83084  38.448  43.481   1.821
14680W        W83085   3.884   1.380   0.439
14681W        W83086  38.279   2.274   3.490
14682W        W83087  40.404  15.120   1.455
14683W        W83088   6.415  18.198  13.412
14684W        W83089   9.775  40.833  10.733
14685W        W83090  11.448  35.580  13.971
14686W        W83091  21.883  11.492   0.157
14687W        W83092  11.396  26.608  13.489
14688W        W83093  28.530  34.443  10.961
14689W        W83094  29.904  24.509   0.879
14690W        W83095   8.659  37.917   3.206
14691W        W83096  33.716  42.404  12.951
14692W        W83097  42.792  34.500   2.909
14693W        W83098  17.658  38.499  13.760
14694W        W83099  12.216  43.389   1.199
14695W        W83100   4.907  26.878  13.507
14696W        W83101  22.301  11.319   2.789
14697W        W83102  16.224   4.990  10.725
14698W        W83103  34.414   7.186   1.306
14699W        W83104  39.467  33.742  11.644
14700W        W83105   6.053  30.733   0.018
14701W        W83106  11.684  22.016  12.891
14702W        W83107  41.521  41.130  14.112
14703W        W83108  27.421  14.619   0.377
14704W        W83109  15.090  18.941   1.760
14705W        W83110  20.580   0.684  14.824
14706W        W83111   3.292  39.387   1.642
14707W        W83112  36.143  24.239   2.417
14708W        W83113   7.519  21.637  13.340
14709W        W83114  12.797   4.599  14.955
14710W        W83115  40.995  26.179  12.925
14711W        W83116   2.483  12.795  10.537
14712W        W83117   5.267  41.538   3.791
14713W        W83118  27.099  19.191   3.133
14714W        W83119  42.404  13.155   1.935
14715W        W83120  10.389  15.144  14.002
14716W        W83121  35.517  35.880   2.599
14717W        W83122  28.151  10.734   1.864
14718W        W83123   2.776  37.448  11.204
14719W        W83124  17.181  32.013   3.183
14720W        W83125  15.778  17.650   0.564
14721W        W83126  43.300   4.742   3.676
14722W        W83127   0.753  41.382   3.753
14723W        W83128  15.778  43.604  12.657
14724W        W83129   0.155  28.466  12.485
14725W        W83130  36.483  31.979   0.113
14726W        W83131   3.310   3.884  12.037
14727W        W83132  43.899   5.399  14.297
14728W        W83133  20.112  39.585   2.315
14729W        W83134  27.919  17.073   2.807
14730W        W83135  28.393   2.322  13.383
14731W        W83136  15.829  27.239   4.078
14732W        W83137  29.967   6.505   0.977
14733W        W83138  30.158  41.885  13.847
14734W        W83139  21.271  18.753   0.733
14735W        W83140  25.708  44.754  13.392
14736W        W83141  32.575   2.347   0.076
14737W        W83142  30.423  27.480   2.379
14738W        W83143   0.646  13.189   0.319
14739W        W83144  20.244  18.186   0.176
14740W        W83145  21.874  19.974   4.240
14741W        W83146  29.083  40.264  13.628
14742W        W83147  16.297  40.925   3.234
14743W        W83148  44.273   5.886   2.854
14744W        W83149  32.653  43.060  13.552
14745W        W83150  11.830  39.914  11.148
14746W        W83151  27.099   0.415  14.951
14747W        W83152   5.187  29.531  10.560
14748W        W83153  28.177  26.859   2.428
14749W        W83154  10.221  36.101   4.586
14750W        W83155  23.776  25.504  13.989
14751W        W83156  38.024  23.275  14.755
14752W        W83157  32.198   4.758   4.496
14753W        W83158  26.633  30.171  13.834
14754W        W83159  43.043  17.263   3.703
14755W        W83160  41.010  39.012   3.064
14756W        W83161  34.613  10.114  14.665
14757W        W83162  37.233  17.187   3.263
14758W        W83163  43.070  37.814   0.688
14759W        W83164  17.820  21.360   0.056
14760W        W83165   4.017  15.932   1.066
14761W        W83166  17.867  35.701  12.907
14762W        W83167  13.938  27.650  12.095
14763W        W83168  29.086  43.461   3.411
14764W        W83169  14.048  43.578   3.205
14765W        W83170  30.402   5.130  12.478
14766W        W83171   9.330   7.271  13.827
14767W        W83172   8.977  15.297   1.752
14768W        W83173  30.216   5.744   2.194
14769W        W83174   7.161  21.791  12.923
14770W        W83175  22.454  30.523   4.653
14771W        W83176   8.204  27.417   2.182
14772W        W83177  16.121  32.540   0.245
14773W        W83178  26.000  30.189   3.274
14774W        W83179  38.020  12.258   4.232
14775W        W83180  31.530  15.581  11.015
14776W        W83181  27.395  10.578   2.581
14777W        W83182   7.601  23.209  13.940
14778W        W83183  37.094  23.658  11.505
14779W        W83184  12.667  34.605  13.397
14780W        W83185  32.391   2.804  10.391
14781W        W83186  15.285  42.310   3.654
14782W        W83187  37.444   7.270   0.436
14783W        W83188  35.988  22.461   0.791
14784W        W83189   2.260   6.326   2.545
14785W        W83190   1.874  15.556  10.682
14786W        W83191  20.548  34.994   2.718
14787W        W83192  32.996   8.240   4.637
14788W        W83193  32.097  10.354  13.855
14789W        W83194   7.402  34.556  12.478
14790W        W83195  21.024  21.815   5.205
14791W        W83196  24.075  30.575  12.458
14792W        W83197  24.837   5.853  13.428
14793W        W83198   0.938   3.897   3.880
14794W        W83199  37.403  41.959  11.461
14795W        W83200   6.825  25.172   2.739
14796W        W83201   0.428  41.726  12.675
14797W        W83202  35.343   4.926  12.869
14798W        W83203  15.672  42.580  11.554
14799W        W83204   6.648  30.201  12.180
14800W        W83205   3.760  36.370  12.377
14801W        W83206  31.900  29.916  11.855
14802W        W83207   0.217  18.670  12.379
14803W        W83208  31.973  40.037   1.786
14804W        W83209  31.631  23.977  13.404
14805W        W83210  35.816   7.240  12.059
14806W        W83211  27.712  15.052  12.901
14807W        W83212   5.753   7.040   3.655
14808W        W83213  10.192  43.450  14.034
14809W        W83214  39.042   7.280   4.772
14810W        W83215  42.311  10.641  12.015
14811W        W83216  13.332  32.112  10.230
14812W        W83217   7.898  43.513   0.354
14813W        W83218  32.541  17.869  12.536
14814W        W83219   1.322  44.291   3.035
14815W        W83220  23.763  20.613  14.086
14816W        W83221   8.805  35.397   2.176
14817W        W83222   3.876  38.951  13.453
14818W        W83223  31.655  25.876  11.982
14819W        W83224  27.901  13.066   4.259
14820W        W83225   0.725  10.681  14.452
14821W        W83226  10.254  25.005  10.640
14822W        W83227  12.270  30.597  12.652
14823W        W83228  13.772  37.167   3.176
14824W        W83229  38.979  39.263   3.579
14825W        W83230  15.911  26.320   3.271
14826W        W83231  27.027   0.821  14.358
14827W        W83232  26.259   4.381  12.064
14828W        W83233  17.470  22.746   4.049
14829W        W83234  29.963  11.461   0.960
14830W        W83235  34.153  17.726  10.583
14831W        W83236  11.643  22.699  13.530
14832W        W83237  29.558  43.318   0.365
14833W        W83238  34.839  30.633   4.580
14834W        W83239  36.350  20.980   4.103
14835W        W83240  25.065  16.534  14.268
14836W        W83241  37.961  32.984   1.915
14837W        W83242  22.196  32.263   3.631
14838W        W83243  24.200  39.639  13.542
14839W        W83244  29.476  14.784   2.377
14840W        W83245  39.324  17.694   3.127
14841W        W83246  41.255  33.854   4.133
14842W        W83247  41.643  25.590   3.583
14843W        W83248  38.866  12.175   3.223
14844W        W83249   1.681  26.543   2.690
14845W        W83250  11.040  14.737   3.870
14846W        W83251  31.184  40.792  10.092
14847W        W83252  19.565  43.415  11.105
14848W        W83253  25.612  21.736   4.545
14849W        W83254  42.853   1.791   0.488
14850W        W83255   1.583  42.691   4.075
14851W        W83256  15.856   0.732   9.851
14852W        W83257  21.083  25.585   5.009
14853W        W83258  36.957   6.773  13.772
14854W        W83259   7.258  35.867   3.595
14855W        W83260  28.665  14.695   1.891
14856W        W83261  39.592  28.492  14.912
14857W        W83262  42.294   3.394  10.941
14858W        W83263  14.820  22.980  11.645
14859W        W83264  27.263   8.270   0.789
14860W        W83265  25.553  39.483  11.505
14861W        W83266  40.310  33.307   3.576
14862W        W83267  43.499   3.776  11.188
14863W        W83268  38.361  13.544   3.553
14864W        W83269   0.850   5.774  12.121
14865W        W83270   6.356  10.061  12.257
14866W        W83271  38.478  21.058   4.746
14867W        W83272  15.235  28.911   0.164
14868W        W83273   6.009  44.763  13.368
14869W        W83274  29.974  30.102   0.582
14870W        W83275  40.938   9.429  12.934
14871W        W83276  10.750   2.642   4.472
14872W        W83277  25.566  11.788  14.186
14873W        W83278  31.887  17.900  11.517
14874W        W83279  44.227  38.292   1.280
14875W        W83280  24.977  38.057  12.130
14876W        W83281   3.240  28.879  12.391
14877W        W83282  24.154  28.610  12.881
14878W        W83283  26.102  20.951  13.569
14879W        W83284  37.861  34.940   0.035
14880W        W83285  31.494  34.908  13.279
14881W        W83286   4.746  37.828  11.946
14882W        W83287  27.079  14.629  12.856
14883W        W83288  44.499   5.121   0.410
14884W        W83289  34.175  26.475   9.997
14885W        W83290   9.877   4.664  10.618
14886W        W83291   6.110  35.009  11.018
14887W        W83292  11.265  31.388  10.532
14888W        W83293  27.116  38.134   0.459
14889W        W83294  27.510  41.851  14.303
14890W        W83295  35.625  23.225  11.616
14891W        W83296  13.157   9.901   1.719
14892W        W83297  28.608  16.516   5.061
14893W        W83298   8.131   5.666   1.119
14894W        W83299  25.487  15.640  13.066
14895W        W83300  30.060  22.753   1.354
14896W        W83301  29.228  44.197  13.969
14897W        W83302  22.052  21.060  14.070
14898W        W83303  11.587  13.081  11.499
14899W        W83304   9.252   9.385  14.248
14900W        W83305  38.941  16.568  11.533
14901W        W83306   2.183  18.189   4.385
14902W        W83307  33.787  44.997  12.125
14903W        W83308  17.456  12.117   2.942
14904W        W83309  19.795  20.200  11.659
14905W        W83310   0.402  15.673  13.504
14906W        W83311  27.658  18.106  10.874
14907W        W83312   6.267  12.826   5.138
14908W        W83313  40.080  27.898   1.413
14909W        W83314  29.610  37.972   3.756
14910W        W83315   4.779  28.774   1.347
14911W        W83316  31.589  40.109   3.338
14912W        W83317  21.004   7.917  11.207
14913W        W83318  32.563  36.825  13.447
14914W        W83319  17.618   7.959  14.708
14915W        W83320  17.712  22.329  14.800
14916W        W83321   6.840  16.807  10.536
14917W        W83322  16.228  40.363  14.812
14918W        W83323   1.979  18.287  11.480
14919W        W83324  38.513  31.720   5.039
14920W        W83325   1.347  29.734   2.251
14921W        W83326   6.059  32.723   0.956
14922W        W83327   1.801  17.639   1.941
14923W        W83328  14.510   0.805   0.933
14924W        W83329  39.701  15.226   0.239
14925W        W83330  39.530  25.585   2.772
14926W        W83331  36.571  10.692  13.075
14927W        W83332  19.875  33.760  12.846
14928W        W83333  20.130  41.840   0.860
14929W        W83334   2.561  19.200  14.958
14930W        W83335  40.939  29.165   0.614
14931W        W83336  19.355  27.465  11.126
14932W        W83337  30.910   1.496  13.941
14933W        W83338  13.541  14.636  13.554
14934W        W83339  16.575  18.086   0.946
14935W        W83340  26.162  18.968  13.919
14936W        W83341  35.026  27.999   5.402
14937W        W83342  30.165  21.732   1.170
14938W        W83343  34.096  20.117   2.864
14939W        W83344  28.921   2.973  13.554
14940W        W83345  33.375  31.117  14.802
14941W        W83346   1.298   2.524  13.120
14942W        W83347  13.267  28.536   0.310
14943W        W83348  36.597  18.612  14.834
14944W        W83349  17.699   7.412   0.858
14945W        W83350  11.706  22.130   1.703
14946W        W83351  16.823   9.018  11.928
14947W        W83352   8.422  40.025  11.159
14948W        W83353  41.924   8.176   4.228
14949W        W83354  33.452  41.336  11.176
14950W        W83355  32.678   4.705   0.712
14951W        W83356   2.796  30.508   0.053
14952W        W83357   8.835  10.502  12.587
14953W        W83358  33.280  44.874  11.966
14954W        W83359  15.093  25.635  11.875
14955W        W83360  30.318   1.439  13.622
14956W        W83361  19.741  37.171   0.453
14957W        W83362  43.066  28.649  11.555
14958W        W83363   8.874  14.219  12.844
14959W        W83364  38.424   4.608  12.216
14960W        W83365  20.735  39.332  13.475
14961W        W83366  21.226   3.958  13.942
14962W        W83367  18.148  24.113   3.100
14963W        W83368  19.161   7.708   1.706
14964W        W83369   6.025   1.918  11.001
14965W        W83370   7.428  15.304  11.089
14966W        W83371  14.271  43.850  11.718
14967W        W83372  26.611  14.395   1.727
14968W        W83373   4.727  32.706   2.659
14969W        W83374  43.781  24.770   3.767
14970W        W83375  44.006  32.873   1.131
14971W        W83376  31.117   1.957  13.756
14972W        W83377  22.983  35.292  14.799
14973W        W83378  27.884  14.242  11.982
14974W        W83379  40.989   7.005  14.693
14975W        W83380  44.386  32.328  12.591
14976W        W83381  44.750  28.967   3.619
14977W        W83382  22.677   1.495   2.901
14978W        W83383   7.355   3.931  12.121
14979W        W83384   3.241  18.054   0.818
14980W        W83385  37.051   1.375  14.331
14981W        W83386  44.838  39.232  11.068
14982W        W83387  38.893  44.384  10.980
14983W        W83388  19.083  39.399  12.917
14984W        W83389  15.073  35.621   0.138
14985W        W83390   2.565  11.197   2.641
14986W        W83391  17.712  43.367  14.452
14987W        W83392   8.610  19.269   3.188
14988W        W83393   4.486  12.674  11.499
14989W        W83394  42.503  32.949  11.355
14990W        W83395  12.205  41.658  12.182
14991W        W83396   5.440  26.902  12.302
14992W        W83397  41.907  40.309   3.475
14993W        W83398  12.917   6.024   4.970
14994W        W83399   0.800  33.815   2.669
14995W        W83400  22.281  16.136  11.081
14996W        W83401  35.892  12.171   1.627
14997W        W83402   0.877  33.402  14.672
14998W        W83403  26.432  35.372  11.380
14999W        W83404  40.010  26.199  10.503
15000W        W83405  20.583  22.472  14.820
15001W        W83406  27.822  39.601  11.975
15002W        W83407  29.488  35.295  10.663
15003W        W83408   3.744  42.691  14.946
15004W        W83409  38.058  10.294  10.833
15005W        W83410   2.434  27.129  12.010
15006W        W83411  25.036  11.225  14.847
15007W        W83412  25.520  28.144   4.250
15008W        W83413  14.757   8.764  14.974
15009W        W83414   4.468  28.183  11.608
15010W        W83415  13.066  37.123   1.735
15011W        W83416  23.239   9.410   1.147
15012W        W83417  19.322  13.071  13.570
15013W        W83418  32.026  30.966   4.528
15014W        W83419  44.334  18.211  11.988
15015W        W83420  21.984  43.837  13.036
15016W        W83421  21.091  21.188  13.262
15017W        W83422  15.413  16.575  11.126
15018W        W83423  30.511  43.150  14.825
15019W        W83424  43.006   4.369  14.417
15020W        W83425   5.468  25.536  11.257
15021W        W83426  36.567  23.383   3.222
15022W        W83427  22.841  34.581  11.566
15023W        W83428   8.598  37.582   0.507
15024W        W83429  10.319  25.790  11.033
15025W        W83430   9.838   7.672   1.926
15026W        W83431   0.355  14.925   4.148
15027W        W83432  28.119  14.449   0.888
15028W        W83433   0.430  39.107   1.505
15029W        W83434  43.335  23.131   2.732
15030W        W83435  21.308  38.980   4.207
15031W        W83436  34.027  28.653   3.611
15032W        W83437   1.294  24.302  12.913
15033W        W83438  42.774  36.987   4.950
15034W        W83439  23.704  36.883   3.806
15035W        W83440  22.146  36.978  13.397
15036W        W83441   8.785  13.113   2.992
15037W        W83442   1.890  18.366  13.017
15038W        W83443  39.493  21.963   3.691
15039W        W83444  41.318  13.117   4.415
15040W        W83445  27.371  42.948   0.829
15041W        W83446  35.752   0.568   2.390
15042W        W83447   1.957   5.358  14.749
15043W        W83448  19.696  39.814   2.085
15044W        W83449  31.504  21.124  14.594
15045W        W83450  35.904  28.499  13.650
15046W        W83451  31.796  28.237   5.342
15047W        W83452  40.186  18.059  10.524
15048W        W83453  18.930  14.872   4.013
15049W        W83454   5.702  12.708   2.803
15050W        W83455   6.224   4.763  13.775
15051W        W83456  14.763  16.111   2.734
15052W        W83457  15.773  12.492   1.257
15053W        W83458  18.718  29.487   2.307
15054W        W83459  40.485  29.272  14.380
15055W        W83460  36.983  18.417  14.259
15056W        W83461  22.292   1.231   2.388
15057W        W83462   1.999  16.625  12.516
15058W        W83463  27.064  30.160  13.514
15059W        W83464  18.040  21.136  13.499
15060W        W83465  19.392  32.041  11.126
15061W        W83466  24.952  41.850   2.002
15062W        W83467  19.088  34.055   3.732
15063W        W83468  11.219  43.846   3.868
15064W        W83469  12.089  28.587  14.893
15065W        W83470  39.542  31.998   3.850
15066W        W83471  40.704  15.623  12.044
15067W        W83472   4.959  28.529  11.963
15068W        W83473  19.851  38.891   0.104
15069W        W83474  10.372  15.979  11.519
15070W        W83475  37.554  37.039  13.895
15071W        W83476  28.662  43.849  10.642
15072W        W83477  12.059   0.765   0.624
15073W        W83478  43.899  17.317   4.536
15074W        W83479  10.642   9.122   2.913
15075W        W83480  20.996   9.844  14.993
15076W        W83481   0.992  29.063  10.295
15077W        W83482  39.991  21.008   9.886
15078W        W83483  42.829   5.453  12.475
15079W        W83484   6.140  40.044  11.962
15080W        W83485  23.748  13.288  13.018
15081W        W83486   0.757   1.379   2.386
15082W        W83487   7.339  16.055  14.984
15083W        W83488  22.036  31.965  12.493
15084W        W83489  25.273  39.973  11.869
15085W        W83490  26.268  22.079  12.916
15086W        W83491   2.274  30.701   0.857
15087W        W83492  41.340  17.139  11.972
15088W        W83493  27.042  42.838   3.207
15089W        W83494  32.552  12.684   2.688
15090W        W83495  25.533  21.847   3.189
15091W        W83496  12.154   3.006   0.427
15092W        W83497  28.868  34.627  10.593
15093W        W83498  23.659  43.868   1.945
15094W        W83499  41.754  38.493  14.757
15095W        W83500  13.700   5.316   0.298
15096W        W83501  39.036  32.074   0.345
15097W        W83502  20.302   4.471   0.331
15098W        W83503  18.928   2.978   2.761
15099W        W83504  36.507  43.759   3.389
15100W        W83505  21.161  38.623  10.673
15101W        W83506  10.695  22.035  14.733
15102W        W83507   9.783  28.115   3.197
15103W        W83508  42.528  20.677  11.144
15104W        W83509  25.274   2.404   3.665
15105W        W83510   0.536  20.733   1.386
15106W        W83511  40.452  25.461  13.038
15107W        W83512  16.048   1.398  12.440
15108W        W83513  40.174   7.252   4.897
15109W        W83514  22.814  41.469   2.102
15110W        W83515  10.580  17.898  10.615
15111W        W83516  24.801   6.294  12.091
15112W        W83517  23.440  22.578   1.220
15113W        W83518   9.931  11.850  14.554
15114W        W83519  26.896  25.529   1.044
15115W        W83520   9.411  17.532  12.269
15116W        W83521  37.743   0.707   4.171
15117W        W83522  26.623  34.690  14.652
15118W        W83523   8.571  31.268   2.818
15119W        W83524  31.328  40.510   2.295
15120W        W83525  31.445  39.761  14.934
15121W        W83526  11.871   6.239   3.743
15122W        W83527  25.696  33.581   4.191
15123W        W83528   3.888  22.081  14.371
15124W        W83529  11.903   8.635  11.244
15125W        W83530  20.681  40.528  13.377
15126W        W83531  14.084  39.592   0.971
15127W        W83532  38.636   8.599  11.172
15128W        W83533   6.854   3.407   3.298
15129W        W83534   8.632  23.597   3.357
15130W        W83535  44.707   4.498   4.638
15131W        W83536  33.397  29.557  14.567
15132W        W83537  22.993  22.757  13.577
15133W        W83538  18.607  33.540  14.883
15134W        W83539  37.356  33.124  12.156
15135W        W83540  40.935  26.728  13.986
15136W        W83541  32.410  31.873  11.179
15137W        W83542  16.195  44.515   3.732
15138W        W83543  29.836  27.497   0.659
15139W        W83544  29.463  32.078  14.584
15140W        W83545  38.642  14.328   1.330
15141W        W83546   8.457  11.778  11.643
15142W        W83547  37.784   1.505   0.508
15143W        W83548  20.583  31.029  11.917
15144W        W83549   1.734  19.578   3.921
15145W        W83550  10.758   2.023  14.400
15146W        W83551  10.356   4.366  13.350
15147W        W83552  42.750  36.050  11.428
15148W        W83553   0.245   5.262   0.690
15149W        W83554  12.341  28.668  12.522
15150W        W83555   2.990  33.159   0.392
15151W        W83556  23.650  31.390   4.219
15152W        W83557  32.146  33.439  11.676
15153W        W83558  17.865  42.387  10.823
15154W        W83559  34.912  16.280   4.570
15155W        W83560  25.488   6.400  13.725
15156W        W83561   6.837  37.383   4.261
15157W        W83562  27.216  27.536  13.610
15158W        W83563  30.010   9.321   4.083
15159W        W83564  42.451  28.649  12.438
15160W        W83565  33.072  23.525  10.579
15161W        W83566   2.868  18.312  11.861
15162W        W83567   1.030  35.044  13.212
15163W        W83568  17.052  21.848   1.371
15164W        W83569   9.868  19.870  10.883
15165W        W83570  26.523  27.116   1.326
15166W        W83571   1.264  43.524  12.404
15167W        W83572  12.216  20.790  13.054
15168W        W83573   8.040   8.955   4.157
15169W        W83574   1.982   9.826  11.553
15170W        W83575  20.266  35.458   3.859
15171W        W83576  17.708   4.482   3.315
15172W        W83577  34.571  26.237   0.830
15173W        W83578   5.280  43.777  11.858
15174W        W83579  22.055  12.693  11.111
15175W        W83580   8.851  19.766   1.186
15176W        W83581  35.590  14.115  14.273
15177W        W83582  37.899  13.366  14.326
15178W        W83583  39.494  12.109   3.724
15179W        W83584  23.014  12.195   3.868
15180W        W83585   4.888   7.887   4.271
15181W        W83586   0.730   2.758  13.866
15182W        W83587  34.941  44.371  11.966
15183W        W83588  17.683  18.601   2.398
15184W        W83589  13.106  42.540   4.226
15185W        W83590  39.487  11.774   1.821
15186W        W83591   2.972  38.751  14.481
15187W        W83592  25.654  38.815  14.825
15188W        W83593  12.630  33.247  13.405
15189W        W83594  21.689  41.388  10.733
15190W        W83595   0.257  29.006  12.108
15191W        W83596  22.918  19.865  11.650
15192W        W83597   0.438  11.111  14.423
15193W        W83598  43.919  30.543   0.246
15194W        W83599  33.026  43.028   3.082
15195W        W83600  39.831  23.410   0.508
15196W        W83601  18.570   9.368  11.548
15197W        W83602  17.846  18.247   4.587
15198W        W83603  22.534  16.641  14.925
15199W        W83604   4.385  28.859   4.694
15200W        W83605  20.210  44.603   1.899
15201W        W83606   9.157  33.707  12.991
15202W        W83607   4.191  38.632   1.362
15203W        W83608  36.909  29.056  10.664
15204W        W83609  43.336  20.571  14.514
15205W        W83610  29.381  37.393  14.098
15206W        W83611   7.382   8.162   0.230
15207W        W83612  42.209  20.334  14.935
15208W        W83613  15.801   7.686   4.756
15209W        W83614  15.161  30.850   2.263
15210W        W83615  25.441   4.965  11.608
15211W        W83616  19.400   6.301   4.292
15212W        W83617   4.823   2.108  14.042
15213W        W83618  13.387  12.962  12.861
15214W        W83619  16.129  27.699   2.809
15215W        W83620  26.160  28.190   1.311
15216W        W83621   8.799  22.174   0.409
15217W        W83622  19.969  40.492   5.128
15218W        W83623  43.994  11.155   3.229
15219W        W83624  34.503  27.577  14.949
15220W        W83625  30.108   0.654  10.865
15221W        W83626  20.252   4.955   1.926
15222W        W83627  13.008   9.212  13.180
15223W        W83628   5.785  10.328  10.778
15224W        W83629  26.193  28.979   4.797
15225W        W83630  31.039  35.576   0.261
15226W        W83631  24.997  31.114   3.080
15227W        W83632  26.998  40.200   2.846
15228W        W83633  36.198  29.369   3.627
15229W        W83634  33.965  30.236  12.506
15230W        W83635  33.949   0.518  13.491
15231W        W83636  36.528   0.406   2.720
15232W        W83637  17.844  39.541  12.095
15233W        W83638  17.354  35.557   2.312
15234W        W83639  31.312   7.860  14.989
15235W        W83640  12.794   9.302   3.868
15236W        W83641  21.997  12.700   1.896
15237W        W83642  43.593  16.762  14.332
15238W        W83643   0.733  23.118  12.868
15239W        W83644  37.655  29.535  11.854
15240W        W83645  31.479   0.581   4.516
15241W        W83646  30.789  20.121   0.189
15242W        W83647  17.873  18.688   4.258
15243W        W83648  38.458   0.002   0.805
15244W        W83649  28.347  33.457  11.410
15245W        W83650  23.678  18.157  10.642
15246W        W83651   4.811   9.328  13.772
15247W        W83652  40.976  30.061   1.123
15248W        W83653   8.143  43.258   4.662
15249W        W83654  39.431  25.084  14.146
15250W        W83655  13.821  42.019  12.644
15251W        W83656  27.648   3.322   2.221
15252W        W83657   7.404   2.492   2.213
15253W        W83658   9.243  31.974  13.367
15254W        W83659  37.918  27.913  10.668
15255W        W83660  16.615  18.275  14.067
15256W        W83661  36.943  27.504   4.594
15257W        W83662  20.209  20.604   2.422
15258W        W83663   7.946   5.303   2.247
15259W        W83664  11.902   8.804   3.063
15260W        W83665  11.196  22.594  14.325
15261W        W83666   8.303   7.869   4.154
15262W        W83667  31.462   3.069   3.784
15263W        W83668   1.198  14.106   3.654
15264W        W83669  31.692   3.316  11.632
15265W        W83670  17.073  11.209   3.681
15266W        W83671  27.239  28.489   1.842
15267W        W83672  38.591  27.560   0.713
15268W        W83673  27.536  12.797   1.791
15269W        W83674  27.436  41.388   2.389
15270W        W83675   8.627  35.603  11.298
15271W        W83676  38.562  20.769  12.078
15272W        W83677  13.029  35.041  12.753
15273W        W83678  33.873  26.462  14.499
15274W        W83679   4.139  26.713  11.599
15275W        W83680  13.849  24.444  10.899
15276W        W83681  10.659  33.152  14.456
15277W        W83682  33.531  10.921  12.884
15278W        W83683  44.401   5.782   4.612
15279W        W83684  42.950   6.166   2.274
15280W        W83685   7.387  29.983   0.464
15281W        W83686  41.110   8.667  14.615
15282W        W83687  29.902   8.750   0.261
15283W        W83688   3.750  22.986   2.352
15284W        W83689  41.788  23.602  12.550
15285W        W83690   5.484   2.357  13.469
15286W        W83691   6.395  28.963   1.675
15287W        W83692  35.065  28.139  12.486
15288W        W83693   2.841  35.426  11.039
15289W        W83694   9.700  33.481   2.898
15290W        W83695  36.905  19.119   3.801
15291W        W83696   5.758  29.652  14.897
15292W        W83697  16.623  31.162   3.053
15293W        W83698  35.482   7.609   1.756
15294W        W83699  13.884  36.824  14.857
15295W        W83700  36.633  39.005   2.801
15296W        W83701  43.895  40.509   4.628
15297W        W83702  30.066  16.541  11.057
15298W        W83703   1.860  31.504  14.001
15299W        W83704  22.929   8.879  11.417
15300W        W83705  39.932  39.240  14.010
15301W        W83706  18.444  32.430   2.879
15302W        W83707  13.419   4.400  14.396
15303W        W83708  25.050  24.981  14.893
15304W        W83709  23.471   7.293  13.296
15305W        W83710  17.182  20.870   1.247
15306W        W83711   3.725  18.643  11.482
15307W        W83712  25.260  44.938  13.069
15308W        W83713  44.308  31.113  10.686
15309W        W83714  20.998  19.597  11.249
15310W        W83715  23.220  29.218  13.853
15311W        W83716  41.060  20.351  14.517
15312W        W83717  18.251   4.370   0.435
15313W        W83718   4.805  37.427   3.694
15314W        W83719  33.475  44.418  10.529
15315W        W83720  39.286  43.439   2.872
15316W        W83721  34.345  21.174   2.867
15317W        W83722  20.526  34.337  14.564
15318W        W83723   4.415  12.296  14.830
15319W        W83724  27.582   3.137   4.534
15320W        W83725   7.276  32.351   1.613
15321W        W83726  18.117   9.820   1.051
15322W        W83727  42.518  27.947  14.995
15323W        W83728  42.795  44.457  12.672
15324W        W83729   8.704   7.202  11.082
15325W        W83730  21.732  44.313  12.965
15326W        W83731  33.527  14.393   4.698
15327W        W83732   3.701  27.272   0.381
15328W        W83733  28.799  15.538  11.144
15329W        W83734   2.804   0.455   1.443
15330W        W83735  42.290   3.724   0.444
15331W        W83736  21.765  28.439  14.961
15332W        W83737   0.794  32.935  12.407
15333W        W83738  36.143  18.981   4.516
15334W        W83739  29.643   3.894   1.447
15335W        W83740  31.635  35.300  13.005
15336W        W83741   8.150  33.124  12.043
15337W        W83742  17.751  39.548   4.599
15338W        W83743  17.058  18.159  13.457
15339W        W83744  38.917   5.828   0.919
15340W        W83745  38.451  10.852   4.152
15341W        W83746   6.290  33.449   0.240
15342W        W83747  34.480  41.703  10.652
15343W        W83748  29.650  24.961  12.957
15344W        W83749  37.823   2.524   3.750
15345W        W83750  23.898  40.868   0.933
15346W        W83751   1.378  29.513   2.714
15347W        W83752  17.030   2.510   0.339
15348W        W83753  22.009   3.931  13.538
15349W        W83754  14.117  33.061   3.720
15350W        W83755  39.329  29.337   3.147
15351W        W83756   5.635  35.433  10.749
15352W        W83757  20.547  15.581  14.904
15353W        W83758  31.444  30.050  13.359
15354W        W83759  32.519  21.184   3.823
15355W        W83760  26.085  24.911  11.678
15356W        W83761  20.029  34.950  14.488
15357W        W83762  24.234  35.751   1.733
15358W        W83763  44.810  23.781   4.317
15359W        W83764  25.758  14.596   4.631
15360W        W83765  43.094  20.357  10.558
15361W        W83766  20.374  35.260   0.857
15362W        W83767  35.848  42.305   0.435
15363W        W83768  33.010  36.512   4.247
15364W        W83769  13.786  12.847   0.341
15365W        W83770   5.159  31.423   3.860
15366W        W83771  16.105  39.899   0.898
15367W        W83772  42.006  31.455  13.004
15368W        W83773   4.715  18.153  14.164
15369W        W83774  10.902  39.764  13.563
15370W        W83775   2.711  30.888  12.256
15371W        W83776  36.680  25.821   3.144
15372W        W83777  28.968   3.986  13.517
15373W        W83778  13.318  37.567   0.607
15374W        W83779  30.543  38.479  13.777
15375W        W83780  23.225   8.095  12.173
15376W        W83781   7.099   1.585  10.373
15377W        W83782  44.866  36.284   4.732
15378W        W83783  35.466  33.372   1.368
15379W        W83784  31.039  11.636   4.371
15380W        W83785  10.832  11.727   1.893
15381W        W83786  28.605   5.062  10.252
15382W        W83787  27.231   8.696  14.464
15383W        W83788  12.103  10.234   1.719
15384W        W83789  30.881  26.503   0.494
15385W        W83790   1.011   9.194  14.819
15386W        W83791   7.284  29.542  12.283
15387W        W83792   8.926  42.919  13.950
15388W        W83793   9.793   4.848   2.296
15389W        W83794   3.147  30.816  11.429
15390W        W83795   6.445  42.223   1.470
15391W        W83796  41.436  13.018  14.872
15392W        W83797  39.730   9.712  14.735
15393W        W83798   6.716  41.340  12.443
15394W        W83799  10.271   3.277  12.604
15395W        W83800  18.565  33.963   1.691
15396W        W83801  13.804   8.956   0.430
15397W        W83802  22.621  19.292  14.245
15398W        W83803  12.763  26.647   4.086
15399W        W83804  33.883  41.062  11.216
15400W        W83805  38.300   9.379  14.871
15401W        W83806  31.729  43.585   2.751
15402W        W83807  26.620  34.459   5.007
15403W        W83808  42.714  18.662  14.092
15404W        W83809  25.621  20.097  14.959
15405W        W83810  35.641  28.244   2.753
15406W        W83811  10.742  12.191   2.590
15407W        W83812  22.069  10.331  13.347
15408W        W83813  14.587  11.162  11.552
15409W        W83814  19.754  10.971   4.261
15410W        W83815   0.291  10.804  10.679
15411W        W83816  38.685  22.537  14.055
15412W        W83817   0.920  12.968  12.410
15413W        W83818  22.203  42.551   4.348
15414W        W83819  30.996  19.497   3.223
15415W        W83820   7.907  36.042   2.396
15416W        W83821  42.794   0.854  14.286
15417W        W83822  17.838  20.461  14.520
15418W        W83823  18.096  33.164   0.671
15419W        W83824  42.796   3.233   1.653
15420W        W83825  34.106  41.636  11.993
15421W        W83826  23.650   1.954  14.862
15422W        W83827   6.007  33.488   3.787
15423W        W83828  13.376  40.836  10.695
15424W        W83829  29.194  16.145  13.470
15425W        W83830  43.744  27.567   0.943
15426W        W83831  40.283  19.518  10.095
15427W        W83832  16.841   7.208   3.618
15428W        W83833   8.413  32.902   2.359
15429W        W83834  32.824  43.995  12.137
15430W        W83835  10.077   2.802  14.917
15431W        W83836  33.015   5.908  12.761
15432W        W83837  11.292  20.848  11.106
15433W        W83838  24.049  17.094   1.085
15434W        W83839  21.725   4.794  11.469
15435W        W83840   5.949  26.145   4.019
15436W        W83841  34.977  25.529   3.833
15437W        W83842  13.203  10.767  14.310
15438W        W83843  26.919  39.451   2.244
15439W        W83844   1.441   4.082  13.985
15440W        W83845  24.608  12.027  12.059
15441W        W83846  24.274  23.975  13.070
15442W        W83847   5.384  32.883  14.052
15443W        W83848  15.772  31.084  11.160
15444W        W83849  38.125  30.417  13.954
15445W        W83850  15.780  10.427  13.391
15446W        W83851   4.330  19.937  11.488
15447W        W83852  43.860  23.005   1.288
15448W        W83853  38.572  31.551   2.404
15449W        W83854  41.401  33.860  10.596
15450W        W83855  16.619  13.845  14.473
15451W        W83856  43.565  13.050   0.255
15452W        W83857  43.425  29.407  14.489
15453W        W83858  32.866  16.834  11.081
15454W        W83859  14.693   8.147   4.673
15455W        W83860   6.170  23.649  12.612
15456W        W83861  30.674  12.180  11.664
15457W        W83862  26.414   8.900   4.157
15458W        W83863   8.700   6.470   1.673
15459W        W83864  19.045  30.405   1.452
15460W        W83865  33.393  41.935   2.242
15461W        W83866  26.147  34.950   2.390
15462W        W83867  21.194   1.242  13.324
15463W        W83868  24.686   1.494  11.111
15464W        W83869  29.566  35.832  12.935
15465W        W83870  33.637  11.324   0.837
15466W        W83871  36.834   3.801   1.412
15467W        W83872   8.940  17.902  10.265
15468W        W83873  28.159   0.979  12.314
15469W        W83874  28.910  42.916   3.729
15470W        W83875   5.194  18.631  14.460
15471W        W83876  18.077  18.206  12.519
15472W        W83877  25.851  23.678  11.143
15473W        W83878   1.920  30.916   3.628
15474W        W83879   6.677  31.012   4.481
15475W        W83880  22.178   3.688   0.390
15476W        W83881  14.555  36.631  11.811
15477W        W83882   5.865   4.344  14.781
15478W        W83883  14.160   6.099   3.831
15479W        W83884  20.190  14.927   3.897
15480W        W83885  43.901   5.165  10.761
15481W        W83886  36.170  16.958   2.613
15482W        W83887   5.406   8.365   2.632
15483W        W83888  11.190  40.847   0.694
15484W        W83889  23.742  37.402  11.737
15485W        W83890  34.093  43.754  10.919
15486W        W83891   6.134  25.033   2.254
15487W        W83892  30.495   1.135  14.002
15488W        W83893  22.027  12.839  13.935
15489W        W83894  44.564  28.929  14.011
15490W        W83895   4.951  26.728  14.907
15491W        W83896  21.515  36.727   0.634
15492W        W83897  19.530   5.039  12.101
15493W        W83898  22.030  10.824   3.674
15494W        W83899   9.086  16.053   2.749
15495W        W83900  37.813   6.291   1.391
15496W        W83901   2.139  39.324  13.035
15497W        W83902   8.574  40.494  12.025
15498W        W83903   2.024  18.046  14.776
15499W        W83904  25.126   8.931  14.090
15500W        W83905  18.646  31.072  14.177
15501W        W83906  10.895  18.607  14.680
15502W        W83907   8.484   1.212   0.314
15503W        W83908  21.269  22.293   4.133
15504W        W83909   0.806  26.619  13.019
15505W        W83910  35.857   9.469  14.492
15506W        W83911  43.997  44.477   4.301
15507W        W83912   0.075  32.611  13.556
15508W        W83913  24.019   1.797   4.638
15509W        W83914  29.205   6.244   2.790
15510W        W83915  37.859  10.897   2.347
15511W        W83916  15.306   2.198   4.615
15512W        W83917  34.349   4.994   2.642
15513W        W83918  26.960  16.329  11.470
15514W        W83919  31.590  10.340   0.500
15515W        W83920  31.359  27.551   1.648
15516W        W83921   3.664  24.156  13.790
15517W        W83922  36.599  44.385   2.366
15518W        W83923  25.015  44.002  12.439
15519W        W83924   2.989  11.170   2.315
15520W        W83925  39.482  35.889   2.858
15521W        W83926  31.989   3.447   2.782
15522W        W83927  38.754  16.696   1.769
15523W        W83928  43.749  44.957   0.429
15524W        W83929  31.418  17.094   1.126
15525W        W83930   9.371  32.811  14.924
15526W        W83931  43.532  17.679  14.422
15527W        W83932  10.203   2.113  13.882
15528W        W83933  32.211  41.426  11.616
15529W        W83934   2.819  38.946   1.011
15530W        W83935  10.168  32.560   1.826
15531W        W83936  15.232  12.107   0.611
15532W        W83937  38.095   2.332  12.139
15533W        W83938  22.977   9.246   4.598
15534W        W83939  43.757  31.027   0.479
15535W        W83940  23.106  25.991   1.994
15536W        W83941  37.930  28.001   1.846
15537W        W83942  25.264  18.779   3.221
15538W        W83943   0.363   2.533   3.289
15539W        W83944  39.610  42.693   2.704
15540W        W83945  30.870  22.760  11.634
15541W        W83946  11.689  12.045  12.946
15542W        W83947   5.723  37.020  13.031
15543W        W83948  21.294  33.691  11.200
15544W        W83949  39.434  31.611  10.601
15545W        W83950   2.723  19.010  14.050
15546W        W83951  29.955  33.148   0.556
15547W        W83952  40.200  21.469   3.267
15548W        W83953   1.614   4.123   1.600
15549W        W83954   8.406   2.825  13.967
15550W        W83955  28.514  24.010  13.060
15551W        W83956  16.031  40.590  11.934
15552W        W83957  27.120  33.007  10.765
15553W        W83958  29.037  43.516   2.908
15554W        W83959  25.751   2.301   2.133
15555W        W83960  21.041  23.776   2.750
15556W        W83961  44.077   2.561  13.294
15557W        W83962  11.602  42.531   3.097
15558W        W83963  28.896  26.576   2.345
15559W        W83964  13.247  15.274  10.418
15560W        W83965  10.793  42.082   2.969
15561W        W83966  34.622   0.233   3.757
15562W        W83967  41.474   5.269  12.593
15563W        W83968  15.410  31.827  11.493
15564W        W83969   5.217  30.502   2.938
15565W        W83970  39.143  35.886  11.259
15566W        W83971  39.818   6.277  10.742
15567W        W83972  25.486   0.916  12.467
15568W        W83973  10.301  43.486  13.000
15569W        W83974   0.890   4.921   4.099
15570W        W83975   9.105  36.816  14.723
15571W        W83976   2.849  10.090   4.687
15572W        W83977   9.212   9.440   1.125
15573W        W83978   7.072  42.406   3.952
15574W        W83979  39.876   3.384   2.313
15575W        W83980  16.839  19.337  11.626
15576W        W83981   8.153  38.060  13.818
15577W        W83982  44.581  30.565   2.273
15578W        W83983  10.951  41.091  11.125
15579W        W83984  14.132  23.956  14.229
15580W        W83985  19.762  17.663   2.314
15581W        W83986  29.674  30.699  11.603
15582W        W83987   4.453  21.046   1.793
15583W        W83988   3.237  19.822   0.266
15584W        W83989  30.966  39.420   4.499
15585W        W83990   0.843  37.136   2.784
15586W        W83991  13.014  42.227   0.701
15587W        W83992  38.113  13.379   4.169
15588W        W83993  14.392  41.092  12.507
15589W        W83994  44.970   2.314   4.042
15590W        W83995  10.137  35.932  12.535
15591W        W83996  41.823  30.680   1.832
15592W        W83997  36.407   6.922   1.014
15593W        W83998   7.587  40.597   0.734
15594W        W83999  16.123  23.588   4.362
15595W        W84000   9.425  20.131   3.372
15596W        W84001  21.512  43.336  11.922
15597W        W84002  43.203  35.094   2.303
15598W        W84003  15.313   4.024  10.330
15599W        W84004  11.069  11.573   4.178
15600W        W84005  14.389  10.348   4.287
15601W        W84006  43.205  29.543   0.956
15602W        W84007  16.859  32.033   0.303
15603W        W84008  44.639  41.595  11.275
15604W        W84009   9.763  11.707   1.063
15605W        W84010   0.256   3.758   2.172
15606W        W84011  21.206  14.392   0.498
15607W        W84012  15.771  15.803   4.527
15608W        W84013  34.384  25.789  14.384
15609W        W84014  35.742  22.283   1.787
15610W        W84015  36.395   6.168   1.631
15611W        W84016  22.861   5.343  12.480
15612W        W84017  18.621  26.521   0.399
15613W        W84018  44.555  24.111  13.973
15614W        W84019  31.873  44.901  13.508
15615W        W84020  14.791   5.446  11.679
15616W        W84021   6.386   3.220  10.735
15617W        W84022  42.217  36.987   2.184
15618W        W84023  31.596   5.827  14.354
15619W        W84024   4.845   9.489   0.028
15620W        W84025  39.352   4.209   0.593
15621W        W84026  35.796   3.830   4.820
15622W        W84027  18.985  11.163  10.300
15623W        W84028  44.019   3.964  13.805
15624W        W84029  19.647  41.796   4.332
15625W        W84030  21.628  35.500   1.950
15626W        W84031   9.875  20.688  12.341
15627W        W84032  16.638  25.121   1.310
15628W        W84033  25.691  44.865  10.839
15629W        W84034   3.948  44.862   2.413
15630W        W84035   1.130  43.923   3.798
15631W        W84036   8.759   3.450   1.488
15632W        W84037   1.293  25.185  10.566
15633W        W84038  33.549  21.102   4.662
15634W        W84039  19.773  18.119   3.759
15635W        W84040  30.999  33.483  12.408
15636W        W84041  28.549  36.870   4.269
15637W        W84042   5.938  41.867   2.884
15638W        W84043  22.937  25.098  13.154
15639W        W84044  40.443  10.666   0.801
15640W        W84045  43.460  20.612   4.437
15641W        W84046  37.785   7.980  12.605
15642W        W84047  44.553  29.827  13.519
15643W        W84048   7.773   1.683  11.483
15644W        W84049  38.463   0.932   3.383
15645W        W84050  14.606  19.139  14.509
15646W        W84051  19.085  23.285   2.703
15647W        W84052  24.052  19.631   4.589
15648W        W84053  38.083  44.515   0.385
15649W        W84054   7.360  22.981  11.587
15650W        W84055   0.372   6.429  10.716
15651W        W84056  26.489  41.363   5.040
15652W        W84057  29.422  41.843   2.803
15653W        W84058  21.541  21.777   0.561
15654W        W84059  44.095  27.663  13.926
15655W        W84060  18.071  20.663  13.045
15656W        W84061  17.141  26.568  14.340
15657W        W84062  16.032   6.629   0.454
15658W        W84063  14.884  23.240   3.875
15659W        W84064  24.718   0.219   2.410
15660W        W84065  11.927  28.426   2.211
15661W        W84066  15.105  32.489   3.658
15662W        W84067  39.081   6.825  10.882
15663W        W84068  34.885  35.001  12.012
15664W        W84069  21.444  14.537   4.168
15665W        W84070  35.408  38.426   4.498
15666W        W84071  25.251  18.976  12.850
15667W        W84072  16.325  16.056   4.035
15668W        W84073  17.774  22.603  11.031
15669W        W84074  10.182  30.836  11.180
15670W        W84075   6.666  24.182   1.787
15671W        W84076   5.900  36.800   2.282
15672W        W84077  30.006  23.080  12.762
15673W        W84078  43.680  34.000  10.829
15674W        W84079  15.522   7.642  13.405
15675W        W84080  37.017  30.869  13.849
15676W        W84081  28.879  16.574   1.507
15677W        W84082   9.326  17.291  11.697
15678W        W84083  17.770   9.472  12.096
15679W        W84084  21.579  35.833  13.470
15680W        W84085  44.737  11.090  13.999
15681W        W84086  11.858  18.095   0.758
15682W        W84087   7.649  26.448  12.074
15683W        W84088  40.083  29.602   4.614
15684W        W84089  34.141  17.843   1.682
15685W        W84090  44.047  11.778   4.557
15686W        W84091  42.858   8.221  11.943
15687W        W84092  38.625  23.520   3.713
15688W        W84093   7.909  12.681   0.856
15689W        W84094  22.101   7.578  14.909
15690W        W84095  15.577  16.800  14.577
15691W        W84096  32.432   9.772   2.425
15692W        W84097  14.590  28.935  12.405
15693W        W84098   8.351   8.570  14.226
15694W        W84099  41.376  32.465  13.330
15695W        W84100  16.276  39.867   2.593
15696W        W84101  15.216  31.564  11.922
15697W        W84102  19.114  26.195  14.132
15698W        W84103  25.218  39.888   4.131
15699W        W84104   1.245  19.801  14.013
15700W        W84105  26.474  32.591  12.544
15701W        W84106  26.818  11.172  14.266
15702W        W84107  19.268  24.128   0.180
15703W        W84108  20.042  22.003   4.277
15704W        W84109   3.423   9.322  10.840
15705W        W84110  32.123  24.822  12.620
15706W        W84111   2.302   7.278   4.438
15707W        W84112  25.626  23.490  10.715
15708W        W84113  24.246  42.465   3.701
15709W        W84114  44.787  22.600  13.564
15710W        W84115   8.263  15.884  14.538
15711W        W84116   7.773   3.813  13.958
15712W        W84117   8.502  26.155   1.823
15713W        W84118  43.208  15.738  13.489
15714W        W84119  23.227  26.445   2.231
15715W        W84120  21.104  22.023  14.267
15716W        W84121   5.947  37.967   4.137
15717W        W84122  37.076   3.333   0.170
15718W        W84123   3.823  41.758  10.691
15719W        W84124  19.082   5.358   1.198
15720W        W84125   6.248  43.370  14.242
15721W        W84126  35.503  31.625   4.000
15722W        W84127  17.665  42.561   2.476
15723W        W84128   2.538  32.034  10.476
15724W        W84129  38.876  12.390  13.344
15725W        W84130  37.040  26.175  13.003
15726W        W84131  13.814   2.903  11.525
15727W        W84132  18.573  40.219   1.340
15728W        W84133  32.801   3.208   3.631
15729W        W84134   8.245   3.698  14.818
15730W        W84135   4.362  16.863  11.590
15731W        W84136   9.406  26.287   3.086
15732W        W84137  18.816  25.035  14.780
15733W        W84138  18.202  12.190  12.485
15734W        W84139  37.194  31.167  11.049
15735W        W84140  11.206  16.817  13.033
15736W        W84141   3.273  15.825  11.594
15737W        W84142   9.251  34.714   4.647
15738W        W84143  31.188  34.016   1.240
15739W        W84144   7.235  17.548  12.860
15740W        W84145  20.940  24.626   2.275
15741W        W84146  12.400   7.472  11.280
15742W        W84147  23.092  10.108  12.457
15743W        W84148  21.646  32.920  10.665
15744W        W84149   6.179  14.285  12.597
15745W        W84150  43.787  34.580  14.196
15746W        W84151  15.928  24.538   0.488
15747W        W84152  31.889  10.993  14.983
15748W        W84153  34.335  12.541  12.583
15749W        W84154  44.007  30.263   2.739
15750W        W84155   3.526  37.490  10.633
15751W        W84156  34.658  43.068  10.396
15752W        W84157  34.126   4.395  12.941
15753W        W84158  36.388  28.541  11.485
15754W        W84159  35.845  12.338   4.070
15755W        W84160  34.631  13.854  10.594
15756W        W84161  21.215  31.684   0.423
15757W        W84162  17.654  35.447   4.669
15758W        W84163  26.727  16.308  11.992
15759W        W84164  39.399  29.493   1.432
15760W        W84165  21.631   7.350   2.359
15761W        W84166   1.962  26.622  11.531
15762W        W84167   3.893   0.495  13.937
15763W        W84168  26.269   4.751  12.464
15764W        W84169  15.642  39.653  12.017
15765W        W84170  31.308  25.953  11.049
15766W        W84171  15.045  44.738   0.583
15767W        W84172  22.785  23.286   3.253
15768W        W84173   4.897  36.303   4.446
15769W        W84174  13.147   7.667   3.192
15770W        W84175   2.923  38.665   3.054
15771W        W84176   6.338   3.506  12.059
15772W        W84177  34.426  17.592  11.025
15773W        W84178  40.470  21.029   3.341
15774W        W84179  15.538  39.518  11.289
15775W        W84180   2.977  11.105  12.922
15776W        W84181  38.107  39.933   4.023
15777W        W84182   3.244  31.395   1.718
15778W        W84183  15.164  39.720  11.796
15779W        W84184  29.184  12.247  13.954
15780W        W84185  19.711   8.713  11.649
15781W        W84186  25.659  23.067   4.583
15782W        W84187  39.886   0.368  13.591
15783W        W84188  44.471   2.374  11.108
15784W        W84189  40.102   7.101  12.692
15785W        W84190  40.244  30.364   0.823
15786W        W84191  15.898   3.230  10.200
15787W        W84192   3.216  15.347   4.250
15788W        W84193  14.961  31.993  11.716
15789W        W84194  24.094  19.685  12.128
15790W        W84195  22.144   4.857   4.065
15791W        W84196  24.302  27.920   3.636
15792W        W84197  25.388   6.958   2.741
15793W        W84198   1.909  35.833  11.103
15794W        W84199  33.951  15.482   4.584
15795W        W84200   3.425  27.511   0.770
15796W        W84201  24.195  23.268  10.743
15797W        W84202  42.473  21.540   3.651
15798W        W84203  18.848  23.106  11.307
15799W        W84204  33.866   2.385  11.537
15800W        W84205   4.506  18.430   4.091
15801W        W84206  32.378  18.852   3.296
15802W        W84207  31.444   2.655   2.234
15803W        W84208  11.361  16.829   3.132
15804W        W84209  33.637  25.662  14.928
15805W        W84210  18.991   6.654   5.163
15806W        W84211   2.463   6.947  14.017
15807W        W84212   4.426  12.699  12.366
15808W        W84213   0.719  36.865  12.782
15809W        W84214  21.869  40.491   2.417
15810W        W84215   2.943   9.309   1.954
15811W        W84216  40.005  38.439   3.572
15812W        W84217  17.344  13.127   1.799
15813W        W84218  13.159  39.010   4.738
15814W        W84219  33.310   2.271  12.565
15815W        W84220   8.735  31.544  13.973
15816W        W84221  15.552  26.044   1.498
15817W        W84222  44.728   2.717  12.020
15818W        W84223  20.291  14.835  13.279
15819W        W84224  33.381  17.558  12.570
15820W        W84225  38.490  29.087   3.557
15821W        W84226  32.541  32.007  11.699
15822W        W84227  38.120  25.271   2.328
15823W        W84228  39.084  20.713  12.069
15824W        W84229  39.867   3.714   2.783
15825W        W84230  34.598  27.997  13.190
15826W        W84231   6.220  33.882  11.934
15827W        W84232   9.912  14.115   0.397
15828W        W84233  39.484  10.869  11.599
15829W        W84234  24.928  26.199  13.204
15830W        W84235  18.693  40.158  13.990
15831W        W84236   3.430  21.334   5.027
15832W        W84237  23.463  25.864  12.795
15833W        W84238  27.943  41.922   5.036
15834W        W84239  28.608   2.188   3.128
15835W        W84240   7.164   3.063  12.354
15836W        W84241  43.320  29.109  12.457
15837W        W84242  14.266   8.715  10.239
15838W        W84243  40.989  29.460   2.029
15839W        W84244  24.325   9.099   1.450
15840W        W84245   0.696  31.945   0.394
15841W        W84246  23.642  30.984  14.458
15842W        W84247  40.513  21.031  12.661
15843W        W84248  40.473  39.984   2.824
15844W        W84249  24.358  11.590  11.110
15845W        W84250  41.304  36.109   0.205
15846W        W84251  23.642  41.456   0.817
15847W        W84252  17.296  43.572  14.754
15848W        W84253   3.913  24.760   0.701
15849W        W84254  22.928  36.459  13.510
15850W        W84255  20.908   6.549  13.753
15851W        W84256  26.417  20.249  13.021
15852W        W84257  12.707  35.235  11.563
15853W        W84258  39.951  13.836  10.958
15854W        W84259  10.844   3.731  10.796
15855W        W84260  16.285  13.122  13.096
15856W        W84261   5.446   8.651  14.964
15857W        W84262  44.028  14.703   0.791
15858W        W84263  17.769  26.206   0.350
15859W        W84264  16.552  32.539  13.519
15860W        W84265  18.241  36.456   4.736
15861W        W84266  41.029  26.812  11.220
15862W        W84267  12.345   9.326  13.777
15863W        W84268  17.381  34.197  10.799
15864W        W84269   0.258   4.754  13.935
15865W        W84270  20.449  12.460   3.630
15866W        W84271  42.418  24.759  12.566
15867W        W84272  13.448  30.100   1.838
15868W        W84273  39.039  36.354   3.164
15869W        W84274  38.440  31.594  13.861
15870W        W84275  40.581  31.616  12.758
15871W        W84276   8.198   2.768   1.941
15872W        W84277  24.753  14.624  12.016
15873W        W84278  26.576  43.314  13.876
15874W        W84279   1.492   7.799  13.044
15875W        W84280  29.861   7.285  14.983
15876W        W84281  42.075  27.871  11.108
15877W        W84282  25.578  24.596  13.574
15878W        W84283  19.137  24.472   1.471
15879W        W84284  10.355   6.710   0.262
15880W        W84285  13.345  24.293  10.880
15881W        W84286  43.812  35.155   3.257
15882W        W84287  16.055  25.674  14.794
15883W        W84288   5.859   8.242   0.637
15884W        W84289  22.825  43.834   0.266
15885W        W84290   8.759  11.951   2.439
15886W        W84291  27.652  22.798  14.525
15887W        W84292   9.101  34.163   3.758
15888W        W84293   3.313  35.180   1.354
15889W        W84294  34.424  37.355  12.198
15890W        W84295   1.686  14.612   2.796
15891W        W84296  23.568   9.191   0.778
15892W        W84297  16.085  26.495  12.806
15893W        W84298  42.058  15.860  12.970
15894W        W84299  37.919  34.286   0.532
15895W        W84300   3.852  39.788  13.109
15896W        W84301  41.009  16.988   4.319
15897W        W84302  33.537  28.085   0.680
15898W        W84303   1.988   8.518  12.140
15899W        W84304  26.946   8.782   3.156
15900W        W84305   6.104  13.812   2.812
15901W        W84306  37.530   0.122  13.790
15902W        W84307  22.091  22.414  11.874
15903W        W84308  40.692   2.815   4.955
15904W        W84309   6.887  32.079  11.685
15905W        W84310  10.461  40.558   4.422
15906W        W84311  17.249   4.041  11.513
15907W        W84312  26.283  30.957   2.740
15908W        W84313  30.564   8.067   4.623
15909W        W84314   3.475  44.328   4.492
15910W        W84315  38.559  24.577   3.078
15911W        W84316   4.530  32.520   3.102
15912W        W84317  33.932  32.846   2.817
15913W        W84318  33.626  39.339   3.049
15914W        W84319  23.911   7.650   2.375
15915W        W84320  23.268  18.252   2.640
15916W        W84321  25.150  10.721  12.922
15917W        W84322  27.293  22.067  12.872
15918W        W84323  18.480   7.914   3.289
15919W        W84324  17.656  12.916   3.261
15920W        W84325  14.238  35.815  14.339
15921W        W84326   7.928  32.079  13.260
15922W        W84327  28.222  27.426  13.561
15923W        W84328  38.439  38.425   0.329
15924W        W84329   0.325   6.384  13.073
15925W        W84330  16.263  18.090   3.262
15926W        W84331  21.641  22.329   3.680
15927W        W84332  29.217  28.056  11.893
15928W        W84333  14.197  36.158  12.488
15929W        W84334   6.834  21.145  11.656
15930W        W84335  20.283  28.224   3.152
15931W        W84336  28.513  33.603  14.931
15932W        W84337   8.143  44.091  11.698
15933W        W84338  16.098  41.931  12.070
15934W        W84339  33.989  29.152   1.895
15935W        W84340  31.998  40.083  12.482
15936W        W84341  42.514  16.873   1.783
15937W        W84342  14.269  28.927   4.752
15938W        W84343   9.697  21.997   3.708
15939W        W84344   7.929  40.456   4.488
15940W        W84345  30.135  29.323   3.268
15941W        W84346  10.377   2.274  12.905
15942W        W84347  44.292   6.703  11.831
15943W        W84348  44.232  37.232   4.313
15944W        W84349  19.752  29.661  13.723
15945W        W84350  33.927   4.804   3.318
15946W        W84351  41.060  21.658  13.963
15947W        W84352   3.789  10.368   0.362
15948W        W84353  29.197   4.898   2.407
15949W        W84354  27.766   5.882   0.547
15950W        W84355  20.983  35.936  12.528
15951W        W84356  32.345  19.487   2.791
15952W        W84357  30.673  29.359  14.631
15953W        W84358  16.280  20.704  13.846
15954W        W84359  23.034  33.774  10.691
15955W        W84360   1.814  27.080  12.488
15956W        W84361  30.092  16.870   0.830
15957W        W84362  21.636  33.975   1.749
15958W        W84363  21.702   4.967   0.381
15959W        W84364   8.974  27.998   9.852
15960W        W84365  11.639  30.560  14.299
15961W        W84366   9.315   1.705  14.835
15962W        W84367   4.528  36.845  13.968
15963W        W84368  16.790  24.898   0.864
15964W        W84369  23.614  36.427  14.842
15965W        W84370  35.100  14.384   4.331
15966W        W84371  10.706  12.485  13.366
15967W        W84372  34.081  37.524  12.596
15968W        W84373  40.955  32.186   0.753
15969W        W84374   6.795  29.450   3.104
15970W        W84375  11.009   1.820  11.630
15971W        W84376  31.518   3.208  12.987
15972W        W84377  29.458  15.307   2.469
15973W        W84378  18.993  20.569  14.022
15974W        W84379  13.847  27.529   0.703
15975W        W84380   4.782  33.924   3.331
15976W        W84381  26.625  19.894   3.305
15977W        W84382  16.019   4.985  13.882
15978W        W84383   2.310   4.311  13.980
15979W        W84384   4.832  36.430  14.400
15980W        W84385   5.180  13.623   1.871
15981W        W84386  36.572   5.379   3.607
15982W        W84387  18.559  37.911  14.333
15983W        W84388  20.110  28.284   4.086
15984W        W84389  32.392   5.892   3.772
15985W        W84390  13.004   7.510   0.746
15986W        W84391  39.412  31.122  14.463
15987W        W84392  22.105  20.732  12.768
15988W        W84393  33.282  34.440  14.869
15989W        W84394   8.123  30.951  11.230
15990W        W84395   2.962  27.055   9.886
15991W        W84396  16.716  30.082   2.082
15992W        W84397  41.604  13.539   4.528
15993W        W84398  15.523  13.733  11.593
15994W        W84399  13.665  42.039  14.036
15995W        W84400  25.451   8.366   2.647
15996W        W84401  36.608  41.062   4.166
15997W        W84402   1.201  22.285  14.899
15998W        W84403   6.714  29.154   2.090
15999W        W84404  24.254   2.801  13.801
16000W        W84405  40.975  11.339   4.562
16001W        W84406  18.208  34.153  10.254
16002W        W84407  27.468  11.085   2.424
16003W        W84408  11.117  23.206   4.098
16004W        W84409  43.381  29.609   1.858
16005W        W84410  19.345  40.125   2.349
16006W        W84411  35.820   5.659  11.170
16007W        W84412  31.696  28.153   0.064
16008W        W84413   8.667  22.951  12.450
16009W        W84414  17.668  19.267   3.235
16010W        W84415   7.897   9.350   3.824
16011W        W84416   2.326  35.572   4.506
16012W        W84417   5.266  13.103  13.552
16013W        W84418  40.327   2.818   3.660
16014W        W84419  14.271  18.589   3.778
16015W        W84420  25.110   3.612  13.036
16016W        W84421  15.144  14.774   3.253
16017W        W84422  25.701  37.477  10.290
16018W        W84423   8.740   7.196   2.926
16019W        W84424  29.086  42.452  14.367
16020W        W84425  15.380   0.718  11.590
16021W        W84426   8.433  13.060  13.959
16022W        W84427  17.712  37.152   2.841
16023W        W84428   7.392  21.737  14.972
16024W        W84429   8.676  32.841  10.958
16025W        W84430  25.016  14.672  12.895
16026W        W84431  28.622  13.226  11.635
16027W        W84432  40.995   3.937  11.091
16028W        W84433  11.145  19.893   3.679
16029W        W84434  33.660   3.806  13.735
16030W        W84435  34.362  36.192  13.090
16031W        W84436   4.814  44.004   0.850
16032W        W84437  25.943  39.728   1.738
16033W        W84438   1.618  32.145   4.137
16034W        W84439  30.125   2.760  11.387
16035W        W84440  40.589  24.855  11.476
16036W        W84441  36.617  35.345  11.222
16037W        W84442   8.670  25.940  11.526
16038W        W84443  31.475  26.261  12.767
16039W        W84444  11.419  15.545  12.441
16040W        W84445  14.772  19.043   4.050
16041W        W84446   1.277  31.143  14.315
16042W        W84447  15.602  36.635   4.518
16043W        W84448  18.849  15.485   0.615
16044W        W84449  18.337  44.972  12.334
16045W        W84450  35.630  33.572   4.729
16046W        W84451  25.427  30.857   3.826
16047W        W84452  37.097  10.709   3.616
16048W        W84453  32.482   7.539   2.498
16049W        W84454   4.658  31.010   1.797
16050W        W84455  19.709  25.458  14.028
16051W        W84456  26.947  11.102  12.967
16052W        W84457  31.474   6.685  12.636
16053W        W84458  38.920   9.154   3.103
16054W        W84459  10.877  21.960  11.174
16055W        W84460  32.517  14.764  14.926
16056W        W84461   4.770  40.543  13.338
16057W        W84462   7.985  30.695  10.135
16058W        W84463  15.905   0.435  11.438
16059W        W84464  16.858   6.692  11.771
16060W        W84465   3.866  27.466   2.414
16061W        W84466  27.478  16.226   4.122
16062W        W84467   5.343  13.663   3.352
16063W        W84468   0.515  36.654  14.722
16064W        W84469  15.151  31.897   1.488
16065W        W84470  19.176  27.875  11.918
16066W        W84471  44.500  26.190  11.594
16067W        W84472  27.620  16.758  11.659
16068W        W84473  27.973  10.694  12.676
16069W        W84474   5.954  43.977   2.758
16070W        W84475   8.728  36.592  11.598
16071W        W84476  30.226  23.024   2.872
16072W        W84477  31.534  23.058  12.542
16073W        W84478  21.673   9.876  14.287
16074W        W84479  16.777  25.978  11.852
16075W        W84480  20.776  24.296  14.301
16076W        W84481  38.616  42.396  12.376
16077W        W84482  24.366  29.634   1.343
16078W        W84483  32.662  42.093  10.762
16079W        W84484  26.916  14.740  10.613
16080W        W84485  27.975  39.851  11.492
16081W        W84486  23.267  38.074   1.839
16082W        W84487  29.863  40.235  14.725
16083W        W84488  29.710  31.072   3.666
16084W        W84489  13.317  27.094   2.815
16085W        W84490   8.153  31.531  14.895
16086W        W84491   2.626   0.124   1.891
16087W        W84492  29.516   9.716   3.683
16088W        W84493  26.806  41.367  13.231
16089W        W84494   3.989  27.364  14.552
16090W        W84495  34.810  42.607  11.928
16091W        W84496   3.786  11.859   2.879
16092W        W84497  17.790  24.158   4.514
16093W        W84498  18.467  32.458  11.140
16094W        W84499  34.412   8.498   1.249
16095W        W84500  16.245   2.352   3.056
16096W        W84501  29.681  24.202  11.923
16097W        W84502  19.792  17.239   0.615
16098W        W84503  16.275   2.235  12.551
16099W        W84504   7.885  42.021   1.944
16100W        W84505  40.773  30.252  14.539
16101W        W84506  23.907  40.515  11.888
16102W        W84507  43.490  38.332  12.114
16103W        W84508  40.600   7.310  14.512
16104W        W84509  16.345  35.070  13.555
16105W        W84510  16.110  38.301   0.740
16106W        W84511  15.801   1.987  12.393
16107W        W84512  30.063  28.762  14.431
16108W        W84513  40.730   7.695  11.007
16109W        W84514  29.734  29.385  11.160
16110W        W84515  37.586  12.543  13.844
16111W        W84516  40.375  19.253   2.829
16112W        W84517  24.903  20.007  11.152
16113W        W84518  31.675  28.130   0.865
16114W        W84519   8.230  27.504  10.983
16115W        W84520  42.259   6.181   0.740
16116W        W84521   5.900  42.928   2.518
16117W        W84522  29.364  15.826   2.508
16118W        W84523  15.669   2.442   3.864
16119W        W84524   0.542  30.133  14.056
16120W        W84525  12.321  35.890  11.181
16121W        W84526  28.904  12.812  12.768
16122W        W84527  10.026   1.016   2.780
16123W        W84528   4.392  12.116   4.507
16124W        W84529  42.255  32.292  13.847
16125W        W84530  12.769  30.560  12.469
16126W        W84531  38.311  37.859  13.424
16127W        W84532   9.838  13.060   2.583
16128W        W84533  34.939  13.475   4.591
16129W        W84534   7.358  23.515  13.228
16130W        W84535  30.090  27.107  14.973
16131W        W84536  32.440  41.020   2.771
16132W        W84537  34.558  18.700   2.283
16133W        W84538  16.410  31.901  14.023
16134W        W84539   9.858  31.082  11.493
16135W        W84540  21.605  13.071   4.997
16136W        W84541  23.624  36.007  11.702
16137W        W84542  31.266   4.926  11.477
16138W        W84543  43.875  12.715  14.973
16139W        W84544  39.978  25.121   2.175
16140W        W84545  35.505  26.191  12.082
16141W        W84546  29.386  42.013  12.723
16142W        W84547  35.195  29.121  11.644
16143W        W84548  26.277  15.256  12.792
16144W        W84549  13.560  20.590  11.529
16145W        W84550  38.324   6.696  13.039
16146W        W84551   1.155  18.169  11.164
16147W        W84552  32.606  36.273  12.534
16148W        W84553  40.075  20.151  14.450
16149W        W84554   5.435  25.026   0.779
16150W        W84555  29.477   9.726  11.585
16151W        W84556  20.128   1.525   2.305
16152W        W84557  27.763   1.424  14.531
16153W        W84558  36.065  42.551  14.611
16154W        W84559  41.548   5.398   1.798
16155W        W84560  16.086  31.615   0.505
16156W        W84561  26.221  43.956  11.560
16157W        W84562  13.034  32.027  10.660
16158W        W84563  32.561   5.877   4.831
16159W        W84564  27.353   6.986   3.785
16160W        W84565   3.348   8.951   3.729
16161W        W84566  20.390  23.219   3.078
16162W        W84567  20.767   6.769   2.759
16163W        W84568  24.188  43.784   4.122
16164W        W84569  26.930  15.257   4.356
16165W        W84570  43.734   1.232  11.183
16166W        W84571  33.791   0.698  11.132
16167W        W84572  30.865  35.993  14.934
16168W        W84573  20.330  34.490   4.589
16169W        W84574  22.734  39.633  13.375
16170W        W84575  36.868  22.682   0.720
16171W        W84576   3.485  19.436  10.958
16172W        W84577  17.724   4.215  11.559
16173W        W84578   5.378  40.969  13.590
16174W        W84579   9.359  17.360   1.269
16175W        W84580  20.719  18.240   0.382
16176W        W84581  33.433  32.465  13.014
16177W        W84582  34.793  28.198  11.587
16178W        W84583   1.247  35.032   3.072
16179W        W84584  27.464  40.800  14.262
16180W        W84585  17.567  26.433   2.177
16181W        W84586  15.178  20.971   1.709
16182W        W84587  21.460  12.284   3.777
16183W        W84588   1.361  31.510  12.299
16184W        W84589  38.988  34.123  14.933
16185W        W84590  21.627  34.437   0.500
16186W        W84591  20.041  44.338   0.796
16187W        W84592  31.450   9.399  11.514
16188W        W84593  22.264  39.427  11.967
16189W        W84594  40.018  11.397   1.215
16190W        W84595  14.752  27.667   4.012
16191W        W84596  36.358  43.813  11.541
16192W        W84597  15.635  28.111  13.419
16193W        W84598   1.752   8.227  12.918
16194W        W84599  38.357  36.325   2.806
16195W        W84600  26.130   2.806  13.404
16196W        W84601  14.837  13.323  14.400
16197W        W84602  31.881   2.998   0.892
16198W        W84603  12.780  33.372   0.862
16199W        W84604  30.768  24.768   0.441
16200W        W84605  20.506   8.061   3.361
16201W        W84606   1.347  32.781   2.229
16202W        W84607  15.465  24.889  12.024
16203W        W84608  10.153   0.029  10.392
16204W        W84609  42.903  21.012   4.577
16205W        W84610  14.852  17.211  10.834
16206W        W84611  18.542   8.876  13.105
16207W        W84612  18.139  40.843  13.413
16208W        W84613   2.734   4.247   0.927
16209W        W84614  31.894  17.523  13.402
16210W        W84615  33.976  44.601   2.817
16211W        W84616  36.864  40.999   4.719
16212W        W84617  44.954   0.203  12.830
16213W        W84618   7.775  13.765   0.829
16214W        W84619  27.570  33.016  10.471
16215W        W84620  23.558   0.555   3.691
16216W        W84621   0.983  12.848  13.097
16217W        W84622  27.189  14.334  12.435
16218W        W84623  32.595   5.886  11.474
16219W        W84624  10.581  32.379  11.804
16220W        W84625  41.331   3.807   0.725
16221W        W84626   2.352   2.246   0.357
16222W        W84627  18.638  10.647  11.049
16223W        W84628   1.030  15.726  14.147
16224W        W84629  28.652  38.549  13.562
16225W        W84630   9.381   2.179   0.712
16226W        W84631  28.686  20.699  12.578
16227W        W84632   7.194  24.023   1.482
16228W        W84633  42.082  29.064  14.283
16229W        W84634  39.150   1.309  10.583
16230W        W84635  38.771  43.004   2.243
16231W        W84636  14.792  22.279  11.980
16232W        W84637  10.097  19.049   4.124
16233W        W84638   5.312  34.074   2.632
16234W        W84639  22.136  34.434   2.650
16235W        W84640  11.823  12.224   2.789
16236W        W84641  11.150  44.207  14.948
16237W        W84642  16.013  28.974   2.892
16238W        W84643  44.360  35.447  12.815
16239W        W84644  42.444  17.636  12.881
16240W        W84645   1.259  27.747  11.164
16241W        W84646   0.248   0.002   3.180
16242W        W84647  25.749  18.569  13.912
16243W        W84648  23.882  34.053   3.837
16244W        W84649  11.712  13.324   1.078
16245W        W84650  32.697  16.260  12.858
16246W        W84651   5.414  10.390   2.649
16247W        W84652  22.576  32.453  11.017
16248W        W84653  23.194   8.637   2.912
16249W        W84654  28.388   2.319  14.931
16250W        W84655   7.068  36.918  11.981
16251W        W84656  14.246  24.017  12.995
16252W        W84657  10.280   5.743  12.517
16253W        W84658  37.514  12.208  11.949
16254W        W84659   7.449  26.438   4.611
16255W        W84660  16.363  13.690  13.993
16256W        W84661  27.535  16.352  12.619
16257W        W84662  39.863  40.877   4.587
16258W        W84663  42.107  30.225   4.972
16259W        W84664  20.308  15.097  14.916
16260W        W84665  27.086  37.013  14.219
16261W        W84666  14.351  26.679   1.762
16262W        W84667  42.421  40.529  13.897
16263W        W84668  34.509  30.459   2.770
16264W        W84669  16.793  20.592   1.553
16265W        W84670   4.155   2.917   2.815
16266W        W84671  14.190  43.110   0.779
16267W        W84672  21.593  22.799   0.778
16268W        W84673  22.985  16.627  10.703
16269W        W84674   7.130  34.283   2.728
16270W        W84675  19.004  41.281   0.317
16271W        W84676  39.760  43.446  12.960
16272W        W84677  26.512  33.534   3.578
16273W        W84678  20.006  39.942   0.762
16274W        W84679   5.847  11.087   3.595
16275W        W84680  34.917  30.377  10.714
16276W        W84681  32.342  26.106  10.974
16277W        W84682  44.235  36.347   4.042
16278W        W84683  41.034   2.197  11.876
16279W        W84684  24.649  44.974  13.023
16280W        W84685  43.377  12.733   1.933
16281W        W84686  44.823  42.569  14.242
16282W        W84687  13.177   1.456   0.671
16283W        W84688  37.957   8.280   2.645
16284W        W84689  25.535  31.074   0.663
16285W        W84690  11.272  20.195  14.941
16286W        W84691   0.694  39.131   3.860
16287W        W84692   7.003   2.248   0.916
16288W        W84693  12.817  44.281  12.053
16289W        W84694  31.404   6.918  13.537
16290W        W84695  35.389  17.154  10.939
16291W        W84696   8.436  35.890  13.055
16292W        W84697   0.779  13.750   4.524
16293W        W84698  18.261  18.806  12.961
16294W        W84699  34.065  38.602   3.140
16295W        W84700  25.155  13.533   4.316
16296W        W84701   0.259   1.000  14.545
16297W        W84702  15.337  29.363  11.482
16298W        W84703   4.951   9.766   1.233
16299W        W84704  22.873  21.101   1.789
16300W        W84705  35.432  28.968  14.029
16301W        W84706  40.060   9.286  14.291
16302W        W84707  30.654  42.277  10.673
16303W        W84708  22.113   7.822   4.726
16304W        W84709  37.829  13.002   0.175
16305W        W84710   9.887   8.179   2.205
16306W        W84711  11.987  42.487   4.425
16307W        W84712  20.379  34.914   2.148
16308W        W84713  24.070  21.558   4.350
16309W        W84714  16.471  19.770   3.690
16310W        W84715  10.133  33.480   1.624
16311W        W84716  25.043  42.826  14.814
16312W        W84717   6.663  19.326   1.778
16313W        W84718   6.176   6.183   0.431
16314W        W84719  11.622  23.546  12.195
16315W        W84720  13.167  37.986   4.833
16316W        W84721  43.795  18.836   1.816
16317W        W84722  43.130   5.704   0.395
16318W        W84723   9.911  35.232  12.823
16319W        W84724  13.333  30.602   4.298
16320W        W84725  43.001  16.237   3.648
16321W        W84726  44.835  10.714  11.512
16322W        W84727   6.522   4.674   3.026
16323W        W84728  24.076  37.836  13.503
16324W        W84729  33.826  15.233   2.742
16325W        W84730  43.447  18.539  13.015
16326W        W84731   7.390  11.731   2.781
16327W        W84732  43.423  16.774  12.389
16328W        W84733  14.100  30.977   4.086
16329W        W84734  14.266  16.003  11.597
16330W        W84735   7.302   9.278   0.349
16331W        W84736  17.543  22.458  14.332
16332W        W84737  41.763  15.426  13.341
16333W        W84738   3.487  43.555  14.416
16334W        W84739  32.118  19.732  11.540
16335W        W84740   3.040  30.887  14.754
16336W        W84741  16.273   4.812  10.237
16337W        W84742   9.887  10.091  11.952
16338W        W84743  44.013  37.699   5.015
16339W        W84744  15.655  43.163   4.564
16340W        W84745   4.453   1.800   4.119
16341W        W84746  39.254   8.762   0.294
16342W        W84747  36.002  20.207  13.863
16343W        W84748   1.140   3.470  12.616
16344W        W84749  42.707  42.697  11.184
16345W        W84750  41.063  30.597  12.196
16346W        W84751  43.926   8.644  11.618
16347W        W84752  44.362  10.210   1.419
16348W        W84753  40.054  43.500  12.532
16349W        W84754   0.654  31.411   0.339
16350W        W84755  12.153  33.540   1.947
16351W        W84756  30.928  34.884  12.550
16352W        W84757  14.648  33.058  14.798
16353W        W84758  22.279   8.311   2.080
16354W        W84759  12.765  23.293   3.278
16355W        W84760  13.080  15.270   2.796
16356W        W84761  33.983  34.223   0.411
16357W        W84762  26.622  19.585   2.830
16358W        W84763  24.226  33.487   1.301
16359W        W84764  37.225  16.687   1.766
16360W        W84765  16.682  26.191   0.333
16361W        W84766  34.270   9.100  13.857
16362W        W84767  32.356  22.915  11.028
16363W        W84768  17.486  36.650  11.223
16364W        W84769  13.787  36.526  13.459
16365W        W84770   2.005   4.708  12.477
16366W        W84771  32.548  20.344   0.314
16367W        W84772  35.302  13.613  11.673
16368W        W84773  31.090  24.479   1.906
16369W        W84774  20.748  32.754   1.406
16370W        W84775  24.130  26.919   4.984
16371W        W84776  11.225  43.997  11.505
16372W        W84777  37.382  17.654  11.672
16373W        W84778   1.195  28.154  11.832
16374W        W84779  27.447  27.898   2.707
16375W        W84780  42.436  17.298  14.821
16376W        W84781  10.577  38.427   2.200
16377W        W84782  36.262  40.799   1.963
16378W        W84783   7.902  34.829   1.412
16379W        W84784  36.374  39.839   4.801
16380W        W84785   4.317   5.388   0.879
16381W        W84786  10.141  18.811   3.644
16382W        W84787  15.719  15.454  13.514
16383W        W84788  19.083   7.139   0.172
16384W        W84789   2.337  24.203   2.272
16385W        W84790  34.414  29.588  11.534
16386W        W84791  18.505   9.269  13.969
16387W        W84792   2.902  39.029   1.924
16388W        W84793  34.367  34.930  13.475
16389W        W84794  26.140   1.506  13.837
16390W        W84795  42.509  36.629  14.480
16391W        W84796  43.550   7.801  11.211
16392W        W84797   0.528  14.861  12.991
16393W        W84798  43.573  27.988   3.272
16394W        W84799  36.569  41.358  13.273
16395W        W84800   3.818   5.395  12.574
16396W        W84801   4.599  10.391   2.323
16397W        W84802   1.647  13.174   1.925
16398W        W84803  15.627  42.019   0.205
16399W        W84804  22.891   1.878  13.955
16400W        W84805  21.053  33.912  13.509
16401W        W84806  12.905  33.149   1.746
16402W        W84807   0.477   0.794   2.031
16403W        W84808  10.085  15.697  14.701
16404W        W84809   5.916   4.344   2.258
16405W        W84810   0.729  20.742   0.813
16406W        W84811  29.925  32.946   4.519
16407W        W84812  19.233  44.421   3.805
16408W        W84813   3.786  28.109   0.842
16409W        W84814  37.446   1.074   1.547
16410W        W84815  30.112  43.872  12.904
16411W        W84816   7.360   6.612  11.568
16412W        W84817   6.564  34.790   5.003
16413W        W84818  39.628  37.812  12.057
16414W        W84819   2.659  43.936  14.530
16415W        W84820   8.125  32.970   1.297
16416W        W84821   8.713  12.647  12.904
16417W        W84822  39.083  38.852  12.946
16418W        W84823  10.981  11.030   2.628
16419W        W84824   7.255  17.766   2.096
16420W        W84825  12.716  17.054   0.660
16421W        W84826  32.083  36.183   1.189
16422W        W84827   7.441  18.100  10.222
16423W        W84828  16.611   8.157  13.364
16424W        W84829   9.250  17.815   0.325
16425W        W84830  17.519  22.094  10.312
16426W        W84831  26.427  42.624   9.660
16427W        W84832  26.831  22.066  13.722
16428W        W84833  26.609  13.146   1.478
16429W        W84834  38.161  30.675   0.856
16430W        W84835  20.587  38.981  14.295
16431W        W84836  10.657   8.193  11.530
16432W        W84837  16.438  39.751  13.017
16433W        W84838  20.067   0.696   0.521
16434W        W84839  25.505  12.824  10.449
16435W        W84840  33.418   7.159  14.265
16436W        W84841  43.785  14.797   0.342
16437W        W84842  41.582  12.540   2.667
16438W        W84843  25.566  17.160   1.683
16439W        W84844  28.262  18.260  12.561
16440W        W84845  13.140  36.775  12.063
16441W        W84846  24.564  39.732   4.894
16442W        W84847  32.664   8.884  11.970
16443W        W84848  41.325   5.385   4.232
16444W        W84849  11.287  36.458  11.434
16445W        W84850  32.869  17.610   4.834
16446W        W84851  14.416   1.814  11.456
16447W        W84852  22.569  41.987  12.442
16448W        W84853  27.059  42.421   2.086
16449W        W84854  19.504  28.422  13.563
16450W        W84855  32.904   5.701   4.498
16451W        W84856  38.474   8.119  13.062
16452W        W84857  38.849  27.986  11.446
16453W        W84858  43.230  23.063   3.694
16454W        W84859  14.393  21.138   2.388
16455W        W84860  34.943  19.290  13.083
16456W        W84861   0.172  40.998   3.433
16457W        W84862  39.982   6.647  12.909
16458W        W84863  21.960  14.688   4.120
16459W        W84864  30.087  27.674  11.444
16460W        W84865  44.049  26.912  13.704
16461W        W84866  30.804  22.589   4.145
16462W        W84867  13.094   1.327  14.380
16463W        W84868   7.974  28.496   1.278
16464W        W84869  28.624  18.544   1.788
16465W        W84870   8.987  27.478  10.269
16466W        W84871  14.743  39.467   1.837
16467W        W84872  27.955  11.103   3.158
16468W        W84873   4.754  32.559   0.401
16469W        W84874  29.624  42.353   3.725
16470W        W84875  34.428  25.171  13.002
16471W        W84876   5.965  10.265   1.800
16472W        W84877  15.584  27.205  11.943
16473W        W84878  17.404  37.660  10.465
16474W        W84879  23.558  42.687   4.145
16475W        W84880  43.391   7.684   1.291
16476W        W84881  27.493  30.631   0.798
16477W        W84882  16.179  31.861   2.390
16478W        W84883  11.189  16.332   3.137
16479W        W84884  38.778  28.422  11.090
16480W        W84885  25.537  24.128   1.899
16481W        W84886   9.794  26.293   2.131
16482W        W84887  28.357  30.140   2.689
16483W        W84888  14.060  37.923  13.933
16484W        W84889  29.916  41.475   0.340
16485W        W84890  38.809  18.749  14.382
16486W        W84891  29.363  21.792  13.425
16487W        W84892  12.219   7.765   1.397
16488W        W84893  38.746   6.685   2.326
16489W        W84894  12.282  17.736   3.869
16490W        W84895  10.258  18.487   1.683
16491W        W84896  32.666  33.901  12.603
16492W        W84897  36.470  35.143  11.666
16493W        W84898  32.095  24.903  13.642
16494W        W84899  35.129  11.673   4.173
16495W        W84900  29.232   5.769   2.568
16496W        W84901  20.699  28.148   2.770
16497W        W84902  13.175  44.552  11.737
16498W        W84903  25.821  16.608   0.858
16499W        W84904  34.320  26.255  12.441
16500W        W84905  23.080  27.395   3.903
16501W        W84906   9.655   5.853  14.846
16502W        W84907   1.076  14.780  14.379
16503W        W84908  28.751  16.551  11.244
16504W        W84909   1.744   1.218  10.977
16505W        W84910   9.937  35.800  14.881
16506W        W84911  30.059  13.605   3.033
16507W        W84912  10.908  31.385   2.838
16508W        W84913   9.281  37.901   4.687
16509W        W84914   3.470  42.485  12.730
16510W        W84915  36.279  33.422   2.664
16511W        W84916   5.608   8.426   3.417
16512W        W84917  38.298  12.658  10.526
16513W        W84918  27.172  41.932  13.319
16514W        W84919  40.191  21.526  12.973
16515W        W84920  24.567  35.281   1.838
16516W        W84921  24.019  34.081   2.896
16517W        W84922  19.803   5.408   0.947
16518W        W84923   9.428  20.279  11.989
16519W        W84924  33.973  20.012  13.998
16520W        W84925   4.901  39.272  12.990
16521W        W84926  21.596   9.389  11.950
16522W        W84927  24.018  40.811   2.040
16523W        W84928   7.215   5.888   1.803
16524W        W84929  32.179   1.846   1.338
16525W        W84930  23.020   1.255  12.552
16526W        W84931  18.830  38.460  12.510
16527W        W84932   1.148   0.043  13.622
16528W        W84933  34.597  28.515   1.441
16529W        W84934  15.177   8.981  10.183
16530W        W84935  32.860  30.144   0.050
16531W        W84936   3.363  26.237   4.690
16532W        W84937  16.083  18.482  11.532
16533W        W84938  31.868   5.462  11.133
16534W        W84939  26.938  40.186   1.663
16535W        W84940  24.677   8.304  10.418
16536W        W84941   4.862  32.148  12.503
16537W        W84942   4.288  41.417  13.345
16538W        W84943  33.084  23.135  11.598
16539W        W84944  11.673  26.465   2.098
16540W        W84945  17.990  28.122   0.264
16541W        W84946  27.920  13.750  10.750
16542W        W84947  41.990  14.744  10.695
16543W        W84948  41.943  13.092   4.522
16544W        W84949  20.121  23.262   2.216
16545W        W84950  41.878  17.066   1.439
16546W        W84951  14.795  44.527   3.744
16547W        W84952  34.606  34.370   2.128
16548W        W84953  28.163  34.496   1.835
16549W        W84954  42.032  10.702   2.356
16550W        W84955  29.529  21.234   9.837
16551W        W84956  28.944  17.663  13.329
16552W        W84957  10.627  21.770   4.189
16553W        W84958   2.654  23.091   1.467
16554W        W84959  22.705  19.018  13.387
16555W        W84960  22.162   8.902  13.347
16556W        W84961  41.754  22.963   1.220
16557W        W84962  44.868  27.908   3.344
16558W        W84963  40.626  14.397  13.085
16559W        W84964  27.940  30.654  10.834
16560W        W84965  25.604  41.103  11.335
16561W        W84966  16.475   0.559  11.495
16562W        W84967  28.992   5.368   2.898
16563W        W84968  16.600  34.041   3.608
16564W        W84969  16.376   2.414  10.159
16565W        W84970   6.787  33.155   0.732
16566W        W84971  28.992  30.370   2.229
16567W        W84972  16.359  29.242  12.393
16568W        W84973  31.890  31.321   0.877
16569W        W84974  24.991  38.369  13.833
16570W        W84975  14.310  33.490   4.234
16571W        W84976  10.386  24.625   2.949
16572W        W84977  22.348  35.621   3.169
16573W        W84978  18.100  40.545  11.499
16574W        W84979  33.078  30.931   2.860
16575W        W84980  40.881  17.180  11.037
16576W        W84981  42.504  42.971  10.130
16577W        W84982   6.100  35.446   2.155
16578W        W84983  20.225  30.125   1.881
16579W        W84984   1.443  22.567   3.807
16580W        W84985  37.419   5.373   0.417
16581W        W84986  14.385  37.626   2.589
16582W        W84987  29.898  14.905   4.969
16583W        W84988  34.786  31.949  13.543
16584W        W84989   2.316  38.325   4.868
16585W        W84990  18.820  15.326  13.956
16586W        W84991  38.112  16.685   3.162
16587W        W84992  22.289  13.763   3.143
16588W        W84993  23.671  26.990  13.474
16589W        W84994  33.525  31.547   4.562
16590W        W84995  12.694  29.341  14.053
16591W        W84996  28.401  42.610   0.364
16592W        W84997   3.202  34.783  11.088
16593W        W84998   7.875  18.095   0.485
16594W        W84999  25.190  33.891  12.529
16595W        W85000  22.997  19.987   3.939
16596W        W85001  27.675  39.760  12.824
16597W        W85002  35.043  38.382  14.099
16598W        W85003  10.992  42.222   3.446
16599W        W85004   3.457  40.767   3.550
16600W        W85005   5.109  13.238   1.256
16601W        W85006  35.669  13.094  12.413
16602W        W85007  31.569  25.240   2.870
16603W        W85008  16.199  16.562   4.077
16604W        W85009  42.078  36.797   3.361
16605W        W85010  20.738  18.120  11.443
16606W        W85011  42.206   2.016   2.849
16607W        W85012  15.683   9.099   1.398
16608W        W85013  42.532   0.769   2.278
16609W        W85014  17.514   1.265  14.379
16610W        W85015  36.060  37.353   5.084
16611W        W85016  23.991  15.662  12.169
16612W        W85017  39.317  26.973  11.692
16613W        W85018   3.418  25.696   2.388
16614W        W85019  26.960  14.409   2.338
16615W        W85020  24.292  24.506   1.754
16616W        W85021   8.415  30.780  10.426
16617W        W85022  21.305  28.881   4.315
16618W        W85023  42.922  12.067   3.093
16619W        W85024  39.513   7.174  13.903
16620W        W85025  26.874   1.294   0.069
16621W        W85026   0.542  10.287  11.908
16622W        W85027  32.966  17.067   4.741
16623W        W85028  39.933  11.074  12.935
16624W        W85029  18.234   4.852   1.172
16625W        W85030  33.256  29.971  13.335
16626W        W85031  18.167   4.130   3.221
16627W        W85032  21.105  34.628  10.255
16628W        W85033  34.004  34.929   0.822
16629W        W85034  32.605  40.858  13.940
16630W        W85035  16.664  37.435   4.115
16631W        W85036  27.152  42.278   2.640
16632W        W85037  18.615  12.399   0.939
16633W        W85038   8.223  44.036  12.838
16634W        W85039   2.018  19.234  11.107
16635W        W85040  14.729   2.642   4.914
16636W        W85041  25.179  29.695  14.735
16637W        W85042  39.936  19.123   1.740
16638W        W85043  27.353  35.403  12.739
16639W        W85044  38.402  14.248   4.756
16640W        W85045  10.749  43.040   3.815
16641W        W85046  41.379  38.836   0.566
16642W        W85047   7.660  26.919   1.862
16643W        W85048   0.768  18.566  13.870
16644W        W85049  22.393  11.554   0.331
16645W        W85050  43.537  12.096   0.310
16646W        W85051  39.893  36.268  11.150
16647W        W85052  44.007  19.254  11.995
16648W        W85053  28.899  39.041  14.786
16649W        W85054  36.093  27.493  13.462
16650W        W85055  35.630  33.661  13.974
16651W        W85056   8.586  30.262   2.680
16652W        W85057  20.540  14.655  12.813
16653W        W85058  44.478   2.285   1.332
16654W        W85059  42.870  11.841   5.092
16655W        W85060  32.472  28.721  13.042
16656W        W85061   9.411  27.608   3.106
16657W        W85062   0.850   7.238  12.086
16658W        W85063   1.734   2.893  12.487
16659W        W85064   2.023  39.957  13.366
16660W        W85065  37.365  16.145  13.585
16661W        W85066  41.278   9.156  14.706
16662W        W85067  11.292  28.772   1.279
16663W        W85068  17.234  40.471  13.434
16664W        W85069  41.383  28.177  12.037
16665W        W85070   7.875  34.328  12.459
16666W        W85071  29.394  31.696  14.203
16667W        W85072  15.904  31.960  11.705
16668W        W85073   9.726  16.639   3.885
16669W        W85074  11.957  44.001  11.974
16670W        W85075  39.019  24.022   0.392
16671W        W85076  25.767  10.124  12.552
16672W        W85077   8.003  10.825  10.593
16673W        W85078  29.942   7.724  13.697
16674W        W85079  34.376  38.118   0.904
16675W        W85080  28.554  40.629   3.997
16676W        W85081  24.787  35.673  10.709
16677W        W85082  22.550  26.013  11.063
16678W        W85083  39.135   4.281  13.870
16679W        W85084  17.086  28.016  11.254
16680W        W85085  18.127  31.214  11.240
16681W        W85086  10.173  30.825  14.452
16682W        W85087  32.481  10.706  10.496
16683W        W85088  43.242  30.354   4.181
16684W        W85089  17.748  12.604   4.565
16685W        W85090  31.004   8.820  13.091
16686W        W85091  23.221  36.034  11.364
16687W        W85092  22.196  19.755  13.245
16688W        W85093  10.631  37.508  10.733
16689W        W85094  35.453  22.259   3.807
16690W        W85095  10.263  44.407   4.570
16691W        W85096   2.408  44.865   3.600
16692W        W85097  37.393   3.130   2.299
16693W        W85098  42.466  20.003  11.624
16694W        W85099  13.322  41.528  14.309
16695W        W85100  13.616  12.058  11.813
16696W        W85101   1.287  25.528  14.579
16697W        W85102   4.822  22.562   0.755
16698W        W85103   9.388  26.064  13.481
16699W        W85104  25.722  19.290  11.958
16700W        W85105   6.090  11.047  14.335
16701W        W85106  14.679  21.999  11.556
16702W        W85107  23.055  35.171   3.655
16703W        W85108  15.326   2.704  12.484
16704W        W85109  18.237  33.586   4.650
16705W        W85110  21.081   3.984   2.819
16706W        W85111   9.353  22.538  12.094
16707W        W85112   9.266  20.320  13.857
16708W        W85113  23.900  15.714  13.657
16709W        W85114  33.294  13.225   1.056
16710W        W85115  21.502  23.421  13.369
16711W        W85116   1.657  32.966  11.939
16712W        W85117   1.230  31.988  12.464
16713W        W85118  36.790   3.312  13.867
16714W        W85119   3.242  34.712  14.739
16715W        W85120  33.788  22.003  14.930
16716W        W85121  13.521  35.958   1.658
16717W        W85122  21.840  18.467  13.523
16718W        W85123   9.353   7.200   1.319
16719W        W85124  21.299  25.977   3.309
16720W        W85125   4.840   6.432   0.509
16721W        W85126   9.158  28.541   2.113
16722W        W85127   2.203  21.631   4.666
16723W        W85128   3.130  26.560   9.983
16724W        W85129  26.508  27.738  12.004
16725W        W85130  25.863  35.093   1.992
16726W        W85131  32.598   4.647   3.668
16727W        W85132   2.397  38.437  11.645
16728W        W85133   0.506  34.818  12.457
16729W        W85134  22.031  29.513  11.160
16730W        W85135  33.782  19.817   1.031
16731W        W85136  19.713  35.667  10.697
16732W        W85137   2.769  35.133  14.095
16733W        W85138  28.492   0.674  13.473
16734W        W85139   0.559  19.106  10.446
16735W        W85140  44.056  19.291  13.660
16736W        W85141  14.560  44.240   1.933
16737W        W85142  41.182  36.772   3.236
16738W        W85143  22.010  30.436   3.830
16739W        W85144  39.972  42.438   1.230
16740W        W85145  27.912  26.714  14.441
16741W        W85146  42.125  11.903   1.842
16742W        W85147   5.399  19.442   2.082
16743W        W85148  30.839  33.560  14.074
16744W        W85149  37.917  23.521   4.425
16745W        W85150   1.320  36.326   3.385
16746W        W85151  31.152   6.765   3.885
16747W        W85152   6.657  44.926   4.012
16748W        W85153  43.084  37.015  10.790
16749W        W85154   4.561  18.187   2.262
16750W        W85155  37.598  30.838  10.947
16751W        W85156  31.649   6.629  13.150
16752W        W85157  16.654  44.243   3.696
16753W        W85158  23.239  44.229   3.230
16754W        W85159  28.237  32.926   4.048
16755W        W85160  11.444  36.064  13.527
16756W        W85161  44.943  23.394   3.369
16757W        W85162  42.084  31.690   2.772
16758W        W85163  17.176  10.669   2.210
16759W        W85164  33.293  43.189  12.504
16760W        W85165  10.737  22.984  12.148
16761W        W85166   5.364   0.464   3.146
16762W        W85167  17.200  29.932   1.490
16763W        W85168  44.125  15.834   3.580
16764W        W85169   3.719  31.469  14.528
16765W        W85170  21.643  10.671   4.842
16766W        W85171  21.453   5.367  10.720
16767W        W85172  30.545   9.592  13.102
16768W        W85173  20.691  25.447   1.866
16769W        W85174  32.025   7.663   3.187
16770W        W85175  36.589  18.722  10.263
16771W        W85176   7.025  30.807   1.507
16772W        W85177   3.338   5.728   2.252
16773W        W85178   3.282  43.134  10.622
16774W        W85179  13.190  13.705  11.829
16775W        W85180   6.943  44.550   0.513
16776W        W85181  27.568  33.990  13.487
16777W        W85182  31.398  35.129   1.929
16778W        W85183   3.927  26.156   1.430
16779W        W85184  32.055  10.879   0.894
16780W        W85185   8.612  34.013   3.244
16781W        W85186  29.413   9.239   2.269
16782W        W85187  42.551   1.377  12.316
16783W        W85188  29.027  30.610   4.622
16784W        W85189  22.475  22.532   2.925
16785W        W85190   7.869  24.315  11.650
16786W        W85191  10.301  13.159  10.487
16787W        W85192   8.750  27.056  13.878
16788W        W85193  15.079  19.447   3.773
16789W        W85194  34.974  14.103   2.543
16790W        W85195  38.791  13.820   1.366
16791W        W85196   2.326   0.194  11.656
16792W        W85197  27.685  35.527   4.261
16793W        W85198  43.984  37.830   0.123
16794W        W85199  39.180  39.016   1.894
16795W        W85200   0.396  41.943  12.204
16796W        W85201  17.244  11.895   4.386
16797W        W85202   0.954  19.189   1.759
16798W        W85203   9.741  18.070   3.259
16799W        W85204  20.343  24.161   5.177
16800W        W85205   5.532  38.718  13.899
16801W        W85206  17.245   4.789   3.112
16802W        W85207  18.394  18.178   3.824
16803W        W85208  36.809  15.550  14.868
16804W        W85209  39.903  41.728   1.805
16805W        W85210  10.810  43.916   3.041
16806W        W85211  43.851  35.383   4.896
16807W        W85212  38.419  18.864  10.874
16808W        W85213   7.251  31.092  10.724
16809W        W85214  38.026   9.795   2.379
16810W        W85215  36.563  40.810  11.674
16811W        W85216  31.622  27.147  10.403
16812W        W85217  13.662  34.538  11.748
16813W        W85218  26.302  27.763   2.588
16814W        W85219  35.177   8.079  13.664
16815W        W85220  25.225  32.194  13.157
16816W        W85221  32.627  21.164  12.778
16817W        W85222  44.821  21.262  11.501
16818W        W85223  44.206  34.058  10.813
16819W        W85224  25.283  34.352   0.545
16820W        W85225  28.636  28.021   0.418
16821W        W85226  26.552  44.256  11.194
16822W        W85227   6.701  11.972  13.358
16823W        W85228   3.212  11.575  12.100
16824W        W85229  10.240  37.081  12.748
16825W        W85230  13.219  11.830  10.487
16826W        W85231   7.398  16.612   2.619
16827W        W85232  32.617  24.732   1.188
16828W        W85233  29.005  35.602  10.512
16829W        W85234   5.179  28.204   1.874
16830W        W85235  10.224  13.921  11.110
16831W        W85236  25.462   0.328   1.332
16832W        W85237  19.724   4.207   2.157
16833W        W85238   4.896  10.169  13.187
16834W        W85239  34.950  44.591   3.152
16835W        W85240   3.970  24.165   0.188
16836W        W85241   9.636  16.640   1.669
16837W        W85242  27.165  10.344  10.607
16838W        W85243  38.908  20.499  14.742
16839W        W85244  24.004  17.994   2.006
16840W        W85245  14.233  35.779  11.957
16841W        W85246   4.331  38.892   0.938
16842W        W85247  16.764  24.380  11.243
16843W        W85248   6.712  39.861   2.689
16844W        W85249  39.022  27.038   4.370
16845W        W85250  42.321   6.708  12.462
16846W        W85251  32.343  39.271   1.393
16847W        W85252  27.492  15.721   3.912
16848W        W85253   2.263  16.157  12.560
16849W        W85254  22.007  25.379   1.852
16850W        W85255  42.369  22.998  11.443
16851W        W85256  32.501   2.979   1.271
16852W        W85257  21.594  30.490   1.979
16853W        W85258   7.313  23.070  13.469
16854W        W85259  11.145  10.925   0.504
16855W        W85260   3.825  35.101   4.534
16856W        W85261   0.962  41.670   4.238
16857W        W85262   7.634  16.386  13.806
16858W        W85263  12.913  10.234  11.994
16859W        W85264  38.931  33.414  10.803
16860W        W85265  11.948  32.641  13.328
16861W        W85266  33.077  28.228   4.605
16862W        W85267  21.260  12.766  12.586
16863W        W85268  31.167  29.240   2.614
16864W        W85269  20.587   6.955   4.335
16865W        W85270  28.275  25.257   1.185
16866W        W85271  12.158  24.716   1.465
16867W        W85272  39.304   3.691  13.489
16868W        W85273  13.668   8.178  13.307
16869W        W85274  15.347  33.895  13.356
16870W        W85275  32.605  28.190  14.876
16871W        W85276  36.751   2.949   2.936
16872W        W85277  12.622  20.661   0.534
16873W        W85278  28.794  32.480  12.991
16874W        W85279  22.021  34.920  14.295
16875W        W85280   8.153   1.323  14.015
16876W        W85281   1.922   9.111  11.620
16877W        W85282  42.167  10.568   2.881
16878W        W85283  32.668  12.198  14.308
16879W        W85284  34.441  34.516   4.116
16880W        W85285  39.759  21.821  12.962
16881W        W85286  28.114  44.499   0.426
16882W        W85287  16.567   4.469   1.151
16883W        W85288  11.693   9.394   1.182
16884W        W85289   6.555  33.397  14.789
16885W        W85290  19.839   3.753  12.368
16886W        W85291  44.243   4.289   4.641
16887W        W85292  17.221  13.835  11.168
16888W        W85293  43.748  23.214  14.810
16889W        W85294  35.921   4.186  11.037
16890W        W85295  28.174  35.587   4.452
16891W        W85296  40.936  37.546   3.632
16892W        W85297  14.794  14.319  12.995
16893W        W85298   7.769  30.128   4.049
16894W        W85299  34.980  21.195   0.275
16895W        W85300  34.813  21.186  14.785
16896W        W85301  21.190  15.602  11.591
16897W        W85302  35.348  24.329  12.523
16898W        W85303  44.829  23.794   2.828
16899W        W85304  42.329  18.229   2.336
16900W        W85305  28.474  22.527   3.274
16901W        W85306  38.489  28.124  14.544
16902W        W85307  23.651  37.973   2.187
16903W        W85308  27.615  18.091  11.388
16904W        W85309   9.215  18.151   0.916
16905W        W85310  40.026   0.951  12.966
16906W        W85311  25.576   1.067  13.753
16907W        W85312  24.945   8.440   2.726
16908W        W85313  42.335  44.424  13.908
16909W        W85314  27.809  22.957   0.923
16910W        W85315  19.877   3.776   2.414
16911W        W85316   5.362  42.570   0.448
16912W        W85317  37.944  23.696   2.452
16913W        W85318  38.553  37.683  13.836
16914W        W85319  40.306  12.353   3.167
16915W        W85320   8.585  30.536  14.430
16916W        W85321  36.107   5.693   0.883
16917W        W85322  20.736  24.198   0.787
16918W        W85323  32.628  34.674  11.889
16919W        W85324   5.496   3.042   4.652
16920W        W85325   6.295  44.975   3.252
16921W        W85326  16.736  22.201  11.628
16922W        W85327  27.936  29.902  11.488
16923W        W85328   1.881  29.573   0.028
16924W        W85329  24.672   0.759   1.702
16925W        W85330   1.966  33.586  10.719
16926W        W85331   4.984  27.415   0.954
16927W        W85332  38.835  13.884   2.253
16928W        W85333  16.728   4.726   2.363
16929W        W85334  23.683  20.610   2.887
16930W        W85335   6.748   7.225  14.397
16931W        W85336  30.106   1.241   0.425
16932W        W85337  28.570  26.420   1.154
16933W        W85338  20.622  31.094   2.132
16934W        W85339   1.312  11.436   1.363
16935W        W85340  21.533  37.391   4.287
16936W        W85341  44.454  44.599  12.392
16937W        W85342  36.823  10.796  12.647
16938W        W85343  26.995   1.734  14.775
16939W        W85344  44.120  19.822   1.910
16940W        W85345  32.740  22.008   0.057
16941W        W85346  12.873  18.343   2.221
16942W        W85347   6.018   8.508  10.772
16943W        W85348  44.743  33.249  11.409
16944W        W85349  41.843  39.853  12.589
16945W        W85350  30.443   7.221  10.733
16946W        W85351  34.352  40.308  12.028
16947W        W85352  27.068  27.660   4.597
16948W        W85353  29.029  41.857   4.163
16949W        W85354  29.452  36.992   1.918
16950W        W85355   6.168   3.811   4.871
16951W        W85356  16.377  21.121  14.798
16952W        W85357   1.265  33.520   0.028
16953W        W85358  35.161  24.689  14.558
16954W        W85359   6.257   9.159   3.218
16955W        W85360  30.944  15.200  14.958
16956W        W85361  22.098  18.553  13.977
16957W        W85362  21.501  25.055  13.480
16958W        W85363   8.684  42.815  11.973
16959W        W85364  15.223  27.212   2.746
16960W        W85365  31.541  11.069  11.017
16961W        W85366  42.616  21.686  14.838
16962W        W85367  18.634   2.876   4.269
16963W        W85368  15.675   8.255  12.093
16964W        W85369  43.787   6.806  12.968
16965W        W85370  37.242  15.993   4.572
16966W        W85371  19.700   0.441   2.817
16967W        W85372  10.574  40.307  10.727
16968W        W85373  15.030  19.713  13.869
16969W        W85374  24.714  25.724  13.110
16970W        W85375  39.785  42.981   2.299
16971W        W85376  36.514  14.566  13.169
16972W        W85377  12.792   1.851   2.636
16973W        W85378  27.687  35.501  14.694
16974W        W85379  22.859   6.921  11.558
16975W        W85380  41.236  22.137  11.561
16976W        W85381  36.379   6.532  10.900
16977W        W85382  11.612  44.391   1.917
16978W        W85383  40.404   8.920  14.484
16979W        W85384  17.076  39.210  14.044
16980W        W85385  19.257  25.354  11.595
16981W        W85386  33.899   5.760  12.854
16982W        W85387  18.534  14.709   1.024
16983W        W85388  14.387   8.671  13.050
16984W        W85389  28.704  34.000   3.779
16985W        W85390  41.886   3.276   0.779
16986W        W85391  10.757  11.489   4.637
16987W        W85392   4.049  13.634   4.117
16988W        W85393  38.158  20.409  11.181
16989W        W85394  14.092  10.238   0.242
16990W        W85395  34.366  30.791   1.219
16991W        W85396   3.299  41.157  12.934
16992W        W85397   2.899  19.029   2.152
16993W        W85398   1.876  34.346  11.270
16994W        W85399  28.950  25.889  14.556
16995W        W85400  23.084   1.936   3.636
16996W        W85401  37.250   8.925  13.532
16997W        W85402  32.765  29.672   3.261
16998W        W85403   9.779  11.070   3.555
16999W        W85404  11.742  20.155   3.530
17000W        W85405  43.781   9.539   4.106
17001W        W85406  11.019  20.617  14.418
17002W        W85407  18.916  44.034   2.057
17003W        W85408   5.424  42.974  11.881
17004W        W85409   7.260  17.444   1.693
17005W        W85410  13.156  12.287  14.824
17006W        W85411   8.730  43.968   2.406
17007W        W85412  24.968  22.241  13.287
17008W        W85413  25.772  29.991   2.095
17009W        W85414  37.443  27.732  13.465
17010W        W85415  35.541   1.799   3.474
17011W        W85416  13.977  36.423  12.960
17012W        W85417  31.641  16.282  14.315
17013W        W85418   1.281   9.996   0.076
17014W        W85419  23.603  17.007   3.306
17015W        W85420   6.298  41.166  12.705
17016W        W85421  17.566  32.349  13.563
17017W        W85422  33.418  37.405   3.944
17018W        W85423  22.108  27.925  13.490
17019W        W85424  10.416  33.321   0.694
17020W        W85425  19.238  37.675  12.581
17021W        W85426   0.358  27.936  10.690
17022W        W85427  17.002   6.455  11.345
17023W        W85428  44.861  17.204   0.926
17024W        W85429  33.980  20.113   3.385
17025W        W85430  33.431  20.495  13.437
17026W        W85431   2.284  19.317   1.367
17027W        W85432   1.669  31.384   1.358
17028W        W85433  11.617   1.019  10.780
17029W        W85434  29.457  43.433  14.450
17030W        W85435   5.837   5.417  13.476
17031W        W85436   5.968  15.177   2.867
17032W        W85437  44.864  40.435   0.654
17033W        W85438  21.608   1.482   4.909
17034W        W85439  24.632   2.736  14.808
17035W        W85440   0.374  39.981  11.341
17036W        W85441  25.476  26.578  14.490
17037W        W85442  12.703  16.963  14.299
17038W        W85443   2.340  32.507  10.344
17039W        W85444   9.751   0.385  11.191
17040W        W85445  38.833  37.479   3.853
17041W        W85446  17.577  19.128   0.606
17042W        W85447  38.809  38.010   4.454
17043W        W85448  36.826  14.499   1.774
17044W        W85449  16.300  13.755   0.892
17045W        W85450  34.399   3.488   2.415
17046W        W85451  17.754  35.835  11.856
17047W        W85452  43.432  41.641   0.764
17048W        W85453  12.387  34.855   0.700
17049W        W85454   0.651  29.403  10.564
17050W        W85455  42.387  37.293   1.755
17051W        W85456  25.965  19.976  13.797
17052W        W85457  12.793   6.656  13.720
17053W        W85458  44.367  23.244  11.002
17054W        W85459  21.978  28.662  11.958
17055W        W85460  26.219  37.557   0.508
17056W        W85461  30.020  23.265   1.309
17057W        W85462   6.464  31.596   3.294
17058W        W85463  25.930  40.309   3.826
17059W        W85464   9.915  39.282  14.750
17060W        W85465   5.776  33.123   3.451
17061W        W85466  12.789  36.125  13.388
17062W        W85467   0.066  31.072   1.376
17063W        W85468   3.175  41.411   2.770
17064W        W85469  38.149  38.023  13.909
17065W        W85470  42.346  11.529   2.127
17066W        W85471   2.907   4.505  13.526
17067W        W85472  41.193   0.808   4.990
17068W        W85473  23.773  39.765   1.292
17069W        W85474  30.578  19.032  13.777
17070W        W85475  30.251  37.899   1.908
17071W        W85476  27.892  36.559  14.735
17072W        W85477  44.773   9.720   2.000
17073W        W85478   4.644  33.939   0.307
17074W        W85479  43.545  35.055   4.581
17075W        W85480  13.317  35.845  12.859
17076W        W85481  13.595  18.792   0.337
17077W        W85482  25.354  29.627   1.371
17078W        W85483  42.444  33.173  14.210
17079W        W85484  39.249   8.573  13.804
17080W        W85485   7.852  23.256   4.642
17081W        W85486  30.627  10.636   1.657
17082W        W85487  30.161  30.527  14.698
17083W        W85488  25.999  44.941  11.595
17084W        W85489  28.747  27.650  10.723
17085W        W85490  16.314  27.978   1.667
17086W        W85491  35.550   7.982   4.138
17087W        W85492  37.764  30.140   3.262
17088W        W85493  36.846   7.853  14.633
17089W        W85494  16.371  24.574   0.781
17090W        W85495  31.919  13.625  14.897
17091W        W85496   8.745   4.447   0.876
17092W        W85497  18.286  33.662   2.328
17093W        W85498  31.583  15.312  13.839
17094W        W85499   2.045   1.407   1.767
17095W        W85500  13.561  37.637   3.232
17096W        W85501   0.019  35.633   2.351
17097W        W85502  18.288  10.513  14.714
17098W        W85503   9.599  30.364  14.384
17099W        W85504  16.780  22.968  14.296
17100W        W85505   5.378   3.722   3.760
17101W        W85506  19.130  27.684  10.727
17102W        W85507  25.112  29.419   1.780
17103W        W85508   4.570  42.338   2.365
17104W        W85509  42.269  11.673  12.012
17105W        W85510  27.559  36.181  10.731
17106W        W85511  35.621  30.044  10.750
17107W        W85512  20.315  18.239  14.681
17108W        W85513  28.412  37.807  13.380
17109W        W85514  17.254  30.158  13.569
17110W        W85515  43.967   2.259   1.284
17111W        W85516  29.382   5.233   0.442
17112W        W85517   0.945   7.286   4.179
17113W        W85518   4.285  18.046  11.078
17114W        W85519  14.874  33.405  12.965
17115W        W85520  18.139  19.581   4.526
17116W        W85521  19.694  33.035  10.180
17117W        W85522  30.183  11.845   0.673
17118W        W85523  22.560  33.641   4.226
17119W        W85524  13.254   5.094   2.884
17120W        W85525   2.786  26.146  10.567
17121W        W85526  21.253  16.939  14.090
17122W        W85527  26.997  30.152  14.425
17123W        W85528  24.703  32.151   4.707
17124W        W85529  10.075   1.009   1.408
17125W        W85530   2.499  36.477  10.650
17126W        W85531  17.009  43.070   4.979
17127W        W85532  12.144  25.179   1.254
17128W        W85533  21.344  38.628   0.915
17129W        W85534  30.187  28.025   1.164
17130W        W85535   0.395  12.356  13.997
17131W        W85536   7.833  44.775  13.502
17132W        W85537  16.422  20.683   3.811
17133W        W85538   2.961  33.837  14.764
17134W        W85539  12.037   4.330  10.573
17135W        W85540  15.866   6.650   1.339
17136W        W85541  18.150   2.940  14.004
17137W        W85542   4.490  43.590   2.178
17138W        W85543  14.162  14.662   0.319
17139W        W85544  35.977  15.324   0.701
17140W        W85545  38.593  12.640  14.026
17141W        W85546  44.701  35.154   0.428
17142W        W85547  40.724  26.613   4.682
17143W        W85548   2.365  44.729   0.431
17144W        W85549  30.591  30.236   1.883
17145W        W85550   8.545  31.090   3.695
17146W        W85551  21.212  33.911  14.883
17147W        W85552  34.362  28.129  11.839
17148W        W85553   1.246  28.402   1.848
17149W        W85554  33.815  41.509  13.365
17150W        W85555  32.118   3.388   4.393
17151W        W85556  21.595  44.029  10.742
17152W        W85557   8.494  42.517  13.482
17153W        W85558  20.529   8.851   0.244
17154W        W85559  39.326  13.822   0.438
17155W        W85560   8.233  11.694   4.071
17156W        W85561   5.463   0.001   0.385
17157W        W85562  22.486   0.018  14.348
17158W        W85563  13.828  20.588  14.034
17159W        W85564  23.027  20.771   0.820
17160W        W85565  17.867   2.437  11.195
17161W        W85566  31.379   4.873   4.104
17162W        W85567  12.771   0.524  13.427
17163W        W85568  35.077  23.644  12.831
17164W        W85569  41.099  31.733  14.293
17165W        W85570  27.507  42.789  13.349
17166W        W85571  24.681  11.417  12.661
17167W        W85572  21.205  29.973  13.368
17168W        W85573   9.507  11.576   3.355
17169W        W85574  22.759   8.259  11.800
17170W        W85575  21.590  37.869   4.449
17171W        W85576  39.508  17.547  12.157
17172W        W85577  30.543  35.139   4.594
17173W        W85578  20.285   8.304  10.712
17174W        W85579  20.173  41.546   2.828
17175W        W85580  31.120   8.434   1.385
17176W        W85581  43.919   0.222   3.771
17177W        W85582  30.807  33.900   4.325
17178W        W85583  26.862   3.946  13.506
17179W        W85584   8.187  44.990  11.639
17180W        W85585  28.386  22.323   0.832
17181W        W85586  35.155  42.264  13.905
17182W        W85587  36.684   7.890   1.395
17183W        W85588  40.611  31.933   1.739
17184W        W85589   6.899   3.950  12.407
17185W        W85590  40.392  15.142   2.906
17186W        W85591   3.504  34.601  11.778
17187W        W85592  44.702  16.151  13.230
17188W        W85593  35.068  41.055   1.456
17189W        W85594  14.799   7.709   1.605
17190W        W85595   1.473  20.259  13.989
17191W        W85596  17.609   4.719   2.706
17192W        W85597  41.739  13.035   3.645
17193W        W85598  20.867  15.633  13.520
17194W        W85599  44.552  38.102  13.828
17195W        W85600  26.151  12.795   2.804
17196W        W85601  21.132  23.212  14.955
17197W        W85602  19.280  37.881   1.393
17198W        W85603  20.049  10.128  12.972
17199W        W85604  18.666  33.181  12.035
17200W        W85605  10.785  13.563   2.657
17201W        W85606  42.854   1.834   3.377
17202W        W85607  43.339  10.303  11.638
17203W        W85608   1.722   6.182  11.147
17204W        W85609  39.918  44.385   2.394
17205W        W85610  34.167  36.308  11.455
17206W        W85611   3.539  15.730   1.956
17207W        W85612  38.528   5.730  11.068
17208W        W85613  27.520   8.011   3.735
17209W        W85614  34.755  12.261  14.435
17210W        W85615  23.600  23.512  12.513
17211W        W85616  16.536  33.353  13.143
17212W        W85617  10.461  26.731   9.896
17213W        W85618  22.221  18.801   1.381
17214W        W85619   3.942  13.515   2.286
17215W        W85620  23.601  29.506   0.884
17216W        W85621  35.049  11.645  12.957
17217W        W85622  10.749  35.700   0.963
17218W        W85623  21.588  31.102  11.300
17219W        W85624  32.158  25.112   4.283
17220W        W85625  38.127  39.054  14.920
17221W        W85626  19.671  17.835   2.812
17222W        W85627  19.473  18.758  11.593
17223W        W85628  35.851   5.974  11.680
17224W        W85629   9.326  40.927  14.054
17225W        W85630  31.963  24.909  14.934
17226W        W85631  19.773   7.225  11.680
17227W        W85632  29.475  33.924   2.689
17228W        W85633   9.631   2.717   2.425
17229W        W85634  37.447  31.173   2.828
17230W        W85635  26.489  41.534  11.810
17231W        W85636  41.503  36.853   2.824
17232W        W85637   6.467   2.282  14.920
17233W        W85638  15.087  25.556  14.467
17234W        W85639  32.694  41.321  11.733
17235W        W85640   6.346  42.715   2.667
17236W        W85641  33.530  28.114  10.590
17237W        W85642  31.886  24.650  11.920
17238W        W85643  37.100   7.275   1.880
17239W        W85644  30.478  35.939   2.763
17240W        W85645  19.713   8.810  12.647
17241W        W85646  37.423   4.258  13.466
17242W        W85647  34.387  35.698   2.195
17243W        W85648  26.576  14.967   3.082
17244W        W85649  31.928  35.386  10.839
17245W        W85650   8.746  39.957  12.469
17246W        W85651  31.116  30.510   4.127
17247W        W85652  27.010  40.018   0.938
17248W        W85653  34.926  16.883   4.568
17249W        W85654   1.896   5.131  13.381
17250W        W85655  21.740   5.658  12.455
17251W        W85656  26.284   9.902  13.902
17252W        W85657  18.865  39.036  14.777
17253W        W85658  23.179  37.400   9.941
17254W        W85659  12.042   5.171  10.658
17255W        W85660  26.165  18.430   3.359
17256W        W85661  28.595  28.951   0.392
17257W        W85662  28.153   1.870   5.099
17258W        W85663  37.769  35.393   2.992
17259W        W85664  12.644   2.331   4.593
17260W        W85665  27.525   2.535   2.963
17261W        W85666  42.423  25.484  14.799
17262W        W85667  29.369   5.854  11.313
17263W        W85668  43.617  21.275  13.980
17264W        W85669  20.664  38.770   2.109
17265W        W85670  44.833  38.486  14.465
17266W        W85671  19.742  14.307   2.317
17267W        W85672   4.014  24.598  12.592
17268W        W85673  21.042  30.617  14.377
17269W        W85674   2.545   3.356  14.024
17270W        W85675  17.079   9.456  14.315
17271W        W85676  37.801  17.813   0.811
17272W        W85677   2.719  13.182   1.289
17273W        W85678   3.210   4.221   4.087
17274W        W85679  25.998  23.261   0.530
17275W        W85680  12.627  12.608   2.530
17276W        W85681  17.522  20.627  12.245
17277W        W85682  16.337   8.220  14.278
17278W        W85683  20.587   6.735   3.527
17279W        W85684   5.487  33.447   3.718
17280W        W85685  31.299  33.332  14.704
17281W        W85686   2.631  35.982  14.429
17282W        W85687  13.793  11.217  14.593
17283W        W85688  12.301  34.845  14.664
17284W        W85689  41.568  20.820  12.058
17285W        W85690  39.376  18.308   0.887
17286W        W85691  32.957  19.968  14.017
17287W        W85692  10.939   4.258  14.216
17288W        W85693  22.672  18.999  10.701
17289W        W85694  26.699  10.486   0.224
17290W        W85695  26.602  18.819  13.538
17291W        W85696  26.286  38.589  14.510
17292W        W85697  35.447  18.488   0.248
17293W        W85698  34.531  29.024   1.735
17294W        W85699  25.645   0.125   3.567
17295W        W85700  34.187  20.192   1.939
17296W        W85701   8.467  17.975   1.357
17297W        W85702  35.831  23.948   0.332
17298W        W85703  25.270  15.641  14.931
17299W        W85704  31.562  42.300   0.413
17300W        W85705  43.897  44.997   2.169
17301W        W85706  12.627  29.940  12.190
17302W        W85707  31.930  17.472  12.488
17303W        W85708   6.462  37.403  10.606
17304W        W85709   5.406  32.950   0.489
17305W        W85710  27.279  38.029   4.559
17306W        W85711   3.765  18.592  14.515
17307W        W85712   1.853   8.102  12.422
17308W        W85713  29.207  16.238   0.213
17309W        W85714  27.261  32.131  12.193
17310W        W85715  21.966  34.376  14.248
17311W        W85716   2.493  29.404   1.400
17312W        W85717   1.183   2.961   4.642
17313W        W85718   6.208  32.845  10.459
17314W        W85719   5.735  22.652  11.824
17315W        W85720  10.339  10.376   2.087
17316W        W85721  32.334  22.591  13.949
17317W        W85722  44.975   9.129  12.363
17318W        W85723   4.735  11.257   4.291
17319W        W85724   5.748  16.843  11.269
17320W        W85725  41.508   5.784  12.701
17321W        W85726  44.911  15.204   0.034
17322W        W85727  32.435  39.385  13.480
17323W        W85728  31.321  17.203  11.511
17324W        W85729   4.759   8.226   2.844
17325W        W85730  18.173  21.960   1.213
17326W        W85731  26.725  22.203  10.207
17327W        W85732  18.416  33.755  11.564
17328W        W85733  11.935  23.968  11.886
17329W        W85734  22.322  22.423  12.871
17330W        W85735   7.620  13.716   3.992
17331W        W85736  31.022  25.388   1.714
17332W        W85737  36.336  33.286  14.418
17333W        W85738  32.220  11.401   0.876
17334W        W85739  25.450  43.789  14.878
17335W        W85740  23.978   6.829   2.960
17336W        W85741  22.295  42.795   2.199
17337W        W85742  19.783  43.236  13.039
17338W        W85743  12.213  32.844   2.685
17339W        W85744  19.771  23.438   1.467
17340W        W85745  14.829  15.117   1.617
17341W        W85746  31.262   4.833   0.388
17342W        W85747  38.984   2.913  14.551
17343W        W85748  30.786  44.844   1.313
17344W        W85749   9.303  35.193   4.803
17345W        W85750  43.494  38.048  12.557
17346W        W85751  12.662  44.944   3.705
17347W        W85752  38.995  34.930   4.757
17348W        W85753  12.131   1.233   1.847
17349W        W85754  40.004  28.684   4.058
17350W        W85755   4.192  15.711  13.839
17351W        W85756  20.793  32.636   0.906
17352W        W85757  15.620  23.518  13.856
17353W        W85758  30.126  44.243   3.758
17354W        W85759  36.099  25.901  14.263
17355W        W85760  31.554  19.234  12.916
17356W        W85761  30.745  40.827  11.144
17357W        W85762  36.136  26.484   3.918
17358W        W85763   2.973  28.017   4.487
17359W        W85764  24.752  20.676  12.542
17360W        W85765  39.335  20.696   0.030
17361W        W85766  13.663   9.805  12.562
17362W        W85767   1.330   4.697  11.720
17363W        W85768   9.463  43.848  10.409
17364W        W85769   8.472   0.719  12.659
17365W        W85770  12.115  32.382  12.916
17366W        W85771  44.495  44.595   4.202
17367W        W85772   2.939   3.156   0.708
17368W        W85773  22.694   6.778  12.444
17369W        W85774  33.577  11.260   2.881
17370W        W85775   6.366  30.830   4.856
17371W        W85776   1.059  42.909   3.415
17372W        W85777   1.763  16.129   2.737
17373W        W85778  33.335  26.725   1.182
17374W        W85779  29.794  31.861  12.031
17375W        W85780   4.974  34.828   2.337
17376W        W85781  39.153  14.328   2.283
17377W        W85782  11.936  27.962   0.191
17378W        W85783  14.067  36.503  11.478
17379W        W85784  16.622  29.103  11.276
17380W        W85785  26.049  44.385   3.171
17381W        W85786  38.914  38.588   5.119
17382W        W85787  43.142  42.429  11.183
17383W        W85788  16.304  11.209  11.084
17384W        W85789  11.707  36.092  12.850
17385W        W85790  34.587   1.805   0.564
17386W        W85791  34.338  37.377   1.335
17387W        W85792  16.657   7.442   3.153
17388W        W85793  23.635  34.009   2.432
17389W        W85794   0.267  16.619  14.776
17390W        W85795  22.724   2.939  11.213
17391W        W85796  34.908  12.628   2.713
17392W        W85797   9.864  10.749  14.913
17393W        W85798  40.807  25.018   4.334
17394W        W85799   6.334  14.780  11.513
17395W        W85800  26.384  42.208  11.137
17396W        W85801   8.595  14.239  14.276
17397W        W85802  24.751  23.411   0.053
17398W        W85803  17.046  29.946   3.377
17399W        W85804   0.468  26.937   0.751
17400W        W85805  19.303  30.421  11.992
17401W        W85806  43.240  22.562   3.263
17402W        W85807  43.562  32.818  12.007
17403W        W85808   8.690  42.950   3.243
17404W        W85809  13.154   0.212   1.132
17405W        W85810  29.618  11.379  10.720
17406W        W85811  19.572   7.974  12.911
17407W        W85812  17.164  29.083  13.801
17408W        W85813  27.107  40.900   1.461
17409W        W85814  31.974   3.462  12.939
17410W        W85815  37.618   3.991   4.255
17411W        W85816   6.882  27.748   1.993
17412W        W85817  19.696   4.446   1.668
17413W        W85818  27.523   3.036   0.777
17414W        W85819   3.158  39.116  11.933
17415W        W85820   1.276  17.819  13.860
17416W        W85821  13.642  21.068  13.038
17417W        W85822  32.056  32.882   0.932
17418W        W85823  26.512   9.914  13.445
17419W        W85824   9.097   4.531   4.610
17420W        W85825   3.568  27.763   3.197
17421W        W85826   9.442  32.773  11.476
17422W        W85827  40.278  36.485   3.679
17423W        W85828  23.771  26.819  13.005
17424W        W85829  18.705  21.631   4.456
17425W        W85830  41.882  15.715   2.186
17426W        W85831   8.782  24.603   2.402
17427W        W85832   0.495   7.272   0.680
17428W        W85833  19.764  27.606  14.972
17429W        W85834  16.170  18.320   3.710
17430W        W85835   6.693  10.248  11.913
17431W        W85836  20.001  18.827  11.602
17432W        W85837  20.026  43.328   3.343
17433W        W85838  33.450  41.027   0.490
17434W        W85839  23.691   5.372  12.950
17435W        W85840  41.603  25.480  11.691
17436W        W85841  11.090  11.723  13.356
17437W        W85842  43.659  29.992  12.990
17438W        W85843  26.980   0.574  11.100
17439W        W85844  37.940  17.294   2.415
17440W        W85845  16.764  37.049  11.500
17441W        W85846  30.032  18.489   4.760
17442W        W85847   3.423   4.897   4.213
17443W        W85848  35.435  37.595   3.267
17444W        W85849   4.950  15.125   3.237
17445W        W85850  44.053  30.585  13.267
17446W        W85851   4.414  11.611   0.422
17447W        W85852  14.861  10.126  11.459
17448W        W85853  44.902  35.291   5.038
17449W        W85854  28.814  38.047  11.473
17450W        W85855  23.026  32.412   0.427
17451W        W85856  10.370  31.445  12.732
17452W        W85857  26.563   0.311  14.897
17453W        W85858   9.395  10.215  11.900
17454W        W85859  16.423  11.477   4.248
17455W        W85860  41.269  28.503   1.795
17456W        W85861  23.193  12.639   0.418
17457W        W85862  19.185  44.982   4.435
17458W        W85863  43.154  16.182  13.793
17459W        W85864  16.468  12.096  14.389
17460W        W85865  28.580  10.156   3.779
17461W        W85866  25.174  44.287  12.043
17462W        W85867  19.153  20.019   4.636
17463W        W85868   8.402  26.266  12.815
17464W        W85869  41.368  33.389   0.807
17465W        W85870  21.703   5.281  13.883
17466W        W85871  28.859  17.218  13.918
17467W        W85872  14.243  40.986  14.271
17468W        W85873   6.839  44.810   4.479
17469W        W85874  31.793  18.503   4.988
17470W        W85875  23.098   9.105  14.820
17471W        W85876  12.348   9.448   0.420
17472W        W85877  30.586  15.624   3.183
17473W        W85878  32.717  33.512   1.988
17474W        W85879  41.793  17.523   1.216
17475W        W85880   7.505  17.785   4.485
17476W        W85881  31.542   1.291  13.503
17477W        W85882  24.323  33.877  10.681
17478W        W85883   6.662   2.973  11.568
17479W        W85884   4.227  16.180   0.163
17480W        W85885  38.758  36.200  13.861
17481W        W85886  22.084  15.677  10.877
17482W        W85887   7.335  37.985   0.924
17483W        W85888  20.822  44.412  12.033
17484W        W85889  15.172  25.223   2.489
17485W        W85890  35.177   1.963  13.114
17486W        W85891  43.331  37.111   2.156
17487W        W85892  28.629   8.360   4.187
17488W        W85893  24.971   6.878  14.229
17489W        W85894  16.498  29.933  11.940
17490W        W85895  21.039  37.139   3.353
17491W        W85896  29.541  13.456   1.998
17492W        W85897  20.171  41.251  12.580
17493W        W85898  20.112  17.133  13.397
17494W        W85899  28.086  29.085  14.606
17495W        W85900  24.455  32.624   2.875
17496W        W85901  39.958  36.879   4.310
17497W        W85902  28.628  23.796   3.750
17498W        W85903  37.775  17.611  13.005
17499W        W85904  28.302  43.441  10.581
17500W        W85905   3.253  44.332  14.083
17501W        W85906   5.366  38.631   0.748
17502W        W85907   8.245  44.536  11.429
17503W        W85908  42.310  29.001  13.813
17504W        W85909  38.669   1.577   9.735
17505W        W85910  12.516  26.474   3.681
17506W        W85911  11.174  41.815  11.016
17507W        W85912  31.255  33.930   2.069
17508W        W85913  32.818  40.449  11.962
17509W        W85914   6.901  28.398   5.451
17510W        W85915  20.270  33.584   4.712
17511W        W85916   2.182  13.042   2.604
17512W        W85917  30.623  34.204  12.010
17513W        W85918  21.081  27.475   2.444
17514W        W85919   8.158  33.914   1.319
17515W        W85920  35.974  26.650  10.942
17516W        W85921  23.630  25.553   3.209
17517W        W85922  26.874   9.438   4.244
17518W        W85923  34.096   4.070  13.854
17519W        W85924  23.275  31.467  14.737
17520W        W85925   6.114  12.404   2.859
17521W        W85926  20.772   9.737   2.231
17522W        W85927   6.392  12.757   4.132
17523W        W85928  42.889   2.420  11.107
17524W        W85929  10.319  37.764   5.195
17525W        W85930  26.279  38.868  10.480
17526W        W85931  37.225  25.653  14.887
17527W        W85932  36.362  38.844  14.313
17528W        W85933  44.012  10.149  14.346
17529W        W85934   8.171  23.771   3.538
17530W        W85935  28.168  24.022   3.699
17531W        W85936  19.476   0.753  11.613
17532W        W85937  23.808   0.367   4.094
17533W        W85938  27.485  18.938   1.915
17534W        W85939  15.851  17.131   2.183
17535W        W85940  23.663  17.633   1.699
17536W        W85941  29.205  42.792   1.184
17537W        W85942  30.575  41.555   4.193
17538W        W85943  23.501  43.833   1.450
17539W        W85944  18.741  25.950   3.080
17540W        W85945  10.609  34.995   4.132
17541W        W85946  39.135  22.176   2.884
17542W        W85947  33.526  37.555  14.321
17543W        W85948  39.443  28.593  11.408
17544W        W85949  36.335  31.176  14.476
17545W        W85950  33.123  16.536   0.027
17546W        W85951  38.638  42.718   0.891
17547W        W85952  40.627  38.566   0.456
17548W        W85953  20.589   4.899   0.281
17549W        W85954  31.813   5.656   0.787
17550W        W85955   2.671  31.631   0.460
17551W        W85956  36.137  28.788  12.617
17552W        W85957  27.603  38.708  10.573
17553W        W85958  10.366  19.733  10.800
17554W        W85959   8.885  25.203  11.187
17555W        W85960  28.582  23.319  13.613
17556W        W85961  35.641  12.501  14.349
17557W        W85962  36.937  16.828  14.707
17558W        W85963  26.627   1.985   1.238
17559W        W85964  21.782  30.129   0.768
17560W        W85965  31.069   4.204  13.621
17561W        W85966   8.363  40.331  11.572
17562W        W85967  12.810  41.157   3.129
17563W        W85968  29.226  17.272  11.150
17564W        W85969  18.215  11.186  12.543
17565W        W85970  29.884  26.508   4.030
17566W        W85971  25.181  27.199   0.263
17567W        W85972  20.613  19.625  11.605
17568W        W85973  32.410   6.889   0.810
17569W        W85974  24.223  23.202   3.216
17570W        W85975  12.075  43.396   2.791
17571W        W85976  30.793  30.159   0.132
17572W        W85977  11.706  30.682  12.836
17573W        W85978   7.831  35.874  12.367
17574W        W85979  29.354   9.813  12.478
17575W        W85980  21.707   2.794   3.737
17576W        W85981  34.938   4.899  13.561
17577W        W85982  13.341  25.145  11.643
17578W        W85983  32.822   0.345   1.700
17579W        W85984  18.545  38.896  12.378
17580W        W85985  28.440  25.824  14.740
17581W        W85986  31.641  44.025   3.374
17582W        W85987   1.510   2.330   3.574
17583W        W85988  16.740  38.642  14.412
17584W        W85989   5.651  31.625  14.262
17585W        W85990  36.090  39.065  12.553
17586W        W85991  38.877  20.704   1.866
17587W        W85992  40.815  22.972  11.394
17588W        W85993  27.655   8.687   2.004
17589W        W85994   9.288  41.918   2.919
17590W        W85995  10.728  43.756  11.519
17591W        W85996  28.704   7.859   4.158
17592W        W85997  39.773   5.797  11.492
17593W        W85998   5.136   5.425  11.881
17594W        W85999  29.918  39.813  11.045
17595W        W86000  19.487   2.474   1.306
17596W        W86001  43.527   2.409   3.164
17597W        W86002  35.504   4.186   3.626
17598W        W86003   7.933  14.260  13.773
17599W        W86004  24.172  43.598   2.712
17600W        W86005  39.339   0.150  11.775
17601W        W86006  38.726  19.162  14.702
17602W        W86007   9.384  32.442  13.186
17603W        W86008   9.592  21.588   3.254
17604W        W86009  32.469  33.389  10.904
17605W        W86010  44.208   2.237   1.784
17606W        W86011   9.719  34.312   0.163
17607W        W86012  12.783  35.744   3.382
17608W        W86013   6.147  16.249   3.506
17609W        W86014  26.101  40.789  10.545
17610W        W86015  41.511  20.098  11.486
17611W        W86016  37.062  42.871   1.750
17612W        W86017  33.859  21.522  11.860
17613W        W86018  16.181   7.165  10.598
17614W        W86019   3.365   5.902   2.744
17615W        W86020  28.353  15.859  12.532
17616W        W86021  11.609  42.092   1.445
17617W        W86022  12.238  17.243  13.508
17618W        W86023  27.387   4.377  14.206
17619W        W86024   7.774  33.368   0.043
17620W        W86025  43.304  12.647   4.677
17621W        W86026   5.302   4.982   4.877
17622W        W86027  30.915   8.837  10.636
17623W        W86028  23.212  27.779   0.005
17624W        W86029  31.304   5.747   0.807
17625W        W86030   3.895   5.211   3.554
17626W        W86031  11.022   9.390   4.638
17627W        W86032  41.962  34.662   0.275
17628W        W86033  15.900  27.599   0.816
17629W        W86034  28.472  14.573   3.232
17630W        W86035  40.344  36.107  10.680
17631W        W86036  29.907   5.244   0.318
17632W        W86037  29.999  23.589   3.701
17633W        W86038  22.023  44.492   3.724
17634W        W86039  13.976  44.733   4.971
17635W        W86040  32.354  36.264  14.940
17636W        W86041  15.143   9.783   4.923
17637W        W86042  39.528   2.050   4.557
17638W        W86043  34.497  13.803   4.628
17639W        W86044  27.514  14.100   0.315
17640W        W86045  18.338  30.505   3.201
17641W        W86046  39.502   9.896  12.334
17642W        W86047  36.166  15.101   2.701
17643W        W86048  40.347  41.816  10.601
17644W        W86049  38.818  21.520   3.241
17645W        W86050  29.747  27.089   0.360
17646W        W86051  30.166  14.759   2.761
17647W        W86052  30.009  39.512   3.611
17648W        W86053  29.616  20.671  10.705
17649W        W86054  22.594  15.340  11.494
17650W        W86055  18.544  31.528   2.619
17651W        W86056  36.407  30.479   0.474
17652W        W86057   9.309  37.141   0.637
17653W        W86058   6.929  22.203   3.077
17654W        W86059  33.842  42.246  13.861
17655W        W86060  34.074  19.262   4.175
17656W        W86061  10.288  13.202   0.926
17657W        W86062  10.187  23.075   4.842
17658W        W86063  32.341  27.522   0.289
17659W        W86064   1.401  38.260   4.587
17660W        W86065   8.222   9.767  12.556
17661W        W86066  23.390  23.690  12.083
17662W        W86067  42.759  32.332  11.170
17663W        W86068   2.757   1.797   2.388
17664W        W86069  15.256   6.351  14.074
17665W        W86070  20.376  33.375  11.473
17666W        W86071   0.992  25.990  10.810
17667W        W86072  42.856  13.620   2.531
17668W        W86073   8.616  35.632   3.122
17669W        W86074  26.500   6.976   4.096
17670W        W86075  14.766  25.598  10.539
17671W        W86076  10.688  42.061   3.871
17672W        W86077   9.212  18.290  12.101
17673W        W86078  23.865  20.374  10.982
17674W        W86079  43.499  16.973   4.468
17675W        W86080  37.486  36.819   4.166
17676W        W86081  19.102  43.947   0.562
17677W        W86082  27.114  10.736  14.385
17678W        W86083  21.190   5.360   3.340
17679W        W86084   9.910   0.960  13.972
17680W        W86085  24.165  41.013   3.526
17681W        W86086  28.527  38.409   2.695
17682W        W86087  30.715  18.004  10.443
17683W        W86088  18.664  21.070   0.210
17684W        W86089  34.340  24.024   1.620
17685W        W86090  30.949  37.058  12.913
17686W        W86091  25.211  36.334  13.003
17687W        W86092  44.812   9.877   0.179
17688W        W86093   7.662  42.650   2.340
17689W        W86094  15.104  21.025   3.615
17690W        W86095  40.812  33.964  11.733
17691W        W86096  34.377  42.224   2.203
17692W        W86097   3.793  42.069   4.663
17693W        W86098  30.141  39.492   5.043
17694W        W86099  25.046   7.692   4.267
17695W        W86100  27.058  27.969   4.171
17696W        W86101  17.835  39.109  12.990
17697W        W86102  12.673  31.901  13.838
17698W        W86103  17.328  10.707  10.748
17699W        W86104  27.767  11.437  11.923
17700W        W86105  11.542  32.092   4.077
17701W        W86106  43.040  12.728  12.807
17702W        W86107  18.517  19.726  11.012
17703W        W86108  27.493  25.736   2.155
17704W        W86109  16.105  20.325  12.586
17705W        W86110  32.997  41.275   1.073
17706W        W86111   8.914   8.873   1.819
17707W        W86112  10.781  42.712   1.685
17708W        W86113  31.787  42.536   1.903
17709W        W86114  38.302   0.584  12.985
17710W        W86115  30.417  19.089   9.717
17711W        W86116   0.752   4.486  13.723
17712W        W86117   1.802  27.636   4.557
17713W        W86118  28.840  30.929  11.500
17714W        W86119  15.747  12.711  14.085
17715W        W86120  26.160   3.592  13.836
17716W        W86121  15.244   6.027   1.310
17717W        W86122  10.837  15.290  12.143
17718W        W86123  33.480  33.362  13.723
17719W        W86124   5.843  17.734  10.760
17720W        W86125  18.440  21.629  11.926
17721W        W86126  15.094   4.497   3.241
17722W        W86127  39.937  35.571  11.499
17723W        W86128   0.414  14.359   2.459
17724W        W86129  29.105  18.869   4.530
17725W        W86130  11.947   2.202   2.198
17726W        W86131   9.805  10.669   2.747
17727W        W86132   4.197  38.936   3.100
17728W        W86133  40.355   2.806  14.300
17729W        W86134  10.437  13.831  12.105
17730W        W86135  41.405  38.967  12.845
17731W        W86136  22.269  43.002  11.409
17732W        W86137  18.470  25.624  13.380
17733W        W86138  38.144  38.976  14.043
17734W        W86139  30.402   4.388  14.255
17735W        W86140  19.785  41.540  12.367
17736W        W86141  28.969   3.670   3.890
17737W        W86142  30.556   9.766  14.028
17738W        W86143  31.987   2.887  13.436
17739W        W86144  27.982  14.769   5.534
17740W        W86145  11.489  30.924  10.650
17741W        W86146  19.724   2.747   1.705
17742W        W86147  22.005  33.403  12.415
17743W        W86148  10.916  34.833   2.882
17744W        W86149   8.202  21.728   2.717
17745W        W86150  10.504  28.075   4.978
17746W        W86151  24.435  39.017  11.059
17747W        W86152  22.111   0.674   4.569
17748W        W86153  23.490  25.464   1.175
17749W        W86154   6.722  35.364  13.886
17750W        W86155  30.619  16.318  12.910
17751W        W86156   8.746  13.410  10.749
17752W        W86157  35.961  15.305  14.659
17753W        W86158  32.388  33.866  11.963
17754W        W86159  11.174  33.052   2.394
17755W        W86160  28.979  10.177  12.450
17756W        W86161   6.662  13.477  13.282
17757W        W86162  16.781  35.594   0.281
17758W        W86163  20.795   3.183  14.168
17759W        W86164  16.863  34.733   3.325
17760W        W86165  15.799  21.602   2.741
17761W        W86166  15.244   3.336  14.945
17762W        W86167   0.248   9.586  13.251
17763W        W86168  18.935  20.136   3.759
17764W        W86169  17.664  26.966   4.546
17765W        W86170  38.389  29.086   4.521
17766W        W86171  25.938  27.171   4.331
17767W        W86172   7.434  28.984   2.728
17768W        W86173  41.009   9.380   1.848
17769W        W86174  17.660  21.145  13.922
17770W        W86175  31.533   9.013   2.915
17771W        W86176  35.801  26.740   0.306
17772W        W86177  39.257  22.113  10.591
17773W        W86178  16.292  31.891  11.153
17774W        W86179   4.200  11.619   2.143
17775W        W86180  41.595  36.338  14.448
17776W        W86181  27.425   6.098  14.819
17777W        W86182  13.188  43.567   0.421
17778W        W86183  38.093  18.832   1.910
17779W        W86184  17.040  31.087  14.839
17780W        W86185  37.362  10.911   1.701
17781W        W86186   9.163  40.333   2.865
17782W        W86187  33.874  36.894  13.969
17783W        W86188  13.658   7.148  13.379
17784W        W86189  44.739  32.061  12.277
17785W        W86190  21.562  38.982  14.290
17786W        W86191   1.888  33.390  12.812
17787W        W86192  20.170  24.279   1.905
17788W        W86193   7.019  43.877   3.567
17789W        W86194  17.482  24.485   2.148
17790W        W86195  41.548   0.350   2.222
17791W        W86196  10.444  15.133   0.775
17792W        W86197  21.744   1.077   3.029
17793W        W86198  42.077  10.742   4.695
17794W        W86199  10.424   0.303   1.853
17795W        W86200  23.654   4.707   3.209
17796W        W86201  33.284  35.206   3.624
17797W        W86202   3.699   7.329  14.320
17798W        W86203  18.639  34.043   9.992
17799W        W86204  14.719  40.713   1.449
17800W        W86205  14.786  21.349   3.152
17801W        W86206  12.366  36.680  10.540
17802W        W86207  42.781  15.693   4.767
17803W        W86208   4.379  16.729  14.921
17804W        W86209  27.943  42.192   1.918
17805W        W86210  14.669   8.231  14.321
17806W        W86211  27.471  24.710   2.084
17807W        W86212  23.060   5.333   4.355
17808W        W86213  10.854  13.744  13.402
17809W        W86214  33.649  35.139   2.394
17810W        W86215  44.598  24.940  11.094
17811W        W86216   7.439  40.500  11.070
17812W        W86217   2.928  41.250  12.593
17813W        W86218  31.712  12.339   3.232
17814W        W86219  23.556  37.919  12.433
17815W        W86220   5.388  23.278  11.901
17816W        W86221  43.808  12.609  14.035
17817W        W86222  27.064  20.663  14.834
17818W        W86223  10.838  17.766   1.226
17819W        W86224   0.167   9.545   4.243
17820W        W86225  44.747  15.044  10.555
17821W        W86226   5.751  41.629  13.448
17822W        W86227  16.111  27.466  12.576
17823W        W86228   9.758  33.983   4.570
17824W        W86229  28.197  40.903  14.991
17825W        W86230  42.107  36.169  14.316
17826W        W86231  29.878  15.744  12.455
17827W        W86232   0.614  42.399   2.771
17828W        W86233  10.588  26.032   4.169
17829W        W86234  13.395  13.777   1.197
17830W        W86235   6.486  18.138  11.120
17831W        W86236  34.707  42.498   4.101
17832W        W86237  15.174  10.288  10.365
17833W        W86238  34.812  12.755   3.232
17834W        W86239  39.369  12.377   3.318
17835W        W86240   4.388  36.341   1.818
17836W        W86241  33.961  35.789   3.334
17837W        W86242  29.890   0.489  13.401
17838W        W86243  22.679  13.755   0.420
17839W        W86244   1.307   7.709   0.783
17840W        W86245  44.492  15.280  14.733
17841W        W86246  21.040  11.936  13.905
17842W        W86247  32.564  23.053  13.310
17843W        W86248  22.811   6.438   4.620
17844W        W86249  25.293  24.516  14.955
17845W        W86250   4.144  30.868   3.212
17846W        W86251   7.284  24.514   2.422
17847W        W86252  32.095  11.844  12.984
17848W        W86253  23.239   3.984   3.316
17849W        W86254   7.714  24.763   1.138
17850W        W86255  11.105  35.120   4.175
17851W        W86256  16.078  34.075   1.873
17852W        W86257  37.482  25.882  11.224
17853W        W86258  22.725  11.574  14.898
17854W        W86259  41.402  25.980  14.783
17855W        W86260  19.523  17.074  10.789
17856W        W86261  22.196  36.354   3.944
17857W        W86262   5.755  42.891  11.462
17858W        W86263  12.649   8.348  13.605
17859W        W86264  43.438   3.405  14.424
17860W        W86265  33.442  12.457  13.152
17861W        W86266  27.030  13.034   1.761
17862W        W86267   0.713  11.215  12.313
17863W        W86268  19.054  10.587  11.622
17864W        W86269   3.937   8.977  11.344
17865W        W86270  33.981   5.681   3.128
17866W        W86271  23.149   7.520  14.039
17867W        W86272  37.770  14.586  12.086
17868W        W86273  16.240   5.921  13.979
17869W        W86274  43.312  40.335  10.235
17870W        W86275   4.927  31.515  13.790
17871W        W86276   4.400  30.984   2.756
17872W        W86277  12.081   2.054   0.416
17873W        W86278   6.919  29.718   0.737
17874W        W86279  44.104  20.174   4.545
17875W        W86280  20.968  39.574  11.542
17876W        W86281  10.690   3.137  12.869
17877W        W86282  44.301  16.597   1.460
17878W        W86283   5.826   5.630   1.044
17879W        W86284  30.186  42.391   2.723
17880W        W86285   4.853  16.426   3.166
17881W        W86286  17.869  42.068  14.944
17882W        W86287  11.350   4.817  10.610
17883W        W86288   5.507  33.410  11.354
17884W        W86289  15.797  32.034  11.221
17885W        W86290  33.578   9.986   2.124
17886W        W86291  29.422  32.002  11.683
17887W        W86292  37.099  40.574  11.633
17888W        W86293  22.791  43.616   3.010
17889W        W86294  29.971  26.264  14.701
17890W        W86295  23.025  44.433  13.489
17891W        W86296  21.045  11.160   4.131
17892W        W86297  10.561  14.210  10.756
17893W        W86298   4.791  21.596   0.937
17894W        W86299  27.799  38.982  14.971
17895W        W86300  21.512  27.571   1.804
17896W        W86301  19.704  13.863   4.567
17897W        W86302  31.399  12.504  13.398
17898W        W86303  12.736  44.688   1.429
17899W        W86304   2.310  20.972   9.799
17900W        W86305  20.989  42.221   4.569
17901W        W86306  43.702  25.591   1.488
17902W        W86307  14.222   5.942  13.390
17903W        W86308  39.348  18.063  11.135
17904W        W86309  26.140  32.950  11.749
17905W        W86310   2.131  37.883  14.978
17906W        W86311  12.409   3.922  13.276
17907W        W86312  32.902  27.960   2.581
17908W        W86313  18.136  11.337   4.891
17909W        W86314  17.055  34.057   0.795
17910W        W86315  39.901  20.151   4.649
17911W        W86316   9.308  14.015   1.090
17912W        W86317  44.932   0.020   0.584
17913W        W86318  10.685  32.125  14.435
17914W        W86319  31.208  27.658   2.208
17915W        W86320   7.043   7.306   4.506
17916W        W86321  11.659   4.722  12.113
17917W        W86322  34.475   8.477  13.413
17918W        W86323  24.248  20.755  11.131
17919W        W86324  32.880  33.132  11.086
17920W        W86325  23.348  25.925  14.398
17921W        W86326  35.565  37.630   4.097
17922W        W86327   4.691  44.298  13.857
17923W        W86328   5.758  32.333  12.426
17924W        W86329  22.282  41.632  11.278
17925W        W86330  33.661  28.174   3.731
17926W        W86331  34.769  32.443   3.248
17927W        W86332   6.323  11.567   3.192
17928W        W86333  30.043  29.225   3.776
17929W        W86334  23.625  20.007  14.373
17930W        W86335  42.552  15.967  14.812
17931W        W86336  27.463  43.492   3.657
17932W        W86337  14.231  44.426   4.615
17933W        W86338   6.815  43.735  14.953
17934W        W86339  39.878  28.532  14.316
17935W        W86340   8.535  38.180  13.433
17936W        W86341  43.548   6.298  12.988
17937W        W86342  22.325   2.719   3.866
17938W        W86343  33.142  44.277  13.939
17939W        W86344  26.555  10.984   3.680
17940W        W86345  11.180  14.200  12.148
17941W        W86346  13.874  27.420  10.588
17942W        W86347   3.684   0.945   0.677
17943W        W86348  13.549   6.345   0.362
17944W        W86349  28.247  26.020   0.655
17945W        W86350   1.722  33.414   3.693
17946W        W86351  24.049  42.483  13.650
17947W        W86352  21.649   3.332   1.328
17948W        W86353  38.823  44.679  12.444
17949W        W86354  37.433   3.421   1.870
17950W        W86355  42.861  31.353   1.798
17951W        W86356   2.920  27.193   1.654
17952W        W86357  38.167   4.434  12.642
17953W        W86358  16.757  13.327  10.741
17954W        W86359  33.392   1.355   4.264
17955W        W86360  40.421  31.926  14.898
17956W        W86361   2.662  32.799   1.926
17957W        W86362  32.505  34.418   1.974
17958W        W86363  23.486   4.950  14.840
17959W        W86364  10.042  16.307  11.234
17960W        W86365  44.816  23.790  14.339
17961W        W86366  28.158  15.285  13.582
17962W        W86367  34.543  24.727  12.759
17963W        W86368  21.213  35.443  12.523
17964W        W86369  15.099  13.622  11.904
17965W        W86370  31.256  32.884  13.001
17966W        W86371  24.549  18.221   2.919
17967W        W86372   6.896  36.614  12.925
17968W        W86373  39.614   8.298  13.999
17969W        W86374  28.681  37.134   0.799
17970W        W86375  28.629  30.592   2.797
17971W        W86376  11.791  13.265   0.561
17972W        W86377   1.246  34.066  11.730
17973W        W86378  24.432  41.025   1.210
17974W        W86379  39.631  19.240  10.629
17975W        W86380  26.900   0.768   2.170
17976W        W86381  42.385   5.168  12.354
17977W        W86382  20.176  18.800   3.933
17978W        W86383  41.435   7.784  14.481
17979W        W86384  25.960  29.907   2.874
17980W        W86385  37.499  10.623   2.704
17981W        W86386  43.086   7.877  12.542
17982W        W86387   1.950  12.636  13.811
17983W        W86388  31.890  12.568  12.510
17984W        W86389  36.226   9.075  12.089
17985W        W86390  10.290  12.441  11.228
17986W        W86391  15.512   8.303   2.301
17987W        W86392  36.595  37.262  11.741
17988W        W86393  44.411  26.001   4.886
17989W        W86394   7.129  19.743  14.754
17990W        W86395   6.652  22.437   0.455
17991W        W86396  32.650   5.897   0.062
17992W        W86397  44.496  16.603  10.303
17993W        W86398   2.473  44.679   4.491
17994W        W86399   9.398  38.000   0.765
17995W        W86400  13.312  11.572   1.337
17996W        W86401  27.072  43.552  13.962
17997W        W86402  32.499  27.091   0.545
17998W        W86403  27.172   0.164   1.427
17999W        W86404  14.400  41.533  13.590
18000W        W86405   5.839  30.643   4.616
18001W        W86406  34.371   5.182   1.183
18002W        W86407  33.927  34.467   4.080
18003W        W86408  16.780  20.092   4.338
18004W        W86409  37.046  37.309  10.563
18005W        W86410  38.283  19.251   2.174
18006W        W86411  35.491  29.814  11.191
18007W        W86412  41.746  28.681   4.202
18008W        W86413   0.741   8.320  13.099
18009W        W86414   7.368  26.478  12.519
18010W        W86415   3.812  34.747   4.910
18011W        W86416  44.424  27.682   4.091
18012W        W86417  15.247  16.370   2.743
18013W        W86418  23.748  25.407   4.129
18014W        W86419  35.054  22.305  12.816
18015W        W86420  16.210  22.147  12.812
18016W        W86421  33.381  25.835  13.852
18017W        W86422  23.041  36.920   3.690
18018W        W86423   0.961  38.737  12.034
18019W        W86424  10.714   1.857   0.376
18020W        W86425  19.154  10.643  14.760
18021W        W86426   0.164  16.132  13.451
18022W        W86427  38.888  44.375   4.584
18023W        W86428  23.098  12.375   0.003
18024W        W86429  25.927   3.752   1.843
18025W        W86430  27.346   5.066   2.712
18026W        W86431  17.692  42.168   3.449
18027W        W86432  31.015  24.091  12.945
18028W        W86433  25.530  22.523  10.744
18029W        W86434  10.475  22.618  10.713
18030W        W86435  39.015   4.331   2.675
18031W        W86436  16.150  40.479  13.425
18032W        W86437  42.454  13.184   1.430
18033W        W86438  25.504   2.477  13.235
18034W        W86439   8.925  11.585  13.467
18035W        W86440  29.864  42.800   2.744
18036W        W86441   4.313  11.799   3.152
18037W        W86442   2.769   9.814   1.646
18038W        W86443  41.712  20.557  11.573
18039W        W86444   3.010  33.280   4.179
18040W        W86445  44.489  44.340   1.739
18041W        W86446  41.786  34.035  10.899
18042W        W86447  38.920   0.455  11.592
18043W        W86448   7.620  24.692  14.513
18044W        W86449  36.927  42.884  12.817
18045W        W86450  26.301  13.611  12.535
18046W        W86451  19.699  13.108   1.937
18047W        W86452   4.978  32.031   2.167
18048W        W86453  18.776   1.710   3.222
18049W        W86454   0.765   2.363   0.890
18050W        W86455   9.564  10.763   2.300
18051W        W86456   5.983  27.210  11.547
18052W        W86457   1.180   0.843  13.494
18053W        W86458  22.154  35.003  10.931
18054W        W86459  10.362  42.028  14.463
18055W        W86460   4.396  29.184  11.565
18056W        W86461  11.183  17.612   1.875
18057W        W86462  24.524  36.420  11.550
18058W        W86463  42.604   9.424  14.777
18059W        W86464  22.518  23.785   4.072
18060W        W86465  43.838  11.360   2.785
18061W        W86466  29.410  43.044  10.237
18062W        W86467  33.608  31.546  12.912
18063W        W86468  24.125  30.404  14.771
18064W        W86469  37.098  26.583   4.139
18065W        W86470  29.427  38.632  14.328
18066W        W86471  39.076  39.633  12.464
18067W        W86472  24.144   4.938   1.137
18068W        W86473   9.086  38.820   4.564
18069W        W86474  23.201  12.685   1.352
18070W        W86475  22.683  38.200  10.660
18071W        W86476  38.304  18.271  13.812
18072W        W86477   8.938   7.630  11.548
18073W        W86478  11.430  30.685   4.082
18074W        W86479   0.794   7.694   0.916
18075W        W86480   7.781  28.022   0.240
18076W        W86481  32.114  37.553  10.609
18077W        W86482  30.777   4.883  11.547
18078W        W86483  25.414  17.043  14.763
18079W        W86484  25.591  23.996  10.755
18080W        W86485  17.065   1.869   2.425
18081W        W86486  43.499  25.080   2.666
18082W        W86487  18.574  34.566   3.453
18083W        W86488  15.136   3.510  12.521
18084W        W86489   7.362  30.683   2.271
18085W        W86490  40.664  33.580  10.949
18086W        W86491  27.918  11.751   2.395
18087W        W86492  16.748  25.871   3.103
18088W        W86493   4.004  24.217   1.974
18089W        W86494   6.754  39.868  12.521
18090W        W86495   2.000   4.751   5.130
18091W        W86496  16.529  28.100  12.067
18092W        W86497   1.870  22.729   3.539
18093W        W86498  21.046  12.650   4.057
18094W        W86499  39.049  43.510   0.452
18095W        W86500  24.236  25.157   0.009
18096W        W86501  39.427   3.082  12.809
18097W        W86502  18.187  26.664   4.045
18098W        W86503  40.285   0.821  12.118
18099W        W86504  30.068  34.633  12.991
18100W        W86505  28.313   0.677   0.562
18101W        W86506  36.165  25.675  13.315
18102W        W86507  11.406  20.544  13.575
18103W        W86508  34.560   9.879  10.376
18104W        W86509  28.223  19.263   4.538
18105W        W86510  18.334  29.101   2.285
18106W        W86511  44.905   1.303  12.187
18107W        W86512  44.682  17.118  10.277
18108W        W86513  25.127   5.659  13.007
18109W        W86514  42.715  35.038   2.162
18110W        W86515  31.910   4.003  14.292
18111W        W86516  21.238  28.027   1.803
18112W        W86517  17.218  36.008   1.180
18113W        W86518  39.168  31.021  12.914
18114W        W86519  42.132  33.631  11.051
18115W        W86520   0.985  29.033  13.812
18116W        W86521  34.829  26.495   0.445
18117W        W86522   4.850  41.703   3.386
18118W        W86523  41.274  21.107  10.816
18119W        W86524   4.748  32.941  12.877
18120W        W86525  11.712  36.623  11.173
18121W        W86526   3.322  26.955   4.121
18122W        W86527  14.764  38.222  12.678
18123W        W86528  21.049   4.526   2.857
18124W        W86529  11.400   4.678   4.376
18125W        W86530  20.174   8.717   3.844
18126W        W86531  39.835  36.064  10.682
18127W        W86532  18.167  14.726   4.703
18128W        W86533   5.659  35.462   0.767
18129W        W86534  32.348  11.695   1.672
18130W        W86535  14.719  37.856  11.114
18131W        W86536  10.197  32.697   2.738
18132W        W86537  17.083  41.548   3.145
18133W        W86538  28.229  41.988   3.684
18134W        W86539  26.972  31.142   1.461
18135W        W86540  19.483   6.961  13.929
18136W        W86541  36.618  13.175  11.582
18137W        W86542  29.116   5.643   1.217
18138W        W86543  17.546  24.468  10.741
18139W        W86544  43.464  32.058   0.333
18140W        W86545  35.255   5.553   3.219
18141W        W86546   2.270  40.290  12.913
18142W        W86547  38.367   7.983   2.794
18143W        W86548   7.328  39.245  11.271
18144W        W86549  25.117  37.978  14.625
18145W        W86550  35.761  20.150   1.691
18146W        W86551  22.777  42.917  10.674
18147W        W86552  12.228   9.786   2.816
18148W        W86553   4.759   5.374  13.080
18149W        W86554   5.367   4.776   1.418
18150W        W86555  40.186  43.778  12.975
18151W        W86556  32.664   3.972  10.590
18152W        W86557  31.651  21.302   3.642
18153W        W86558   6.660  41.535   0.880
18154W        W86559   1.779   7.634   2.806
18155W        W86560  10.086  24.248   4.264
18156W        W86561  22.302  42.557   1.707
18157W        W86562  16.996  41.436  14.413
18158W        W86563  43.394  21.037  13.576
18159W        W86564  17.599   6.754  12.912
18160W        W86565   1.889  17.579  14.957
18161W        W86566  41.035  41.224   2.191
18162W        W86567  15.526  20.276   2.822
18163W        W86568  18.755  12.135  12.949
18164W        W86569  37.257   8.633  13.074
18165W        W86570  20.853  31.558  14.439
18166W        W86571  25.949  19.537   3.643
18167W        W86572  24.715  43.025   1.385
18168W        W86573  10.951  30.492   4.177
18169W        W86574   7.564  19.193   3.248
18170W        W86575  12.827  15.959  11.600
18171W        W86576  32.478   9.165  10.585
18172W        W86577  37.520  28.270   2.024
18173W        W86578  23.746   3.745  11.569
18174W        W86579  19.671  14.012  10.439
18175W        W86580  34.832  15.641  13.877
18176W        W86581  42.313  18.999  14.537
18177W        W86582  32.624  11.650  10.227
18178W        W86583  17.351  30.932   2.586
18179W        W86584  29.986  27.201  13.027
18180W        W86585  30.483  44.838  13.372
18181W        W86586   7.240   4.032  10.845
18182W        W86587  15.052  14.714  14.340
18183W        W86588  25.193   3.266   4.670
18184W        W86589  16.753  20.255  11.145
18185W        W86590  41.146  29.616   4.730
18186W        W86591   0.474  37.766  14.076
18187W        W86592  36.124  18.294   1.436
18188W        W86593   4.881   4.924   5.213
18189W        W86594   3.903  25.994  13.457
18190W        W86595   5.640  28.464   0.431
18191W        W86596   0.745  13.524   3.525
18192W        W86597   7.466  39.120  12.536
18193W        W86598  14.617  35.337   3.564
18194W        W86599  42.752  17.056  14.465
18195W        W86600  18.358  13.164   2.795
18196W        W86601  30.575  40.275  14.820
18197W        W86602  10.269  10.870   3.633
18198W        W86603  18.980  32.635   3.907
18199W        W86604   2.705   4.549   9.731
18200W        W86605  42.812  28.875  14.694
18201W        W86606  13.847  29.917  13.956
18202W        W86607  31.067  34.070   0.394
18203W        W86608  11.689  17.540  12.831
18204W        W86609  28.007  24.248   3.234
18205W        W86610  42.962  31.517  10.796
18206W        W86611  26.594  22.201   4.714
18207W        W86612  26.905   3.686  10.820
18208W        W86613  23.067  34.485   1.677
18209W        W86614   2.416  13.538   2.244
18210W        W86615  13.194  25.938  14.579
18211W        W86616  12.756  26.498   0.228
18212W        W86617  21.671  43.410   0.774
18213W        W86618   9.198  23.496   0.449
18214W        W86619   7.906  22.534   1.664
18215W        W86620  28.163   2.169  11.707
18216W        W86621  17.006  36.448  11.248
18217W        W86622  20.780  22.021  12.456
18218W        W86623  39.774  25.182   0.157
18219W        W86624  29.448  25.919  11.487
18220W        W86625  25.753   9.198   0.781
18221W        W86626  37.502  14.133  11.528
18222W        W86627  35.965   5.013  11.454
18223W        W86628  17.072   5.771   3.742
18224W        W86629  41.380  18.271   1.529
18225W        W86630  35.119  10.885  10.961
18226W        W86631   9.315  11.431   1.854
18227W        W86632  10.755  32.617   0.367
18228W        W86633  39.218  18.816  12.487
18229W        W86634  12.608  27.963  11.041
18230W        W86635  16.798   1.245  14.835
18231W        W86636  15.246  22.308   3.224
18232W        W86637  12.723   7.158  10.486
18233W        W86638  17.684   8.415   1.671
18234W        W86639  17.217  12.588  11.668
18235W        W86640  13.136  43.068  13.966
18236W        W86641  16.765  31.614  10.909
18237W        W86642  28.207  35.298  12.929
18238W        W86643  10.515  10.271  14.777
18239W        W86644   1.292   9.823   1.448
18240W        W86645   5.923   5.307   2.139
18241W        W86646  41.456  33.926  12.516
18242W        W86647  10.187  22.634  13.408
18243W        W86648  11.572  31.751  10.688
18244W        W86649  12.144  40.332  11.128
18245W        W86650   5.153  12.475  13.252
18246W        W86651  26.996  14.124  14.283
18247W        W86652   8.358  33.888   0.401
18248W        W86653  20.931  32.949   3.711
18249W        W86654   9.629  30.183  11.553
18250W        W86655   5.354  43.644   2.084
18251W        W86656  11.317   2.885   1.798
18252W        W86657  28.450  41.095  12.621
18253W        W86658  30.711  30.747   1.764
18254W        W86659   1.064  39.312  11.206
18255W        W86660  15.180  11.816   3.877
18256W        W86661  37.340  21.014  11.083
18257W        W86662  14.140  25.439  14.394
18258W        W86663  39.043  19.807  12.479
18259W        W86664  10.728  36.895   4.372
18260W        W86665   6.762  23.106  10.691
18261W        W86666  27.451  17.054  13.952
18262W        W86667  10.930  41.256   0.857
18263W        W86668  25.438  41.914  10.742
18264W        W86669  34.500  40.018   0.717
18265W        W86670   8.379  42.432   2.614
18266W        W86671  33.294  14.205  13.919
18267W        W86672  14.113  34.271   5.060
18268W        W86673   4.909  10.954  11.186
18269W        W86674  13.719  21.342   4.621
18270W        W86675  30.607  28.819   3.781
18271W        W86676  10.779  38.389   1.713
18272W        W86677  22.546   3.426   2.796
18273W        W86678  41.941  24.276  12.960
18274W        W86679  31.093  29.525  14.383
18275W        W86680   0.869  44.525  11.594
18276W        W86681  41.020  32.059  13.318
18277W        W86682  34.603  34.481   1.181
18278W        W86683  36.919   7.704  14.153
18279W        W86684  18.884  23.589   2.292
18280W        W86685  22.673  11.801   0.780
18281W        W86686   8.393  32.488   1.247
18282W        W86687  43.863  11.805   1.247
18283W        W86688  11.751  39.362   1.302
18284W        W86689   4.397  21.327  12.948
18285W        W86690   2.221   5.233  11.470
18286W        W86691   8.761  42.247   0.699
18287W        W86692   3.694  30.463  10.951
18288W        W86693   3.755  34.310   1.900
18289W        W86694  44.844  39.276  11.580
18290W        W86695  11.556  19.872   2.590
18291W        W86696  23.668   5.205   1.447
18292W        W86697   5.344   9.182  13.101
18293W        W86698  28.098  26.744  13.036
18294W        W86699  37.082   6.838  12.043
18295W        W86700  40.145  42.041   2.960
18296W        W86701  29.445  35.789  14.757
18297W        W86702  23.045  42.836   0.728
18298W        W86703  15.969   3.296   0.508
18299W        W86704  40.536  32.512   3.663
18300W        W86705   6.874  37.052  10.735
18301W        W86706  11.797  10.749  13.031
18302W        W86707  40.749  29.254  11.395
18303W        W86708  40.050  34.575   3.389
18304W        W86709  25.013  30.366  14.437
18305W        W86710  20.316  22.059  11.644
18306W        W86711  17.763  41.537   4.681
18307W        W86712  11.210   6.608   3.267
18308W        W86713  28.100  42.960  11.529
18309W        W86714  22.397  29.468   2.352
18310W        W86715   9.330  24.620   0.496
18311W        W86716  32.783   5.600   4.009
18312W        W86717   1.249  39.008   3.606
18313W        W86718   5.834  20.158   0.789
18314W        W86719  31.956  19.050   4.933
18315W        W86720  10.274  19.076   2.657
18316W        W86721  15.546  29.162   3.125
18317W        W86722   3.297  11.756  11.084
18318W        W86723  30.048   8.827   2.847
18319W        W86724  37.622  43.840   2.360
18320W        W86725  13.865  17.150   1.852
18321W        W86726  14.126  23.041  11.939
18322W        W86727   5.943  40.600   3.378
18323W        W86728  18.342  31.036   3.714
18324W        W86729  19.978  35.066   4.022
18325W        W86730  10.253   6.861  13.465
18326W        W86731   5.976  43.125   5.161
18327W        W86732  43.526  22.827  11.632
18328W        W86733   8.226  39.294  11.454
18329W        W86734   1.752  30.550   0.067
18330W        W86735  43.934   0.057  11.762
18331W        W86736  25.480  44.500   0.279
18332W        W86737  21.459  36.161  11.827
18333W        W86738  29.397  42.719  14.706
18334W        W86739  19.133  27.403  12.126
18335W        W86740  33.010  32.026   2.383
18336W        W86741  19.725  14.228  11.296
18337W        W86742  20.977  13.190  12.417
18338W        W86743  12.139  20.687   0.786
18339W        W86744  11.102  35.976  13.901
18340W        W86745  36.984   8.755   0.893
18341W        W86746   3.701   8.879  12.411
18342W        W86747  41.275  16.620  11.595
18343W        W86748   3.270  19.610   3.312
18344W        W86749   4.501   0.728  11.985
18345W        W86750  19.504  38.761  11.955
18346W        W86751  23.480  41.025  12.998
18347W        W86752   6.441  21.031   3.773
18348W        W86753  27.211  24.657  13.020
18349W        W86754   4.288   0.478   4.932
18350W        W86755  19.194  15.500  11.631
18351W        W86756   2.808  13.732  13.122
18352W        W86757  15.226  30.630   5.318
18353W        W86758  10.110  23.966  14.481
18354W        W86759   4.938  30.559   3.385
18355W        W86760  38.360  16.932   0.848
18356W        W86761  25.596  22.102  10.453
18357W        W86762  31.175  11.941  12.929
18358W        W86763  35.080  12.325   3.669
18359W        W86764  27.738  40.084   0.526
18360W        W86765  12.405  19.605  13.748
18361W        W86766   2.829  26.228   3.954
18362W        W86767   3.468   3.434   2.237
18363W        W86768  13.870  27.555  12.597
18364W        W86769   5.314  13.591  14.501
18365W        W86770  33.563  12.996  11.213
18366W        W86771  42.493  23.269   3.185
18367W        W86772  16.274  44.941  12.998
18368W        W86773   2.661  13.155   2.760
18369W        W86774  40.857  13.997   4.135
18370W        W86775  33.965  42.731   4.004
18371W        W86776  29.544  22.351  13.883
18372W        W86777  43.556  10.690  12.014
18373W        W86778   6.319  21.311  11.546
18374W        W86779   6.786  12.846  14.912
18375W        W86780  10.741  20.176   2.171
18376W        W86781  31.423   0.110  14.356
18377W        W86782  29.602  26.350   4.484
18378W        W86783   3.783  39.351   1.824
18379W        W86784  10.626  20.397   2.631
18380W        W86785  33.455  35.454   0.225
18381W        W86786  15.187  30.448  10.775
18382W        W86787  44.410  32.917   2.331
18383W        W86788  21.775  26.354   0.302
18384W        W86789  18.010  33.692   0.571
18385W        W86790  27.546   7.729  10.893
18386W        W86791  23.197   9.344  10.668
18387W        W86792  18.526  32.424   0.491
18388W        W86793  39.504  35.497   3.259
18389W        W86794  24.092  42.872  12.662
18390W        W86795  21.737  31.487  14.169
18391W        W86796   8.571  10.663  14.091
18392W        W86797   3.184   4.000   3.604
18393W        W86798   7.881  34.050  14.372
18394W        W86799   1.925  42.022  14.831
18395W        W86800  13.325   1.008  12.063
18396W        W86801  35.619  36.376   2.414
18397W        W86802  39.930  43.005  13.968
18398W        W86803   4.255  41.424  10.691
18399W        W86804  30.289  33.127   0.951
18400W        W86805  24.612  21.176  12.350
18401W        W86806  28.581  37.366  11.975
18402W        W86807  38.929   8.459  13.411
18403W        W86808  32.372   6.642   1.283
18404W        W86809   6.744   2.862   3.612
18405W        W86810  10.400  26.118  13.131
18406W        W86811  34.803   5.945  13.060
18407W        W86812  27.622  36.570   2.272
18408W        W86813   1.731  38.293  10.690
18409W        W86814  27.021  31.811  12.506
18410W        W86815   9.247  27.358  12.392
18411W        W86816   3.186   7.294  13.340
18412W        W86817   3.493  14.134   3.764
18413W        W86818  38.792  22.722   1.027
18414W        W86819  10.797  21.179   2.350
18415W        W86820  12.555   9.390   2.850
18416W        W86821  41.366  17.103   3.310
18417W        W86822  18.599  40.218   0.411
18418W        W86823  41.561  38.477   1.428
18419W        W86824  37.353  21.557  13.356
18420W        W86825   8.888   2.696  11.101
18421W        W86826  14.808  28.845  11.080
18422W        W86827  44.632  38.676  11.147
18423W        W86828   2.239   0.481   1.838
18424W        W86829   5.695  25.461  11.717
18425W        W86830  28.712   7.137   2.163
18426W        W86831  13.442  38.055  11.627
18427W        W86832  37.678   8.189  12.132
18428W        W86833   3.002  28.184   1.211
18429W        W86834  30.186  16.067   4.438
18430W        W86835  35.875   0.005  13.647
18431W        W86836   1.504   9.477  10.666
18432W        W86837  34.815   3.887   0.424
18433W        W86838  26.872  41.667  11.506
18434W        W86839  43.595   5.998  11.199
18435W        W86840  11.123   3.923   0.954
18436W        W86841  42.471  17.637  12.358
18437W        W86842  38.658  35.908  11.470
18438W        W86843  27.972  29.877   3.640
18439W        W86844  36.984  42.277   0.080
18440W        W86845  25.645  18.561  12.574
18441W        W86846  38.492   2.971   0.338
18442W        W86847  28.514  12.444  13.351
18443W        W86848  26.141  28.438  10.745
18444W        W86849  17.737  32.923   2.840
18445W        W86850  38.941   2.964  11.565
18446W        W86851  36.984  42.923  10.516
18447W        W86852  43.259  19.659  12.062
18448W        W86853   9.677  16.067   1.289
18449W        W86854  12.070  24.244   1.747
18450W        W86855  28.742   7.747  10.737
18451W        W86856  41.249  37.067   1.267
18452W        W86857  19.705  44.456   2.701
18453W        W86858  11.461   8.954  12.548
18454W        W86859  43.774  20.088   1.229
18455W        W86860  17.549  31.595   1.407
18456W        W86861  26.588  43.010  14.319
18457W        W86862  41.036  30.290  11.638
18458W        W86863  31.087  32.092   3.882
18459W        W86864  36.794  33.434   4.070
18460W        W86865  11.381  42.001  14.011
18461W        W86866  27.575  17.617  12.161
18462W        W86867   0.461   0.480   1.434
18463W        W86868  18.509  39.993  14.448
18464W        W86869  37.121  31.712   2.136
18465W        W86870   3.459  43.689  14.932
18466W        W86871   5.677  21.146   4.144
18467W        W86872   5.392  25.083  14.892
18468W        W86873  23.474  17.141  14.373
18469W        W86874  27.890  17.782  13.474
18470W        W86875  22.569  14.120  13.859
18471W        W86876   3.709  41.440   0.526
18472W        W86877  13.565   2.990   9.833
18473W        W86878  43.497  31.649   4.033
18474W        W86879   5.605   5.154  10.586
18475W        W86880  36.449   1.739  10.968
18476W        W86881   1.277   3.731   4.715
18477W        W86882   0.875  41.889   2.195
18478W        W86883  17.102   3.048  10.352
18479W        W86884  41.835  28.412   3.360
18480W        W86885   6.282   4.238   3.159
18481W        W86886  41.781  31.429  11.614
18482W        W86887   4.815  27.780   1.285
18483W        W86888  42.826  37.909   3.370
18484W        W86889  12.384  29.673   4.212
18485W        W86890  22.697  28.279  14.250
18486W        W86891  43.401  38.324   4.007
18487W        W86892   7.894  27.591   3.186
18488W        W86893  43.147  25.064   1.703
18489W        W86894   4.470  27.934   0.399
18490W        W86895  41.565  32.497  10.873
18491W        W86896   3.640  21.899  12.956
18492W        W86897  36.638  12.340  12.474
18493W        W86898  38.780  18.077   1.222
18494W        W86899  29.474  15.405   3.795
18495W        W86900  39.080  41.777   3.696
18496W        W86901   4.857  30.168  13.493
18497W        W86902  21.025  17.126   2.242
18498W        W86903  33.968  13.641  11.581
18499W        W86904   9.925   4.163  13.509
18500W        W86905   2.766  30.864   0.927
18501W        W86906  13.626   0.738   2.546
18502W        W86907  15.345  33.699   4.111
18503W        W86908  16.207  33.141  12.404
18504W        W86909  25.957  39.847   4.592
18505W        W86910  15.398  32.979   0.480
18506W        W86911  36.153   2.188  11.165
18507W        W86912   3.553  30.318   4.608
18508W        W86913  25.817  24.629   0.546
18509W        W86914   8.016  37.506   4.727
18510W        W86915  19.537  25.693  14.890
18511W        W86916  19.144  30.902  12.088
18512W        W86917  10.350  42.950  13.826
18513W        W86918  12.270  23.219   1.829
18514W        W86919  17.284  17.187  14.063
18515W        W86920  41.185  22.168   0.604
18516W        W86921  38.375  30.123  14.632
18517W        W86922  10.757   7.580  11.089
18518W        W86923  44.234  11.311  11.140
18519W        W86924  40.353   6.384   4.193
18520W        W86925   7.314  14.428  12.767
18521W        W86926  15.337  37.887  13.438
18522W        W86927  36.071   0.472  13.450
18523W        W86928  28.014  20.527   2.221
18524W        W86929  19.237  24.359   1.944
18525W        W86930  29.082  37.041   0.011
18526W        W86931  23.780   6.383  12.117
18527W        W86932  17.708  14.518  12.892
18528W        W86933   2.776   8.673  12.825
18529W        W86934  33.388  39.127   4.669
18530W        W86935  21.453  32.979   3.803
18531W        W86936  23.867   8.867   4.121
18532W        W86937   5.154  39.594   1.107
18533W        W86938  31.650  33.548  11.682
18534W        W86939   8.453  18.530  11.544
18535W        W86940  17.118   4.815   3.596
18536W        W86941  35.601  36.391  12.105
18537W        W86942  13.700  14.117   4.592
18538W        W86943  36.500  29.836   4.385
18539W        W86944  32.199  16.238  12.996
18540W        W86945  11.117  26.012   4.140
18541W        W86946  18.210   3.699  13.482
18542W        W86947   0.794  21.007   0.372
18543W        W86948  20.700  28.384   1.886
18544W        W86949  30.958  34.521  12.931
18545W        W86950  24.608  28.671  13.861
18546W        W86951  10.599  32.231  11.312
18547W        W86952  36.589   9.104  14.921
18548W        W86953  37.571  19.773   3.145
18549W        W86954  32.521   6.585  13.065
18550W        W86955  31.379  31.987  12.446
18551W        W86956  13.709   5.990   2.726
18552W        W86957  37.877  22.099  10.300
18553W        W86958   2.399   8.286   0.287
18554W        W86959  16.350  16.018  10.616
18555W        W86960  20.101   8.183   0.681
18556W        W86961  40.514  28.930   2.316
18557W        W86962  26.238  25.195  13.457
18558W        W86963  20.201  20.561  13.507
18559W        W86964  32.426  16.720  12.976
18560W        W86965   8.889  19.594  12.438
18561W        W86966  27.366  18.908  10.767
18562W        W86967  14.154   4.947   1.129
18563W        W86968  34.879  11.561   2.771
18564W        W86969   7.729   5.768   2.404
18565W        W86970   7.491  24.500   3.358
18566W        W86971  24.290  42.946  13.769
18567W        W86972   7.407  16.723   0.230
18568W        W86973   9.259  32.017   1.143
18569W        W86974   3.903  18.215  11.735
18570W        W86975   0.838  42.471  11.610
18571W        W86976  38.916  30.721   5.048
18572W        W86977  34.967  23.079  13.509
18573W        W86978  24.653  12.895   2.261
18574W        W86979  34.004  33.495  12.497
18575W        W86980  23.885  28.758   2.132
18576W        W86981  19.302  15.668   4.393
18577W        W86982  30.227  21.150   1.814
18578W        W86983   4.940  15.840  14.901
18579W        W86984  16.809  13.466  13.858
18580W        W86985  31.500  28.680  12.579
18581W        W86986   5.377  12.624   1.828
18582W        W86987  25.444  39.528   1.428
18583W        W86988   7.858  23.086  13.505
18584W        W86989  19.999  32.589  11.603
18585W        W86990  12.276  42.545   2.324
18586W        W86991  21.159  44.235   3.751
18587W        W86992  34.684  25.094   1.420
18588W        W86993  27.953   9.679  11.931
18589W        W86994  36.600  10.819   0.419
18590W        W86995  14.687  37.679   4.689
18591W        W86996  38.726  28.266   5.209
18592W        W86997   4.947  39.576   0.053
18593W        W86998  18.280  13.343  13.444
18594W        W86999  40.957  34.734  11.547
18595W        W87000  40.785  29.026  10.700
18596W        W87001  25.796  25.571   2.842
18597W        W87002  26.195  16.752  11.486
18598W        W87003  17.648  41.621  12.872
18599W        W87004   9.299   5.497   1.879
18600W        W87005  39.384  24.570  12.910
18601W        W87006  32.593   4.768  13.410
18602W        W87007  42.308  37.896   4.794
18603W        W87008  30.846  10.209   5.192
18604W        W87009  16.837   8.645   3.659
18605W        W87010  20.224   7.674  14.498
18606W        W87011  27.502  15.159   0.365
18607W        W87012  42.371   4.231   4.548
18608W        W87013   4.970  16.671   1.338
18609W        W87014  20.133  17.208  14.698
18610W        W87015  22.156  43.552   1.896
18611W        W87016  42.007  35.910   2.840
18612W        W87017  10.294   0.865  10.708
18613W        W87018   1.234  30.284  13.034
18614W        W87019  12.757  30.325  13.905
18615W        W87020  24.917  33.644  11.667
18616W        W87021  33.674  44.911  13.993
18617W        W87022  11.191  15.635   1.943
18618W        W87023  39.886  14.412  11.451
18619W        W87024  27.345  26.524  10.115
18620W        W87025  34.817   1.141  11.584
18621W        W87026  44.089  19.616  12.385
18622W        W87027  28.601  23.030   0.423
18623W        W87028  18.032  35.946   4.143
18624W        W87029  18.750   7.849   2.855
18625W        W87030   9.176   9.652  12.446
18626W        W87031  24.124   8.114   3.579
18627W        W87032  28.493  33.304   4.275
18628W        W87033  11.745  38.959  10.357
18629W        W87034  41.535  18.294  13.999
18630W        W87035   7.756  14.764   3.340
18631W        W87036  17.961  32.430  10.925
18632W        W87037   2.359  40.075   2.334
18633W        W87038   4.233  35.396  11.658
18634W        W87039  24.753  42.323  10.576
18635W        W87040  31.625  32.432  14.926
18636W        W87041   4.850   2.021  12.475
18637W        W87042  31.080  19.690  10.638
18638W        W87043  30.448  31.381   4.292
18639W        W87044  33.334  26.743   1.704
18640W        W87045  19.657  20.215   4.464
18641W        W87046  33.363   8.916  11.453
18642W        W87047  26.080  31.558   4.632
18643W        W87048   7.403  34.975  11.604
18644W        W87049  15.024  31.080   4.623
18645W        W87050  26.684   6.135   2.137
18646W        W87051   1.782  38.867  12.553
18647W        W87052   1.904   0.025   2.883
18648W        W87053  13.331  30.914  10.735
18649W        W87054   3.221  14.562  14.728
18650W        W87055  29.963  33.469  13.810
18651W        W87056  30.682  33.551  14.852
18652W        W87057   3.747  11.882   3.386
18653W        W87058   6.929   8.163   1.266
18654W        W87059   3.820  25.723   2.712
18655W        W87060  42.300  14.990   0.382
18656W        W87061  27.596  15.690  11.189
18657W        W87062  24.375  11.254   3.482
18658W        W87063  38.833  32.887  13.878
18659W        W87064  30.445  18.072  14.605
18660W        W87065  41.767   9.561  12.943
18661W        W87066   3.920  14.061  11.519
18662W        W87067   6.670   7.684   4.602
18663W        W87068  41.669  11.004   0.237
18664W        W87069  31.670  23.189  13.693
18665W        W87070   7.798  31.895  10.079
18666W        W87071   3.868  16.361   3.778
18667W        W87072  27.880  32.263   3.250
18668W        W87073  20.194   9.714   4.021
18669W        W87074  18.077   6.909  12.842
18670W        W87075  21.116   4.777   2.272
18671W        W87076  24.120  31.011  13.703
18672W        W87077  25.096  11.512  10.816
18673W        W87078  17.737   7.146  13.378
18674W        W87079  38.292  41.580  13.487
18675W        W87080   5.102  35.455  12.347
18676W        W87081  44.061  35.580   3.508
18677W        W87082  34.680  23.085  14.059
18678W        W87083   5.214  36.828   3.221
18679W        W87084  42.985  25.977   4.222
18680W        W87085   0.218  43.331  14.980
18681W        W87086   8.866  37.186   0.330
18682W        W87087  35.711  35.906   4.228
18683W        W87088  29.541  10.185  10.025
18684W        W87089   3.258  42.668   3.533
18685W        W87090  11.106  14.359   0.957
18686W        W87091  39.532  40.360   0.865
18687W        W87092  13.410  35.128   1.013
18688W        W87093   6.499   8.553   0.292
18689W        W87094   6.934  33.559  14.452
18690W        W87095  10.255  44.755  14.960
18691W        W87096  33.916  39.252   1.133
18692W        W87097  14.665   8.115  10.479
18693W        W87098   4.703  12.223  10.726
18694W        W87099  23.595  29.630   3.698
18695W        W87100  28.798   8.420   0.993
18696W        W87101  15.120  17.209   3.163
18697W        W87102  33.538   2.509   5.012
18698W        W87103  10.593  14.559   2.967
18699W        W87104  29.025   1.179   5.058
18700W        W87105   4.778  10.522  14.537
18701W        W87106  25.932  32.912   4.613
18702W        W87107  22.466   8.450  14.259
18703W        W87108  16.289   4.781   2.701
18704W        W87109   8.257  17.830   2.577
18705W        W87110  16.855  17.377  13.858
18706W        W87111  24.994  34.949   2.673
18707W        W87112   6.056   9.580  11.632
18708W        W87113  12.198  31.775   0.917
18709W        W87114  34.941  27.355  12.119
18710W        W87115  22.692   4.700  13.943
18711W        W87116  24.224  38.142  13.103
18712W        W87117  32.517   3.484   4.679
18713W        W87118   7.398  12.726   0.766
18714W        W87119  18.580  17.764  11.379
18715W        W87120  19.811  25.119  14.929
18716W        W87121   9.361  27.640   9.932
18717W        W87122  22.609  30.614   0.400
18718W        W87123  21.208  18.831  14.871
18719W        W87124  33.344  40.388  13.903
18720W        W87125   5.425  19.185   4.711
18721W        W87126  17.353   5.266   3.429
18722W        W87127   0.448  12.579   1.512
18723W        W87128   6.843  32.342  13.934
18724W        W87129   4.384  18.582   3.615
18725W        W87130  24.248   7.384   4.214
18726W        W87131   8.137  11.711   2.031
18727W        W87132  22.106  29.455  12.086
18728W        W87133   2.982  29.846  14.393
18729W        W87134  40.387  27.411  11.191
18730W        W87135  26.973  39.417   1.343
18731W        W87136  41.222  11.914   3.245
18732W        W87137  40.137  33.555  10.998
18733W        W87138   3.327  28.731   0.042
18734W        W87139  40.856  21.829   2.695
18735W        W87140  19.029  36.969   4.187
18736W        W87141  43.897  23.996   2.278
18737W        W87142  29.682  11.219   2.308
18738W        W87143  12.013  30.980  10.794
18739W        W87144  37.755  15.802   4.466
18740W        W87145  24.758   0.950  11.970
18741W        W87146  32.112   3.357   0.410
18742W        W87147  26.437  17.655   3.825
18743W        W87148   7.818  28.859  12.196
18744W        W87149  11.836   6.482   4.210
18745W        W87150  35.151   3.270   5.034
18746W        W87151  42.971  20.726   2.705
18747W        W87152  31.055  29.145  13.813
18748W        W87153   6.692  41.607  13.414
18749W        W87154  12.293   1.462  14.021
18750W        W87155  29.647   6.702   3.578
18751W        W87156  39.466  26.326  12.538
18752W        W87157  17.101  12.001   0.718
18753W        W87158  19.667   8.895   4.037
18754W        W87159  10.584   4.734  14.422
18755W        W87160  23.672  27.748  14.387
18756W        W87161   5.442  21.440   3.220
18757W        W87162  32.020   1.822   2.749
18758W        W87163   0.453  44.071   0.330
18759W        W87164  11.663  36.539  13.090
18760W        W87165  23.322  10.249  11.176
18761W        W87166   5.841  24.994  11.924
18762W        W87167  30.167  39.749  12.917
18763W        W87168  22.475   3.935   1.287
18764W        W87169  25.601  13.693   4.068
18765W        W87170  22.646  10.817  12.651
18766W        W87171  23.339  20.107   0.213
18767W        W87172   7.267  41.252  11.570
18768W        W87173  36.588  31.105   1.359
18769W        W87174  42.287   7.473  12.499
18770W        W87175  43.440  20.527   1.904
18771W        W87176  13.102  22.745  11.259
18772W        W87177  39.869   1.516   2.855
18773W        W87178  33.450   0.930  12.470
18774W        W87179  16.218  20.806  12.410
18775W        W87180  40.981  31.749  10.947
18776W        W87181  37.277  28.623   4.594
18777W        W87182  38.358  18.530  11.242
18778W        W87183  23.599  16.148   0.031
18779W        W87184  19.760  34.892   1.446
18780W        W87185  30.882   1.114  10.508
18781W        W87186  25.551  14.196   3.977
18782W        W87187  42.471  39.523   2.628
18783W        W87188  29.206  16.700   3.350
18784W        W87189  34.965  25.582   2.288
18785W        W87190   8.675   3.567   3.886
18786W        W87191  38.840  25.563  10.499
18787W        W87192   2.680  23.751  12.968
18788W        W87193  39.034  33.203  12.168
18789W        W87194   1.225   0.259   4.125
18790W        W87195   7.352  37.072   3.112
18791W        W87196  20.064  23.892   1.564
18792W        W87197  33.533  37.918   1.229
18793W        W87198  11.762  40.328   0.270
18794W        W87199  11.700  16.403  12.358
18795W        W87200   9.773  34.393  11.706
18796W        W87201  21.482   9.903   2.787
18797W        W87202  16.489  43.406  10.354
18798W        W87203  33.091  14.686  13.662
18799W        W87204   3.452  10.201   2.041
18800W        W87205   9.375  20.523   3.754
18801W        W87206  37.297  14.291  13.359
18802W        W87207  30.566  10.806  11.412
18803W        W87208  39.928  17.543   0.763
18804W        W87209   8.456  31.813   4.194
18805W        W87210  38.395   8.511   2.841
18806W        W87211  44.388  35.569   1.228
18807W        W87212  42.100  37.572   4.089
18808W        W87213  17.022  38.769   0.729
18809W        W87214  43.542  23.695  14.978
18810W        W87215  35.645  31.969   2.972
18811W        W87216  21.264  43.883  14.795
18812W        W87217  10.226  17.731   2.761
18813W        W87218  31.273   1.846  10.170
18814W        W87219   7.330   0.856  13.784
18815W        W87220  29.935  35.702   0.850
18816W        W87221  11.070  22.752   1.948
18817W        W87222  40.900  35.091   0.324
18818W        W87223  11.145  35.030  14.138
18819W        W87224  18.638  31.538  10.626
18820W        W87225  16.264  22.925   3.817
18821W        W87226  18.092  10.158  11.627
18822W        W87227  21.614   0.528  11.998
18823W        W87228  16.772   0.081  11.504
18824W        W87229  15.247  38.801   1.849
18825W        W87230  30.766   4.835  12.785
18826W        W87231  35.111  30.354  12.964
18827W        W87232  39.427  41.585  12.940
18828W        W87233  34.781  32.891  10.803
18829W        W87234  22.675   1.793   1.370
18830W        W87235   8.972  32.457  10.644
18831W        W87236  15.255  29.994   2.147
18832W        W87237  10.245  24.030  11.642
18833W        W87238   7.267  10.427   1.304
18834W        W87239  43.371  25.543   2.415
18835W        W87240  28.844  33.667  10.934
18836W        W87241   5.019   8.807   0.316
18837W        W87242  17.081   4.625  13.055
18838W        W87243  35.037  29.943  14.416
18839W        W87244  26.529  23.458  10.604
18840W        W87245   8.476  44.987   3.812
18841W        W87246  36.400  27.258   4.139
18842W        W87247  31.665  28.060   4.861
18843W        W87248  31.648  21.606   4.070
18844W        W87249  34.956  38.394   3.173
18845W        W87250  33.022  32.760  13.011
18846W        W87251   8.347   0.944   1.304
18847W        W87252  14.528   5.635  13.092
18848W        W87253  14.017   1.314   3.219
18849W        W87254  14.296   0.959   1.817
18850W        W87255  39.263   3.298  13.850
18851W        W87256  24.102  13.312   2.765
18852W        W87257  29.865  25.565   1.888
18853W        W87258  24.627  24.017  10.726
18854W        W87259  26.796  18.097  11.869
18855W        W87260  42.252  16.203  13.324
18856W        W87261  29.645  15.332  11.633
18857W        W87262   4.197  21.152   1.349
18858W        W87263  36.680  32.562  12.856
18859W        W87264  28.133  28.183   0.313
18860W        W87265  39.551   5.541   0.388
18861W        W87266  20.016  26.434   2.862
18862W        W87267  33.446   0.437   3.322
18863W        W87268  28.600  34.318   0.299
18864W        W87269  33.651  19.810   3.124
18865W        W87270  31.141  22.530   3.161
18866W        W87271  13.644  14.615   0.259
18867W        W87272  25.266  29.145   0.302
18868W        W87273  17.310   6.880   4.929
18869W        W87274  15.529  42.223  13.774
18870W        W87275  44.929   1.369   4.777
18871W        W87276   8.336   7.061   1.356
18872W        W87277  33.149  42.282   2.661
18873W        W87278  10.869  29.134   2.616
18874W        W87279  43.050  35.103  12.484
18875W        W87280  37.421  41.240  13.345
18876W        W87281   3.848   5.915   2.342
18877W        W87282  13.639   5.809  11.081
18878W        W87283  29.554  33.123  14.265
18879W        W87284   8.129  35.854   2.848
18880W        W87285  21.458   5.744  13.945
18881W        W87286  22.748   5.751   4.287
18882W        W87287  24.015  34.025   4.368
18883W        W87288   2.671  11.702   1.427
18884W        W87289   2.946  21.367   4.215
18885W        W87290  20.697  27.992   0.002
18886W        W87291  37.471  37.066  13.370
18887W        W87292  20.310   9.777  13.917
18888W        W87293  26.289  44.238  13.823
18889W        W87294  28.600  16.012  10.791
18890W        W87295  30.451  44.201   3.106
18891W        W87296  39.632   8.680   1.777
18892W        W87297  41.393   2.743   0.875
18893W        W87298   6.869  20.185   4.374
18894W        W87299  33.594  23.978   4.626
18895W        W87300  18.871  19.209  14.041
18896W        W87301  30.378  41.153  11.336
18897W        W87302   8.545   9.316   3.198
18898W        W87303  35.783  26.971   0.782
18899W        W87304  30.937   6.224  13.946
18900W        W87305   8.464  32.478   4.646
18901W        W87306  33.342  24.691  13.453
18902W        W87307  35.075  42.386  11.553
18903W        W87308  20.004  40.079   2.389
18904W        W87309  23.202   2.876  14.884
18905W        W87310  33.972  18.979  13.956
18906W        W87311  31.909   5.985  11.189
18907W        W87312  10.271  34.137   2.870
18908W        W87313  25.442  19.620  11.608
18909W        W87314  44.403  16.595  13.215
18910W        W87315  21.804  38.414  14.508
18911W        W87316  17.476  39.571  14.913
18912W        W87317  20.910  41.845  13.497
18913W        W87318  37.961  34.054  13.041
18914W        W87319  23.139   4.419   1.668
18915W        W87320  37.952  43.670   4.801
18916W        W87321  43.785  27.979   2.694
18917W        W87322  33.638  17.468  10.705
18918W        W87323   7.560  14.646   4.185
18919W        W87324  23.689  42.960  13.059
18920W        W87325   3.467  20.175  14.920
18921W        W87326  11.587   0.245  12.455
18922W        W87327  17.218   7.283   4.131
18923W        W87328   1.576  14.678  12.351
18924W        W87329   1.042  26.851  10.836
18925W        W87330  36.125   4.649  14.422
18926W        W87331  17.853   5.613   2.178
18927W        W87332  22.076  25.744   2.223
18928W        W87333  40.225  21.168   2.407
18929W        W87334   7.724  16.258  11.222
18930W        W87335   3.772  19.134  14.062
18931W        W87336  17.286  29.459   0.287
18932W        W87337  18.493  20.140   0.791
18933W        W87338  10.899  33.512   4.084
18934W        W87339  34.579  44.927   4.185
18935W        W87340  43.304   0.010  14.559
18936W        W87341  38.412  39.278   4.580
18937W        W87342  33.147  21.283  13.452
18938W        W87343  35.414   2.160   1.303
18939W        W87344  20.668  18.656   3.748
18940W        W87345   5.970  38.936  12.290
18941W        W87346  23.698  10.793  14.590
18942W        W87347  19.225   0.265  10.782
18943W        W87348  35.851   1.343  11.562
18944W        W87349  39.783   2.984  11.724
18945W        W87350  22.637  26.034   4.548
18946W        W87351  10.329  14.307   2.140
18947W        W87352  17.553  31.531  11.623
18948W        W87353  16.753  13.883   1.681
18949W        W87354  24.767  25.507   2.844
18950W        W87355  33.115   0.987  12.870
18951W        W87356  31.163  30.019  11.232
18952W        W87357   3.812   9.414  11.596
18953W        W87358  35.936  21.465   0.777
18954W        W87359   2.528  29.896   0.657
18955W        W87360   7.659  41.524   1.278
18956W        W87361  43.741  44.834   4.597
18957W        W87362  11.167  15.149   2.302
18958W        W87363  31.043  43.648   3.532
18959W        W87364  24.976   0.462  13.497
18960W        W87365  32.042  40.484  10.959
18961W        W87366  26.725  22.564  14.030
18962W        W87367   3.886   4.807   4.963
18963W        W87368   8.867  19.099  11.521
18964W        W87369  19.673  32.466   1.029
18965W        W87370  21.579   7.962   2.706
18966W        W87371  20.490  28.687  14.442
18967W        W87372  24.168  43.858   0.352
18968W        W87373   1.669  16.724   4.100
18969W        W87374  38.564   1.332  11.495
18970W        W87375   8.296   0.693  13.998
18971W        W87376  28.391  22.293  14.805
18972W        W87377  44.173  29.844  11.642
18973W        W87378   0.042  24.530  11.212
18974W        W87379  37.835  28.072  11.598
18975W        W87380   9.350  42.290  14.418
18976W        W87381  37.875   5.776   3.394
18977W        W87382   2.775  26.219   0.785
18978W        W87383   6.975  40.573  13.695
18979W        W87384  19.306  11.184   0.694
18980W        W87385  13.717   0.830  12.356
18981W        W87386  44.693  37.886  12.083
18982W        W87387   1.421  11.126  14.176
18983W        W87388  21.179   7.361  10.398
18984W        W87389   1.191  31.524  13.940
18985W        W87390  42.580  37.425  13.726
18986W        W87391  37.893  31.427  13.931
18987W        W87392   1.849  12.708  12.555
18988W        W87393  40.392  44.198   3.645
18989W        W87394  30.137  34.027   2.814
18990W        W87395   3.268  11.785   3.146
18991W        W87396  12.045  27.597  12.075
18992W        W87397  31.436  28.878  14.052
18993W        W87398  41.418  34.339   2.323
18994W        W87399  21.119   5.798  12.218
18995W        W87400  42.758  27.207   3.342
18996W        W87401  17.128  43.338   1.222
18997W        W87402  17.949  40.534  14.121
18998W        W87403  36.493  31.713  12.107
18999W        W87404  16.743   0.897  11.969
19000W        W87405   7.723  35.534   0.695
19001W        W87406  40.490  25.669   3.896
19002W        W87407  23.444  32.928   0.997
19003W        W87408   9.710   6.770   4.745
19004W        W87409  21.613  28.849   1.495
19005W        W87410  39.022  36.414  14.946
19006W        W87411  20.719   3.666   4.786
19007W        W87412   7.404  13.670  11.013
19008W        W87413  24.132   7.262  13.923
19009W        W87414  27.002  23.057  10.899
19010W        W87415  33.292   9.079  12.391
19011W        W87416  36.980   9.146   4.075
19012W        W87417  23.112  35.615   3.918
19013W        W87418  27.033   4.279   1.416
19014W        W87419  14.698  38.079  10.651
19015W        W87420  41.370  23.126   3.366
19016W        W87421  26.495  35.890   0.321
19017W        W87422  27.439   1.331  10.704
19018W        W87423  33.108  18.858  13.577
19019W        W87424  10.601  17.279   1.142
19020W        W87425   1.701  35.978   3.585
19021W        W87426  34.397  29.115  14.754
19022W        W87427  37.766  42.772   4.467
19023W        W87428  43.999   4.261   4.182
19024W        W87429  30.508   6.647  12.423
19025W        W87430  22.150  41.046   1.954
19026W        W87431  27.491  39.606   3.226
19027W        W87432   2.341  43.893   0.559
19028W        W87433  22.648  24.717   1.861
19029W        W87434  30.574  44.405   3.570
19030W        W87435  39.435  36.482  11.850
19031W        W87436  17.148  37.354  12.447
19032W        W87437  32.366   5.349   1.202
19033W        W87438   9.032  39.427   2.793
19034W        W87439  40.074  40.374   3.705
19035W        W87440  16.031   7.913   3.398
19036W        W87441  28.652  18.094   4.096
19037W        W87442  30.219  23.748   4.175
19038W        W87443  11.720   4.219  10.994
19039W        W87444   3.653  22.112  13.460
19040W        W87445  37.349  16.718  12.876
19041W        W87446  32.734  35.545   0.715
19042W        W87447  38.171  16.286   4.853
19043W        W87448  17.141   1.840  11.087
19044W        W87449  20.925   1.783  14.607
19045W        W87450   4.767  14.942   2.137
19046W        W87451  24.999  32.506  13.496
19047W        W87452  17.620  31.762   3.108
19048W        W87453   2.816  19.482  14.256
19049W        W87454   6.162   5.485  13.077
19050W        W87455   9.083  41.997  11.187
19051W        W87456  40.281  25.360   3.154
19052W        W87457  15.777  13.728  12.570
19053W        W87458  25.141  15.524   2.253
19054W        W87459  27.476   7.502   3.767
19055W        W87460  35.055  36.288  13.538
19056W        W87461   8.118  23.212  13.971
19057W        W87462   2.149   3.831   0.722
19058W        W87463  31.550  37.927  13.573
19059W        W87464  18.728  38.019   4.087
19060W        W87465   8.176   8.888   0.025
19061W        W87466  30.361  31.590  10.656
19062W        W87467  12.712   4.862  12.390
19063W        W87468  20.135  20.886  11.653
19064W        W87469   4.698  34.049  10.671
19065W        W87470  31.664  34.443   0.877
19066W        W87471   4.035  44.511  12.934
19067W        W87472  10.817  44.769   1.193
19068W        W87473   5.359  17.323   3.250
19069W        W87474  35.014  20.990  12.556
19070W        W87475   9.313  33.707  12.049
19071W        W87476  27.010  34.505   0.976
19072W        W87477   7.356  36.003   0.807
19073W        W87478  27.639  25.021  13.047
19074W        W87479   2.925   9.213   3.867
19075W        W87480  13.072   0.738   3.786
19076W        W87481  19.213  29.306   2.211
19077W        W87482  29.225  16.729  11.127
19078W        W87483  23.703  43.946  13.476
19079W        W87484   1.435  10.407   3.689
19080W        W87485  17.087  41.965  14.494
19081W        W87486  10.203  12.025   0.376
19082W        W87487  13.864  38.332   1.864
19083W        W87488   9.788  33.082   4.753
19084W        W87489  26.224   5.933   2.298
19085W        W87490  39.621  26.029   1.506
19086W        W87491  31.780   0.841  12.014
19087W        W87492   2.419  15.775   3.674
19088W        W87493  43.320   7.368  12.624
19089W        W87494  42.306  29.455   0.919
19090W        W87495  29.879  26.719  13.760
19091W        W87496  36.914   6.063   0.831
19092W        W87497  36.066  24.494   1.997
19093W        W87498  23.738  22.934  10.712
19094W        W87499  42.910  12.250  12.577
19095W        W87500  41.921   9.140  13.670
19096W        W87501  31.460  18.295  11.508
19097W        W87502  25.242  30.667   0.524
19098W        W87503  32.880  22.511  10.234
19099W        W87504  22.713  44.938   1.734
19100W        W87505  40.385  16.455   4.219
19101W        W87506  20.303  43.412   0.525
19102W        W87507   7.527   1.778   9.960
19103W        W87508  32.718  29.140  11.525
19104W        W87509   1.347  42.550   2.820
19105W        W87510  36.166  32.497   2.206
19106W        W87511  25.567  12.161   0.538
19107W        W87512  11.292  20.475   0.476
19108W        W87513  38.826   0.908  13.699
19109W        W87514   4.643   1.229   1.359
19110W        W87515  10.437   6.240  13.297
19111W        W87516  18.812  12.603   0.475
19112W        W87517   6.835  10.293  14.621
19113W        W87518  31.520  39.270  13.683
19114W        W87519  23.028  18.655   3.446
19115W        W87520  35.071  41.872  14.924
19116W        W87521  31.346   1.430   1.314
19117W        W87522   9.915  19.947  11.562
19118W        W87523  44.224   8.588   4.566
19119W        W87524  15.098   4.356  10.928
19120W        W87525  23.639  14.711   4.350
19121W        W87526  29.180   3.914   0.508
19122W        W87527  44.496  10.078   2.713
19123W        W87528  23.432   1.811  14.077
19124W        W87529  26.525  12.801  11.831
19125W        W87530  16.462  35.555   2.066
19126W        W87531  42.754  28.079   0.453
19127W        W87532   8.435   5.866   3.596
19128W        W87533  10.599  21.658  13.422
19129W        W87534  26.402  17.175   3.656
19130W        W87535  15.292  25.029  13.478
19131W        W87536   2.419   4.171   2.631
19132W        W87537   5.269  40.754  11.153
19133W        W87538  15.917  35.754   2.286
19134W        W87539  18.501  17.053   2.531
19135W        W87540  34.591  31.170   4.108
19136W        W87541  15.628   5.423  14.507
19137W        W87542  20.260  42.456   0.302
19138W        W87543  19.307   1.629  12.853
19139W        W87544  40.933  26.512   2.372
19140W        W87545  11.268  42.314  11.126
19141W        W87546   2.875  30.183   3.806
19142W        W87547  36.349   9.383  13.407
19143W        W87548  10.753  38.604  12.308
19144W        W87549  41.329   8.072  11.452
19145W        W87550   7.335  37.514   1.888
19146W        W87551  22.777  16.022  11.031
19147W        W87552  41.378   1.187   0.940
19148W        W87553  25.273  28.936   4.811
19149W        W87554   8.815   8.722  11.437
19150W        W87555   5.501  36.873   3.837
19151W        W87556   7.336  19.597   1.167
19152W        W87557  38.991  32.864   1.795
19153W        W87558  37.939  21.554   0.497
19154W        W87559   1.681  12.289   1.933
19155W        W87560  36.925  30.547  14.497
19156W        W87561  33.371  29.985   0.938
19157W        W87562  12.195  28.665   0.395
19158W        W87563  44.764   7.324  13.902
19159W        W87564   6.365  18.668   3.794
19160W        W87565   7.389  24.464  13.094
19161W        W87566  24.931  19.729  12.541
19162W        W87567  30.575   6.456  11.041
19163W        W87568   4.366  24.032  14.907
19164W        W87569  30.996  26.134   1.217
19165W        W87570   9.992  38.526  14.727
19166W        W87571   4.863  44.948  11.453
19167W        W87572  24.086  40.381   0.863
19168W        W87573  10.957  41.837  11.485
19169W        W87574  21.267   9.848   2.321
19170W        W87575  32.236  13.512   2.806
19171W        W87576  24.347  17.120  14.801
19172W        W87577  12.075  32.639  14.382
19173W        W87578   7.347  40.945  12.014
19174W        W87579  20.055  36.156   2.508
19175W        W87580   7.180  32.501  14.934
19176W        W87581  27.004  18.077   0.672
19177W        W87582   2.312  41.432   4.222
19178W        W87583   9.650  42.665  14.242
19179W        W87584  25.609  32.444   2.177
19180W        W87585   6.395   9.711  11.264
19181W        W87586  42.443  11.252  14.485
19182W        W87587  22.574  24.991   4.577
19183W        W87588  36.329  25.947   1.765
19184W        W87589  19.888  16.473   0.813
19185W        W87590  26.525  12.289  12.152
19186W        W87591  35.342  23.434   1.479
19187W        W87592  29.405   9.692   3.154
19188W        W87593  13.054  17.697  12.961
19189W        W87594  22.718   5.640   1.811
19190W        W87595  26.026   5.847  10.502
19191W        W87596  34.345  29.143   2.258
19192W        W87597   8.427  17.783   0.012
19193W        W87598  17.297   4.214  12.409
19194W        W87599  17.787   2.336  12.572
19195W        W87600   9.317   6.343  14.193
19196W        W87601  14.525  21.603   2.157
19197W        W87602  26.237  28.584   2.786
19198W        W87603  11.318  29.172  10.945
19199W        W87604  15.091  14.153   3.652
19200W        W87605  25.728  41.537  11.606
19201W        W87606  30.547  43.895  11.130
19202W        W87607  32.551  25.616  13.960
19203W        W87608  33.517  13.318  10.734
19204W        W87609  22.322  43.833   3.201
19205W        W87610  13.870  36.353   1.448
19206W        W87611   9.648  12.655  12.863
19207W        W87612  30.251  13.111   0.322
19208W        W87613  35.287  39.629   0.594
19209W        W87614  34.377  29.172   0.296
19210W        W87615  20.061   6.208  13.946
19211W        W87616   2.378  21.576   3.266
19212W        W87617  31.026  40.981   0.368
19213W        W87618  15.024  40.261   1.499
19214W        W87619  15.324  40.881  12.322
19215W        W87620  23.059  29.882  14.832
19216W        W87621  25.707   6.477  14.835
19217W        W87622  24.712  25.361   0.021
19218W        W87623  18.223  22.987   1.091
19219W        W87624  10.301  25.939   2.645
19220W        W87625  30.810  24.929   1.657
19221W        W87626  26.512  31.438   1.346
19222W        W87627   6.959  42.723  14.363
19223W        W87628   2.265  23.135  14.766
19224W        W87629   4.177  22.046  13.397
19225W        W87630   0.143   5.345   4.980
19226W        W87631  32.082  12.206  12.152
19227W        W87632  44.523   9.127   2.818
19228W        W87633  25.002  14.892   1.366
19229W        W87634  18.676   4.423  12.296
19230W        W87635  24.219  37.100  11.073
19231W        W87636   1.970   9.859  13.712
19232W        W87637  31.626  13.656  13.351
19233W        W87638   4.015  20.084   3.292
19234W        W87639   2.239  33.038   0.865
19235W        W87640  20.560   5.833  13.281
19236W        W87641  21.230  19.833   0.890
19237W        W87642  44.074   2.693   1.542
19238W        W87643  43.785  11.181   0.004
19239W        W87644   3.912   4.106   2.062
19240W        W87645  26.139  29.937  11.968
19241W        W87646  28.445  34.020  10.640
19242W        W87647  18.087   8.159  13.203
19243W        W87648  33.490   5.137  14.417
19244W        W87649  20.967   8.655   1.744
19245W        W87650  11.264   8.309   1.764
19246W        W87651  31.851  30.983   3.229
19247W        W87652  37.166   8.812   2.402
19248W        W87653  17.267  13.325  10.966
19249W        W87654  28.147  11.696   1.938
19250W        W87655   3.836  44.013   3.907
19251W        W87656   5.218  12.055   0.920
19252W        W87657  34.547   4.456   3.542
19253W        W87658  22.417  38.964  12.617
19254W        W87659  43.992  37.812  13.583
19255W        W87660   0.004  23.543   0.015
19256W        W87661  20.042  21.688   3.727
19257W        W87662  13.656  27.671  13.052
19258W        W87663  32.100  18.143   3.698
19259W        W87664  16.691  20.861   0.153
19260W        W87665   4.496   6.210  10.065
19261W        W87666  24.617  28.359  13.019
19262W        W87667  21.958  33.133  11.069
19263W        W87668  22.702  18.631   2.132
19264W        W87669  39.592  10.399  12.384
19265W        W87670  36.049  13.670  13.456
19266W        W87671  18.181  19.197   3.175
19267W        W87672  25.042  28.274   1.372
19268W        W87673  42.022  31.007   4.085
19269W        W87674  36.569  28.790  13.575
19270W        W87675  36.318   0.006   1.312
19271W        W87676  14.874  30.333  12.518
19272W        W87677  31.488  38.865  13.323
19273W        W87678  19.325   3.863  11.070
19274W        W87679   0.948  41.791  11.529
19275W        W87680  35.994  20.656  12.567
19276W        W87681  11.672   9.609   0.302
19277W        W87682  21.402   3.885  14.946
19278W        W87683  28.939  39.543   1.362
19279W        W87684  37.646  25.091   2.582
19280W        W87685   1.044  28.161   1.390
19281W        W87686  15.370  40.247   2.947
19282W        W87687   4.903  19.822  12.621
19283W        W87688   2.537  14.171  10.711
19284W        W87689  24.900  32.820  13.889
19285W        W87690  21.108  16.608   1.795
19286W        W87691  12.155   7.316   1.663
19287W        W87692  29.020  19.325   0.877
19288W        W87693  14.203  39.079   4.597
19289W        W87694  42.273  40.025  13.873
19290W        W87695  42.287  14.692  11.130
19291W        W87696  22.507  23.107  12.111
19292W        W87697  17.135  22.525   1.837
19293W        W87698  42.799  17.210   1.427
19294W        W87699  25.083   0.975   4.228
19295W        W87700  16.623  22.967  12.945
19296W        W87701  13.294  10.834   2.650
19297W        W87702   7.531  24.731   4.315
19298W        W87703   5.236  16.334  10.590
19299W        W87704  29.476  25.267  13.354
19300W        W87705  22.294   2.712   4.404
19301W        W87706  20.447  37.512  13.269
19302W        W87707  20.806  15.674   3.258
19303W        W87708   8.891  39.889   2.987
19304W        W87709   4.854  32.574  10.595
19305W        W87710  30.323  41.459  12.452
19306W        W87711  25.176   7.225   1.900
19307W        W87712   0.836  10.154  12.347
19308W        W87713   0.023   3.021  13.346
19309W        W87714  20.632  34.381  13.119
19310W        W87715  26.570  32.075  12.554
19311W        W87716  10.021  28.660  14.225
19312W        W87717   4.188  41.936  12.471
19313W        W87718  10.709  26.086  12.368
19314W        W87719  25.620  31.935   3.039
19315W        W87720  26.950   6.602   4.866
19316W        W87721  15.282  43.727  12.563
19317W        W87722   8.196  33.212  11.196
19318W        W87723  31.577  38.502   4.672
19319W        W87724  20.593  39.407  12.577
19320W        W87725  30.115   1.458  11.092
19321W        W87726  39.089   7.741   4.569
19322W        W87727  33.029  24.702  13.003
19323W        W87728  20.656  36.513   3.811
19324W        W87729   1.232  44.408   3.546
19325W        W87730  15.994   3.786  12.817
19326W        W87731  22.726   7.442  14.398
19327W        W87732  14.737  29.554   3.796
19328W        W87733  24.960   8.862   0.934
19329W        W87734  34.531   1.887  13.488
19330W        W87735  12.212   0.632  12.902
19331W        W87736  27.017   3.452  14.363
19332W        W87737  40.258   5.520  14.210
19333W        W87738   9.707  22.546   3.732
19334W        W87739   2.723  33.507   3.694
19335W        W87740  42.677  39.090   5.040
19336W        W87741  16.880  34.417  11.803
19337W        W87742  40.842  34.435  14.276
19338W        W87743  33.109  21.769  10.382
19339W        W87744   2.250  14.367   1.774
19340W        W87745   9.456  35.004  14.674
19341W        W87746  22.090   7.358  13.070
19342W        W87747  21.657  44.411   2.198
19343W        W87748   7.423  24.538  12.569
19344W        W87749  22.278  26.499  13.817
19345W        W87750  25.629  35.623   1.207
19346W        W87751  43.717  35.111   2.301
19347W        W87752  25.468   3.694   4.995
19348W        W87753  43.869   1.670   3.120
19349W        W87754   4.779   5.475   3.693
19350W        W87755  11.690   8.107  10.622
19351W        W87756  18.505  20.154   1.719
19352W        W87757  20.582  40.328   4.587
19353W        W87758  13.924  23.277   0.389
19354W        W87759  41.025  38.593  12.025
19355W        W87760  20.017  25.618   2.441
19356W        W87761  39.970   2.244   1.420
19357W        W87762   3.288  23.467   0.315
19358W        W87763  38.891  36.975   3.667
19359W        W87764  43.952  25.434   3.262
19360W        W87765  19.881  23.629   2.492
19361W        W87766  43.906  34.494   4.547
19362W        W87767  10.193   3.929  13.921
19363W        W87768  43.799  43.070  10.459
19364W        W87769   3.357  44.930   0.313
19365W        W87770  32.095  39.868   2.271
19366W        W87771  13.156   6.351   4.641
19367W        W87772  26.101  12.719   3.333
19368W        W87773  26.647  34.841   4.026
19369W        W87774  23.956  18.364  13.968
19370W        W87775  40.215  18.214  11.015
19371W        W87776  37.535  17.564  14.439
19372W        W87777  12.347  22.328  14.963
19373W        W87778  16.562  11.893   2.255
19374W        W87779  10.612  17.738  11.507
19375W        W87780  39.550   9.358   4.894
19376W        W87781  19.198   6.451  12.892
19377W        W87782  23.102  10.641   2.322
19378W        W87783   2.870  44.294   3.264
19379W        W87784   9.777  13.158   3.578
19380W        W87785   0.312  14.100  14.282
19381W        W87786  35.052   1.318   2.203
19382W        W87787  15.539  43.381  14.418
19383W        W87788   3.721  38.526   0.347
19384W        W87789   9.425  28.198  11.622
19385W        W87790   6.804  25.690   2.777
19386W        W87791  33.977  10.730  10.285
19387W        W87792  29.176  17.124   3.615
19388W        W87793  14.339  43.994   4.311
19389W        W87794  39.978  44.991  12.514
19390W        W87795   0.971  11.066   3.863
19391W        W87796  11.663  28.157   4.167
19392W        W87797  29.377  25.395  11.486
19393W        W87798   3.161   1.852  13.400
19394W        W87799  40.652  39.932   0.914
19395W        W87800  30.643   3.296  11.071
19396W        W87801   3.520  11.410   2.873
19397W        W87802  39.605  26.583  14.853
19398W        W87803  43.887  14.680  12.148
19399W        W87804  42.502  31.553   1.473
19400W        W87805  36.799  22.068   1.691
19401W        W87806  24.948  32.623   0.660
19402W        W87807  15.339  20.460  11.948
19403W        W87808   6.472  25.087   4.167
19404W        W87809   0.409  15.371  10.654
19405W        W87810   0.998   2.801  14.301
19406W        W87811  26.784  31.930  10.869
19407W        W87812  43.918  12.137   1.651
19408W        W87813  27.171  16.099   1.729
19409W        W87814  21.614  21.298  13.980
19410W        W87815  42.937  44.171  11.457
19411W        W87816  31.149  14.488  10.625
19412W        W87817  17.781  30.101   0.039
19413W        W87818   9.256  39.527   1.957
19414W        W87819  17.056  44.288   2.762
19415W        W87820  16.233  39.561   3.379
19416W        W87821  10.394  22.074  14.302
19417W        W87822  23.973  11.354   1.847
19418W        W87823  11.101  17.313  12.880
19419W        W87824  31.117  14.803  11.916
19420W        W87825   4.611  22.158   3.671
19421W        W87826   8.705  27.722  11.099
19422W        W87827   0.818   0.476  13.373
19423W        W87828  35.029  41.617  12.094
19424W        W87829   7.382  28.622  14.398
19425W        W87830  32.899  40.855   4.633
19426W        W87831  25.722  28.035   4.720
19427W        W87832  12.334  12.578  14.190
19428W        W87833   8.872  41.762  13.075
19429W        W87834  22.137   5.889   4.969
19430W        W87835   3.913   3.438   0.729
19431W        W87836   8.644  44.234   1.972
19432W        W87837  22.595  28.971  10.724
19433W        W87838  19.323  39.758  11.104
19434W        W87839  41.792  44.745  11.802
19435W        W87840  28.943  26.152  12.910
19436W        W87841  44.261  44.752   4.666
19437W        W87842  27.521   8.251  13.530
19438W        W87843  26.442  24.966  10.731
19439W        W87844  29.201  32.460  11.666
19440W        W87845   9.696  17.318  13.266
19441W        W87846   5.841  42.955  12.954
19442W        W87847  33.979  37.012  12.635
19443W        W87848  22.968  16.648   4.591
19444W        W87849  10.676   4.976   4.634
19445W        W87850  13.126  11.776   2.808
19446W        W87851  40.528  14.075   3.731
19447W        W87852   9.249   0.400   4.662
19448W        W87853  24.452  30.039   2.121
19449W        W87854  27.229  41.092  12.971
19450W        W87855  18.866  30.151   3.794
19451W        W87856  42.400  32.628  14.743
19452W        W87857  37.885  34.435  11.542
19453W        W87858  14.110  21.837  11.057
19454W        W87859   5.883  32.192   0.998
19455W        W87860  37.092  12.064   3.741
19456W        W87861  17.292  33.020   0.924
19457W        W87862  41.653  23.523  14.942
19458W        W87863  30.638  17.757   2.366
19459W        W87864  12.387  44.409  13.896
19460W        W87865   5.750  29.701   0.861
19461W        W87866  39.920   5.159   0.488
19462W        W87867  29.682   0.047  13.611
19463W        W87868  13.837   6.410   2.168
19464W        W87869  12.723  38.793   1.271
19465W        W87870  32.645  16.591  14.378
19466W        W87871   3.939  26.034  11.653
19467W        W87872  37.643  34.758  14.302
19468W        W87873   8.677  12.227   0.767
19469W        W87874  23.207  12.900   0.878
19470W        W87875   0.541  41.402  13.050
19471W        W87876  34.144   9.592  11.052
19472W        W87877  10.241  23.821  11.153
19473W        W87878  40.562  44.040  13.286
19474W        W87879  25.169  26.555  12.899
19475W        W87880  18.872  27.169   3.743
19476W        W87881  31.627  38.298  11.887
19477W        W87882  29.558  23.506   3.329
19478W        W87883  33.890   1.360   4.099
19479W        W87884  16.829   9.189   3.701
19480W        W87885   5.937  12.637  11.973
19481W        W87886  33.771  25.684   2.231
19482W        W87887  32.669   8.966  11.018
19483W        W87888  40.379  41.183   4.690
19484W        W87889  30.904  20.004  13.370
19485W        W87890   6.224  23.203  12.351
19486W        W87891  36.847  12.998   2.184
19487W        W87892  24.610  36.964  11.421
19488W        W87893  10.878  29.612   4.280
19489W        W87894  31.044   7.270  13.359
19490W        W87895  10.283  34.832  13.565
19491W        W87896  39.589  12.237  13.020
19492W        W87897  40.288   0.980  13.602
19493W        W87898  30.610  26.703  13.655
19494W        W87899  15.732  22.996   0.140
19495W        W87900  42.590  16.206  13.776
19496W        W87901  10.924  31.614   0.346
19497W        W87902  27.532  17.766   3.275
19498W        W87903  39.440  15.364  12.507
19499W        W87904   9.101  35.091  12.122
19500W        W87905  13.311  34.905  11.680
19501W        W87906  12.630  38.372   0.948
19502W        W87907  40.286  37.571  14.048
19503W        W87908  27.939  18.294   0.761
19504W        W87909  17.074  11.889   1.241
19505W        W87910  33.331  16.365   4.660
19506W        W87911  13.475  43.744  11.979
19507W        W87912  13.632  38.215  12.148
19508W        W87913   3.475   4.017  14.574
19509W        W87914  29.201  43.952   1.766
19510W        W87915  40.003  23.686  13.034
19511W        W87916   9.925  40.868  14.385
19512W        W87917   6.866  13.593  14.209
19513W        W87918  37.066   6.169   3.316
19514W        W87919  35.896  33.417   0.425
19515W        W87920   8.441   6.100  11.960
19516W        W87921   5.294  25.351   3.432
19517W        W87922   7.412  22.089  14.342
19518W        W87923  18.080   1.447   2.590
19519W        W87924  24.921  25.418   4.318
19520W        W87925  13.178  16.105  14.764
19521W        W87926  27.255  10.059  13.604
19522W        W87927  17.832  43.358  12.110
19523W        W87928  39.423  15.551   0.513
19524W        W87929  18.238  42.311   0.699
19525W        W87930  19.303  16.150   4.624
19526W        W87931  13.227  11.278  10.613
19527W        W87932  37.481   6.235  13.059
19528W        W87933  36.253  19.842  10.403
19529W        W87934  23.203   5.431  12.025
19530W        W87935  20.763  43.435  11.184
19531W        W87936  12.528   0.860   0.929
19532W        W87937  29.523  20.623  13.178
19533W        W87938  18.174  26.864  11.809
19534W        W87939  32.030  19.311  13.982
19535W        W87940  32.491  18.768  12.364
19536W        W87941  26.484  43.825  12.037
19537W        W87942   6.948  30.511  13.638
19538W        W87943  13.105  38.477   2.345
19539W        W87944  17.501  19.913  12.981
19540W        W87945  41.342  42.185  12.443
19541W        W87946  34.377   6.198   2.563
19542W        W87947  39.640  19.078  14.262
19543W        W87948  34.819   5.760  11.242
19544W        W87949  39.639  25.643   0.348
19545W        W87950  17.299   3.706  12.402
19546W        W87951   0.522  36.382  13.906
19547W        W87952  26.470   3.764   3.744
19548W        W87953   3.299  24.201  11.946
19549W        W87954  42.957   1.688  11.571
19550W        W87955  14.518  37.384  11.151
19551W        W87956   2.329   2.066  11.483
19552W        W87957  21.307  31.903  11.698
19553W        W87958  44.436  35.100   3.233
19554W        W87959  23.184  10.665   1.813
19555W        W87960  38.869  21.190  11.962
19556W        W87961  30.367  14.258   2.806
19557W        W87962  10.470  43.858  13.557
19558W        W87963   1.356  31.054  10.661
19559W        W87964  29.924  19.834  14.426
19560W        W87965   0.205  14.316  12.009
19561W        W87966  24.132  21.072  12.204
19562W        W87967  21.304  38.417   3.380
19563W        W87968   7.969   6.001  12.133
19564W        W87969  15.317  39.242  11.932
19565W        W87970   1.369   6.622   2.620
19566W        W87971  13.321   3.746   4.293
19567W        W87972  19.711  13.197  13.061
19568W        W87973   5.446  25.574  13.040
19569W        W87974  38.216  28.879  14.024
19570W        W87975  26.998  26.494  12.111
19571W        W87976   4.992   6.323   0.990
19572W        W87977   5.146  26.227   0.702
19573W        W87978  31.429  41.775   0.542
19574W        W87979   1.292  23.019   4.678
19575W        W87980   5.196  29.048  11.098
19576W        W87981  26.213  15.842  11.120
19577W        W87982   6.012  20.605   3.325
19578W        W87983  30.442   0.205   3.303
19579W        W87984  32.791  21.334   0.668
19580W        W87985  35.425  44.470  14.292
19581W        W87986  33.683  10.818   0.973
19582W        W87987  31.209   6.882  13.047
19583W        W87988   9.391  11.592  12.463
19584W        W87989  24.136  27.056   3.918
19585W        W87990  39.150   8.528   4.201
19586W        W87991  12.359   0.879  13.324
19587W        W87992   5.954  10.273   4.460
19588W        W87993  13.339   5.414  12.024
19589W        W87994  41.150  12.260   2.810
19590W        W87995  25.625   4.118   4.169
19591W        W87996  13.761  22.556  14.954
19592W        W87997  41.128   4.884   3.183
19593W        W87998  35.716   0.077   3.200
19594W        W87999  44.243  42.098   3.128
19595W        W88000  40.485   4.277   1.980
19596W        W88001  14.999   5.892  11.925
19597W        W88002  16.800  39.274   1.698
19598W        W88003  20.359  26.044   0.234
19599W        W88004   8.174  20.080  14.349
19600W        W88005  19.490  19.060   0.372
19601W        W88006  31.946  40.318  12.005
19602W        W88007  30.055  27.115  11.448
19603W        W88008  28.877  33.591  13.092
19604W        W88009   1.254  42.995   4.426
19605W        W88010  24.473  37.310  13.393
19606W        W88011  38.587  26.499  11.542
19607W        W88012  28.709  23.279  14.119
19608W        W88013   5.693  11.593   1.748
19609W        W88014  40.586  17.667  12.592
19610W        W88015  10.957  29.534  14.134
19611W        W88016  15.046  29.063   3.204
19612W        W88017  29.981  39.525  12.412
19613W        W88018  26.181  19.949  11.443
19614W        W88019  23.282  27.096   2.218
19615W        W88020  17.188  12.733  13.521
19616W        W88021  28.559   1.478  11.187
19617W        W88022  19.303  40.792  11.142
19618W        W88023  13.954  21.721  13.977
19619W        W88024  37.948   4.378  12.152
19620W        W88025  30.824  31.990   1.938
19621W        W88026   0.952  31.909   2.704
19622W        W88027  43.569  12.834   2.823
19623W        W88028  30.427  19.029   2.730
19624W        W88029  31.210  40.007   0.314
19625W        W88030  11.114  42.601   2.428
19626W        W88031  36.588  18.109  11.773
19627W        W88032  36.622  33.305   1.807
19628W        W88033   7.189  27.726   4.216
19629W        W88034   1.861  30.451   2.358
19630W        W88035  22.639  33.384  12.897
19631W        W88036  11.848  20.206  12.566
19632W        W88037  39.813  12.118  14.335
19633W        W88038  32.419  42.736  12.438
19634W        W88039  39.583  26.930   2.203
19635W        W88040  23.621  35.054  13.428
19636W        W88041  21.671   3.349  13.009
19637W        W88042  35.025   1.499   3.256
19638W        W88043  18.469   8.771   2.457
19639W        W88044   4.711  17.572   3.708
19640W        W88045  21.176  28.532  13.436
19641W        W88046  44.437   9.904   3.203
19642W        W88047  43.982  21.893  13.472
19643W        W88048  12.793   2.410  13.977
19644W        W88049  34.504   5.390  10.621
19645W        W88050  15.584   0.041  12.278
19646W        W88051  40.529  12.334  14.760
19647W        W88052   3.482  15.136   4.696
19648W        W88053  31.691  22.205   1.813
19649W        W88054  31.648  41.999   4.632
19650W        W88055  15.635  44.368  12.679
19651W        W88056  29.937   7.626  14.202
19652W        W88057  28.668  41.236  13.999
19653W        W88058  33.894  29.895  10.714
19654W        W88059  11.472  22.170  14.424
19655W        W88060  25.329   8.135  13.173
19656W        W88061   8.639   7.703   2.801
19657W        W88062  17.590  42.008  11.917
19658W        W88063  43.184  41.944  12.111
19659W        W88064  12.338   4.225   1.289
19660W        W88065  38.339  24.129   4.833
19661W        W88066   4.975  37.897  11.139
19662W        W88067  42.821  14.183  13.076
19663W        W88068  39.731   6.775  13.363
19664W        W88069  13.649  25.592   1.520
19665W        W88070  33.990  42.855  14.345
19666W        W88071   8.600  26.678   1.772
19667W        W88072   1.806  25.313   4.225
19668W        W88073   1.371  28.247  13.729
19669W        W88074  34.000  11.285   3.688
19670W        W88075  37.832  29.715  13.889
19671W        W88076  19.319  26.462  13.308
19672W        W88077  12.312  14.147   0.381
19673W        W88078  42.662  41.556  12.466
19674W        W88079  38.559  42.814  10.911
19675W        W88080  33.576  12.729  14.815
19676W        W88081   0.311  22.232  11.058
19677W        W88082  11.934  17.495   2.608
19678W        W88083   2.021  21.047   4.724
19679W        W88084  30.727  36.705  12.612
19680W        W88085  36.858  13.690   1.488
19681W        W88086  12.342  21.050  13.942
19682W        W88087  10.350  14.779  11.657
19683W        W88088  17.114  32.946   0.441
19684W        W88089  32.775  30.204   3.914
19685W        W88090  24.217  39.042  12.919
19686W        W88091  14.667  38.749   0.715
19687W        W88092  27.858  42.819  13.991
19688W        W88093  37.395   2.896   4.717
19689W        W88094  35.058  22.747  13.096
19690W        W88095   5.493  25.550   2.562
19691W        W88096  36.881  43.501   2.223
19692W        W88097  12.115  41.035   2.219
19693W        W88098   7.108  40.959   4.825
19694W        W88099  41.837  38.621  13.423
19695W        W88100  30.544  42.055   3.350
19696W        W88101  42.104  17.822   0.912
19697W        W88102   4.275  22.900  12.499
19698W        W88103  27.602   9.737  12.859
19699W        W88104  43.031  23.693  11.414
19700W        W88105  14.150  31.134   4.573
19701W        W88106  38.467   6.497   2.756
19702W        W88107  14.608  12.143  13.976
19703W        W88108   8.216  25.475  14.318
19704W        W88109   7.671  10.264  12.987
19705W        W88110  43.929  25.541  12.972
19706W        W88111  34.775  43.517  11.048
19707W        W88112  28.078  24.159   2.702
19708W        W88113   1.347  27.266   3.702
19709W        W88114   3.155   6.175  12.609
19710W        W88115  39.857  42.942  12.942
19711W        W88116  39.139  15.700   0.919
19712W        W88117   0.254  41.506   3.609
19713W        W88118   5.805  28.193  12.199
19714W        W88119  32.802  18.295  11.764
19715W        W88120  29.112   5.795  13.866
19716W        W88121   2.936  12.718   2.826
19717W        W88122   6.814  10.983   3.263
19718W        W88123  14.146  33.047  13.503
19719W        W88124  35.448   3.475  12.861
19720W        W88125  25.562   7.345   0.264
19721W        W88126  22.465  23.681  11.915
19722W        W88127  34.775   5.270  12.522
19723W        W88128  33.532  26.127  13.447
19724W        W88129  36.617   7.821   5.039
19725W        W88130  21.072  23.288  12.375
19726W        W88131   2.203  11.687   2.272
19727W        W88132  36.721  38.867   0.961
19728W        W88133  40.058   7.088  11.494
19729W        W88134  19.708   2.724   3.219
19730W        W88135  17.755  10.720  11.038
19731W        W88136  26.006  15.305   0.090
19732W        W88137  42.072  34.844  11.654
19733W        W88138   4.822  11.544   1.398
19734W        W88139  37.918  39.986  13.987
19735W        W88140  23.799  42.936  13.574
19736W        W88141   2.312  18.914  13.590
19737W        W88142   0.932   1.823  10.777
19738W        W88143  35.873  30.272  14.922
19739W        W88144  30.598   0.044  11.582
19740W        W88145  35.583  41.986   0.761
19741W        W88146   8.112  26.795  14.846
19742W        W88147  17.283  43.979  12.809
19743W        W88148  24.746  15.557  13.816
19744W        W88149  18.803  25.150  11.561
19745W        W88150  13.982   4.921   0.605
19746W        W88151  15.254   0.878  12.960
19747W        W88152  36.832  11.500   4.377
19748W        W88153   4.800   1.707  14.939
19749W        W88154  35.082  30.644  12.126
19750W        W88155  19.243   1.388   1.298
19751W        W88156  28.823  40.368   1.719
19752W        W88157   3.786  27.661  11.970
19753W        W88158  13.628  18.100   3.541
19754W        W88159  32.461  17.371  12.559
19755W        W88160  25.571  38.579   5.138
19756W        W88161  41.923  16.998  10.647
19757W        W88162  12.195   4.474   0.786
19758W        W88163  34.726   8.300  13.839
19759W        W88164  15.774  42.357  13.346
19760W        W88165  16.351   9.765   0.507
19761W        W88166  28.625   0.764   4.327
19762W        W88167   5.696  34.974   3.700
19763W        W88168  38.009  13.259   2.390
19764W        W88169  40.616   5.012   5.439
19765W        W88170  26.700  28.550   3.080
19766W        W88171  19.825  31.267   2.718
19767W        W88172  10.988   6.398   4.784
19768W        W88173  34.849  37.368  11.845
19769W        W88174  37.955  34.912   4.784
19770W        W88175  20.120  28.769  14.802
19771W        W88176  43.963   9.389  14.791
19772W        W88177  22.518   2.493  10.940
19773W        W88178  34.106  29.910   1.438
19774W        W88179  27.091  16.097   1.187
19775W        W88180  27.954  20.640   1.262
19776W        W88181  13.038   3.527   0.529
19777W        W88182  35.357  38.094   0.853
19778W        W88183   9.075  30.754   4.679
19779W        W88184   7.799  20.830   0.795
19780W        W88185  39.490  34.792   2.765
19781W        W88186  22.266  39.809   2.739
19782W        W88187  14.581   1.741  12.437
19783W        W88188  13.843  29.819   4.111
19784W        W88189  37.603  29.906   0.589
19785W        W88190  33.230  15.843  11.930
19786W        W88191  34.001  26.863   2.786
19787W        W88192  20.414  42.256   0.778
19788W        W88193  38.324  16.241  12.081
19789W        W88194   5.246   5.686  12.526
19790W        W88195  18.082  29.078  13.885
19791W        W88196  24.256   4.961  13.445
19792W        W88197  15.645  43.245  10.440
19793W        W88198  29.559   8.834   3.697
19794W        W88199   3.299  19.809  14.487
19795W        W88200   5.881  28.926   1.813
19796W        W88201  32.367  28.447  13.904
19797W        W88202   0.387  34.394  12.070
19798W        W88203  25.100  42.964   3.630
19799W        W88204  34.344   0.858   2.058
19800W        W88205  18.055  25.015  12.026
19801W        W88206  43.758  32.477  13.751
19802W        W88207  35.289   5.271  12.457
19803W        W88208  30.687  36.844  14.622
19804W        W88209  13.017  30.422   0.480
19805W        W88210  29.912  23.925   2.081
19806W        W88211   7.756   3.798  12.599
19807W        W88212  18.260   1.997   0.628
19808W        W88213   9.014  32.604  14.520
19809W        W88214  25.976   8.309  11.537
19810W        W88215  15.214  32.449  14.229
19811W        W88216  42.989   0.245  10.761
19812W        W88217  28.575  13.647  12.920
19813W        W88218  24.762  42.124   4.934
19814W        W88219  21.641  26.293   4.593
19815W        W88220  23.687  44.360   0.203
19816W        W88221  21.666  22.675   1.811
19817W        W88222  31.898  39.765  12.875
19818W        W88223  18.824  28.974   2.369
19819W        W88224  29.007  35.009  12.040
19820W        W88225  27.067  43.557  14.892
19821W        W88226  14.797  30.928   3.360
19822W        W88227  25.629   3.686   2.845
19823W        W88228  29.483  18.401  13.780
19824W        W88229   4.928  38.354   0.683
19825W        W88230  13.132  15.161   0.005
19826W        W88231  36.849   8.912  13.862
19827W        W88232  15.858   9.873  10.662
19828W        W88233  35.838  17.873   0.760
19829W        W88234  16.285  19.925  13.561
19830W        W88235  25.161  43.060   1.656
19831W        W88236  15.720   8.791  10.490
19832W        W88237  43.343  25.511  13.390
19833W        W88238   0.918  15.212   2.172
19834W        W88239  35.976  14.654  11.666
19835W        W88240   1.454  37.439  11.584
19836W        W88241  27.134   1.751  13.382
19837W        W88242  32.199   0.406  12.201
19838W        W88243  41.518  11.949  12.511
19839W        W88244   5.569  13.798   2.880
19840W        W88245  26.166  33.635   2.161
19841W        W88246  42.055  23.993   1.859
19842W        W88247  17.390  32.760  12.088
19843W        W88248   7.922  17.302   9.438
19844W        W88249  37.577  36.037   3.699
19845W        W88250  37.592  24.024   1.365
19846W        W88251  14.233  11.371  12.828
19847W        W88252  42.871  23.532  14.801
19848W        W88253   0.836  29.498  14.965
19849W        W88254   2.399  24.579   2.637
19850W        W88255   3.949  41.807   1.015
19851W        W88256  36.399  15.539  12.562
19852W        W88257  29.506  21.263  13.353
19853W        W88258  43.770   4.526  11.408
19854W        W88259  21.649  43.371   2.306
19855W        W88260  12.116   4.910  13.632
19856W        W88261   4.300  42.953  13.578
19857W        W88262  32.116  17.146   0.868
19858W        W88263  27.947  43.703  14.252
19859W        W88264  43.796  32.687   3.578
19860W        W88265  42.777  21.828   2.716
19861W        W88266   2.534  15.269   4.783
19862W        W88267  25.133  17.283  10.106
19863W        W88268  33.430   6.116  12.972
19864W        W88269  26.779  22.796  14.976
19865W        W88270  22.941   4.469  13.554
19866W        W88271  34.498  16.509   2.771
19867W        W88272  10.809  26.534   0.426
19868W        W88273  17.669  13.802  11.440
19869W        W88274  37.279  39.778  11.818
19870W        W88275  35.987   1.530   1.985
19871W        W88276  40.510  34.394  11.694
19872W        W88277   9.190  38.781  11.974
19873W        W88278  35.949   3.694  10.130
19874W        W88279  11.226  27.451   1.724
19875W        W88280  34.659  12.887  14.443
19876W        W88281   4.633  42.158  14.935
19877W        W88282  22.546  26.867  11.097
19878W        W88283  36.543  27.189   0.325
19879W        W88284  39.527  10.190   1.671
19880W        W88285   8.970  35.799  10.620
19881W        W88286  17.313  38.123   4.097
19882W        W88287   2.713   1.368   2.703
19883W        W88288  27.878  23.767  12.415
19884W        W88289  32.604   4.601   0.208
19885W        W88290  24.108  30.945   0.839
19886W        W88291   6.495  16.333   4.520
19887W        W88292  43.384   1.411  13.519
19888W        W88293   5.672   3.883  13.911
19889W        W88294  34.281  37.094  14.336
19890W        W88295  30.453  13.626   3.353
19891W        W88296  14.781  34.325  12.515
19892W        W88297  36.554  32.576   3.784
19893W        W88298   1.382  43.491  10.619
19894W        W88299  29.940  18.311  11.852
19895W        W88300  13.891   5.958  12.592
19896W        W88301  44.738  28.114   0.691
19897W        W88302  11.063  44.405   1.802
19898W        W88303  20.049  27.180   1.718
19899W        W88304   2.915  15.182   3.106
19900W        W88305  37.717   9.688  13.395
19901W        W88306  40.555  25.986  13.710
19902W        W88307  23.225   4.856  11.562
19903W        W88308  10.819  12.676   2.732
19904W        W88309  25.600  18.003   0.729
19905W        W88310  35.074  34.832  13.014
19906W        W88311  15.131  30.700  12.242
19907W        W88312  18.821  29.717   4.762
19908W        W88313  42.900  41.998  11.035
19909W        W88314   7.124  23.088   4.140
19910W        W88315   8.423  20.542  10.871
19911W        W88316  17.162   0.554  13.984
19912W        W88317  36.036  11.163   0.852
19913W        W88318   2.483  21.977  11.558
19914W        W88319  43.891  14.696  14.143
19915W        W88320  16.572  24.999   3.361
19916W        W88321  43.457  22.134  12.401
19917W        W88322   6.162  26.674   2.699
19918W        W88323  38.418  31.911   2.061
19919W        W88324  19.772   9.494  14.702
19920W        W88325  37.039  14.626  11.587
19921W        W88326  44.614  10.965   1.863
19922W        W88327   3.352  10.730  10.543
19923W        W88328  18.413  28.047  11.627
19924W        W88329   0.429  30.551   2.817
19925W        W88330  42.340  38.042  14.346
19926W        W88331  44.589  24.959  12.032
19927W        W88332  28.591  20.705   4.398
19928W        W88333  18.091  30.538   3.679
19929W        W88334  13.903  16.077   1.429
19930W        W88335   8.881  21.731  14.841
19931W        W88336  34.957  33.821   4.216
19932W        W88337   4.717  26.870  11.103
19933W        W88338  21.231   3.715  14.413
19934W        W88339  16.019   6.904   3.259
19935W        W88340  27.218  22.729  13.301
19936W        W88341  19.845   2.725  10.769
19937W        W88342   8.415  39.870  14.497
19938W        W88343  21.986  44.891  14.551
19939W        W88344  38.584  21.371   1.291
19940W        W88345  21.506  36.384  13.482
19941W        W88346  31.989   0.838   0.273
19942W        W88347  34.394  22.897  11.152
19943W        W88348  13.307  10.657   1.325
19944W        W88349  26.625  38.335  12.890
19945W        W88350  41.024  41.114   4.126
19946W        W88351   3.516   6.423  11.102
19947W        W88352  35.839  33.978  10.318
19948W        W88353  43.902  19.058  10.546
19949W        W88354  22.023  27.513  14.436
19950W        W88355  34.258  25.508   2.139
19951W        W88356  12.965  42.407  12.238
19952W        W88357  29.148  19.293  12.020
19953W        W88358  15.694  24.129   2.672
19954W        W88359  28.177  29.554   4.432
19955W        W88360  32.445  21.514   1.837
19956W        W88361  15.677  36.943   1.430
19957W        W88362  22.268  42.380   0.678
19958W        W88363  15.069  28.927   4.184
19959W        W88364   6.218  41.999  14.869
19960W        W88365  17.846  38.616  12.363
19961W        W88366  44.448   0.394  14.330
19962W        W88367   5.342  28.466   1.116
19963W        W88368  18.322  40.962   1.914
19964W        W88369  44.030  32.928  11.114
19965W        W88370   1.934   7.891   0.253
19966W        W88371  20.202   0.362  11.562
19967W        W88372  17.894  21.353  10.624
19968W        W88373  38.637  33.576   4.055
19969W        W88374  30.060  27.557  14.683
19970W        W88375  39.969  37.272  13.735
19971W        W88376   7.347  35.466   1.675
19972W        W88377  39.471  36.911   4.098
19973W        W88378  28.449  38.371  12.819
19974W        W88379  40.407  38.484   3.903
19975W        W88380  37.881  17.449  13.999
19976W        W88381  35.790  19.170  14.831
19977W        W88382  29.908  30.006  12.962
19978W        W88383   1.724  39.941   2.401
19979W        W88384  37.612  42.309   3.111
19980W        W88385  42.168  22.014  12.528
19981W        W88386   2.003  28.631   4.082
19982W        W88387  16.139   1.182  14.248
19983W        W88388  23.647  26.566   1.093
19984W        W88389  36.089  35.735  14.550
19985W        W88390  34.406  33.194  13.497
19986W        W88391  38.450  24.603  10.525
19987W        W88392  11.729   8.903  13.051
19988W        W88393  25.255   3.800   2.412
19989W        W88394   9.631   3.353   4.127
19990W        W88395   0.820   5.480   2.449
19991W        W88396  24.144  34.069   2.382
19992W        W88397   5.445  35.607   4.606
19993W        W88398   1.301  19.725  11.179
19994W        W88399   0.882  28.178  13.417
19995W        W88400  40.716  19.156   4.529
19996W        W88401  34.084  34.855   1.742
19997W        W88402  29.601  20.372  12.173
19998W        W88403  40.082  27.060  10.778
19999W        W88404  16.652  13.607  12.633
20000W        W88405  27.659  17.803  14.884
20001W        W88406  17.255   9.859   0.748
20002W        W88407  14.223  36.568   3.531
20003W        W88408   7.035  23.614   4.882
20004W        W88409  42.357  41.685  14.852
20005W        W88410  42.349   9.561  14.143
20006W        W88411  37.441  26.616  12.375
20007W        W88412  25.030  44.921   3.327
20008W        W88413   3.286  14.696  11.460
20009W        W88414   6.325  33.462   1.412
20010W        W88415  17.527  26.698   0.307
20011W        W88416  24.597   7.759  12.985
20012W        W88417  15.389  16.591  12.005
20013W        W88418  10.667  35.652  13.704
20014W        W88419  31.764   6.182  12.901
20015W        W88420  40.888  11.274  14.216
20016W        W88421  10.338  20.244  14.873
20017W        W88422  32.550  13.573   3.328
20018W        W88423  43.536  22.044   2.151
20019W        W88424  38.304  21.583   1.657
20020W        W88425  29.241  30.324  13.956
20021W        W88426  44.873   6.475   5.423
20022W        W88427  31.084   6.741   2.325
20023W        W88428  20.300   9.762  10.995
20024W        W88429  23.766  38.809   3.304
20025W        W88430   0.659   7.388  13.011
20026W        W88431  21.482   7.353  14.300
20027W        W88432  15.810  39.089  11.002
20028W        W88433  42.181  13.158   2.799
20029W        W88434  14.117  23.159   4.156
20030W        W88435  16.041  13.801   0.374
20031W        W88436  37.442  19.763  13.268
20032W        W88437  40.466  32.294   4.597
20033W        W88438   8.262  17.670  11.666
20034W        W88439  33.238   6.317   3.728
20035W        W88440  11.206   2.164   3.260
20036W        W88441   0.485  18.797   0.473
20037W        W88442  12.560   1.504   1.714
20038W        W88443  12.176   3.857  12.303
20039W        W88444  35.496  31.986   1.872
20040W        W88445   3.283   4.307  12.324
20041W        W88446  19.167  13.115   4.672
20042W        W88447  38.134  38.289  14.363
20043W        W88448   2.359  28.769   3.204
20044W        W88449  15.785   4.950  14.356
20045W        W88450   6.921  18.224  13.550
20046W        W88451  42.805  31.282  14.810
20047W        W88452  32.163   4.720  14.945
20048W        W88453  30.088  27.756   4.673
20049W        W88454  43.660   9.939  10.740
20050W        W88455   4.436  44.173  12.909
20051W        W88456  16.382  39.339  12.541
20052W        W88457  28.288  29.732   1.293
20053W        W88458  21.336   0.369  13.847
20054W        W88459  23.798   4.011   0.098
20055W        W88460   3.928  30.024  10.862
20056W        W88461  41.994  29.574  12.223
20057W        W88462  13.233  30.054  13.884
20058W        W88463   3.847   4.642  10.238
20059W        W88464  22.322  17.133  10.737
20060W        W88465  43.100  31.771  10.330
20061W        W88466  17.347  21.988  14.395
20062W        W88467  28.182   7.392   0.479
20063W        W88468  19.040  19.405  10.976
20064W        W88469  35.050  44.568  12.435
20065W        W88470  27.860  32.925   1.235
20066W        W88471  38.380  20.548   0.886
20067W        W88472  33.062   4.209  12.978
20068W        W88473  26.718  14.567  12.453
20069W        W88474  28.146  21.205  13.822
20070W        W88475  39.310  17.776  11.557
20071W        W88476  33.997  40.115   3.174
20072W        W88477  16.699  35.046  14.362
20073W        W88478  42.040  16.550  12.742
20074W        W88479  16.155  25.465   0.495
20075W        W88480  31.170  24.696   3.089
20076W        W88481   5.209  33.352  14.469
20077W        W88482   0.057  24.261   0.899
20078W        W88483  16.762   7.685  14.835
20079W        W88484   9.899  17.646   4.165
20080W        W88485  12.230  12.291  12.456
20081W        W88486  17.693   2.643   1.888
20082W        W88487   4.929  14.119  11.470
20083W        W88488   7.850   6.280  13.664
20084W        W88489  11.256  11.218  13.352
20085W        W88490  10.293  10.834   4.573
20086W        W88491  39.127  44.455   9.921
20087W        W88492   2.439   5.707   1.197
20088W        W88493  10.668  39.789  14.916
20089W        W88494   8.225  18.195   3.841
20090W        W88495  28.181  13.019  14.618
20091W        W88496  23.058   1.929   3.124
20092W        W88497  23.825  36.529  12.380
20093W        W88498  11.933  43.313   0.006
20094W        W88499  33.131  15.703   5.193
20095W        W88500  43.099  12.361  13.266
20096W        W88501  34.025  30.928   2.531
20097W        W88502  12.307  20.279  13.014
20098W        W88503   5.806  23.089  14.003
20099W        W88504  36.034  13.701   3.712
20100W        W88505  42.845  36.970   1.328
20101W        W88506  42.992  24.926   4.213
20102W        W88507  28.789  18.221  12.486
20103W        W88508   4.834   1.771   3.240
20104W        W88509   3.652  16.965  11.175
20105W        W88510  13.774  31.460   2.237
20106W        W88511  13.096  30.965  14.273
20107W        W88512  16.188  43.912   3.453
20108W        W88513  38.070  31.934  11.675
20109W        W88514   8.737  38.810   3.284
20110W        W88515  12.172  25.965  13.273
20111W        W88516  28.560  28.624   2.390
20112W        W88517   5.356  41.943   4.133
20113W        W88518  21.950  24.195   2.703
20114W        W88519  28.319  31.304   4.199
20115W        W88520  23.578  41.305   0.242
20116W        W88521  44.780  18.884   4.232
20117W        W88522   7.609  32.972   1.341
20118W        W88523  24.772   0.957   3.785
20119W        W88524   5.196  42.999  13.536
20120W        W88525  31.960  43.056   4.108
20121W        W88526  37.438  14.100  14.119
20122W        W88527  23.511  19.743   1.829
20123W        W88528  37.016   7.986  11.588
20124W        W88529  30.225  38.390   0.717
20125W        W88530  29.469  27.177  13.151
20126W        W88531   6.696   5.237   0.271
20127W        W88532  20.939  34.395   0.776
20128W        W88533   4.839  13.308  13.317
20129W        W88534  33.424  21.209  13.932
20130W        W88535   2.516  14.331  10.229
20131W        W88536  33.010   0.990   2.901
20132W        W88537  19.542  37.532  14.469
20133W        W88538   9.337  32.446   4.021
20134W        W88539  37.564  28.175  14.314
20135W        W88540  26.095  14.539  12.089
20136W        W88541  16.812   5.387  13.721
20137W        W88542  27.166  14.104   0.694
20138W        W88543   6.317  37.609   4.150
20139W        W88544  31.590   7.242  11.423
20140W        W88545  30.053  13.682   0.483
20141W        W88546   4.496  19.495   2.815
20142W        W88547  24.736   0.351   0.303
20143W        W88548  27.392  11.689   4.668
20144W        W88549  22.803   6.238   0.951
20145W        W88550  16.051   8.724   0.472
20146W        W88551   1.299   0.004  14.515
20147W        W88552  10.515  37.723  11.182
20148W        W88553   3.461  27.440   4.022
20149W        W88554   0.938  23.495  11.200
20150W        W88555  38.870  14.299  14.431
20151W        W88556  28.125   0.569   1.394
20152W        W88557  33.915  35.395   3.694
20153W        W88558  17.826  34.774   2.303
20154W        W88559  41.529  17.734  12.683
20155W        W88560   5.298   9.708  14.917
20156W        W88561  11.349  38.867   2.341
20157W        W88562  17.798  18.101  14.877
20158W        W88563  40.510   4.811   0.416
20159W        W88564  25.057  40.849   3.417
20160W        W88565   4.869  14.358   4.653
20161W        W88566  22.463   9.182  10.091
20162W        W88567  12.136  44.932   3.688
20163W        W88568  23.491  41.303  12.455
20164W        W88569  34.873   5.222   3.333
20165W        W88570  13.788  15.627  10.341
20166W        W88571  12.736   3.910   2.931
20167W        W88572  26.389  32.087  11.461
20168W        W88573   4.098  31.337  13.310
20169W        W88574   8.259  12.419  14.584
20170W        W88575  26.443  35.895  11.237
20171W        W88576  39.910  34.633  14.547
20172W        W88577  33.449  16.128   3.680
20173W        W88578  24.594   8.242  11.405
20174W        W88579  31.619  15.101   4.527
20175W        W88580  11.615   2.765  12.174
20176W        W88581  18.840  33.059   1.790
20177W        W88582  21.108  12.127   4.131
20178W        W88583  11.318  32.509  11.358
20179W        W88584  10.701   6.871  14.365
20180W        W88585  35.913   9.633   0.003
20181W        W88586  18.237  26.945  14.646
20182W        W88587  41.609  22.520   2.683
20183W        W88588  26.482  15.144  14.974
20184W        W88589  19.094   3.711   1.947
20185W        W88590  27.166   9.892  14.225
20186W        W88591  19.052   3.415   1.219
20187W        W88592  41.084  27.030  10.744
20188W        W88593  36.936  26.654   2.603
20189W        W88594  31.723  26.484   0.746
20190W        W88595  35.568  20.596  12.854
20191W        W88596  37.935   7.747  12.166
20192W        W88597   6.286  28.590  10.701
20193W        W88598  29.957  36.502  11.590
20194W        W88599  20.921  37.805  12.587
20195W        W88600  40.425   0.956   1.731
20196W        W88601   4.203  34.052   1.754
20197W        W88602   9.662  12.207  13.808
20198W        W88603   9.236  12.932  12.855
20199W        W88604  13.990  39.821   0.509
20200W        W88605  18.691  22.460  14.966
20201W        W88606  21.242  36.404  10.625
20202W        W88607  22.713  13.147   4.565
20203W        W88608  27.532  24.124  14.760
20204W        W88609   1.797  13.384  11.514
20205W        W88610  13.880  34.959   4.579
20206W        W88611  39.241  36.723   2.099
20207W        W88612  17.318  15.742   4.604
20208W        W88613   2.010  26.143   4.108
20209W        W88614  43.718  34.037  11.571
20210W        W88615   3.680  31.528  12.122
20211W        W88616  27.560  44.403   1.131
20212W        W88617  34.513  16.713   4.830
20213W        W88618   1.424  21.293  14.892
20214W        W88619  31.387  21.565   4.797
20215W        W88620  16.069  11.817  13.389
20216W        W88621   5.285  13.188   2.166
20217W        W88622  30.448  10.802  14.975
20218W        W88623  40.984   6.984   0.738
20219W        W88624  23.518   1.056  10.656
20220W        W88625  27.919   0.963  11.858
20221W        W88626  28.670  42.025   2.208
20222W        W88627  31.078  31.409  11.880
20223W        W88628  22.716  20.770   9.972
20224W        W88629  17.113  41.860   2.736
20225W        W88630  16.054  20.932   1.901
20226W        W88631  43.503  11.738   2.797
20227W        W88632   0.097  15.899   2.489
20228W        W88633  26.970  31.568  13.826
20229W        W88634  40.281  18.289  13.812
20230W        W88635   2.181  32.553   1.112
20231W        W88636   1.894  11.173  13.572
20232W        W88637  38.456   1.876   3.751
20233W        W88638  11.663  34.171   0.499
20234W        W88639  14.237  17.675   3.386
20235W        W88640  27.022  12.823   4.814
20236W        W88641   3.977   8.666   0.391
20237W        W88642   5.352  43.421   3.076
20238W        W88643  35.078  31.667   3.696
20239W        W88644  25.423  23.132  13.706
20240W        W88645  39.354   1.615   9.804
20241W        W88646  14.172  22.165  10.675
20242W        W88647   0.689  15.730  10.401
20243W        W88648  14.520  26.534  13.511
20244W        W88649  39.258   5.829  11.551
20245W        W88650  41.579  21.627   2.359
20246W        W88651  11.908  18.441  11.383
20247W        W88652  35.657  37.475   0.507
20248W        W88653   3.290  28.063   0.695
20249W        W88654  28.400  37.027  10.649
20250W        W88655  11.759  31.176   0.380
20251W        W88656  25.549  38.109   4.909
20252W        W88657   6.600  34.477  12.569
20253W        W88658  40.172  37.066   2.334
20254W        W88659   7.893  41.960  13.862
20255W        W88660  28.539  38.896   3.638
20256W        W88661  18.609  32.115   3.270
20257W        W88662  17.167  39.029   4.596
20258W        W88663  15.255  29.508   3.889
20259W        W88664   1.420  14.866   4.035
20260W        W88665  13.755  22.536  11.677
20261W        W88666  24.605  40.220   4.772
20262W        W88667   0.243  20.328  10.638
20263W        W88668  24.126  37.883  12.184
20264W        W88669  31.571  17.123  12.005
20265W        W88670  30.391  19.236   1.138
20266W        W88671  34.112   1.502  11.025
20267W        W88672  38.263  34.193   3.522
20268W        W88673  36.818   0.576  12.489
20269W        W88674  19.070  42.423  14.618
20270W        W88675  30.967  43.987  10.398
20271W        W88676  39.912  37.804   1.770
20272W        W88677  33.006  34.803  14.139
20273W        W88678  22.135   1.193  12.842
20274W        W88679   6.624   0.437   4.131
20275W        W88680  15.020  44.761  11.120
20276W        W88681  43.368  23.593   4.646
20277W        W88682  13.679  27.498  14.706
20278W        W88683   7.827  14.858   1.993
20279W        W88684  21.540  24.591  11.202
20280W        W88685  27.711   1.131   3.120
20281W        W88686  33.800  41.856  14.349
20282W        W88687  17.117   0.793   1.880
20283W        W88688  13.923  15.260  12.130
20284W        W88689   4.714  18.077  10.800
20285W        W88690  29.201   7.972  11.604
20286W        W88691   5.816  10.728   2.006
20287W        W88692  19.640  42.740  13.341
20288W        W88693   2.677   3.377  10.002
20289W        W88694   6.356   9.166   4.106
20290W        W88695   7.801  33.107  10.437
20291W        W88696  44.813  23.626   3.820
20292W        W88697  27.777  29.657   4.073
20293W        W88698  40.359  26.440  11.071
20294W        W88699  39.025  18.649   2.453
20295W        W88700  15.578   6.861   0.419
20296W        W88701  10.900  26.949   4.572
20297W        W88702  28.449  44.922   0.852
20298W        W88703  21.070  28.474  11.839
20299W        W88704  27.678  11.845   1.806
20300W        W88705   7.659   4.572   2.027
20301W        W88706  16.093  23.948   3.976
20302W        W88707  12.703  13.882  13.593
20303W        W88708  42.553  30.979   4.101
20304W        W88709  42.432  17.832   4.447
20305W        W88710   6.153  26.381   3.618
20306W        W88711  31.960  28.683  12.960
20307W        W88712  25.271   5.807  10.776
20308W        W88713  36.773   3.437   3.180
20309W        W88714  35.369  21.461  13.985
20310W        W88715  25.767  21.516  14.242
20311W        W88716  19.203   7.140  11.122
20312W        W88717  34.739  29.945   3.868
20313W        W88718  25.362  27.991  13.896
20314W        W88719  28.626  17.261  13.428
20315W        W88720  27.221  25.968   3.815
20316W        W88721  16.302   9.351   0.193
20317W        W88722   9.084  38.867  13.992
20318W        W88723  44.266  43.726  11.564
20319W        W88724  20.154  39.588   4.612
20320W        W88725  20.790   8.359   2.427
20321W        W88726   6.161  11.858  11.661
20322W        W88727  40.089  31.934   1.701
20323W        W88728  27.462  22.270  11.560
20324W        W88729  25.480  26.893  13.561
20325W        W88730  20.552   8.806   4.613
20326W        W88731  23.471  38.919  11.136
20327W        W88732  28.070   9.571   4.558
20328W        W88733   1.672  18.354  11.044
20329W        W88734  39.446   2.284  14.745
20330W        W88735  28.088  28.704   0.403
20331W        W88736   9.784  41.746   4.402
20332W        W88737   2.324  19.061   3.434
20333W        W88738   2.660  13.672   2.893
20334W        W88739  10.813  44.037   3.554
20335W        W88740  37.285  31.508   1.676
20336W        W88741  29.537   1.458   3.273
20337W        W88742  20.866  42.492  14.851
20338W        W88743   0.437  36.425   3.261
20339W        W88744  15.421  23.773   2.325
20340W        W88745  35.529   6.570  14.136
20341W        W88746  15.879  43.032  11.403
20342W        W88747   6.372  13.206   1.714
20343W        W88748   5.065  26.008  10.714
20344W        W88749  43.150  30.341   0.040
20345W        W88750  13.085  28.583   0.815
20346W        W88751  41.625  43.415   2.156
20347W        W88752  42.966  29.403  14.789
20348W        W88753  41.221  44.075   1.555
20349W        W88754  23.570  40.540   2.695
20350W        W88755  44.605   9.200   0.075
20351W        W88756  34.326   8.897   0.880
20352W        W88757  43.363   5.348   1.424
20353W        W88758  15.875  24.667   2.637
20354W        W88759  36.790  19.558   1.697
20355W        W88760  18.208  10.924  12.089
20356W        W88761   2.955  12.293  13.751
20357W        W88762  12.140  22.252  13.784
20358W        W88763  39.016  15.885   2.327
20359W        W88764  22.673  42.101   0.879
20360W        W88765  11.228   0.991   2.013
20361W        W88766   4.891   7.119   4.344
20362W        W88767  33.986  35.903  10.702
20363W        W88768  32.368   5.207   2.841
20364W        W88769  35.119  35.330   0.717
20365W        W88770  20.529  37.452  12.686
20366W        W88771   0.570  42.237  12.649
20367W        W88772  34.889  29.009   2.719
20368W        W88773  18.588  22.784   1.393
20369W        W88774  28.465  39.796  10.573
20370W        W88775  40.013  25.680   4.074
20371W        W88776   9.354   9.373  11.542
20372W        W88777   6.360  44.204  11.539
20373W        W88778  19.402  31.081  12.513
20374W        W88779  26.679  27.420  13.017
20375W        W88780  11.293   3.821   2.301
20376W        W88781  28.111  20.950  14.274
20377W        W88782  21.258   7.859   0.500
20378W        W88783  36.972  35.407  12.697
20379W        W88784  31.455   8.336   0.662
20380W        W88785  20.309  29.433   0.256
20381W        W88786  44.862   7.288  12.036
20382W        W88787  39.953   3.795  12.434
20383W        W88788  22.959  24.580  12.804
20384W        W88789  26.173  34.005  12.650
20385W        W88790  38.960  32.907  10.646
20386W        W88791   8.649   0.918   1.768
20387W        W88792  18.561  41.988  11.484
20388W        W88793  43.270  31.678  14.918
20389W        W88794  11.729  43.873  12.573
20390W        W88795  16.273  20.628   2.801
20391W        W88796  29.627  37.196  12.387
20392W        W88797  41.291  14.149  14.900
20393W        W88798  23.714  37.439   3.146
20394W        W88799  34.491  34.536  13.856
20395W        W88800  16.843   4.164   2.600
20396W        W88801  41.856   2.206  13.903
20397W        W88802  20.371  24.255  14.605
20398W        W88803  17.138  41.212   4.410
20399W        W88804  38.789   9.246  10.576
20400W        W88805  27.586  28.878  14.539
20401W        W88806  24.123   2.798  14.705
20402W        W88807   9.107   6.194  10.592
20403W        W88808  29.437  30.187  13.043
20404W        W88809   5.206  19.121   2.464
20405W        W88810   5.242   6.793  13.280
20406W        W88811  30.053  16.530  13.469
20407W        W88812  41.437  13.455  10.786
20408W        W88813   5.416  12.307  14.055
20409W        W88814   0.478  18.422  10.656
20410W        W88815  40.963  26.127   0.887
20411W        W88816  36.653  11.765   2.344
20412W        W88817  34.724  35.618  14.370
20413W        W88818   0.426  16.557  13.321
20414W        W88819  10.075  19.064   1.280
20415W        W88820  31.989   1.119  10.561
20416W        W88821  10.271  35.706   1.175
20417W        W88822   1.709  26.176  14.197
20418W        W88823  30.028  20.465  11.863
20419W        W88824   9.665  22.483  13.395
20420W        W88825  25.020  28.365   2.810
20421W        W88826   1.513  30.129  10.688
20422W        W88827  37.113  22.727  12.970
20423W        W88828  21.446  13.259  10.680
20424W        W88829  44.267  27.640  11.493
20425W        W88830  12.418   6.280  13.732
20426W        W88831  41.986  24.778  12.855
20427W        W88832  12.153   8.631   0.848
20428W        W88833  33.209  30.099   0.441
20429W        W88834  42.972   2.466   2.327
20430W        W88835  14.423  25.041   1.537
20431W        W88836   2.906  25.373   1.911
20432W        W88837  44.454  13.530   4.624
20433W        W88838  41.248  11.808   4.482
20434W        W88839  25.680  28.654   4.163
20435W        W88840  10.606   2.523   3.109
20436W        W88841   3.006   6.169   0.734
20437W        W88842  15.284  44.946  13.048
20438W        W88843   0.320  12.056   1.463
20439W        W88844  12.820  40.865   2.687
20440W        W88845   5.047  41.231  12.878
20441W        W88846  27.261  12.649   3.480
20442W        W88847  26.742  26.686   0.246
20443W        W88848   5.912  34.591   1.275
20444W        W88849  13.749   2.415   0.555
20445W        W88850   2.322  30.414  10.449
20446W        W88851  28.407  37.877  10.326
20447W        W88852  37.153  13.230  11.609
20448W        W88853  40.817  32.707   1.931
20449W        W88854  17.142  15.010  11.545
20450W        W88855   1.162   1.426   3.823
20451W        W88856  17.603  32.897   4.696
20452W        W88857  39.317   9.197   0.005
20453W        W88858  40.319  15.950   3.350
20454W        W88859  27.047  27.076   1.256
20455W        W88860  40.003  35.569  12.922
20456W        W88861  40.170  40.772  14.850
20457W        W88862  18.160  22.150   2.181
20458W        W88863  42.817  12.720  11.619
20459W        W88864  41.080  20.158  12.656
20460W        W88865  32.574  40.064   4.689
20461W        W88866   8.500  22.904  13.488
20462W        W88867  18.599   9.217  11.052
20463W        W88868   5.473   4.497   3.145
20464W        W88869  19.867  39.753  14.914
20465W        W88870  38.386  19.646   1.816
20466W        W88871  32.191  26.581  11.810
20467W        W88872  31.027   6.103   2.718
20468W        W88873   0.219  44.395  13.884
20469W        W88874  42.475  19.811  10.730
20470W        W88875  24.661  41.083   3.703
20471W        W88876  30.392   8.492   4.160
20472W        W88877  32.538  41.272  11.201
20473W        W88878  34.580  38.857  11.084
20474W        W88879  13.308   9.129   0.375
20475W        W88880  34.110   8.204   0.844
20476W        W88881  30.691  42.899  14.381
20477W        W88882   8.448  34.926  14.920
20478W        W88883  28.426  34.810  11.299
20479W        W88884  22.580  29.404  13.042
20480W        W88885  23.611  24.032  12.425
20481W        W88886  20.700  38.819  10.871
20482W        W88887  40.585  25.305  14.993
20483W        W88888  31.188   2.815   1.443
20484W        W88889  39.236  40.104  12.517
20485W        W88890   1.488  39.965  13.368
20486W        W88891  34.551  31.604   3.852
20487W        W88892  12.528  19.546   1.867
20488W        W88893  30.158   8.207  10.782
20489W        W88894  44.204  44.616   0.344
20490W        W88895   0.021  26.438   3.241
20491W        W88896  41.115  42.338  14.346
20492W        W88897  22.266  37.802   4.284
20493W        W88898   7.745  40.118   3.600
20494W        W88899  31.044  30.193  13.943
20495W        W88900  10.223  34.586   0.348
20496W        W88901  39.654  10.936   2.230
20497W        W88902  15.335  29.993   3.236
20498W        W88903  20.322  28.857  13.969
20499W        W88904  34.834  31.982   1.397
20500W        W88905  43.961  40.323  14.773
20501W        W88906  37.940  31.857  13.351
20502W        W88907   4.066   5.136   1.293
20503W        W88908  28.734  34.777   3.312
20504W        W88909   3.287  18.056   2.268
20505W        W88910   9.919  29.741   2.117
20506W        W88911  35.452  18.602  11.774
20507W        W88912  35.080  22.291   4.817
20508W        W88913  21.151  35.554   1.704
20509W        W88914  17.137  19.682   0.405
20510W        W88915  23.089  16.158  13.532
20511W        W88916  26.675   3.757  12.550
20512W        W88917  24.202   9.508  14.313
20513W        W88918   3.369  24.970   2.760
20514W        W88919  12.048  17.361   5.067
20515W        W88920  34.784  28.110  10.737
20516W        W88921   3.252  14.248  11.957
20517W        W88922  35.403  43.047  11.910
20518W        W88923  12.814  10.796  13.867
20519W        W88924  31.023  22.244  13.558
20520W        W88925  17.579   3.233  13.456
20521W        W88926  27.466  21.631  14.839
20522W        W88927  18.225  44.145   3.342
20523W        W88928   2.981   2.850   4.084
20524W        W88929   8.961  29.186   0.018
20525W        W88930  29.932  15.903  14.227
20526W        W88931   0.776   4.604  14.239
20527W        W88932  34.916  18.013   1.871
20528W        W88933   6.979   3.420   1.481
20529W        W88934  14.948  34.971   3.408
20530W        W88935  18.408  10.380   1.395
20531W        W88936  31.017  14.398  14.272
20532W        W88937   4.345  13.844   3.111
20533W        W88938  29.975  37.769   1.411
20534W        W88939  13.897  42.472  12.400
20535W        W88940  35.077   5.509   1.453
20536W        W88941   3.501  35.659   1.203
20537W        W88942  20.290  19.618  13.011
20538W        W88943  43.510  31.971   1.801
20539W        W88944  10.290  22.923  12.461
20540W        W88945  43.260   1.857  12.131
20541W        W88946  35.805  18.047   1.764
20542W        W88947  15.175  35.464  13.585
20543W        W88948  26.066   0.996  10.676
20544W        W88949   6.600  16.095   3.714
20545W        W88950  42.591   2.015  11.026
20546W        W88951  35.690  31.386  12.664
20547W        W88952  39.734  38.070   4.736
20548W        W88953  43.076   7.929  13.462
20549W        W88954   1.400  23.128   2.872
20550W        W88955  28.573  17.360  10.796
20551W        W88956  34.503  39.821  11.909
20552W        W88957   8.388   0.443  11.839
20553W        W88958  34.602   1.872   3.362
20554W        W88959   2.246  39.472   1.777
20555W        W88960  13.355  34.533  13.959
20556W        W88961  26.645  44.790  10.515
20557W        W88962  24.479   5.540   2.257
20558W        W88963   4.271  39.941  12.024
20559W        W88964  26.396  13.142   1.002
20560W        W88965  17.691  24.959  10.786
20561W        W88966  31.964  14.727   1.402
20562W        W88967  38.274   8.942  14.424
20563W        W88968  30.980  37.489   4.852
20564W        W88969  15.956   1.852  13.226
20565W        W88970  14.326  23.651   2.712
20566W        W88971  37.099  33.011   3.454
20567W        W88972  17.064  29.550   0.749
20568W        W88973  21.264  24.175  10.749
20569W        W88974  26.089  17.694   0.749
20570W        W88975   4.449  23.496   2.778
20571W        W88976  44.789   8.829   2.146
20572W        W88977  33.503  27.568  11.983
20573W        W88978  36.982  44.533  11.671
20574W        W88979  12.448  44.860   3.257
20575W        W88980  30.349  29.999   4.084
20576W        W88981   8.209  27.552   3.607
20577W        W88982  19.131   3.858  13.343
20578W        W88983  36.673  41.079  12.157
20579W        W88984   2.393  13.654   1.337
20580W        W88985  23.157  24.275  12.412
20581W        W88986   3.172  24.829  10.568
20582W        W88987  37.102  35.455   4.103
20583W        W88988  25.638  22.655   1.849
20584W        W88989  44.445  12.890   0.691
20585W        W88990  42.551  44.317   1.071
20586W        W88991  26.938   8.059  11.188
20587W        W88992  41.510  31.624  13.004
20588W        W88993  36.598   4.883  14.884
20589W        W88994  20.596  34.400  10.453
20590W        W88995   4.218  34.177  14.337
20591W        W88996  28.709  16.280   0.351
20592W        W88997  30.623  16.785  10.345
20593W        W88998   7.836  37.060  10.664
20594W        W88999  39.040  17.795  12.114
20595W        W89000  35.047  31.051   2.402
20596W        W89001   1.750  33.032   3.254
20597W        W89002   1.219  10.183   1.865
20598W        W89003  30.605  24.045  11.115
20599W        W89004  23.165  17.815   2.949
20600W        W89005  36.971  15.576   4.841
20601W        W89006  29.398  41.505  12.854
20602W        W89007  10.578  41.183   3.288
20603W        W89008   6.412   2.555  13.469
20604W        W89009   3.425  39.965  10.584
20605W        W89010  29.147   2.788  13.112
20606W        W89011  25.927  11.269  13.098
20607W        W89012  26.170   5.352   3.335
20608W        W89013  43.987   9.366  11.206
20609W        W89014  33.414  23.180  11.999
20610W        W89015   9.024  19.722  14.879
20611W        W89016  32.299  14.651   3.293
20612W        W89017  38.863  13.288   2.706
20613W        W89018  16.725  34.374  14.677
20614W        W89019  35.305  27.377   4.125
20615W        W89020  44.495  37.979   2.263
20616W        W89021   9.149  43.516   4.595
20617W        W89022  42.989  39.543  14.977
20618W        W89023  25.236  28.725   1.252
20619W        W89024   9.756  19.164  13.140
20620W        W89025  41.856  32.185  14.863
20621W        W89026   3.852   0.485  12.081
20622W        W89027  34.072  41.427   4.697
20623W        W89028  25.989  37.489  14.439
20624W        W89029  31.449   0.782  12.649
20625W        W89030   6.203  44.216  10.769
20626W        W89031  30.733   9.352  13.744
20627W        W89032   5.868   8.965  14.895
20628W        W89033  16.616  23.297   2.706
20629W        W89034  31.638  17.264   3.598
20630W        W89035  32.689  19.110   2.945
20631W        W89036  31.693  41.073   0.780
20632W        W89037  20.216  32.898  14.525
20633W        W89038  18.905  29.132   0.953
20634W        W89039   0.522  25.443   1.893
20635W        W89040  19.278   5.012   3.861
20636W        W89041   0.487   0.703   3.737
20637W        W89042  44.946  38.578  13.947
20638W        W89043  13.917  42.793  14.498
20639W        W89044  32.394  23.191   4.239
20640W        W89045  35.635  21.418  12.578
20641W        W89046  23.063  38.300  14.865
20642W        W89047   4.411   5.344   3.373
20643W        W89048  31.115  10.315   3.230
20644W        W89049  27.190  30.669   1.843
20645W        W89050  22.199  18.601   0.871
20646W        W89051  34.102  20.860   0.268
20647W        W89052  35.431   4.317  11.132
20648W        W89053  14.160  23.417  12.792
20649W        W89054   7.674  30.804   2.682
20650W        W89055  24.687   6.475  14.970
20651W        W89056  33.167  27.182   3.072
20652W        W89057  40.638  32.089  14.434
20653W        W89058   1.267   6.550  13.117
20654W        W89059  39.441  40.730  11.184
20655W        W89060  37.049   3.771  13.961
20656W        W89061  11.400  20.738   3.461
20657W        W89062  34.546  38.741  12.846
20658W        W89063  29.385  13.275   2.848
20659W        W89064   8.681  27.937  10.270
20660W        W89065   4.374  44.479   1.870
20661W        W89066   1.933  22.246   4.956
20662W        W89067   3.268  26.129  14.376
20663W        W89068  40.463  41.695   4.622
20664W        W89069  44.903  16.576  14.398
20665W        W89070  33.611   7.845   3.053
20666W        W89071  42.977  26.529  12.626
20667W        W89072  23.654  14.907  11.027
20668W        W89073  44.574  21.761   2.693
20669W        W89074  17.080  27.665  13.721
20670W        W89075   6.860  40.761   0.482
20671W        W89076   6.815  44.036   2.610
20672W        W89077  35.935  21.816  12.670
20673W        W89078   8.810  32.920  13.353
20674W        W89079  41.744  22.620  14.916
20675W        W89080  10.568   0.833   3.732
20676W        W89081  38.565  11.654   4.615
20677W        W89082  44.837  39.079   0.063
20678W        W89083  16.278  35.500  10.517
20679W        W89084  21.114  26.932   0.317
20680W        W89085  17.530  35.719   0.871
20681W        W89086   9.630  37.477   3.601
20682W        W89087  13.545  16.148   1.797
20683W        W89088  24.272   4.824  12.508
20684W        W89089  33.801  32.998   3.724
20685W        W89090   2.512  34.010  14.972
20686W        W89091   6.669  11.050  12.401
20687W        W89092  34.079   1.390  13.606
20688W        W89093  41.464  15.736   4.175
20689W        W89094  29.670   5.719   0.109
20690W        W89095  10.025  13.654   0.779
20691W        W89096  20.685  11.233  12.899
20692W        W89097  36.648  21.379   5.034
20693W        W89098  14.150  37.738  11.087
20694W        W89099  34.375  24.526   4.252
20695W        W89100  20.875  18.916   4.278
20696W        W89101  33.928  39.461   0.665
20697W        W89102  34.158  31.901   3.641
20698W        W89103  38.745   8.634  13.867
20699W        W89104  40.854  37.722  11.071
20700W        W89105  27.728   0.602   3.196
20701W        W89106  41.833  33.147   0.818
20702W        W89107  42.143  23.906   1.269
20703W        W89108   0.723  27.464  11.469
20704W        W89109   6.011  43.801  14.450
20705W        W89110  42.581  17.175  10.664
20706W        W89111  28.428  35.179   3.235
20707W        W89112  42.462  24.621  11.541
20708W        W89113  31.905  39.271  14.077
20709W        W89114  21.235  18.269  11.442
20710W        W89115   4.985  34.983   4.345
20711W        W89116  39.406  18.797  14.670
20712W        W89117   9.783   1.741  10.880
20713W        W89118   0.014  25.451  14.916
20714W        W89119  20.519  14.578  11.922
20715W        W89120  39.908  36.222   2.138
20716W        W89121   9.430  43.293   0.888
20717W        W89122   3.378   7.618  11.697
20718W        W89123  10.122  11.525   2.785
20719W        W89124  17.457  27.962   3.198
20720W        W89125  32.043   7.717  13.364
20721W        W89126  43.891  16.822  12.939
20722W        W89127  19.003   2.229  13.296
20723W        W89128  14.633  34.136   1.358
20724W        W89129  39.113   7.352   3.797
20725W        W89130  30.631  11.068   0.723
20726W        W89131  44.856   1.798   3.853
20727W        W89132  40.540  21.702  13.928
20728W        W89133  44.351  15.232  10.251
20729W        W89134  31.052   9.238  11.110
20730W        W89135  36.133  33.574  13.991
20731W        W89136  29.115   5.763  12.787
20732W        W89137   4.327  29.547  13.034
20733W        W89138   3.135  25.952  13.898
20734W        W89139  13.703  20.816  12.572
20735W        W89140  39.359  36.277   4.886
20736W        W89141  43.701  37.909   3.750
20737W        W89142  34.444  42.756   3.724
20738W        W89143   6.495  31.964   2.113
20739W        W89144   5.383  14.751   3.286
20740W        W89145  36.980  37.803   4.247
20741W        W89146  11.427  39.098  14.074
20742W        W89147  26.497   4.262   2.710
20743W        W89148  29.656   2.026  10.653
20744W        W89149  24.587   7.630   3.119
20745W        W89150   6.323  37.988   3.796
20746W        W89151   6.293  34.497  12.138
20747W        W89152  34.212  28.538  12.190
20748W        W89153  35.420  25.708   3.089
20749W        W89154  39.527  27.706   0.219
20750W        W89155  21.809  21.012   4.287
20751W        W89156  23.922  27.612   4.908
20752W        W89157  10.703  34.096   0.857
20753W        W89158   3.404  32.699  11.342
20754W        W89159  38.321   3.369   1.407
20755W        W89160  41.444  42.793   2.728
20756W        W89161  25.453  13.384  10.373
20757W        W89162  21.168  27.925   2.707
20758W        W89163  16.135  19.162  12.292
20759W        W89164  32.945  21.720   4.331
20760W        W89165   8.755  10.223   4.565
20761W        W89166   6.223  11.629   1.782
20762W        W89167   3.914  42.863   4.113
20763W        W89168  26.689  43.917  12.523
20764W        W89169   9.743  31.041  12.750
20765W        W89170  25.143  19.291   3.814
20766W        W89171  34.335  41.887   3.432
20767W        W89172  16.100  25.517  12.505
20768W        W89173   0.397  31.232   2.313
20769W        W89174  15.216  24.984  10.696
20770W        W89175  38.738  39.795  11.675
20771W        W89176   6.227  26.285  11.190
20772W        W89177  26.247  32.983  12.261
20773W        W89178  16.111   9.109  14.271
20774W        W89179  16.906  35.272   0.659
20775W        W89180  26.503   3.794   0.992
20776W        W89181  29.639  41.006   2.664
20777W        W89182  11.185  12.042   1.374
20778W        W89183  18.483   1.605  14.430
20779W        W89184  40.258  38.387  12.768
20780W        W89185   3.248  17.600  14.795
20781W        W89186  42.445  43.927  10.597
20782W        W89187   4.751  36.989   1.383
20783W        W89188  24.008   6.763   0.427
20784W        W89189  22.000   5.881   1.669
20785W        W89190  43.409   4.913  14.116
20786W        W89191   3.409  41.725  14.897
20787W        W89192  21.540  26.929   4.891
20788W        W89193  32.005  18.534   0.030
20789W        W89194  19.103   9.907   2.697
20790W        W89195   5.824  23.072  12.065
20791W        W89196  22.740  12.251  10.459
20792W        W89197  25.610   2.885  13.550
20793W        W89198   1.958  22.225  10.701
20794W        W89199  43.371  19.491   0.515
20795W        W89200  26.103  30.733  13.888
20796W        W89201  14.888   0.363   5.000
20797W        W89202   8.238  21.765   4.163
20798W        W89203   0.422  12.114  14.456
20799W        W89204   0.871   5.025   2.183
20800W        W89205  14.886  40.346  12.942
20801W        W89206  10.273  14.112   0.770
20802W        W89207  44.921   7.270   1.982
20803W        W89208  11.814  25.705   4.536
20804W        W89209  35.915  31.717   2.588
20805W        W89210  43.222  42.401  12.412
20806W        W89211  26.704   6.728  11.782
20807W        W89212  42.284  18.752  13.830
20808W        W89213  27.694  43.920   4.521
20809W        W89214  21.618  32.030   0.312
20810W        W89215  21.716  23.909   0.027
20811W        W89216  35.061  37.561   1.544
20812W        W89217  13.763  26.500   3.313
20813W        W89218   0.867  16.199  14.252
20814W        W89219  21.942  22.207   1.839
20815W        W89220  13.303  34.128   3.621
20816W        W89221  32.893  22.263  13.307
20817W        W89222  26.758  28.060   3.288
20818W        W89223  21.674  25.782   1.761
20819W        W89224  10.017   8.301  11.122
20820W        W89225  31.370   8.082  13.127
20821W        W89226   1.286  41.782   4.675
20822W        W89227  20.685   4.521   4.180
20823W        W89228  39.811  13.605   1.488
20824W        W89229  22.590  32.343  11.822
20825W        W89230  11.185  35.987  11.628
20826W        W89231   1.694  36.146  13.402
20827W        W89232  34.002  42.675  12.019
20828W        W89233  36.023  39.103   1.738
20829W        W89234  10.203  13.414   2.870
20830W        W89235  10.841   9.232   2.443
20831W        W89236  35.912  39.318   1.248
20832W        W89237  26.270  10.113   1.015
20833W        W89238  43.179  35.509  11.443
20834W        W89239  37.981  30.437   4.597
20835W        W89240   0.224  17.265   2.721
20836W        W89241  14.229  16.229  13.071
20837W        W89242   6.185   3.248  11.617
20838W        W89243  10.256  35.179   1.215
20839W        W89244  14.210   6.422  11.755
20840W        W89245  19.039   9.165  12.208
20841W        W89246  11.568  15.734   0.387
20842W        W89247  34.542  33.038   1.985
20843W        W89248  18.727   8.362   3.246
20844W        W89249   2.424  40.084  10.694
20845W        W89250  18.034  16.892   3.985
20846W        W89251   5.101  43.012  12.301
20847W        W89252  28.322  23.750   0.879
20848W        W89253  29.448   6.779  14.029
20849W        W89254  15.550   5.717  12.164
20850W        W89255   3.252  40.568   3.120
20851W        W89256  14.375   9.872   2.305
20852W        W89257  14.300  44.899   1.745
20853W        W89258  21.724  33.478  13.324
20854W        W89259   9.647  31.049   1.378
20855W        W89260  16.900  14.316  14.365
20856W        W89261  19.388  17.019   2.828
20857W        W89262  36.327  17.699   3.774
20858W        W89263  41.381  30.986   0.352
20859W        W89264  24.091  10.702   0.421
20860W        W89265  11.567  25.604  14.349
20861W        W89266  23.742   2.928  12.969
20862W        W89267   4.754  15.786  11.904
20863W        W89268  41.324  31.822  12.504
20864W        W89269  32.644   1.996  13.463
20865W        W89270  33.446   9.240  11.905
20866W        W89271  14.417  16.526  13.772
20867W        W89272  30.985   0.787  11.928
20868W        W89273   2.299  13.658  11.422
20869W        W89274   5.907  40.905   1.257
20870W        W89275  11.027  39.266   2.461
20871W        W89276  33.295  15.074   0.314
20872W        W89277   2.730   3.358  10.516
20873W        W89278  10.433   3.166  10.621
20874W        W89279  20.515   6.142  12.802
20875W        W89280  41.105   6.176  10.444
20876W        W89281   0.104   0.060   1.437
20877W        W89282  38.383  18.276   0.534
20878W        W89283  34.515   3.169  12.980
20879W        W89284  37.620  40.325  13.739
20880W        W89285   3.167  44.381   0.405
20881W        W89286  42.852  42.474  14.895
20882W        W89287   8.108   0.138  13.813
20883W        W89288  11.812  38.041  10.833
20884W        W89289   4.161  39.402   0.845
20885W        W89290  12.311  15.321   1.627
20886W        W89291  12.638   8.669  10.680
20887W        W89292   7.333  43.486  14.929
20888W        W89293  22.578  17.012  12.967
20889W        W89294  33.569   6.628  10.604
20890W        W89295  15.543  16.925  12.396
20891W        W89296  30.041  40.837   9.744
20892W        W89297  44.196  10.329   4.975
20893W        W89298  22.703  14.548   3.639
20894W        W89299   5.277  31.855  11.551
20895W        W89300  26.535  41.941  12.652
20896W        W89301  44.039   3.159   0.851
20897W        W89302  17.348  33.966  14.796
20898W        W89303  10.044  10.785   3.196
20899W        W89304  33.210  11.104   3.192
20900W        W89305  16.803  10.506  12.512
20901W        W89306  39.452   5.653   1.345
20902W        W89307   4.961  23.561   2.830
20903W        W89308  13.877  36.456   4.320
20904W        W89309  34.211  33.076  10.798
20905W        W89310  26.058  31.244  13.821
20906W        W89311  21.706   0.948   1.763
20907W        W89312   7.065   5.941  13.074
20908W        W89313  39.825  21.019   3.844
20909W        W89314  38.496   4.383  14.948
20910W        W89315  33.669  20.647   2.907
20911W        W89316  14.739  23.081  12.622
20912W        W89317  23.556  31.994   2.812
20913W        W89318  36.404   1.943   4.054
20914W        W89319  13.197  31.596  13.627
20915W        W89320  29.277   2.022  11.958
20916W        W89321   2.282   4.503  10.032
20917W        W89322  34.318  30.973  14.782
20918W        W89323  26.476  35.511   2.158
20919W        W89324  29.862   3.202   2.168
20920W        W89325  34.352   9.299   2.672
20921W        W89326   3.901  29.014  11.589
20922W        W89327  42.077   1.057   2.249
20923W        W89328   6.643   7.248  10.560
20924W        W89329  21.245  26.630   4.596
20925W        W89330  11.590   4.892  14.439
20926W        W89331  43.015   9.243   1.189
20927W        W89332  42.183  28.997   5.021
20928W        W89333  34.335  13.398  10.598
20929W        W89334  15.819  40.791  10.446
20930W        W89335  38.506  44.489   0.900
20931W        W89336  19.836  14.775  13.618
20932W        W89337  18.788   0.797   3.353
20933W        W89338  37.005  43.445   3.482
20934W        W89339  30.571  35.358   0.199
20935W        W89340  29.738  16.273  11.751
20936W        W89341  18.639  34.643  10.520
20937W        W89342  34.535  37.881  10.931
20938W        W89343   2.363  41.475   0.283
20939W        W89344  22.918   7.250   3.805
20940W        W89345   4.602  33.688   1.689
20941W        W89346  23.199  26.719  14.027
20942W        W89347  17.104  23.486   2.787
20943W        W89348   8.140  10.432  10.182
20944W        W89349  33.496  32.114  11.580
20945W        W89350  21.037  26.240   0.877
20946W        W89351   7.869   4.676  13.002
20947W        W89352   7.399  29.560   0.781
20948W        W89353  43.632  15.129  14.083
20949W        W89354  23.990  30.462  10.690
20950W        W89355  15.400   0.349   1.281
20951W        W89356  23.600  12.392  11.971
20952W        W89357  40.569   1.776   1.734
20953W        W89358  17.191  20.691   0.208
20954W        W89359  13.592  27.490   4.619
20955W        W89360  20.082  31.419  11.137
20956W        W89361  30.472  33.684   1.792
20957W        W89362  20.681   3.330   1.510
20958W        W89363  32.039  36.281  11.177
20959W        W89364   4.362   9.328  14.946
20960W        W89365  37.501  27.337  13.793
20961W        W89366  18.054   5.666   0.769
20962W        W89367   6.688  41.861  12.415
20963W        W89368  41.872  33.912  14.101
20964W        W89369   0.480  42.535  13.075
20965W        W89370  19.831   6.379   3.530
20966W        W89371  19.731  39.378  13.337
20967W        W89372  30.007  25.533   1.371
20968W        W89373  27.901  24.788   1.306
20969W        W89374   5.486   0.288   0.918
20970W        W89375  41.972   3.264   2.767
20971W        W89376  10.706  30.045  14.284
20972W        W89377  32.040   1.350  12.011
20973W        W89378  32.509  27.038  14.525
20974W        W89379  11.252  10.859  12.137
20975W        W89380   8.190  17.760  12.150
20976W        W89381  33.418  41.502  14.440
20977W        W89382   4.960  21.111   0.837
20978W        W89383  27.024  35.401  10.715
20979W        W89384  22.067   8.129  14.903
20980W        W89385  25.556   4.179   2.606
20981W        W89386  41.624  33.585  11.071
20982W        W89387  37.268  24.180  12.556
20983W        W89388  40.970  42.474   1.850
20984W        W89389  24.659  41.000  14.287
20985W        W89390   4.017  12.191   1.795
20986W        W89391  30.105  43.075   2.383
20987W        W89392   5.416  18.005   5.532
20988W        W89393  13.077  13.511   0.319
20989W        W89394  23.839   7.615   1.839
20990W        W89395  34.447   5.587  11.595
20991W        W89396  15.267  27.281  12.878
20992W        W89397  12.868  16.691  12.598
20993W        W89398  32.928  26.128   2.368
20994W        W89399  39.964  39.634  12.961
20995W        W89400  28.500  39.391  14.788
20996W        W89401  24.974  38.379   2.360
20997W        W89402  24.674  44.415  14.332
20998W        W89403  39.769   8.724   0.264
20999W        W89404   4.318  18.044   3.745
21000W        W89405   1.103  10.661  11.128
21001W        W89406  38.550   6.903  10.189
21002W        W89407  13.310  32.694  12.495
21003W        W89408  12.946   1.766  11.079
21004W        W89409  43.863  18.193   0.515
21005W        W89410  30.495   3.875   3.465
21006W        W89411  40.521   3.733   0.687
21007W        W89412  42.274  31.744  10.661
21008W        W89413  19.687   0.995   2.364
21009W        W89414  42.885  29.904  14.302
21010W        W89415  23.888   9.203  12.983
21011W        W89416  11.696  20.214   0.244
21012W        W89417   2.727  32.175   0.429
21013W        W89418  33.090  21.650   0.334
21014W        W89419  10.761  13.721   1.383
21015W        W89420  15.194  15.843   0.381
21016W        W89421   9.891   3.175   2.559
21017W        W89422  16.697  13.012  12.089
21018W        W89423  34.133   4.390  12.013
21019W        W89424  43.080  10.843   0.203
21020W        W89425  31.182  26.776  11.002
21021W        W89426  22.629  36.351   4.217
21022W        W89427  36.508  37.530   1.914
21023W        W89428  37.109  38.301  14.367
21024W        W89429   8.347   9.775   0.437
21025W        W89430  35.438   0.897  13.973
21026W        W89431  13.776  23.543  14.288
21027W        W89432  29.601  16.730   2.497
21028W        W89433  17.770   0.266  14.977
21029W        W89434  36.006  44.782   4.063
21030W        W89435  28.982  32.960  13.585
21031W        W89436  19.135  22.211   5.225
21032W        W89437  11.727  30.251   0.482
21033W        W89438  38.435  28.516   0.418
21034W        W89439   2.427  17.709   4.221
21035W        W89440   9.895  18.347   4.974
21036W        W89441  12.087  24.017  14.275
21037W        W89442  30.703  12.420   4.320
21038W        W89443  34.053   5.866   2.110
21039W        W89444  39.399  25.106   3.812
21040W        W89445  29.043  35.395  13.907
21041W        W89446  25.623  28.468  14.968
21042W        W89447   0.879  32.121  10.974
21043W        W89448  42.679  37.163  13.300
21044W        W89449   2.494   9.886  11.553
21045W        W89450  32.893  39.199   2.583
21046W        W89451   0.400  32.246  10.101
21047W        W89452   4.150  35.672  14.826
21048W        W89453   6.427  22.007  14.478
21049W        W89454  12.752  21.633  12.738
21050W        W89455  32.698  16.806   4.363
21051W        W89456  14.061  31.252   0.754
21052W        W89457  28.236  27.207   3.704
21053W        W89458  21.693  37.570   1.131
21054W        W89459  44.035  10.760   0.181
21055W        W89460   3.803  30.891  10.667
21056W        W89461   1.560  28.159   1.507
21057W        W89462  10.265   0.088  12.941
21058W        W89463  15.540  14.347   4.970
21059W        W89464  43.543  36.125   1.275
21060W        W89465   4.251  22.343   0.322
21061W        W89466  30.523   8.659  13.002
21062W        W89467  25.144  41.211  14.132
21063W        W89468  28.702  42.300  11.926
21064W        W89469   5.431  14.059  10.746
21065W        W89470  28.658  15.680   3.324
21066W        W89471  32.870  11.263  10.939
21067W        W89472  11.587   9.344   1.888
21068W        W89473  25.481  35.293   0.812
21069W        W89474   6.736  31.926  12.714
21070W        W89475  38.375  39.088   2.360
21071W        W89476   0.168   8.307   0.898
21072W        W89477  41.881  25.187  14.958
21073W        W89478  16.075  20.234  13.970
21074W        W89479  44.881  32.540  12.505
21075W        W89480  13.565   2.837  11.990
21076W        W89481  18.612   8.208  12.102
21077W        W89482  21.930  28.935  13.408
21078W        W89483   6.650  14.106   1.004
21079W        W89484  35.991  41.794   3.841
21080W        W89485   4.238  22.485   3.797
21081W        W89486  34.043  19.426  11.122
21082W        W89487  19.828  32.051   2.281
21083W        W89488  39.045  24.246   2.560
21084W        W89489   0.286  36.360   1.832
21085W        W89490  41.078   6.913   3.608
21086W        W89491   8.726   6.938  13.331
21087W        W89492   3.473  42.526   1.271
21088W        W89493  25.483  19.553  13.695
21089W        W89494   1.086  20.114  10.908
21090W        W89495  13.870   8.255   4.946
21091W        W89496  18.353  35.587  10.717
21092W        W89497  25.521  11.603  13.014
21093W        W89498   0.790   4.893   3.199
21094W        W89499   7.959  41.344   4.118
21095W        W89500  12.698   6.626   3.762
21096W        W89501  39.354  21.074  14.240
21097W        W89502  35.275  18.742   4.680
21098W        W89503  33.891  11.874   3.699
21099W        W89504  33.144  11.574   1.295
21100W        W89505  42.057  18.059  14.765
21101W        W89506  30.550  25.982   2.842
21102W        W89507  14.285   3.963  13.458
21103W        W89508  38.978  26.442   2.222
21104W        W89509  14.279  39.381   0.509
21105W        W89510  30.049  22.216   1.375
21106W        W89511   2.402   3.200   2.391
21107W        W89512  17.326   9.377   3.747
21108W        W89513  17.082  17.617   0.458
21109W        W89514  39.654  13.172   0.798
21110W        W89515  36.892  29.915   3.229
21111W        W89516   7.379  23.648  13.730
21112W        W89517  18.665  24.856   4.983
21113W        W89518  36.421  39.085   4.286
21114W        W89519  22.628  17.971  10.746
21115W        W89520  25.414  29.715   3.598
21116W        W89521   0.388  22.276   3.791
21117W        W89522  11.222  29.700   2.242
21118W        W89523  34.947  14.014   4.801
21119W        W89524  44.263   2.519   0.923
21120W        W89525  15.162  43.676  14.631
21121W        W89526  44.794  33.369   0.893
21122W        W89527  17.511   7.377  12.396
21123W        W89528   6.822  26.692  13.822
21124W        W89529  40.207  13.601   0.134
21125W        W89530  37.593  25.769  14.003
21126W        W89531  30.899  10.867   2.443
21127W        W89532  15.837   2.180  11.029
21128W        W89533  20.172  18.168  10.737
21129W        W89534  40.878  40.782   4.556
21130W        W89535  29.084  13.600  11.987
21131W        W89536  19.397  15.995  13.302
21132W        W89537  22.622  15.558  11.964
21133W        W89538   3.286  35.411   1.818
21134W        W89539  40.562  18.082  14.216
21135W        W89540   9.686  24.870   1.319
21136W        W89541   7.317  28.689  12.361
21137W        W89542   5.417  25.260   1.726
21138W        W89543  23.419  11.884   4.668
21139W        W89544  18.195   7.350   0.107
21140W        W89545  21.472  28.197  10.575
21141W        W89546  17.020  27.928   4.129
21142W        W89547  30.476  39.200   2.445
21143W        W89548  38.581  31.089  13.133
21144W        W89549  24.151  11.270   0.317
21145W        W89550   8.370  10.749  10.955
21146W        W89551  22.989   5.933  12.008
21147W        W89552  14.355  19.528   2.157
21148W        W89553  14.173  18.078   2.125
21149W        W89554  23.186   4.467  11.202
21150W        W89555  24.545   5.143  11.064
21151W        W89556  30.263   7.411  11.205
21152W        W89557   0.297  20.041   1.188
21153W        W89558  39.575   1.525  14.319
21154W        W89559  43.833  41.324  11.546
21155W        W89560  27.152  28.449  11.411
21156W        W89561  33.347  41.003   1.343
21157W        W89562  23.782  40.453   3.146
21158W        W89563  15.607  42.507   3.269
21159W        W89564   8.485  13.474   3.184
21160W        W89565   2.702  18.637  14.867
21161W        W89566   4.247  17.182  12.837
21162W        W89567   7.734  11.273  14.724
21163W        W89568   2.673  41.559  10.751
21164W        W89569  40.410  19.907  14.848
21165W        W89570  20.335  29.982  12.334
21166W        W89571  30.439  31.222   1.717
21167W        W89572  16.026  25.753   9.797
21168W        W89573  19.252  13.549   3.696
21169W        W89574   8.865   1.992  14.028
21170W        W89575  28.945  23.146  10.384
21171W        W89576  40.395   0.297   2.530
21172W        W89577  38.582   7.294   1.374
21173W        W89578   6.820  43.286  13.533
21174W        W89579  42.565   0.911   3.647
21175W        W89580  23.083   7.847  14.426
21176W        W89581  10.279   7.777   4.714
21177W        W89582   1.422  36.049  12.449
21178W        W89583  37.845  30.908   4.827
21179W        W89584  41.806  38.712   2.622
21180W        W89585  31.002   5.423   0.503
21181W        W89586   3.176  31.095  13.229
21182W        W89587  25.565  19.715   1.251
21183W        W89588  30.501  36.391  14.798
21184W        W89589   6.952   3.402   2.391
21185W        W89590  25.911  21.773   4.097
21186W        W89591  11.232   8.431  13.406
21187W        W89592  33.927  38.185   3.431
21188W        W89593   4.329  15.569   4.699
21189W        W89594  21.587  23.928  10.419
21190W        W89595  18.838  42.970  11.420
21191W        W89596   9.480   8.129   0.684
21192W        W89597  22.577  33.314  12.165
21193W        W89598  32.024  23.000  12.008
21194W        W89599  32.532  42.996  11.033
21195W        W89600   8.237  44.519   3.908
21196W        W89601  33.429  13.387   4.638
21197W        W89602   8.455  13.873   2.413
21198W        W89603  33.216  39.179  12.455
21199W        W89604  26.251   9.142   0.715
21200W        W89605  43.293   0.137  12.426
21201W        W89606  44.707  35.898  12.958
21202W        W89607  15.778   6.884  10.276
21203W        W89608  36.795   5.937  14.768
21204W        W89609  15.051  10.480   4.220
21205W        W89610  30.679  37.202   1.451
21206W        W89611   4.930  44.855  10.941
21207W        W89612  28.212  30.821   3.364
21208W        W89613  27.381  17.641  11.162
21209W        W89614   3.706  20.092   0.385
21210W        W89615  37.089  10.192  12.416
21211W        W89616  21.555  20.021   1.986
21212W        W89617  17.747  36.379   2.224
21213W        W89618  25.403  44.010  10.682
21214W        W89619   3.421  22.029   4.830
21215W        W89620  28.065  24.953  14.288
21216W        W89621  22.559  14.582  12.088
21217W        W89622  33.482   5.144  13.876
21218W        W89623  13.177  18.770   2.892
21219W        W89624  17.304   2.779  13.379
21220W        W89625   0.845  41.270   0.766
21221W        W89626  17.191  14.713  14.241
21222W        W89627   8.791  36.945  12.099
21223W        W89628  37.428  23.253  12.665
21224W        W89629  16.635  11.626  14.240
21225W        W89630  17.111  30.127  10.734
21226W        W89631  37.597  31.610   3.658
21227W        W89632  11.311   5.704   3.260
21228W        W89633  11.738  30.480   3.697
21229W        W89634  28.155  10.815  13.132
21230W        W89635  14.107  32.316   2.054
21231W        W89636   7.361  20.060   4.212
21232W        W89637  26.056  43.095   1.312
21233W        W89638  28.496  27.618  11.175
21234W        W89639  17.958   4.387   2.410
21235W        W89640  27.235  38.946   4.474
21236W        W89641   8.155   0.897  11.881
21237W        W89642  11.367  12.880  14.501
21238W        W89643  36.281  36.756  14.994
21239W        W89644  29.664  30.360   2.780
21240W        W89645  12.344  14.679   0.959
21241W        W89646   9.339  29.869  14.116
21242W        W89647   4.250  31.276   4.049
21243W        W89648   9.103  27.207   3.281
21244W        W89649  13.629   8.634   4.106
21245W        W89650  36.517  16.281  13.085
21246W        W89651  32.148  21.958  11.197
21247W        W89652   9.267  12.260   3.842
21248W        W89653  39.687  23.650   1.919
21249W        W89654   4.264  35.825   1.702
21250W        W89655  10.103  28.005  14.714
21251W        W89656  32.318   3.282   0.894
21252W        W89657  29.348  20.593   1.696
21253W        W89658   3.368   8.275  14.381
21254W        W89659  11.316  12.461   2.814
21255W        W89660  13.935  44.415  13.937
21256W        W89661  33.906  39.515   4.470
21257W        W89662  34.405  15.651   2.387
21258W        W89663  32.150  12.648  11.292
21259W        W89664   2.354  29.275   3.069
21260W        W89665  21.553   7.818   1.687
21261W        W89666  11.587  10.704   2.400
21262W        W89667  19.053   4.142   0.018
21263W        W89668   8.420  23.942  11.682
21264W        W89669  31.857  14.317  13.911
21265W        W89670  36.556   5.195   1.863
21266W        W89671  13.701  15.241  10.678
21267W        W89672  28.934  42.911  10.445
21268W        W89673  36.495  13.222   2.762
21269W        W89674  22.682  41.580  14.779
21270W        W89675   4.840  36.910  13.274
21271W        W89676  32.914  38.049  12.912
21272W        W89677  23.252  25.555   4.061
21273W        W89678   9.739  29.475  12.386
21274W        W89679   6.179  14.072  14.429
21275W        W89680  19.887  11.908  13.585
21276W        W89681  19.660  10.228  13.477
21277W        W89682  26.011   1.973   2.907
21278W        W89683   5.719  17.068   4.146
21279W        W89684  22.770   0.352   2.666
21280W        W89685  16.871  40.528  12.282
21281W        W89686  35.991  11.445  11.256
21282W        W89687  10.322   8.392   0.351
21283W        W89688  24.605  24.487  11.573
21284W        W89689  38.942  12.334  11.607
21285W        W89690  10.640   4.796  13.475
21286W        W89691  28.593  17.778   1.541
21287W        W89692  39.814  20.195  10.746
21288W        W89693  37.607  11.329   0.759
21289W        W89694  33.000  15.232  11.047
21290W        W89695  25.236   4.345   3.352
21291W        W89696   7.307  12.645   3.648
21292W        W89697  26.983  42.772  13.425
21293W        W89698   8.218  27.169  13.635
21294W        W89699  41.776   9.197  11.385
21295W        W89700  18.594  25.936  10.431
21296W        W89701  35.948  32.179  11.128
21297W        W89702   1.405  16.055  14.424
21298W        W89703  41.729   9.472   4.427
21299W        W89704  26.166  34.857  11.198
21300W        W89705   2.408  41.446  11.941
21301W        W89706  20.727  41.943  13.988
21302W        W89707  13.931   3.011   5.143
21303W        W89708   9.382   5.254  11.141
21304W        W89709  32.817  19.250  14.714
21305W        W89710  25.880  33.843  13.098
21306W        W89711  28.163  11.458  13.775
21307W        W89712  20.301  20.113  11.861
21308W        W89713  13.345  30.335  12.023
21309W        W89714   9.616  40.805  12.823
21310W        W89715  17.533  39.210   2.563
21311W        W89716  15.318  40.441   2.433
21312W        W89717  13.640  41.216  11.642
21313W        W89718   2.112  28.892   1.363
21314W        W89719   1.701  44.309   3.367
21315W        W89720  38.345  37.432  12.813
21316W        W89721  33.518   3.166  13.472
21317W        W89722   5.520  19.090   3.801
21318W        W89723  17.399   4.037  13.791
21319W        W89724  13.601  25.876   4.129
21320W        W89725  22.449  18.767  14.325
21321W        W89726  34.170  15.658  12.162
21322W        W89727   2.755  42.282   2.626
21323W        W89728  27.456  19.817   2.303
21324W        W89729  20.392  19.412   0.614
21325W        W89730  11.672  10.140   0.392
21326W        W89731   2.381  35.988  10.842
21327W        W89732  21.087  40.094  14.974
21328W        W89733  42.374  19.498  12.490
21329W        W89734   5.432   9.135  12.573
21330W        W89735  11.747  33.600   0.977
21331W        W89736  35.907  14.757   1.949
21332W        W89737  43.867  27.600  11.850
21333W        W89738  31.514  19.520   3.250
21334W        W89739   1.678  44.264   1.013
21335W        W89740  13.704  35.986   4.410
21336W        W89741  18.029  13.395   3.169
21337W        W89742   4.926  32.612  13.932
21338W        W89743  29.194  32.092   4.595
21339W        W89744   8.550  21.512  14.479
21340W        W89745  42.840  33.618   2.923
21341W        W89746  19.054  10.117  10.706
21342W        W89747  25.091  23.772  10.679
21343W        W89748  16.374   4.674   0.675
21344W        W89749  33.656   8.432  13.700
21345W        W89750  23.738  20.122  13.857
21346W        W89751   8.034  14.236   0.768
21347W        W89752  19.305  40.977   4.844
21348W        W89753  31.173  24.465   0.427
21349W        W89754  22.299  31.167  12.964
21350W        W89755  29.006  12.690  13.261
21351W        W89756   1.908  25.937   3.599
21352W        W89757   6.717  11.852  12.843
21353W        W89758   7.501  44.751   2.804
21354W        W89759  16.164  43.296   0.222
21355W        W89760  29.813  22.160  12.811
21356W        W89761  31.390   5.453   1.229
21357W        W89762   3.165  35.394   0.891
21358W        W89763  14.526   5.889  11.744
21359W        W89764  40.125  15.981   0.844
21360W        W89765  30.113  25.035   4.041
21361W        W89766  35.139  24.570   3.867
21362W        W89767  14.368  27.682   0.756
21363W        W89768  34.569   5.907  10.681
21364W        W89769   8.324  36.399  12.979
21365W        W89770   7.843  18.910   2.423
21366W        W89771   5.314   0.975   3.157
21367W        W89772  10.197  38.151   4.889
21368W        W89773  39.551   2.669   3.194
21369W        W89774  21.576  44.000   1.635
21370W        W89775  44.831  38.074  14.820
21371W        W89776  38.039  22.695  12.080
21372W        W89777  18.425  24.940   1.704
21373W        W89778  18.807  27.177   1.364
21374W        W89779  13.625  21.799   0.387
21375W        W89780  22.707  11.723  13.495
21376W        W89781  23.567   7.920  14.885
21377W        W89782  15.533  21.600  12.463
21378W        W89783  18.312  31.950   0.485
21379W        W89784  26.552  10.971  13.348
21380W        W89785   6.959  16.922   3.823
21381W        W89786  26.272   2.988   0.517
21382W        W89787   9.222   3.895  12.509
21383W        W89788  19.680   1.311  13.097
21384W        W89789  19.979   3.989   0.529
21385W        W89790  11.182  22.228  12.905
21386W        W89791  33.302  24.687   2.850
21387W        W89792  22.917  35.853   1.652
21388W        W89793   5.385   8.373  12.856
21389W        W89794  11.535  38.463  12.861
21390W        W89795   6.415  23.816  13.558
21391W        W89796   3.949   5.309   5.101
21392W        W89797  38.879  23.232  10.624
21393W        W89798  18.193  25.979   1.751
21394W        W89799  38.458  34.631   0.797
21395W        W89800  44.520   2.221  11.929
21396W        W89801  38.945  23.080   1.684
21397W        W89802   5.221   2.098  13.035
21398W        W89803  26.278  12.267  13.502
21399W        W89804  17.148   2.929   0.690
21400W        W89805  19.677  19.220  13.115
21401W        W89806  10.790  23.588   0.814
21402W        W89807  31.569  25.569   3.365
21403W        W89808  24.470  30.911   0.460
21404W        W89809  38.849  43.991   1.299
21405W        W89810   4.499   6.486   3.079
21406W        W89811  34.397  13.798  14.505
21407W        W89812  33.640   3.649  13.256
21408W        W89813   7.684  27.018  11.447
21409W        W89814  11.295  37.427   4.503
21410W        W89815   6.282  31.363   0.478
21411W        W89816   9.705   5.807   2.360
21412W        W89817  25.104   1.866  14.966
21413W        W89818   6.135  28.560   4.149
21414W        W89819  15.720   3.244   1.851
21415W        W89820  29.087  34.097  12.198
21416W        W89821  17.103  16.084   0.500
21417W        W89822  43.560  18.756   2.286
21418W        W89823   0.726   1.691  11.232
21419W        W89824  28.008   9.375   2.103
21420W        W89825   7.776  37.952   0.657
21421W        W89826  12.826   1.634   2.158
21422W        W89827  38.257  21.260  14.132
21423W        W89828   4.470  20.798   2.473
21424W        W89829   0.726  40.511   2.897
21425W        W89830   8.408   0.430   1.146
21426W        W89831   4.960  10.773  13.535
21427W        W89832  29.401  10.123   4.330
21428W        W89833  22.781  40.060  13.082
21429W        W89834  17.388  16.535  12.851
21430W        W89835  25.090   4.356   1.085
21431W        W89836   3.592  16.106  13.002
21432W        W89837  26.751  38.866  10.291
21433W        W89838  37.408   2.512  12.700
21434W        W89839  25.406  20.379  13.059
21435W        W89840  31.619  27.002   2.880
21436W        W89841  21.178   1.202   4.846
21437W        W89842  32.212   0.543  13.210
21438W        W89843  31.154   8.733  11.090
21439W        W89844  14.631  15.364   1.167
21440W        W89845  10.427  23.973  13.016
21441W        W89846  19.801  19.214  14.990
21442W        W89847  34.449  40.546   0.696
21443W        W89848  15.100   4.906  10.738
21444W        W89849  10.524  18.243   2.108
21445W        W89850   7.429  20.616  10.680
21446W        W89851  28.973  25.330   1.847
21447W        W89852  22.404  43.995  14.887
21448W        W89853  31.993  22.252  11.652
21449W        W89854  42.494  33.092   4.567
21450W        W89855  23.191   3.885   1.708
21451W        W89856  32.176   6.751  12.109
21452W        W89857  27.613  22.748  11.553
21453W        W89858  16.619  26.056   2.644
21454W        W89859  29.600   8.072  13.864
21455W        W89860  23.424   8.950  11.491
21456W        W89861  16.363  37.844   1.877
21457W        W89862  36.050  21.117  10.049
21458W        W89863  39.516  12.667   1.900
21459W        W89864  24.132   7.231   2.619
21460W        W89865  36.516  18.231  10.890
21461W        W89866  19.678  36.568  13.882
21462W        W89867  11.417  42.385   4.976
21463W        W89868  42.054  42.786   3.739
21464W        W89869  29.659  19.158  12.872
21465W        W89870  40.186  18.025   2.435
21466W        W89871  22.610  42.425  10.730
21467W        W89872  43.774   8.338   0.345
21468W        W89873  29.474  28.552   2.394
21469W        W89874  33.192  15.342   1.412
21470W        W89875  16.085  32.932   2.248
21471W        W89876  12.296  27.898  13.627
21472W        W89877  34.071  20.701   4.166
21473W        W89878  19.180  14.640   4.576
21474W        W89879   6.012   1.837  10.494
21475W        W89880   0.319  39.620   1.394
21476W        W89881  42.560  43.285  12.565
21477W        W89882   7.516  17.222  12.144
21478W        W89883  39.791   4.957   1.651
21479W        W89884  19.177  17.990   2.842
21480W        W89885  31.848  25.366  13.511
21481W        W89886  25.225  27.003   0.760
21482W        W89887  24.171   0.917  14.430
21483W        W89888  12.316  35.948  13.018
21484W        W89889  11.319  30.226  13.541
21485W        W89890  21.203   3.431   0.872
21486W        W89891  12.178  18.379  14.349
21487W        W89892  35.519  12.913  13.370
21488W        W89893  28.620  10.274   1.390
21489W        W89894  15.798   1.743  11.954
21490W        W89895   2.807  19.242   3.291
21491W        W89896  43.850  42.703  11.956
21492W        W89897  37.684   1.484   1.749
21493W        W89898  37.641  25.205  12.502
21494W        W89899  28.659  26.117  13.333
21495W        W89900  22.445  19.068   1.933
21496W        W89901  29.109  33.331   4.586
21497W        W89902  15.117   5.939   2.214
21498W        W89903  22.991   3.624  11.102
21499W        W89904   9.310  17.715   1.735
21500W        W89905  15.923  11.154   1.406
21501W        W89906   6.633  12.035  11.544
21502W        W89907   0.814   7.530  11.239
21503W        W89908  44.232  28.878   1.423
21504W        W89909  20.200   4.367  12.621
21505W        W89910  29.435  32.699   1.254
21506W        W89911   4.276  25.225  14.465
21507W        W89912   3.221   2.371  14.521
21508W        W89913   2.209  31.872   0.002
21509W        W89914  23.159   1.750  11.079
21510W        W89915  14.990  16.010  13.632
21511W        W89916  35.386  34.978  11.123
21512W        W89917  23.286   8.591  12.129
21513W        W89918   2.806  44.661  12.919
21514W        W89919  30.913  33.597  11.931
21515W        W89920  34.693  40.449  11.393
21516W        W89921  28.314   9.030  12.792
21517W        W89922  11.704  14.386   2.332
21518W        W89923   3.466  42.955  11.074
21519W        W89924   7.757   0.436   4.557
21520W        W89925  23.793  17.536   3.188
21521W        W89926  44.041  20.056  10.427
21522W        W89927  41.930  24.902   1.283
21523W        W89928  33.439  11.313  13.435
21524W        W89929  27.649   6.335   4.840
21525W        W89930  23.694  40.164  10.735
21526W        W89931  30.520   2.252   3.096
21527W        W89932  40.123  10.667   3.614
21528W        W89933  22.735  35.985   0.783
21529W        W89934  44.758   6.334   0.859
21530W        W89935  34.164   6.328   0.328
21531W        W89936  24.905  30.490  13.070
21532W        W89937  27.521  40.789   1.724
21533W        W89938  35.361  20.249   0.397
21534W        W89939  34.013  20.524  11.604
21535W        W89940  22.037   7.252  10.566
21536W        W89941  20.090  34.752   2.650
21537W        W89942  16.159   7.447   1.922
21538W        W89943  44.475  10.686  13.129
21539W        W89944  14.929  29.047   1.602
21540W        W89945   9.140  15.384  14.201
21541W        W89946  29.698  34.586   3.373
21542W        W89947  43.509  12.407  13.610
21543W        W89948  27.634  15.720   2.450
21544W        W89949  24.682  22.444  11.645
21545W        W89950   4.253  21.134  11.983
21546W        W89951  39.862  24.754  14.869
21547W        W89952  41.576  26.375  12.451
21548W        W89953  43.914   6.834   4.558
21549W        W89954  33.908   0.496  14.052
21550W        W89955  30.425  42.747  10.646
21551W        W89956  43.282  34.068  13.604
21552W        W89957   0.384   8.247  10.947
21553W        W89958   1.222  38.828  14.492
21554W        W89959  20.604  34.065  11.648
21555W        W89960  38.443  13.109   1.353
21556W        W89961  19.332   8.340   2.370
21557W        W89962  32.086  24.091  13.165
21558W        W89963  16.060  32.564  13.338
21559W        W89964  21.051   2.240  10.592
21560W        W89965  28.030  28.867   4.539
21561W        W89966  43.521  39.265   3.810
21562W        W89967  14.677  11.895  13.509
21563W        W89968  36.134  25.203  12.400
21564W        W89969  11.529   3.278  12.204
21565W        W89970  40.503  43.954  14.228
21566W        W89971  27.889  19.997  14.788
21567W        W89972  29.992   4.599  12.989
21568W        W89973  30.662   0.496   4.591
21569W        W89974  24.123  40.006   0.481
21570W        W89975  33.565  31.667  13.778
21571W        W89976  13.442  18.610  13.284
21572W        W89977  31.092  39.652  11.505
21573W        W89978   6.250  21.080   3.271
21574W        W89979   0.078  19.139  10.676
21575W        W89980   3.756  42.569   3.716
21576W        W89981  19.327   7.466  10.741
21577W        W89982  19.463   0.946  12.365
21578W        W89983  14.891  28.641   2.932
21579W        W89984  25.105  19.088   4.682
21580W        W89985  36.414   9.701  14.875
21581W        W89986  11.863  39.264  13.864
21582W        W89987  22.610  34.386   4.649
21583W        W89988  31.116   7.537   4.339
21584W        W89989  16.157  38.736  14.774
21585W        W89990  16.575  37.838   2.382
21586W        W89991  16.821  35.000  12.435
21587W        W89992  30.968  33.578  10.585
21588W        W89993  39.718  13.044   2.674
21589W        W89994  10.677   4.319   4.288
21590W        W89995  40.431   9.150   0.746
21591W        W89996   6.147  18.179  12.429
21592W        W89997  43.279   2.272   4.548
21593W        W89998   3.212   1.440  12.309
21594W        W89999   1.226  17.048   3.189
21595W        W90000  22.531  15.654   0.874
21596W        W90001  33.164   1.774   4.473
21597W        W90002  29.044  37.930   4.179
21598W        W90003   8.800  13.755   2.797
21599W        W90004  11.515  42.417   3.600
21600W        W90005   2.913   5.389   0.097
21601W        W90006   3.946  12.037  13.232
21602W        W90007  25.648  13.526   4.553
21603W        W90008  17.815   9.785  13.384
21604W        W90009  22.127  25.183   4.439
21605W        W90010  43.894  36.934   3.363
21606W        W90011  44.339  25.343  11.268
21607W        W90012  16.603  36.155  11.172
21608W        W90013   4.183  40.394  10.904
21609W        W90014  30.659  24.071   0.920
21610W        W90015  43.247  25.090   2.206
21611W        W90016   0.935  40.781   0.649
21612W        W90017  35.775  41.724  11.198
21613W        W90018   1.277  17.239   0.179
21614W        W90019   8.212  38.811  11.203
21615W        W90020  22.917  10.160   0.526
21616W        W90021  19.499   8.016   1.959
21617W        W90022  44.703   5.521   1.981
21618W        W90023   2.873   4.818   1.792
21619W        W90024  15.067  44.881   4.901
21620W        W90025  38.378  33.322  10.765
21621W        W90026  31.794  33.692  12.669
21622W        W90027  36.489  29.715  13.665
21623W        W90028   4.748  43.402   1.312
21624W        W90029  43.017  11.344   4.963
21625W        W90030   1.038  40.756   1.158
21626W        W90031  16.151  44.967   0.043
21627W        W90032  42.404  38.821  11.657
21628W        W90033  30.609   7.621   4.332
21629W        W90034  22.000  23.636   4.727
21630W        W90035  35.456  36.482   1.293
21631W        W90036  15.205   2.692   1.327
21632W        W90037  26.084   9.096   4.531
21633W        W90038   5.798  16.693  11.760
21634W        W90039  39.422  14.303   0.203
21635W        W90040  31.939   8.278   1.968
21636W        W90041   9.719  26.270  12.801
21637W        W90042  37.135  38.930   4.515
21638W        W90043  28.566  26.787  13.858
21639W        W90044  12.172  42.976   4.324
21640W        W90045  30.778  14.442  11.662
21641W        W90046  25.990  44.823   4.362
21642W        W90047   2.472  13.620  14.472
21643W        W90048  40.592  20.150  14.420
21644W        W90049   3.870  15.659  13.004
21645W        W90050  24.028   0.069   1.859
21646W        W90051  19.611  24.131  12.106
21647W        W90052  39.089   9.140   2.335
21648W        W90053   1.630  42.812   2.281
21649W        W90054  39.500  18.589  12.053
21650W        W90055  21.032  26.998  10.901
21651W        W90056  13.320   8.912  12.218
21652W        W90057  13.551  19.137   4.508
21653W        W90058   0.604  16.204  11.952
21654W        W90059  14.246   1.189   3.759
21655W        W90060   7.302  37.595   4.372
21656W        W90061  20.347  37.077  14.783
21657W        W90062   1.219  25.387   4.886
21658W        W90063   8.068  41.290  10.935
21659W        W90064  24.382  36.487  14.451
21660W        W90065   3.251  17.045   1.730
21661W        W90066  41.748  39.897   2.229
21662W        W90067   9.875   1.483   0.479
21663W        W90068   9.389  19.673   2.681
21664W        W90069  44.536  36.193  13.968
21665W        W90070   0.978   0.406   1.415
21666W        W90071  28.371  12.883   3.836
21667W        W90072   0.857  38.474  13.417
21668W        W90073  28.217  10.847  14.429
21669W        W90074  14.254  25.121  10.671
21670W        W90075  21.590  43.075   2.741
21671W        W90076   3.402  36.061   2.612
21672W        W90077  29.010  36.930  10.917
21673W        W90078  13.847  28.608  14.076
21674W        W90079  13.861   7.875   2.091
21675W        W90080  36.304   4.264   1.963
21676W        W90081  16.669  41.785  14.255
21677W        W90082  41.448  18.257   0.457
21678W        W90083   7.616  20.514   4.288
21679W        W90084  24.769  10.273   1.881
21680W        W90085  43.359  22.646  12.089
21681W        W90086  12.271  44.744   2.794
21682W        W90087  16.535  38.885   0.480
21683W        W90088   7.388  43.645  10.941
21684W        W90089  12.366  39.414   1.766
21685W        W90090  23.502  30.467  13.608
21686W        W90091  40.440  28.640   1.159
21687W        W90092  22.716  33.562  13.375
21688W        W90093  31.157   1.235   2.714
21689W        W90094  27.659  39.219  10.554
21690W        W90095  17.021  26.097   4.013
21691W        W90096  11.530   2.423   5.085
21692W        W90097  10.402  32.166   5.044
21693W        W90098  23.063   6.027  14.986
21694W        W90099   9.661  18.511   2.206
21695W        W90100  10.082  27.379   1.220
21696W        W90101  18.266  12.155   1.782
21697W        W90102  28.118  23.027   0.210
21698W        W90103  30.824  37.881  14.795
21699W        W90104  39.490  25.544   4.690
21700W        W90105  29.866  26.009   3.107
21701W        W90106  24.650   3.708   1.319
21702W        W90107  23.987  16.541   2.711
21703W        W90108  11.220  36.876   1.696
21704W        W90109   0.329  18.210  13.167
21705W        W90110   0.749   6.322   4.323
21706W        W90111  10.694  37.422   3.662
21707W        W90112  31.283  26.094   4.056
21708W        W90113  31.362  35.350   2.653
21709W        W90114  16.799  40.969  11.979
21710W        W90115  41.590  23.578   3.306
21711W        W90116   9.667  18.781  12.789
21712W        W90117  26.960   2.615   4.590
21713W        W90118  11.663  40.203   4.102
21714W        W90119  37.377   8.721  10.624
21715W        W90120   9.472  32.068   0.116
21716W        W90121  20.765  15.577  10.170
21717W        W90122  22.159  35.453  10.676
21718W        W90123   3.553  28.492  10.687
21719W        W90124  21.109   6.629   3.610
21720W        W90125  17.736  44.029   2.335
21721W        W90126  21.215   9.882  13.498
21722W        W90127  41.443  39.595  12.032
21723W        W90128  23.191   5.287   1.675
21724W        W90129  10.687  32.432   2.788
21725W        W90130  10.827  16.789  12.376
21726W        W90131   8.808  24.672  12.081
21727W        W90132   8.910   9.551   2.886
21728W        W90133  33.822  20.868   0.707
21729W        W90134   9.309   6.257   3.277
21730W        W90135  23.494  18.698  13.050
21731W        W90136  33.635   1.361   2.713
21732W        W90137  25.640   2.196  10.953
21733W        W90138   9.142  30.427   0.813
21734W        W90139  32.378  10.899   4.257
21735W        W90140  33.209  33.662   1.883
21736W        W90141  18.844  38.926  12.891
21737W        W90142  28.081   5.268   9.787
21738W        W90143  34.367  22.129  13.217
21739W        W90144  43.471   0.203  11.133
21740W        W90145  21.248   1.015   3.131
21741W        W90146   3.566  18.573   3.201
21742W        W90147   5.743  37.980  14.712
21743W        W90148  11.267  13.588   1.300
21744W        W90149  40.456  33.180  11.909
21745W        W90150   1.391   8.851   1.504
21746W        W90151  18.029  12.613  13.627
21747W        W90152  36.488  39.471   3.537
21748W        W90153  19.651  34.375   0.050
21749W        W90154  19.312   1.169  11.928
21750W        W90155  14.740  27.489  13.000
21751W        W90156   3.676  34.802   0.006
21752W        W90157  44.990   9.118  13.331
21753W        W90158  35.043  25.039   4.597
21754W        W90159  16.814   6.939   4.133
21755W        W90160   2.385  18.211  13.060
21756W        W90161  23.040  33.342   1.752
21757W        W90162  30.665  44.696  10.623
21758W        W90163   1.759   6.170   1.779
21759W        W90164  22.880  39.927   4.606
21760W        W90165  25.039  28.914   1.710
21761W        W90166  39.446   3.761  11.046
21762W        W90167   8.283  42.666   3.364
21763W        W90168  16.701  40.164  14.745
21764W        W90169  24.333  32.915   3.275
21765W        W90170  20.037  31.139  10.703
21766W        W90171  11.375   0.961  13.825
21767W        W90172  40.087  25.879   1.198
21768W        W90173  10.705  21.783   0.469
21769W        W90174   0.308  32.798   0.282
21770W        W90175   8.885  23.126   3.668
21771W        W90176  18.252  26.454   1.969
21772W        W90177   8.732   5.428   2.889
21773W        W90178   5.000  10.378   3.575
21774W        W90179  13.810  44.715  11.566
21775W        W90180  40.525  41.056   3.373
21776W        W90181  41.892  40.788  11.180
21777W        W90182  18.804  34.003  14.258
21778W        W90183  18.294  36.949  14.505
21779W        W90184  31.247   8.243  14.357
21780W        W90185  23.013   2.635  10.927
21781W        W90186  26.007  13.314  13.536
21782W        W90187   2.830  18.906  12.462
21783W        W90188  40.547   2.956  10.935
21784W        W90189  35.054   0.333   2.361
21785W        W90190  34.504  34.109  13.069
21786W        W90191  20.200  16.521   4.327
21787W        W90192   4.225  16.739  14.371
21788W        W90193   1.401  23.623  14.776
21789W        W90194  34.854  31.324  11.582
21790W        W90195  10.390  24.969  14.419
21791W        W90196   9.292  28.091  12.819
21792W        W90197  28.720  42.561   5.025
21793W        W90198  15.641  25.096  11.553
21794W        W90199   4.218  24.417  12.160
21795W        W90200  20.762  28.245  10.931
21796W        W90201  30.888  35.910   4.241
21797W        W90202  41.445  42.560  13.046
21798W        W90203  30.684  17.608   4.179
21799W        W90204  17.745  41.927   1.316
21800W        W90205   2.416  12.741  14.254
21801W        W90206  37.062  23.201  14.127
21802W        W90207   9.176  18.679   3.657
21803W        W90208  17.016  17.652   1.938
21804W        W90209   2.860  35.401  12.338
21805W        W90210  19.588  33.493  10.389
21806W        W90211  39.804   0.506   0.813
21807W        W90212   6.377  30.138  10.209
21808W        W90213  10.606  24.645   0.931
21809W        W90214  24.949  22.197  14.846
21810W        W90215  42.880   4.484  11.161
21811W        W90216  18.792   8.714  11.157
21812W        W90217   9.636  34.524  11.113
21813W        W90218   7.503  33.403   2.827
21814W        W90219   5.006   5.639   4.134
21815W        W90220  11.937   3.846  14.313
21816W        W90221  38.348   7.572   5.437
21817W        W90222   2.326  28.365  13.801
21818W        W90223  36.341  27.905   1.001
21819W        W90224   9.895  32.861   2.187
21820W        W90225   2.312  17.148   0.779
21821W        W90226   7.731  34.561  12.001
21822W        W90227  12.272   2.837   3.818
21823W        W90228  31.213  15.587  14.055
21824W        W90229  17.184  42.039   5.097
21825W        W90230  24.555  36.860   2.260
21826W        W90231  16.512   0.761   0.430
21827W        W90232  13.938   9.200   3.767
21828W        W90233  33.162   2.841   3.681
21829W        W90234  29.342  18.741   4.999
21830W        W90235   3.412   2.240  10.718
21831W        W90236   5.907  19.120   4.849
21832W        W90237  18.809  28.228   0.704
21833W        W90238  17.966  37.237  11.887
21834W        W90239  38.608   8.225  12.558
21835W        W90240  39.383   5.237  14.829
21836W        W90241   0.764  20.404  13.804
21837W        W90242  33.190   1.129  14.903
21838W        W90243  35.846  17.168  13.340
21839W        W90244  14.644  26.791   2.360
21840W        W90245  44.353  38.935   4.581
21841W        W90246  20.034  17.911  12.435
21842W        W90247  26.429  24.089  12.028
21843W        W90248   1.984  20.781  11.557
21844W        W90249   9.294   7.462   5.179
21845W        W90250  11.217  42.434   1.497
21846W        W90251  44.838  21.490   0.398
21847W        W90252  19.818  35.482   2.165
21848W        W90253   3.223  28.443  11.174
21849W        W90254  11.827  34.894   4.626
21850W        W90255  11.834  22.252  13.349
21851W        W90256  14.386   8.871   4.515
21852W        W90257  20.039  15.291  14.473
21853W        W90258  25.104  31.719   3.719
21854W        W90259  35.715   6.925  13.589
21855W        W90260  41.458   1.760   4.630
21856W        W90261  18.671  41.961  11.994
21857W        W90262  43.253  15.252   4.172
21858W        W90263  20.718  24.076  12.854
21859W        W90264  31.226  15.008  10.742
21860W        W90265  18.052  17.997   0.802
21861W        W90266  40.000  24.267   4.770
21862W        W90267  19.268   6.221   0.704
21863W        W90268   4.206   1.502   0.036
21864W        W90269  13.854  35.956   2.064
21865W        W90270  39.657   2.535  11.968
21866W        W90271  17.147  15.279  11.001
21867W        W90272   7.403   2.339  14.801
21868W        W90273  41.520   4.514   1.402
21869W        W90274  19.198  33.174  12.400
21870W        W90275   6.104  20.151   0.362
21871W        W90276   8.651  23.528  14.537
21872W        W90277   9.212  30.327   2.725
21873W        W90278  27.134   5.989  11.571
21874W        W90279  27.473  20.727  11.603
21875W        W90280   8.863  33.909  12.341
21876W        W90281  21.761  32.056  10.526
21877W        W90282  38.740   0.297   3.011
21878W        W90283   6.214  44.739  10.747
21879W        W90284  13.065  15.873  13.453
21880W        W90285  36.310  37.496  13.925
21881W        W90286  13.838   8.941   1.299
21882W        W90287  16.080   8.573  10.991
21883W        W90288  25.499  31.121  13.543
21884W        W90289   9.734  27.899   5.043
21885W        W90290  24.327  42.676  11.214
21886W        W90291  44.081  12.777   2.971
21887W        W90292  17.148  38.623  13.968
21888W        W90293  44.315  40.001   1.278
21889W        W90294  34.189  12.055  12.530
21890W        W90295  37.852  41.249  14.485
21891W        W90296  35.951  34.390   1.088
21892W        W90297  33.537  42.043   4.036
21893W        W90298   9.884  27.061   0.381
21894W        W90299   7.095  16.376  13.788
21895W        W90300  11.628   0.915  11.847
21896W        W90301  36.449  18.868  11.537
21897W        W90302  35.488  17.671  14.499
21898W        W90303   4.654   8.609  10.707
21899W        W90304  26.131  29.198  12.394
21900W        W90305  40.292  22.576   2.418
21901W        W90306  21.545  20.573   2.667
21902W        W90307  43.440   0.202  14.101
21903W        W90308  44.590  29.346   1.384
21904W        W90309   7.728   8.155  14.827
21905W        W90310  19.790   5.303  14.333
21906W        W90311  44.566   8.995   4.611
21907W        W90312  38.420   6.529  14.750
21908W        W90313  17.534   3.419   1.320
21909W        W90314  12.712  41.673  13.828
21910W        W90315  24.007  42.298   2.410
21911W        W90316  41.966  39.820   0.879
21912W        W90317  31.420  13.041   0.444
21913W        W90318  12.184  43.814  13.457
21914W        W90319   1.216  31.946  14.602
21915W        W90320  13.058  22.664  13.571
21916W        W90321  29.049  25.729  10.744
21917W        W90322   8.667  33.103   3.191
21918W        W90323  21.161   8.806  12.474
21919W        W90324  14.942   0.276  11.056
21920W        W90325  39.711  11.706   5.054
21921W        W90326  38.306  24.146   3.284
21922W        W90327  28.911   1.452  12.557
21923W        W90328  28.669   4.973  12.954
21924W        W90329  43.729  31.035  14.516
21925W        W90330   5.369  26.744   3.489
21926W        W90331  43.475  31.509  13.482
21927W        W90332  25.939   7.897   1.903
21928W        W90333   9.659  36.185   0.360
21929W        W90334  40.319   8.837  13.508
21930W        W90335  34.262  29.012  10.532
21931W        W90336  41.311  36.533   3.700
21932W        W90337  18.041  37.963  12.429
21933W        W90338  21.055   3.955  10.476
21934W        W90339  23.379   5.013   4.096
21935W        W90340  11.907  18.231  10.687
21936W        W90341  22.190  17.050  12.591
21937W        W90342  18.077  20.500  11.018
21938W        W90343  30.144   7.331  11.698
21939W        W90344   4.819   8.423   1.381
21940W        W90345  12.379   6.228   3.714
21941W        W90346  29.755  20.079  10.340
21942W        W90347  21.599  11.409  10.623
21943W        W90348  39.880  21.551   3.732
21944W        W90349   8.430   0.787   4.423
21945W        W90350  38.407   1.237   2.044
21946W        W90351  16.904  41.442  13.882
21947W        W90352  22.972  22.582   3.679
21948W        W90353  25.704   4.093  11.514
21949W        W90354  24.388  32.639  11.098
21950W        W90355  13.113   2.549   5.300
21951W        W90356  13.570  22.622  13.529
21952W        W90357  35.360  22.650  14.378
21953W        W90358  40.357  20.708   0.692
21954W        W90359  14.639   9.878   3.619
21955W        W90360  44.804  21.517  11.051
21956W        W90361  25.767  41.492  10.580
21957W        W90362  32.977  28.028   2.076
21958W        W90363  22.766  34.420  14.887
21959W        W90364  42.995   7.305  11.927
21960W        W90365  11.363   4.792   2.412
21961W        W90366  30.581  43.573   1.186
21962W        W90367  15.333  42.728   1.862
21963W        W90368   9.414  17.351   5.374
21964W        W90369  10.592   3.144   4.439
21965W        W90370  28.474   9.366   3.302
21966W        W90371  10.109   7.417  14.548
21967W        W90372  34.422   0.413  13.251
21968W        W90373   1.531  20.667   3.271
21969W        W90374  37.396  28.052  12.522
21970W        W90375  21.065  36.020  13.552
21971W        W90376  17.160   5.749   0.982
21972W        W90377   2.778  39.710  13.407
21973W        W90378  30.622   6.034  12.293
21974W        W90379  40.019  10.213   3.282
21975W        W90380  22.728  12.354  11.610
21976W        W90381  12.648  28.604  12.947
21977W        W90382  18.730  26.525  13.440
21978W        W90383  11.706  33.337   3.695
21979W        W90384  39.826   4.132   0.403
21980W        W90385  25.562   4.404  14.835
21981W        W90386  16.850   8.125   1.367
21982W        W90387  15.163  20.055  10.631
21983W        W90388   6.957   1.386   2.719
21984W        W90389   0.711  21.749   0.734
21985W        W90390  26.500  37.826  11.190
21986W        W90391  10.825  11.824  10.887
21987W        W90392  20.723  32.861   2.849
21988W        W90393  10.522  39.408   4.966
21989W        W90394   4.495  36.017  12.176
21990W        W90395  32.998  35.220   0.395
21991W        W90396  36.259   5.575  13.752
21992W        W90397   7.797  25.983   3.774
21993W        W90398  13.762  33.285  14.773
21994W        W90399  21.952  27.017   1.029
21995W        W90400  27.665  22.819   3.588
21996W        W90401  16.642   4.315   1.624
21997W        W90402  11.864  32.489   4.338
21998W        W90403  35.292  22.117   0.468
21999W        W90404  16.590  22.709   9.599
22000W        W90405   6.252  29.545   1.011
22001W        W90406  42.040   0.362   3.148
22002W        W90407  17.493  30.614  14.885
22003W        W90408  12.143  12.137   0.082
22004W        W90409   1.531  29.487  12.105
22005W        W90410  19.404  40.284  11.070
22006W        W90411  19.054   8.083  13.037
22007W        W90412  31.322  17.664   0.875
22008W        W90413  15.241  30.983  14.284
22009W        W90414   8.263   6.920  12.422
22010W        W90415   0.981   4.721   1.203
22011W        W90416  27.383  15.749  13.510
22012W        W90417   9.139  14.946  14.931
22013W        W90418  32.336  21.966  12.486
22014W        W90419   7.285  40.435   3.576
22015W        W90420   4.917   5.148  14.866
22016W        W90421  41.701  21.716   3.202
22017W        W90422  18.285   6.047   0.243
22018W        W90423   7.458  43.975  12.580
22019W        W90424   7.030  17.109  11.974
22020W        W90425   1.051  15.548   0.419
22021W        W90426  24.045   5.928   0.454
22022W        W90427  26.279  18.581  10.735
22023W        W90428  16.794   8.183  12.363
22024W        W90429  40.907  25.721  14.887
22025W        W90430  20.746  32.020   1.730
22026W        W90431   7.202   4.996   2.708
22027W        W90432  42.931  17.828  10.828
22028W        W90433  22.562  18.342  13.975
22029W        W90434  26.770  36.311  11.115
22030W        W90435   6.179  43.767   3.851
22031W        W90436   6.702   0.829   0.862
22032W        W90437  36.463  10.629   4.226
22033W        W90438  43.776   4.593   3.642
22034W        W90439  16.624  28.691   0.509
22035W        W90440  30.903  44.013   1.141
22036W        W90441  12.266   6.934  14.924
22037W        W90442  31.426  33.045   3.410
22038W        W90443  15.879  13.530   2.712
22039W        W90444  41.977  19.380  14.703
22040W        W90445   4.770  28.050  12.062
22041W        W90446  42.816  23.553   0.713
22042W        W90447  18.314  16.307  12.037
22043W        W90448  30.979  35.760   3.251
22044W        W90449  35.808  26.259  12.528
22045W        W90450  35.177  21.259  14.421
22046W        W90451  40.299  29.100   5.116
22047W        W90452  26.947  31.054   4.615
22048W        W90453  14.169  23.537   4.896
22049W        W90454  27.770  19.986  12.405
22050W        W90455   2.168   1.868   4.197
22051W        W90456   2.307  35.232  13.892
22052W        W90457  25.072  21.599  11.538
22053W        W90458  23.477  42.816   1.351
22054W        W90459  41.931  32.798   4.649
22055W        W90460  24.991  23.598  14.072
22056W        W90461  31.980  35.784  11.260
22057W        W90462  26.039  18.596  14.808
22058W        W90463  36.139  10.425   3.849
22059W        W90464  38.806  18.903  12.194
22060W        W90465  24.579  25.014   2.871
22061W        W90466   7.169  26.281  12.050
22062W        W90467  23.193  37.306  11.024
22063W        W90468   0.547  40.870   0.952
22064W        W90469  34.010  21.812   3.322
22065W        W90470   9.693  15.193  13.365
22066W        W90471  36.073  40.995  14.903
22067W        W90472  36.855  24.809   2.972
22068W        W90473  18.811   2.892  14.508
22069W        W90474  25.357  11.737  12.141
22070W        W90475  41.106  28.190  13.334
22071W        W90476  35.321  10.319   1.804
22072W        W90477  18.346  41.875  13.535
22073W        W90478   8.246  44.082   1.140
22074W        W90479   3.654  16.456  11.182
22075W        W90480   9.683  18.284  12.865
22076W        W90481  23.499   9.780   2.738
22077W        W90482  12.244  14.252   3.544
22078W        W90483  14.701  31.547  11.982
22079W        W90484  41.004   8.406   1.401
22080W        W90485  41.379  38.481   2.380
22081W        W90486  19.772  30.411   1.885
22082W        W90487  19.310  27.227   1.185
22083W        W90488  19.988  27.782   4.099
22084W        W90489   5.247  24.155  13.401
22085W        W90490  10.017  10.931   4.081
22086W        W90491  22.537   5.240   4.338
22087W        W90492  43.214  27.555   2.179
22088W        W90493   5.728  28.528  13.535
22089W        W90494  27.765  41.200  13.532
22090W        W90495  25.235   8.767   3.747
22091W        W90496   5.334  21.631  14.226
22092W        W90497  33.499  34.069   4.825
22093W        W90498  34.025  26.957  14.990
22094W        W90499  35.134   8.624  13.733
22095W        W90500   1.886  42.890  12.756
22096W        W90501   9.380  31.688   2.718
22097W        W90502  39.070  28.525  13.044
22098W        W90503   7.611   5.884   1.445
22099W        W90504  42.065   7.753  13.413
22100W        W90505  21.492   2.805   2.718
22101W        W90506   2.971  25.213   3.705
22102W        W90507  44.611  40.629   4.197
22103W        W90508  36.142  16.500   4.614
22104W        W90509  30.575  35.033  14.780
22105W        W90510  35.670  30.990  11.609
22106W        W90511   2.686  33.762  11.680
22107W        W90512  30.368   2.320   2.586
22108W        W90513  36.267  36.620  13.970
22109W        W90514  13.609  12.896  14.012
22110W        W90515  11.194  33.445   3.649
22111W        W90516  20.974   0.719   2.832
22112W        W90517   5.325  29.058  13.947
22113W        W90518  31.532   1.952   2.928
22114W        W90519  33.884  30.193   0.930
22115W        W90520  41.490  10.813   0.685
22116W        W90521  25.905   0.336   3.197
22117W        W90522  34.431  39.706  14.082
22118W        W90523   2.466  24.822  14.428
22119W        W90524   5.256  30.652  14.359
22120W        W90525  23.980   1.290   4.335
22121W        W90526  14.499  26.324   0.242
22122W        W90527  27.373  32.309   3.295
22123W        W90528  31.448  27.684  10.512
22124W        W90529   0.416  36.781   2.121
22125W        W90530  29.457   2.918   1.352
22126W        W90531  25.597   6.903   1.904
22127W        W90532  36.129  14.770   0.934
22128W        W90533  28.531  33.846   1.295
22129W        W90534  21.540   0.151   0.276
22130W        W90535  33.516  15.287  13.111
22131W        W90536  35.396  30.405  14.124
22132W        W90537   9.170   0.966   1.675
22133W        W90538  12.747  42.567  11.381
22134W        W90539  38.303  17.581  14.974
22135W        W90540  42.589   9.667   4.729
22136W        W90541  15.385  23.191  13.362
22137W        W90542  44.936   8.775   2.692
22138W        W90543  38.601  40.397   4.625
22139W        W90544  35.805  34.061  14.710
22140W        W90545   1.954  13.606   0.779
22141W        W90546  20.724  34.557   1.881
22142W        W90547  36.322  42.177   3.708
22143W        W90548   8.574  41.488   0.396
22144W        W90549  38.581  40.839  14.884
22145W        W90550  16.034  11.890   0.277
22146W        W90551  20.410   1.838   4.964
22147W        W90552  19.168  31.702   1.812
22148W        W90553  30.168  28.437  11.109
22149W        W90554  44.926  30.106  12.562
22150W        W90555  35.500  42.752  14.566
22151W        W90556  18.945   4.919   0.994
22152W        W90557  35.303  38.600   5.027
22153W        W90558  36.539  15.771  13.477
22154W        W90559  42.022  42.305   4.050
22155W        W90560  38.748  40.416  11.145
22156W        W90561  42.991  32.187   3.116
22157W        W90562  39.276   8.977   1.432
22158W        W90563  43.913   9.000   4.010
22159W        W90564  36.044  34.741   0.731
22160W        W90565  31.473   8.780   0.345
22161W        W90566  27.790  37.146  12.155
22162W        W90567  39.798  30.534  14.290
22163W        W90568  20.177  17.746   2.791
22164W        W90569  22.431  16.561   3.902
22165W        W90570  33.520  25.491   1.803
22166W        W90571  10.959  12.817   0.903
22167W        W90572  14.237  35.410   1.714
22168W        W90573  23.128  38.961   0.888
22169W        W90574  15.777  43.432   1.388
22170W        W90575  43.597   0.832  14.916
22171W        W90576  17.167   4.459  14.016
22172W        W90577   6.107  40.602   2.316
22173W        W90578  36.608   1.209   1.776
22174W        W90579  26.700   3.514   4.560
22175W        W90580   9.760  17.031   1.340
22176W        W90581   1.455  23.871   0.875
22177W        W90582   2.275  36.153  11.323
22178W        W90583  12.281  38.419   0.565
22179W        W90584  14.278   9.035   1.586
22180W        W90585  28.188  16.529  13.834
22181W        W90586  22.149  22.508   1.427
22182W        W90587  39.372  20.626  14.516
22183W        W90588  37.780  10.868   0.924
22184W        W90589  40.592  44.416  12.103
22185W        W90590  24.783  20.491  11.185
22186W        W90591   9.328  37.941   0.215
22187W        W90592  34.030  44.509   1.883
22188W        W90593  32.307  40.681  13.090
22189W        W90594   4.397  11.273   2.939
22190W        W90595   8.121  40.307   3.949
22191W        W90596  41.745  39.011   3.588
22192W        W90597   4.858  29.274   1.316
22193W        W90598  22.311  25.115  11.166
22194W        W90599  25.129  34.543  14.090
22195W        W90600   7.416  37.552   2.910
22196W        W90601  23.046  15.334   4.981
22197W        W90602  39.841  14.678  12.977
22198W        W90603  13.646  27.836   4.216
22199W        W90604  15.872   7.253   0.211
22200W        W90605  24.195   5.257   0.712
22201W        W90606   8.212  17.019  12.839
22202W        W90607  19.091  42.819  14.314
22203W        W90608  31.286  43.771   1.389
22204W        W90609  38.814   1.524   4.651
22205W        W90610  37.849  36.065  12.702
22206W        W90611   7.659  32.645   1.741
22207W        W90612  26.009  32.539  13.132
22208W        W90613  43.035  11.854  13.432
22209W        W90614   6.889  29.425  14.480
22210W        W90615  40.488  16.553  11.979
22211W        W90616  13.416  38.972  12.932
22212W        W90617  17.534  29.979   0.500
22213W        W90618  34.210  13.878   0.359
22214W        W90619  18.362   9.817   3.413
22215W        W90620  32.660  43.347  14.858
22216W        W90621  35.254  43.412   0.905
22217W        W90622  35.640  13.776  13.857
22218W        W90623  43.529   1.921  13.055
22219W        W90624  36.505  38.208   3.261
22220W        W90625  24.189  13.118   2.292
22221W        W90626  14.768  37.493   1.330
22222W        W90627  37.829  44.289   3.594
22223W        W90628   7.695  22.300  13.882
22224W        W90629  31.484  41.938   2.423
22225W        W90630  31.538   2.025   3.587
22226W        W90631  18.781  29.182   4.755
22227W        W90632   8.922  18.279  13.341
22228W        W90633  10.869  33.500  11.210
22229W        W90634  11.904  15.615  10.616
22230W        W90635  18.689  27.125   4.708
22231W        W90636  15.880   9.584   0.368
22232W        W90637  37.140  26.701   3.632
22233W        W90638   4.555  10.110  10.106
22234W        W90639  20.580  40.873   2.300
22235W        W90640  21.612  31.621  10.745
22236W        W90641  35.614  20.293   3.718
22237W        W90642  38.628  14.834  11.157
22238W        W90643   1.006  12.041   4.112
22239W        W90644  31.572  43.503   4.620
22240W        W90645  31.531  44.765   1.762
22241W        W90646   4.248  39.553   1.687
22242W        W90647  37.837  19.290   4.126
22243W        W90648  43.350  36.904  12.832
22244W        W90649  14.358   7.367  13.874
22245W        W90650  23.352  22.620  14.426
22246W        W90651   0.440  30.712   2.319
22247W        W90652  12.312  10.774   2.896
22248W        W90653  33.432   0.886   3.621
22249W        W90654   7.543  14.101   4.585
22250W        W90655  36.053   8.342   2.935
22251W        W90656  28.238  12.624   1.599
22252W        W90657   5.288  33.797   4.042
22253W        W90658  17.214  35.781  13.480
22254W        W90659  33.939  13.932  11.159
22255W        W90660  29.059   3.483  13.475
22256W        W90661  40.002  44.838  11.563
22257W        W90662   9.690  23.533  14.468
22258W        W90663  17.321  28.457   3.367
22259W        W90664  14.775  14.946   4.356
22260W        W90665   7.551   6.133  10.918
22261W        W90666   6.675  34.533  14.062
22262W        W90667  14.306   5.499   1.665
22263W        W90668  23.210  43.889   4.557
22264W        W90669  14.887  41.074  12.460
22265W        W90670  40.759  13.417  12.079
22266W        W90671   7.459  22.736   2.563
22267W        W90672  24.569  24.908  11.864
22268W        W90673  41.851  14.403   2.426
22269W        W90674   1.533  27.776  11.606
22270W        W90675  14.010   8.299  12.888
22271W        W90676  40.333   6.663   1.420
22272W        W90677  27.072  20.149  11.896
22273W        W90678  34.670  10.414  14.208
22274W        W90679  34.484  42.854   1.035
22275W        W90680   7.725   5.429   0.250
22276W        W90681  14.024  29.978   2.808
22277W        W90682   5.677  36.591  14.781
22278W        W90683  30.431  15.646   1.359
22279W        W90684  16.229  19.680   2.259
22280W        W90685   7.101  33.568   1.880
22281W        W90686  40.710  36.219  14.007
22282W        W90687   0.311   4.252  13.345
22283W        W90688  15.691  36.578  14.405
22284W        W90689  42.072  41.162  12.141
22285W        W90690  37.053  29.756   3.730
22286W        W90691   8.475   2.244   4.620
22287W        W90692   8.402  34.862   0.460
22288W        W90693   9.296  11.220   2.336
22289W        W90694  12.042   6.005   4.178
22290W        W90695  29.147  10.819  14.527
22291W        W90696   7.731   3.248   4.481
22292W        W90697   2.531  17.194   2.296
22293W        W90698  42.972  39.841  11.387
22294W        W90699   1.210   9.120  14.219
22295W        W90700  19.743  44.955  14.232
22296W        W90701  16.836  19.315  11.124
22297W        W90702  29.885  33.155  11.559
22298W        W90703  12.271  44.602   4.960
22299W        W90704  14.934  11.470   1.289
22300W        W90705  40.066  35.434   3.259
22301W        W90706  22.644  25.542  14.027
22302W        W90707   8.423  40.402  13.800
22303W        W90708  20.212  23.949   1.062
22304W        W90709  29.495  25.580   4.112
22305W        W90710  38.932  13.312   1.377
22306W        W90711  44.037  25.526  14.007
22307W        W90712  44.950   1.658  14.355
22308W        W90713  22.119   9.335  10.658
22309W        W90714  44.208  39.600  12.901
22310W        W90715  19.688  27.644  13.998
22311W        W90716  38.151  23.678   3.438
22312W        W90717  41.724   1.396   3.836
22313W        W90718  18.364  21.077   4.033
22314W        W90719  19.137  44.340  13.458
22315W        W90720  20.235  37.323   1.326
22316W        W90721   3.336  20.068   0.791
22317W        W90722  44.194  25.756  14.470
22318W        W90723  14.008  22.566  12.131
22319W        W90724  26.688  26.320   1.878
22320W        W90725  31.537  22.664   1.622
22321W        W90726  43.026  17.733  13.104
22322W        W90727  32.269  17.580  11.668
22323W        W90728  23.195  43.564   4.115
22324W        W90729  42.000  20.139  11.307
22325W        W90730  41.769   1.786   0.312
22326W        W90731   6.780   9.388  13.020
22327W        W90732  15.238   2.166   3.604
22328W        W90733  21.982  32.471  12.559
22329W        W90734   7.413  43.090   3.429
22330W        W90735   1.376   7.905   3.060
22331W        W90736  19.204  17.417  14.965
22332W        W90737   4.268  35.340  10.591
22333W        W90738   7.708  35.013   4.296
22334W        W90739   0.848  28.473   3.261
22335W        W90740  41.564  19.621   2.819
22336W        W90741  27.051  21.269   3.198
22337W        W90742   7.541  26.639  13.011
22338W        W90743  14.349   9.811  12.185
22339W        W90744  13.758  29.981  10.950
22340W        W90745  16.263  27.782   4.550
22341W        W90746  26.962  12.318  10.580
22342W        W90747  17.992   5.838  11.533
22343W        W90748   8.275   1.528  13.541
22344W        W90749  38.274  23.147  12.067
22345W        W90750  13.584   5.189   1.357
22346W        W90751   1.440  10.006  14.585
22347W        W90752  16.704  19.266   1.482
22348W        W90753  19.275  11.627  12.466
22349W        W90754   1.520  43.436   4.494
22350W        W90755   3.112  32.056  10.608
22351W        W90756  31.642  35.664   4.088
22352W        W90757  30.933  43.439   0.462
22353W        W90758   2.183  38.558  10.621
22354W        W90759   4.373  20.148  13.412
22355W        W90760  21.649  30.591  12.472
22356W        W90761   0.521  32.259   3.340
22357W        W90762  30.192  38.821   2.871
22358W        W90763  28.542  15.522  10.708
22359W        W90764  16.188  42.273   1.386
22360W        W90765  20.002  41.831   2.191
22361W        W90766  16.956  15.310   5.390
22362W        W90767  27.095  29.018   3.074
22363W        W90768  23.522   8.716  13.424
22364W        W90769   9.219  31.678  12.928
22365W        W90770  38.444   0.951   0.442
22366W        W90771  36.006  15.550   4.423
22367W        W90772  43.358  42.040   2.113
22368W        W90773  33.935  31.930  13.526
22369W        W90774  26.620  12.322  13.937
22370W        W90775  37.653  19.405   0.259
22371W        W90776  38.939  24.719  14.059
22372W        W90777   3.461  36.441   4.784
22373W        W90778  27.453  26.917  14.728
22374W        W90779  22.171  15.958   1.504
22375W        W90780  42.749   0.977  11.963
22376W        W90781  33.502  27.233  14.399
22377W        W90782  31.489   0.747   0.352
22378W        W90783  26.233  44.973  10.792
22379W        W90784  38.222  30.985   1.772
22380W        W90785  17.244   3.868   3.690
22381W        W90786  27.188  15.055   1.330
22382W        W90787  32.288   1.454   3.122
22383W        W90788  31.470  27.686  11.521
22384W        W90789  20.842  24.791   4.556
22385W        W90790  28.593  29.838   1.780
22386W        W90791  11.663  38.068  14.612
22387W        W90792  44.983  27.817   1.347
22388W        W90793  14.680  37.484  11.616
22389W        W90794  33.484  35.910  14.409
22390W        W90795  37.393   6.815  14.370
22391W        W90796   1.689  23.600   4.839
22392W        W90797  26.476  16.160   2.310
22393W        W90798  16.280  38.444  14.323
22394W        W90799  12.932   2.386   3.839
22395W        W90800  42.965  40.785  11.640
22396W        W90801  15.572   6.676   3.391
22397W        W90802   0.565   0.911  11.423
22398W        W90803  29.071   8.174   1.932
22399W        W90804  38.853  26.184   4.441
22400W        W90805  11.438  12.113  13.402
22401W        W90806   5.865  27.193  12.525
22402W        W90807   3.709  28.133  10.185
22403W        W90808  41.483   2.366  13.185
22404W        W90809  33.180  32.013  13.894
22405W        W90810  29.696  41.118  12.982
22406W        W90811  29.513  21.056  12.882
22407W        W90812  38.983  16.305  11.101
22408W        W90813   1.749  39.494   2.066
22409W        W90814   9.374  40.331   1.909
22410W        W90815  10.797  37.134   1.867
22411W        W90816  30.936  23.561   0.308
22412W        W90817  24.084   0.816   4.134
22413W        W90818  42.525  12.825  10.663
22414W        W90819  18.334  13.037  14.362
22415W        W90820   8.817  12.896   3.865
22416W        W90821   2.505  42.976  13.433
22417W        W90822  16.116  30.377  10.663
22418W        W90823  21.522   1.225   3.501
22419W        W90824  19.505   7.409   4.147
22420W        W90825  15.200  20.562  10.475
22421W        W90826  27.891   2.165   2.857
22422W        W90827   2.441  20.796   2.873
22423W        W90828  18.627  21.644  13.055
22424W        W90829  23.314  12.677  12.498
22425W        W90830   0.102  11.179  11.553
22426W        W90831   9.373   3.532  11.168
22427W        W90832  36.694  11.623  12.957
22428W        W90833  36.305  26.856   3.245
22429W        W90834   4.462  29.840  13.428
22430W        W90835   6.406  21.055   0.705
22431W        W90836  43.642  35.463  12.320
22432W        W90837  18.963   0.319   3.264
22433W        W90838  11.862  15.804   5.052
22434W        W90839  19.616  37.534  12.011
22435W        W90840  30.936  32.173  13.723
22436W        W90841  19.638  36.943  11.730
22437W        W90842  41.062  26.192  12.062
22438W        W90843  21.561   1.178   2.230
22439W        W90844  13.928  40.955  10.468
22440W        W90845  37.688  40.858  13.088
22441W        W90846  32.912   1.033   0.329
22442W        W90847   0.889  27.084   3.504
22443W        W90848   4.187   2.914  10.810
22444W        W90849   6.148   4.735  10.741
22445W        W90850  42.785   7.738   4.021
22446W        W90851  26.037  39.051  14.544
22447W        W90852  22.751   8.408   2.259
22448W        W90853  36.517  35.553   0.884
22449W        W90854  15.171  41.316  11.563
22450W        W90855  11.089  36.759  14.444
22451W        W90856  20.013  41.375  10.722
22452W        W90857  19.816  10.696   4.668
22453W        W90858  13.743  40.402  13.400
22454W        W90859  32.090  43.928   2.394
22455W        W90860   5.954  29.339  14.497
22456W        W90861   3.698  44.354  10.761
22457W        W90862  38.382   9.828  14.647
22458W        W90863  10.717  34.652  12.631
22459W        W90864   3.154  31.543  11.519
22460W        W90865  14.860  42.675  14.504
22461W        W90866   2.896   5.870   0.301
22462W        W90867  33.620  34.075  14.225
22463W        W90868  35.001  23.495   1.900
22464W        W90869   4.871  30.092   2.216
22465W        W90870  29.056  12.322  14.460
22466W        W90871  17.842  29.393  11.109
22467W        W90872  25.734  29.008   4.546
22468W        W90873  10.296  38.806   3.789
22469W        W90874  15.352  38.905  12.910
22470W        W90875   9.779  34.401   2.417
22471W        W90876  14.601  14.241  11.690
22472W        W90877  19.146  35.308   4.734
22473W        W90878  10.075  39.007   0.932
22474W        W90879  11.614  16.327   1.963
22475W        W90880  17.301  32.241  12.031
22476W        W90881  15.144   8.241  12.116
22477W        W90882   9.782   9.602   4.452
22478W        W90883  15.008   8.381  14.714
22479W        W90884  37.875  34.296   1.907
22480W        W90885  24.722  33.242  14.991
22481W        W90886  41.822  38.779   3.134
22482W        W90887  16.584  18.778   3.890
22483W        W90888  22.472  28.197   4.093
22484W        W90889  35.525  25.259   3.833
22485W        W90890  27.589  31.697   0.831
22486W        W90891  44.042  14.114  13.804
22487W        W90892  16.330  30.991  13.939
22488W        W90893  28.444  12.276  12.545
22489W        W90894  14.186  35.179   3.811
22490W        W90895   2.213  40.989  12.109
22491W        W90896  37.666  36.866   4.669
22492W        W90897  42.951  15.280   1.482
22493W        W90898   5.699  26.439  11.235
22494W        W90899   9.737  37.380   4.636
22495W        W90900   4.502  13.728  13.325
22496W        W90901  40.559   3.044  11.452
22497W        W90902   6.296  27.890  10.254
22498W        W90903  29.094  36.538   4.815
22499W        W90904  37.237  23.744  12.001
22500W        W90905  20.563   6.721  12.901
22501W        W90906  26.911  35.993   2.738
22502W        W90907  44.874  41.744  10.812
22503W        W90908   8.203  11.179  14.517
22504W        W90909  42.525  22.432  10.615
22505W        W90910  38.527  39.557  12.469
22506W        W90911  22.118  28.557   4.115
22507W        W90912   2.059  33.723  14.910
22508W        W90913  30.715  28.548   1.857
22509W        W90914  31.322  42.934  13.229
22510W        W90915  21.288   7.215   0.728
22511W        W90916  19.586  18.742  14.960
22512W        W90917  33.902  28.601  14.328
22513W        W90918  28.117  18.498  11.411
22514W        W90919  22.825  22.771   3.212
22515W        W90920  12.823   6.295  12.932
22516W        W90921   9.107  29.894   0.006
22517W        W90922  34.619  21.654  14.902
22518W        W90923  37.595  24.328  11.188
22519W        W90924  34.379  21.783   3.682
22520W        W90925  26.162  33.333   4.264
22521W        W90926  42.303  17.327   1.643
22522W        W90927  10.344  22.029   4.558
22523W        W90928  35.935  18.053   4.554
22524W        W90929  17.747  29.606   3.276
22525W        W90930   8.724  36.430   3.797
22526W        W90931  33.058  28.006   0.488
22527W        W90932  23.552   1.178   0.420
22528W        W90933   2.466  11.805  10.958
22529W        W90934  30.542  30.623  13.150
22530W        W90935  32.409   0.892  11.041
22531W        W90936  43.971  41.296   4.041
22532W        W90937  36.350   6.856   0.494
22533W        W90938   2.995  24.738  12.606
22534W        W90939  11.733  31.795  11.895
22535W        W90940  15.522  34.149   3.929
22536W        W90941   9.866  10.171  12.883
22537W        W90942  32.951  32.381   2.752
22538W        W90943   0.855  21.666   2.271
22539W        W90944  22.253  19.556  11.180
22540W        W90945   1.336   9.150  12.962
22541W        W90946  18.854   4.895  12.451
22542W        W90947  24.179   4.006  10.674
22543W        W90948  31.853  18.157   0.390
22544W        W90949   1.342  28.188  10.408
22545W        W90950  44.500  42.325   0.224
22546W        W90951  44.932  19.791   2.257
22547W        W90952   5.049   1.096   3.580
22548W        W90953  38.541  29.676  12.316
22549W        W90954  38.870   5.052  13.503
22550W        W90955   4.241  40.760   2.307
22551W        W90956  44.005  21.479   0.227
22552W        W90957   4.799  34.143   1.807
22553W        W90958  31.548   7.944   4.876
22554W        W90959  32.495  23.597  10.655
22555W        W90960  23.975  29.945  11.539
22556W        W90961  21.005  31.001  13.970
22557W        W90962   8.314  28.055  13.671
22558W        W90963  23.613  21.773   4.279
22559W        W90964  33.564  15.916   1.772
22560W        W90965   0.869  29.565   1.455
22561W        W90966   3.405   5.357   4.465
22562W        W90967  18.564   2.022  12.272
22563W        W90968  21.400  41.488  10.321
22564W        W90969  42.048   7.443   2.737
22565W        W90970  39.089  33.141  10.138
22566W        W90971   1.771  23.012   1.214
22567W        W90972  24.526   5.732   1.713
22568W        W90973   7.679  37.881  13.972
22569W        W90974  43.149  34.126   0.434
22570W        W90975  32.672   3.384  13.630
22571W        W90976  18.104  17.807  13.081
22572W        W90977  40.337  13.354  12.940
22573W        W90978   8.634  17.277  13.786
22574W        W90979  44.362  39.463  13.844
22575W        W90980  31.206  43.799   0.750
22576W        W90981  37.557   3.714  14.097
22577W        W90982  40.235   7.579  12.938
22578W        W90983  23.420  21.027  13.368
22579W        W90984  18.087  40.303   0.215
22580W        W90985  27.680  44.660   0.158
22581W        W90986  33.832  27.598  14.278
22582W        W90987   0.522  23.783  11.243
22583W        W90988  32.347   2.224   0.862
22584W        W90989  20.626  18.067   2.428
22585W        W90990  42.530  27.192  11.507
22586W        W90991   8.673  12.645   4.274
22587W        W90992   2.280  23.011   4.569
22588W        W90993   8.827  13.517   4.548
22589W        W90994  21.219   5.244   1.903
22590W        W90995  14.364  38.894   4.154
22591W        W90996  31.027  38.146   0.409
22592W        W90997  37.668  16.354   0.895
22593W        W90998  13.357  37.293  10.630
22594W        W90999  36.733  19.976   4.179
22595W        W91000  27.666  33.209  11.349
22596W        W91001  23.817   7.052  11.728
22597W        W91002  18.393  38.494  11.577
22598W        W91003  10.692  16.849   3.847
22599W        W91004  42.867  32.553  13.947
22600W        W91005  23.118  15.325  11.983
22601W        W91006  31.100  34.057   4.723
22602W        W91007  36.916   2.969  14.483
22603W        W91008  16.160   3.958  13.785
22604W        W91009  27.011  40.939  13.431
22605W        W91010  14.318   9.198  10.455
22606W        W91011  36.114   2.452  10.711
22607W        W91012  13.285  19.515  13.534
22608W        W91013  43.551  10.243  10.307
22609W        W91014  43.942   8.836   0.413
22610W        W91015  41.017  30.472   1.903
22611W        W91016   2.355  19.536   3.204
22612W        W91017   6.773  31.129   0.469
22613W        W91018  26.028   1.942   3.770
22614W        W91019  10.234  40.492  13.856
22615W        W91020  44.270   1.410   0.755
22616W        W91021  26.447  27.657   3.090
22617W        W91022  31.506   6.287   2.591
22618W        W91023  12.174   8.538   3.857
22619W        W91024   2.550  37.944  13.519
22620W        W91025  26.707  28.532   2.571
22621W        W91026   4.386   8.387  12.111
22622W        W91027  18.799  37.519  10.533
22623W        W91028  14.090  44.963   0.772
22624W        W91029  16.615  26.480  14.426
22625W        W91030  27.823  10.355   1.759
22626W        W91031  41.032   1.350   1.327
22627W        W91032  10.676  37.038  14.874
22628W        W91033  21.602  32.672   2.966
22629W        W91034  22.497   6.536   5.019
22630W        W91035   7.327  39.314  13.029
22631W        W91036  12.437  26.538   1.252
22632W        W91037  17.409  14.634  11.307
22633W        W91038  39.577  37.531  13.503
22634W        W91039  15.743  42.096  12.901
22635W        W91040  32.218  34.519  10.757
22636W        W91041   8.808   5.904  12.666
22637W        W91042  25.320  32.872  12.047
22638W        W91043  25.571  31.571   4.557
22639W        W91044  41.534  31.818   1.054
22640W        W91045   7.535  43.657  14.454
22641W        W91046  24.894  44.053  10.650
22642W        W91047  32.175  41.592   1.923
22643W        W91048  36.524   4.384  11.521
22644W        W91049  16.143  29.225   4.794
22645W        W91050  33.447  20.576   2.440
22646W        W91051  14.995  42.064   4.236
22647W        W91052  37.651  40.606   2.819
22648W        W91053   7.850  35.233  11.595
22649W        W91054  22.939   3.294  11.523
22650W        W91055  31.060  35.064  10.565
22651W        W91056  36.052  21.927   4.468
22652W        W91057  19.758  33.920   1.390
22653W        W91058  25.251   7.750  14.701
22654W        W91059  12.325  12.115   2.684
22655W        W91060   7.259  34.893   0.367
22656W        W91061  34.000  30.034  13.564
22657W        W91062  35.513  29.714   2.852
22658W        W91063  42.268  23.503   4.544
22659W        W91064   2.648   0.534  11.900
22660W        W91065  29.444  40.503   2.659
22661W        W91066   8.423  28.667  14.949
22662W        W91067   3.963  14.170   0.004
22663W        W91068  37.840  33.164  11.969
22664W        W91069  43.721   5.239   0.896
22665W        W91070  36.389  34.824  13.170
22666W        W91071  40.545   1.184   0.886
22667W        W91072  27.681  20.750   4.511
22668W        W91073   1.749   3.106  13.777
22669W        W91074  26.645  17.466   2.856
22670W        W91075   7.439   3.177  14.762
22671W        W91076   0.439  35.590   4.751
22672W        W91077  34.590   8.709  12.011
22673W        W91078   0.732  15.024   0.278
22674W        W91079  20.932  34.371  14.897
22675W        W91080  10.666  37.943  14.850
22676W        W91081  35.002  39.613  13.031
22677W        W91082   5.418  10.877   2.830
22678W        W91083  14.818  40.671  10.682
22679W        W91084  40.459  43.721  13.782
22680W        W91085  38.814  23.894  13.969
22681W        W91086  38.088  24.091   2.814
22682W        W91087   1.539  22.577  10.685
22683W        W91088  36.776   8.657   0.425
22684W        W91089  23.531  24.028  13.318
22685W        W91090  18.733   6.685  11.056
22686W        W91091  31.922  22.270  12.553
22687W        W91092  21.326   0.423  14.851
22688W        W91093  37.946  24.660  10.870
22689W        W91094  19.261  34.583  10.964
22690W        W91095  44.347  19.965   3.202
22691W        W91096  43.225  32.115  10.702
22692W        W91097   3.868  17.388   4.550
22693W        W91098  18.742  27.456   0.457
22694W        W91099  40.186  21.549  12.076
22695W        W91100   5.332  31.398   1.645
22696W        W91101  15.694   8.688   4.304
22697W        W91102  27.150  26.840   4.967
22698W        W91103  19.328   9.973  11.111
22699W        W91104  26.365   0.017   1.652
22700W        W91105  44.169  10.119   0.641
22701W        W91106   4.787   0.560   4.615
22702W        W91107  18.287  26.229  11.662
22703W        W91108  31.557   0.279   1.854
22704W        W91109  27.611   1.985   0.360
22705W        W91110  32.327  24.796  10.648
22706W        W91111  27.625  31.121   2.178
22707W        W91112   2.053  12.328   0.000
22708W        W91113   4.773  41.286  11.540
22709W        W91114  15.523  35.475  12.585
22710W        W91115  39.874  15.733  10.601
22711W        W91116  35.004  13.202  11.585
22712W        W91117   0.867  32.034   3.662
22713W        W91118   6.605  31.387   0.884
22714W        W91119  34.436  30.006   1.827
22715W        W91120  32.469  19.987   2.712
22716W        W91121  24.093  24.658   0.042
22717W        W91122  39.348  25.623   1.722
22718W        W91123  21.556   6.303  10.721
22719W        W91124   0.406  11.606  14.565
22720W        W91125  38.586   0.365   1.522
22721W        W91126  40.493  33.401   1.623
22722W        W91127  20.057  31.013   1.208
22723W        W91128  25.063  25.406   0.446
22724W        W91129  30.135  21.166  12.582
22725W        W91130  33.520  37.385  13.329
22726W        W91131   6.291  34.974   3.644
22727W        W91132  38.890   9.332  12.483
22728W        W91133  20.979  30.850  14.839
22729W        W91134  17.541  10.201  14.809
22730W        W91135  12.950  25.497   0.346
22731W        W91136  18.273  34.044   4.105
22732W        W91137  42.729  14.451  12.051
22733W        W91138   0.835  16.080   2.679
22734W        W91139  40.507  12.216   4.427
22735W        W91140  33.036  14.267   4.964
22736W        W91141  17.604  17.109  10.339
22737W        W91142  25.114  24.521  13.918
22738W        W91143   8.302   7.344   0.913
22739W        W91144  19.729  34.211   4.177
22740W        W91145  28.960  11.899   3.323
22741W        W91146  35.144  29.215   1.870
22742W        W91147  38.919   2.414   9.770
22743W        W91148  32.926  18.635  14.982
22744W        W91149   4.778  24.034  12.368
22745W        W91150  27.202  14.178   1.194
22746W        W91151  38.448  27.045  12.054
22747W        W91152  35.836  26.123   2.703
22748W        W91153  23.919  42.313   3.282
22749W        W91154  13.772  11.670  11.471
22750W        W91155   8.318  39.688  12.439
22751W        W91156   1.397  28.184   3.640
22752W        W91157   7.444  22.563  12.465
22753W        W91158  10.230  41.013   2.723
22754W        W91159  20.040   9.527   3.510
22755W        W91160  16.361  23.975   2.034
22756W        W91161  15.089  37.247   9.874
22757W        W91162  41.495  39.617   0.879
22758W        W91163  29.273  41.986  10.586
22759W        W91164  12.109   2.772  13.353
22760W        W91165  32.141  30.494   2.232
22761W        W91166   2.759  22.689   4.061
22762W        W91167   6.953  34.050   0.718
22763W        W91168   5.405  44.843  10.769
22764W        W91169  20.190  12.828  10.603
22765W        W91170  36.058  33.627  13.040
22766W        W91171   9.460  35.953   4.159
22767W        W91172  41.275   1.198   1.781
22768W        W91173   8.417  12.256  12.685
22769W        W91174  44.910  12.255  14.780
22770W        W91175  43.124   1.858  14.290
22771W        W91176  15.096  14.825   0.275
22772W        W91177   8.645   3.029  10.789
22773W        W91178  33.039  31.407   2.644
22774W        W91179  22.507  11.244  13.476
22775W        W91180  43.817  26.274  12.810
22776W        W91181  28.593  19.823   3.705
22777W        W91182   5.662  27.957   1.820
22778W        W91183  43.618  34.154  12.475
22779W        W91184   6.418  31.070  11.145
22780W        W91185  15.756  41.551   1.484
22781W        W91186  40.837   0.012   2.614
22782W        W91187  23.580  39.840  14.309
22783W        W91188  20.331   7.341   1.291
22784W        W91189  12.008  16.804  12.257
22785W        W91190  25.621  21.341   3.196
22786W        W91191  14.279  19.791   0.386
22787W        W91192  38.418  39.467  10.950
22788W        W91193  24.895   9.839  11.546
22789W        W91194   1.913   8.873   3.747
22790W        W91195   3.450   8.344   2.407
22791W        W91196  14.486   3.481   3.315
22792W        W91197  22.080  20.789   3.895
22793W        W91198  13.062   6.303   2.959
22794W        W91199   4.339  18.166  14.577
22795W        W91200   5.508  37.045  11.443
22796W        W91201  41.117  38.405   0.426
22797W        W91202  26.632   6.127   3.261
22798W        W91203  20.603   4.945  12.008
22799W        W91204  29.074  32.000  13.923
22800W        W91205  20.387   4.914   4.312
22801W        W91206  11.107  44.827   2.177
22802W        W91207  41.351  22.695   2.258
22803W        W91208  21.218  31.363   1.996
22804W        W91209  38.095  43.120   1.751
22805W        W91210  40.850   6.680   2.683
22806W        W91211  36.909  35.219   0.687
22807W        W91212  27.132  18.995   3.630
22808W        W91213  27.181  20.507   3.684
22809W        W91214  44.364   7.963   2.991
22810W        W91215   4.697  31.156  12.470
22811W        W91216  23.679   9.671   1.013
22812W        W91217   2.553  15.078   0.584
22813W        W91218  10.284   7.403   1.902
22814W        W91219  15.577  28.690   1.403
22815W        W91220  26.612  29.460   0.774
22816W        W91221  27.205  36.902   1.412
22817W        W91222  41.755  23.641  13.954
22818W        W91223  31.987  14.049  11.171
22819W        W91224  30.629  36.056  11.070
22820W        W91225  13.625  30.452  10.738
22821W        W91226  39.164   1.444   0.695
22822W        W91227  13.546  31.843   4.995
22823W        W91228  20.149  32.467   2.339
22824W        W91229  24.599   5.639  11.086
22825W        W91230  13.533  25.664   2.754
22826W        W91231   8.789  15.772  14.322
22827W        W91232  22.223  36.935  13.980
22828W        W91233  23.659  38.222   4.643
22829W        W91234   0.242  39.009  12.446
22830W        W91235  18.542  25.605  11.484
22831W        W91236   1.822  40.829  10.712
22832W        W91237  10.980  32.425   1.404
22833W        W91238  24.989  44.322   5.284
22834W        W91239  11.691  26.731  10.157
22835W        W91240  17.637   1.329   0.944
22836W        W91241  40.563  40.286   5.011
22837W        W91242  32.246   6.357   3.569
22838W        W91243  40.331  27.173  11.656
22839W        W91244   1.596   5.158   4.995
22840W        W91245  22.444  18.456  13.112
22841W        W91246  31.649  27.441   3.165
22842W        W91247   2.516  10.248  12.434
22843W        W91248   0.373  41.231   0.520
22844W        W91249  23.567  28.460  12.961
22845W        W91250   7.669  28.474   1.716
22846W        W91251   9.834  29.888  14.289
22847W        W91252  30.114  16.245  14.764
22848W        W91253  29.604  32.384  11.352
22849W        W91254   3.904   1.921   2.971
22850W        W91255   0.700  31.713  14.016
22851W        W91256  44.987  10.140  13.856
22852W        W91257  12.203  44.906   0.768
22853W        W91258  14.822  29.933  12.140
22854W        W91259  30.971   7.440   0.501
22855W        W91260  30.076   8.293   1.572
22856W        W91261  26.177  24.547   3.753
22857W        W91262  38.599  24.007  12.041
22858W        W91263  37.045   6.143  12.643
22859W        W91264   2.080   4.044   2.271
22860W        W91265   2.304   2.678   2.320
22861W        W91266  20.733   9.634  11.457
22862W        W91267  20.295  14.365   0.452
22863W        W91268   9.564  15.034   0.377
22864W        W91269  19.303  33.966  14.421
22865W        W91270  27.967  22.592   1.899
22866W        W91271  33.716   1.873  14.820
22867W        W91272  16.261  22.766  13.941
22868W        W91273  16.785  18.863   1.175
22869W        W91274   6.810   3.191  12.011
22870W        W91275  36.141  40.612   0.276
22871W        W91276  27.474   2.823  11.125
22872W        W91277  21.773  38.555   1.190
22873W        W91278   4.789   9.007  11.046
22874W        W91279   0.763  15.240   4.050
22875W        W91280  41.216  17.682  13.512
22876W        W91281  36.172   4.748   2.109
22877W        W91282  40.902  14.263   2.802
22878W        W91283  11.770  29.187  11.620
22879W        W91284  29.689  13.913   1.793
22880W        W91285  10.110  11.691   4.121
22881W        W91286  13.343   8.393  12.351
22882W        W91287  36.098  42.502   1.782
22883W        W91288   2.927   8.862  14.097
22884W        W91289  42.401  34.499  10.474
22885W        W91290  16.542  35.142   0.328
22886W        W91291  44.554  32.513  13.492
22887W        W91292   1.753  31.348  12.007
22888W        W91293   5.246   9.415  12.198
22889W        W91294  36.736  33.924  11.980
22890W        W91295  24.085   1.896   3.609
22891W        W91296  22.061  22.035   1.288
22892W        W91297  18.199  11.114  10.750
22893W        W91298  24.412  40.838   1.702
22894W        W91299  20.012  23.609   0.727
22895W        W91300  18.596  25.714  12.409
22896W        W91301  27.081  17.196   2.735
22897W        W91302  14.943  42.824  11.053
22898W        W91303  37.089   1.934  10.403
22899W        W91304  44.363  26.354  11.120
22900W        W91305  15.226  17.775   4.337
22901W        W91306  11.120  14.081   1.393
22902W        W91307  30.916  42.843   2.732
22903W        W91308  14.690  21.149   0.559
22904W        W91309   5.714  31.061   3.201
22905W        W91310   9.102   5.285   1.440
22906W        W91311   0.273   0.860   4.592
22907W        W91312   1.871  28.575  14.862
22908W        W91313   2.450  30.212   3.416
22909W        W91314  36.416  22.996   1.485
22910W        W91315  28.277   0.170  11.422
22911W        W91316   3.389  23.611   3.147
22912W        W91317  37.032  10.067   4.256
22913W        W91318  23.150  20.794  10.294
22914W        W91319   5.952  42.674   2.996
22915W        W91320  36.635   6.867   0.066
22916W        W91321  15.174   2.237   0.541
22917W        W91322   9.461  14.678  12.211
22918W        W91323   2.169  14.789   2.689
22919W        W91324  14.848  24.599  12.790
22920W        W91325  43.348   8.759   5.144
22921W        W91326  24.040   3.223   0.315
22922W        W91327  17.960  15.437  11.021
22923W        W91328  38.930   2.705   1.078
22924W        W91329   6.522  41.273  10.380
22925W        W91330  39.023  12.942   2.235
22926W        W91331  39.011  22.214   4.518
22927W        W91332  24.227  13.735   0.805
22928W        W91333  26.172  15.219  13.300
22929W        W91334  14.727  33.759   0.440
22930W        W91335  32.941   4.592   4.076
22931W        W91336  16.829  39.303  11.765
22932W        W91337   5.203  38.700  11.069
22933W        W91338  13.210  22.179   4.008
22934W        W91339  21.808  40.774  11.538
22935W        W91340  43.343   6.513   2.232
22936W        W91341  32.071  12.263   0.219
22937W        W91342  35.476   8.114   1.761
22938W        W91343   8.502  38.089  14.318
22939W        W91344  23.734   8.303   2.230
22940W        W91345  37.132   4.623  12.350
22941W        W91346  37.115  15.156   3.125
22942W        W91347  38.360   6.996  12.572
22943W        W91348  30.901  29.635   2.372
22944W        W91349   0.947  23.696  10.748
22945W        W91350   3.207  20.636  10.442
22946W        W91351  36.404  19.636   3.885
22947W        W91352  30.968  24.422   2.677
22948W        W91353  29.232  16.171  12.574
22949W        W91354  40.368  24.982   0.375
22950W        W91355   4.736   8.020  11.356
22951W        W91356  22.599  34.095  14.499
22952W        W91357  35.275  23.216  13.067
22953W        W91358  18.154  37.019   3.603
22954W        W91359  19.187  29.739  11.478
22955W        W91360  42.365   9.583  11.176
22956W        W91361  24.134  21.655  11.554
22957W        W91362  35.917  39.938   4.578
22958W        W91363   9.253   3.717  13.869
22959W        W91364  11.256  12.378  14.519
22960W        W91365  32.722  22.453   1.702
22961W        W91366  38.890  24.286  13.625
22962W        W91367   6.660  19.335   4.189
22963W        W91368  23.035  29.991   0.358
22964W        W91369  16.077   5.278   4.885
22965W        W91370  29.950   1.398  12.500
22966W        W91371  18.918   3.945  13.870
22967W        W91372   6.479  11.051   0.096
22968W        W91373   0.417   1.394  11.493
22969W        W91374  35.141  19.006  11.656
22970W        W91375  37.907  24.014   4.239
22971W        W91376  36.324  38.013   1.832
22972W        W91377  32.676  15.123   0.257
22973W        W91378  27.986  16.851  12.182
22974W        W91379  42.377  24.633  14.421
22975W        W91380  32.925  23.686   0.242
22976W        W91381  10.433   7.360   2.905
22977W        W91382  18.854  31.985  13.866
22978W        W91383  14.158  15.433   2.765
22979W        W91384   5.289   2.458   3.366
22980W        W91385  24.151   1.462   0.837
22981W        W91386  31.659  28.618  14.453
22982W        W91387  17.137  15.294   4.310
22983W        W91388  18.985  11.633   2.156
22984W        W91389  11.673  20.336  11.492
22985W        W91390  25.177  23.268  10.754
22986W        W91391  35.565  40.911   1.371
22987W        W91392   4.485  37.475  11.529
22988W        W91393  36.995  19.539  12.481
22989W        W91394  11.214  16.815  14.958
22990W        W91395  39.006  38.882  14.446
22991W        W91396   4.498  42.064  13.853
22992W        W91397   7.862  27.390   1.772
22993W        W91398   4.421   9.776   2.138
22994W        W91399  29.125  25.047   1.072
22995W        W91400   1.735  32.942   0.967
22996W        W91401   2.382  38.975  12.415
22997W        W91402  42.491  40.282  14.384
22998W        W91403  23.668   0.554  11.692
22999W        W91404  25.588  19.374   4.599
23000W        W91405   3.243  19.116   4.650
23001W        W91406   5.369  22.307   4.140
23002W        W91407  26.182  36.922   1.152
23003W        W91408  26.124  40.482  13.476
23004W        W91409  39.513   8.831   5.006
23005W        W91410  44.402  14.700  10.425
23006W        W91411   7.095  18.826   1.830
23007W        W91412   3.958  42.088   3.664
23008W        W91413  42.987  37.566   4.587
23009W        W91414  11.758  29.230  12.148
23010W        W91415  41.600  16.438  11.189
23011W        W91416  11.914  26.688  10.673
23012W        W91417  43.868  24.647  13.629
23013W        W91418   4.694  10.664   1.896
23014W        W91419   3.907   1.530   2.606
23015W        W91420  24.994  38.893  11.204
23016W        W91421   3.810  19.258  13.508
23017W        W91422  42.961  23.628   3.840
23018W        W91423   4.679   0.347   2.311
23019W        W91424  21.537  13.786  10.758
23020W        W91425   3.918  30.056   1.790
23021W        W91426  22.065  38.760  14.797
23022W        W91427  28.930  19.594   3.115
23023W        W91428  28.461   0.135   1.338
23024W        W91429  10.281  42.979  12.885
23025W        W91430  14.583  36.000  13.988
23026W        W91431  14.720  43.273   0.716
23027W        W91432   5.217  42.824   3.715
23028W        W91433  32.943  33.048  13.438
23029W        W91434   2.845  29.596  14.973
23030W        W91435  27.702  39.727   1.868
23031W        W91436  17.072  38.241  12.449
23032W        W91437  17.064  34.051   1.316
23033W        W91438  12.562  15.592  11.846
23034W        W91439  34.550  41.507  14.302
23035W        W91440  42.731  16.622   2.673
23036W        W91441  43.536   1.434  10.745
23037W        W91442  19.228  20.064   0.125
23038W        W91443   8.674  39.901   1.002
23039W        W91444   7.337  42.544  12.651
23040W        W91445  31.427  29.126   3.908
23041W        W91446  11.338   6.017  11.627
23042W        W91447  18.754  34.910  14.243
23043W        W91448  15.339  15.611  11.024
23044W        W91449  18.723   1.441   3.689
23045W        W91450  14.363   0.796  11.654
23046W        W91451  23.235  12.268   4.322
23047W        W91452  31.434   2.505  14.332
23048W        W91453   5.218   8.766   0.797
23049W        W91454   8.564   0.304   4.220
23050W        W91455  29.265  30.579  12.325
23051W        W91456   1.348  25.001   1.881
23052W        W91457  21.281   2.949  12.074
23053W        W91458  32.328  22.166  10.732
23054W        W91459  36.795  16.423   1.656
23055W        W91460  16.222  21.476  14.281
23056W        W91461  19.672  23.328   4.076
23057W        W91462   4.258  21.937  12.442
23058W        W91463  36.399   4.772   4.584
23059W        W91464  39.818  11.713   3.307
23060W        W91465   8.263  15.207   4.463
23061W        W91466  25.004  39.886   1.630
23062W        W91467   5.781  26.514  14.503
23063W        W91468   0.964  24.003  14.289
23064W        W91469  10.109  44.909  11.757
23065W        W91470   4.566  27.883  12.979
23066W        W91471  31.168  20.554  14.563
23067W        W91472  35.775  36.810   4.184
23068W        W91473   8.216  12.045  14.183
23069W        W91474   8.217  33.673  12.070
23070W        W91475  30.937  10.161  11.612
23071W        W91476   9.815  43.246   4.640
23072W        W91477   9.712  17.511  12.703
23073W        W91478  42.800  18.091  14.377
23074W        W91479  44.314  27.062  14.859
23075W        W91480   4.445   4.156  11.473
23076W        W91481  36.146  40.521  11.503
23077W        W91482   3.904  30.053  13.310
23078W        W91483  40.546   5.294  11.542
23079W        W91484  40.262  38.946   4.817
23080W        W91485  32.968  18.796   0.990
23081W        W91486  34.593   4.644   1.365
23082W        W91487  28.933  40.507   2.793
23083W        W91488   8.270  43.878   0.160
23084W        W91489  27.391  10.727   1.311
23085W        W91490  35.460   4.853   1.865
23086W        W91491  19.240   2.504   3.195
23087W        W91492  12.783   3.193   3.210
23088W        W91493  44.238  16.165  11.544
23089W        W91494  29.047  27.419   2.405
23090W        W91495  37.602  12.431   1.617
23091W        W91496  43.773  43.299   4.206
23092W        W91497  37.105   4.469   1.745
23093W        W91498  42.967   5.494  11.094
23094W        W91499  36.078  15.217   2.162
23095W        W91500  14.706  20.213   1.070
23096W        W91501  11.022  23.038   2.366
23097W        W91502  22.009  42.477   3.861
23098W        W91503  19.906   0.837   4.441
23099W        W91504  23.989   5.852   2.984
23100W        W91505  30.119  12.773  10.735
23101W        W91506  32.872  31.679  11.521
23102W        W91507  41.253  23.535  13.933
23103W        W91508   6.306  29.647  11.081
23104W        W91509  27.731  24.515  13.043
23105W        W91510  22.318  39.546  10.233
23106W        W91511   9.883  29.190   3.313
23107W        W91512  18.034  19.498  13.567
23108W        W91513  44.435  23.606   3.112
23109W        W91514  15.134   1.764   3.986
23110W        W91515   3.262  32.383   0.287
23111W        W91516  13.380  44.215  12.709
23112W        W91517  24.667  18.293   4.536
23113W        W91518  36.388   8.878  13.565
23114W        W91519   0.356  39.420  11.742
23115W        W91520  39.865  34.515  14.044
23116W        W91521  37.145  25.029  13.725
23117W        W91522  39.521   1.232  13.909
23118W        W91523  28.158  41.034   2.827
23119W        W91524  38.338  41.788   1.721
23120W        W91525   7.192  21.250  12.056
23121W        W91526  33.572  37.560   4.662
23122W        W91527  13.347  29.557   0.717
23123W        W91528  16.961  29.411  13.452
23124W        W91529   7.675  12.179   2.785
23125W        W91530  29.066  28.702   4.711
23126W        W91531  27.295   0.812   1.826
23127W        W91532  15.860  44.515   3.218
23128W        W91533  28.322   8.712  11.439
23129W        W91534  38.560  17.559  11.029
23130W        W91535  13.245  34.616   2.770
23131W        W91536  43.975  12.874   0.877
23132W        W91537  11.326   3.896  11.034
23133W        W91538  19.901   9.247  13.289
23134W        W91539  17.200  27.075   1.762
23135W        W91540  23.758  18.137   2.477
23136W        W91541  33.577  10.062  11.083
23137W        W91542   1.631   3.447   2.270
23138W        W91543  16.266  41.036   0.334
23139W        W91544   2.838  17.690   1.866
23140W        W91545   8.694  12.536   1.257
23141W        W91546   0.682  38.625  11.562
23142W        W91547  41.105   5.278  10.663
23143W        W91548  37.603  13.752  14.542
23144W        W91549  44.155  28.521  12.455
23145W        W91550  11.817  18.477  11.887
23146W        W91551  32.459   8.229   4.631
23147W        W91552  16.645  26.550   2.759
23148W        W91553  12.261  30.659   2.304
23149W        W91554  17.604   4.406   2.039
23150W        W91555  25.666  24.234  10.142
23151W        W91556  40.473   9.724   3.533
23152W        W91557  27.186  24.153  11.611
23153W        W91558   6.878  24.262  12.642
23154W        W91559  25.023  32.361  12.403
23155W        W91560   1.341  16.887   1.807
23156W        W91561  41.289  22.463   1.809
23157W        W91562  14.037   6.138   0.307
23158W        W91563  40.539  24.054  11.944
23159W        W91564  30.746  25.515   2.686
23160W        W91565  11.748  19.886  14.265
23161W        W91566  14.335  41.861  12.866
23162W        W91567   1.400  24.904  10.994
23163W        W91568   9.068  16.994  14.450
23164W        W91569  27.655  29.973   0.504
23165W        W91570  32.157  32.469  13.383
23166W        W91571  10.678  40.392  13.114
23167W        W91572   2.940   7.731  14.127
23168W        W91573  23.013  13.170   3.099
23169W        W91574  44.305  21.578   2.222
23170W        W91575   2.576   9.782  10.216
23171W        W91576  19.337   4.379   2.458
23172W        W91577   4.896   1.466   1.839
23173W        W91578  23.262  24.566   2.699
23174W        W91579  11.630  36.648   0.749
23175W        W91580  38.022  15.300   3.758
23176W        W91581   5.001  24.651   1.017
23177W        W91582  24.518   3.695  11.246
23178W        W91583  39.544   8.371  14.506
23179W        W91584  11.838  41.264  14.225
23180W        W91585  43.261  32.322  13.696
23181W        W91586   7.120  34.050  11.614
23182W        W91587  21.640  42.112   3.820
23183W        W91588  25.340  11.727   0.740
23184W        W91589   4.014  37.305  12.472
23185W        W91590   0.334  13.584  14.212
23186W        W91591  12.222  12.555   0.407
23187W        W91592  37.323   0.498  11.275
23188W        W91593   4.471  44.833   1.498
23189W        W91594  25.973  29.707  12.401
23190W        W91595  31.123  23.083   4.213
23191W        W91596  44.096  23.222  13.944
23192W        W91597  40.213  16.689  14.788
23193W        W91598   8.179  42.552  13.069
23194W        W91599  15.183  26.565  12.847
23195W        W91600  17.266  26.689  14.840
23196W        W91601  25.124  25.436   1.420
23197W        W91602   1.687   1.449   2.149
23198W        W91603   2.759   0.328   3.353
23199W        W91604  34.019  37.000  10.760
23200W        W91605  27.115  29.119   0.620
23201W        W91606  33.914  25.497  12.481
23202W        W91607  27.756  39.854  10.921
23203W        W91608  29.798  33.485  11.186
23204W        W91609  10.558  26.669  13.971
23205W        W91610  13.037  19.762  11.135
23206W        W91611  17.757   1.035  12.316
23207W        W91612  28.962  24.969   2.756
23208W        W91613  12.397  15.754   4.944
23209W        W91614  22.105  14.871   1.444
23210W        W91615  37.717  32.330  13.379
23211W        W91616  25.521   1.188   4.590
23212W        W91617  13.831   3.251   1.639
23213W        W91618  29.728  25.577  14.453
23214W        W91619   9.601  24.160   4.117
23215W        W91620   6.831  22.716   1.448
23216W        W91621  22.530   5.709   3.107
23217W        W91622  12.903   9.847   0.912
23218W        W91623  10.932   7.226   0.666
23219W        W91624   4.265  14.388   3.002
23220W        W91625  26.953   7.014  14.894
23221W        W91626  30.968  33.027   4.764
23222W        W91627  14.156  28.557   3.349
23223W        W91628   6.301  41.171   0.996
23224W        W91629  16.190  36.674   4.165
23225W        W91630  42.409  23.125  12.896
23226W        W91631  36.392   1.323   2.231
23227W        W91632   4.965   5.470   2.226
23228W        W91633  18.273  17.658   1.367
23229W        W91634  24.648  35.900   1.033
23230W        W91635  18.747  19.624   3.664
23231W        W91636  17.628  41.291   4.241
23232W        W91637  30.546  27.192  11.483
23233W        W91638  25.756  13.718   0.698
23234W        W91639  36.951  34.619  13.022
23235W        W91640  31.948  25.680  10.688
23236W        W91641  18.285  32.265  10.138
23237W        W91642  33.811   1.865   0.857
23238W        W91643  31.844  26.676   4.484
23239W        W91644  20.792  24.047  14.854
23240W        W91645  29.051  37.430  10.687
23241W        W91646  12.656  28.584   2.894
23242W        W91647  27.034   4.982  11.381
23243W        W91648   3.923  35.675   0.372
23244W        W91649  42.809  43.668  11.407
23245W        W91650  29.464  11.896  11.878
23246W        W91651  34.677  16.800  13.279
23247W        W91652  35.662  18.548   1.566
23248W        W91653  31.017  43.028   2.258
23249W        W91654  35.607  32.512   0.044
23250W        W91655  27.605  13.062  10.871
23251W        W91656   8.922  25.575   0.374
23252W        W91657  25.765  25.132  11.233
23253W        W91658  12.211  15.369  14.824
23254W        W91659   9.505  12.842  10.688
23255W        W91660  40.898   3.705  12.502
23256W        W91661   4.500  40.436   0.079
23257W        W91662   1.475  14.125  10.545
23258W        W91663  28.407  42.938  14.016
23259W        W91664  14.840  10.168   0.876
23260W        W91665   5.741   3.224  13.500
23261W        W91666  23.583   2.364   4.289
23262W        W91667  16.957  31.059  12.493
23263W        W91668  28.744  25.048  14.921
23264W        W91669  41.373  12.442  10.486
23265W        W91670  17.803  11.732  13.118
23266W        W91671  41.722  29.749   1.843
23267W        W91672  10.451  33.579  10.678
23268W        W91673   3.889  39.016   0.187
23269W        W91674  34.894  29.872  10.669
23270W        W91675   9.174  44.544  12.443
23271W        W91676  23.997  33.499   1.770
23272W        W91677  30.352   4.326  14.764
23273W        W91678   0.394  33.557  10.290
23274W        W91679   1.548   8.918   4.188
23275W        W91680  17.003  31.046  13.424
23276W        W91681  41.869  27.398   3.846
23277W        W91682  34.029  37.364   2.853
23278W        W91683  38.337   3.392  13.071
23279W        W91684  27.934   2.237   3.743
23280W        W91685  39.449  33.005  14.487
23281W        W91686  21.714  41.468  11.991
23282W        W91687  15.512   2.936   3.265
23283W        W91688  40.386  25.208  13.584
23284W        W91689  36.910  34.853   1.108
23285W        W91690   9.961  24.703   1.749
23286W        W91691  40.677  20.648   1.124
23287W        W91692   5.810  26.642   0.506
23288W        W91693  16.567  34.398   5.365
23289W        W91694  13.749  21.291   0.439
23290W        W91695  26.071  10.150  13.490
23291W        W91696   4.194  20.704   4.613
23292W        W91697   0.420  10.290  12.901
23293W        W91698  21.294  26.074  12.426
23294W        W91699   8.301  27.593   0.827
23295W        W91700   5.880  25.667   4.176
23296W        W91701   0.275   6.854   0.298
23297W        W91702  23.530   7.910   1.223
23298W        W91703  31.380  19.211  11.945
23299W        W91704   1.715  18.247  11.901
23300W        W91705  19.406   3.837  13.780
23301W        W91706  34.225  36.686  11.882
23302W        W91707   0.217  31.984  12.434
23303W        W91708  42.716  10.834   1.603
23304W        W91709  28.062  30.058  14.681
23305W        W91710   8.678  25.257  13.398
23306W        W91711  15.315  32.494   4.115
23307W        W91712  37.953  26.364  14.450
23308W        W91713   9.826   2.197   4.551
23309W        W91714  30.960  36.516  13.063
23310W        W91715  28.576  19.278  10.261
23311W        W91716  34.482  14.808  10.813
23312W        W91717   8.810  24.935  14.879
23313W        W91718   5.365   0.340  10.585
23314W        W91719  42.339  44.778  13.492
23315W        W91720  37.764  15.781  12.786
23316W        W91721   9.609   3.953   1.255
23317W        W91722   0.721  14.692  14.005
23318W        W91723  27.710  35.708   1.960
23319W        W91724  10.770  40.023   5.082
23320W        W91725  31.906  16.608   2.179
23321W        W91726  26.072  41.785  11.891
23322W        W91727  37.200   9.192  10.662
23323W        W91728  38.315   7.383  11.705
23324W        W91729  44.719  33.401   4.305
23325W        W91730  41.072  12.226   3.626
23326W        W91731  42.016   4.543  10.825
23327W        W91732  32.627  33.198   2.854
23328W        W91733   7.481  23.198   1.756
23329W        W91734  39.139  29.819  10.621
23330W        W91735  10.780  12.947  11.781
23331W        W91736  35.765  20.589   4.599
23332W        W91737   1.836  27.029   2.467
23333W        W91738  42.182  19.773  13.472
23334W        W91739  15.593  29.546  10.433
23335W        W91740  36.018  44.281   4.104
23336W        W91741  39.462  35.567  12.459
23337W        W91742  41.944  39.591  12.170
23338W        W91743   6.963  18.515   2.228
23339W        W91744  27.134  41.244  11.671
23340W        W91745   0.778  43.404  12.653
23341W        W91746   6.869  20.881  14.587
23342W        W91747  39.306  35.306   2.825
23343W        W91748   2.302  43.039   2.893
23344W        W91749  40.895  21.954   3.619
23345W        W91750   3.007  14.602   1.441
23346W        W91751  21.126  36.630   0.968
23347W        W91752  30.065  16.162  13.060
23348W        W91753  43.974   4.176  11.086
23349W        W91754   9.231  18.790   2.234
23350W        W91755  19.674  28.695   0.978
23351W        W91756  19.025  34.861   4.480
23352W        W91757  19.759  23.526   1.978
23353W        W91758  12.122   2.648  12.046
23354W        W91759   1.185  25.057   1.374
23355W        W91760  41.848   2.132  12.499
23356W        W91761  22.450  37.005  11.969
23357W        W91762  19.297  18.506  12.023
23358W        W91763  43.214   3.873  14.398
23359W        W91764  12.111  29.534  10.518
23360W        W91765  35.031  12.456  13.153
23361W        W91766   7.349  16.443   1.868
23362W        W91767  33.783   4.019   1.863
23363W        W91768  19.978  19.642  11.075
23364W        W91769   7.230   4.395  14.374
23365W        W91770  22.778  28.083   5.007
23366W        W91771  33.939  17.718  11.045
23367W        W91772   4.244  19.603   3.281
23368W        W91773  26.972   4.405   2.277
23369W        W91774  40.874  35.606   0.415
23370W        W91775   6.783  15.624  12.019
23371W        W91776  39.319  20.973  12.929
23372W        W91777  20.677  37.100   1.568
23373W        W91778   5.200   4.248   4.096
23374W        W91779   4.192  37.515   4.862
23375W        W91780  42.369  21.047  11.470
23376W        W91781  27.230  35.335  14.457
23377W        W91782  26.258  37.947  13.846
23378W        W91783  13.080  38.978   2.223
23379W        W91784   8.860   1.375   4.806
23380W        W91785  15.012  33.593   2.769
23381W        W91786  23.724  23.522   3.926
23382W        W91787  18.640   7.606   4.103
23383W        W91788  27.551  24.529  11.557
23384W        W91789   2.082  35.910   1.414
23385W        W91790   1.176  44.341  12.861
23386W        W91791  42.135  35.482   1.652
23387W        W91792  22.540  33.995  13.614
23388W        W91793  13.782  36.630  14.353
23389W        W91794  39.742  34.046   0.408
23390W        W91795   1.051  30.368   3.673
23391W        W91796   3.985  28.197   3.803
23392W        W91797  42.470  33.654  11.438
23393W        W91798  41.808  36.128   0.234
23394W        W91799  12.484  11.446   9.981
23395W        W91800  43.754  32.472  11.165
23396W        W91801  21.048  24.117  11.971
23397W        W91802  27.952   6.907   2.127
23398W        W91803  41.776  16.204   3.501
23399W        W91804  10.000  19.590  10.467
23400W        W91805  10.630  43.533  14.523
23401W        W91806   3.482   2.264  14.072
23402W        W91807  40.049   1.592  14.124
23403W        W91808  32.568  26.048   0.013
23404W        W91809  44.233  18.320  11.516
23405W        W91810  10.380  15.360   2.751
23406W        W91811  24.207  37.349   1.502
23407W        W91812  28.510   5.399   2.103
23408W        W91813  40.906  39.976  14.394
23409W        W91814   5.126  24.665   4.142
23410W        W91815  18.614  30.057   1.444
23411W        W91816  33.048   9.082   3.572
23412W        W91817  20.110  14.388  13.028
23413W        W91818  18.692  23.282   0.366
23414W        W91819   7.295  18.510  12.426
23415W        W91820  20.737   2.644  14.923
23416W        W91821  21.776   7.159  14.905
23417W        W91822   5.970  27.678   0.895
23418W        W91823  34.091   1.996   3.445
23419W        W91824  22.650  23.798   0.461
23420W        W91825   6.783  32.888  13.393
23421W        W91826   3.806   2.814   1.754
23422W        W91827  13.698  33.860   2.764
23423W        W91828  43.192  28.231   1.820
23424W        W91829  21.237  27.171   1.607
23425W        W91830  13.613  22.291  13.010
23426W        W91831  23.152  29.645  13.546
23427W        W91832  29.098  15.011   4.601
23428W        W91833  20.291  17.644   2.297
23429W        W91834  16.572  27.465  11.598
23430W        W91835  36.583   3.816   1.892
23431W        W91836  30.004  16.973   2.197
23432W        W91837   4.904  38.335  14.865
23433W        W91838  36.328   9.147   3.552
23434W        W91839  22.849  24.693   0.397
23435W        W91840  11.915  40.738  14.296
23436W        W91841  10.334  27.471  10.506
23437W        W91842   4.434  39.491   0.180
23438W        W91843   2.943  23.182   3.994
23439W        W91844  23.608  36.630  10.595
23440W        W91845  20.676  32.641   2.370
23441W        W91846   0.797  29.348  14.463
23442W        W91847  37.972  33.380   4.906
23443W        W91848  33.842  12.618  12.423
23444W        W91849  26.976  36.087   3.608
23445W        W91850  34.015  20.012  14.944
23446W        W91851   1.861  32.794   1.459
23447W        W91852  29.542  19.762   1.943
23448W        W91853   7.830  28.563   3.814
23449W        W91854  23.614   7.280   2.187
23450W        W91855  13.099   2.782  11.103
23451W        W91856  11.267  20.706  14.961
23452W        W91857  15.132  40.793  12.808
23453W        W91858   2.324  36.388   4.175
23454W        W91859  35.489  44.210  14.770
23455W        W91860  27.012  37.880  11.345
23456W        W91861  43.239  44.616  12.409
23457W        W91862  41.995  44.375  12.563
23458W        W91863  29.458  12.012  14.507
23459W        W91864  26.532  17.868  14.413
23460W        W91865   7.956  30.348   1.414
23461W        W91866  10.257  40.461   1.986
23462W        W91867  26.147  43.841  14.505
23463W        W91868  36.474   5.017  13.017
23464W        W91869  41.407   4.269  12.333
23465W        W91870  17.071  24.115  10.459
23466W        W91871   3.056   0.995   2.805
23467W        W91872  14.617   4.463   2.485
23468W        W91873  36.404  20.271   3.252
23469W        W91874  14.053  43.248   1.400
23470W        W91875  38.139  34.170   2.330
23471W        W91876  37.823  10.588  11.977
23472W        W91877   7.831  20.925  11.488
23473W        W91878  11.724   6.810  14.302
23474W        W91879  13.466  43.239   0.679
23475W        W91880  19.008  16.007  11.583
23476W        W91881   7.888  10.772  12.870
23477W        W91882  40.334   8.802  12.425
23478W        W91883  35.589  36.696   4.698
23479W        W91884  36.666  23.910  10.590
23480W        W91885  16.261   2.476  14.886
23481W        W91886  27.203  15.327  11.305
23482W        W91887  13.265  35.720   4.503
23483W        W91888  13.837  34.027  10.653
23484W        W91889   0.771  29.923   3.760
23485W        W91890  21.797  17.263   3.377
23486W        W91891  38.888  18.959  11.164
23487W        W91892   9.555  17.397   2.218
23488W        W91893  14.368  39.116  14.217
23489W        W91894   6.763  21.383  12.921
23490W        W91895  30.009  21.210   2.638
23491W        W91896   6.284  44.551   0.881
23492W        W91897  31.648  28.537  12.085
23493W        W91898  22.684   6.286  13.762
23494W        W91899   9.241  19.293   2.358
23495W        W91900  30.351  18.869   0.760
23496W        W91901  39.461  43.478   3.359
23497W        W91902  29.521  29.001  13.016
23498W        W91903  19.790  14.339   1.408
23499W        W91904   8.224  19.218  11.127
23500W        W91905   0.775  23.839   4.170
23501W        W91906   3.398  19.797  12.608
23502W        W91907   0.051  38.441   4.303
23503W        W91908  40.293  43.892   1.184
23504W        W91909  10.082  34.040  13.094
23505W        W91910  19.256  44.991  11.736
23506W        W91911  20.738   3.542   0.398
23507W        W91912   7.487   5.213  14.763
23508W        W91913  11.035  29.793   1.350
23509W        W91914  28.654  31.890   0.261
23510W        W91915  39.458  22.916   0.836
23511W        W91916   6.199   6.727   0.485
23512W        W91917  20.696  27.466  14.887
23513W        W91918   8.770  33.429  14.202
23514W        W91919   4.904   7.241  10.278
23515W        W91920  13.045  12.926  13.317
23516W        W91921  29.979  26.527   3.189
23517W        W91922  13.112  32.829  14.999
23518W        W91923  13.216  35.038  12.261
23519W        W91924   3.816  24.813   5.075
23520W        W91925  30.912  29.116  11.965
23521W        W91926  44.507   3.263   2.725
23522W        W91927  27.450  31.600   2.124
23523W        W91928  20.448  43.709  12.612
23524W        W91929  26.196  18.134  11.026
23525W        W91930  30.103  11.941   1.718
23526W        W91931  42.564   4.333  14.681
23527W        W91932  11.799  34.629   1.912
23528W        W91933   8.677   5.818   2.530
23529W        W91934  13.273  34.418   4.607
23530W        W91935  24.974  15.561   0.767
23531W        W91936  27.890  18.283   1.720
23532W        W91937   1.485  26.690   2.225
23533W        W91938  37.423   3.967  12.707
23534W        W91939  42.804   0.001   1.314
23535W        W91940  35.965  22.219  13.870
23536W        W91941  31.066   8.653   2.741
23537W        W91942  29.555  25.395   1.158
23538W        W91943   1.366  13.936   3.180
23539W        W91944  43.331  11.094  14.783
23540W        W91945   2.915  24.187   3.902
23541W        W91946  18.493  44.399   0.865
23542W        W91947  19.652  43.715   1.405
23543W        W91948  36.689  21.151   0.889
23544W        W91949  19.750   2.347  11.511
23545W        W91950   8.642  39.553   0.329
23546W        W91951   7.200  18.134   5.206
23547W        W91952  27.089  38.013  10.530
23548W        W91953  12.791  36.887  10.768
23549W        W91954  27.174   6.294  10.689
23550W        W91955  18.986  15.112  13.517
23551W        W91956  33.394  24.852   2.184
23552W        W91957  16.582  31.572   0.350
23553W        W91958  14.412  20.345   5.154
23554W        W91959  31.119  23.468  13.000
23555W        W91960  31.790   0.956   0.751
23556W        W91961  15.360  31.050  11.932
23557W        W91962   6.953   1.805  13.420
23558W        W91963  17.128  38.212  11.930
23559W        W91964   8.267  40.725   1.245
23560W        W91965  37.246  43.453   4.590
23561W        W91966  32.406  40.827   2.155
23562W        W91967  44.013  35.044   1.866
23563W        W91968   7.513   5.318  10.612
23564W        W91969   7.567  10.586   3.412
23565W        W91970  24.667   1.959   0.257
23566W        W91971  10.136  23.055  10.692
23567W        W91972  22.971  41.297   0.968
23568W        W91973   6.341  16.046  14.520
23569W        W91974  30.727  14.632  13.300
23570W        W91975  29.036  15.540   4.667
23571W        W91976  17.814  40.589   2.830
23572W        W91977   6.373  11.612  12.052
23573W        W91978   4.919  31.857   3.716
23574W        W91979   4.368  13.342  13.002
23575W        W91980  20.197  39.555   3.283
23576W        W91981  16.880  25.572   2.647
23577W        W91982  37.037  22.283  11.183
23578W        W91983  35.093  22.153   3.417
23579W        W91984  38.029   9.155   1.720
23580W        W91985  38.068  29.051   3.274
23581W        W91986  16.287   0.014   5.487
23582W        W91987   1.579   3.155   0.989
23583W        W91988   8.308   8.712  12.195
23584W        W91989  28.726  43.232   1.324
23585W        W91990  16.775  15.704  12.499
23586W        W91991  41.850  32.461  11.651
23587W        W91992  19.464  13.804  11.983
23588W        W91993  25.716  10.801   2.422
23589W        W91994  33.415  26.766  12.497
23590W        W91995   6.994   8.468   0.384
23591W        W91996  34.489  12.064  13.581
23592W        W91997   6.747   6.723  13.244
23593W        W91998  29.981   0.141  12.394
23594W        W91999   3.728   1.803   2.186
23595W        W92000  29.698  20.499   0.782
23596W        W92001  37.052  17.757  11.061
23597W        W92002   7.760  41.678   2.341
23598W        W92003  16.119  35.908   1.838
23599W        W92004   3.735  19.484  11.384
23600W        W92005  27.462   3.281  11.337
23601W        W92006  36.877  30.694   4.105
23602W        W92007   4.792   1.744   9.915
23603W        W92008  36.525   2.442  11.473
23604W        W92009  23.162  14.628   0.442
23605W        W92010  25.011  24.127   1.806
23606W        W92011   6.432   7.303   0.703
23607W        W92012  33.869  18.786   4.192
23608W        W92013  35.066  11.853   3.163
23609W        W92014  25.918  10.379   2.693
23610W        W92015  41.871  23.649  11.584
23611W        W92016  13.842  11.000   1.794
23612W        W92017  24.560   2.939   3.843
23613W        W92018  16.345  42.416   0.311
23614W        W92019   3.862  17.401   2.311
23615W        W92020  23.268  43.710   3.176
23616W        W92021  18.646  40.718  12.181
23617W        W92022  25.354  28.123  10.824
23618W        W92023  26.087  27.978  11.089
23619W        W92024   0.778  16.888  13.107
23620W        W92025  37.897  18.197   0.351
23621W        W92026  37.366  31.438  11.457
23622W        W92027  38.951  26.637   4.657
23623W        W92028  28.664   7.256   4.262
23624W        W92029  28.563  29.614   4.859
23625W        W92030   6.124  29.179  11.039
23626W        W92031   0.900  41.438   4.694
23627W        W92032  39.149  39.140   3.110
23628W        W92033  26.664  14.875   3.618
23629W        W92034  34.005  22.163   2.939
23630W        W92035  36.588   7.389   3.647
23631W        W92036  40.140  42.470   4.261
23632W        W92037  30.421  12.318   1.380
23633W        W92038   6.109  20.111  10.495
23634W        W92039  38.393  18.669  11.727
23635W        W92040  12.646  17.700  13.303
23636W        W92041  41.325  11.352   1.847
23637W        W92042  34.982  21.930   3.892
23638W        W92043  39.243   9.010  10.641
23639W        W92044   1.353  16.204  11.498
23640W        W92045  22.357  18.317   4.137
23641W        W92046  29.154   4.925   4.125
23642W        W92047  14.557  35.049  13.920
23643W        W92048  21.506   7.762  10.466
23644W        W92049  43.432  22.422   0.343
23645W        W92050  44.355  30.335   4.894
23646W        W92051  10.768  30.303   0.259
23647W        W92052  27.037   1.883   3.880
23648W        W92053  28.079  10.373   0.361
23649W        W92054  36.466  14.431   5.036
23650W        W92055   8.809  21.062   2.301
23651W        W92056  31.258   8.715   0.969
23652W        W92057   0.242  10.063   4.265
23653W        W92058  32.136   7.847   0.258
23654W        W92059  18.667  42.996  14.624
23655W        W92060  28.968   9.310  14.490
23656W        W92061  11.286  25.439  12.506
23657W        W92062   8.213  29.551  12.588
23658W        W92063  16.955  19.794   3.053
23659W        W92064  42.663   7.601   4.997
23660W        W92065  14.199  40.720  11.279
23661W        W92066   7.265  17.695  11.423
23662W        W92067  27.555  19.975  11.936
23663W        W92068  20.473  44.340   2.357
23664W        W92069  17.917  30.049   4.731
23665W        W92070  36.123  14.212   1.373
23666W        W92071  41.811   0.311   1.786
23667W        W92072  22.899  27.948   2.217
23668W        W92073   8.017  35.963  14.697
23669W        W92074   2.432  16.646   0.693
23670W        W92075  17.854  42.819   4.246
23671W        W92076  15.892  19.553  14.460
23672W        W92077   6.942  25.483   2.336
23673W        W92078  18.126  33.559  12.914
23674W        W92079   8.554  21.460   1.628
23675W        W92080  38.921  11.060   3.443
23676W        W92081  10.330   5.381   4.607
23677W        W92082  20.473   3.437   1.972
23678W        W92083  24.547  18.661   0.669
23679W        W92084  16.038  42.531  12.907
23680W        W92085  21.873   0.245  11.632
23681W        W92086  29.135  15.239  14.101
23682W        W92087   6.200  34.409  13.995
23683W        W92088  35.133  19.649   5.075
23684W        W92089  16.140   4.945  11.607
23685W        W92090  32.830  10.097   4.419
23686W        W92091   7.287  24.447  13.595
23687W        W92092  42.941  26.495  11.637
23688W        W92093  39.571   8.832  12.914
23689W        W92094  29.221   0.660   1.701
23690W        W92095  30.160   0.496   1.632
23691W        W92096  31.262  14.342   1.382
23692W        W92097  25.043  32.067  11.035
23693W        W92098  18.382   1.817   3.608
23694W        W92099  26.587  21.005   3.281
23695W        W92100   7.895  37.469   3.098
23696W        W92101   5.753   8.387  12.400
23697W        W92102   4.206  21.762   4.633
23698W        W92103  32.396  42.077   1.929
23699W        W92104  14.828   1.924  10.677
23700W        W92105  25.653  26.382  13.006
23701W        W92106   0.240   6.298   1.795
23702W        W92107  36.614  19.052  10.661
23703W        W92108  39.948  23.625   4.367
23704W        W92109  35.465  14.077  11.553
23705W        W92110  38.400  24.164   4.263
23706W        W92111  19.234  21.587   4.097
23707W        W92112   6.371  22.259  10.698
23708W        W92113  35.184  43.475   2.830
23709W        W92114  11.676  15.512  14.906
23710W        W92115  38.402  26.633  14.448
23711W        W92116  43.228  33.357  10.190
23712W        W92117  32.976  21.649   1.849
23713W        W92118  29.704  29.730   1.737
23714W        W92119  21.184   1.021   4.130
23715W        W92120   9.481  31.387  11.142
23716W        W92121  23.277  19.262  11.119
23717W        W92122   8.915   5.601   4.835
23718W        W92123  28.447  15.854  14.384
23719W        W92124   2.816  44.905  14.226
23720W        W92125   6.900  25.298   1.412
23721W        W92126  22.553  17.783   1.669
23722W        W92127  15.327  12.782  13.785
23723W        W92128  14.645   1.773  14.396
23724W        W92129  31.823   0.331   0.228
23725W        W92130  27.984   2.445  12.665
23726W        W92131   5.910  13.464  11.260
23727W        W92132  41.941  14.877   0.781
23728W        W92133  13.404  29.176   2.873
23729W        W92134  39.036  36.872  10.610
23730W        W92135  37.583  30.226  13.259
23731W        W92136  19.032  25.515  14.723
23732W        W92137  15.321  40.223   0.466
23733W        W92138  40.025  24.224   2.644
23734W        W92139  18.093  12.113   3.665
23735W        W92140  26.129  43.850   3.254
23736W        W92141  25.185  20.422   2.857
23737W        W92142  37.743  14.014  14.975
23738W        W92143  40.718   0.550  11.382
23739W        W92144   8.415   3.258  11.218
23740W        W92145  42.985  11.326  13.480
23741W        W92146  29.539   7.406  10.477
23742W        W92147  29.309  43.749  12.396
23743W        W92148   3.781  39.083  12.554
23744W        W92149  26.696  30.505   4.531
23745W        W92150  13.285   2.307  12.810
23746W        W92151  15.287  30.726   3.385
23747W        W92152  24.259  29.303  13.802
23748W        W92153  26.035  24.283  10.556
23749W        W92154  30.834  39.405   3.280
23750W        W92155  22.821  37.513   2.152
23751W        W92156  22.127  19.628  13.759
23752W        W92157   2.757  30.260  14.144
23753W        W92158  36.956  33.634  11.157
23754W        W92159   8.859   7.602  10.760
23755W        W92160  36.873  29.855   0.793
23756W        W92161  40.233  28.442  11.078
23757W        W92162  29.140  40.078   0.917
23758W        W92163  16.753  11.734  11.570
23759W        W92164  30.413  11.188  12.716
23760W        W92165  36.782  14.399  11.194
23761W        W92166  11.252   0.728  10.050
23762W        W92167  30.459   6.223  12.731
23763W        W92168  24.102  28.801  13.762
23764W        W92169  27.057  40.508  14.366
23765W        W92170  37.623  34.632  13.510
23766W        W92171  39.647  15.178  14.726
23767W        W92172  14.625  37.623   3.177
23768W        W92173  35.980  26.068   0.705
23769W        W92174  37.659  23.131   3.721
23770W        W92175  28.819  11.137   2.873
23771W        W92176  18.530  44.738  11.117
23772W        W92177  41.381  11.388  13.488
23773W        W92178  33.739  31.937  12.538
23774W        W92179  35.323  21.613  11.632
23775W        W92180   2.236  26.400  14.969
23776W        W92181  16.055  14.331  12.576
23777W        W92182   5.968  11.404  13.952
23778W        W92183   6.633  13.284  10.782
23779W        W92184  43.471  25.102  11.132
23780W        W92185  21.290   6.430   2.154
23781W        W92186   8.674  25.866  10.802
23782W        W92187  41.607   7.453  13.455
23783W        W92188  42.561  27.214   1.345
23784W        W92189  22.860   3.877   3.641
23785W        W92190  28.995  15.777  14.934
23786W        W92191  28.458  10.419  11.053
23787W        W92192  22.463   8.772   1.500
23788W        W92193   3.853  30.402   3.209
23789W        W92194   4.333  38.842  13.948
23790W        W92195   4.249  33.753  12.447
23791W        W92196  36.271  19.530  12.067
23792W        W92197  37.180  11.615  13.154
23793W        W92198  35.855  21.526   0.246
23794W        W92199   1.357  44.467   0.245
23795W        W92200   7.030  28.004  10.513
23796W        W92201  41.884  26.883  11.305
23797W        W92202  27.795  33.831   3.119
23798W        W92203  15.581  14.108  13.937
23799W        W92204  17.329  23.010   2.737
23800W        W92205  37.361  19.059  14.933
23801W        W92206   5.255  11.781  12.936
23802W        W92207  20.104   7.308   2.292
23803W        W92208  20.110   6.764   0.466
23804W        W92209   0.914  13.149   2.625
23805W        W92210  39.953  44.832   4.824
23806W        W92211  16.740  28.931  13.530
23807W        W92212  19.528  21.687   3.689
23808W        W92213   8.692   5.532   3.921
23809W        W92214  13.363  41.075   1.794
23810W        W92215  22.664  12.543   1.337
23811W        W92216  27.845  44.458  10.347
23812W        W92217   2.775   9.824  12.388
23813W        W92218   8.930   2.442  11.546
23814W        W92219  24.189  21.509   1.762
23815W        W92220  10.222  10.989   2.773
23816W        W92221   9.578  14.384  12.685
23817W        W92222  44.908  14.554   2.511
23818W        W92223  37.615  20.564   2.731
23819W        W92224  41.184  36.017   2.210
23820W        W92225  26.681  18.773  14.046
23821W        W92226  15.654  15.613   5.028
23822W        W92227  44.839  40.374   1.678
23823W        W92228  33.376  20.716   0.522
23824W        W92229  15.655   2.526   0.288
23825W        W92230   3.983  30.006   0.786
23826W        W92231   5.476  13.189   0.274
23827W        W92232  14.248  37.037  13.603
23828W        W92233  12.837  10.917  10.632
23829W        W92234  36.095  27.979  11.219
23830W        W92235  17.764  24.449   5.210
23831W        W92236  37.021  16.389   4.321
23832W        W92237   8.321  13.548   4.629
23833W        W92238  30.502  20.701  11.242
23834W        W92239   6.905  22.037  14.255
23835W        W92240  37.705  10.144  11.597
23836W        W92241   8.923  10.998  12.793
23837W        W92242  32.056  31.965   3.059
23838W        W92243  32.028  16.185   3.392
23839W        W92244   6.731  43.397  10.472
23840W        W92245  13.836  22.084  11.440
23841W        W92246  11.205  12.904   3.083
23842W        W92247   1.551   4.326  14.431
23843W        W92248  31.382  18.351   0.352
23844W        W92249  25.146  27.686  12.463
23845W        W92250   8.192  14.967  11.854
23846W        W92251  19.116   9.595  10.810
23847W        W92252  44.816  22.490   0.477
23848W        W92253  22.003  35.361   0.919
23849W        W92254  42.505  17.623   0.600
23850W        W92255   0.216  27.288  14.781
23851W        W92256  17.451  16.208  11.178
23852W        W92257  26.863  27.396  14.009
23853W        W92258  14.908   2.013   3.218
23854W        W92259  36.796  43.332   0.879
23855W        W92260   6.830  37.881   0.803
23856W        W92261  10.659  18.117   3.844
23857W        W92262  15.375  42.826  14.337
23858W        W92263  34.966  14.848   1.326
23859W        W92264  33.007  21.694  12.477
23860W        W92265  44.402   5.423  14.957
23861W        W92266   0.733  20.721  14.210
23862W        W92267  37.844  30.011   1.734
23863W        W92268  25.596  13.635   1.175
23864W        W92269  30.189   3.908  10.696
23865W        W92270  19.581  11.629  13.895
23866W        W92271  20.351  34.803   3.139
23867W        W92272  11.998  23.319  12.988
23868W        W92273  29.760  11.840  14.900
23869W        W92274   5.691  18.233  14.532
23870W        W92275   4.235  22.079   1.324
23871W        W92276  36.883  14.809  12.046
23872W        W92277  42.081  14.292   9.918
23873W        W92278  39.272  21.570   2.706
23874W        W92279  22.237   4.905   1.895
23875W        W92280  42.232  20.597   4.429
23876W        W92281  24.157  35.708  12.402
23877W        W92282  37.940  36.994  13.151
23878W        W92283  32.528   4.024   2.025
23879W        W92284  44.610  41.616   0.759
23880W        W92285   6.389   6.447   0.920
23881W        W92286  19.817   4.785  14.766
23882W        W92287  32.285  29.496  13.260
23883W        W92288  21.322  36.105   4.234
23884W        W92289  31.658  37.086  12.423
23885W        W92290  32.767  28.866  10.218
23886W        W92291  13.034  19.662   1.861
23887W        W92292  13.895   0.778  11.863
23888W        W92293  34.025  16.740   4.995
23889W        W92294  18.596   3.585  13.158
23890W        W92295   1.010  17.793   0.917
23891W        W92296  38.491  26.764  11.110
23892W        W92297   1.804  12.843  14.295
23893W        W92298  37.102  42.903   2.670
23894W        W92299  23.449   3.320  11.520
23895W        W92300   6.731   8.338  11.163
23896W        W92301  14.352  20.208  12.052
23897W        W92302  24.035  38.024  14.750
23898W        W92303  11.713  28.007  11.004
23899W        W92304  11.349   0.294   2.203
23900W        W92305  18.863  10.259  14.498
23901W        W92306  11.381  36.352  11.956
23902W        W92307  16.091   7.737  12.615
23903W        W92308  39.461   9.230  11.069
23904W        W92309  43.761  43.364  14.283
23905W        W92310  43.227   1.219   3.597
23906W        W92311   0.198   4.380   4.616
23907W        W92312   8.724  18.204   5.253
23908W        W92313  29.112  29.745  13.868
23909W        W92314  37.841   9.970  12.056
23910W        W92315  29.064  33.041  12.037
23911W        W92316  11.209  34.803   3.327
23912W        W92317  41.251  28.139  14.220
23913W        W92318  32.856   7.315   4.627
23914W        W92319  21.681  26.923   3.255
23915W        W92320  42.455  30.323   3.077
23916W        W92321   2.888  23.551   4.642
23917W        W92322  23.658   9.350   2.291
23918W        W92323  27.045   1.504  12.438
23919W        W92324  17.152   9.717   4.084
23920W        W92325  28.872  20.175   1.405
23921W        W92326  20.370   6.128  12.159
23922W        W92327  15.831  29.190   1.459
23923W        W92328  28.138   3.356   1.968
23924W        W92329  41.872  10.386  12.119
23925W        W92330  43.327   4.962   3.175
23926W        W92331  11.671   6.932   2.247
23927W        W92332  25.091  44.405  13.549
23928W        W92333  22.076  16.937   1.843
23929W        W92334   6.308  12.555  13.494
23930W        W92335  43.480  23.747  11.135
23931W        W92336  10.202  17.985   1.808
23932W        W92337   7.644  21.554  11.177
23933W        W92338  14.654  22.689   4.662
23934W        W92339  24.044  28.106  14.484
23935W        W92340  33.495   2.704  14.785
23936W        W92341  27.658  44.788  13.860
23937W        W92342  16.572  12.650   3.599
23938W        W92343   1.013  34.026  13.339
23939W        W92344  24.564  40.030  14.301
23940W        W92345  41.273   5.225   2.202
23941W        W92346  15.760   8.337   2.758
23942W        W92347  18.030  17.687   1.832
23943W        W92348  23.021  25.883   2.490
23944W        W92349  34.689  27.499  12.971
23945W        W92350  32.517   5.339   4.432
23946W        W92351  27.497  18.525  11.148
23947W        W92352   8.241  19.626  13.532
23948W        W92353  24.306  13.842  12.506
23949W        W92354  26.816   5.186   2.564
23950W        W92355  37.016  27.000   0.042
23951W        W92356  15.235  21.585   2.772
23952W        W92357  42.295  42.438  10.617
23953W        W92358  37.860   5.714  12.963
23954W        W92359  38.488  25.918   4.707
23955W        W92360   8.603  30.081   1.387
23956W        W92361  32.081  13.198   1.351
23957W        W92362  35.020  25.461   3.317
23958W        W92363  32.835  34.916  12.682
23959W        W92364   5.134  17.767  12.516
23960W        W92365  33.717  41.385  14.948
23961W        W92366  18.775  33.662   3.444
23962W        W92367   0.023   4.932   3.763
23963W        W92368  37.850  28.869  13.641
23964W        W92369  19.421  18.069   2.375
23965W        W92370  28.588  24.905  13.057
23966W        W92371   2.973  11.820  14.351
23967W        W92372  17.452  21.638  14.023
23968W        W92373  32.031  20.258  13.853
23969W        W92374  38.458  32.410   1.939
23970W        W92375  39.749  35.387  14.086
23971W        W92376   1.844  27.606   1.294
23972W        W92377  14.746  30.443   1.560
23973W        W92378  38.847  18.220   0.159
23974W        W92379  38.225   4.724   2.657
23975W        W92380  19.610  26.582  14.570
23976W        W92381   0.722  40.453  12.461
23977W        W92382  28.583  29.160  13.957
23978W        W92383  28.992   7.571   3.570
23979W        W92384   3.778  40.512   4.258
23980W        W92385  28.577  28.139   2.228
23981W        W92386  18.319  26.707   5.096
23982W        W92387  17.829  12.251  10.631
23983W        W92388  35.313  27.708   0.317
23984W        W92389   8.723   7.031   1.739
23985W        W92390  27.676   6.300   4.288
23986W        W92391  24.732  43.248   0.397
23987W        W92392  23.148  43.888  10.374
23988W        W92393  22.219   4.850  14.082
23989W        W92394  35.479  13.108   4.012
23990W        W92395   5.970  39.861   0.846
23991W        W92396  13.779  21.159  11.202
23992W        W92397  24.811  19.593  13.944
23993W        W92398   7.921  34.457   4.222
23994W        W92399   7.617   4.366  11.158
23995W        W92400   3.256  34.525   0.732
23996W        W92401  39.343   8.653   3.744
23997W        W92402  32.054  23.684  12.848
23998W        W92403   4.449   7.486   1.328
23999W        W92404  23.546   4.263  10.408
24000W        W92405  23.761   1.922  11.133
24001W        W92406  14.825  41.208  13.476
24002W        W92407  27.036  35.935   0.739
24003W        W92408  16.623  22.940   3.122
24004W        W92409  13.706  17.588   0.460
24005W        W92410  20.772  14.104  11.954
24006W        W92411  26.483  31.804  12.993
24007W        W92412  10.954  33.043   1.767
24008W        W92413  42.769  15.065   4.148
24009W        W92414   6.221  10.174  13.075
24010W        W92415  42.037  25.976   0.474
24011W        W92416   5.945  28.951  10.588
24012W        W92417  23.489  36.103   3.142
24013W        W92418  16.453  22.870   5.268
24014W        W92419  41.009  27.247  12.046
24015W        W92420  28.606   3.323   1.726
24016W        W92421  15.355  14.099  11.936
24017W        W92422  39.835   5.301  12.966
24018W        W92423  29.673  21.202  11.964
24019W        W92424  21.996  18.759  13.098
24020W        W92425  10.763  15.079  13.541
24021W        W92426   8.663  37.019   2.628
24022W        W92427  19.075   3.680  14.791
24023W        W92428  25.972   3.718   4.247
24024W        W92429  41.338  13.870   2.707
24025W        W92430  39.905  18.490   3.661
24026W        W92431   0.257  42.430   1.157
24027W        W92432  23.517  11.276  12.425
24028W        W92433  28.365   5.240  10.693
24029W        W92434  10.151  19.321  13.801
24030W        W92435  29.139  23.221   3.225
24031W        W92436   5.370  40.468  11.568
24032W        W92437  25.645  29.538   1.803
24033W        W92438   7.285   3.524   4.534
24034W        W92439  42.343  39.030   0.899
24035W        W92440  23.330  43.377  12.938
24036W        W92441  26.931  14.873  13.281
24037W        W92442  32.903  27.792   3.722
24038W        W92443  43.930  22.750  14.998
24039W        W92444   2.284  30.905  14.368
24040W        W92445   5.324  25.679   3.036
24041W        W92446   3.912   2.622  13.659
24042W        W92447  12.850  36.694   2.315
24043W        W92448  27.965   8.795  13.824
24044W        W92449   1.448  27.896   0.483
24045W        W92450  30.260  12.848   1.680
24046W        W92451  19.243  17.481  13.847
24047W        W92452  30.419  15.259  11.159
24048W        W92453  26.229  40.075   0.393
24049W        W92454   9.080   1.886  11.460
24050W        W92455  15.768  15.678   3.221
24051W        W92456  16.261  41.752   1.420
24052W        W92457   4.331   6.578  11.583
24053W        W92458  36.008  24.588  10.700
24054W        W92459  17.290  17.892  13.099
24055W        W92460   1.023  29.215  12.444
24056W        W92461   9.517  17.843   1.240
24057W        W92462  39.939  10.615   0.612
24058W        W92463  24.129  33.886   4.954
24059W        W92464  29.459  34.822   4.258
24060W        W92465   5.739  35.631  14.901
24061W        W92466  18.190  32.421   3.338
24062W        W92467  13.116   2.919   4.558
24063W        W92468  40.780  20.724  11.410
24064W        W92469   7.684   8.253  10.798
24065W        W92470   5.764  37.059   1.778
24066W        W92471  37.989  32.532   1.649
24067W        W92472   1.396  14.631   3.535
24068W        W92473  38.557  32.524   1.437
24069W        W92474  28.057  33.080  11.635
24070W        W92475  16.724  34.800  12.917
24071W        W92476   0.379  11.561   4.370
24072W        W92477   3.575  40.975  13.490
24073W        W92478   8.412  28.958   3.121
24074W        W92479  40.225  31.730  14.454
24075W        W92480   3.299   4.866  13.175
24076W        W92481  38.445  11.623  13.757
24077W        W92482   6.755  12.696   1.921
24078W        W92483   7.389  15.054   1.694
24079W        W92484   9.992  18.026   1.342
24080W        W92485   3.423  44.982   3.292
24081W        W92486   2.965   8.669  11.136
24082W        W92487  19.252   1.336  10.796
24083W        W92488  41.894  43.253   3.502
24084W        W92489  12.671  37.787   1.267
24085W        W92490   5.856  10.915  13.869
24086W        W92491  42.011  22.442  14.521
24087W        W92492  25.653  13.702   1.736
24088W        W92493  42.458  42.936  13.923
24089W        W92494  24.172  35.468   2.664
24090W        W92495  26.295  13.180  13.116
24091W        W92496   7.021  21.094  12.536
24092W        W92497  43.240   0.369  14.943
24093W        W92498  18.331  13.765  13.100
24094W        W92499  21.743  16.304   0.327
24095W        W92500  17.647   8.611   2.491
24096W        W92501  15.248  19.914  11.765
24097W        W92502  31.077  18.171  10.760
24098W        W92503   1.045   8.796   4.073
24099W        W92504  28.002  34.044  10.905
24100W        W92505  22.676  44.487  13.014
24101W        W92506  22.817  16.044  12.782
24102W        W92507  37.418  15.148  13.047
24103W        W92508  27.146  26.134   1.462
24104W        W92509  39.315   2.742  13.333
24105W        W92510  13.142   2.246  11.128
24106W        W92511  10.610  15.570  13.458
24107W        W92512  44.800   3.231   3.312
24108W        W92513  14.220   1.228  12.779
24109W        W92514  41.289   3.498  11.065
24110W        W92515   7.615  36.064  14.298
24111W        W92516  28.244  37.430  12.857
24112W        W92517  39.315  18.052  14.124
24113W        W92518  25.268  13.816   4.765
24114W        W92519  19.302  11.192   3.844
24115W        W92520  35.762  14.064  13.307
24116W        W92521  28.182  27.499  12.513
24117W        W92522  42.709  17.237  12.619
24118W        W92523   5.414  12.085  14.533
24119W        W92524  37.709  26.973  13.498
24120W        W92525  15.105  26.698   2.685
24121W        W92526  14.343  25.961  11.124
24122W        W92527  39.333  19.671  14.424
24123W        W92528  12.338  35.049   4.694
24124W        W92529   1.704  14.227   4.468
24125W        W92530  18.663  22.970   2.618
24126W        W92531  42.062  34.609  11.189
24127W        W92532  41.917  38.032   3.922
24128W        W92533   8.688  25.424  14.943
24129W        W92534  21.819  24.443   1.744
24130W        W92535  31.568   0.832   1.683
24131W        W92536   0.228  39.575  10.758
24132W        W92537  14.277  15.730   1.290
24133W        W92538  29.611  30.740   0.302
24134W        W92539  42.406   0.529  12.423
24135W        W92540  38.297  29.937  14.093
24136W        W92541   1.416  43.859   3.311
24137W        W92542  18.972  13.617  12.097
24138W        W92543  44.508   4.250   4.190
24139W        W92544  38.536   2.741   4.147
24140W        W92545  36.976   1.978  13.493
24141W        W92546  32.995  23.976  12.645
24142W        W92547  32.192  29.566  11.095
24143W        W92548  35.878  37.298  12.320
24144W        W92549  24.699  16.894  10.750
24145W        W92550  25.704   1.143  11.229
24146W        W92551  26.122  14.164  13.193
24147W        W92552  44.054  22.608   1.555
24148W        W92553  33.572   6.741   2.930
24149W        W92554  27.080   7.335  11.966
24150W        W92555  32.626  16.593   2.395
24151W        W92556   2.268  31.137   3.319
24152W        W92557  29.357   0.110  12.566
24153W        W92558  12.418   9.119  13.301
24154W        W92559  15.124  43.910  13.019
24155W        W92560   4.867   7.719   5.085
24156W        W92561  20.477   6.341   2.747
24157W        W92562   8.285  27.337  14.851
24158W        W92563   5.305  37.089   4.768
24159W        W92564  29.132  43.882   3.723
24160W        W92565  23.263  17.424  12.789
24161W        W92566  19.762   1.298   0.722
24162W        W92567  19.598  10.334   2.108
24163W        W92568   1.408  14.982   3.105
24164W        W92569  43.448   7.102  12.063
24165W        W92570  40.617  42.694   3.683
24166W        W92571  18.226  10.378  11.187
24167W        W92572  23.702  44.514  12.906
24168W        W92573  33.697   6.839  12.706
24169W        W92574   9.121  15.196  10.454
24170W        W92575   1.345   7.261  11.855
24171W        W92576  21.594  29.107   4.684
24172W        W92577  34.047  38.719  12.225
24173W        W92578  21.756  11.682  13.269
24174W        W92579  25.136  18.198  14.033
24175W        W92580  11.406  20.672   2.911
24176W        W92581  36.876  20.973  14.892
24177W        W92582  18.270   9.740  14.054
24178W        W92583  17.977  17.761  14.520
24179W        W92584   0.366  14.293   1.936
24180W        W92585  28.922  36.301  11.591
24181W        W92586  12.542   9.465  14.938
24182W        W92587  35.944  11.639   2.396
24183W        W92588   1.098  18.999   2.293
24184W        W92589  37.276  20.102   1.366
24185W        W92590  10.676   0.344  12.370
24186W        W92591  29.150   4.826   1.877
24187W        W92592   8.837   2.184  11.101
24188W        W92593  11.649  41.341   2.666
24189W        W92594   3.878  33.033  12.629
24190W        W92595  14.875  28.546  13.911
24191W        W92596  42.834  26.378  12.158
24192W        W92597   3.995  33.970   2.233
24193W        W92598   4.775   2.377   2.196
24194W        W92599  35.195  15.353   5.025
24195W        W92600  20.181  43.641   2.956
24196W        W92601  38.438   6.411   4.962
24197W        W92602  29.494  34.141  11.882
24198W        W92603  42.336  14.752   4.175
24199W        W92604  12.297   7.750  13.582
24200W        W92605  21.353   2.166  12.410
24201W        W92606  21.172  35.585   2.257
24202W        W92607  25.550  35.502   2.141
24203W        W92608  23.668  17.626  10.561
24204W        W92609   1.179   4.315  12.343
24205W        W92610  10.943  26.861  10.509
24206W        W92611  31.995   5.429  13.826
24207W        W92612  39.983  27.035  11.278
24208W        W92613  12.890  23.491   3.742
24209W        W92614  42.419  12.753   0.701
24210W        W92615  31.065  29.162   3.098
24211W        W92616  16.385  28.907   3.686
24212W        W92617  20.219   8.911  11.491
24213W        W92618  12.634  37.013  14.441
24214W        W92619  21.472  13.166  14.811
24215W        W92620   8.720  19.408   4.564
24216W        W92621   2.780   0.381   2.363
24217W        W92622   7.166  39.072   1.881
24218W        W92623  21.283  21.560   0.100
24219W        W92624  17.697  24.969   2.174
24220W        W92625  10.039   0.499   2.777
24221W        W92626  33.319  17.368   4.984
24222W        W92627  30.021  21.004   1.327
24223W        W92628  16.710  36.516  12.591
24224W        W92629  18.724   5.297  13.800
24225W        W92630   3.142  37.805  11.124
24226W        W92631  14.715   9.179  13.041
24227W        W92632  32.313  42.579  14.857
24228W        W92633  44.505  16.546   2.984
24229W        W92634   9.736  16.496  12.970
24230W        W92635  21.500  12.674  13.025
24231W        W92636   2.729  18.702  13.340
24232W        W92637  37.327  28.451  13.811
24233W        W92638  22.171  14.352  10.653
24234W        W92639   3.249  20.282  11.415
24235W        W92640  27.041  15.110   3.890
24236W        W92641   3.796  31.145  12.463
24237W        W92642  29.610  37.951  12.921
24238W        W92643  28.096  29.710   1.826
24239W        W92644   8.918  18.870  10.309
24240W        W92645   5.263  44.332  12.513
24241W        W92646  39.431  29.260   3.627
24242W        W92647  16.772  18.003  13.057
24243W        W92648  32.527  24.729   2.158
24244W        W92649  35.351   3.016   2.189
24245W        W92650  13.070  40.384  11.537
24246W        W92651   8.944  40.095  11.227
24247W        W92652  10.911  42.271  13.588
24248W        W92653  22.438  24.199  12.060
24249W        W92654  34.018  34.780   2.488
24250W        W92655  11.920  10.748  10.689
24251W        W92656  19.555   6.727   4.526
24252W        W92657  19.320  22.461   4.206
24253W        W92658   2.177  40.448   2.679
24254W        W92659   0.507  37.751  11.611
24255W        W92660   5.323  38.229  10.930
24256W        W92661  12.551   9.781  12.584
24257W        W92662  21.948  19.540   3.303
24258W        W92663   3.879  24.896   4.560
24259W        W92664  35.939  25.242  13.489
24260W        W92665  34.001  41.804   2.635
24261W        W92666  11.244  31.433   0.740
24262W        W92667  17.506  23.462   3.284
24263W        W92668  32.498  42.398   0.300
24264W        W92669   6.967  38.738  11.037
24265W        W92670  39.745   8.692   2.742
24266W        W92671  31.165  13.370  13.292
24267W        W92672  18.585  16.400   1.855
24268W        W92673  39.043  44.754  11.973
24269W        W92674   0.019  22.405   3.068
24270W        W92675   9.625   6.293  10.571
24271W        W92676  44.729  16.700   3.860
24272W        W92677  23.750  13.426   2.412
24273W        W92678  23.154  34.151  11.966
24274W        W92679  25.675  16.601  14.816
24275W        W92680  38.580  29.564   4.666
24276W        W92681   8.876  17.347  13.351
24277W        W92682  19.509  16.634   4.637
24278W        W92683  36.261  44.488   4.499
24279W        W92684  28.628  34.516  14.792
24280W        W92685  41.218  44.254   2.909
24281W        W92686   1.470  18.860   4.812
24282W        W92687  33.334  32.432   1.720
24283W        W92688  11.275   4.253  14.651
24284W        W92689  41.592  10.030   4.597
24285W        W92690   8.900  44.988  14.008
24286W        W92691  41.463  11.123   3.606
24287W        W92692  19.278  44.117   2.816
24288W        W92693  15.451   2.880   4.080
24289W        W92694   9.270  36.494  12.482
24290W        W92695  44.013  17.789  10.860
24291W        W92696  35.668  16.525   3.597
24292W        W92697  34.436  27.689  11.591
24293W        W92698  30.365   7.846  13.969
24294W        W92699   4.754  22.945  11.051
24295W        W92700  30.095   5.787   4.510
24296W        W92701   5.639   7.604   4.571
24297W        W92702  24.079  31.840  14.371
24298W        W92703  40.001  15.924   4.695
24299W        W92704  40.051   4.558   3.181
24300W        W92705  44.832  11.838   0.744
24301W        W92706   0.852  31.177  10.719
24302W        W92707  19.173  19.503   4.632
24303W        W92708  26.671  10.193   3.170
24304W        W92709  14.163  26.448  11.188
24305W        W92710   8.150  17.092   1.255
24306W        W92711   6.475  10.252   1.888
24307W        W92712  12.541  27.952  14.732
24308W        W92713  17.308  33.587   1.415
24309W        W92714  18.772   9.760  13.262
24310W        W92715  24.699  33.776   0.054
24311W        W92716  35.775  31.850  12.507
24312W        W92717   8.296  37.440   2.303
24313W        W92718  36.546  31.995   4.142
24314W        W92719  39.587  22.749  13.357
24315W        W92720  41.512  40.836  14.542
24316W        W92721  23.885  19.662  14.085
24317W        W92722  39.469  36.869   2.601
24318W        W92723  29.986  33.506   1.148
24319W        W92724  36.040   9.937  14.593
24320W        W92725   4.409  17.379  11.527
24321W        W92726  28.442  18.620   3.156
24322W        W92727  36.554   6.444   0.869
24323W        W92728  38.822  17.689  14.936
24324W        W92729  33.188  13.743  10.015
24325W        W92730  29.115  11.067   4.571
24326W        W92731  25.476  26.539   0.831
24327W        W92732   4.362  33.676   4.737
24328W        W92733  18.629  15.790  12.259
24329W        W92734  20.200   1.942  12.636
24330W        W92735  19.544  44.262   1.305
24331W        W92736  42.358  29.922  12.139
24332W        W92737  36.638  24.748  11.123
24333W        W92738  30.633  23.462  12.871
24334W        W92739   7.066   5.228   1.886
24335W        W92740  10.424   4.247  14.305
24336W        W92741  38.245  29.960   3.359
24337W        W92742  21.125   0.476   3.254
24338W        W92743  28.011  31.404  11.143
24339W        W92744  29.672  19.751   1.434
24340W        W92745  16.610  24.288  14.937
24341W        W92746  33.322  42.710  10.448
24342W        W92747  25.500   5.469   0.546
24343W        W92748  22.095  21.093  10.460
24344W        W92749  43.581  26.004  11.219
24345W        W92750   5.795  23.932   3.134
24346W        W92751  36.978  20.257   0.967
24347W        W92752  35.084  16.820   1.167
24348W        W92753   3.512  43.821  12.169
24349W        W92754  36.281  12.674   4.075
24350W        W92755  13.767  14.833  14.827
24351W        W92756  44.050  28.963  14.031
24352W        W92757   1.202  10.430  13.629
24353W        W92758  31.074  27.516  12.901
24354W        W92759  11.243  16.781   0.522
24355W        W92760   0.851  36.002  13.753
24356W        W92761  14.737  38.489   3.740
24357W        W92762  17.303  26.969  11.581
24358W        W92763   6.669  44.749  11.514
24359W        W92764   1.154  12.152  12.563
24360W        W92765  26.596  20.134  10.695
24361W        W92766   5.496   6.636  14.382
24362W        W92767  23.581   8.572   1.795
24363W        W92768  19.799  17.567  14.545
24364W        W92769  34.627  23.592   1.443
24365W        W92770  24.073  23.161  13.390
24366W        W92771  32.410  22.066   1.440
24367W        W92772  30.490  22.708  11.130
24368W        W92773  36.350  22.782  14.363
24369W        W92774  38.557  12.849   2.771
24370W        W92775  36.632  29.444  12.886
24371W        W92776  21.692  15.357  13.046
24372W        W92777  17.803  37.804   0.438
24373W        W92778  12.408  23.684  14.013
24374W        W92779  40.858  26.061   3.338
24375W        W92780  24.276  24.226   3.151
24376W        W92781   5.146   8.798  11.959
24377W        W92782   1.913  43.641  11.204
24378W        W92783  35.889  41.973   4.852
24379W        W92784  42.845   0.119   4.067
24380W        W92785  20.379  36.657   2.940
24381W        W92786   2.535  30.946  14.908
24382W        W92787  27.244  20.316  13.477
24383W        W92788  13.522  23.451   2.205
24384W        W92789  37.951  28.680  12.232
24385W        W92790  17.030  28.159  14.883
24386W        W92791  43.483  38.557  11.055
24387W        W92792   9.163  18.841  11.990
24388W        W92793  11.304   7.995   1.333
24389W        W92794  17.319  24.475  12.033
24390W        W92795  36.931   7.700  13.123
24391W        W92796  38.517  16.090  14.819
24392W        W92797  38.812  35.286  14.077
24393W        W92798   5.899  27.668   3.628
24394W        W92799  10.106  36.644  10.902
24395W        W92800  25.985  28.938   2.207
24396W        W92801  42.702   4.477  13.416
24397W        W92802  16.191  23.248   3.390
24398W        W92803  18.302  20.352  10.564
24399W        W92804  16.713  20.615   4.243
24400W        W92805  42.735  21.378  13.951
24401W        W92806  33.943  26.961  10.628
24402W        W92807  35.994  12.917  12.062
24403W        W92808  19.378  25.432   4.043
24404W        W92809  35.361  26.161   4.874
24405W        W92810  31.658   6.205  11.593
24406W        W92811  10.341  10.369   3.709
24407W        W92812   3.812  33.836   0.959
24408W        W92813  41.575  14.736  14.083
24409W        W92814   5.148   4.078   3.181
24410W        W92815   6.986  32.576  11.590
24411W        W92816   1.979  22.542   5.365
24412W        W92817  39.450   1.536  12.975
24413W        W92818  13.176  19.175   4.149
24414W        W92819  44.559  30.114  11.205
24415W        W92820  33.853  33.696   1.418
24416W        W92821   0.386  44.790   1.794
24417W        W92822   8.369   3.717  12.019
24418W        W92823  16.594  11.144  10.075
24419W        W92824  20.013  12.321  10.687
24420W        W92825  43.895  36.046   2.746
24421W        W92826  31.954  27.766  14.324
24422W        W92827   0.201   7.432  11.621
24423W        W92828  34.312  25.150  12.500
24424W        W92829  19.996  22.739  12.966
24425W        W92830  27.591  33.269  14.742
24426W        W92831  35.597  43.816  14.444
24427W        W92832  32.204  31.005  14.451
24428W        W92833   7.928  20.408  12.794
24429W        W92834   8.852  20.915   4.581
24430W        W92835   0.292  32.270   0.364
24431W        W92836  22.244  29.898  10.897
24432W        W92837  37.284  24.630   2.673
24433W        W92838  32.053  33.551   4.636
24434W        W92839   2.950   9.310  10.594
24435W        W92840  13.684  44.235  13.508
24436W        W92841  43.359   7.597  12.157
24437W        W92842  31.384  16.164  13.405
24438W        W92843  31.246  28.764   2.277
24439W        W92844   7.702  15.495   3.616
24440W        W92845   2.079  41.623   1.287
24441W        W92846  19.012   4.880   0.495
24442W        W92847  11.721  43.742  10.677
24443W        W92848  32.780  27.124   2.121
24444W        W92849   6.425  43.314   3.849
24445W        W92850  20.973  28.199   1.378
24446W        W92851  43.297   4.756  10.991
24447W        W92852  24.271  33.706  13.998
24448W        W92853  13.024   0.733  10.731
24449W        W92854  11.414   4.293  13.306
24450W        W92855  31.907  27.606  10.294
24451W        W92856  12.981   0.310  11.886
24452W        W92857  34.320  19.014   4.596
24453W        W92858   2.804   9.177   0.500
24454W        W92859  29.164  21.993   1.652
24455W        W92860  34.941  16.380   1.462
24456W        W92861  16.598   4.196   0.739
24457W        W92862  42.058   5.697  13.983
24458W        W92863   1.994   0.416  13.005
24459W        W92864  19.254  39.372  14.676
24460W        W92865  34.927  25.302   5.045
24461W        W92866  20.482  34.207   4.148
24462W        W92867  10.693  15.589   0.955
24463W        W92868  29.742   8.700   1.372
24464W        W92869  28.726  17.645   3.069
24465W        W92870  28.790  29.589   1.345
24466W        W92871  35.607   1.035  11.904
24467W        W92872  23.940  44.107   4.443
24468W        W92873  32.109   3.827   2.313
24469W        W92874  41.065  27.552   1.256
24470W        W92875  35.412  42.284   2.360
24471W        W92876  34.481   9.706   1.944
24472W        W92877  14.735  34.966  10.619
24473W        W92878  42.431  11.900  11.575
24474W        W92879   8.185  32.020   3.807
24475W        W92880  34.044  26.480  10.496
24476W        W92881  16.858  39.498   4.717
24477W        W92882  14.366  19.288  11.165
24478W        W92883   7.749  33.924  10.641
24479W        W92884  21.694   5.947   3.795
24480W        W92885   9.430  17.962  10.114
24481W        W92886  22.777  29.103  12.405
24482W        W92887  28.462  11.386   3.216
24483W        W92888  38.142  36.101   1.346
24484W        W92889  25.172  32.227   3.671
24485W        W92890   1.890  21.497   1.214
24486W        W92891   3.718  32.148  12.831
24487W        W92892  17.869   8.096   1.300
24488W        W92893  32.897  14.120   4.489
24489W        W92894  21.234  32.345  14.740
24490W        W92895  28.727  13.178   2.198
24491W        W92896   4.952  42.850   0.181
24492W        W92897  11.958  13.036  13.966
24493W        W92898  25.545   8.319  14.904
24494W        W92899   0.395   5.620  14.328
24495W        W92900  26.272  38.335   2.941
24496W        W92901  43.326   9.826   3.353
24497W        W92902  37.271  38.958   1.033
24498W        W92903  12.410  31.289  13.446
24499W        W92904  44.791  38.959   4.887
24500W        W92905  25.072  43.857   2.129
24501W        W92906  35.930  30.539  11.884
24502W        W92907  22.798  27.305   2.105
24503W        W92908   3.166  19.474   2.052
24504W        W92909   7.972  15.773  11.797
24505W        W92910  17.261  33.407  12.799
24506W        W92911  20.895  43.020  12.753
24507W        W92912  24.529   4.293   2.884
24508W        W92913  40.780   5.651  13.068
24509W        W92914  44.829  17.504  13.946
24510W        W92915   1.323  37.246   3.710
24511W        W92916  33.638  38.071  13.458
24512W        W92917  29.238   0.857   3.623
24513W        W92918  14.277  27.652   2.183
24514W        W92919   1.535  44.307   2.526
24515W        W92920  44.505  32.462   1.156
24516W        W92921   1.267  24.952   3.155
24517W        W92922  37.569  17.481   3.534
24518W        W92923  41.837   9.364   1.411
24519W        W92924  24.178   6.909   3.431
24520W        W92925  37.683  38.561  11.254
24521W        W92926  30.100   3.181  14.022
24522W        W92927  10.724  41.493   5.082
24523W        W92928  20.028  15.789  12.931
24524W        W92929  19.994  10.673  12.911
24525W        W92930  12.643   7.647   2.950
24526W        W92931  20.211  34.438  13.408
24527W        W92932   0.690  14.183  10.296
24528W        W92933  22.577   4.208   0.856
24529W        W92934  21.151  36.278  11.118
24530W        W92935  18.254  25.803   2.243
24531W        W92936   9.069   2.409  13.476
24532W        W92937  24.736  30.129   3.756
24533W        W92938  36.292  39.634  13.076
24534W        W92939  42.734   8.374   2.909
24535W        W92940  13.042   0.820   1.810
24536W        W92941  22.666   0.840   4.581
24537W        W92942   9.687  25.064   4.643
24538W        W92943   7.369   7.707   0.474
24539W        W92944  16.153  17.157   1.171
24540W        W92945  18.607  11.828  13.942
24541W        W92946   6.472  37.740  14.925
24542W        W92947   2.073  43.906  12.927
24543W        W92948  12.552  38.987  13.479
24544W        W92949  19.510  12.913  14.845
24545W        W92950  35.799  10.805  14.024
24546W        W92951  43.989  27.593  12.373
24547W        W92952  13.837  30.916  10.583
24548W        W92953   6.728  42.578   4.306
24549W        W92954  38.592  13.439  11.181
24550W        W92955  24.849  11.582  12.188
24551W        W92956  28.447  34.129  13.982
24552W        W92957  11.150  12.445  12.204
24553W        W92958  43.258  22.594  12.594
24554W        W92959  19.245  17.149   1.888
24555W        W92960   7.160  37.745  13.988
24556W        W92961  39.412  11.949   0.395
24557W        W92962  15.134   5.654  10.965
24558W        W92963  31.554  36.536   3.854
24559W        W92964  14.344  15.320   0.699
24560W        W92965  35.836   8.961   4.342
24561W        W92966   5.230  39.163   0.799
24562W        W92967  27.537   6.980   0.586
24563W        W92968  14.171  35.626  12.448
24564W        W92969  43.929  31.505   2.920
24565W        W92970  38.928  13.095  14.890
24566W        W92971  25.097  35.462   2.831
24567W        W92972  32.089  34.470   2.789
24568W        W92973  29.625  15.019   2.846
24569W        W92974   9.395  14.757  13.458
24570W        W92975  44.006   7.324   4.392
24571W        W92976  12.629  12.742  10.758
24572W        W92977   5.683  32.058  10.719
24573W        W92978  16.026  22.423  11.324
24574W        W92979   8.826   4.287   1.832
24575W        W92980   7.950  25.325   3.243
24576W        W92981  13.258  18.706   3.961
24577W        W92982   5.198  32.900   1.455
24578W        W92983  18.611   1.375  14.967
24579W        W92984  14.053   7.840  10.694
24580W        W92985  38.470  32.828  12.064
24581W        W92986  13.385  30.409   2.253
24582W        W92987  30.724  16.624  11.726
24583W        W92988  41.802   5.886   4.833
24584W        W92989  39.561  33.864   4.953
24585W        W92990   5.322  24.165   4.077
24586W        W92991  22.154  24.412  13.377
24587W        W92992  14.732  20.312  10.519
24588W        W92993  25.688  30.661   4.346
24589W        W92994  19.524  10.812   1.345
24590W        W92995  42.971  20.276   3.267
24591W        W92996  19.124  42.413   4.793
24592W        W92997  32.948   9.311  12.077
24593W        W92998  21.688   7.857   0.157
24594W        W92999  19.675  17.593  12.632
24595W        W93000  37.550  36.558  11.024
24596W        W93001   7.822   6.103   3.272
24597W        W93002  44.981  11.155   0.619
24598W        W93003  42.783  19.968   2.873
24599W        W93004   6.888   0.566   0.464
24600W        W93005  27.192   3.107  14.892
24601W        W93006  30.379   4.024  11.710
24602W        W93007   9.740   3.386   3.581
24603W        W93008   7.899  26.544   1.113
24604W        W93009   2.625  10.901  14.729
24605W        W93010  21.790  19.964  13.523
24606W        W93011   5.486  37.758  10.792
24607W        W93012  17.602  29.491   0.719
24608W        W93013  39.436  21.792  13.372
24609W        W93014  38.018   9.058   4.165
24610W        W93015  33.052  17.354   0.551
24611W        W93016  33.487  32.871   1.977
24612W        W93017   2.913  33.461  14.384
24613W        W93018  17.154  21.705  11.971
24614W        W93019  20.204   2.836  14.854
24615W        W93020  24.060  13.346  14.800
24616W        W93021   0.804  23.066   1.365
24617W        W93022  29.343  19.258   3.913
24618W        W93023  18.241  40.941  12.526
24619W        W93024  19.575  20.725  11.875
24620W        W93025  23.130   5.033  11.103
24621W        W93026  28.374  38.856  11.971
24622W        W93027   2.861   2.497  14.892
24623W        W93028  41.765  39.096   0.320
24624W        W93029  26.241  18.502  14.101
24625W        W93030   8.445  39.931  12.893
24626W        W93031   0.704  12.100  12.287
24627W        W93032  18.504   8.769   1.466
24628W        W93033  32.237  44.919   2.379
24629W        W93034  27.496  14.624   1.241
24630W        W93035   3.884   4.730   4.446
24631W        W93036  44.028  30.174  11.261
24632W        W93037  33.398   9.410   0.899
24633W        W93038  18.093   3.339   2.400
24634W        W93039  31.482   6.781   0.884
24635W        W93040  20.645  32.428   0.372
24636W        W93041  35.491  36.984  10.681
24637W        W93042  16.153  37.464  14.520
24638W        W93043  24.942  11.110  13.494
24639W        W93044  30.552  43.352  13.468
24640W        W93045   8.054  33.033  14.027
24641W        W93046  30.402  23.776   2.886
24642W        W93047  11.374  25.160  14.520
24643W        W93048  35.337  24.006  11.166
24644W        W93049  40.914   1.988   0.804
24645W        W93050  37.116  18.856  13.323
24646W        W93051  25.339  15.919   1.358
24647W        W93052   9.319   7.744  14.011
24648W        W93053  16.984  37.091  14.702
24649W        W93054  41.492  31.078   2.977
24650W        W93055   9.338   3.947   2.669
24651W        W93056   3.543   0.003   1.718
24652W        W93057   0.382   3.361   4.530
24653W        W93058  17.504  31.380   3.761
24654W        W93059  39.540  38.163  14.644
24655W        W93060  20.368  33.914  12.985
24656W        W93061  14.223   3.985   4.564
24657W        W93062  32.472  19.653  11.949
24658W        W93063  33.437  36.342  13.487
24659W        W93064   8.493  21.875   2.236
24660W        W93065  26.778   5.686  14.006
24661W        W93066  38.850   7.790   2.801
24662W        W93067  30.435  13.867  13.870
24663W        W93068  39.974  27.079   4.158
24664W        W93069  13.274  32.663  14.063
24665W        W93070  39.811   1.360   3.877
24666W        W93071  26.562  26.208  12.194
24667W        W93072  33.154   3.162   3.261
24668W        W93073  44.756  42.042  13.011
24669W        W93074   4.754  22.008   3.184
24670W        W93075  14.347  21.664  10.603
24671W        W93076  17.605  10.347   2.156
24672W        W93077   2.763  38.004   0.904
24673W        W93078  19.555   3.100   0.356
24674W        W93079  21.116  28.478   2.698
24675W        W93080  23.878  22.603   4.389
24676W        W93081   1.383  14.212   1.748
24677W        W93082  19.622  29.002  14.736
24678W        W93083  18.491  26.669  10.866
24679W        W93084  39.820  26.375  14.422
24680W        W93085   0.565  21.654  10.458
24681W        W93086  26.031  15.267   1.873
24682W        W93087  43.691   8.347  14.836
24683W        W93088  42.328  25.652  10.719
24684W        W93089  25.463  39.885   2.795
24685W        W93090   8.738  43.861   4.392
24686W        W93091  17.757  13.559   2.692
24687W        W93092  31.682  44.394  11.384
24688W        W93093   7.231  10.957   4.271
24689W        W93094  19.175  10.152  14.947
24690W        W93095  11.470   4.832  13.055
24691W        W93096  44.506  30.515  12.999
24692W        W93097   9.159   4.274   4.161
24693W        W93098  29.179   5.636  10.482
24694W        W93099  17.667  37.163  11.180
24695W        W93100  36.384  16.072  12.612
24696W        W93101  40.927  26.997  12.506
24697W        W93102  20.582  35.921  10.918
24698W        W93103  30.402   4.014   2.611
24699W        W93104  38.362   7.970   3.692
24700W        W93105  44.271  29.011  11.157
24701W        W93106  24.279  40.791  10.946
24702W        W93107  35.189  22.272  14.724
24703W        W93108   4.321  39.073   0.466
24704W        W93109  34.864  30.399   3.193
24705W        W93110  39.427   3.062  14.298
24706W        W93111  13.837  23.113  12.418
24707W        W93112  29.858   5.327   4.526
24708W        W93113  24.857  28.200  12.547
24709W        W93114  22.646  11.598  12.761
24710W        W93115  40.549   3.201  13.381
24711W        W93116  18.142   9.317  11.286
24712W        W93117  16.603  21.094   2.730
24713W        W93118  34.407  13.284   4.587
24714W        W93119   1.375  40.143  12.895
24715W        W93120  28.203  23.596   2.834
24716W        W93121   5.384   8.652  13.300
24717W        W93122  27.990  29.159   4.131
24718W        W93123  36.444  23.262   4.543
24719W        W93124  41.626  30.470   5.005
24720W        W93125  18.387   5.358   4.427
24721W        W93126  22.130  37.902   3.790
24722W        W93127  27.216  18.420  14.352
24723W        W93128  37.835  16.621   4.088
24724W        W93129  18.840  12.330  13.910
24725W        W93130  36.651  29.399   2.110
24726W        W93131  34.387   9.791   3.303
24727W        W93132  14.225  26.960   2.856
24728W        W93133  23.624  38.752   4.678
24729W        W93134  34.616  22.688  12.854
24730W        W93135  22.695  38.024  12.845
24731W        W93136  20.889  20.631   0.934
24732W        W93137  25.511  11.095   1.908
24733W        W93138  22.046   1.773  13.738
24734W        W93139   4.205  19.951   3.746
24735W        W93140  22.025   4.880  12.873
24736W        W93141   8.294  26.173   3.724
24737W        W93142   9.155   1.335   2.850
24738W        W93143  43.404  32.142   2.738
24739W        W93144  10.749  30.596  10.116
24740W        W93145  35.986  34.064  14.225
24741W        W93146  44.754   6.934   0.294
24742W        W93147  22.764  38.281  11.515
24743W        W93148  22.679  30.567  12.350
24744W        W93149  10.927  27.412   4.860
24745W        W93150   3.927  17.202  11.523
24746W        W93151  22.934  22.064   1.846
24747W        W93152  42.543  15.042  12.920
24748W        W93153   0.503  23.191   4.127
24749W        W93154  21.210   7.612   2.829
24750W        W93155   9.146   4.205  12.936
24751W        W93156  34.939  18.529  11.672
24752W        W93157  21.062  13.041   3.158
24753W        W93158   8.283  39.900  10.671
24754W        W93159   5.248  27.340  13.091
24755W        W93160   6.217  19.592  13.034
24756W        W93161  16.091   0.950  12.169
24757W        W93162  15.525  42.759   0.759
24758W        W93163  37.061  17.713   0.316
24759W        W93164  44.355  18.892  14.350
24760W        W93165  28.711  26.553  12.476
24761W        W93166   6.512  22.256   1.671
24762W        W93167   2.268  30.342  14.299
24763W        W93168  37.417  34.990  14.758
24764W        W93169  10.644  20.227  14.416
24765W        W93170  19.813  17.336   2.755
24766W        W93171  32.875  30.373   2.865
24767W        W93172  18.683  35.446   3.280
24768W        W93173   9.893   7.804   0.724
24769W        W93174  17.033  30.428   3.561
24770W        W93175  42.728  11.939  11.161
24771W        W93176  21.038  25.516   2.264
24772W        W93177  26.604  38.689   1.173
24773W        W93178  21.592  16.086  13.825
24774W        W93179  38.548   7.866  10.448
24775W        W93180  41.904  27.678   4.282
24776W        W93181  40.065  10.212   1.509
24777W        W93182  35.935  15.349   0.185
24778W        W93183   0.912  16.951   0.467
24779W        W93184  30.504  30.892   1.316
24780W        W93185  18.365  20.544   2.811
24781W        W93186  10.580  17.588   3.139
24782W        W93187  40.442  37.833  12.639
24783W        W93188  15.857  31.935   0.846
24784W        W93189  26.570   2.061   0.433
24785W        W93190   0.955  16.821  11.401
24786W        W93191   6.769  26.679   1.226
24787W        W93192  15.578   0.804   3.704
24788W        W93193  30.312  10.180   3.799
24789W        W93194  43.818  41.116  13.434
24790W        W93195  41.042  44.429   1.205
24791W        W93196  13.585  17.451   1.029
24792W        W93197  22.484  19.596   1.853
24793W        W93198  25.824  34.978   5.191
24794W        W93199   3.808   4.928   0.276
24795W        W93200  15.006  22.777   4.098
24796W        W93201  29.932   4.375  10.745
24797W        W93202  17.252  11.760  12.139
24798W        W93203  28.562  42.720  10.133
24799W        W93204  37.042  38.605   1.330
24800W        W93205  26.032   3.995   1.369
24801W        W93206  23.844  40.937  14.981
24802W        W93207  10.377   5.739   1.322
24803W        W93208  20.499   3.565  13.398
24804W        W93209  34.871  16.790   0.307
24805W        W93210  11.778  11.552   1.819
24806W        W93211  16.179  41.785  14.528
24807W        W93212   3.701  25.245   2.352
24808W        W93213  23.026  10.425   4.671
24809W        W93214   1.679  29.120   4.572
24810W        W93215  16.722  38.389  12.795
24811W        W93216  27.999  21.787   4.178
24812W        W93217   0.459  10.644   2.612
24813W        W93218  14.939  13.321   4.151
24814W        W93219  23.172  44.000  13.733
24815W        W93220  36.406  41.802   1.964
24816W        W93221  15.113   5.967   4.278
24817W        W93222  26.240  36.746   1.621
24818W        W93223  42.616   1.781  12.637
24819W        W93224  31.167  36.819  11.114
24820W        W93225  37.263   4.583   2.850
24821W        W93226  41.213  31.952   2.776
24822W        W93227  27.075  31.320   4.152
24823W        W93228  19.748  18.353  10.429
24824W        W93229   6.645  28.368   2.749
24825W        W93230  43.941   5.326   1.340
24826W        W93231  18.050  31.935   4.633
24827W        W93232  18.298  39.424  14.487
24828W        W93233   4.165  28.217   1.795
24829W        W93234  35.012  38.331  13.574
24830W        W93235  17.162   4.339  11.925
24831W        W93236  17.102  24.122  14.935
24832W        W93237  29.360  10.843   0.426
24833W        W93238  38.014  30.920  14.811
24834W        W93239  13.421  36.390   3.403
24835W        W93240  20.237  15.664  10.207
24836W        W93241  20.934  13.290  10.640
24837W        W93242  23.750   6.750  14.477
24838W        W93243  43.471   8.663  10.045
24839W        W93244  11.187  15.112   3.587
24840W        W93245  44.910  41.285  10.556
24841W        W93246   2.305  16.885   1.892
24842W        W93247  26.420  44.796  14.914
24843W        W93248  25.904   6.656  14.373
24844W        W93249  44.927  35.095   3.658
24845W        W93250  36.601   4.796  14.321
24846W        W93251   9.523  33.822   1.230
24847W        W93252  20.804  40.428   2.062
24848W        W93253   3.885  22.048   0.904
24849W        W93254  15.316  11.514  11.205
24850W        W93255  14.395  22.017   3.770
24851W        W93256  43.971  30.063   3.567
24852W        W93257  38.590  43.873  14.463
24853W        W93258  35.589   5.900  10.694
24854W        W93259  25.611  34.116   2.142
24855W        W93260   4.501  19.273  10.621
24856W        W93261  23.696  44.103   1.031
24857W        W93262  40.786   1.529  12.572
24858W        W93263  38.975  41.834  13.844
24859W        W93264  34.620  12.235  11.800
24860W        W93265  25.643   8.241   2.170
24861W        W93266   7.428   6.361   0.788
24862W        W93267  34.355  33.177   2.453
24863W        W93268  42.501  29.682   1.371
24864W        W93269   6.095  40.019  14.531
24865W        W93270  30.839  43.781  13.420
24866W        W93271  41.162  10.616   3.671
24867W        W93272  42.996   2.336   0.271
24868W        W93273  28.677  21.051   2.409
24869W        W93274  14.673  32.407  11.618
24870W        W93275  41.731  16.181   4.362
24871W        W93276   5.735  43.982  10.825
24872W        W93277  33.962  10.835  14.152
24873W        W93278   0.459   9.388  12.450
24874W        W93279   4.349  18.698  12.443
24875W        W93280   1.171  35.034  14.430
24876W        W93281  17.693  14.649   0.752
24877W        W93282  17.781   8.622  13.354
24878W        W93283  18.383  21.242  10.659
24879W        W93284  20.042  20.572   4.428
24880W        W93285  22.379   6.344  14.589
24881W        W93286  21.581  27.048  13.781
24882W        W93287  44.840  15.550   0.424
24883W        W93288  37.720   5.738  11.525
24884W        W93289  38.486  26.457   4.732
24885W        W93290  27.652   8.908  14.231
24886W        W93291   1.373  42.440  11.446
24887W        W93292  20.835  21.407  11.321
24888W        W93293  32.618  39.108  12.059
24889W        W93294  17.945  25.734   0.243
24890W        W93295  26.958  43.058   2.741
24891W        W93296   7.633  40.862   4.642
24892W        W93297  42.568  21.179  10.967
24893W        W93298  24.463  39.348   4.576
24894W        W93299  41.833   5.369   4.270
24895W        W93300  27.618  34.972   0.358
24896W        W93301  31.835  19.005  11.976
24897W        W93302  24.170  11.723   0.035
24898W        W93303  26.070  34.845  13.040
24899W        W93304  14.528  15.329   3.100
24900W        W93305  37.534  16.146  14.995
24901W        W93306   1.418  28.210  11.377
24902W        W93307  18.255  16.598   0.393
24903W        W93308  19.727  18.866   5.089
24904W        W93309   8.785  40.519  12.492
24905W        W93310  28.890   2.087  12.563
24906W        W93311  41.274  34.383  13.953
24907W        W93312   7.065  19.049   4.261
24908W        W93313  19.106  42.885  14.890
24909W        W93314   0.204  26.232  11.073
24910W        W93315  29.412  36.173  13.410
24911W        W93316  34.010  43.011  13.448
24912W        W93317  35.406  33.614   0.921
24913W        W93318  36.903  13.537   2.096
24914W        W93319  33.892  24.135  14.344
24915W        W93320  17.826  24.875  14.725
24916W        W93321  40.866  14.635  11.210
24917W        W93322  34.359  13.946  11.495
24918W        W93323  10.382  13.398   2.313
24919W        W93324   4.297  41.937   3.282
24920W        W93325  31.697  13.493   2.714
24921W        W93326  19.102   5.730   2.831
24922W        W93327   8.664  19.726   0.674
24923W        W93328  21.420   6.804  12.062
24924W        W93329  14.547  13.673  10.718
24925W        W93330  13.304  43.846  13.391
24926W        W93331  26.079  27.060   4.858
24927W        W93332  20.310  30.839   3.846
24928W        W93333  30.037  14.095   2.143
24929W        W93334   3.206  10.401   2.831
24930W        W93335   5.140  40.075  12.032
24931W        W93336  42.716   0.933   0.138
24932W        W93337  37.414  10.621  10.761
24933W        W93338  13.331  35.873  11.107
24934W        W93339  28.431  34.102   4.618
24935W        W93340   9.344  33.360  12.550
24936W        W93341   9.533  35.135   3.654
24937W        W93342  41.207  36.114  14.132
24938W        W93343  12.655  35.324  10.638
24939W        W93344   7.267  14.585  11.516
24940W        W93345  36.986   2.728  13.027
24941W        W93346  41.366  42.286  13.489
24942W        W93347  41.143  37.989   0.792
24943W        W93348  12.343  24.115   0.215
24944W        W93349  23.956  22.042   3.025
24945W        W93350  44.760  15.173  11.509
24946W        W93351   0.406  44.670  13.354
24947W        W93352  41.343  27.965   0.899
24948W        W93353   4.190   0.501  11.190
24949W        W93354   4.368   7.891   5.016
24950W        W93355  39.356  31.102   0.834
24951W        W93356  30.646  15.648  12.583
24952W        W93357  28.474   4.460   2.393
24953W        W93358  11.812  18.264  12.410
24954W        W93359  20.385  43.218   4.658
24955W        W93360   7.784  10.814  11.545
24956W        W93361  34.858  38.652  10.691
24957W        W93362  24.170  34.737  14.962
24958W        W93363  28.964  10.309  14.553
24959W        W93364  41.026  26.119  10.702
24960W        W93365   9.503  43.788   3.577
24961W        W93366  24.979  15.155   3.406
24962W        W93367  25.103  25.540  12.829
24963W        W93368  28.474  11.761  12.780
24964W        W93369   0.851  18.479  14.368
24965W        W93370  31.983   1.465   4.580
24966W        W93371  11.713   1.905  13.421
24967W        W93372  38.746  16.637   3.858
24968W        W93373  15.352   9.647  12.074
24969W        W93374  28.895  28.086  11.489
24970W        W93375  26.014  12.793   1.884
24971W        W93376  25.398  34.882  11.568
24972W        W93377  41.483  20.073  14.508
24973W        W93378  29.456  42.955   3.691
24974W        W93379  41.405  20.742  11.197
24975W        W93380  25.879  24.988  12.138
24976W        W93381  18.098  30.509  14.967
24977W        W93382  14.195   5.020   4.532
24978W        W93383  19.044  31.855   3.172
24979W        W93384   6.799  15.835  10.681
24980W        W93385   5.153  39.990   4.639
24981W        W93386  17.247  17.320  12.099
24982W        W93387  13.789  26.507   0.985
24983W        W93388  15.281  33.616  14.292
24984W        W93389  16.390  10.299  13.812
24985W        W93390  36.971  43.767   4.294
24986W        W93391  25.229  27.849   4.619
24987W        W93392  34.927  25.148  10.850
24988W        W93393  18.124  33.160  14.338
24989W        W93394  42.943  22.210  13.572
24990W        W93395  34.449  33.344   3.126
24991W        W93396  17.322  18.059   1.401
24992W        W93397   0.033  29.798  11.962
24993W        W93398  25.136  41.728  14.262
24994W        W93399   1.718  11.724   1.093
24995W        W93400  30.492  22.598   3.622
24996W        W93401  28.585  38.353   3.595
24997W        W93402  24.342  34.240   0.090
24998W        W93403  40.191  13.331   1.766
24999W        W93404  20.459  21.063   3.124
25000W        W93405  26.102  35.965  12.976
25001W        W93406  40.402  39.670   3.227
25002W        W93407   8.249  40.756  12.331
25003W        W93408   0.578  31.576   3.606
25004W        W93409  31.662  10.705  12.916
25005W        W93410  32.477  23.210  11.861
25006W        W93411  12.025  33.456  12.859
25007W        W93412  19.525  15.701  12.887
25008W        W93413  23.678  24.447   4.019
25009W        W93414  39.242   4.841  14.502
25010W        W93415  41.944  19.275  11.216
25011W        W93416  44.877  32.080  14.389
25012W        W93417  32.820  18.654  12.759
25013W        W93418  43.815  40.322   4.151
25014W        W93419  31.864  44.891   3.808
25015W        W93420   1.788  40.341  13.626
25016W        W93421  42.314   7.025  11.367
25017W        W93422  22.112  24.856   1.901
25018W        W93423   4.387  41.874  11.968
25019W        W93424  21.183  14.033  11.117
25020W        W93425  44.216  25.638   1.420
25021W        W93426  19.747  20.136  13.107
25022W        W93427  43.395  17.299  13.792
25023W        W93428  13.295  28.758  13.364
25024W        W93429   8.659  21.185   2.788
25025W        W93430  11.389  33.233   1.952
25026W        W93431  34.618   9.000  10.359
25027W        W93432   8.676   3.197   0.416
25028W        W93433  21.145  14.945   0.424
25029W        W93434  35.101  12.255  11.636
25030W        W93435   1.362  29.549   0.042
25031W        W93436  42.773  35.221   3.346
25032W        W93437  28.015   3.824   2.869
25033W        W93438  30.385   3.413  10.620
25034W        W93439   1.720   3.643  11.864
25035W        W93440  21.406  27.155   3.634
25036W        W93441  22.944  35.055   4.161
25037W        W93442  11.261  13.397   0.824
25038W        W93443  36.510  10.687   1.355
25039W        W93444  40.836   1.364  13.064
25040W        W93445  16.156  16.090  13.051
25041W        W93446  31.573  37.038   0.913
25042W        W93447  12.087  33.562  12.038
25043W        W93448  19.777  14.691   4.999
25044W        W93449  11.314  20.207  11.899
25045W        W93450   3.692   6.458   1.293
25046W        W93451   1.946  16.347   2.309
25047W        W93452  28.467   9.584  11.340
25048W        W93453  12.713  37.107  11.225
25049W        W93454  24.652  15.146  11.163
25050W        W93455  33.466  24.546   1.766
25051W        W93456  10.282  22.697  12.010
25052W        W93457   4.168   3.653   2.219
25053W        W93458  33.486   7.131  10.622
25054W        W93459  42.467  20.071   4.976
25055W        W93460  10.461   9.248  13.864
25056W        W93461   2.711  36.320  11.110
25057W        W93462   6.624   5.731   2.639
25058W        W93463   6.758  18.571  13.969
25059W        W93464  13.479   5.724  12.903
25060W        W93465  24.223  41.245  12.987
25061W        W93466  42.722  27.589   3.682
25062W        W93467  40.409  14.252   0.504
25063W        W93468  31.749  14.141   0.395
25064W        W93469  36.369   6.070  13.868
25065W        W93470  41.044  33.022  11.572
25066W        W93471  10.807  31.669  12.563
25067W        W93472  11.632  39.559  11.480
25068W        W93473  16.544   6.585   0.537
25069W        W93474   1.577  13.786   4.702
25070W        W93475   1.612   7.884   4.800
25071W        W93476  40.099  42.280  11.039
25072W        W93477  20.464  16.222   2.182
25073W        W93478  26.096  44.889   3.373
25074W        W93479  37.943  11.592   1.605
25075W        W93480  18.810  31.586  13.464
25076W        W93481  39.854  16.174  11.255
25077W        W93482  29.237   7.303  14.353
25078W        W93483  13.277  21.910   2.453
25079W        W93484  12.307   3.509   4.381
25080W        W93485  40.306  32.056  12.573
25081W        W93486   0.208  14.691   1.638
25082W        W93487  29.623  30.698  13.041
25083W        W93488  33.597  24.269  10.675
25084W        W93489  35.737  43.503   3.008
25085W        W93490  15.700   7.470   1.185
25086W        W93491  29.623   0.326  11.712
25087W        W93492  24.277   3.380   3.689
25088W        W93493  40.033  11.178  14.667
25089W        W93494   9.248  25.784   1.316
25090W        W93495  40.964   4.525  14.135
25091W        W93496  38.451  14.218  12.828
25092W        W93497   1.316  14.574   4.453
25093W        W93498  17.637  12.818   1.459
25094W        W93499  26.893   0.787   0.797
25095W        W93500   9.447  16.322  14.979
25096W        W93501  43.344  29.943   1.308
25097W        W93502  20.767  28.951   0.986
25098W        W93503  35.748  11.115  13.603
25099W        W93504  20.675  12.132  14.319
25100W        W93505   3.466  24.188   0.244
25101W        W93506  31.870  27.892  13.325
25102W        W93507   2.453   4.306   1.371
25103W        W93508  39.506  30.307  14.719
25104W        W93509   2.894   7.659   3.833
25105W        W93510   8.252  35.631  13.449
25106W        W93511   8.668  29.464  12.369
25107W        W93512  30.472  18.224  11.905
25108W        W93513  30.531  25.173  10.838
25109W        W93514  38.432  36.854   0.422
25110W        W93515  20.553  19.881  11.141
25111W        W93516  15.726  18.474   2.435
25112W        W93517  15.293   7.023   4.190
25113W        W93518  21.969   9.744  12.866
25114W        W93519  27.047  43.279  14.457
25115W        W93520  43.782  39.112  12.604
25116W        W93521   0.930  35.098  13.735
25117W        W93522  27.228   6.110   4.069
25118W        W93523  11.790  33.590   2.760
25119W        W93524  11.950   2.260  12.382
25120W        W93525  24.215  38.359  12.553
25121W        W93526  28.945   2.421   0.428
25122W        W93527   9.858  34.106  11.282
25123W        W93528  33.711  22.719   0.587
25124W        W93529  13.860  17.199  12.790
25125W        W93530   0.701   4.332  12.135
25126W        W93531  24.971  36.413  13.468
25127W        W93532  40.627   1.863   5.065
25128W        W93533  30.097  35.126  11.531
25129W        W93534  36.099   2.440  12.101
25130W        W93535   3.262  13.264   0.234
25131W        W93536  19.655  35.332   1.169
25132W        W93537  20.576  19.347   2.868
25133W        W93538  40.971  14.056   1.172
25134W        W93539  35.079  35.718   4.974
25135W        W93540   2.319  14.493   5.017
25136W        W93541  20.029  23.563  14.298
25137W        W93542  43.099  17.307  10.736
25138W        W93543   8.432  35.607  14.398
25139W        W93544  33.286  16.575  10.925
25140W        W93545  18.768  13.317   4.380
25141W        W93546  14.317  26.622  14.873
25142W        W93547   6.965  37.411  11.607
25143W        W93548  22.233  44.350   4.203
25144W        W93549  27.163   8.341  12.578
25145W        W93550   9.855  43.890   3.220
25146W        W93551   2.010  40.572  14.541
25147W        W93552  19.121  34.106   2.430
25148W        W93553   7.466   2.247   3.594
25149W        W93554  15.714  31.489  11.836
25150W        W93555  24.697  35.632  13.056
25151W        W93556  37.633  33.582  13.790
25152W        W93557  44.807  41.123  12.175
25153W        W93558  39.284  14.158  13.464
25154W        W93559   1.023   2.518   1.316
25155W        W93560  33.334  22.067  13.998
25156W        W93561  19.145  20.347  12.439
25157W        W93562   7.274  22.977   3.253
25158W        W93563  41.647   2.964  10.252
25159W        W93564   3.511  31.419  14.049
25160W        W93565  37.517  42.422   0.001
25161W        W93566   3.252   0.669  14.992
25162W        W93567   8.858  37.758   0.071
25163W        W93568  24.822  26.199   0.328
25164W        W93569   3.398  38.916   0.337
25165W        W93570  20.538  35.427  11.109
25166W        W93571   4.283   6.272  14.132
25167W        W93572   6.671  36.704  11.131
25168W        W93573  22.140  29.102  14.735
25169W        W93574  10.916  31.558   1.146
25170W        W93575   4.965  17.621  14.963
25171W        W93576   8.920  28.889  14.033
25172W        W93577   5.270  22.355   0.507
25173W        W93578  13.819  33.427  12.410
25174W        W93579   7.416  13.134   1.375
25175W        W93580  28.995  27.438  11.127
25176W        W93581  10.679  12.543  13.877
25177W        W93582  19.350  38.089  13.890
25178W        W93583  35.414  33.520  10.938
25179W        W93584  31.700  27.547   2.091
25180W        W93585   4.503  31.420  11.043
25181W        W93586  11.094   5.933   4.552
25182W        W93587  17.129  19.867  11.748
25183W        W93588   8.663  17.716   3.206
25184W        W93589  17.824  29.062   0.925
25185W        W93590   5.228  28.670   2.684
25186W        W93591  16.131   5.693   2.302
25187W        W93592  19.717  37.499  10.995
25188W        W93593  20.048  33.933  10.956
25189W        W93594   4.673  16.515  14.488
25190W        W93595  26.947   0.010  11.756
25191W        W93596  44.287  35.034  14.817
25192W        W93597  10.543   8.723   2.609
25193W        W93598  39.896  10.463  14.012
25194W        W93599   7.313  25.192   1.742
25195W        W93600  17.933  17.317   0.423
25196W        W93601   4.301  17.287   3.213
25197W        W93602  38.580  29.778  11.809
25198W        W93603  27.239  27.924   9.800
25199W        W93604   7.881  17.698  13.870
25200W        W93605  28.994  12.710  12.278
25201W        W93606  17.411   5.965   1.926
25202W        W93607  41.215  11.883  14.381
25203W        W93608  21.733  31.092   1.348
25204W        W93609  32.592  10.390  12.488
25205W        W93610   8.205   8.733   2.757
25206W        W93611   7.738   8.205  13.385
25207W        W93612  38.499  40.942   2.930
25208W        W93613  40.534  29.887  13.493
25209W        W93614  34.534  26.531  13.903
25210W        W93615  27.526  15.747   1.915
25211W        W93616  19.004  16.651   3.757
25212W        W93617  41.017  18.576   0.473
25213W        W93618  16.758  21.982  12.088
25214W        W93619  34.486  15.003  13.262
25215W        W93620  35.412  33.385  14.526
25216W        W93621   2.343  19.297   0.456
25217W        W93622  12.378   6.346  13.212
25218W        W93623  36.940  34.432   0.235
25219W        W93624  11.949  28.075   9.895
25220W        W93625  25.606  37.835  14.459
25221W        W93626  43.692  27.582   3.594
25222W        W93627  29.930  20.486   2.328
25223W        W93628   1.179  32.142   3.191
25224W        W93629   3.378  12.595  13.817
25225W        W93630  24.521  10.920   0.196
25226W        W93631  18.596  43.518  13.374
25227W        W93632   4.447  17.831   1.452
25228W        W93633  17.797  43.496   0.472
25229W        W93634  16.618  32.715   1.408
25230W        W93635  33.376  28.724   1.396
25231W        W93636  31.988   0.556   1.697
25232W        W93637  34.177  30.062   2.717
25233W        W93638   2.160   5.789  12.489
25234W        W93639  21.621  27.104   4.402
25235W        W93640   6.185   7.209  12.596
25236W        W93641   1.454   1.917   2.215
25237W        W93642   6.654  33.035   2.974
25238W        W93643  32.404  38.808  11.685
25239W        W93644  28.600  31.279   3.767
25240W        W93645  34.404  33.875   4.927
25241W        W93646  15.970  14.161  11.705
25242W        W93647   4.939   5.131   4.256
25243W        W93648  17.078  40.262   4.790
25244W        W93649   2.319  15.845  10.625
25245W        W93650  23.050  10.123   4.230
25246W        W93651  28.974   7.627   1.854
25247W        W93652  31.480  43.423   0.495
25248W        W93653  22.155  43.306  14.753
25249W        W93654  34.494  18.081   3.625
25250W        W93655  38.139  21.002   5.148
25251W        W93656  13.438  35.231   4.609
25252W        W93657  44.767  19.566  13.468
25253W        W93658  25.652  44.479  12.027
25254W        W93659  34.971  17.874  10.090
25255W        W93660  26.485  18.667   4.759
25256W        W93661  22.738  26.261   2.264
25257W        W93662  44.042   7.096   1.496
25258W        W93663  20.251  24.947   0.816
25259W        W93664  35.394  14.097   2.175
25260W        W93665  24.391  32.571   4.682
25261W        W93666   1.050  41.374  12.909
25262W        W93667  31.569  21.486  13.806
25263W        W93668  21.201  38.859  11.123
25264W        W93669  40.895  39.594  12.081
25265W        W93670  18.771  34.110  11.419
25266W        W93671   5.306  18.798  10.954
25267W        W93672  35.025  27.255   3.646
25268W        W93673  25.314  23.735   1.620
25269W        W93674  15.338  30.702  11.253
25270W        W93675  33.893   3.276  11.374
25271W        W93676   3.490  42.466   0.343
25272W        W93677  16.093  23.192  10.249
25273W        W93678  19.984  30.970  13.813
25274W        W93679   2.379  44.282  10.548
25275W        W93680  14.437  29.072  12.900
25276W        W93681  29.181  24.125   4.631
25277W        W93682  19.805  15.810  14.452
25278W        W93683  26.169  38.095  11.500
25279W        W93684  34.766  33.101  14.040
25280W        W93685  11.589  18.096  14.273
25281W        W93686  15.576  17.969  13.572
25282W        W93687  15.409  18.125  10.258
25283W        W93688  13.191  16.967   0.454
25284W        W93689   8.878  17.524   1.095
25285W        W93690  14.365  15.819   4.841
25286W        W93691  44.773  23.165   2.390
25287W        W93692  34.107  21.335   0.505
25288W        W93693  13.589  10.233   0.453
25289W        W93694   9.115  30.597  14.354
25290W        W93695  29.820   9.283   3.601
25291W        W93696  27.162  24.328   4.525
25292W        W93697  39.461  32.312  14.826
25293W        W93698  28.960   5.425   0.228
25294W        W93699  21.164   8.179   2.916
25295W        W93700   3.434  18.616   1.806
25296W        W93701  12.766  17.745   0.328
25297W        W93702  38.348  18.787  12.725
25298W        W93703  26.738  22.759  13.551
25299W        W93704  32.734   0.503  14.276
25300W        W93705  28.710  32.699  10.991
25301W        W93706  36.567   2.950  12.849
25302W        W93707   7.374  10.694  13.020
25303W        W93708  12.733  24.767   1.981
25304W        W93709   4.164  29.853  12.525
25305W        W93710   7.957  13.673   0.029
25306W        W93711   3.814  18.906   0.927
25307W        W93712  21.068  36.959  10.692
25308W        W93713  11.331   1.593  12.559
25309W        W93714   3.468  32.083   4.603
25310W        W93715  41.659   7.754   1.833
25311W        W93716  25.686  14.560  13.891
25312W        W93717  37.630  20.112   1.734
25313W        W93718  26.162   2.551  12.968
25314W        W93719   0.041  12.768  10.760
25315W        W93720  16.266  40.988  13.459
25316W        W93721  23.335  35.523  11.241
25317W        W93722   8.887  33.860  11.046
25318W        W93723  18.573  29.669  13.924
25319W        W93724   2.489   0.675  13.085
25320W        W93725  28.903  42.875  11.460
25321W        W93726  23.270  30.088   2.615
25322W        W93727  26.071  39.839   3.665
25323W        W93728  34.123  16.676  12.475
25324W        W93729  35.165  15.264  14.457
25325W        W93730  44.886  18.709   3.211
25326W        W93731   3.338  10.696  12.908
25327W        W93732  12.644  44.357  12.975
25328W        W93733  35.371  20.085  14.534
25329W        W93734  37.640  22.621   0.152
25330W        W93735  25.761  25.215   1.625
25331W        W93736   4.417  14.192  11.479
25332W        W93737  39.045  10.389   1.803
25333W        W93738   2.758  18.995   0.427
25334W        W93739  20.720  34.943   4.706
25335W        W93740  14.116  21.221   4.279
25336W        W93741  34.646   7.106  12.487
25337W        W93742  31.916  18.639  11.096
25338W        W93743  22.580   3.132   1.774
25339W        W93744   9.243  12.898   3.158
25340W        W93745  42.227  37.153  10.986
25341W        W93746   2.694  42.202  13.448
25342W        W93747  37.272  35.383  10.614
25343W        W93748   7.280  23.956  10.969
25344W        W93749  25.092  30.497   4.020
25345W        W93750  37.777  28.608   4.542
25346W        W93751  31.579  30.663   3.897
25347W        W93752  23.476  24.572  12.702
25348W        W93753  30.558  26.019   4.170
25349W        W93754  27.219  22.725  12.320
25350W        W93755  31.477   5.927   1.382
25351W        W93756  35.367   0.496   3.201
25352W        W93757  18.104  39.926  10.608
25353W        W93758  35.475   1.761  14.425
25354W        W93759  15.754  15.071   1.934
25355W        W93760  34.569  17.377  10.582
25356W        W93761  40.399  22.806  10.142
25357W        W93762  19.790  40.260   2.808
25358W        W93763  11.428  29.391  12.600
25359W        W93764  23.510  32.542  12.895
25360W        W93765  29.350   6.859   1.662
25361W        W93766  21.693  27.989   4.827
25362W        W93767  42.232  15.306   0.800
25363W        W93768  38.238   2.245  11.634
25364W        W93769  36.060  36.854   0.876
25365W        W93770   8.231  36.598   0.307
25366W        W93771   8.154  42.831   2.364
25367W        W93772  16.682   9.158  10.934
25368W        W93773  23.252  39.744  13.786
25369W        W93774  21.407  17.283  13.337
25370W        W93775  44.272  13.253   3.350
25371W        W93776  37.454  29.376   2.157
25372W        W93777   4.212  11.324  13.966
25373W        W93778  10.037  36.830  13.701
25374W        W93779  44.253  18.737   4.115
25375W        W93780   2.526  42.979  11.170
25376W        W93781  44.587  12.010  10.702
25377W        W93782   7.919  17.667  14.958
25378W        W93783  35.671  18.322  11.397
25379W        W93784  28.952   6.051   5.055
25380W        W93785  29.207  30.096  12.544
25381W        W93786  13.114  34.560  10.219
25382W        W93787  32.820   8.436   1.712
25383W        W93788  34.215  38.821   2.549
25384W        W93789  44.144  32.858  13.485
25385W        W93790   7.290   2.811  13.258
25386W        W93791  17.659   5.199   2.462
25387W        W93792  14.207  18.734  13.470
25388W        W93793  16.392  20.132   2.936
25389W        W93794   4.900   7.258  14.023
25390W        W93795  43.859  26.048   1.681
25391W        W93796  36.151   0.755   4.129
25392W        W93797  23.085  34.564   4.495
25393W        W93798   8.293  33.695  11.165
25394W        W93799   3.214  43.769   2.690
25395W        W93800  16.476   6.816  13.780
25396W        W93801   2.026  39.906   1.978
25397W        W93802  24.646  32.907   0.368
25398W        W93803   6.361  25.408   1.401
25399W        W93804  43.382   8.336  12.585
25400W        W93805   3.932   0.790  10.785
25401W        W93806  41.448   4.226   0.410
25402W        W93807  35.785   7.116  11.306
25403W        W93808  42.584  29.446   4.272
25404W        W93809  37.053  15.824  12.042
25405W        W93810  44.693  35.075  10.723
25406W        W93811   2.652  43.902  10.785
25407W        W93812  38.357   9.816   3.328
25408W        W93813  39.747  15.992  14.063
25409W        W93814   5.108  42.593  12.026
25410W        W93815  32.605  11.942  13.437
25411W        W93816  42.838  31.616  14.039
25412W        W93817  20.743  13.838  11.509
25413W        W93818   4.927  30.996   3.663
25414W        W93819  34.946   4.834  14.082
25415W        W93820  42.581  15.697  12.466
25416W        W93821  40.214  12.694  12.132
25417W        W93822  25.467   2.680  14.482
25418W        W93823  15.959   8.073   1.316
25419W        W93824  18.695  20.231   4.801
25420W        W93825  29.246  10.750   4.176
25421W        W93826  35.571   8.027   0.822
25422W        W93827   3.920  12.743   2.880
25423W        W93828  30.531   4.436  13.772
25424W        W93829  39.269  43.831   2.547
25425W        W93830  36.934  36.088  13.275
25426W        W93831  29.231  24.998  14.784
25427W        W93832  11.229  37.566   3.620
25428W        W93833  14.301  17.854   2.907
25429W        W93834  36.479  13.228   4.199
25430W        W93835  15.460  17.576   2.992
25431W        W93836  14.245  42.249  14.792
25432W        W93837  27.944  10.314   5.140
25433W        W93838  12.236  44.161  14.430
25434W        W93839  12.280  37.893  13.487
25435W        W93840  33.965   8.899  10.330
25436W        W93841  39.893  44.490   0.857
25437W        W93842  12.609  12.908  12.442
25438W        W93843   3.630  18.550  12.027
25439W        W93844  38.948  36.370  14.307
25440W        W93845  21.024   9.854   4.879
25441W        W93846  15.180  38.835  10.627
25442W        W93847  44.061   6.128  10.740
25443W        W93848  40.521  12.866   0.868
25444W        W93849  26.607   9.794  12.951
25445W        W93850  33.438  10.080  14.437
25446W        W93851  36.895  23.224   2.409
25447W        W93852  19.936   6.711  14.003
25448W        W93853  26.068   3.304  13.398
25449W        W93854  33.786  22.640   2.676
25450W        W93855  39.599  14.659   2.910
25451W        W93856  19.938   5.857  14.393
25452W        W93857  22.595   2.569  12.216
25453W        W93858  30.442  19.675  14.436
25454W        W93859  32.973  26.020   1.051
25455W        W93860  39.557  13.077  12.534
25456W        W93861   6.882  13.886   1.428
25457W        W93862  29.033  32.880   0.084
25458W        W93863  21.640  29.199   3.785
25459W        W93864  13.151  18.267   3.737
25460W        W93865   4.920  30.079   3.227
25461W        W93866  22.506  35.584  11.597
25462W        W93867   2.062  14.615  11.055
25463W        W93868  30.808   1.384   1.371
25464W        W93869   4.202  22.486   1.638
25465W        W93870  35.371  31.524  11.675
25466W        W93871  40.848  15.846  14.794
25467W        W93872   7.238  26.808  12.143
25468W        W93873  16.432  41.366  12.089
25469W        W93874  43.908  41.824   1.455
25470W        W93875  15.987  12.320  13.489
25471W        W93876  39.919   6.882   3.084
25472W        W93877  26.741   3.258   1.856
25473W        W93878  44.025  24.493  11.223
25474W        W93879  10.241  22.080  12.880
25475W        W93880  28.509  41.348  14.916
25476W        W93881  10.146   3.645  14.951
25477W        W93882  26.085  12.696   0.957
25478W        W93883   2.020  29.584   0.561
25479W        W93884  42.461   7.108   2.824
25480W        W93885  36.334  27.016   0.776
25481W        W93886  13.316  44.241   0.861
25482W        W93887  23.491  15.691  12.898
25483W        W93888   0.735  17.845  11.197
25484W        W93889  35.812  31.166   1.868
25485W        W93890  10.707   8.791  12.953
25486W        W93891  44.059  16.331  10.254
25487W        W93892  32.936   2.626  12.440
25488W        W93893   1.485  20.832   4.629
25489W        W93894  26.936  42.289  13.614
25490W        W93895  36.775  16.501  11.601
25491W        W93896   1.165  23.422   2.334
25492W        W93897   2.487  32.992   4.400
25493W        W93898  31.384  39.909   3.801
25494W        W93899  44.524   6.241  12.070
25495W        W93900  38.208  23.677  13.138
25496W        W93901  38.782  26.531   1.736
25497W        W93902  23.168  21.134   0.022
25498W        W93903  35.614  24.785   1.338
25499W        W93904  21.686  27.436   3.231
25500W        W93905   7.387  32.203  13.949
25501W        W93906  40.339  11.886  14.503
25502W        W93907  20.766  42.902   4.466
25503W        W93908  14.200   0.770  13.284
25504W        W93909  41.906   6.446  10.715
25505W        W93910  17.627   8.183   3.192
25506W        W93911  30.982   6.204  14.861
25507W        W93912   1.532  24.415  14.370
25508W        W93913  42.692   4.997  13.306
25509W        W93914   2.863  43.172  13.914
25510W        W93915   5.190   4.725   0.514
25511W        W93916  30.001  24.121   3.569
25512W        W93917  24.114  11.306  12.405
25513W        W93918  16.831  43.957  13.042
25514W        W93919  32.589  44.940   0.215
25515W        W93920  22.172  17.109   0.579
25516W        W93921  34.022  43.267   0.993
25517W        W93922  18.926  20.560   2.614
25518W        W93923  31.936  30.627   2.709
25519W        W93924  14.974   1.483   3.140
25520W        W93925  15.651  24.601  13.828
25521W        W93926  27.636  25.083   4.666
25522W        W93927  43.052  34.679   1.951
25523W        W93928  20.000   9.417   5.168
25524W        W93929  23.699  28.539  14.939
25525W        W93930  19.030  12.795   0.058
25526W        W93931  37.317  34.940  11.848
25527W        W93932   6.711  17.534  11.998
25528W        W93933   8.736   6.682   2.162
25529W        W93934  12.438  21.687  14.105
25530W        W93935  34.997   1.834  14.596
25531W        W93936  41.795   2.014  14.795
25532W        W93937  37.585   9.849   3.836
25533W        W93938  36.986   1.218   1.370
25534W        W93939  16.832   2.472   2.339
25535W        W93940  19.057   0.287  14.384
25536W        W93941  39.037   9.737   0.855
25537W        W93942  15.595  26.131   0.972
25538W        W93943  20.491  31.421  13.104
25539W        W93944  22.865  30.532   9.925
25540W        W93945  22.256  36.078   2.610
25541W        W93946  21.619  40.343   2.871
25542W        W93947  26.481  40.534   0.503
25543W        W93948  24.853  31.134  12.458
25544W        W93949   6.616  16.116  14.030
25545W        W93950  19.674   2.876  11.234
25546W        W93951   0.506   1.477  14.372
25547W        W93952  12.875  21.493  14.989
25548W        W93953  28.230  12.184  12.995
25549W        W93954  26.447  20.048   0.950
25550W        W93955  12.803  22.775   3.218
25551W        W93956  37.014  17.757   1.211
25552W        W93957   9.346  31.079   0.958
25553W        W93958   2.782  34.314   1.823
25554W        W93959  13.444   9.866   0.797
25555W        W93960  12.039  31.028  12.162
25556W        W93961   4.687  38.607  12.403
25557W        W93962  44.445  23.091  12.085
25558W        W93963   8.131   6.411  12.411
25559W        W93964  42.949  23.643   9.808
25560W        W93965  24.659  29.664  14.830
25561W        W93966  28.816  28.237  14.040
25562W        W93967  35.758  14.897   2.429
25563W        W93968  23.172   4.802  12.481
25564W        W93969  35.921  18.773   0.258
25565W        W93970  14.626  36.135   4.803
25566W        W93971  30.386  42.867   2.773
25567W        W93972  41.811  27.277   0.770
25568W        W93973   6.912  39.042  12.291
25569W        W93974  21.333  41.769  10.781
25570W        W93975  12.732  27.991   1.233
25571W        W93976   0.032  27.427   2.626
25572W        W93977  42.678  34.821  10.776
25573W        W93978   1.884   1.281  13.451
25574W        W93979  31.698  31.607   1.288
25575W        W93980  16.293  33.975  11.499
25576W        W93981  23.176  27.820  12.464
25577W        W93982  10.756   0.834  12.487
25578W        W93983   3.047  31.212  11.083
25579W        W93984   0.971  33.584   4.165
25580W        W93985  35.017   7.884  11.161
25581W        W93986  30.425  15.749   0.448
25582W        W93987  44.010  37.565  10.819
25583W        W93988   3.785  24.583   3.524
25584W        W93989   6.838  25.213   1.919
25585W        W93990  19.579  10.364  12.955
25586W        W93991  40.299   2.762   2.759
25587W        W93992  27.689   5.046   2.306
25588W        W93993   9.839  35.749   1.756
25589W        W93994   3.974   7.705  13.860
25590W        W93995  20.712  18.225   3.410
25591W        W93996  29.117  21.508  12.596
25592W        W93997   8.353  11.856   3.033
25593W        W93998  30.857  22.701   1.849
25594W        W93999  28.839   5.757   1.700
25595W        W94000   2.086   3.450  11.517
25596W        W94001  25.615  10.354  13.541
25597W        W94002  37.479  39.218   0.236
25598W        W94003   4.328  15.568   3.718
25599W        W94004  21.539  34.881   3.778
25600W        W94005  12.303  24.657   2.908
25601W        W94006  20.116  14.815   2.923
25602W        W94007  17.506   2.071  12.979
25603W        W94008  23.087  44.015   2.739
25604W        W94009  32.429  22.614  14.976
25605W        W94010  39.990  33.326   0.918
25606W        W94011  41.370  43.039   3.172
25607W        W94012   3.931  23.227  12.877
25608W        W94013  11.885   7.760  11.408
25609W        W94014   1.313   1.546  12.817
25610W        W94015   5.766   6.539   2.718
25611W        W94016  25.156   6.230   2.343
25612W        W94017  20.135  16.105  13.553
25613W        W94018  42.484  25.583  11.977
25614W        W94019   8.822   0.701   1.323
25615W        W94020  17.174   8.642   3.131
25616W        W94021  33.414  34.220   2.669
25617W        W94022  10.274   3.953  10.117
25618W        W94023  10.498  37.495   0.670
25619W        W94024  18.845  26.242  10.752
25620W        W94025  22.737   9.437   0.953
25621W        W94026  14.298  38.045   4.552
25622W        W94027  41.195  32.221  14.342
25623W        W94028   1.434   5.743  10.891
25624W        W94029  13.249  42.811   2.297
25625W        W94030  35.432   9.803   4.794
25626W        W94031  27.940  34.113  13.823
25627W        W94032  25.143   0.172   2.739
25628W        W94033  22.219   0.930  11.062
25629W        W94034   9.741  14.674   0.776
25630W        W94035   7.222   4.711   1.720
25631W        W94036  41.561  31.576   2.715
25632W        W94037   5.326   4.261   2.689
25633W        W94038  44.895   6.034   4.444
25634W        W94039  23.927  20.170   3.727
25635W        W94040  21.996   1.365   1.976
25636W        W94041  33.345  25.550   4.239
25637W        W94042  18.714  26.412   3.358
25638W        W94043  32.440  16.854  13.932
25639W        W94044  26.668  30.416   0.368
25640W        W94045  43.774   0.390  13.754
25641W        W94046   1.903  34.599   3.828
25642W        W94047  25.695  42.002   1.461
25643W        W94048   9.270  40.326  14.563
25644W        W94049  20.099  25.984  11.698
25645W        W94050  16.609  26.739   0.278
25646W        W94051  12.555  17.658  12.779
25647W        W94052   5.946  15.291  10.863
25648W        W94053  36.820  39.483  14.754
25649W        W94054  24.240  24.924   4.539
25650W        W94055  11.308  19.652  11.958
25651W        W94056  30.328  17.329   2.380
25652W        W94057  18.297  28.949   4.057
25653W        W94058  14.036  35.118  13.928
25654W        W94059  27.895  31.049  14.457
25655W        W94060   6.863  20.849  12.977
25656W        W94061  31.209   7.574  12.947
25657W        W94062   3.499  36.486  10.646
25658W        W94063  12.379  21.967   3.320
25659W        W94064  11.339  42.608  12.233
25660W        W94065  39.940  14.249   0.266
25661W        W94066  10.378  21.771   2.789
25662W        W94067  28.068  33.550  12.449
25663W        W94068  18.878  21.449   2.605
25664W        W94069  24.980  34.394  11.153
25665W        W94070  43.722  28.943  13.014
25666W        W94071  18.974  36.444   3.325
25667W        W94072  41.340  34.377   4.177
25668W        W94073  25.471  24.194   4.345
25669W        W94074  35.888  23.463   2.799
25670W        W94075   2.716  17.675   3.743
25671W        W94076  24.151   9.586   1.390
25672W        W94077  40.343  23.941   4.508
25673W        W94078   7.171  33.999   3.837
25674W        W94079  14.370  37.736  11.944
25675W        W94080  35.521   2.668  14.545
25676W        W94081  27.836   5.851  12.385
25677W        W94082  40.569  38.691   2.945
25678W        W94083  42.111  18.005   5.015
25679W        W94084  42.502  39.568   4.569
25680W        W94085  13.333   0.910   1.361
25681W        W94086  38.512  10.401   1.749
25682W        W94087  37.781  20.687  10.535
25683W        W94088  26.121   3.892  14.299
25684W        W94089   0.854   4.322   3.141
25685W        W94090  13.358  15.684  11.192
25686W        W94091   2.590  20.640  13.433
25687W        W94092   5.999  15.940   3.069
25688W        W94093   0.788  36.468  13.469
25689W        W94094  42.972  26.908   1.291
25690W        W94095  13.913   1.828  11.361
25691W        W94096  18.594  37.881   4.590
25692W        W94097  12.150  11.805  14.362
25693W        W94098   0.579  39.924   0.782
25694W        W94099  33.164  22.555  10.659
25695W        W94100  34.237  41.277   1.318
25696W        W94101  30.662  10.415   2.257
25697W        W94102  43.405  19.285   4.314
25698W        W94103  25.990  26.494   0.885
25699W        W94104   2.026  17.334   2.288
25700W        W94105   9.182  33.624  14.467
25701W        W94106  34.725   0.341  11.236
25702W        W94107  16.760  42.955   3.266
25703W        W94108  22.524  25.644   0.043
25704W        W94109  37.029   0.948   1.832
25705W        W94110  33.043  28.649  10.612
25706W        W94111  39.446  43.349   2.399
25707W        W94112  25.674  37.000  12.083
25708W        W94113  16.560  10.230  12.882
25709W        W94114  25.569  30.525  11.666
25710W        W94115   3.468   7.896   0.504
25711W        W94116  15.630  10.412  12.065
25712W        W94117  26.612  28.436   3.606
25713W        W94118   5.319  37.120   0.618
25714W        W94119  24.197  22.307  14.050
25715W        W94120  28.982  33.384  14.803
25716W        W94121   1.078  20.132   1.512
25717W        W94122  13.920   8.647   4.591
25718W        W94123  20.209  37.446  11.676
25719W        W94124  37.520  43.777   0.040
25720W        W94125  13.326   1.666   3.606
25721W        W94126  10.937  32.485   3.350
25722W        W94127   9.798  34.714  12.682
25723W        W94128  36.631   8.069  13.891
25724W        W94129   2.490  40.184  14.689
25725W        W94130  34.890   6.181   5.039
25726W        W94131   9.396  22.842  11.662
25727W        W94132  26.642  27.057   2.233
25728W        W94133  21.571   2.169   4.250
25729W        W94134  37.568  40.504   4.657
25730W        W94135  21.641  30.146  13.001
25731W        W94136  37.359  13.196  14.399
25732W        W94137   0.508  41.019  14.763
25733W        W94138  27.920   4.281   2.630
25734W        W94139  23.482  13.914  11.944
25735W        W94140  18.546  20.655   1.562
25736W        W94141  28.429  42.261  10.998
25737W        W94142   2.927  35.339   4.674
25738W        W94143   1.388   8.853   2.016
25739W        W94144  11.674  22.998  13.973
25740W        W94145   1.737  14.157  12.970
25741W        W94146   6.902   5.374   2.354
25742W        W94147   3.465  15.045  11.834
25743W        W94148  10.707  13.159   2.951
25744W        W94149   1.831  12.878   4.577
25745W        W94150   1.084   9.961   4.261
25746W        W94151  40.546  41.848   1.133
25747W        W94152   5.502  24.627  11.125
25748W        W94153  23.159   8.775   4.842
25749W        W94154   8.271  13.791  10.239
25750W        W94155  18.564   6.661   3.784
25751W        W94156  18.057  37.586   1.401
25752W        W94157  19.029  42.429  13.578
25753W        W94158  25.753   9.357  10.733
25754W        W94159   5.663  22.247  13.011
25755W        W94160   9.109  22.620   0.370
25756W        W94161   3.524  19.457   4.356
25757W        W94162   2.966  10.821  13.806
25758W        W94163   2.966  21.124  13.955
25759W        W94164  10.314   7.286  12.159
25760W        W94165   9.662  41.304  13.100
25761W        W94166  32.522  34.939  11.219
25762W        W94167   9.869  32.610   4.536
25763W        W94168  43.189  44.004   3.686
25764W        W94169  20.815  17.072   4.577
25765W        W94170  30.927  44.023  13.868
25766W        W94171  28.079  38.782   0.421
25767W        W94172   1.223  41.156  11.904
25768W        W94173  22.184  11.034  10.548
25769W        W94174  29.201  24.970  11.245
25770W        W94175  13.191  32.579   3.636
25771W        W94176   2.571  30.079  14.614
25772W        W94177   1.453  19.733   0.343
25773W        W94178   1.423   6.585   2.084
25774W        W94179  41.221  41.354  14.454
25775W        W94180  16.089  37.310   0.987
25776W        W94181   2.552  13.318  13.390
25777W        W94182  41.847  22.687   0.784
25778W        W94183  30.621  11.799  13.906
25779W        W94184  41.542   1.017   2.227
25780W        W94185  19.001  12.576   2.204
25781W        W94186  35.992  35.026   2.598
25782W        W94187  43.498  44.154   4.833
25783W        W94188  22.499  11.314  12.354
25784W        W94189  11.948  16.335  11.510
25785W        W94190  35.375  33.075   4.755
25786W        W94191  40.367  14.567   4.638
25787W        W94192  13.333  32.883   4.964
25788W        W94193  16.085   7.738  13.448
25789W        W94194  38.095  33.386  13.852
25790W        W94195  14.640  34.496   4.158
25791W        W94196  18.784  39.286   0.392
25792W        W94197  36.788  21.527  14.866
25793W        W94198  23.044  20.803  14.257
25794W        W94199  36.784   8.277  10.936
25795W        W94200  38.222  24.008   0.854
25796W        W94201  32.104   6.236   4.081
25797W        W94202   8.197  13.064  10.732
25798W        W94203  21.993  39.874  12.664
25799W        W94204   4.897  44.382   2.353
25800W        W94205  15.238   8.190   2.750
25801W        W94206  26.196  26.405   0.062
25802W        W94207  20.381  21.148  11.258
25803W        W94208  36.576  34.401   2.777
25804W        W94209  24.783  35.098  14.299
25805W        W94210  16.818  21.640  10.500
25806W        W94211   0.334  20.128  13.895
25807W        W94212  24.873  10.984  10.931
25808W        W94213   2.299  21.682  14.528
25809W        W94214   5.052  43.906   0.365
25810W        W94215  11.594   0.961  14.497
25811W        W94216   2.929  36.096   3.203
25812W        W94217  40.445   0.828   2.688
25813W        W94218   4.821  39.516  10.385
25814W        W94219  40.828   1.993  14.845
25815W        W94220  21.563   4.291   4.527
25816W        W94221  12.624  19.746   0.356
25817W        W94222  13.467   8.610   5.006
25818W        W94223  43.546   6.233  10.725
25819W        W94224  25.599  32.021  12.513
25820W        W94225  13.096  15.859  14.168
25821W        W94226  16.596  27.467   1.487
25822W        W94227  36.160  30.983  11.496
25823W        W94228  11.545  14.301   2.817
25824W        W94229  33.569  24.288   1.315
25825W        W94230  11.679  34.604   0.764
25826W        W94231  32.596  21.585  13.782
25827W        W94232  20.020   3.732   4.194
25828W        W94233  29.678  33.495  13.397
25829W        W94234  13.830  15.696  10.978
25830W        W94235  26.729   5.740   0.311
25831W        W94236  12.886  22.030  11.887
25832W        W94237  38.866   5.323  10.745
25833W        W94238   5.532  40.313   3.232
25834W        W94239  36.112  28.257   4.066
25835W        W94240   5.161   3.477   1.850
25836W        W94241  10.006  19.765  14.016
25837W        W94242  19.060  29.915   3.154
25838W        W94243  41.213   8.699  13.999
25839W        W94244  44.788  16.574   0.378
25840W        W94245   5.408   5.512   9.659
25841W        W94246  30.471  21.965   1.527
25842W        W94247  26.827  28.643  12.002
25843W        W94248  33.266  22.027   0.016
25844W        W94249  33.992  39.097  13.455
25845W        W94250   2.508   1.189  10.740
25846W        W94251  31.489  24.338  12.054
25847W        W94252   0.017  34.511   2.325
25848W        W94253  27.308  17.177  14.656
25849W        W94254  11.643  36.871   3.826
25850W        W94255  22.112  19.274   3.712
25851W        W94256  31.580  28.334  12.964
25852W        W94257  34.326  44.552  12.997
25853W        W94258  35.420  22.768   4.670
25854W        W94259  24.262   2.115  12.935
25855W        W94260  26.210  10.346  11.979
25856W        W94261  34.410   4.957   3.506
25857W        W94262  37.443   1.432   3.099
25858W        W94263  12.110  41.328  10.871
25859W        W94264  30.476  20.042   1.605
25860W        W94265  27.159   5.650   3.836
25861W        W94266  25.727  15.568   1.375
25862W        W94267  30.000   8.131  14.231
25863W        W94268  33.959   5.908  14.350
25864W        W94269  34.378  33.772  14.446
25865W        W94270   3.493  38.438  14.868
25866W        W94271  39.571   0.966  14.339
25867W        W94272  20.939   5.684   0.223
25868W        W94273  37.806   5.224  12.819
25869W        W94274  31.962  30.046  10.927
25870W        W94275  42.090  10.901  13.019
25871W        W94276  24.426  19.735   4.955
25872W        W94277   1.360   1.496  10.735
25873W        W94278   7.176   8.199   0.776
25874W        W94279  20.773  32.331   2.805
25875W        W94280   1.183  23.497  14.301
25876W        W94281   7.878  13.542  12.961
25877W        W94282  39.859  43.805   3.284
25878W        W94283  24.752  35.661  14.396
25879W        W94284   8.577  42.848  11.488
25880W        W94285  43.899  16.573  11.553
25881W        W94286  13.063  31.938   4.138
25882W        W94287  27.215   5.551   2.587
25883W        W94288  30.779  38.663  14.289
25884W        W94289  20.570   5.864  14.237
25885W        W94290   1.485  34.951   2.129
25886W        W94291  15.225  23.974   1.890
25887W        W94292  22.604   7.418  10.493
25888W        W94293  26.216  44.416   3.644
25889W        W94294   6.128  39.789  11.157
25890W        W94295  41.884  28.120   2.203
25891W        W94296  39.946   6.372   2.938
25892W        W94297  26.332  22.524  14.913
25893W        W94298  26.550  42.499   3.729
25894W        W94299  12.536  38.304  11.493
25895W        W94300  37.543  37.875   0.416
25896W        W94301   2.115   7.770   4.508
25897W        W94302  10.474  12.701  14.675
25898W        W94303  17.596  37.501  11.593
25899W        W94304  25.442  41.297  12.476
25900W        W94305  33.597   1.464  10.969
25901W        W94306  25.273  12.462  13.085
25902W        W94307  16.231  16.549   3.201
25903W        W94308   1.030  39.468   3.694
25904W        W94309  42.010  19.843  12.623
25905W        W94310   1.288   6.436  13.619
25906W        W94311  42.068   4.227  14.764
25907W        W94312  31.412   0.941   1.137
25908W        W94313  12.019  44.119   0.198
25909W        W94314  16.046  30.283   5.094
25910W        W94315  44.521  14.536   4.836
25911W        W94316  34.169   3.939  10.696
25912W        W94317  44.415  11.540  13.147
25913W        W94318   3.999   7.755   0.483
25914W        W94319  21.192  15.384  12.876
25915W        W94320  32.094   3.881   0.520
25916W        W94321  30.602   7.123  14.802
25917W        W94322  35.019  40.000  10.645
25918W        W94323  13.762   4.728  11.106
25919W        W94324  18.816  35.391  11.058
25920W        W94325   7.916   8.836  11.470
25921W        W94326  16.943   5.638   1.860
25922W        W94327  36.024  13.424   3.206
25923W        W94328  30.432  37.065  11.209
25924W        W94329  27.971   9.843   2.458
25925W        W94330  26.191   0.486  10.737
25926W        W94331  20.507  18.150   1.385
25927W        W94332  12.359  24.972  14.226
25928W        W94333  36.777  17.596   0.775
25929W        W94334  35.524   1.518  11.206
25930W        W94335  39.796   0.531  11.074
25931W        W94336  37.580  31.570   1.238
25932W        W94337   2.635   7.774   4.555
25933W        W94338  20.638  22.624   3.615
25934W        W94339   2.404  25.561   1.967
25935W        W94340  39.381  18.299  11.591
25936W        W94341  16.122  14.425   2.637
25937W        W94342  22.073  15.842  13.749
25938W        W94343   8.965  15.119   2.576
25939W        W94344  39.750  26.057   4.312
25940W        W94345   1.010  24.781   0.887
25941W        W94346  24.515  30.851  13.055
25942W        W94347   0.017   4.824  13.200
25943W        W94348  39.765  20.522  11.628
25944W        W94349   1.819  38.284  11.196
25945W        W94350  42.842  40.102  10.299
25946W        W94351  30.122  42.361  11.549
25947W        W94352  31.934  36.611   3.139
25948W        W94353  42.681  39.001  13.417
25949W        W94354  23.590  37.555   2.662
25950W        W94355  40.498  31.157  13.027
25951W        W94356  28.063   9.253  11.688
25952W        W94357   2.061  44.897  10.833
25953W        W94358   7.159  37.169  13.533
25954W        W94359   2.922  40.958   2.832
25955W        W94360  32.755  22.672   2.659
25956W        W94361  17.083  32.183  14.453
25957W        W94362  26.769   9.697   3.247
25958W        W94363  17.280  18.314   1.855
25959W        W94364  40.843  35.542   4.131
25960W        W94365   8.839  39.275   0.717
25961W        W94366  33.421  18.434  10.743
25962W        W94367  25.430   3.679  14.478
25963W        W94368  33.918   7.319  14.357
25964W        W94369  14.846   0.462   1.301
25965W        W94370   1.610   3.601  13.844
25966W        W94371  35.162  23.828   2.281
25967W        W94372  29.963   4.078  12.974
25968W        W94373   3.562  42.556   2.228
25969W        W94374   5.494  43.019   2.791
25970W        W94375  25.579   2.831   3.897
25971W        W94376  12.453  15.347  11.075
25972W        W94377  14.517  28.719   0.704
25973W        W94378  42.838  11.311   0.307
25974W        W94379  17.673  13.535   1.769
25975W        W94380   9.889   5.191  11.298
25976W        W94381  25.681   2.407  14.043
25977W        W94382   0.582  36.917   0.176
25978W        W94383   5.358  37.738   2.413
25979W        W94384  31.634  11.277   2.450
25980W        W94385  36.106   5.769  14.248
25981W        W94386  25.578  30.175   4.167
25982W        W94387  11.763  17.825  13.295
25983W        W94388  22.978  41.212  12.431
25984W        W94389  19.808   0.942  11.953
25985W        W94390  30.082  35.436   3.422
25986W        W94391   2.200  31.553   1.399
25987W        W94392  23.067  23.468  11.115
25988W        W94393  24.204  25.272   0.870
25989W        W94394  22.284   7.423   2.814
25990W        W94395  36.501  32.486  14.924
25991W        W94396  34.369  42.822   3.229
25992W        W94397  34.400  34.518   0.249
25993W        W94398   9.846  35.582   3.243
25994W        W94399  20.602   7.737   1.725
25995W        W94400  31.378  10.308   2.789
25996W        W94401  14.640  41.011   0.290
25997W        W94402  21.816   6.816   4.148
25998W        W94403  35.805  19.539  14.263
25999W        W94404  29.517  23.853   2.394
26000W        W94405  27.467  42.297  13.542
26001W        W94406  32.638   3.499  11.736
26002W        W94407  11.761  30.103  11.164
26003W        W94408  37.957  10.578   1.935
26004W        W94409   0.885   6.465   2.834
26005W        W94410   3.915   7.840   4.102
26006W        W94411  23.612   8.323   3.263
26007W        W94412  35.533   8.334   3.751
26008W        W94413  36.389  10.669   1.889
26009W        W94414  23.707  21.082  11.858
26010W        W94415  12.202  32.228   4.611
26011W        W94416  32.941   3.356  14.999
26012W        W94417   7.772  40.615   3.643
26013W        W94418  30.797  24.783   5.058
26014W        W94419   0.764   6.638  12.399
26015W        W94420  34.530  31.535  13.141
26016W        W94421  29.016  22.590  14.014
26017W        W94422  29.955  39.776   0.383
26018W        W94423   5.464   2.031  14.393
26019W        W94424  11.770  38.080   3.364
26020W        W94425  13.876   4.301  13.499
26021W        W94426  13.206  26.431  14.412
26022W        W94427  39.339  23.031  10.772
26023W        W94428  24.647  42.482  12.097
26024W        W94429  14.181  28.608  12.884
26025W        W94430  39.537  35.247  13.433
26026W        W94431  22.031  21.240   4.697
26027W        W94432  15.758   3.281   4.193
26028W        W94433   9.052   0.046  12.411
26029W        W94434  34.403  33.060   4.375
26030W        W94435   5.726   5.359   4.779
26031W        W94436   4.985  17.165  13.269
26032W        W94437   7.813  44.492  11.715
26033W        W94438  33.311  41.149   4.564
26034W        W94439  24.030   7.686  14.894
26035W        W94440  13.060  11.112   1.297
26036W        W94441  39.981   1.509  11.045
26037W        W94442  13.118   8.490   1.868
26038W        W94443  22.134  15.097  13.107
26039W        W94444  23.185  43.055  11.970
26040W        W94445  35.663  14.367  12.806
26041W        W94446  25.484  36.516  13.433
26042W        W94447  12.079  11.797  13.602
26043W        W94448  18.144  39.030   1.970
26044W        W94449   7.870   2.992   3.246
26045W        W94450  31.851  43.269  11.499
26046W        W94451  32.131  19.683   4.082
26047W        W94452  13.334  13.254   3.350
26048W        W94453  38.073  33.647   3.616
26049W        W94454  18.826  29.627   0.282
26050W        W94455  27.607  43.964   0.862
26051W        W94456  35.410  18.168   0.753
26052W        W94457   6.745   4.997  11.424
26053W        W94458   3.742  17.274  12.623
26054W        W94459   3.852  11.817   0.549
26055W        W94460   7.299   9.830   1.946
26056W        W94461  41.901  13.855   4.855
26057W        W94462  40.902  14.120   2.191
26058W        W94463   3.931  41.022  12.493
26059W        W94464   6.318  27.690   0.525
26060W        W94465  13.653  30.499   2.943
26061W        W94466   2.793  41.330   0.038
26062W        W94467  23.115  33.198  14.309
26063W        W94468  12.779   7.788   2.451
26064W        W94469  16.974  19.486  12.075
26065W        W94470  38.503  27.485  14.017
26066W        W94471  14.711  28.648  13.018
26067W        W94472  39.741  15.886   2.613
26068W        W94473   0.774  23.171  14.689
26069W        W94474  26.994  32.813   4.190
26070W        W94475  26.195  38.941   4.508
26071W        W94476  22.615  26.260   4.071
26072W        W94477  41.525  28.770  11.221
26073W        W94478  38.596   6.977   4.084
26074W        W94479  40.841  22.571  12.698
26075W        W94480  22.280  43.815   2.336
26076W        W94481  37.686  39.721  14.474
26077W        W94482  41.586  17.328   0.786
26078W        W94483  15.095   0.303  11.565
26079W        W94484  10.609  27.125  10.225
26080W        W94485   4.944  20.631  14.306
26081W        W94486  17.637  35.730  10.256
26082W        W94487  12.313  16.686   1.404
26083W        W94488  16.133   7.717   2.399
26084W        W94489  43.304  44.875   3.156
26085W        W94490   7.161  33.033   3.081
26086W        W94491   6.155   0.093   4.108
26087W        W94492   9.786  23.614  11.270
26088W        W94493  38.898   4.298  10.538
26089W        W94494  31.183  33.457   3.161
26090W        W94495  35.389  10.503  13.980
26091W        W94496   3.415  25.300  10.672
26092W        W94497  24.135  31.695  13.015
26093W        W94498  28.004  13.898  11.248
26094W        W94499  28.280  42.972   1.364
26095W        W94500  14.369  22.260  13.566
26096W        W94501   2.799   8.869  12.374
26097W        W94502   1.946  20.263   4.048
26098W        W94503  36.473  36.062   0.968
26099W        W94504  14.523  30.150   2.709
26100W        W94505  39.476  31.147   3.807
26101W        W94506  17.537  21.224  13.406
26102W        W94507  35.036  43.059  14.486
26103W        W94508  44.394  16.698  14.514
26104W        W94509  33.899   5.429  14.025
26105W        W94510  42.900   7.576  10.390
26106W        W94511  29.535  42.596   2.358
26107W        W94512   1.340  26.873  14.378
26108W        W94513   6.810  43.967   4.430
26109W        W94514   4.828  33.047   3.048
26110W        W94515  21.146  44.896  13.518
26111W        W94516   5.261  27.550   1.383
26112W        W94517  20.483   0.227  13.541
26113W        W94518   1.268  28.674   2.300
26114W        W94519  24.976  11.254   4.492
26115W        W94520   8.172   8.717   3.728
26116W        W94521  37.681  26.463  11.937
26117W        W94522  28.649  36.420   4.039
26118W        W94523   1.780  23.115   4.616
26119W        W94524  43.776   3.049  13.900
26120W        W94525  24.520   9.564   0.688
26121W        W94526  15.107   2.022  14.607
26122W        W94527   7.255  39.952  12.425
26123W        W94528  17.621  34.916   4.575
26124W        W94529  11.124  20.112  13.586
26125W        W94530  40.283  18.753  14.044
26126W        W94531  10.424  30.025  13.424
26127W        W94532  17.741  27.841  12.989
26128W        W94533  33.931   2.296   0.033
26129W        W94534  43.242  38.404   4.490
26130W        W94535  40.083   5.323   1.867
26131W        W94536   6.361  44.519   4.145
26132W        W94537   9.283  41.489   2.560
26133W        W94538  10.665  13.697  10.994
26134W        W94539  40.485   6.288   3.700
26135W        W94540  42.692  44.419   5.173
26136W        W94541  26.546  19.617  11.587
26137W        W94542  39.838   7.804  10.595
26138W        W94543   3.428  31.826  13.102
26139W        W94544   8.165  42.388  13.896
26140W        W94545   9.984  42.467   2.042
26141W        W94546  39.443  12.163   2.177
26142W        W94547  28.066  28.953  12.293
26143W        W94548   0.208  17.995   4.134
26144W        W94549  10.588  30.478   3.787
26145W        W94550  43.530   3.334   4.238
26146W        W94551  18.449   8.526  12.477
26147W        W94552   3.277   2.724   1.443
26148W        W94553  12.715   5.074  14.812
26149W        W94554  41.279  23.650   4.353
26150W        W94555   6.736  39.544   4.689
26151W        W94556   0.070  25.673   2.742
26152W        W94557  15.262  25.435  10.426
26153W        W94558  41.116  39.943   1.252
26154W        W94559  39.304  25.242   1.346
26155W        W94560  36.996  18.974   3.295
26156W        W94561  18.623  10.380  10.593
26157W        W94562  16.631  41.315   0.580
26158W        W94563  14.115  13.841  12.074
26159W        W94564  38.444  20.318  10.704
26160W        W94565  11.137   3.001  12.010
26161W        W94566   4.246  44.839   3.720
26162W        W94567  25.532  26.795   0.381
26163W        W94568   4.667  12.560   2.453
26164W        W94569  33.378  23.568  11.470
26165W        W94570   7.919  39.499  10.619
26166W        W94571  11.680  38.808  11.747
26167W        W94572  37.032  13.936  12.915
26168W        W94573  13.401  27.523   3.351
26169W        W94574  14.827  41.316  14.890
26170W        W94575  29.122  38.078   4.696
26171W        W94576   4.451   5.643  13.448
26172W        W94577  23.046  20.335  14.021
26173W        W94578  29.885  12.533  11.125
26174W        W94579  17.283  14.197   0.742
26175W        W94580  25.250  16.384  11.148
26176W        W94581  32.023  12.144   4.877
26177W        W94582  32.112  21.512   3.845
26178W        W94583  27.544  43.732  12.975
26179W        W94584  13.790  35.106  13.256
26180W        W94585  35.818  41.826   1.211
26181W        W94586   0.373  15.159  12.581
26182W        W94587  37.898  36.444   3.757
26183W        W94588  43.730   1.759  11.980
26184W        W94589  17.216  10.188  10.040
26185W        W94590  23.686   0.947  12.007
26186W        W94591   0.809   7.791   4.276
26187W        W94592  43.397   4.481  13.781
26188W        W94593  21.051  35.908   3.657
26189W        W94594  20.586  24.340   4.732
26190W        W94595  38.057  17.630  11.099
26191W        W94596  36.600  23.615  12.902
26192W        W94597  17.302  17.685  13.911
26193W        W94598  41.809   8.886   0.723
26194W        W94599  26.303  42.398  12.868
26195W        W94600  26.767  43.061   4.285
26196W        W94601  40.365  28.851   3.575
26197W        W94602   4.877  25.046   4.407
26198W        W94603   1.556  13.332   3.951
26199W        W94604   8.200  18.690  13.508
26200W        W94605  33.182  11.926  11.192
26201W        W94606   1.726  43.075  14.890
26202W        W94607  19.189   6.980  12.804
26203W        W94608  43.023  22.040   2.148
26204W        W94609  29.165   8.959   0.372
26205W        W94610  35.190   8.298  14.119
26206W        W94611   2.487  17.618  13.814
26207W        W94612  26.049  41.904   2.844
26208W        W94613  24.159  37.120   0.464
26209W        W94614  16.269   7.746  13.993
26210W        W94615  32.746  11.204  14.079
26211W        W94616  43.952  32.223   0.260
26212W        W94617  25.036  24.074   3.608
26213W        W94618  11.889   6.234  12.971
26214W        W94619  14.677  41.052  12.946
26215W        W94620  33.402   4.224   1.000
26216W        W94621  21.005  23.550  13.606
26217W        W94622  37.051  37.451  11.583
26218W        W94623  41.694  42.640   1.341
26219W        W94624  40.241  29.348   2.230
26220W        W94625   2.892  41.339   1.024
26221W        W94626  16.596  41.829  10.807
26222W        W94627  15.144   0.042   2.581
26223W        W94628  23.470  15.658  10.713
26224W        W94629  12.364   5.385  13.584
26225W        W94630  15.433   0.852  13.731
26226W        W94631  36.027  26.108  12.054
26227W        W94632  23.434  17.817  10.982
26228W        W94633   9.114  20.174  14.342
26229W        W94634  34.024  32.393  14.896
26230W        W94635  41.804   2.070   0.752
26231W        W94636  16.746   5.370  11.416
26232W        W94637  23.752  37.598   1.782
26233W        W94638   7.470  35.694   1.204
26234W        W94639   7.945  32.917  14.889
26235W        W94640  42.191  35.020   3.305
26236W        W94641  39.954  29.491   3.884
26237W        W94642  39.333  44.346  12.142
26238W        W94643  12.538  30.677   0.538
26239W        W94644   0.510  28.714   0.944
26240W        W94645  38.667  38.399  11.473
26241W        W94646  43.721  12.221  14.832
26242W        W94647   3.968  40.993  11.110
26243W        W94648  26.598  42.480   0.669
26244W        W94649  13.120  35.293   4.205
26245W        W94650  13.506  11.576   2.506
26246W        W94651  12.047  31.107   4.579
26247W        W94652  25.227   8.917  12.890
26248W        W94653  27.038   3.355  11.827
26249W        W94654  10.880  28.867  13.705
26250W        W94655  42.087  10.447   5.297
26251W        W94656  21.820  37.600  10.715
26252W        W94657  16.810  21.199  10.762
26253W        W94658  13.159  17.754   1.031
26254W        W94659  20.823   3.779   1.779
26255W        W94660  20.790  23.286   2.760
26256W        W94661  37.905  25.867  12.938
26257W        W94662  43.831  29.103  13.549
26258W        W94663   9.089  39.005  11.534
26259W        W94664  33.387  22.646   3.092
26260W        W94665  30.188  14.432  14.332
26261W        W94666   5.705   9.753   3.145
26262W        W94667  23.968  38.530   4.314
26263W        W94668  12.601   6.058   2.860
26264W        W94669  37.517   0.983   4.536
26265W        W94670   2.175  33.004   2.879
26266W        W94671  37.974  18.390   3.260
26267W        W94672   6.278  16.050  13.067
26268W        W94673  20.233  16.302  12.463
26269W        W94674  37.812  43.225  12.899
26270W        W94675  17.590  38.940  11.574
26271W        W94676  12.879  15.063   4.707
26272W        W94677  34.514  20.788  13.601
26273W        W94678   2.811  20.732  12.154
26274W        W94679  17.021  21.473   3.317
26275W        W94680  28.250  11.033  12.390
26276W        W94681  12.708  44.019  11.565
26277W        W94682  34.393  39.264   1.367
26278W        W94683   7.344  16.736   3.519
26279W        W94684  37.450   3.257  13.346
26280W        W94685  27.979  12.657  13.878
26281W        W94686  43.790  23.632  12.070
26282W        W94687  41.738  23.105  10.873
26283W        W94688  21.269  24.016  12.828
26284W        W94689  36.025  37.850  13.041
26285W        W94690   5.887   0.264  13.439
26286W        W94691  30.594  12.542   0.807
26287W        W94692  22.674   4.931  14.412
26288W        W94693  16.112  38.855   0.789
26289W        W94694   3.858  27.681   1.469
26290W        W94695  15.121  37.394  13.582
26291W        W94696  29.744  38.903  13.027
26292W        W94697  35.937  11.291   3.149
26293W        W94698   1.148  16.626   4.621
26294W        W94699   6.259  20.433  11.212
26295W        W94700  26.041  28.969   3.710
26296W        W94701  44.817  24.977   1.425
26297W        W94702  29.116  29.603   0.894
26298W        W94703  23.182  24.790  14.978
26299W        W94704  34.300  17.724  12.565
26300W        W94705  30.924  44.421   2.283
26301W        W94706  22.577  17.531  13.419
26302W        W94707   1.384   6.725  14.821
26303W        W94708  30.208  24.677   3.282
26304W        W94709  11.964  32.474   2.413
26305W        W94710   2.419  20.265  10.929
26306W        W94711  31.583  42.767   1.315
26307W        W94712  17.822  21.121  12.955
26308W        W94713  25.460   6.377   1.914
26309W        W94714   7.759   9.257  12.544
26310W        W94715  12.079  29.130   1.591
26311W        W94716  16.608  13.800  10.515
26312W        W94717  14.708   0.281  11.909
26313W        W94718  33.719   7.372   3.552
26314W        W94719   8.145  23.015   0.778
26315W        W94720  16.713  42.056   0.208
26316W        W94721  24.302   6.471  11.266
26317W        W94722  34.148  15.270   3.156
26318W        W94723  31.463  40.471   4.718
26319W        W94724  10.688  32.148  13.590
26320W        W94725  34.098  14.731   3.589
26321W        W94726  21.241  39.139  12.125
26322W        W94727  21.544  34.973  10.251
26323W        W94728  39.328  27.911   4.051
26324W        W94729  28.405  15.777  13.431
26325W        W94730  32.223   7.461  14.070
26326W        W94731   0.009  28.177  14.899
26327W        W94732  28.898  22.738   1.924
26328W        W94733  20.417  24.443  13.921
26329W        W94734  19.527   1.985   0.457
26330W        W94735  41.777  41.593  12.142
26331W        W94736  11.050  43.984   4.829
26332W        W94737  21.764   8.265   1.926
26333W        W94738  16.249   9.227   2.760
26334W        W94739   5.218  23.279   0.320
26335W        W94740  30.320   1.767  12.402
26336W        W94741  31.076   5.206  10.674
26337W        W94742  28.401  25.995   3.099
26338W        W94743  21.197  22.083   1.454
26339W        W94744  29.968  17.843   3.097
26340W        W94745  30.462  27.093  10.486
26341W        W94746  31.090  18.584   2.253
26342W        W94747  23.460  38.574  13.014
26343W        W94748  39.777  41.142   3.694
26344W        W94749  28.693   5.657  12.471
26345W        W94750   0.297  12.615  14.467
26346W        W94751  35.027  19.101   2.153
26347W        W94752  35.164  40.652  11.228
26348W        W94753  11.861  29.245   2.706
26349W        W94754  14.704   6.324  11.937
26350W        W94755  37.479  16.008  10.268
26351W        W94756  17.097  29.559  14.047
26352W        W94757  33.846  24.906   0.954
26353W        W94758  39.545  29.049   4.071
26354W        W94759  23.957  26.094  14.870
26355W        W94760  43.265  17.758   2.379
26356W        W94761  18.445  38.964  13.387
26357W        W94762  33.409  31.917   4.216
26358W        W94763  25.067  37.551  11.981
26359W        W94764   3.358  23.012   0.912
26360W        W94765  25.504  36.377  10.677
26361W        W94766  22.122  31.757   1.542
26362W        W94767  34.911  31.856   4.162
26363W        W94768  36.439  36.334   2.752
26364W        W94769  33.639  33.589  14.997
26365W        W94770  17.129  11.200   2.254
26366W        W94771  31.569  35.969  14.196
26367W        W94772  42.451   1.770  11.441
26368W        W94773  26.520  24.278   3.447
26369W        W94774  31.323  16.767  12.315
26370W        W94775   8.804  25.219  12.075
26371W        W94776   8.540  10.383  11.751
26372W        W94777  43.334  29.981  11.391
26373W        W94778  37.085  27.056   1.432
26374W        W94779   9.210  36.007   4.621
26375W        W94780   6.621  18.627  11.078
26376W        W94781   2.348  18.813   4.608
26377W        W94782  30.554  11.036  13.584
26378W        W94783  34.451  38.356   1.351
26379W        W94784   1.415  34.331   3.348
26380W        W94785  39.878   2.297  13.298
26381W        W94786   5.884  37.962   0.236
26382W        W94787  36.355  10.271  12.826
26383W        W94788   8.821  10.677   4.807
26384W        W94789  27.164  25.102   4.927
26385W        W94790  26.452  34.206  14.737
26386W        W94791   5.972  39.421   0.353
26387W        W94792  19.752  42.056   3.389
26388W        W94793  12.675  31.566  10.195
26389W        W94794   1.531  16.198  13.037
26390W        W94795  35.449  19.801   1.890
26391W        W94796   7.619  33.972  11.925
26392W        W94797  35.395  28.424   1.790
26393W        W94798  29.016  16.656  13.471
26394W        W94799   2.951  17.691   4.218
26395W        W94800  15.609  27.269   3.599
26396W        W94801  25.613  37.045   0.295
26397W        W94802  28.026   2.992   0.976
26398W        W94803   1.309  12.396   0.957
26399W        W94804  15.075   7.200   4.649
26400W        W94805  33.946  11.570   2.718
26401W        W94806   4.265  41.201   3.763
26402W        W94807  13.788  18.349  12.383
26403W        W94808  18.662  33.525   1.963
26404W        W94809  27.126  30.078   3.109
26405W        W94810  12.259  11.478  13.981
26406W        W94811   6.300  15.574   2.865
26407W        W94812  19.031  38.003  10.537
26408W        W94813   6.957  12.733   2.822
26409W        W94814  26.980  15.091  14.798
26410W        W94815  35.949  31.658   1.768
26411W        W94816  40.288  41.353  13.360
26412W        W94817  29.059  27.573   1.901
26413W        W94818  11.086  23.030   3.270
26414W        W94819  30.928  13.656   0.928
26415W        W94820   7.642  20.616   3.416
26416W        W94821  23.164  11.903   0.877
26417W        W94822  43.019  19.623  14.327
26418W        W94823  33.871  18.996  14.821
26419W        W94824  38.856  25.074   0.411
26420W        W94825  43.987  28.019   1.354
26421W        W94826   0.055   7.894   2.257
26422W        W94827  13.614  26.897  12.619
26423W        W94828  10.266  41.057   2.209
26424W        W94829   8.370  33.480   4.714
26425W        W94830  26.471  30.471   0.851
26426W        W94831  17.895  41.853  13.826
26427W        W94832  15.012  29.087  13.886
26428W        W94833  10.573  36.588   0.737
26429W        W94834   3.886   0.708   1.306
26430W        W94835  31.530  40.091  13.003
26431W        W94836  26.524  30.971   0.684
26432W        W94837  44.817  19.755   3.172
26433W        W94838  30.134  12.746   0.686
26434W        W94839  24.247  26.242   3.227
26435W        W94840   9.765  14.101   1.408
26436W        W94841   8.184  22.523   1.221
26437W        W94842  33.122   7.003   2.791
26438W        W94843  16.099  30.284   2.906
26439W        W94844  24.063  30.819   4.497
26440W        W94845  15.098   0.303  14.385
26441W        W94846  11.591  18.030  13.750
26442W        W94847  20.173  20.505   1.361
26443W        W94848   0.786  42.116   4.015
26444W        W94849  28.116   1.391  10.937
26445W        W94850   4.824  42.350   4.565
26446W        W94851   5.405  29.861   4.688
26447W        W94852  44.409  10.139  10.375
26448W        W94853  33.473  30.518   1.162
26449W        W94854  16.296  25.890   0.187
26450W        W94855  17.358  27.709  14.167
26451W        W94856   7.270  24.108  12.309
26452W        W94857  24.544   5.459  13.869
26453W        W94858  36.610  13.743  13.534
26454W        W94859   6.779   8.880   4.364
26455W        W94860  12.149   3.958   0.890
26456W        W94861  25.951   6.131  12.862
26457W        W94862  16.655  13.862   3.030
26458W        W94863  25.617  40.555   3.490
26459W        W94864  39.010  11.321   1.631
26460W        W94865  28.257  28.343  11.912
26461W        W94866  30.066  16.241  12.188
26462W        W94867  14.452  43.057  13.651
26463W        W94868  10.664  33.981   2.579
26464W        W94869  27.163   8.756  13.383
26465W        W94870  41.476  31.368  14.390
26466W        W94871  17.684   3.289  11.082
26467W        W94872  44.338  23.077   2.793
26468W        W94873  13.874   7.726   1.608
26469W        W94874  17.747  24.584  13.013
26470W        W94875  41.925   1.307   2.901
26471W        W94876  16.226  43.377   2.733
26472W        W94877  30.412   6.810   4.203
26473W        W94878  14.110   2.675   3.181
26474W        W94879  34.962  17.611  14.282
26475W        W94880  15.245  24.275  12.854
26476W        W94881  11.880   4.699  14.052
26477W        W94882  44.996  20.932   1.550
26478W        W94883  18.544   3.391   2.689
26479W        W94884   4.707  14.809   3.971
26480W        W94885  32.931  30.161  14.534
26481W        W94886  33.797  36.767  13.055
26482W        W94887  36.971   6.985   5.002
26483W        W94888   8.022  31.970  12.755
26484W        W94889  29.556  44.567  13.438
26485W        W94890  10.388  19.535  12.415
26486W        W94891  19.081  28.780   3.649
26487W        W94892   3.156   0.076   2.142
26488W        W94893   3.254  41.414   0.285
26489W        W94894  20.720  44.898   5.029
26490W        W94895  23.484  10.384  13.085
26491W        W94896  26.675  42.441   1.169
26492W        W94897  33.529  21.790   3.133
26493W        W94898  23.726  35.905  11.209
26494W        W94899  15.846   9.394   4.562
26495W        W94900  32.046  31.020  13.451
26496W        W94901  35.976  29.918   2.711
26497W        W94902  12.390  37.274   0.394
26498W        W94903   0.046  30.414   2.151
26499W        W94904  26.460  42.245  13.884
26500W        W94905  40.327   3.193   3.237
26501W        W94906  44.317   7.174  11.604
26502W        W94907  39.616  40.112   3.706
26503W        W94908   5.869   5.514   1.560
26504W        W94909  10.773   2.427   4.951
26505W        W94910  40.160  24.386   2.186
26506W        W94911  13.600  15.135   0.253
26507W        W94912  15.707  17.794  11.125
26508W        W94913  37.539  33.694   4.987
26509W        W94914   6.313  26.560  14.340
26510W        W94915   4.731   7.870   0.723
26511W        W94916  25.756   0.301   4.057
26512W        W94917   2.059  37.654  13.341
26513W        W94918  15.933  42.340  11.134
26514W        W94919   4.982  29.439  14.103
26515W        W94920  20.563  27.898  12.093
26516W        W94921  26.985  20.230  10.367
26517W        W94922  34.934  23.195   1.285
26518W        W94923  16.086  23.238   0.426
26519W        W94924   5.363  17.231  14.390
26520W        W94925  10.330   9.573  12.592
26521W        W94926  38.945   9.708  11.625
26522W        W94927  38.047  44.067  12.700
26523W        W94928  33.169  25.614  11.323
26524W        W94929  18.256  20.271   0.340
26525W        W94930   3.359  14.743  12.730
26526W        W94931  42.183  32.316   2.763
26527W        W94932  18.143   7.013   3.630
26528W        W94933  20.787   0.257   2.864
26529W        W94934   7.991  22.242   4.371
26530W        W94935  39.944  42.682  12.136
26531W        W94936  21.109  26.107  11.096
26532W        W94937  13.370  22.151  11.712
26533W        W94938  24.505  33.407   1.721
26534W        W94939  44.794  28.395   4.698
26535W        W94940  10.580  17.331  11.177
26536W        W94941  19.383   9.420  11.939
26537W        W94942  36.933  23.584   0.886
26538W        W94943  40.565  30.345   3.610
26539W        W94944  22.644  11.077   0.320
26540W        W94945   9.826   9.843  13.788
26541W        W94946  20.758  33.614  12.809
26542W        W94947  42.953   5.229  10.637
26543W        W94948  19.837  35.356   0.683
26544W        W94949   3.067  26.590  10.636
26545W        W94950  20.620  40.401  10.479
26546W        W94951  15.589  40.526   0.793
26547W        W94952  41.004  10.315  11.154
26548W        W94953  12.807  11.234  11.890
26549W        W94954  14.663  32.409  12.499
26550W        W94955  43.927  27.650   3.129
26551W        W94956  12.543   2.855   0.785
26552W        W94957  18.616   6.555   1.452
26553W        W94958  29.339  20.203   4.148
26554W        W94959  42.853  44.959   4.600
26555W        W94960  36.399  11.187  13.055
26556W        W94961  25.740  43.600   4.965
26557W        W94962  34.571  38.237  12.846
26558W        W94963  42.896  20.543   1.192
26559W        W94964  18.211  33.112  12.373
26560W        W94965  18.358  39.108   5.115
26561W        W94966  19.272  13.541  13.401
26562W        W94967   9.295  30.981   3.861
26563W        W94968  27.911  34.895   3.143
26564W        W94969  30.976  27.458  14.855
26565W        W94970  39.754  44.391  11.538
26566W        W94971   8.464   9.379  13.844
26567W        W94972  32.275   3.668  12.423
26568W        W94973  10.725   7.236   2.179
26569W        W94974   3.305  38.086   4.178
26570W        W94975  19.603  13.717   4.080
26571W        W94976  25.674   9.666  14.556
26572W        W94977  23.829  40.673  10.700
26573W        W94978  43.348  15.012   2.251
26574W        W94979  33.663  37.361  12.847
26575W        W94980  10.583   2.339   0.490
26576W        W94981  20.636  26.478   1.607
26577W        W94982   3.002  10.739  13.302
26578W        W94983  16.206  43.817  12.400
26579W        W94984  26.909   7.681  11.578
26580W        W94985  28.693  41.891  12.224
26581W        W94986  43.310   6.326  13.626
26582W        W94987  12.768  12.427  12.474
26583W        W94988   5.737  38.410   0.057
26584W        W94989  10.087  43.966  13.907
26585W        W94990  17.510  35.133  14.666
26586W        W94991  29.633  12.837   4.659
26587W        W94992  40.854  25.231   4.803
26588W        W94993  43.236  31.660  11.480
26589W        W94994  28.675  24.023   4.504
26590W        W94995  42.541   5.836   2.149
26591W        W94996  14.747  35.332   1.694
26592W        W94997   3.671  15.461  11.551
26593W        W94998  17.607  15.079  11.154
26594W        W94999  19.185   3.825  14.294
26595W        W95000   2.439   6.823  12.834
26596W        W95001   9.251  22.870   4.624
26597W        W95002  39.295  19.072   2.281
26598W        W95003  22.357  33.877  14.100
26599W        W95004  14.585  29.640  10.763
26600W        W95005  30.178  24.101  11.874
26601W        W95006   8.564  36.283  13.401
26602W        W95007  38.543  37.785   1.832
26603W        W95008  11.714  41.765  14.334
26604W        W95009  37.548   9.757   1.659
26605W        W95010  44.709  36.696  14.009
26606W        W95011  39.525  21.108   1.240
26607W        W95012  42.812  33.646   0.752
26608W        W95013  37.677  17.060  11.607
26609W        W95014  21.177  27.032   4.141
26610W        W95015   4.619  26.126   2.098
26611W        W95016  40.585  23.153  14.590
26612W        W95017  41.556  40.960  13.085
26613W        W95018  15.349  26.240   3.332
26614W        W95019  36.820   6.442   3.691
26615W        W95020  20.210  19.601   1.665
26616W        W95021  28.238  17.823   2.847
26617W        W95022  11.503  34.036   1.492
26618W        W95023  44.979  34.449   4.362
26619W        W95024  29.704  23.144   4.558
26620W        W95025  14.018   5.222   3.533
26621W        W95026   5.636  28.104   4.598
26622W        W95027  17.567   1.453   2.397
26623W        W95028  26.205  40.427   5.221
26624W        W95029  22.250   3.863   3.159
26625W        W95030  22.991  15.180   4.500
26626W        W95031  18.293   3.159   0.765
26627W        W95032  37.875  10.026   3.365
26628W        W95033  25.115  35.333  14.602
26629W        W95034  35.118  28.753  14.901
26630W        W95035  39.500  12.134   4.700
26631W        W95036   5.217   2.988  14.636
26632W        W95037  41.910  39.312   3.179
26633W        W95038  17.651  12.848   2.376
26634W        W95039  20.735  30.538  13.952
26635W        W95040  24.323  16.923   2.771
26636W        W95041   7.727  31.410   3.728
26637W        W95042   2.446   7.025   3.993
26638W        W95043   4.311  39.234   2.662
26639W        W95044  40.945  40.662   0.555
26640W        W95045  19.558   2.168   3.407
26641W        W95046  20.306   5.346   0.344
26642W        W95047  29.228  23.162   1.888
26643W        W95048  42.790   5.409   3.972
26644W        W95049  25.799  37.083   2.904
26645W        W95050  27.681   6.401  14.428
26646W        W95051   3.222   2.446  13.101
26647W        W95052  11.376  14.253  14.471
26648W        W95053   7.802   1.023   1.381
26649W        W95054  30.135  32.089  13.995
26650W        W95055  12.237  16.876  14.478
26651W        W95056  10.994  35.708   4.549
26652W        W95057  28.868  29.409   0.485
26653W        W95058  15.370   8.881  13.854
26654W        W95059  32.519  20.442   4.566
26655W        W95060  10.531  13.128   1.852
26656W        W95061  43.358  27.144   1.027
26657W        W95062  11.516  30.298   9.924
26658W        W95063  17.298  13.865   3.323
26659W        W95064  36.014  37.085   2.786
26660W        W95065   6.354  13.144  13.932
26661W        W95066   7.972  37.493  13.821
26662W        W95067   5.375  17.951  10.671
26663W        W95068  27.697  38.292   3.672
26664W        W95069  38.318  37.423   2.150
26665W        W95070  31.174  15.226  11.627
26666W        W95071   7.840   7.362  10.676
26667W        W95072  40.855  38.059  14.484
26668W        W95073   7.418  39.797  13.321
26669W        W95074  25.521  41.398  13.518
26670W        W95075  34.563  25.276   4.688
26671W        W95076  27.048  44.574  12.020
26672W        W95077  36.633  15.124   4.723
26673W        W95078  13.745  30.399   1.455
26674W        W95079  35.105  10.547   1.338
26675W        W95080  41.907   5.910  12.399
26676W        W95081  38.106  20.551  13.364
26677W        W95082  35.818  34.078  13.214
26678W        W95083   2.423  23.511  11.518
26679W        W95084   0.284   7.840  14.997
26680W        W95085   8.412  36.958  11.743
26681W        W95086   6.916  33.005  10.957
26682W        W95087  16.603  42.588  14.905
26683W        W95088  39.234  18.204  10.660
26684W        W95089  38.539   2.648  11.581
26685W        W95090  13.254  33.610   3.564
26686W        W95091  13.683  18.610  10.761
26687W        W95092   8.935   1.409   3.344
26688W        W95093  35.320  32.080  12.624
26689W        W95094  11.354   7.472   0.491
26690W        W95095  42.442   2.097  13.978
26691W        W95096  25.563  44.950  11.841
26692W        W95097  44.805  23.281   2.889
26693W        W95098  25.544  25.539  13.076
26694W        W95099  26.460  24.812  12.555
26695W        W95100  11.109  10.900  12.689
26696W        W95101  34.160  27.972   2.769
26697W        W95102  25.583  34.566  14.356
26698W        W95103  16.800  31.567   4.423
26699W        W95104   9.710  13.124   3.064
26700W        W95105  30.489  31.949   1.361
26701W        W95106  25.651  30.445   2.871
26702W        W95107  16.211  10.644   2.202
26703W        W95108  42.524  39.383   3.652
26704W        W95109  11.913   8.133  13.739
26705W        W95110  24.980  30.114  14.967
26706W        W95111  27.921  35.988   4.141
26707W        W95112  30.585   9.715   3.660
26708W        W95113  42.854  11.753  10.719
26709W        W95114  43.092  24.109  11.091
26710W        W95115  29.917  18.690  11.097
26711W        W95116  17.115  29.917  14.468
26712W        W95117  25.636  25.767  12.621
26713W        W95118  22.668  21.163   3.346
26714W        W95119  24.037   6.645  10.859
26715W        W95120  35.471  14.593   1.639
26716W        W95121  42.319   3.749   4.343
26717W        W95122  27.542   5.315  14.096
26718W        W95123  15.598  25.570   1.245
26719W        W95124   0.813  13.532  14.960
26720W        W95125   7.367  22.747  13.910
26721W        W95126  14.975  14.991  13.886
26722W        W95127  16.364  34.718   1.268
26723W        W95128  18.257  27.267   3.288
26724W        W95129   9.603  27.661  10.919
26725W        W95130  16.337  24.096  11.729
26726W        W95131  30.422  13.723   4.832
26727W        W95132  34.588  12.560  13.452
26728W        W95133  43.653  26.537   4.207
26729W        W95134  21.620  27.722   0.547
26730W        W95135  34.434  23.150   4.546
26731W        W95136  38.902  11.906  12.574
26732W        W95137  40.546  24.299   0.894
26733W        W95138  20.078  25.019  12.029
26734W        W95139   8.630  42.021  13.577
26735W        W95140  43.981  28.528  14.291
26736W        W95141  14.285   7.739   3.327
26737W        W95142  35.941  14.297   0.834
26738W        W95143  40.335  19.333   1.447
26739W        W95144  16.032  16.016   0.562
26740W        W95145  18.632  42.711  11.038
26741W        W95146  18.556  35.790  14.994
26742W        W95147  10.893  23.686   4.003
26743W        W95148  42.533  37.193  11.782
26744W        W95149  43.525  16.650   3.174
26745W        W95150  29.887  17.479   2.158
26746W        W95151  29.275  36.882  14.110
26747W        W95152  38.884  42.975   5.186
26748W        W95153  18.309  22.304   0.278
26749W        W95154   2.783  32.523   3.803
26750W        W95155   1.958   4.416   1.336
26751W        W95156  23.949  25.207   1.316
26752W        W95157  32.096  26.477   3.142
26753W        W95158  44.011  36.564  11.067
26754W        W95159  39.960  37.946   2.815
26755W        W95160  11.986  36.585   4.448
26756W        W95161  20.163   8.265   3.659
26757W        W95162  25.475  24.720  11.542
26758W        W95163  32.954  43.783   4.704
26759W        W95164   1.819  11.233   2.856
26760W        W95165  22.745  37.427   2.970
26761W        W95166  12.187  31.444  10.061
26762W        W95167  43.550  43.820   1.358
26763W        W95168  14.337  23.972   0.948
26764W        W95169  19.777   2.223   4.527
26765W        W95170  33.532  23.714  12.070
26766W        W95171  18.625  44.200  12.436
26767W        W95172  39.997  40.807  13.469
26768W        W95173  20.294  33.416  13.197
26769W        W95174  24.153  17.046  12.061
26770W        W95175  17.002   0.752  10.736
26771W        W95176   5.913  33.581  10.765
26772W        W95177   0.936  13.667   1.010
26773W        W95178  29.968  40.026  12.548
26774W        W95179  30.304  37.851  12.207
26775W        W95180  30.730   4.502  13.326
26776W        W95181  35.569  36.706   0.845
26777W        W95182   5.267  14.459   2.702
26778W        W95183  16.459  21.621   4.085
26779W        W95184   2.702  32.475  13.349
26780W        W95185  27.689  25.046   0.170
26781W        W95186  34.293  34.125  13.586
26782W        W95187   9.797  38.638   1.185
26783W        W95188   9.120  16.763   1.722
26784W        W95189  14.340  22.598  13.977
26785W        W95190  11.090  23.249  12.968
26786W        W95191  31.152  35.447   4.255
26787W        W95192  21.705   8.858   4.497
26788W        W95193  42.464  44.856  11.379
26789W        W95194  12.663   6.336   3.304
26790W        W95195  16.629  42.932  10.548
26791W        W95196  43.445  13.739   4.573
26792W        W95197   0.815   6.648  11.433
26793W        W95198  21.118  23.550   4.745
26794W        W95199   2.126  19.601  14.783
26795W        W95200  42.325   3.628   1.876
26796W        W95201  37.330  20.165   3.401
26797W        W95202   2.054  40.928  11.149
26798W        W95203  29.605  31.353   4.224
26799W        W95204  21.930  37.987  13.341
26800W        W95205  23.403   8.403  13.015
26801W        W95206  17.722  44.005  12.560
26802W        W95207   8.500  39.444  10.793
26803W        W95208  39.805   9.221   3.466
26804W        W95209  24.156  36.783  11.543
26805W        W95210  17.673  19.738  11.189
26806W        W95211  21.988  28.801   1.874
26807W        W95212  12.775  11.380  10.394
26808W        W95213  14.087  28.138  11.890
26809W        W95214  39.470  35.524  14.835
26810W        W95215  20.235   3.022  14.373
26811W        W95216  26.942  35.551   2.386
26812W        W95217  42.977  11.709   2.727
26813W        W95218  39.627  20.552   1.842
26814W        W95219  16.210   0.769  12.634
26815W        W95220  44.293  12.368   3.716
26816W        W95221  12.771   7.315   1.205
26817W        W95222   5.667  43.665   4.155
26818W        W95223  17.559  37.281  13.318
26819W        W95224  28.708  20.104   4.945
26820W        W95225  30.714   6.943  11.074
26821W        W95226  14.658  41.185  10.782
26822W        W95227  42.718  27.904  12.120
26823W        W95228  19.073  36.345  12.840
26824W        W95229  20.487   9.286  13.988
26825W        W95230  32.968  23.661  13.855
26826W        W95231   6.969  38.703   0.763
26827W        W95232  32.944  24.183  13.107
26828W        W95233  20.129  12.790  13.106
26829W        W95234  23.043  21.329  14.073
26830W        W95235  31.643  33.547  11.155
26831W        W95236  29.805  14.825  12.110
26832W        W95237   1.043  44.128  13.638
26833W        W95238  34.492  24.445  11.497
26834W        W95239   8.634   0.700  13.376
26835W        W95240  20.829  20.741   1.862
26836W        W95241  22.061  17.052   2.356
26837W        W95242   5.360  29.514  13.721
26838W        W95243  35.711   0.317   0.346
26839W        W95244  16.840  10.118  10.712
26840W        W95245  13.350  29.566   1.828
26841W        W95246  35.646  42.306   1.401
26842W        W95247  23.127  14.306  10.981
26843W        W95248  38.616  11.123  13.936
26844W        W95249   0.985  14.235  10.726
26845W        W95250  39.099   4.528  12.598
26846W        W95251   5.718  19.200   0.459
26847W        W95252   2.754  10.690   4.071
26848W        W95253  39.294  19.997   2.596
26849W        W95254  22.837   4.828   3.236
26850W        W95255  44.306  20.236  13.883
26851W        W95256  39.165  42.167  11.185
26852W        W95257  15.504   3.655  12.032
26853W        W95258  36.095  42.031   0.811
26854W        W95259  21.673  16.070   3.652
26855W        W95260   9.699   3.613   1.653
26856W        W95261   1.871   6.953   3.955
26857W        W95262  29.338   8.826   3.226
26858W        W95263   9.677  21.061   0.724
26859W        W95264  14.069   5.387   4.869
26860W        W95265   2.239  21.542  13.562
26861W        W95266  10.381  21.991  11.418
26862W        W95267  10.590  24.795  11.455
26863W        W95268   6.411  35.874  10.556
26864W        W95269  19.767  13.556   3.613
26865W        W95270  32.239   6.263  10.808
26866W        W95271  20.773   0.768   4.372
26867W        W95272   3.336  35.863  14.950
26868W        W95273  42.906  15.372  12.717
26869W        W95274  11.156   8.583  11.109
26870W        W95275  30.436  22.480  11.594
26871W        W95276  43.963  10.355  13.887
26872W        W95277  14.349  38.468  11.487
26873W        W95278   8.644  11.802   3.441
26874W        W95279  24.581   6.219   2.601
26875W        W95280   1.817   6.472   3.746
26876W        W95281  14.395  21.019  12.366
26877W        W95282  15.700  44.469   5.189
26878W        W95283  29.894  41.732  12.951
26879W        W95284  32.850  13.532   1.022
26880W        W95285  13.129  44.756  14.964
26881W        W95286   5.074  17.813  11.088
26882W        W95287  28.445   8.308   3.375
26883W        W95288  38.308   5.705   3.704
26884W        W95289  20.991  31.726  12.119
26885W        W95290  24.016   8.293   1.747
26886W        W95291  21.398  22.928   4.264
26887W        W95292  24.865   1.493   0.245
26888W        W95293   8.340  30.615  10.923
26889W        W95294  17.272   1.570   5.052
26890W        W95295  39.148  36.584  13.361
26891W        W95296  12.562  41.938   1.356
26892W        W95297  34.913  37.311  12.355
26893W        W95298  14.691   5.153   0.405
26894W        W95299   5.914  29.528  14.009
26895W        W95300  29.437  44.961   0.979
26896W        W95301  13.309  21.227  14.880
26897W        W95302  24.736  37.573  10.726
26898W        W95303  25.650  41.088  11.839
26899W        W95304  23.611  28.042  14.806
26900W        W95305  18.776  18.859  13.055
26901W        W95306  43.844  35.379  12.931
26902W        W95307  26.081  22.502  11.595
26903W        W95308  36.462  33.831   1.391
26904W        W95309   7.919  38.232  14.264
26905W        W95310  26.686  38.373   5.079
26906W        W95311  12.176  13.110  12.869
26907W        W95312  14.157   5.239   3.032
26908W        W95313   5.779  30.542   1.691
26909W        W95314  42.125  22.095   4.265
26910W        W95315   5.816  21.678   3.810
26911W        W95316  22.417   8.394   0.199
26912W        W95317   4.911  31.557  10.752
26913W        W95318   9.786  23.794  11.740
26914W        W95319  44.725   5.688   1.279
26915W        W95320  26.433  25.280   0.842
26916W        W95321   9.393  37.260  14.641
26917W        W95322  18.543  37.053   2.819
26918W        W95323  16.789  34.883   1.805
26919W        W95324  19.810  36.441  14.840
26920W        W95325   1.766  21.597   0.242
26921W        W95326  18.120  24.260  12.443
26922W        W95327  39.532  44.460   3.743
26923W        W95328  29.342  36.047   1.665
26924W        W95329  22.730   9.378   0.033
26925W        W95330  21.104  22.661  10.117
26926W        W95331   7.270  15.088  11.524
26927W        W95332  38.471   2.436   2.516
26928W        W95333  39.349  26.077   2.918
26929W        W95334  12.746   8.621  11.555
26930W        W95335  28.155  11.873  13.430
26931W        W95336  22.469  42.060  11.476
26932W        W95337   2.765  26.719   1.780
26933W        W95338  23.583  38.104   1.193
26934W        W95339  35.794  43.563   4.566
26935W        W95340  24.992  29.934   3.317
26936W        W95341  27.518  28.789   3.606
26937W        W95342  44.215  43.806   4.723
26938W        W95343  18.732  17.885   1.399
26939W        W95344  43.814   6.166   3.764
26940W        W95345  20.030  22.669  14.639
26941W        W95346  15.679  10.720  13.839
26942W        W95347  21.237  32.667   1.218
26943W        W95348  31.154   8.898   4.767
26944W        W95349  43.555  14.305  14.118
26945W        W95350  21.081  42.897   0.342
26946W        W95351  38.321  38.421  12.813
26947W        W95352   2.331  39.411  14.368
26948W        W95353  23.682   0.159  12.623
26949W        W95354  13.976  15.400   2.221
26950W        W95355  28.633   4.461  11.120
26951W        W95356  13.535   6.484   2.855
26952W        W95357  38.400  31.639   0.837
26953W        W95358   5.910  32.182   4.503
26954W        W95359  11.101  42.956  12.516
26955W        W95360  38.520  28.444  10.571
26956W        W95361  21.164  16.624  13.363
26957W        W95362  18.531  28.092   2.364
26958W        W95363  29.199   2.737  13.966
26959W        W95364  14.160  42.065  14.288
26960W        W95365  15.518   9.788   3.733
26961W        W95366   8.040  38.841   0.994
26962W        W95367  17.414  19.309   1.873
26963W        W95368   6.542  29.032  10.792
26964W        W95369  25.552  37.056  12.582
26965W        W95370  16.659  28.568  13.036
26966W        W95371  38.822  32.576  13.465
26967W        W95372  17.229   0.173   1.501
26968W        W95373  43.713  28.070  14.467
26969W        W95374  39.930  16.142   3.032
26970W        W95375  36.105  10.281   4.356
26971W        W95376   0.543  21.292   3.760
26972W        W95377   7.655  32.997   0.354
26973W        W95378  12.574   9.101   1.775
26974W        W95379  30.743   5.855   1.887
26975W        W95380  38.567  12.963   0.826
26976W        W95381   5.032  29.208   3.693
26977W        W95382  13.349   9.471  10.741
26978W        W95383  17.908  39.901  13.425
26979W        W95384  20.088  33.997   2.337
26980W        W95385   5.833  43.419   4.747
26981W        W95386  24.926  22.140   1.759
26982W        W95387   0.847  14.159   3.253
26983W        W95388  44.840  19.614  12.045
26984W        W95389  14.125  37.055   4.996
26985W        W95390  36.472  41.978  14.470
26986W        W95391  28.468   2.963  12.742
26987W        W95392  16.059   1.192   0.303
26988W        W95393  14.575  22.770  13.506
26989W        W95394   8.913   8.192   3.659
26990W        W95395  20.461  19.766   3.195
26991W        W95396  19.899  39.763  13.674
26992W        W95397  24.906  19.602  11.504
26993W        W95398  13.738  43.864  12.887
26994W        W95399   4.247  32.892   2.742
26995W        W95400  21.592  34.830   1.196
26996W        W95401  38.558   1.825   3.216
26997W        W95402  15.229  24.772   4.077
26998W        W95403  14.708  15.589   2.650
26999W        W95404  17.574  41.220   0.274
27000W        W95405   9.562  44.084  13.473
27001W        W95406  43.327  22.567   4.525
27002W        W95407  13.592  44.879  14.729
27003W        W95408  16.294  44.940  14.012
27004W        W95409  41.434  22.640  14.392
27005W        W95410   9.541  14.662  13.978
27006W        W95411  16.721  44.875   0.755
27007W        W95412  19.016   6.691   0.766
27008W        W95413  38.975   5.238  12.947
27009W        W95414  43.384  15.312   0.765
27010W        W95415  31.418  41.878  13.006
27011W        W95416  18.248  21.571   4.077
27012W        W95417  34.429  24.614  14.927
27013W        W95418  19.384   2.694   2.715
27014W        W95419  37.199  32.348  10.865
27015W        W95420  31.123   1.061   1.643
27016W        W95421  38.970  26.124   3.421
27017W        W95422   0.069  19.218  11.178
27018W        W95423   9.932  21.145  12.065
27019W        W95424  29.436  30.886   4.051
27020W        W95425   9.130  26.905  11.127
27021W        W95426  18.825  37.550   1.958
27022W        W95427   7.571  32.573   4.382
27023W        W95428  13.220   2.939   2.265
27024W        W95429  32.078  10.158   0.397
27025W        W95430  42.449  11.875   2.744
27026W        W95431  36.556  22.092  14.841
27027W        W95432  20.523  29.128   2.359
27028W        W95433  25.976  42.259   2.035
27029W        W95434  24.519  10.063   0.506
27030W        W95435  23.143  40.552  13.808
27031W        W95436   1.230   9.230  11.010
27032W        W95437  21.607  19.200  12.149
27033W        W95438  23.497  27.673   4.001
27034W        W95439  12.147  43.401  13.998
27035W        W95440  15.076  13.213  13.943
27036W        W95441  11.193  23.241  12.044
27037W        W95442  31.474  26.757  14.907
27038W        W95443   3.651   0.973   0.153
27039W        W95444   3.947  44.232   0.885
27040W        W95445   6.262  40.677  11.177
27041W        W95446  40.774  25.534  13.509
27042W        W95447  31.188  35.581   2.169
27043W        W95448   0.886   6.930   3.777
27044W        W95449  32.361  29.014   4.098
27045W        W95450  27.249  29.541  10.915
27046W        W95451   9.629  13.096  14.476
27047W        W95452  28.026  39.218  10.157
27048W        W95453  42.542  22.730   1.204
27049W        W95454  20.095  30.901   4.317
27050W        W95455   6.335  23.359   3.861
27051W        W95456  19.216  28.228  12.821
27052W        W95457  36.520   0.166   1.813
27053W        W95458  29.016  27.500   0.031
27054W        W95459   6.442   8.079  12.079
27055W        W95460  18.300  10.194  12.615
27056W        W95461   9.918   4.171  14.368
27057W        W95462  30.861   5.996  12.999
27058W        W95463  32.495  13.371   4.610
27059W        W95464  12.725   1.881   3.172
27060W        W95465  21.211  25.472   3.219
27061W        W95466  12.124  16.643  13.137
27062W        W95467  11.481  17.839   0.496
27063W        W95468  20.154   4.278  10.694
27064W        W95469  27.899  13.838   0.038
27065W        W95470  30.332  28.558   2.615
27066W        W95471  18.813  16.024   1.490
27067W        W95472  10.360  44.829  13.990
27068W        W95473  15.040  14.508  11.679
27069W        W95474  44.397   7.365   1.846
27070W        W95475  36.455  12.209   2.167
27071W        W95476  12.309  30.398   3.167
27072W        W95477  31.954  21.041  11.042
27073W        W95478  22.660  31.090   1.792
27074W        W95479   3.397  28.324   1.519
27075W        W95480  40.439  40.777  10.301
27076W        W95481  26.705  23.547  13.023
27077W        W95482  17.726  11.415   0.451
27078W        W95483  14.018  14.058   4.983
27079W        W95484   7.798  17.555   0.484
27080W        W95485  20.521  29.428  11.091
27081W        W95486   1.570  32.426  11.979
27082W        W95487  32.973   6.220   1.024
27083W        W95488  18.208  34.410   4.722
27084W        W95489  17.244  42.345   3.695
27085W        W95490  44.732   0.396  13.886
27086W        W95491   0.360  38.812   3.597
27087W        W95492  27.304  24.257  13.671
27088W        W95493  34.086  12.306   4.476
27089W        W95494  33.102  20.951   2.107
27090W        W95495  40.501  16.689  12.815
27091W        W95496  30.492  34.334  12.997
27092W        W95497  22.500   5.997  11.853
27093W        W95498   2.897  39.895  12.905
27094W        W95499   9.831  31.271   5.408
27095W        W95500  40.968  29.106  12.776
27096W        W95501  35.313  44.558   3.570
27097W        W95502  39.792  38.949  10.806
27098W        W95503  20.032  42.754  12.962
27099W        W95504  18.510  19.615  11.968
27100W        W95505  15.528  43.414   4.124
27101W        W95506   2.327  44.744  14.358
27102W        W95507  38.438  12.371  12.082
27103W        W95508  21.625   1.444  13.577
27104W        W95509   2.744  43.825  12.541
27105W        W95510  14.358  11.647  11.555
27106W        W95511  21.183  24.611  12.043
27107W        W95512  31.517  16.859  10.473
27108W        W95513  23.323   5.232  14.444
27109W        W95514  33.595  26.928  11.064
27110W        W95515  13.828  37.821   4.514
27111W        W95516  19.086   6.838  10.714
27112W        W95517  43.213  42.136  11.606
27113W        W95518  25.173  25.615  14.337
27114W        W95519   7.834  31.495   2.397
27115W        W95520  28.973  11.617   3.778
27116W        W95521  22.704  27.258  14.372
27117W        W95522  38.017  11.898   3.743
27118W        W95523  36.908  36.553   2.734
27119W        W95524  31.354  15.940   0.320
27120W        W95525   2.396  43.059   3.579
27121W        W95526  21.604   5.984   2.877
27122W        W95527  44.735  14.895  14.433
27123W        W95528  31.666   7.445   3.942
27124W        W95529  20.236  41.718  12.954
27125W        W95530  20.279  26.150   4.652
27126W        W95531  22.574   1.212   4.226
27127W        W95532  36.145  39.031   2.628
27128W        W95533  40.899  41.141   0.746
27129W        W95534  42.031  13.151  14.416
27130W        W95535  19.560  34.671   1.902
27131W        W95536  17.205  22.026  13.095
27132W        W95537  37.416  23.912   0.454
27133W        W95538   3.201  12.512   2.208
27134W        W95539  12.328  35.795   0.234
27135W        W95540  41.384  26.731  14.286
27136W        W95541  42.781  13.810  13.433
27137W        W95542   3.793   3.797  11.875
27138W        W95543  23.155  41.411   2.938
27139W        W95544  13.194  41.332   3.453
27140W        W95545  13.584  21.180   5.103
27141W        W95546  32.467  35.979  11.103
27142W        W95547  29.734   8.235   0.270
27143W        W95548  18.389  38.108  14.833
27144W        W95549  31.578  30.849   4.806
27145W        W95550  31.832  32.797   4.526
27146W        W95551  25.062   7.890  12.813
27147W        W95552   2.267  24.024   3.277
27148W        W95553  30.090  32.104   0.620
27149W        W95554   6.470  20.659  13.274
27150W        W95555  31.089  43.339   0.972
27151W        W95556   7.221   4.460  12.253
27152W        W95557   3.935   4.385   0.795
27153W        W95558  19.516  39.073   4.191
27154W        W95559  13.335  10.689   0.369
27155W        W95560  36.645  21.106   3.682
27156W        W95561  18.645  38.390   4.783
27157W        W95562  29.395  19.319  13.303
27158W        W95563  42.701  33.360  11.099
27159W        W95564  43.553  34.795   2.966
27160W        W95565  40.659  32.791   1.421
27161W        W95566  39.292  22.280  11.531
27162W        W95567  42.989  41.182  14.329
27163W        W95568  27.211   2.885  12.139
27164W        W95569   4.442  21.971  13.830
27165W        W95570  34.709   2.647   3.906
27166W        W95571  36.748  32.439  10.613
27167W        W95572  19.583  13.189  11.392
27168W        W95573  14.681  22.505  11.520
27169W        W95574  21.424  35.991   1.754
27170W        W95575  22.848  44.738   0.296
27171W        W95576  31.557  24.457  14.256
27172W        W95577  14.487  11.492   9.875
27173W        W95578  21.969  39.620   2.310
27174W        W95579  38.984  29.933  10.117
27175W        W95580   7.357  18.541  14.368
27176W        W95581  31.130  16.898  14.350
27177W        W95582  41.512  29.670  12.053
27178W        W95583  15.887   8.742  12.968
27179W        W95584   6.310  27.885  14.907
27180W        W95585  40.082  10.632  14.666
27181W        W95586  24.887   2.808   1.230
27182W        W95587  32.031  20.327  12.411
27183W        W95588  16.679   1.990  11.944
27184W        W95589   4.408  32.404  12.527
27185W        W95590   2.447  12.879   0.954
27186W        W95591  12.621   0.541  11.599
27187W        W95592  42.901  18.287  11.113
27188W        W95593  39.656  34.545  11.948
27189W        W95594  12.552  35.841  10.713
27190W        W95595  44.262  44.913   2.842
27191W        W95596  25.618  25.677  14.625
27192W        W95597  13.432  17.369  10.344
27193W        W95598   3.367  18.821   0.407
27194W        W95599  15.345  27.005   4.887
27195W        W95600  10.754  41.737  14.272
27196W        W95601  39.378  11.075   3.699
27197W        W95602  33.250  34.192  12.049
27198W        W95603  23.921  17.093  13.713
27199W        W95604   2.926  35.458   3.815
27200W        W95605  20.558  21.959  13.574
27201W        W95606  26.058  30.681   3.168
27202W        W95607  27.526   1.259   1.597
27203W        W95608  32.996  23.251  13.526
27204W        W95609  38.001  11.617   2.105
27205W        W95610  39.258  42.368   2.473
27206W        W95611  17.982  26.880  11.007
27207W        W95612  37.300  42.803  13.698
27208W        W95613  20.722  37.324  10.473
27209W        W95614  24.582   5.610   4.662
27210W        W95615  43.743   4.693   0.393
27211W        W95616  19.874  10.478   4.165
27212W        W95617  41.280   6.013   1.721
27213W        W95618  21.197  21.448  11.686
27214W        W95619   6.377  21.023  12.910
27215W        W95620  36.724  36.815   0.725
27216W        W95621  12.818   6.703   1.891
27217W        W95622  15.765   7.671  14.866
27218W        W95623  10.878   9.924  14.849
27219W        W95624  17.605  37.797  13.385
27220W        W95625   3.013  34.695  11.588
27221W        W95626  15.805  38.447  12.965
27222W        W95627  35.180   3.142  11.481
27223W        W95628  10.907  43.650   0.832
27224W        W95629   5.477  17.042   3.676
27225W        W95630  40.475  36.058   1.296
27226W        W95631  18.687  33.520   2.921
27227W        W95632  19.352  12.774  11.555
27228W        W95633  10.670   3.869  12.289
27229W        W95634  17.375  43.785   1.386
27230W        W95635  31.470  11.672  11.060
27231W        W95636  34.338  42.657  14.694
27232W        W95637  33.612   4.295  12.879
27233W        W95638  21.289  14.308  10.709
27234W        W95639  39.464  17.345  13.612
27235W        W95640  37.593  43.234  11.615
27236W        W95641  28.875  42.970   2.841
27237W        W95642  14.229  25.653  10.648
27238W        W95643  15.984   3.386   4.639
27239W        W95644  18.737   1.484   0.462
27240W        W95645  23.685  20.163   2.175
27241W        W95646  22.174  40.822   0.863
27242W        W95647  35.648  39.108  14.798
27243W        W95648  27.130  37.473  10.467
27244W        W95649  18.715  22.964  14.895
27245W        W95650  12.235  10.459  14.212
27246W        W95651  39.539   6.241  11.703
27247W        W95652  39.817  43.099   1.050
27248W        W95653  36.476  21.008  14.068
27249W        W95654  36.721  25.549   1.801
27250W        W95655  43.677  22.051  12.886
27251W        W95656   9.633  41.481   0.404
27252W        W95657  42.941  25.564  12.212
27253W        W95658  23.998  28.452  10.397
27254W        W95659  29.003   1.257  11.384
27255W        W95660  19.551  36.961   3.160
27256W        W95661  40.846  42.233   2.306
27257W        W95662  13.999  24.859  12.915
27258W        W95663   2.116  27.677   9.829
27259W        W95664  30.580  10.938   4.122
27260W        W95665  28.950  23.649   4.715
27261W        W95666  13.992  31.002   3.594
27262W        W95667  17.506  18.939   1.511
27263W        W95668  11.608  10.167   2.678
27264W        W95669  41.825  25.599  10.572
27265W        W95670  34.632  32.514   3.743
27266W        W95671   6.170   9.431  14.974
27267W        W95672  32.060  27.637  13.806
27268W        W95673  40.910  41.935   1.835
27269W        W95674  37.946  35.861  10.987
27270W        W95675  37.404  37.300   5.110
27271W        W95676  20.505   5.214   2.799
27272W        W95677   0.760  35.135  11.876
27273W        W95678  26.618  36.445   5.065
27274W        W95679  41.496  16.647  14.327
27275W        W95680  36.375  22.789   0.828
27276W        W95681  14.643  17.976  13.383
27277W        W95682  29.678  23.636  11.122
27278W        W95683  27.129  30.083  10.967
27279W        W95684  18.518   3.324   0.328
27280W        W95685  29.687  17.095   3.661
27281W        W95686  44.542  15.166   1.267
27282W        W95687  42.498  25.201   4.136
27283W        W95688  35.125  15.299  12.556
27284W        W95689  40.579  21.520  11.404
27285W        W95690  13.661  19.023   4.009
27286W        W95691  43.622  41.527  11.120
27287W        W95692  29.056  42.436   3.573
27288W        W95693  12.852  12.940   1.311
27289W        W95694  37.527  31.392   2.220
27290W        W95695  25.089  29.049   2.229
27291W        W95696  24.208   7.866   4.040
27292W        W95697  30.492  20.832  11.751
27293W        W95698  22.864  35.764  13.878
27294W        W95699  22.734   0.708  13.426
27295W        W95700  14.675   5.532  12.186
27296W        W95701   6.350  41.719  12.890
27297W        W95702  16.922  12.324   4.396
27298W        W95703  12.696  29.917  11.692
27299W        W95704  25.956  37.960   0.774
27300W        W95705   3.629  14.173  10.992
27301W        W95706  23.594  16.095  13.394
27302W        W95707  21.095  25.007   1.296
27303W        W95708   2.327  15.467  10.985
27304W        W95709  37.272  41.934   3.245
27305W        W95710  12.504  23.082  12.925
27306W        W95711  37.197  29.082  12.511
27307W        W95712  27.410  39.402  14.210
27308W        W95713  33.670   6.852   4.334
27309W        W95714  34.203  38.189   0.060
27310W        W95715   1.410  31.538  10.843
27311W        W95716   7.481  26.441   2.054
27312W        W95717   2.325  18.438  10.297
27313W        W95718   7.085  15.154   0.408
27314W        W95719  34.034  18.317   0.767
27315W        W95720  14.183   9.171  13.041
27316W        W95721  20.639  19.340  14.292
27317W        W95722   4.325  19.439   4.926
27318W        W95723  23.946  36.138   1.974
27319W        W95724  10.410  21.909  12.389
27320W        W95725  19.500   4.496  12.934
27321W        W95726  28.978   3.205   2.427
27322W        W95727  43.843  42.089  14.958
27323W        W95728   6.331  17.840   3.373
27324W        W95729  24.164  40.692  11.453
27325W        W95730  13.053   0.992   0.903
27326W        W95731  44.240   5.702  10.461
27327W        W95732   5.396   4.984   2.948
27328W        W95733  43.430  31.814  11.924
27329W        W95734  14.728  31.241  13.515
27330W        W95735  39.005  35.981  14.638
27331W        W95736  37.091  13.238   1.200
27332W        W95737  18.643  40.701  12.715
27333W        W95738  29.081  20.655  12.918
27334W        W95739   2.565  33.935   4.349
27335W        W95740   7.876  21.528   0.142
27336W        W95741   0.290  19.548   3.173
27337W        W95742   7.490  30.996   1.302
27338W        W95743  32.061  39.813   2.972
27339W        W95744  24.926   6.933   3.665
27340W        W95745   7.773  19.804   0.967
27341W        W95746  21.074  36.924   3.815
27342W        W95747   0.706   3.822   2.885
27343W        W95748  42.987   8.878  12.559
27344W        W95749   6.443  32.879   1.952
27345W        W95750  37.923  27.086  11.891
27346W        W95751  17.868   6.105  13.433
27347W        W95752  36.260   3.850   2.882
27348W        W95753  39.863  39.556   1.450
27349W        W95754  18.561  22.426  11.550
27350W        W95755  40.807  10.090   3.739
27351W        W95756  36.803  11.291  13.369
27352W        W95757  25.643  44.319   0.747
27353W        W95758   0.222  32.916  13.080
27354W        W95759   0.206  40.548  13.385
27355W        W95760  19.752  15.759   3.306
27356W        W95761  19.585  21.335  12.954
27357W        W95762  33.921  25.955  14.552
27358W        W95763  10.347   0.306  14.201
27359W        W95764  43.757  37.402   2.121
27360W        W95765  17.442  36.881   4.697
27361W        W95766  16.817  20.151   1.283
27362W        W95767  26.545   6.322   0.004
27363W        W95768  23.533  21.247   3.550
27364W        W95769  42.491   5.554  11.372
27365W        W95770  23.938   9.580  13.863
27366W        W95771  28.473  16.799   1.291
27367W        W95772  42.062   1.538  13.346
27368W        W95773   2.375  39.045   2.059
27369W        W95774  31.681  22.659  12.902
27370W        W95775  30.090  23.852   1.435
27371W        W95776  13.103  37.638   1.603
27372W        W95777   2.918  42.920   0.500
27373W        W95778  22.814   4.887   1.329
27374W        W95779  37.361  30.701   3.202
27375W        W95780   5.578  20.241   0.328
27376W        W95781   8.484  20.326   0.194
27377W        W95782   0.781  40.064  14.443
27378W        W95783  44.774  31.971   1.156
27379W        W95784  38.683  11.654  12.971
27380W        W95785  28.406   7.237  11.736
27381W        W95786  23.428  38.389  11.199
27382W        W95787  12.565  41.555   2.897
27383W        W95788  25.142  20.462  10.799
27384W        W95789  30.403  15.791   1.846
27385W        W95790  27.149  30.680   0.318
27386W        W95791   7.689  42.964   1.427
27387W        W95792  33.438  13.212  13.920
27388W        W95793  29.457  25.026  14.310
27389W        W95794  22.968  21.202   0.482
27390W        W95795  39.289  17.736  14.561
27391W        W95796  23.708  19.215  13.874
27392W        W95797  30.446  32.257   0.945
27393W        W95798  44.320  21.473   0.976
27394W        W95799  26.721  20.777  13.493
27395W        W95800  18.017  19.725  12.113
27396W        W95801  19.259  20.768  14.442
27397W        W95802   1.425  25.969  13.265
27398W        W95803  19.020  30.462  10.735
27399W        W95804   7.276  35.915  12.199
27400W        W95805  34.876  44.549  14.260
27401W        W95806   7.660  17.300   9.913
27402W        W95807   9.440  21.104  14.418
27403W        W95808  21.037  41.339  10.675
27404W        W95809  39.881  25.207  11.635
27405W        W95810  35.429   7.696   3.118
27406W        W95811   5.875  25.333  14.024
27407W        W95812   6.336  16.336   3.045
27408W        W95813  28.197   4.022   4.310
27409W        W95814  28.521  42.805  14.906
27410W        W95815  29.326  23.649  14.364
27411W        W95816  35.474  31.503   2.706
27412W        W95817  40.765  40.846   3.769
27413W        W95818  32.669  30.310   1.357
27414W        W95819  29.155   7.325   2.393
27415W        W95820  28.180  44.721  13.594
27416W        W95821  14.390  33.436  14.327
27417W        W95822  42.513  16.596   3.215
27418W        W95823  16.811  19.479   4.601
27419W        W95824   9.277  24.753   2.712
27420W        W95825  30.404  37.773   4.217
27421W        W95826  10.102  11.451   0.367
27422W        W95827  10.544  10.179   4.138
27423W        W95828  39.968  12.313   2.176
27424W        W95829  41.074  15.890  12.599
27425W        W95830  35.340   2.944   4.660
27426W        W95831  34.944  12.234   0.914
27427W        W95832  34.723  26.881   3.454
27428W        W95833   3.779  34.389  14.545
27429W        W95834   8.400   7.786  11.196
27430W        W95835  15.321  23.238   9.842
27431W        W95836  38.457  42.803  12.649
27432W        W95837   5.472   5.050  14.925
27433W        W95838  26.857  17.932   3.611
27434W        W95839  18.616  13.966   1.686
27435W        W95840  36.112  10.386   1.558
27436W        W95841   2.242  40.436   1.774
27437W        W95842  38.783  25.026  10.358
27438W        W95843  35.150  36.517   2.153
27439W        W95844  10.247  18.269  10.798
27440W        W95845  28.693  26.950   3.891
27441W        W95846  32.968  21.853  11.442
27442W        W95847  37.416   3.763   0.577
27443W        W95848   0.437  12.178   3.207
27444W        W95849   6.200  28.640   2.613
27445W        W95850  34.804  16.118  13.639
27446W        W95851  13.543  25.213   2.386
27447W        W95852  21.076  41.839  11.215
27448W        W95853  23.447  15.099   4.706
27449W        W95854  17.553  32.453  11.248
27450W        W95855  32.489  44.346   1.544
27451W        W95856   2.752  31.187  11.488
27452W        W95857  35.478  19.937   0.007
27453W        W95858  22.256  39.507  13.522
27454W        W95859  21.773  14.220  12.045
27455W        W95860  23.037  20.681  13.361
27456W        W95861  24.126   8.897   0.755
27457W        W95862   1.528  14.275  14.952
27458W        W95863  35.645   8.532   1.026
27459W        W95864  24.644  18.681   2.733
27460W        W95865  25.009  27.392   2.625
27461W        W95866  14.786   0.451  10.078
27462W        W95867  43.996  17.360  11.146
27463W        W95868  34.842  43.443   2.377
27464W        W95869  27.138  12.331  13.971
27465W        W95870  36.642  41.781   3.793
27466W        W95871  36.404  30.766  13.033
27467W        W95872  21.120   7.975   2.454
27468W        W95873   9.239  29.469  13.631
27469W        W95874  12.545   3.316   0.542
27470W        W95875  33.169  18.060  11.996
27471W        W95876   7.661  33.037   3.176
27472W        W95877  28.014  19.752  12.009
27473W        W95878  40.609   0.932   3.229
27474W        W95879  24.132  25.350  10.187
27475W        W95880  26.850  41.918  13.986
27476W        W95881  14.848  32.919  10.901
27477W        W95882  37.072  22.045  12.551
27478W        W95883  37.373   5.898   0.474
27479W        W95884  38.496  28.624  14.375
27480W        W95885  31.048  19.491  12.587
27481W        W95886  17.306   2.977  13.854
27482W        W95887  26.447   3.391   0.225
27483W        W95888  12.646   5.466   4.215
27484W        W95889  16.399  29.530  11.128
27485W        W95890  11.840  34.020  12.071
27486W        W95891   1.389  24.549  11.960
27487W        W95892  17.156  33.439   0.289
27488W        W95893  33.830  11.074  11.085
27489W        W95894  29.596  41.940   4.569
27490W        W95895  13.640   2.372  14.107
27491W        W95896  14.322  15.738  12.921
27492W        W95897   7.439   6.411  14.366
27493W        W95898   6.433   5.855  11.615
27494W        W95899  18.446  17.466  12.832
27495W        W95900   7.411  27.941  13.151
27496W        W95901  43.735  37.154   4.383
27497W        W95902  43.288  11.174  11.190
27498W        W95903   1.550  16.259   3.902
27499W        W95904  39.061  27.549   0.936
27500W        W95905  24.132  43.571   3.597
27501W        W95906  26.484  36.545   0.906
27502W        W95907  17.338  18.181  10.385
27503W        W95908   3.424  43.066  11.610
27504W        W95909  35.193  11.161   2.879
27505W        W95910   5.742  19.325   3.324
27506W        W95911  44.513  33.477   0.302
27507W        W95912  42.963  25.963   0.263
27508W        W95913  27.080   3.730  12.201
27509W        W95914   9.635  27.659  13.235
27510W        W95915   0.189  26.490   0.698
27511W        W95916  38.562  14.638  12.522
27512W        W95917   3.411  41.963   4.319
27513W        W95918   3.821  42.429   2.677
27514W        W95919  27.395  36.170  13.289
27515W        W95920   9.899  12.659  14.935
27516W        W95921  29.091  33.229  11.130
27517W        W95922   8.471  39.991  12.042
27518W        W95923  17.222  35.050   4.244
27519W        W95924  21.581  27.534  11.632
27520W        W95925  23.172  33.040   0.009
27521W        W95926  20.172   8.223  13.977
27522W        W95927  26.908  21.296  12.879
27523W        W95928  42.631  38.355  13.132
27524W        W95929   2.066   7.806  13.866
27525W        W95930  25.967   6.129   3.677
27526W        W95931  17.965  10.452  12.967
27527W        W95932  28.756  18.251  14.355
27528W        W95933  20.363   5.375   1.435
27529W        W95934  10.156  36.103   1.500
27530W        W95935   2.973  21.079   4.652
27531W        W95936  27.442  36.125   0.993
27532W        W95937  22.555  34.853   1.416
27533W        W95938  44.521  42.483   3.631
27534W        W95939  11.446   9.079   3.760
27535W        W95940  20.293  23.475  10.987
27536W        W95941   7.723  12.842  11.592
27537W        W95942  36.915  38.991  10.888
27538W        W95943  18.974  15.236   3.451
27539W        W95944   7.772   5.486  11.885
27540W        W95945  41.328  38.330  14.346
27541W        W95946  40.090  42.526   2.787
27542W        W95947  26.865  29.096   0.187
27543W        W95948  15.788  18.151   0.456
27544W        W95949  21.094   6.620  12.432
27545W        W95950  18.731  16.272  12.535
27546W        W95951  43.954   9.771   0.327
27547W        W95952  34.225  22.822   1.790
27548W        W95953  35.808   2.991   3.312
27549W        W95954  34.706  22.643   1.829
27550W        W95955  33.197   9.265  14.005
27551W        W95956  23.548  34.870   3.662
27552W        W95957   3.716  17.717  10.763
27553W        W95958  32.643  26.907   2.741
27554W        W95959  28.632   1.571   1.012
27555W        W95960  44.385  21.487  13.350
27556W        W95961  14.086  23.045  14.030
27557W        W95962  24.171  13.916  11.243
27558W        W95963  12.721  36.992   0.014
27559W        W95964  32.904  19.309   1.007
27560W        W95965  39.048   8.928  11.123
27561W        W95966  29.601  20.736  11.666
27562W        W95967  37.858  23.041  13.369
27563W        W95968   6.372  13.602   4.288
27564W        W95969   1.751   0.201   4.138
27565W        W95970  12.665  36.881   1.031
27566W        W95971  37.468  25.332  11.558
27567W        W95972   4.179  17.039  13.925
27568W        W95973   4.202  12.095   3.560
27569W        W95974   1.755  23.201  14.878
27570W        W95975  25.185  42.736  14.297
27571W        W95976  36.533  33.460  12.111
27572W        W95977  44.534  29.501  13.098
27573W        W95978   0.328  26.271  13.902
27574W        W95979  17.849  25.305   3.966
27575W        W95980  36.425  36.445   3.717
27576W        W95981  13.173  26.646   3.143
27577W        W95982  33.852  28.862  10.817
27578W        W95983  27.596  38.901   1.309
27579W        W95984  43.864   8.203  13.530
27580W        W95985  42.167   2.965  11.169
27581W        W95986  40.275  44.013  12.045
27582W        W95987  11.901  13.534  13.752
27583W        W95988  16.259  12.216   3.693
27584W        W95989   9.661  34.535  14.140
27585W        W95990  42.925  32.216   3.660
27586W        W95991  21.244  13.609  12.599
27587W        W95992  30.462  18.117   0.466
27588W        W95993  21.584   2.355   4.730
27589W        W95994  38.770  37.571  12.447
27590W        W95995  17.547  24.772   1.732
27591W        W95996  11.812   9.654   4.825
27592W        W95997   8.385  19.586  12.467
27593W        W95998  36.240   1.896   2.267
27594W        W95999   8.475   7.334  13.630
27595W        W96000   3.550   2.917  13.424
27596W        W96001   5.167  19.124  11.629
27597W        W96002   8.168  31.018  12.232
27598W        W96003  33.405  23.829   2.257
27599W        W96004  24.623  23.976  11.569
27600W        W96005  28.554  28.271   2.793
27601W        W96006  20.787  33.024  11.610
27602W        W96007  36.869  15.588  10.738
27603W        W96008  43.529  32.107   4.344
27604W        W96009   5.360  28.436  12.269
27605W        W96010  35.277  15.853   4.735
27606W        W96011  20.091  18.693  14.832
27607W        W96012   1.208  22.388  11.052
27608W        W96013   6.983  31.570  11.473
27609W        W96014  11.807   1.235   2.259
27610W        W96015  36.447  36.003  13.089
27611W        W96016  22.433  21.304   1.934
27612W        W96017   1.225  20.593   3.686
27613W        W96018  10.932  10.856   1.824
27614W        W96019   7.040  25.217  12.974
27615W        W96020  10.510   1.522   0.032
27616W        W96021  38.016   9.454  12.129
27617W        W96022   6.741   4.236   0.314
27618W        W96023   7.893  16.154   0.826
27619W        W96024  41.387  20.067  10.611
27620W        W96025  18.739  21.253   1.163
27621W        W96026  22.733   0.308   2.146
27622W        W96027  15.850  29.599   2.979
27623W        W96028  35.733  15.051  11.482
27624W        W96029  41.585  13.635  12.049
27625W        W96030   1.776  23.565  11.511
27626W        W96031  18.396  15.571   5.054
27627W        W96032  38.526  31.316   0.457
27628W        W96033   0.691  27.379  14.949
27629W        W96034  26.410  24.598   4.750
27630W        W96035  10.784  23.636  13.624
27631W        W96036  30.404  26.527   4.119
27632W        W96037  21.068  23.586  11.928
27633W        W96038  40.320   7.627   0.756
27634W        W96039  28.859  20.515   1.855
27635W        W96040   3.836  27.592  13.569
27636W        W96041   9.568  39.095   1.885
27637W        W96042  17.105   3.044  11.675
27638W        W96043  42.475  28.026  13.122
27639W        W96044   0.342  24.777   0.317
27640W        W96045  30.401  44.189  10.656
27641W        W96046  36.011  14.106  13.764
27642W        W96047  27.173  19.690  11.111
27643W        W96048  29.452   1.952   2.230
27644W        W96049  14.332  30.984   2.803
27645W        W96050  26.383  17.250   0.772
27646W        W96051   1.695  41.845   0.260
27647W        W96052  34.282  33.540  11.556
27648W        W96053  32.681  18.000   5.142
27649W        W96054  23.011  24.190   0.459
27650W        W96055  18.351  31.445  14.575
27651W        W96056  30.028   2.781   4.190
27652W        W96057  13.474  24.925   5.106
27653W        W96058   3.447  39.661   4.326
27654W        W96059  12.151   6.834   2.932
27655W        W96060  43.940  25.280   0.467
27656W        W96061  34.580   6.646   2.673
27657W        W96062  11.352  23.143  11.572
27658W        W96063  13.040   5.351   3.913
27659W        W96064  43.418  26.968  14.428
27660W        W96065  15.658  23.789   1.662
27661W        W96066  21.003  21.276  10.462
27662W        W96067   7.311  12.553   0.246
27663W        W96068   2.992  21.632  14.012
27664W        W96069  18.141  24.043  14.409
27665W        W96070   1.508  41.808  14.546
27666W        W96071  20.954  17.525  12.149
27667W        W96072  19.136  31.726   4.582
27668W        W96073  38.000  18.937  10.172
27669W        W96074  12.521  19.047  12.849
27670W        W96075  12.226  18.617   4.573
27671W        W96076  33.216  37.933  14.473
27672W        W96077  13.215  21.492  12.941
27673W        W96078   4.545  39.304  11.678
27674W        W96079   2.449  16.809  11.633
27675W        W96080   7.196  26.619   2.787
27676W        W96081  17.458  32.721   9.583
27677W        W96082   1.315  22.786  13.977
27678W        W96083  36.195  15.222   3.256
27679W        W96084   3.513  37.239   4.219
27680W        W96085  16.699  43.324   2.902
27681W        W96086  37.642  30.549   0.921
27682W        W96087  26.373  30.086  12.386
27683W        W96088  26.922  10.129  14.934
27684W        W96089  26.600  30.010   4.353
27685W        W96090  27.229  31.994  14.080
27686W        W96091  23.063  40.734   2.597
27687W        W96092  43.506  34.504  10.745
27688W        W96093  28.755  11.962   4.149
27689W        W96094   5.201  21.430  12.287
27690W        W96095  29.703  15.337  13.780
27691W        W96096  26.554  23.985  10.675
27692W        W96097   1.030   6.151  11.556
27693W        W96098  37.415  29.222  10.658
27694W        W96099   5.202  38.919   0.351
27695W        W96100  29.036  19.589   3.618
27696W        W96101   0.032   4.917   0.362
27697W        W96102  39.361  14.447  12.944
27698W        W96103  41.835  12.532   3.667
27699W        W96104  10.099  43.794   2.375
27700W        W96105   0.334  29.070   4.051
27701W        W96106  32.120   1.487   3.627
27702W        W96107  38.677  23.710  12.458
27703W        W96108  39.345  41.311   0.958
27704W        W96109   4.880   6.979   3.849
27705W        W96110   4.876  33.821  12.095
27706W        W96111   1.795  17.158   0.273
27707W        W96112  24.540  10.798   4.233
27708W        W96113   8.844  36.970   3.098
27709W        W96114  29.370  33.496  12.981
27710W        W96115   4.758  24.225  13.214
27711W        W96116   8.434  12.196   4.207
27712W        W96117   0.279  29.667   3.717
27713W        W96118  31.535  25.278  14.284
27714W        W96119  20.942  42.851  12.085
27715W        W96120  37.647  40.943   3.251
27716W        W96121  21.409  17.740   4.136
27717W        W96122   2.244  15.258  12.498
27718W        W96123   2.177   2.539  11.627
27719W        W96124  38.034  11.081  11.944
27720W        W96125  17.657  23.184   2.348
27721W        W96126  21.252  27.389  13.560
27722W        W96127  10.668  42.613  12.934
27723W        W96128  22.837  31.125  12.911
27724W        W96129  43.739  13.318  11.674
27725W        W96130   4.460  38.913   2.253
27726W        W96131  39.795   2.054   2.185
27727W        W96132  36.383  44.059   1.254
27728W        W96133  25.623  22.007  12.556
27729W        W96134  40.045   1.000  10.996
27730W        W96135  28.654  33.350   1.344
27731W        W96136  42.706  19.108  11.636
27732W        W96137   8.199  24.267  12.493
27733W        W96138   7.045  16.371   3.776
27734W        W96139  23.582  39.828  11.217
27735W        W96140  27.063  11.476   0.942
27736W        W96141  18.548  28.532  13.560
27737W        W96142   1.274   5.336  11.191
27738W        W96143  35.026  11.315  14.252
27739W        W96144  16.557  35.984  10.689
27740W        W96145   2.643  38.071  12.560
27741W        W96146  24.129  25.555  11.364
27742W        W96147  32.896   7.864  12.316
27743W        W96148  27.742  13.290  12.911
27744W        W96149  23.286  16.649  14.377
27745W        W96150  41.697  21.200   0.748
27746W        W96151  20.270  19.096   1.498
27747W        W96152  27.175  30.462  12.626
27748W        W96153  36.338   1.016   0.411
27749W        W96154  42.005  18.349  13.006
27750W        W96155  19.291   4.191   1.868
27751W        W96156   5.277   8.135  12.431
27752W        W96157   4.910   0.543   3.621
27753W        W96158  19.991  38.073   3.217
27754W        W96159   3.549  21.629   2.815
27755W        W96160  17.759   0.552  12.448
27756W        W96161  35.458  21.361   1.406
27757W        W96162  28.690  30.439   4.262
27758W        W96163  18.823   9.517   2.457
27759W        W96164  37.805  25.587  11.891
27760W        W96165  29.003  40.654   3.567
27761W        W96166   9.706  24.789  10.944
27762W        W96167  44.882  13.110  11.125
27763W        W96168   2.001  28.626  13.008
27764W        W96169  18.806  14.594   2.989
27765W        W96170   5.815   1.905  14.751
27766W        W96171  37.013   0.304   0.037
27767W        W96172  29.614   5.884  14.095
27768W        W96173  34.334   1.411  12.772
27769W        W96174   7.847  32.419   3.784
27770W        W96175  17.528   2.663   0.323
27771W        W96176  34.955   2.184   3.841
27772W        W96177  14.104   1.976   2.042
27773W        W96178  35.169  34.597  13.493
27774W        W96179  36.389  12.923  11.160
27775W        W96180  13.156  39.798  14.930
27776W        W96181  30.288  27.551   0.911
27777W        W96182  17.101  10.264  11.558
27778W        W96183   4.970  26.534   4.811
27779W        W96184  25.224  34.452   1.969
27780W        W96185  35.048  19.294   0.375
27781W        W96186  25.170  24.435   1.411
27782W        W96187  32.788  33.497   3.955
27783W        W96188  17.728  17.246   2.422
27784W        W96189  11.348  37.551  13.316
27785W        W96190   0.857  16.323  11.528
27786W        W96191  23.161  32.214  11.125
27787W        W96192   6.629  19.066  12.549
27788W        W96193   9.615  37.829  13.840
27789W        W96194   2.951  28.147   1.729
27790W        W96195  27.372   6.666   4.551
27791W        W96196   1.396   9.271  13.776
27792W        W96197  18.323   5.661   1.732
27793W        W96198  42.342  26.515  11.970
27794W        W96199  22.624  29.040  14.960
27795W        W96200   8.573  32.969  11.445
27796W        W96201  39.071  18.305  14.515
27797W        W96202  24.928   4.058   1.838
27798W        W96203  29.162  31.587  11.526
27799W        W96204  22.640   4.190  13.907
27800W        W96205  20.238  21.224  14.243
27801W        W96206  44.348  20.367   2.842
27802W        W96207  19.161  25.025  14.402
27803W        W96208  20.620  14.218   4.931
27804W        W96209  16.610  37.463   3.231
27805W        W96210  44.977  43.935   1.932
27806W        W96211  39.756  32.341  10.805
27807W        W96212   2.186  13.403  12.510
27808W        W96213   3.464  12.765   2.590
27809W        W96214   5.777  16.299  14.932
27810W        W96215  34.810  37.407   1.100
27811W        W96216  43.521  19.869   2.685
27812W        W96217  19.549  34.011   4.638
27813W        W96218  20.165  10.927  13.400
27814W        W96219  28.663   5.938  14.967
27815W        W96220  43.530  29.165   3.225
27816W        W96221  14.698  19.333  12.894
27817W        W96222  40.450  37.457  14.527
27818W        W96223  43.519   0.316   3.382
27819W        W96224  36.566   7.912  12.759
27820W        W96225  18.580   6.876   5.395
27821W        W96226   7.979   5.416  14.756
27822W        W96227  10.321   4.878  13.991
27823W        W96228  37.425  11.749   5.323
27824W        W96229  19.760  15.780  11.949
27825W        W96230  17.381  30.008  14.047
27826W        W96231   7.690  28.223  14.758
27827W        W96232  29.554  24.229   2.775
27828W        W96233  13.819  23.653  12.451
27829W        W96234  13.260  36.280  11.984
27830W        W96235   4.015  30.940   4.972
27831W        W96236  20.316   3.019  13.457
27832W        W96237  16.793  16.549  12.019
27833W        W96238  36.278  13.694  14.795
27834W        W96239  37.142  22.828  11.220
27835W        W96240  21.080  43.031   2.739
27836W        W96241  36.701   2.605   3.333
27837W        W96242  11.819   0.315   4.649
27838W        W96243  31.003   9.877  13.086
27839W        W96244  20.579  32.160   0.839
27840W        W96245   2.897   8.197   0.390
27841W        W96246  21.041  21.508   3.834
27842W        W96247   2.783  39.653   4.552
27843W        W96248  36.943  30.711   2.252
27844W        W96249  27.940  40.558  14.091
27845W        W96250  20.561  28.709  12.520
27846W        W96251  28.225  37.221   0.566
27847W        W96252   5.670  17.122   0.137
27848W        W96253  24.419  20.574  11.591
27849W        W96254  25.017  11.675   4.145
27850W        W96255  40.119  38.373  13.438
27851W        W96256  29.481  26.505  11.708
27852W        W96257  24.853  15.928   2.145
27853W        W96258  39.930  42.006  12.867
27854W        W96259  26.967  17.060  13.742
27855W        W96260  34.664  36.909  12.051
27856W        W96261  15.246   1.752   0.017
27857W        W96262   9.377  22.604  11.207
27858W        W96263  20.104  37.600   2.382
27859W        W96264  25.898  28.207  11.517
27860W        W96265  44.926  10.365   2.620
27861W        W96266  36.875  40.593  13.437
27862W        W96267   9.179   8.677   3.737
27863W        W96268  11.606  29.508  10.432
27864W        W96269  17.264  32.071  10.971
27865W        W96270  39.389  10.758   1.763
27866W        W96271  40.893  23.200  12.888
27867W        W96272  27.974  41.861  13.058
27868W        W96273   4.249  44.613  13.410
27869W        W96274  33.094  26.286  12.149
27870W        W96275  32.954  30.599  13.380
27871W        W96276  42.006  21.976   1.378
27872W        W96277  10.280   7.848   1.623
27873W        W96278  37.499  18.765  12.479
27874W        W96279  30.967   4.667   1.396
27875W        W96280  42.553   8.194  13.871
27876W        W96281  32.519  24.018  12.362
27877W        W96282  10.873  37.515   2.239
27878W        W96283  35.438  10.888   1.066
27879W        W96284   2.607  10.160   0.272
27880W        W96285  17.220  10.727   3.552
27881W        W96286  22.064  44.771  10.750
27882W        W96287  43.867   9.709  13.395
27883W        W96288  25.466   6.304   3.710
27884W        W96289   9.801  43.363  12.176
27885W        W96290  39.913  33.581   3.402
27886W        W96291   8.818  23.670   4.353
27887W        W96292  23.764  20.621   1.954
27888W        W96293  28.505  41.107   0.385
27889W        W96294  42.981   0.747  10.654
27890W        W96295   9.927   8.242   3.824
27891W        W96296   5.436   3.829  14.481
27892W        W96297  43.576  13.977   0.452
27893W        W96298  38.767  33.578   4.553
27894W        W96299  17.674  44.808  14.722
27895W        W96300   2.432  29.725  12.012
27896W        W96301   2.976  32.765   4.211
27897W        W96302  29.713   0.283   1.787
27898W        W96303  21.703  42.837  13.530
27899W        W96304  12.679   0.199   1.370
27900W        W96305  10.250  19.295  13.304
27901W        W96306   6.872   1.723  12.069
27902W        W96307  30.398   1.284   1.067
27903W        W96308  22.045  29.428   2.750
27904W        W96309  40.888  42.552  10.810
27905W        W96310  42.952   6.346  11.551
27906W        W96311  35.965   5.988   1.297
27907W        W96312  36.492  34.640  11.651
27908W        W96313  30.410   8.779  12.464
27909W        W96314   9.332  38.563  12.419
27910W        W96315   2.271   4.312  10.882
27911W        W96316  44.101   7.030  12.584
27912W        W96317  17.824  11.216   3.997
27913W        W96318  35.523   3.779  11.836
27914W        W96319   4.213  39.042   1.813
27915W        W96320   1.099  32.170   4.128
27916W        W96321   6.731  29.970  11.184
27917W        W96322  18.842  21.602   0.265
27918W        W96323  10.681  40.245   1.795
27919W        W96324  35.567  29.665   4.181
27920W        W96325  11.172  34.320   0.780
27921W        W96326  10.160  27.736  10.940
27922W        W96327  16.717  42.983   2.349
27923W        W96328   6.387  17.363  14.539
27924W        W96329  33.377  25.096   0.876
27925W        W96330  44.449  13.881  13.261
27926W        W96331   6.203  23.965  10.983
27927W        W96332   2.940  23.478  11.645
27928W        W96333  11.663  12.883   2.529
27929W        W96334  28.680   5.748   3.302
27930W        W96335   3.256  12.417  13.337
27931W        W96336  44.830  31.580  13.598
27932W        W96337   4.463  41.442  14.427
27933W        W96338  40.969   9.257   0.289
27934W        W96339  26.031  22.851   0.908
27935W        W96340  18.796  10.696  10.197
27936W        W96341  36.147  15.905  13.165
27937W        W96342   3.710   7.283  13.151
27938W        W96343   4.835  31.979  14.027
27939W        W96344  20.061  31.653  14.927
27940W        W96345  29.120  33.635   1.220
27941W        W96346  23.088  11.671   3.301
27942W        W96347  26.681  37.082  13.900
27943W        W96348  24.916   1.755  13.984
27944W        W96349  29.723  41.437   4.507
27945W        W96350  37.600  17.715   2.589
27946W        W96351  43.711  19.588  11.153
27947W        W96352   7.162  33.790   2.983
27948W        W96353  34.247  35.931  14.930
27949W        W96354   5.015  10.809  14.922
27950W        W96355  15.446   1.321  14.767
27951W        W96356  23.465  18.219  13.986
27952W        W96357  27.036   7.915   2.387
27953W        W96358  41.130  36.654  12.005
27954W        W96359  23.593  22.007  12.924
27955W        W96360  28.561  27.013  10.390
27956W        W96361  15.279   1.404  11.119
27957W        W96362  13.078   0.165  13.123
27958W        W96363   8.468  38.752  12.538
27959W        W96364   1.819  42.384   3.692
27960W        W96365  39.294  33.439  12.555
27961W        W96366  34.255   7.634  14.689
27962W        W96367  39.851   1.514  14.989
27963W        W96368  12.737  22.509  11.738
27964W        W96369  24.253  36.413   2.301
27965W        W96370  28.689  23.712   2.853
27966W        W96371  21.371  31.628  14.513
27967W        W96372   7.386   1.993   1.340
27968W        W96373   9.028  29.581  14.569
27969W        W96374  11.702  10.295  11.654
27970W        W96375  44.105   6.918   0.025
27971W        W96376  13.178   9.153  12.706
27972W        W96377  24.592  22.175   2.815
27973W        W96378   5.274  29.883   2.007
27974W        W96379   5.690  38.954   0.978
27975W        W96380  18.306  41.772  14.890
27976W        W96381  11.597  37.847   0.110
27977W        W96382  21.133   1.470   2.181
27978W        W96383   5.398  33.404  13.998
27979W        W96384   3.390   7.290  14.782
27980W        W96385  14.878  14.271  12.118
27981W        W96386  18.085   4.705  13.374
27982W        W96387   5.169  23.938   1.846
27983W        W96388   2.408  43.364  10.797
27984W        W96389  44.389  40.301  12.093
27985W        W96390  33.572  30.451   4.081
27986W        W96391   8.323  40.488   2.956
27987W        W96392  32.848   0.260   3.716
27988W        W96393   8.331  20.164   1.711
27989W        W96394  39.069   6.667   4.145
27990W        W96395  17.743  34.572  10.824
27991W        W96396   4.243  40.543  10.388
27992W        W96397   1.080  39.772  12.092
27993W        W96398  41.504  30.712   3.333
27994W        W96399  15.601  13.408   1.280
27995W        W96400   6.738  34.575   2.422
27996W        W96401  38.097  16.682  13.390
27997W        W96402  17.766  32.724   3.355
27998W        W96403  34.500  31.621   4.374
27999W        W96404  19.520  44.797  11.281
28000W        W96405   2.256  11.189  14.448
28001W        W96406  21.204  11.909   2.288
28002W        W96407   8.379  26.827  11.668
28003W        W96408   0.811  17.078  14.923
28004W        W96409  36.317   7.802  11.398
28005W        W96410   4.988  23.589  12.097
28006W        W96411   7.360  40.590  14.470
28007W        W96412   6.189  38.593  13.090
28008W        W96413  37.296  37.294   2.149
28009W        W96414  29.939  12.220  13.489
28010W        W96415  14.177  23.659  14.657
28011W        W96416  30.624   1.260   0.591
28012W        W96417  12.631  24.051  11.621
28013W        W96418  38.597  22.986   3.662
28014W        W96419  11.963  26.220   4.525
28015W        W96420  10.240  18.612   2.841
28016W        W96421  13.811  38.072  13.503
28017W        W96422  15.275   5.476   4.186
28018W        W96423  37.103  31.059   1.482
28019W        W96424  29.402   2.182   0.625
28020W        W96425   3.027  15.727   1.925
28021W        W96426  10.159  41.486   0.335
28022W        W96427  40.282  18.207   0.240
28023W        W96428   5.037   5.020  12.249
28024W        W96429  21.252   9.629   4.140
28025W        W96430   6.667  10.369  10.092
28026W        W96431   7.303  14.082  10.719
28027W        W96432  14.568  31.394  14.823
28028W        W96433  19.590  39.363  14.271
28029W        W96434  32.872   7.749  14.976
28030W        W96435  14.082   2.960  11.095
28031W        W96436   2.656   4.842  10.159
28032W        W96437  14.577  28.877   3.338
28033W        W96438  34.607  30.134   0.263
28034W        W96439  39.786  11.452  12.553
28035W        W96440  30.115  21.632   1.680
28036W        W96441  26.064  13.821   4.436
28037W        W96442  14.613  35.817  14.908
28038W        W96443  15.225   6.373  12.669
28039W        W96444   8.580  32.026  11.948
28040W        W96445  11.605  14.296   4.971
28041W        W96446  21.662  20.699  13.025
28042W        W96447  21.818  42.781   2.391
28043W        W96448   7.044  42.501  13.881
28044W        W96449  36.476   2.479  14.715
28045W        W96450   1.396  32.642   0.692
28046W        W96451  42.045   4.799  13.958
28047W        W96452  30.900  19.826  14.251
28048W        W96453  43.074  16.019  11.133
28049W        W96454  41.003  24.614   4.073
28050W        W96455  19.937  13.153  12.551
28051W        W96456  15.310  21.598   4.623
28052W        W96457   0.156   6.166   2.656
28053W        W96458  44.576  20.024  13.357
28054W        W96459  34.657  41.545  13.478
28055W        W96460  15.468   1.977   3.172
28056W        W96461  18.221  23.117   0.594
28057W        W96462  41.524  28.084  14.702
28058W        W96463  29.378  16.671   1.511
28059W        W96464   2.793  34.092  10.333
28060W        W96465   0.641  27.538   2.796
28061W        W96466  29.604  38.871   1.184
28062W        W96467  31.911  14.620   0.540
28063W        W96468   5.238  33.053  11.594
28064W        W96469  19.316  17.387   3.767
28065W        W96470   5.904  12.468   2.387
28066W        W96471  23.639   2.217  14.362
28067W        W96472   7.008  22.676   2.845
28068W        W96473  23.318  11.369   2.716
28069W        W96474  38.935  12.722   3.212
28070W        W96475   7.469   5.926   0.402
28071W        W96476   5.235   4.690   4.421
28072W        W96477  18.245  14.756   2.926
28073W        W96478  40.549   6.141  10.516
28074W        W96479  19.185  34.080  11.107
28075W        W96480  43.946  13.565  11.232
28076W        W96481  17.521  30.392   4.607
28077W        W96482  19.568  27.497  14.504
28078W        W96483  31.361  15.099   3.224
28079W        W96484  11.896   6.157   1.412
28080W        W96485  20.957  23.497   3.195
28081W        W96486   8.827   2.516  13.951
28082W        W96487   6.716   8.816   3.862
28083W        W96488  30.512  44.984   0.830
28084W        W96489  31.630  42.856  13.645
28085W        W96490  18.569  37.293   3.379
28086W        W96491  41.600  38.507  12.989
28087W        W96492  15.221  10.939  13.801
28088W        W96493   8.733  15.762  12.441
28089W        W96494   1.379  43.868   1.206
28090W        W96495  19.421  14.705   0.732
28091W        W96496  30.540  36.355  12.300
28092W        W96497  15.768   9.333   3.657
28093W        W96498  39.669   1.968   2.764
28094W        W96499   4.630  38.944  12.027
28095W        W96500  20.846  10.634   1.889
28096W        W96501   5.467   3.939  12.482
28097W        W96502  19.638  43.095   3.677
28098W        W96503  14.838   2.375   4.474
28099W        W96504  28.411   6.773   2.389
28100W        W96505  22.037  14.129  11.611
28101W        W96506  19.492   6.626   2.156
28102W        W96507  23.616  10.422   1.338
28103W        W96508  38.903  14.782   2.174
28104W        W96509  31.936   2.848   0.412
28105W        W96510   3.531  36.013   0.415
28106W        W96511  30.911  22.604  12.527
28107W        W96512   3.493  37.523  11.527
28108W        W96513  39.079  30.279   0.976
28109W        W96514  25.479  33.646  13.781
28110W        W96515  30.632  24.558  11.160
28111W        W96516   5.506  10.615  14.881
28112W        W96517  10.824  19.694   0.378
28113W        W96518  17.613  28.673   2.810
28114W        W96519  18.321   3.326  10.454
28115W        W96520  18.644  21.009   2.774
28116W        W96521   3.261  35.379  12.030
28117W        W96522   8.219  36.247   1.275
28118W        W96523  20.231  11.851  10.579
28119W        W96524   5.780   4.643  10.379
28120W        W96525  25.583   8.024   3.615
28121W        W96526  32.768  44.390   1.991
28122W        W96527  20.344  20.086   2.321
28123W        W96528   9.871  31.595   3.710
28124W        W96529  42.056  40.379   2.322
28125W        W96530  33.032  34.730   0.204
28126W        W96531  44.551   8.182   0.336
28127W        W96532  37.363  32.122   3.727
28128W        W96533   0.566  35.235   0.856
28129W        W96534   7.357  42.761   5.376
28130W        W96535  38.881  28.100   1.776
28131W        W96536   0.759   4.981  13.892
28132W        W96537  31.901  34.987   1.839
28133W        W96538  31.414  24.633  10.701
28134W        W96539  33.076  33.542  13.389
28135W        W96540  25.259   1.841  12.211
28136W        W96541  20.265   2.234  11.610
28137W        W96542  40.823  22.493  11.673
28138W        W96543  23.817   2.519  13.919
28139W        W96544  13.667  43.912   3.293
28140W        W96545  25.462   9.874  13.822
28141W        W96546  29.566   1.461  13.741
28142W        W96547   7.960   4.583   4.975
28143W        W96548  30.499  21.666  11.986
28144W        W96549  17.382  10.764  14.753
28145W        W96550  44.281  29.217   3.617
28146W        W96551  38.874  37.795   1.386
28147W        W96552   3.125  18.400  12.667
28148W        W96553  38.629   9.821  13.037
28149W        W96554   0.918  36.939   4.043
28150W        W96555   3.627  18.756   4.846
28151W        W96556  29.091  40.949  11.474
28152W        W96557  37.644  26.609   3.748
28153W        W96558  31.176   1.231  12.672
28154W        W96559  24.591  27.185   2.405
28155W        W96560  34.439  20.671   1.717
28156W        W96561  19.022  12.130   0.700
28157W        W96562   7.732  40.271  14.293
28158W        W96563  34.772   2.263  14.434
28159W        W96564  27.723   5.956   1.432
28160W        W96565  34.990  35.653   3.227
28161W        W96566  34.955  35.622   2.136
28162W        W96567   4.861  10.343  12.685
28163W        W96568   4.819   4.538  12.381
28164W        W96569  35.944  41.777  14.388
28165W        W96570  25.694   8.822   1.346
28166W        W96571  14.597   4.892  10.517
28167W        W96572  18.892  21.589  11.647
28168W        W96573  24.136  37.267   4.067
28169W        W96574  11.744  29.833   2.207
28170W        W96575  30.928  10.783  12.125
28171W        W96576  40.840   2.709   0.427
28172W        W96577  25.581  20.160   1.509
28173W        W96578  25.523  41.748  13.918
28174W        W96579  18.798  40.157  11.921
28175W        W96580  41.281  15.348   1.375
28176W        W96581   0.987  30.679  10.637
28177W        W96582  26.015   4.429   2.474
28178W        W96583  21.351   8.585   1.197
28179W        W96584  31.921  32.956  11.654
28180W        W96585  22.429  39.004   5.275
28181W        W96586  33.691  44.299   4.279
28182W        W96587   5.321   6.232   1.838
28183W        W96588  13.037  14.172  14.926
28184W        W96589  34.742  18.668   1.271
28185W        W96590  32.994  44.494   3.288
28186W        W96591  36.506  17.650   1.322
28187W        W96592  38.665  27.491   3.750
28188W        W96593  20.417  11.124   4.414
28189W        W96594  42.485   4.728   3.489
28190W        W96595  33.854  42.180   2.270
28191W        W96596  13.334  28.459  14.760
28192W        W96597  11.561  14.777   3.733
28193W        W96598  33.493  28.023  13.898
28194W        W96599  32.149   5.379   1.660
28195W        W96600  21.584   2.147  14.342
28196W        W96601  24.549  43.513  14.502
28197W        W96602  44.680  27.872  12.019
28198W        W96603   3.971  22.035  11.524
28199W        W96604   0.770   0.033  14.984
28200W        W96605  10.372  27.451   3.256
28201W        W96606  12.907  29.021  13.632
28202W        W96607   5.421   9.720   4.758
28203W        W96608  21.108   4.683  12.973
28204W        W96609  34.791  37.816   4.520
28205W        W96610  30.625  24.789   2.790
28206W        W96611  26.668  35.568   0.730
28207W        W96612   1.314  22.556   0.337
28208W        W96613  15.292  26.959   3.867
28209W        W96614  18.946   0.861  13.936
28210W        W96615  41.364  43.001  12.261
28211W        W96616  34.166   4.716   2.254
28212W        W96617   7.676  32.972  11.931
28213W        W96618   2.186  27.451  11.107
28214W        W96619  15.239  21.726   1.433
28215W        W96620  29.034  34.411   0.843
28216W        W96621  29.393  29.093   4.243
28217W        W96622   9.334  32.842   1.787
28218W        W96623  39.962  34.522   2.880
28219W        W96624  40.812  35.339  11.381
28220W        W96625   9.817  25.873   2.395
28221W        W96626  21.221  43.360   0.526
28222W        W96627  26.560   3.947  13.016
28223W        W96628  30.974  28.358   2.874
28224W        W96629  19.101   3.401   0.361
28225W        W96630  20.094  41.833  11.550
28226W        W96631   9.793  19.544   1.255
28227W        W96632  20.466  17.759   0.350
28228W        W96633  35.138  41.618  11.257
28229W        W96634  17.705  36.874  11.643
28230W        W96635  21.669   9.580   0.371
28231W        W96636  35.737  19.925  10.486
28232W        W96637  23.166  13.714   0.666
28233W        W96638   2.973   4.288   1.387
28234W        W96639   7.234  28.604   2.152
28235W        W96640  16.391  19.469  14.488
28236W        W96641   2.997  33.004   3.747
28237W        W96642  34.774  37.538   2.451
28238W        W96643  40.237  13.085   2.625
28239W        W96644  44.381  17.040  11.170
28240W        W96645   5.760  42.736   1.097
28241W        W96646   7.230  21.788   2.804
28242W        W96647  36.621  29.297  13.380
28243W        W96648   0.890  10.624  11.632
28244W        W96649  35.815  11.046   0.366
28245W        W96650   4.733  27.431   0.492
28246W        W96651  10.379  12.830  10.886
28247W        W96652  36.485  20.838  11.871
28248W        W96653  35.340  38.959   0.312
28249W        W96654  15.127  37.349   0.801
28250W        W96655  42.369  17.059   1.185
28251W        W96656  30.726   1.681   0.916
28252W        W96657  22.156  16.454   1.650
28253W        W96658  30.344  10.424  12.935
28254W        W96659  22.055  40.436   4.261
28255W        W96660   5.250  28.660   1.618
28256W        W96661  12.314  26.423  13.973
28257W        W96662   5.139  18.027   0.796
28258W        W96663   3.890   4.905  14.378
28259W        W96664  15.154  12.683   2.433
28260W        W96665  22.168  12.447   1.446
28261W        W96666  17.193  25.692  14.763
28262W        W96667  18.093   0.242   1.380
28263W        W96668   7.436  41.324   2.568
28264W        W96669  43.887  44.260   1.329
28265W        W96670  35.349  34.059   1.917
28266W        W96671  35.245  44.742  11.201
28267W        W96672   2.301  22.597   4.237
28268W        W96673  22.979  17.233   3.603
28269W        W96674   1.256  38.353   2.648
28270W        W96675  15.726  43.007   3.271
28271W        W96676  29.160  14.555   0.822
28272W        W96677  17.355  13.290   0.267
28273W        W96678   1.898  42.731  12.275
28274W        W96679  43.868  29.133   4.894
28275W        W96680   6.863   2.768   4.097
28276W        W96681  16.269  39.837  13.963
28277W        W96682  16.154  20.949  13.395
28278W        W96683  29.042  32.397   1.362
28279W        W96684  44.341  19.907   4.924
28280W        W96685  25.035  12.690   4.872
28281W        W96686  23.032  23.022   0.271
28282W        W96687  41.920   1.723  12.867
28283W        W96688  13.075   9.006   1.907
28284W        W96689   0.275   3.727  14.346
28285W        W96690   0.402  12.869  13.975
28286W        W96691  30.233  31.022  11.141
28287W        W96692  14.375  33.874  13.031
28288W        W96693  23.608  22.495   2.076
28289W        W96694  22.235   0.653   0.059
28290W        W96695  41.363   1.896   2.994
28291W        W96696  29.180  44.315   4.611
28292W        W96697   4.019  42.536  11.450
28293W        W96698  16.220  20.529  11.444
28294W        W96699  35.525  13.067   5.055
28295W        W96700  33.327  10.987  11.008
28296W        W96701  41.056  42.202  12.000
28297W        W96702  23.685  40.175  11.570
28298W        W96703  12.810  19.606   1.399
28299W        W96704   5.743  36.617   1.501
28300W        W96705  30.068  18.412   4.229
28301W        W96706  26.185   8.663  10.651
28302W        W96707  26.428  27.810  14.931
28303W        W96708  42.403   4.354  11.929
28304W        W96709  12.328   9.676   4.617
28305W        W96710  16.833  43.314  12.103
28306W        W96711   2.185  32.533   2.639
28307W        W96712  36.496  22.127   2.975
28308W        W96713  37.420   2.127   3.927
28309W        W96714  22.182  29.952  11.404
28310W        W96715  30.676   3.274   4.255
28311W        W96716  31.012  34.438   1.857
28312W        W96717  40.274  36.980  14.692
28313W        W96718  31.678  42.519  14.534
28314W        W96719  36.377  34.263   4.336
28315W        W96720   3.204  37.281   4.627
28316W        W96721  41.371  36.095  11.365
28317W        W96722  28.541  41.251  11.218
28318W        W96723   1.264  16.832  14.823
28319W        W96724   9.043  43.897  10.704
28320W        W96725   0.940   1.371  13.960
28321W        W96726  34.636  32.741  13.538
28322W        W96727  33.801   8.140  11.988
28323W        W96728  30.973  14.115  13.788
28324W        W96729  36.717   2.844   0.832
28325W        W96730  26.466   3.437   2.299
28326W        W96731  24.070  40.204  13.867
28327W        W96732  39.218   7.704  12.074
28328W        W96733  27.174  38.981  13.988
28329W        W96734   1.898   2.146  13.172
28330W        W96735   8.787  39.855   4.374
28331W        W96736   7.542  33.108  13.943
28332W        W96737  43.228  37.569  12.525
28333W        W96738   6.854  33.950  13.271
28334W        W96739  11.526   4.319  14.210
28335W        W96740  18.141   6.222  10.455
28336W        W96741  26.742   6.330  10.976
28337W        W96742  17.613  32.988  14.337
28338W        W96743  29.907  12.445   2.486
28339W        W96744  35.145   7.083  11.546
28340W        W96745  23.529   6.013   2.749
28341W        W96746  10.322   2.935   2.804
28342W        W96747  15.543   8.864  13.345
28343W        W96748   1.226  24.544   1.303
28344W        W96749   8.795  20.263  11.941
28345W        W96750   2.319   5.749   2.693
28346W        W96751  43.841  19.504   3.790
28347W        W96752  41.577  10.387   3.347
28348W        W96753  31.969  25.462   1.679
28349W        W96754  35.371   1.396   4.106
28350W        W96755  39.074  17.404  11.193
28351W        W96756  25.207  16.809   1.337
28352W        W96757  27.695  38.310  12.419
28353W        W96758  19.832  11.193  14.007
28354W        W96759  15.834  38.518   4.642
28355W        W96760  20.636  43.855  12.138
28356W        W96761   8.643  44.705  12.384
28357W        W96762  17.673   6.035  10.262
28358W        W96763  36.917  11.904   1.400
28359W        W96764  13.159   0.345   1.630
28360W        W96765  16.864   6.121   2.004
28361W        W96766   9.281  43.019   1.322
28362W        W96767  44.754   9.313   1.152
28363W        W96768  30.915  26.400   1.824
28364W        W96769   6.132  23.285   0.754
28365W        W96770  35.672  27.751  14.387
28366W        W96771  44.181  39.335   0.770
28367W        W96772  28.985   2.663  10.729
28368W        W96773   5.271  16.313   4.822
28369W        W96774  26.896  37.688  10.881
28370W        W96775  27.410  38.485   4.355
28371W        W96776  28.130   8.767  14.401
28372W        W96777   6.042  26.884   4.644
28373W        W96778  13.787  19.636  10.683
28374W        W96779   5.326   7.409   0.307
28375W        W96780  18.686  32.390   5.061
28376W        W96781  43.887  13.821   2.830
28377W        W96782  28.016   3.024   0.394
28378W        W96783  31.340  21.205   4.045
28379W        W96784  24.561   6.302  11.661
28380W        W96785  18.608  24.980  10.708
28381W        W96786  15.503  11.086  11.485
28382W        W96787  36.430  35.817  11.199
28383W        W96788  29.602   8.785  12.815
28384W        W96789   6.709  23.947  10.909
28385W        W96790  37.501  19.074  11.148
28386W        W96791  18.640  27.672   1.662
28387W        W96792  26.299  15.657   4.667
28388W        W96793  29.639  26.805  10.534
28389W        W96794   8.990  19.081   1.877
28390W        W96795   6.165  25.981   2.300
28391W        W96796  39.785   0.876   4.106
28392W        W96797  29.484  30.946   0.751
28393W        W96798   9.377  28.865   0.041
28394W        W96799  36.782  35.656   3.132
28395W        W96800   7.594  27.628   2.730
28396W        W96801  19.402  28.272  11.534
28397W        W96802  31.254  40.122   5.642
28398W        W96803   2.445  10.179   1.773
28399W        W96804  30.853  30.046   4.117
28400W        W96805  41.471  27.291   0.354
28401W        W96806  17.675   7.828  12.574
28402W        W96807  19.171   2.175  14.833
28403W        W96808  15.440  13.258   4.099
28404W        W96809   3.907  22.418   2.634
28405W        W96810   8.877  22.529  11.220
28406W        W96811  39.147  40.778  13.998
28407W        W96812  19.141  32.602   1.191
28408W        W96813  31.511  18.117  13.890
28409W        W96814   5.802  41.941  13.014
28410W        W96815  18.155  40.506   3.213
28411W        W96816   6.620  36.378  12.536
28412W        W96817  44.945  32.520   1.921
28413W        W96818  13.213  31.030  11.236
28414W        W96819  41.242  33.778  13.366
28415W        W96820  34.681   4.746   2.240
28416W        W96821   0.943   2.646   4.318
28417W        W96822   9.168   5.384  14.010
28418W        W96823  38.263  39.018   0.900
28419W        W96824  35.596   2.833  11.594
28420W        W96825   4.224  14.029   2.607
28421W        W96826  10.881  20.239   1.312
28422W        W96827  19.475  39.422   1.801
28423W        W96828  39.213  25.342  12.357
28424W        W96829  23.483   6.197  12.514
28425W        W96830   4.760   9.555  12.309
28426W        W96831  39.641   8.654   1.262
28427W        W96832  17.044  30.562  12.321
28428W        W96833  25.488  41.499   0.438
28429W        W96834   7.806   2.876  13.112
28430W        W96835  44.312  17.354   4.830
28431W        W96836  39.741  29.640   2.918
28432W        W96837  43.374  14.729  14.391
28433W        W96838   9.580  17.924   2.131
28434W        W96839  27.932  25.540   3.864
28435W        W96840  44.170   4.750  10.557
28436W        W96841  42.421   8.620  11.089
28437W        W96842  13.052  40.096   1.899
28438W        W96843  24.473  16.011  11.658
28439W        W96844  24.209  28.965  12.491
28440W        W96845  24.097  16.106  14.896
28441W        W96846   4.352  27.946   2.698
28442W        W96847  30.440  23.278   0.276
28443W        W96848  26.643   9.897  10.228
28444W        W96849  26.002   8.085  12.585
28445W        W96850  19.230  14.302  13.805
28446W        W96851  18.865  25.545   0.625
28447W        W96852  36.621  25.508   3.563
28448W        W96853  41.418   4.810  11.477
28449W        W96854  33.147  40.380  11.574
28450W        W96855  24.062  29.034   3.189
28451W        W96856  28.926  35.962   4.147
28452W        W96857  33.165   9.731  11.856
28453W        W96858  33.885   7.336  12.897
28454W        W96859  10.689  30.753  11.096
28455W        W96860   4.385  34.950  12.957
28456W        W96861  30.615   7.449   2.437
28457W        W96862   2.118  34.595   2.740
28458W        W96863  43.501   1.352  12.181
28459W        W96864  39.583  24.087  13.600
28460W        W96865  36.137  22.347   3.276
28461W        W96866  29.194  11.063  10.427
28462W        W96867   1.068  31.150   1.868
28463W        W96868  38.794  13.649  11.573
28464W        W96869  33.207  15.735  11.085
28465W        W96870   1.494  36.568  12.424
28466W        W96871  19.810  26.111  10.966
28467W        W96872  24.031   1.675   1.301
28468W        W96873  26.883  22.309   0.791
28469W        W96874  44.024  28.223   3.129
28470W        W96875  40.844  14.340   0.775
28471W        W96876  12.951  30.301  13.400
28472W        W96877  30.155   9.395   4.579
28473W        W96878  22.692  32.825  14.923
28474W        W96879  24.243  40.516   3.385
28475W        W96880  38.577  44.154  14.919
28476W        W96881   2.860   2.369   4.249
28477W        W96882  37.097  12.016   2.437
28478W        W96883  41.496  42.386   4.766
28479W        W96884   8.003  21.179  14.338
28480W        W96885  15.626  29.905   0.804
28481W        W96886  25.068  37.407   1.269
28482W        W96887  17.468   1.427  11.098
28483W        W96888   6.636   0.787   4.530
28484W        W96889   5.958  16.834  14.781
28485W        W96890  37.307   5.747  13.892
28486W        W96891  25.104   9.466   4.439
28487W        W96892  26.880  11.816   4.634
28488W        W96893   1.265   7.670  14.435
28489W        W96894  17.146  16.320  13.875
28490W        W96895  14.241  37.230   4.063
28491W        W96896  40.732  17.434  13.855
28492W        W96897   0.762  14.170  13.910
28493W        W96898   7.969  25.044   1.508
28494W        W96899   9.681  22.990   3.275
28495W        W96900  43.038  31.704   0.843
28496W        W96901  22.251  26.898   3.565
28497W        W96902  16.820  44.560   2.392
28498W        W96903  39.819  40.873  12.134
28499W        W96904  14.606   6.827   2.342
28500W        W96905   9.872  33.296   1.206
28501W        W96906  28.660  33.360   2.894
28502W        W96907  35.995   3.694  11.080
28503W        W96908  31.657  34.015  13.860
28504W        W96909  35.997  41.985  11.573
28505W        W96910  43.474  33.755  11.231
28506W        W96911   1.732  22.309   2.071
28507W        W96912  24.527  25.175   0.449
28508W        W96913  39.715  30.504   0.148
28509W        W96914  37.328  25.804  11.720
28510W        W96915  23.257   0.948   0.788
28511W        W96916   1.314   2.421  14.938
28512W        W96917  34.331  33.543  13.920
28513W        W96918  21.711  19.034  11.631
28514W        W96919   2.234  36.448   0.247
28515W        W96920  25.484  22.493  12.493
28516W        W96921  37.370  21.550  14.288
28517W        W96922  20.737  28.552  14.017
28518W        W96923  19.196  27.972   4.683
28519W        W96924  26.753  10.665  12.080
28520W        W96925  20.124  36.353  14.014
28521W        W96926   4.845  34.639   1.891
28522W        W96927  12.674  30.477   3.605
28523W        W96928  15.113  16.657  12.447
28524W        W96929   3.685  25.369   3.327
28525W        W96930   6.734  15.819  12.963
28526W        W96931  19.621  41.948   0.955
28527W        W96932  18.888  18.575  13.506
28528W        W96933   5.968  15.318  13.852
28529W        W96934   1.965  20.155  10.708
28530W        W96935   9.082  37.872   2.272
28531W        W96936  27.652  31.660   2.634
28532W        W96937   1.461   2.018  11.496
28533W        W96938   2.169  23.247   2.375
28534W        W96939   1.194  14.800   2.669
28535W        W96940  40.394  34.080  14.815
28536W        W96941   0.334   9.336   9.693
28537W        W96942  30.215  23.599  12.024
28538W        W96943  15.829   5.228   3.515
28539W        W96944  32.320  40.022   0.255
28540W        W96945  17.822  12.760  12.845
28541W        W96946  35.829  21.045   1.242
28542W        W96947  19.752  20.250   0.867
28543W        W96948  12.086  40.486   5.081
28544W        W96949  23.478   1.007  11.476
28545W        W96950  28.554   2.816  13.216
28546W        W96951  33.641   4.855   0.807
28547W        W96952  27.201  18.430  10.693
28548W        W96953  39.820  44.985   0.730
28549W        W96954  16.097  10.360  10.841
28550W        W96955  17.607  35.569  11.117
28551W        W96956  43.344  38.534  11.608
28552W        W96957  12.101   9.276   1.878
28553W        W96958  40.873   0.693  10.916
28554W        W96959  26.305  21.211  12.011
28555W        W96960  24.029  33.991  11.928
28556W        W96961  32.036  28.645   4.367
28557W        W96962   9.914   2.291   1.263
28558W        W96963   0.451  27.030  14.414
28559W        W96964   7.488  15.968  11.617
28560W        W96965  40.846  37.499   1.657
28561W        W96966  25.694  32.470   4.792
28562W        W96967  20.469  43.736   3.910
28563W        W96968   4.306   4.697   2.710
28564W        W96969  21.594  36.126  13.919
28565W        W96970  20.985  16.213   2.207
28566W        W96971  11.917   7.292  11.166
28567W        W96972  15.125  43.843   4.876
28568W        W96973  31.014   3.683   4.709
28569W        W96974  19.564  22.293  14.771
28570W        W96975  24.416  33.640   2.734
28571W        W96976  44.565  22.639   3.023
28572W        W96977  21.062   4.539   1.360
28573W        W96978  41.276  33.663   3.140
28574W        W96979  32.504  20.141   1.209
28575W        W96980  28.920  30.886   4.017
28576W        W96981  35.992  31.788   3.863
28577W        W96982  18.966  37.441   0.180
28578W        W96983  30.514  14.736   0.361
28579W        W96984  17.864  21.991  14.450
28580W        W96985  17.735  40.311  13.132
28581W        W96986  28.922  34.144  10.754
28582W        W96987  13.567  37.174   0.856
28583W        W96988  17.632  35.627   3.617
28584W        W96989  44.378  19.730  13.761
28585W        W96990   5.979  15.119   1.118
28586W        W96991  40.083  38.502  12.304
28587W        W96992  27.052  41.603  10.182
28588W        W96993  30.114   7.355  12.208
28589W        W96994  27.048   7.629  10.944
28590W        W96995  15.718  33.933  12.214
28591W        W96996   8.941  28.383   3.790
28592W        W96997  26.246  21.838   4.895
28593W        W96998   6.328   0.317   1.654
28594W        W96999  30.354  21.544   4.570
28595W        W97000  25.066   3.787   4.660
28596W        W97001  28.925  40.442   1.223
28597W        W97002  37.973  21.159   2.852
28598W        W97003  39.563   0.063   4.568
28599W        W97004  35.416  22.238  11.532
28600W        W97005  39.036  15.241  12.099
28601W        W97006  26.203  24.109   4.889
28602W        W97007  23.192   7.824   5.026
28603W        W97008   1.975  43.378   3.691
28604W        W97009  15.133  11.672  12.069
28605W        W97010  10.629  10.685  13.485
28606W        W97011  18.113   8.183  12.668
28607W        W97012  16.274   4.215  12.523
28608W        W97013  19.509  17.204   2.341
28609W        W97014  37.228  12.136  13.769
28610W        W97015  41.139   1.754  14.486
28611W        W97016  10.062  40.511  12.949
28612W        W97017  10.078   7.878  12.896
28613W        W97018  39.127  41.614   1.304
28614W        W97019  41.086  10.724   4.469
28615W        W97020  22.045  32.902   4.448
28616W        W97021  11.586  15.316   4.976
28617W        W97022  26.505  10.483   3.735
28618W        W97023  30.206  35.072   0.404
28619W        W97024  43.851  36.397  12.047
28620W        W97025   4.552  16.198   4.244
28621W        W97026  15.357   5.809   1.766
28622W        W97027  41.024  29.681  13.471
28623W        W97028   7.913   6.292  14.164
28624W        W97029  12.819  22.271   2.279
28625W        W97030  38.861   2.857   3.637
28626W        W97031  15.125  38.012  13.917
28627W        W97032  19.431  38.340  11.629
28628W        W97033  39.624  25.063   2.951
28629W        W97034   5.251  27.719  11.115
28630W        W97035   4.651   7.277  10.716
28631W        W97036  31.120  43.785   4.815
28632W        W97037  28.983   6.707  13.328
28633W        W97038  28.692  16.560  13.864
28634W        W97039  25.706  25.024   2.117
28635W        W97040  22.228  12.145   2.304
28636W        W97041  32.528  23.618  14.894
28637W        W97042  12.520  30.505   2.712
28638W        W97043  13.814  11.506   0.536
28639W        W97044  42.470  41.946  10.705
28640W        W97045  12.238  39.046   4.398
28641W        W97046  19.031   9.743   1.742
28642W        W97047  34.622  11.954   1.285
28643W        W97048   0.999   8.448   0.347
28644W        W97049   8.835   9.395   4.201
28645W        W97050  14.698  31.493   1.678
28646W        W97051  22.782   9.689  12.379
28647W        W97052   7.889  39.898   4.179
28648W        W97053  12.338  17.335   3.544
28649W        W97054  29.495  40.168   4.105
28650W        W97055   4.122   8.180  13.595
28651W        W97056  25.436   6.854   0.064
28652W        W97057  11.098   2.181  10.277
28653W        W97058  34.985  35.124   3.557
28654W        W97059  26.451  41.091   1.884
28655W        W97060   7.467   0.326  12.074
28656W        W97061  44.845  23.886   3.346
28657W        W97062  23.279   0.686   1.913
28658W        W97063   4.754  29.122   3.250
28659W        W97064  39.892  29.903  13.040
28660W        W97065  13.526  15.560  13.429
28661W        W97066  43.504   9.957   1.164
28662W        W97067  10.217  39.300  11.606
28663W        W97068   0.266   2.445  10.788
28664W        W97069  31.068  38.893   1.412
28665W        W97070  17.976   7.808   3.259
28666W        W97071  18.588  32.911   3.719
28667W        W97072  28.207  37.565   3.662
28668W        W97073  31.363  32.085  14.409
28669W        W97074  34.385  39.105   3.531
28670W        W97075  28.934  42.867  11.984
28671W        W97076  20.653  38.341   2.383
28672W        W97077  42.024  40.647  13.028
28673W        W97078   7.747  44.341  10.739
28674W        W97079  38.769   7.647  13.904
28675W        W97080  31.146  23.259  13.533
28676W        W97081   7.500  44.780   3.703
28677W        W97082  27.830  37.948   0.832
28678W        W97083  10.632  13.883   2.278
28679W        W97084  23.083  12.342   4.808
28680W        W97085  28.784   3.358   3.500
28681W        W97086  38.097   3.520   3.601
28682W        W97087  15.568  13.733  13.536
28683W        W97088  17.608  34.003   2.769
28684W        W97089  28.676  20.769   3.756
28685W        W97090  36.524  39.493   1.146
28686W        W97091  23.051  43.351  14.919
28687W        W97092  41.847  11.306  14.836
28688W        W97093   2.272  26.059   1.982
28689W        W97094  13.809  24.261   0.140
28690W        W97095  41.710  34.923   3.186
28691W        W97096   4.611  16.532   0.395
28692W        W97097  31.460  40.541  14.568
28693W        W97098  44.314  16.256  10.693
28694W        W97099  22.069   1.778   3.622
28695W        W97100  20.192  35.254  12.873
28696W        W97101  10.723  23.263  14.033
28697W        W97102  40.883  42.661  12.151
28698W        W97103  19.709  19.821   1.807
28699W        W97104  37.945  35.855   0.932
28700W        W97105  42.748   0.352   3.602
28701W        W97106  30.854  37.862  11.516
28702W        W97107  38.052  13.426  12.544
28703W        W97108  27.437  17.983   1.645
28704W        W97109  31.106   9.692   2.723
28705W        W97110  42.019  14.968  13.295
28706W        W97111   9.364   6.893  11.618
28707W        W97112  37.252  31.743   4.550
28708W        W97113  14.289  12.782   3.953
28709W        W97114  26.140  27.815  12.369
28710W        W97115  41.795  41.348   4.977
28711W        W97116  33.933   9.246  10.711
28712W        W97117  25.100  34.899  11.121
28713W        W97118   4.973   7.730   2.948
28714W        W97119  42.467  22.264   1.411
28715W        W97120   0.505  36.549  10.994
28716W        W97121  42.125  28.655   0.563
28717W        W97122  36.303  25.408   3.164
28718W        W97123  18.702   2.185  10.971
28719W        W97124  13.420   8.633   0.511
28720W        W97125  27.642  14.156  11.513
28721W        W97126  37.803  37.792   4.563
28722W        W97127   6.161   2.329   4.121
28723W        W97128  29.571  25.361  14.892
28724W        W97129  27.509   8.416  11.977
28725W        W97130  32.839   4.927   2.809
28726W        W97131  43.505  40.339   0.331
28727W        W97132  30.112  21.503  14.029
28728W        W97133   6.535  42.611  12.084
28729W        W97134   4.836   9.116   4.623
28730W        W97135   7.282  22.706  10.480
28731W        W97136  39.935   4.993  13.744
28732W        W97137  31.492   9.109   4.430
28733W        W97138  29.830  43.754  13.324
28734W        W97139  15.799  34.999  12.611
28735W        W97140  25.535  41.492   3.236
28736W        W97141  20.841  15.133  14.994
28737W        W97142  39.627   8.137   2.759
28738W        W97143  27.538  20.377   2.412
28739W        W97144  23.388  14.288   2.639
28740W        W97145  27.579  14.049  11.011
28741W        W97146  17.944  28.622   1.919
28742W        W97147  14.822  42.797   1.947
28743W        W97148  12.414  15.286   4.622
28744W        W97149  18.983  44.848  13.510
28745W        W97150  13.261  21.006  14.326
28746W        W97151  13.024  40.836   3.987
28747W        W97152  26.502  27.111   0.402
28748W        W97153  38.897   7.270   0.759
28749W        W97154  22.042  29.066   2.353
28750W        W97155  39.383  29.501  11.534
28751W        W97156  24.907   0.520  14.830
28752W        W97157  27.584  31.393  13.258
28753W        W97158  23.525  22.844   0.214
28754W        W97159   3.459  10.860  14.457
28755W        W97160  35.283  19.098  14.873
28756W        W97161  38.320  10.365   0.313
28757W        W97162  14.225   8.762  12.110
28758W        W97163  19.314  36.526   2.970
28759W        W97164  24.580   5.031   2.330
28760W        W97165  10.524  43.002  14.480
28761W        W97166  42.609   7.051  13.678
28762W        W97167  17.120  36.192   1.735
28763W        W97168  18.729   0.691  12.509
28764W        W97169   6.190  27.218   0.257
28765W        W97170  13.320  18.250   4.729
28766W        W97171   9.613  40.295  12.813
28767W        W97172  24.478  17.718  10.965
28768W        W97173   4.875  21.992  10.685
28769W        W97174   3.417  40.048  12.979
28770W        W97175   7.535  13.653   2.342
28771W        W97176  43.964   2.934  14.780
28772W        W97177   3.914  21.255  13.847
28773W        W97178  37.523  15.913  14.236
28774W        W97179  13.195  43.969  13.880
28775W        W97180   2.112  22.931   0.237
28776W        W97181  15.060   7.033  13.446
28777W        W97182  38.946  14.398  11.136
28778W        W97183  17.136  19.323  13.488
28779W        W97184  17.660  17.739   3.390
28780W        W97185  44.868  22.839   4.431
28781W        W97186  39.574  11.365   4.100
28782W        W97187  25.459  13.344   2.373
28783W        W97188   5.793  43.673   3.202
28784W        W97189  42.837   5.283   1.388
28785W        W97190  13.774  26.626  14.074
28786W        W97191  19.571  37.473   1.970
28787W        W97192  41.055  19.544  11.886
28788W        W97193  41.785   0.915   1.338
28789W        W97194  15.576  24.565  11.592
28790W        W97195  27.750  19.149  13.800
28791W        W97196  44.225  28.965   0.527
28792W        W97197  38.012  40.849   0.876
28793W        W97198  31.579  33.022   0.716
28794W        W97199  33.494  25.735  14.386
28795W        W97200  26.915  19.970   1.347
28796W        W97201  22.501   6.992   3.072
28797W        W97202   9.285  18.156  10.576
28798W        W97203  28.259  26.659  14.815
28799W        W97204  40.429  32.048   3.066
28800W        W97205   9.491   7.230   2.588
28801W        W97206   4.471  40.129   2.839
28802W        W97207  38.971  30.189   2.877
28803W        W97208  25.356  38.882  10.684
28804W        W97209  12.596  10.938  13.410
28805W        W97210   7.585  37.375   0.440
28806W        W97211   4.733  23.521   0.351
28807W        W97212  35.875  30.483  14.414
28808W        W97213  11.609   4.981  13.530
28809W        W97214  23.759  29.133  10.705
28810W        W97215   0.236  42.955   1.183
28811W        W97216  17.718  23.206   4.192
28812W        W97217   6.433  11.148   1.876
28813W        W97218  21.639  38.532  14.022
28814W        W97219  23.898  21.701   1.350
28815W        W97220  28.018  15.320  11.211
28816W        W97221  10.356  36.094  14.908
28817W        W97222  14.041  11.757  11.940
28818W        W97223   0.737  17.913   3.278
28819W        W97224  43.474  25.165   3.213
28820W        W97225  33.864  35.893  11.597
28821W        W97226  32.373  31.590   2.814
28822W        W97227   5.708  26.983  11.161
28823W        W97228   6.398  17.668   1.993
28824W        W97229   2.654  15.862   1.113
28825W        W97230  35.959   6.013   3.563
28826W        W97231  34.377  10.796   4.373
28827W        W97232  29.901  35.158   2.603
28828W        W97233  35.991  25.703  12.346
28829W        W97234  33.718  17.525   1.515
28830W        W97235  33.744  30.940  11.194
28831W        W97236  42.311  25.308  13.648
28832W        W97237  21.310   6.376   3.073
28833W        W97238  18.551   6.282  13.979
28834W        W97239  38.789  25.715   4.237
28835W        W97240  25.551  14.259   1.627
28836W        W97241   0.221  11.296  13.970
28837W        W97242  12.223   8.335  11.531
28838W        W97243   1.428   6.152   2.373
28839W        W97244  38.102  25.020  14.709
28840W        W97245  13.265  24.461   1.265
28841W        W97246  36.377  44.710  14.898
28842W        W97247  34.384   2.505   2.713
28843W        W97248  20.222  14.102   2.215
28844W        W97249  33.645  38.449  12.423
28845W        W97250  31.892   9.300   1.957
28846W        W97251  13.564  29.580  13.017
28847W        W97252   4.028  12.654  11.767
28848W        W97253  18.644  28.459  12.422
28849W        W97254  12.176  25.719   2.104
28850W        W97255  24.458  32.910  11.880
28851W        W97256  16.672  22.072  13.045
28852W        W97257  12.980  25.655   2.781
28853W        W97258  17.483  26.412  12.933
28854W        W97259  24.498   3.179  14.546
28855W        W97260  18.299   2.998  10.849
28856W        W97261   5.407   3.070  11.957
28857W        W97262  26.356  41.752  13.102
28858W        W97263   2.378   6.933   1.836
28859W        W97264  16.742  22.055   4.114
28860W        W97265   6.693   3.974  11.464
28861W        W97266  44.135  17.039  12.452
28862W        W97267  19.859  44.483  10.468
28863W        W97268  11.228  36.779   3.211
28864W        W97269  13.367  41.112  11.118
28865W        W97270  38.753  38.900   0.694
28866W        W97271   9.667  32.838   0.404
28867W        W97272  35.075   5.231   4.386
28868W        W97273  27.565  20.182   1.922
28869W        W97274  20.274  17.695   1.261
28870W        W97275  14.614  27.042   3.235
28871W        W97276  12.084  10.280  11.319
28872W        W97277  24.412  33.451   5.008
28873W        W97278  31.180  38.397  10.149
28874W        W97279   0.205  26.687   4.167
28875W        W97280   2.744  36.181  11.682
28876W        W97281  28.918   5.630  11.475
28877W        W97282   2.379  26.648  11.838
28878W        W97283  19.095  21.004  10.177
28879W        W97284  20.985   9.634  10.650
28880W        W97285  11.579  17.297   1.760
28881W        W97286  40.594  26.956   0.548
28882W        W97287  42.569  30.487  12.355
28883W        W97288   5.985  44.588   1.963
28884W        W97289   5.459  20.744  13.358
28885W        W97290  43.538   5.294   1.912
28886W        W97291  36.234   6.738  12.651
28887W        W97292  17.012  19.670   1.748
28888W        W97293  39.953  41.610   2.789
28889W        W97294  40.339  16.543  10.613
28890W        W97295   4.783  40.365   0.522
28891W        W97296   3.282   5.404  11.611
28892W        W97297  27.950  32.677  10.644
28893W        W97298  39.838  37.779  13.880
28894W        W97299  28.651  13.648   2.920
28895W        W97300  13.259  17.222   5.144
28896W        W97301  21.749  42.958  12.653
28897W        W97302  19.214  24.745  13.975
28898W        W97303  16.729  43.723   3.751
28899W        W97304  20.598  25.896  11.634
28900W        W97305   1.141  26.535   4.224
28901W        W97306   4.847  16.527  11.604
28902W        W97307  43.206  18.993   0.432
28903W        W97308  14.218  41.798  12.001
28904W        W97309  30.207  25.609   2.871
28905W        W97310  16.330  38.950   2.375
28906W        W97311  30.355  26.518   0.562
28907W        W97312  11.408  43.800  13.450
28908W        W97313  12.278  23.028   4.460
28909W        W97314   1.955  44.759  12.626
28910W        W97315  39.932   3.017  14.984
28911W        W97316  19.077  24.930  11.152
28912W        W97317  36.864  34.922   1.878
28913W        W97318  36.565  29.586   3.913
28914W        W97319  19.665  29.123   2.426
28915W        W97320  14.528   7.855   0.839
28916W        W97321  22.602  36.595   4.676
28917W        W97322  11.268  42.890   0.721
28918W        W97323   0.211  29.931  10.646
28919W        W97324   2.038  40.972   0.899
28920W        W97325  31.184   0.875   3.101
28921W        W97326  20.757   3.890  11.288
28922W        W97327   7.829  32.002   2.328
28923W        W97328  40.807   1.770  12.118
28924W        W97329  10.765  32.103   0.348
28925W        W97330  24.118  14.086   1.149
28926W        W97331  19.240  43.332  13.026
28927W        W97332  21.130  39.918   0.448
28928W        W97333  19.522   6.665   2.674
28929W        W97334  21.567  44.841   4.485
28930W        W97335  18.850  13.756  13.180
28931W        W97336  24.677  15.883  12.509
28932W        W97337  32.536  10.449  14.093
28933W        W97338  41.473  30.597   2.735
28934W        W97339   8.341   4.667   3.192
28935W        W97340  22.273   3.374   3.315
28936W        W97341  30.526  44.986  14.317
28937W        W97342   5.572  29.222   1.507
28938W        W97343   2.833  26.015   3.472
28939W        W97344  39.049  12.830  11.585
28940W        W97345  37.067  39.651   2.181
28941W        W97346  25.866  23.725  13.465
28942W        W97347  25.580  15.777  13.548
28943W        W97348   7.277   8.418   1.677
28944W        W97349   5.256  30.894  13.881
28945W        W97350  41.578   3.307  14.879
28946W        W97351   3.325  17.068   0.739
28947W        W97352  36.944  35.374   1.632
28948W        W97353   1.635  10.724  13.413
28949W        W97354  38.655  40.014  10.331
28950W        W97355  13.217  17.465   0.582
28951W        W97356  22.583  15.861  11.488
28952W        W97357  33.920   6.265  12.978
28953W        W97358   0.392  23.198   3.158
28954W        W97359  36.075  23.783   4.155
28955W        W97360   1.791   5.209  12.042
28956W        W97361  16.555   9.211   2.333
28957W        W97362  36.358  31.383  11.231
28958W        W97363  12.001   8.150  14.364
28959W        W97364  35.944  12.353   2.103
28960W        W97365   9.478  35.089   2.246
28961W        W97366  31.109  32.123  10.668
28962W        W97367  36.408   9.765  12.044
28963W        W97368   7.627   6.795   3.975
28964W        W97369  40.165  12.312   0.723
28965W        W97370   6.610  19.840   3.318
28966W        W97371   3.929   0.221  12.532
28967W        W97372  41.485  24.263   2.186
28968W        W97373   9.893  23.754   4.227
28969W        W97374   1.506  27.215   1.276
28970W        W97375  33.623  27.114   1.407
28971W        W97376  34.908  22.831  11.004
28972W        W97377   0.351   6.366  12.568
28973W        W97378   6.977  21.344   2.669
28974W        W97379  19.272  35.326  12.880
28975W        W97380   1.296   7.716  11.274
28976W        W97381   5.293  35.379   4.165
28977W        W97382  14.527  23.210   2.929
28978W        W97383  19.336  23.683  11.916
28979W        W97384  20.266  31.041   2.802
28980W        W97385  40.718  34.914  12.768
28981W        W97386  17.174  24.024   2.710
28982W        W97387  41.963  25.617  12.028
28983W        W97388   2.305  19.106  11.743
28984W        W97389  23.034  38.398   2.871
28985W        W97390  29.664   0.474  13.912
28986W        W97391  13.278  39.528   3.709
28987W        W97392   0.765  35.629  10.656
28988W        W97393  38.854  15.027   4.401
28989W        W97394  23.363  42.686  14.300
28990W        W97395  36.589  29.204  14.377
28991W        W97396  41.458  28.094  13.741
28992W        W97397  21.308  17.725  13.092
28993W        W97398  11.277  27.942  11.724
28994W        W97399   7.185  24.091   5.064
28995W        W97400   0.779   6.274   0.922
28996W        W97401   2.635  24.125  10.523
28997W        W97402   4.952  32.667  11.439
28998W        W97403  38.327  18.264  12.614
28999W        W97404   1.341  20.695   2.791
29000W        W97405  39.271  16.778   1.597
29001W        W97406  10.372  44.202   2.178
29002W        W97407  26.519  25.671   0.239
29003W        W97408  27.103  18.843  13.418
29004W        W97409  15.485  41.890   1.795
29005W        W97410  10.332   3.839  13.425
29006W        W97411  43.287  15.476  13.946
29007W        W97412  35.342  25.061  14.855
29008W        W97413   3.168  29.716   2.836
29009W        W97414  42.275   8.165   0.946
29010W        W97415  43.859  19.680   0.493
29011W        W97416   4.855  44.561   3.843
29012W        W97417  24.217   7.770  12.000
29013W        W97418   0.898  21.197  14.888
29014W        W97419  36.870   3.730   0.449
29015W        W97420  38.023  34.870  12.539
29016W        W97421  18.635  21.990  10.244
29017W        W97422  39.877   7.287  10.507
29018W        W97423  15.516  22.286  14.840
29019W        W97424  39.606   4.818   2.414
29020W        W97425  30.327  25.134   3.030
29021W        W97426  17.341  23.049  12.538
29022W        W97427  33.107  31.588   2.147
29023W        W97428  14.624  34.455   1.784
29024W        W97429   6.704  43.837  12.363
29025W        W97430  31.575  31.016   2.750
29026W        W97431  23.208   5.734   1.952
29027W        W97432  28.136  28.470   4.232
29028W        W97433  12.182  35.070  10.530
29029W        W97434   2.899  10.117  11.958
29030W        W97435  29.954  37.926   2.349
29031W        W97436   7.838  41.481  13.716
29032W        W97437   7.444  29.481   3.752
29033W        W97438  33.644  34.834   3.811
29034W        W97439  23.166  18.107   0.027
29035W        W97440  14.573  30.968   4.334
29036W        W97441   0.487  25.045  10.565
29037W        W97442  17.762  13.421  13.408
29038W        W97443   5.976  24.414  11.106
29039W        W97444  30.484   0.645   3.569
29040W        W97445  23.621  21.081   2.126
29041W        W97446  19.623  36.620   0.311
29042W        W97447  36.443   4.111   2.461
29043W        W97448   6.002  15.483   3.294
29044W        W97449  44.861  11.490  11.896
29045W        W97450   0.910  33.307   1.371
29046W        W97451  43.362  37.287  11.948
29047W        W97452  12.345  18.797   0.928
29048W        W97453  29.841  26.156  11.264
29049W        W97454  25.020  18.239  10.344
29050W        W97455   3.436   7.298   1.281
29051W        W97456  40.985  40.784  13.742
29052W        W97457   2.174  16.821   4.163
29053W        W97458  22.238   0.452  11.233
29054W        W97459   6.259  26.474  11.976
29055W        W97460  21.591  21.123  14.953
29056W        W97461  30.707  27.240   0.871
29057W        W97462  16.111  17.863   1.878
29058W        W97463  10.781  39.638   4.118
29059W        W97464  24.670  35.623   1.455
29060W        W97465  12.612  20.189  14.411
29061W        W97466   5.483  29.661   2.422
29062W        W97467  15.819  14.193  10.377
29063W        W97468   9.544  36.013  10.385
29064W        W97469  36.452  23.742   0.950
29065W        W97470  43.891  18.046  12.174
29066W        W97471   4.627  38.399   1.175
29067W        W97472  24.720  17.329   4.176
29068W        W97473  38.480  35.581  14.934
29069W        W97474  23.952   1.485   3.870
29070W        W97475  39.345  29.152  10.709
29071W        W97476  16.233  35.036  10.200
29072W        W97477  43.559  37.630   0.787
29073W        W97478   6.321  27.349  14.771
29074W        W97479  32.479  35.540   3.182
29075W        W97480  37.585  24.893  11.174
29076W        W97481  41.274  31.924   3.656
29077W        W97482   6.584  18.740   0.262
29078W        W97483  14.573  29.423   3.317
29079W        W97484  32.170  36.606   2.151
29080W        W97485  32.007   2.058  11.376
29081W        W97486  10.345  18.584   5.035
29082W        W97487  13.357  10.524  11.367
29083W        W97488  15.812  23.138   4.270
29084W        W97489  38.619  10.137  12.534
29085W        W97490  20.743  37.391   3.746
29086W        W97491   0.308  22.097  10.553
29087W        W97492  17.261   6.631   1.160
29088W        W97493  37.446  20.135  11.672
29089W        W97494   8.725  17.353  12.875
29090W        W97495  43.263   8.059  14.789
29091W        W97496  27.549  42.789  11.844
29092W        W97497  30.583  18.184  10.975
29093W        W97498  20.565  36.373  14.355
29094W        W97499   1.961  34.359   3.367
29095W        W97500  42.114  41.120   1.947
29096W        W97501  18.069  17.397  14.155
29097W        W97502  13.005  28.872  14.963
29098W        W97503  11.988  24.253  13.381
29099W        W97504   7.300  11.808   4.110
29100W        W97505   8.638  20.307  11.315
29101W        W97506  18.324  32.342   4.475
29102W        W97507  23.593  37.934   3.190
29103W        W97508  36.957   4.237   1.145
29104W        W97509   1.473  13.683  11.902
29105W        W97510   0.978  44.994  10.766
29106W        W97511  16.283  16.982   0.687
29107W        W97512  13.391  44.362  10.669
29108W        W97513   8.376  11.775  14.857
29109W        W97514  29.752  17.411  13.916
29110W        W97515   7.705   7.734   4.574
29111W        W97516  41.638   2.984  11.180
29112W        W97517  26.602  10.248   4.990
29113W        W97518  29.091  29.489  13.354
29114W        W97519   3.199  23.128   4.727
29115W        W97520   3.022  12.359   0.231
29116W        W97521  24.644  22.163   1.327
29117W        W97522  33.673   6.201  11.968
29118W        W97523  25.577  15.787   1.847
29119W        W97524  22.492   6.648   0.015
29120W        W97525   7.885  13.095  12.024
29121W        W97526  16.512  22.330  10.181
29122W        W97527  22.723  24.727  10.686
29123W        W97528  10.303  42.862   1.880
29124W        W97529  29.595  10.287   4.800
29125W        W97530  11.065   7.278  11.415
29126W        W97531  28.093  10.414  11.433
29127W        W97532  44.425   2.431  14.016
29128W        W97533  43.932  16.800  12.010
29129W        W97534  44.663  41.037  11.327
29130W        W97535  26.645   0.336   4.478
29131W        W97536   3.918   2.157   2.511
29132W        W97537  25.641  12.116  12.989
29133W        W97538  18.484   3.197   1.645
29134W        W97539  21.438  31.684  11.211
29135W        W97540  13.324  17.139   1.892
29136W        W97541  12.193  17.640   2.183
29137W        W97542  32.920  19.050   1.458
29138W        W97543  32.568  25.017   3.382
29139W        W97544  14.839   6.572  12.964
29140W        W97545  21.958  39.290  13.154
29141W        W97546   5.228  12.270  12.499
29142W        W97547  35.154   4.185  10.696
29143W        W97548  14.546  30.027   3.726
29144W        W97549  41.777  22.689  12.019
29145W        W97550  17.775  31.384  10.031
29146W        W97551  41.610  18.144   3.023
29147W        W97552  10.301  30.346   1.302
29148W        W97553  15.767   6.145   1.319
29149W        W97554  36.314  21.162   1.316
29150W        W97555  14.481  23.953   4.801
29151W        W97556  32.108  11.699   2.223
29152W        W97557  16.999   4.932   0.022
29153W        W97558  15.391  19.746   1.329
29154W        W97559  33.125  43.389  13.428
29155W        W97560  41.869  16.590   2.222
29156W        W97561  10.440  27.956   0.355
29157W        W97562   9.792  26.724  13.188
29158W        W97563  37.021  13.822  13.921
29159W        W97564  44.920  28.096   2.348
29160W        W97565  28.616  26.669   0.182
29161W        W97566  23.523  22.082  14.738
29162W        W97567   7.734  21.047   4.257
29163W        W97568  39.943  14.789   1.164
29164W        W97569   8.923  21.109  11.880
29165W        W97570   4.423  14.659   1.894
29166W        W97571  41.081  37.115  14.075
29167W        W97572   6.244  15.570  10.512
29168W        W97573  10.839  42.985   2.653
29169W        W97574  38.337  31.500   1.750
29170W        W97575   4.886   9.248  11.875
29171W        W97576  42.299  44.171  11.057
29172W        W97577  38.300  15.554   0.674
29173W        W97578  32.779  44.436   1.075
29174W        W97579   8.301  33.712  14.361
29175W        W97580  38.397   3.027  11.947
29176W        W97581  43.511  38.099   1.968
29177W        W97582  10.254  31.203  13.544
29178W        W97583  15.421   2.995  10.269
29179W        W97584   3.277  30.544   0.944
29180W        W97585  15.047  21.569   0.512
29181W        W97586  19.651   0.419   4.568
29182W        W97587  32.300  21.230   4.267
29183W        W97588  20.197  16.009   4.199
29184W        W97589  28.518  39.908  14.824
29185W        W97590  19.730  34.532  11.958
29186W        W97591  42.756   6.630   2.406
29187W        W97592  36.451  42.773  13.255
29188W        W97593   1.087  42.146  14.486
29189W        W97594  33.831   1.398   0.025
29190W        W97595   4.198  43.463   4.320
29191W        W97596  13.364  10.350   4.526
29192W        W97597  41.050  11.799   1.868
29193W        W97598  16.314  19.671   1.316
29194W        W97599   7.607  43.994  13.896
29195W        W97600  38.018  42.123  14.972
29196W        W97601  32.872  24.506  13.502
29197W        W97602  33.026  23.027  13.049
29198W        W97603  19.715   2.672   0.848
29199W        W97604  44.931   3.466  13.075
29200W        W97605  14.283  10.366   2.533
29201W        W97606  43.721  44.425   0.414
29202W        W97607  23.792  43.144   3.650
29203W        W97608  29.802  14.707   4.137
29204W        W97609  36.734   8.835   3.768
29205W        W97610  12.260  28.247   1.317
29206W        W97611  27.700  14.031   2.191
29207W        W97612  30.506  42.921   3.791
29208W        W97613  44.714  42.407  12.439
29209W        W97614   1.517  26.722  12.862
29210W        W97615  23.907   6.652   3.786
29211W        W97616  12.163  21.288  12.939
29212W        W97617  33.831  36.598   2.198
29213W        W97618  32.487  32.173  14.945
29214W        W97619  22.041   6.369   1.853
29215W        W97620  17.364  43.015  12.879
29216W        W97621  42.944  41.992  12.588
29217W        W97622  31.501  35.176  14.757
29218W        W97623  36.510  20.190   4.586
29219W        W97624  25.124   5.963   3.929
29220W        W97625   5.949  15.232   1.620
29221W        W97626  16.208  44.917   1.409
29222W        W97627  16.558  11.770   1.360
29223W        W97628   8.865   5.309  11.054
29224W        W97629  33.041  35.085  13.167
29225W        W97630  37.064  39.787  12.884
29226W        W97631  41.472  25.467  14.838
29227W        W97632   1.890  28.584   3.106
29228W        W97633   1.298  24.405  10.978
29229W        W97634  15.680  28.993   4.624
29230W        W97635  24.103  14.620   4.122
29231W        W97636  10.962  24.516  13.411
29232W        W97637  37.546  15.615  13.294
29233W        W97638  27.494  30.007  13.280
29234W        W97639  44.290  41.995  11.386
29235W        W97640  24.798  24.625   2.623
29236W        W97641   9.152  19.137  12.435
29237W        W97642  22.651  37.594  13.107
29238W        W97643  42.223  25.204  11.764
29239W        W97644  39.135   7.974   1.339
29240W        W97645  35.572  16.242   0.896
29241W        W97646  39.936  40.794   1.709
29242W        W97647  15.804  28.229   1.335
29243W        W97648   1.497   8.669  12.981
29244W        W97649  34.782  10.566   5.173
29245W        W97650  23.188  35.976  13.546
29246W        W97651  14.786  11.575  11.231
29247W        W97652  19.561  39.946  10.260
29248W        W97653  11.801  22.581   0.979
29249W        W97654   2.483  34.779  11.610
29250W        W97655   6.122  28.173  12.609
29251W        W97656  18.268  36.578   2.213
29252W        W97657  24.344  22.545   4.599
29253W        W97658  24.229  34.486  13.570
29254W        W97659  30.170  12.203   3.949
29255W        W97660  34.962  30.984   1.578
29256W        W97661  26.145  39.742   0.794
29257W        W97662  15.760  16.762   3.362
29258W        W97663   0.483   7.675   3.612
29259W        W97664  32.138   5.245   3.292
29260W        W97665  14.094  13.713   4.111
29261W        W97666  10.436  23.561   3.683
29262W        W97667  11.351  30.424  12.531
29263W        W97668  15.291  10.358   0.701
29264W        W97669  34.906  26.679  10.595
29265W        W97670  39.758  41.001  10.819
29266W        W97671   9.244   4.761   0.089
29267W        W97672  12.027  39.831  10.676
29268W        W97673  17.886   5.941  10.784
29269W        W97674  29.372  29.140   4.787
29270W        W97675  26.552  39.491   3.265
29271W        W97676  12.244  14.883  10.974
29272W        W97677  39.579  44.809  12.819
29273W        W97678  29.005   3.172   1.415
29274W        W97679   6.935  26.423  11.582
29275W        W97680  44.826  27.633  14.804
29276W        W97681   5.182   2.347   4.417
29277W        W97682  41.495   2.187   4.922
29278W        W97683  15.012  28.114  11.916
29279W        W97684  36.091  27.122  11.865
29280W        W97685  21.998   2.340  14.856
29281W        W97686  11.570  34.872  14.425
29282W        W97687  41.516  23.011   2.886
29283W        W97688  17.266  10.714   4.224
29284W        W97689  22.243  35.633  12.046
29285W        W97690  29.644   5.782  14.596
29286W        W97691  39.521  27.481  14.740
29287W        W97692  23.872  36.379   0.619
29288W        W97693  12.896   3.710   3.403
29289W        W97694  38.550  31.473  12.424
29290W        W97695  25.035  14.565  11.586
29291W        W97696  44.458  37.542  10.548
29292W        W97697   4.529   5.716  11.092
29293W        W97698  44.688  13.344  11.593
29294W        W97699   9.376  18.724   1.735
29295W        W97700  24.283  29.494  12.525
29296W        W97701  17.528  24.962  12.067
29297W        W97702  43.108   7.778   4.735
29298W        W97703  17.333  37.383   4.534
29299W        W97704  13.862  25.079  13.364
29300W        W97705  37.896   9.578   4.199
29301W        W97706  40.527  16.814   0.787
29302W        W97707  42.192   8.962   2.277
29303W        W97708  39.007   1.245  13.332
29304W        W97709  37.666   1.663  12.928
29305W        W97710   6.365  31.935   4.598
29306W        W97711  29.151  40.256   0.404
29307W        W97712  42.976  26.308   3.832
29308W        W97713  17.180  19.866  13.423
29309W        W97714   4.795  36.157   0.255
29310W        W97715  39.597  19.627   0.806
29311W        W97716   5.169   6.796  11.384
29312W        W97717  24.631   9.829   1.600
29313W        W97718  34.581  33.320  14.584
29314W        W97719   1.958  29.149   4.114
29315W        W97720  44.573  41.229  14.448
29316W        W97721  33.409  22.877  10.991
29317W        W97722  30.789  13.288   1.279
29318W        W97723  27.158  39.295   4.848
29319W        W97724   8.270  34.010  10.660
29320W        W97725  36.907  31.893  14.844
29321W        W97726  42.475   4.990   3.941
29322W        W97727  43.754   6.139   1.772
29323W        W97728  27.137  37.049   3.741
29324W        W97729  24.737  11.257  10.521
29325W        W97730   8.316  23.866   3.051
29326W        W97731  35.785  15.381  13.869
29327W        W97732  16.290   7.860  14.987
29328W        W97733  35.873  17.645  12.985
29329W        W97734  35.568  42.004   4.415
29330W        W97735  24.135   5.909   0.975
29331W        W97736  26.534  15.898   0.902
29332W        W97737  14.718  20.107  14.225
29333W        W97738  44.577   6.078  10.646
29334W        W97739  43.808  23.293  11.645
29335W        W97740  10.269  28.357  10.081
29336W        W97741   2.808   9.903  13.786
29337W        W97742  12.048  25.016  12.127
29338W        W97743  11.875  18.515  13.063
29339W        W97744  35.715  26.041   4.371
29340W        W97745  31.001  44.817  11.015
29341W        W97746  10.309  17.504   1.924
29342W        W97747  26.960  19.332  13.418
29343W        W97748   7.321  20.631  14.471
29344W        W97749  21.763   7.769   0.663
29345W        W97750   8.768   4.425   2.348
29346W        W97751   6.301  20.666   1.923
29347W        W97752  23.889  39.308   1.083
29348W        W97753   1.077  22.992   0.476
29349W        W97754   0.864  41.732  13.834
29350W        W97755   2.711  39.199  13.518
29351W        W97756  39.561  37.003  12.401
29352W        W97757  29.464  28.635  13.499
29353W        W97758  16.331   1.477  14.925
29354W        W97759  38.780   2.408  11.150
29355W        W97760   3.889   9.344  12.091
29356W        W97761   3.689  44.910  14.551
29357W        W97762   7.693  25.640   4.668
29358W        W97763  20.685  14.763   4.693
29359W        W97764   6.283   5.604  11.105
29360W        W97765  24.019   9.861   2.695
29361W        W97766  30.199   7.610   3.284
29362W        W97767  41.924  29.105   0.802
29363W        W97768  34.055  37.174   3.320
29364W        W97769  25.200  13.662  14.820
29365W        W97770  37.998  11.303  10.469
29366W        W97771  20.673   4.183  10.749
29367W        W97772  12.747  16.670   4.614
29368W        W97773  12.761  42.700  13.882
29369W        W97774  42.667  30.258  12.930
29370W        W97775   2.761  40.636   3.765
29371W        W97776  22.106   2.847   0.716
29372W        W97777  20.520  33.426  10.534
29373W        W97778   8.924  20.680  14.305
29374W        W97779  30.640  41.199   3.817
29375W        W97780  21.806  26.641  14.001
29376W        W97781   2.711  25.264  14.498
29377W        W97782   9.982  38.905  10.757
29378W        W97783   3.503  31.419  11.155
29379W        W97784  13.394   5.835  10.641
29380W        W97785  27.031  14.078   1.931
29381W        W97786  39.571  39.957  12.138
29382W        W97787  18.935   6.355   3.966
29383W        W97788  30.559   8.027  14.934
29384W        W97789  41.946  12.905  11.836
29385W        W97790   8.258  38.454  14.580
29386W        W97791   8.284  23.860  13.427
29387W        W97792  28.891  20.172   2.266
29388W        W97793   2.703   8.899   1.708
29389W        W97794  39.825  24.411  11.245
29390W        W97795  36.455  26.000   2.279
29391W        W97796   5.288  21.070   1.224
29392W        W97797  20.070  13.327  10.669
29393W        W97798  24.628  41.277   4.811
29394W        W97799   3.234  35.259  14.837
29395W        W97800   3.703  22.805   3.378
29396W        W97801  25.987  43.826  14.003
29397W        W97802  44.884  13.358  14.319
29398W        W97803  26.151  17.854  12.359
29399W        W97804  30.671   4.009  14.473
29400W        W97805  35.887  30.511   0.419
29401W        W97806  18.759   0.684   1.935
29402W        W97807  38.971  29.822  11.483
29403W        W97808  12.788  33.352  10.641
29404W        W97809  30.978  40.037  11.889
29405W        W97810  27.436  24.568  12.566
29406W        W97811  44.221  23.057   4.587
29407W        W97812  37.141  17.375   3.842
29408W        W97813  41.333  39.804  12.490
29409W        W97814  24.747   3.132   3.358
29410W        W97815  26.599   2.603  13.536
29411W        W97816  38.833  33.026   0.360
29412W        W97817  26.886  11.087   3.249
29413W        W97818  35.966  14.599   2.789
29414W        W97819  15.989  38.249  14.688
29415W        W97820  12.979   6.607  12.321
29416W        W97821  43.383  24.308  12.760
29417W        W97822  43.340  34.551   4.549
29418W        W97823   6.302  19.147  14.296
29419W        W97824  19.796  24.382   5.285
29420W        W97825  43.077  35.463  10.697
29421W        W97826  41.678  41.595   0.384
29422W        W97827   4.367  39.514  10.662
29423W        W97828  11.414   6.371  13.497
29424W        W97829  27.658   4.691  11.064
29425W        W97830  22.540  41.484  13.410
29426W        W97831   9.905   7.166  12.439
29427W        W97832  31.946  36.279  12.122
29428W        W97833  22.100  38.586   4.478
29429W        W97834   9.720  30.860  10.526
29430W        W97835  17.067  26.991   0.238
29431W        W97836  37.420  21.601   1.194
29432W        W97837  11.569  34.081   2.694
29433W        W97838  34.052  43.995   1.684
29434W        W97839   1.711  24.753   3.338
29435W        W97840  13.065  33.526  13.570
29436W        W97841   9.755  23.260   1.892
29437W        W97842  38.067   9.015   3.270
29438W        W97843  35.703  29.385  12.027
29439W        W97844  35.483  44.791  13.330
29440W        W97845  38.390  36.842   2.909
29441W        W97846   3.178  17.628   2.886
29442W        W97847  26.943  24.142   0.004
29443W        W97848   2.725  12.548   2.402
29444W        W97849  16.151  23.283   1.334
29445W        W97850   0.296  17.486   4.081
29446W        W97851  16.405  17.806   2.716
29447W        W97852  31.516  39.176   1.421
29448W        W97853  11.174  38.669   2.787
29449W        W97854  40.103  30.713   2.330
29450W        W97855  20.003  15.488   3.680
29451W        W97856   7.771  19.835  14.567
29452W        W97857  29.401   3.878   0.999
29453W        W97858  11.740   7.178  14.659
29454W        W97859  29.884  21.486  14.901
29455W        W97860  38.571  19.602   3.657
29456W        W97861  21.325   6.280  13.925
29457W        W97862   2.532  19.789  11.097
29458W        W97863  14.251   5.315  14.698
29459W        W97864  27.004   5.527   0.697
29460W        W97865  27.576  36.597   1.176
29461W        W97866  18.395  23.996  13.944
29462W        W97867  23.310  10.488   0.883
29463W        W97868  35.900   9.685   0.506
29464W        W97869   5.280   7.290   3.746
29465W        W97870   8.897  44.546   2.307
29466W        W97871  21.223  11.647   2.720
29467W        W97872  18.545  32.999   0.422
29468W        W97873   9.129  21.099  10.323
29469W        W97874  23.276  13.437  11.012
29470W        W97875  13.251  43.366  11.669
29471W        W97876  44.504  26.668  12.445
29472W        W97877  14.095  42.474   3.113
29473W        W97878   2.240  19.500   3.720
29474W        W97879  42.051   0.554   2.251
29475W        W97880  34.585  19.429   3.162
29476W        W97881  36.031  28.307  12.471
29477W        W97882  28.499  17.290   1.433
29478W        W97883  28.054  27.223  10.495
29479W        W97884  42.922  23.066   2.409
29480W        W97885  41.313  25.100   1.932
29481W        W97886  10.305  25.239  12.615
29482W        W97887  13.138   5.231  13.002
29483W        W97888  41.790  24.701   0.811
29484W        W97889  44.732  43.430  10.701
29485W        W97890  14.897  41.012   1.840
29486W        W97891   7.663  13.227   3.250
29487W        W97892  30.960   5.920   3.887
29488W        W97893  34.966  29.838   1.170
29489W        W97894  17.184  15.621  10.600
29490W        W97895   8.286  14.618  10.670
29491W        W97896  33.530  11.685  13.817
29492W        W97897  21.258  42.904  14.847
29493W        W97898  20.000  10.918   1.560
29494W        W97899  20.351   5.903   3.607
29495W        W97900  38.961  23.513   0.433
29496W        W97901  41.917  15.335   0.251
29497W        W97902  30.456  31.183  11.567
29498W        W97903  34.269  22.616   2.909
29499W        W97904  25.995  11.595  13.957
29500W        W97905  12.098  43.789  14.800
29501W        W97906  31.985  40.573   1.791
29502W        W97907  11.441  19.261   3.897
29503W        W97908  34.401  30.600   3.261
29504W        W97909  32.995   3.369  10.923
29505W        W97910   4.276   5.608   1.382
29506W        W97911  24.270  38.754   2.761
29507W        W97912  16.536  44.604  13.302
29508W        W97913   9.803  32.678  13.512
29509W        W97914   7.227  13.611  12.473
29510W        W97915  31.073  39.595  13.274
29511W        W97916  27.971   3.977   3.357
29512W        W97917  34.301   2.365   1.732
29513W        W97918   6.712  37.519   1.255
29514W        W97919  14.625  21.511   0.202
29515W        W97920   4.286   8.811   2.772
29516W        W97921   7.874   9.569  11.000
29517W        W97922   1.407  16.773   0.360
29518W        W97923  15.853   3.552  14.367
29519W        W97924  23.162  25.100  12.699
29520W        W97925  19.270  31.196  14.331
29521W        W97926  35.527  33.550  10.412
29522W        W97927  25.004   9.219   3.672
29523W        W97928   1.732  21.925   3.238
29524W        W97929  11.229  37.459  13.889
29525W        W97930  11.381  34.428  10.493
29526W        W97931   5.243  38.218  12.970
29527W        W97932  29.568  37.666   0.912
29528W        W97933   7.159  16.915  13.507
29529W        W97934   2.642  34.610  13.084
29530W        W97935  36.290  11.242   0.346
29531W        W97936   0.047  32.308  14.838
29532W        W97937   8.068  38.324  11.614
29533W        W97938  14.530  17.437   0.280
29534W        W97939  37.077  18.098  10.668
29535W        W97940  41.045   6.363   3.617
29536W        W97941  11.565  26.194   3.548
29537W        W97942  12.826  19.134  11.964
29538W        W97943  42.363   9.567   3.264
29539W        W97944  31.726  30.520   3.418
29540W        W97945  16.028  29.625   1.253
29541W        W97946  39.918  16.350   4.414
29542W        W97947   2.713  20.906  14.746
29543W        W97948  21.743  28.999   2.826
29544W        W97949   0.028  11.717   3.756
29545W        W97950   1.802  30.866  12.343
29546W        W97951  20.754  27.788  11.156
29547W        W97952  22.804   5.425  14.456
29548W        W97953  23.158   4.722  14.510
29549W        W97954  23.919  34.059  13.112
29550W        W97955  21.754  29.107  12.070
29551W        W97956   0.109  20.189   0.514
29552W        W97957  41.385   3.234  12.057
29553W        W97958   5.724  27.222   4.832
29554W        W97959   8.391  41.549   0.902
29555W        W97960  25.662  31.984  10.397
29556W        W97961   0.996  20.744   2.154
29557W        W97962  43.001   3.254   4.155
29558W        W97963  40.581  37.044  10.666
29559W        W97964   6.757  29.445  10.514
29560W        W97965  41.352   8.606   0.881
29561W        W97966  38.356  27.505  13.480
29562W        W97967  28.295  44.668   1.471
29563W        W97968  10.422  21.212  11.977
29564W        W97969  28.387  20.593  14.540
29565W        W97970   6.681  41.246   0.440
29566W        W97971   2.215  28.505   2.707
29567W        W97972  31.345  26.187   3.079
29568W        W97973   6.025   3.048   0.380
29569W        W97974  30.492  31.446  13.374
29570W        W97975   2.423  20.260  13.109
29571W        W97976   4.786  19.759   1.324
29572W        W97977  22.591  20.729   1.220
29573W        W97978  39.808  31.210   4.199
29574W        W97979  12.974  43.206  14.795
29575W        W97980  41.974  42.997  14.882
29576W        W97981  22.789   1.167   0.760
29577W        W97982  10.330  36.965  13.254
29578W        W97983  31.655   3.257   4.223
29579W        W97984  41.463  30.360   3.707
29580W        W97985  29.931  13.796  11.516
29581W        W97986   6.612   9.333  14.448
29582W        W97987  24.405  10.347  13.572
29583W        W97988  19.164  22.027   3.806
29584W        W97989  28.863   9.319  11.185
29585W        W97990  16.649   0.124  13.309
29586W        W97991  39.539  21.591   1.454
29587W        W97992  41.621  38.424   0.282
29588W        W97993  16.551  29.705   2.409
29589W        W97994  36.712  30.898   1.822
29590W        W97995   4.519  30.959  14.872
29591W        W97996  40.155  34.579  13.610
29592W        W97997   4.862   9.635  14.194
29593W        W97998   2.803  18.592   4.561
29594W        W97999   6.663  37.801  14.013
29595W        W98000  25.002  28.152   3.307
29596W        W98001  42.803  42.430  10.761
29597W        W98002   6.816  17.776  10.715
29598W        W98003  27.218   1.415   3.756
29599W        W98004  42.889  35.929  10.557
29600W        W98005  41.994  34.948  13.019
29601W        W98006  30.186  40.883   0.936
29602W        W98007  22.047  44.213  13.364
29603W        W98008  42.713   8.896  13.515
29604W        W98009  18.547   6.051   1.467
29605W        W98010  40.979  31.843  12.085
29606W        W98011   9.063  29.004  13.487
29607W        W98012   1.582   0.338   0.337
29608W        W98013  16.690   6.454  10.560
29609W        W98014  30.457  29.362   1.349
29610W        W98015   5.495   0.904  14.333
29611W        W98016  27.349  11.920  12.701
29612W        W98017  28.709  22.024  11.241
29613W        W98018  43.784  37.170   0.826
29614W        W98019  29.666   7.720   0.184
29615W        W98020  18.304  30.138   2.815
29616W        W98021  12.480   7.353   0.778
29617W        W98022   1.866  10.690   0.693
29618W        W98023   1.137  34.519  11.541
29619W        W98024  32.502  20.284  12.829
29620W        W98025  34.792  27.286  11.635
29621W        W98026   0.261  21.960   0.867
29622W        W98027   7.899  11.696   2.888
29623W        W98028  37.408  27.762  11.655
29624W        W98029   0.330  17.611   1.773
29625W        W98030  20.882   5.770   3.552
29626W        W98031  39.039  34.469  14.510
29627W        W98032  39.025  32.614  14.816
29628W        W98033  20.982  37.217  12.613
29629W        W98034  26.139  13.356   4.645
29630W        W98035  20.050  18.962  13.995
29631W        W98036   3.177   1.426  13.982
29632W        W98037  30.017  44.272   1.463
29633W        W98038  23.931  32.435  11.039
29634W        W98039  43.186   2.826   0.371
29635W        W98040   9.361  27.156   2.834
29636W        W98041  32.452  12.157   4.293
29637W        W98042   9.726  30.325  12.728
29638W        W98043  27.332   3.896   4.088
29639W        W98044   9.214  21.908  13.947
29640W        W98045  37.050   7.881  10.694
29641W        W98046  34.137   8.241   3.207
29642W        W98047  26.119   3.792  10.346
29643W        W98048   1.954   5.376  12.903
29644W        W98049  30.608   5.846   4.414
29645W        W98050  21.541  29.191   2.382
29646W        W98051   0.348   8.342  11.464
29647W        W98052  22.549  34.456   1.762
29648W        W98053   1.245  23.795  12.931
29649W        W98054  31.110  28.990   0.701
29650W        W98055  13.235  40.136  12.066
29651W        W98056  30.882   4.996   4.148
29652W        W98057  41.696  33.454  13.850
29653W        W98058   5.202  13.081  14.479
29654W        W98059   4.412  35.339  13.904
29655W        W98060   7.240  37.943  14.847
29656W        W98061   5.775  21.629   0.060
29657W        W98062  36.336   9.739   1.415
29658W        W98063   3.507  32.476  14.835
29659W        W98064  13.445  27.169   4.224
29660W        W98065  44.792  42.641  10.294
29661W        W98066  39.937  36.370  12.499
29662W        W98067  43.285  44.797   1.287
29663W        W98068  19.583   3.455   1.300
29664W        W98069   1.945  20.597   2.966
29665W        W98070  24.163  15.931  12.598
29666W        W98071  16.634  15.278  11.596
29667W        W98072  24.776  36.366   2.201
29668W        W98073  24.654   9.677  12.983
29669W        W98074   1.226  26.398  14.188
29670W        W98075  32.532  17.235  11.149
29671W        W98076  15.039   0.475  13.862
29672W        W98077  41.870   8.369   1.495
29673W        W98078   7.666  10.095  14.958
29674W        W98079  15.800  40.602  14.336
29675W        W98080   1.447  21.288  13.039
29676W        W98081  20.182  14.380  13.560
29677W        W98082   6.963  29.588   2.275
29678W        W98083   3.319  16.130   2.205
29679W        W98084  12.265  13.260   2.239
29680W        W98085  12.331  12.676   3.341
29681W        W98086  29.013  19.080   3.562
29682W        W98087  18.317  26.182  13.451
29683W        W98088  21.767  10.758  13.395
29684W        W98089  27.763  23.559  11.103
29685W        W98090  15.903  39.386  12.368
29686W        W98091  30.423  19.202  14.222
29687W        W98092  15.513   2.066  13.375
29688W        W98093  24.459  29.616   3.704
29689W        W98094  18.553  21.166   1.647
29690W        W98095  33.119  40.843  13.813
29691W        W98096  16.272   4.437   3.746
29692W        W98097  39.857  11.772   4.306
29693W        W98098  44.288  13.334   0.922
29694W        W98099  31.736   0.382  13.346
29695W        W98100  43.354  28.570   4.364
29696W        W98101  11.731   8.307  14.772
29697W        W98102   4.203  43.073  10.580
29698W        W98103  31.134  19.501   4.561
29699W        W98104  23.942  36.398  13.429
29700W        W98105  12.854   4.278  14.457
29701W        W98106  32.014  42.813   1.002
29702W        W98107  22.489   9.816   2.674
29703W        W98108  10.890   1.277   3.702
29704W        W98109  13.200  20.649   2.958
29705W        W98110  31.982  32.144   4.966
29706W        W98111  42.039  43.699  10.321
29707W        W98112  18.325   8.541  13.438
29708W        W98113   5.271  25.937  14.410
29709W        W98114  24.642  16.707  14.002
29710W        W98115  17.089  28.997   1.885
29711W        W98116  20.204  16.822   3.862
29712W        W98117   1.956  10.839  12.574
29713W        W98118  13.293  29.683  12.501
29714W        W98119   0.487   9.795   4.633
29715W        W98120  26.769   7.371   0.860
29716W        W98121   2.314   5.755  11.547
29717W        W98122   1.466  19.505   2.628
29718W        W98123  26.293  42.934  11.582
29719W        W98124  16.495  15.144   3.217
29720W        W98125  41.786  35.519   2.577
29721W        W98126  10.147  41.569   2.194
29722W        W98127  29.010  23.311  13.339
29723W        W98128  20.261  32.241   1.841
29724W        W98129  13.818  10.281   3.275
29725W        W98130  26.165   7.531  14.424
29726W        W98131  14.002   4.384   0.418
29727W        W98132  11.197  39.535   4.723
29728W        W98133  19.761  35.417   4.676
29729W        W98134  34.804  40.946   1.932
29730W        W98135  40.817  24.520   1.647
29731W        W98136  25.212   2.500  11.033
29732W        W98137   0.480  36.422  10.482
29733W        W98138  41.361   4.258   0.953
29734W        W98139  39.583  29.449   4.440
29735W        W98140   4.413  21.780  11.559
29736W        W98141  41.395  27.233   4.642
29737W        W98142  40.105   7.763   4.796
29738W        W98143  13.803  43.818  14.459
29739W        W98144  39.661  38.534  11.476
29740W        W98145  43.339   4.725  14.607
29741W        W98146  22.783  43.424  12.964
29742W        W98147   2.144  28.676  10.731
29743W        W98148  22.728  21.176  10.938
29744W        W98149  14.348  44.238  10.970
29745W        W98150  27.190   6.843  12.072
29746W        W98151  20.177   9.109   4.786
29747W        W98152   6.029  38.090  12.265
29748W        W98153  31.767  22.987   2.398
29749W        W98154   2.520  11.741  13.381
29750W        W98155   6.153  33.354  10.360
29751W        W98156   3.380  22.971  12.445
29752W        W98157  40.960  25.414  14.308
29753W        W98158  39.440  10.218  14.019
29754W        W98159  26.278  16.533   3.687
29755W        W98160   8.399  39.857   4.016
29756W        W98161  38.940  10.843  11.520
29757W        W98162   7.209  22.743  12.032
29758W        W98163  33.987  13.883  12.062
29759W        W98164  29.814  22.786   4.175
29760W        W98165  18.994  35.363   4.252
29761W        W98166  27.310  37.435  14.406
29762W        W98167  18.542   2.906   2.440
29763W        W98168   0.282  19.056   4.348
29764W        W98169  31.121   9.732   1.829
29765W        W98170  15.670  21.941   1.159
29766W        W98171  27.434  22.294  10.765
29767W        W98172  16.779  16.224   1.428
29768W        W98173  35.888  29.477   4.541
29769W        W98174  38.336  40.270   1.437
29770W        W98175  24.743  30.661  14.787
29771W        W98176  14.790  14.346   2.475
29772W        W98177   4.311  17.452   1.797
29773W        W98178  18.159  23.602   0.423
29774W        W98179  30.115  37.579  13.001
29775W        W98180  23.711  37.097   4.296
29776W        W98181  31.716   0.056   2.314
29777W        W98182  42.574  34.932  11.710
29778W        W98183   6.118  29.457  11.559
29779W        W98184   7.740  42.062   4.629
29780W        W98185  29.988   6.844  11.597
29781W        W98186  25.887  14.794  14.404
29782W        W98187  10.198  41.498  13.838
29783W        W98188  21.589  33.873  11.561
29784W        W98189   3.386  40.060   2.953
29785W        W98190  12.751  20.740  12.130
29786W        W98191  44.513   8.744   0.354
29787W        W98192  30.992  26.101  14.610
29788W        W98193   3.059  32.392  11.071
29789W        W98194  12.461  34.146  11.232
29790W        W98195  44.305  11.918   1.960
29791W        W98196   2.728  22.577  14.307
29792W        W98197   4.914  15.098  14.522
29793W        W98198  44.991  38.953  12.885
29794W        W98199  26.417  18.236   1.306
29795W        W98200  15.996  18.910  13.791
29796W        W98201  17.898   5.388   2.901
29797W        W98202   5.134   6.025  14.811
29798W        W98203  12.702  20.625  13.122
29799W        W98204  28.937  39.510   2.276
29800W        W98205  41.091   7.736  10.635
29801W        W98206  18.550  44.553   1.343
29802W        W98207  26.978  41.983  14.470
29803W        W98208  28.615   5.799  13.501
29804W        W98209  43.846  38.923   0.965
29805W        W98210   9.336  27.517  11.925
29806W        W98211  17.525  27.785   0.972
29807W        W98212  31.168  27.813   3.713
29808W        W98213  20.761  28.867  12.021
29809W        W98214   8.897  40.437   1.740
29810W        W98215  25.228  14.651   1.773
29811W        W98216   6.854  21.526   4.627
29812W        W98217  37.316  33.404  11.693
29813W        W98218  17.243   7.011  14.532
29814W        W98219   3.709  22.288  11.132
29815W        W98220  31.470  17.737  12.460
29816W        W98221  37.444  10.648   2.148
29817W        W98222  20.040  22.409  12.539
29818W        W98223  22.974  42.923   1.241
29819W        W98224  28.471  16.578   4.148
29820W        W98225  26.910   4.298  14.016
29821W        W98226  40.943  37.888   2.608
29822W        W98227  10.154   8.997   2.820
29823W        W98228  37.932  18.680  10.619
29824W        W98229   1.385  27.037   0.782
29825W        W98230  13.627   8.856  11.407
29826W        W98231  32.972  40.326   1.726
29827W        W98232  25.589  41.407  12.981
29828W        W98233  36.500  29.678  14.196
29829W        W98234   3.249  18.988   4.103
29830W        W98235   4.387  11.099   1.884
29831W        W98236  43.298  30.938  11.451
29832W        W98237  24.671  40.025   0.314
29833W        W98238  35.242   5.194  13.296
29834W        W98239  20.667   3.998  11.769
29835W        W98240  42.955  37.995   4.319
29836W        W98241  13.103  35.600   0.439
29837W        W98242  29.701  24.275   4.564
29838W        W98243  16.681  43.210   3.744
29839W        W98244  41.447  31.245   4.773
29840W        W98245   7.874  33.356  13.625
29841W        W98246   9.391  39.856   2.848
29842W        W98247  23.479  27.458   2.596
29843W        W98248  13.177  34.231   5.268
29844W        W98249  14.348  13.634   2.649
29845W        W98250   2.813  39.545   1.777
29846W        W98251  31.054   7.749   2.264
29847W        W98252  42.329  30.895  13.550
29848W        W98253   6.389   5.326  12.386
29849W        W98254   3.995   7.135   3.787
29850W        W98255  31.399  36.782  12.981
29851W        W98256  31.042  23.211   1.193
29852W        W98257  27.951  11.114  14.796
29853W        W98258   0.074   9.430  13.732
29854W        W98259   3.532  16.763   2.910
29855W        W98260   4.289  34.577  11.319
29856W        W98261  38.457  11.249   3.234
29857W        W98262   4.904  29.101  10.669
29858W        W98263  14.629  31.496  13.992
29859W        W98264  27.051  35.492  11.708
29860W        W98265   3.444  22.084   4.298
29861W        W98266  18.703  28.992  12.320
29862W        W98267  35.638  30.921  12.920
29863W        W98268  42.510   6.339  11.929
29864W        W98269  21.264  20.254   2.380
29865W        W98270  22.110  44.623  11.886
29866W        W98271  26.457  18.829  13.014
29867W        W98272  34.832  31.849  11.536
29868W        W98273  29.170  17.310   3.117
29869W        W98274   4.409  36.362   3.261
29870W        W98275  15.819  11.421  11.243
29871W        W98276   6.673  40.697   4.963
29872W        W98277   2.000   0.016  13.933
29873W        W98278  36.820   2.117   3.232
29874W        W98279  28.084  14.745  13.099
29875W        W98280  29.770  17.241  14.450
29876W        W98281  14.456   2.941  14.682
29877W        W98282  38.065  34.622   3.776
29878W        W98283   0.781  39.524   3.229
29879W        W98284  24.180  24.254   1.296
29880W        W98285  10.832  27.433  11.970
29881W        W98286  27.081  24.098  10.759
29882W        W98287  41.243  16.874  12.422
29883W        W98288  23.102  29.975  10.546
29884W        W98289  39.539  40.863   0.877
29885W        W98290  12.543  32.015   4.247
29886W        W98291  36.078   5.090  13.479
29887W        W98292  44.204   9.280   0.375
29888W        W98293  13.270   8.140   4.134
29889W        W98294   4.722  37.376   3.190
29890W        W98295   7.604   3.190   3.665
29891W        W98296  25.501  43.510  12.067
29892W        W98297  24.588  10.917  14.692
29893W        W98298  29.342   7.129  14.927
29894W        W98299  28.765   5.934  11.959
29895W        W98300  39.702  35.575  10.637
29896W        W98301  10.736  24.014  10.852
29897W        W98302  28.142  31.384  13.879
29898W        W98303   1.155  17.451  14.721
29899W        W98304  43.168  18.076   3.777
29900W        W98305  37.525  14.048   3.289
29901W        W98306  28.160  14.582   2.782
29902W        W98307  36.124   6.123   2.067
29903W        W98308  13.855   1.450  10.017
29904W        W98309  11.829  44.913   4.124
29905W        W98310  18.085  37.303   3.167
29906W        W98311   1.118  36.955  12.429
29907W        W98312  36.035  28.857   0.831
29908W        W98313  23.239  28.066   4.670
29909W        W98314  40.547  27.040  12.121
29910W        W98315  13.135  12.688  13.944
29911W        W98316  19.700  10.218   4.563
29912W        W98317   8.663  22.564  14.417
29913W        W98318  14.292   3.543   0.951
29914W        W98319   6.089   3.718   3.326
29915W        W98320  30.197   3.061  10.960
29916W        W98321   9.442  35.998   2.229
29917W        W98322  33.003   3.339   4.551
29918W        W98323  42.703  43.237  14.415
29919W        W98324  12.375   6.947   1.983
29920W        W98325  10.304   1.137   2.352
29921W        W98326  41.785  37.814  11.305
29922W        W98327   6.107  28.611   0.290
29923W        W98328  17.094  33.893   1.819
29924W        W98329  36.022  35.169  11.938
29925W        W98330  23.270   9.004  13.057
29926W        W98331  38.870  17.548  11.639
29927W        W98332   6.006  44.585  14.173
29928W        W98333   0.173  32.212   2.248
29929W        W98334  39.376   5.821  13.164
29930W        W98335   8.263   9.830  13.995
29931W        W98336  10.450  38.837  12.657
29932W        W98337  13.610  10.024   1.912
29933W        W98338  32.968   6.764   2.339
29934W        W98339  10.164  38.913   0.022
29935W        W98340  17.976   1.708  11.984
29936W        W98341  31.378  20.774  11.811
29937W        W98342   2.705   7.509  13.422
29938W        W98343   7.684  28.481  11.058
29939W        W98344  37.991  37.335  10.715
29940W        W98345  17.724  39.743   0.326
29941W        W98346  39.466  15.769   3.745
29942W        W98347  15.326   0.260  13.477
29943W        W98348  19.144   4.558   4.489
29944W        W98349   5.683  16.542   4.120
29945W        W98350  37.092  44.190  12.569
29946W        W98351  21.686   3.145  14.036
29947W        W98352  44.794  14.371  14.487
29948W        W98353  17.467  17.310  11.634
29949W        W98354  26.550   9.462   0.450
29950W        W98355   5.802  44.925   2.350
29951W        W98356  17.813  21.036  14.426
29952W        W98357   0.278  10.117   0.273
29953W        W98358  28.893  40.714  11.931
29954W        W98359  38.195  14.821   1.626
29955W        W98360   8.112   1.818  12.829
29956W        W98361   6.657  25.722   4.543
29957W        W98362  34.064  14.650  11.606
29958W        W98363   8.642   7.905   2.313
29959W        W98364  30.018  32.625   4.122
29960W        W98365  15.363  38.761  12.078
29961W        W98366  37.471  20.510   2.225
29962W        W98367  15.640  37.577  14.456
29963W        W98368  36.278  39.205   3.088
29964W        W98369  33.967  15.247  11.392
29965W        W98370   6.816  18.162  12.048
29966W        W98371  30.911  18.782  10.142
29967W        W98372  22.295  22.480  12.356
29968W        W98373   6.961  33.501  10.749
29969W        W98374  15.754   8.736  14.663
29970W        W98375  31.507  31.701  11.972
29971W        W98376  25.725  37.849  13.871
29972W        W98377  35.559  34.898  13.267
29973W        W98378  23.225   7.791   0.788
29974W        W98379  37.791  20.138  13.325
29975W        W98380  16.247  22.225   0.199
29976W        W98381  41.326  42.059   2.114
29977W        W98382  26.709  36.108  12.935
29978W        W98383  12.766   9.236   2.361
29979W        W98384  30.009  40.266   1.926
29980W        W98385  20.815  44.084   0.606
29981W        W98386  15.276   8.388   5.332
29982W        W98387   5.098  10.794   0.431
29983W        W98388   4.448  24.227  12.765
29984W        W98389  11.280  14.696  12.836
29985W        W98390   8.215  31.523  13.842
29986W        W98391   4.464  13.481   3.863
29987W        W98392  14.203  32.640  12.538
29988W        W98393  31.095  13.196   0.810
29989W        W98394  29.732  27.085   0.935
29990W        W98395  32.224  25.916   1.701
29991W        W98396  39.815  22.483   1.709
29992W        W98397   8.377  18.202  12.305
29993W        W98398  31.863  40.231  14.788
29994W        W98399   8.140  39.242   1.324
29995W        W98400  28.489  25.623  13.337
29996W        W98401  24.542  24.821   4.956
29997W        W98402   4.288  19.579   0.840
29998W        W98403  23.798   9.613  12.630
29999W        W98404   9.382  38.870   0.349
30000W        W98405  16.724  27.597   4.394
30001W        W98406  43.075   1.871  12.838
30002W        W98407   9.024  20.793   5.070
30003W        W98408   7.902  13.607  12.045
30004W        W98409  44.277  35.343  14.377
30005W        W98410  17.331   5.349  13.643
30006W        W98411  34.814  10.710  12.400
30007W        W98412  29.566  41.499   5.000
30008W        W98413  34.695  27.677   0.888
30009W        W98414  37.543   3.963  12.208
30010W        W98415  27.844  37.815   4.920
30011W        W98416  25.718  16.018  12.787
30012W        W98417  44.086  24.445   2.930
30013W        W98418  42.342  14.088  13.231
30014W        W98419  33.600  28.699   2.838
30015W        W98420  34.253  43.809   2.707
30016W        W98421  28.181  28.527   1.194
30017W        W98422  33.786  34.504  12.885
30018W        W98423   1.986  43.334   1.812
30019W        W98424  32.516  15.482  11.565
30020W        W98425   5.778  39.421  11.159
30021W        W98426   7.622  26.023  12.383
30022W        W98427  31.738  33.040  12.945
30023W        W98428  27.738  11.852   0.101
30024W        W98429  40.648  38.460   1.384
30025W        W98430  34.665   6.288   3.532
30026W        W98431  10.416   5.922  14.379
30027W        W98432  42.976   3.898  13.936
30028W        W98433  24.618  29.200   1.509
30029W        W98434   7.126  29.456  11.418
30030W        W98435  23.513  42.313  14.664
30031W        W98436  36.539  35.595  14.070
30032W        W98437   1.452  17.492   3.082
30033W        W98438  44.794   1.443   0.788
30034W        W98439  25.635  17.202  12.391
30035W        W98440  35.937  28.067  12.935
30036W        W98441   0.524   5.725  13.400
30037W        W98442  15.098  17.954   0.747
30038W        W98443  27.698  32.468   3.675
30039W        W98444  29.771   3.459   3.085
30040W        W98445  22.206  23.406  13.046
30041W        W98446  15.141  32.234   3.228
30042W        W98447  22.286  13.870   1.223
30043W        W98448  21.957  40.782   2.926
30044W        W98449  30.598  11.831   0.012
30045W        W98450  40.593  35.593   1.781
30046W        W98451  13.796   2.761   1.809
30047W        W98452   4.968  25.140  10.603
30048W        W98453  13.284   9.168   2.354
30049W        W98454  24.232  17.189  10.766
30050W        W98455  41.258   8.419   3.237
30051W        W98456   5.316  22.359  13.810
30052W        W98457  40.551  16.312   2.396
30053W        W98458  32.046  23.782  12.351
30054W        W98459  39.927  26.869  14.353
30055W        W98460   6.627  27.477   2.982
30056W        W98461  12.087  19.087   1.289
30057W        W98462  44.064  37.941   2.755
30058W        W98463   4.161  24.451   4.269
30059W        W98464   8.640  23.344   1.319
30060W        W98465  15.218   4.000  14.183
30061W        W98466  31.035  17.782  13.096
30062W        W98467  36.494  34.906   2.673
30063W        W98468  34.854   1.412   4.158
30064W        W98469  16.675  43.552   1.477
30065W        W98470  19.256  33.036   1.482
30066W        W98471   9.333   2.180   3.408
30067W        W98472   5.643  18.805  12.928
30068W        W98473  15.610  41.556   4.631
30069W        W98474  20.537  30.568  14.454
30070W        W98475  39.510   3.753   1.480
30071W        W98476  22.201  40.471  10.575
30072W        W98477  39.404  30.498   4.179
30073W        W98478  24.043  10.488   5.043
30074W        W98479   1.437  33.682   2.770
30075W        W98480  41.980  18.653  13.421
30076W        W98481  21.619  17.438  11.597
30077W        W98482  32.518  13.092  12.013
30078W        W98483  17.257  14.672   2.147
30079W        W98484  33.658  40.891   2.265
30080W        W98485  43.324  42.744  13.846
30081W        W98486  25.665  42.791  11.064
30082W        W98487  10.026  21.810  11.078
30083W        W98488  36.952   2.919  11.987
30084W        W98489   2.749  18.708   2.653
30085W        W98490  10.907  20.592  13.448
30086W        W98491  44.169  38.836  11.712
30087W        W98492  37.061   8.333   2.648
30088W        W98493  43.553   8.921  10.525
30089W        W98494  20.648  41.866  14.515
30090W        W98495  15.378  35.159   0.055
30091W        W98496   9.083  17.744   9.783
30092W        W98497  36.934  21.225  13.894
30093W        W98498  41.621  24.506  13.606
30094W        W98499  33.892  10.625   4.446
30095W        W98500  15.014  43.487  12.207
30096W        W98501  24.485  14.354  13.363
30097W        W98502  44.102   1.332  13.312
30098W        W98503   3.796  43.843  13.497
30099W        W98504  39.550  11.957  14.875
30100W        W98505  11.192  37.067   3.646
30101W        W98506  33.076  35.848  10.511
30102W        W98507  40.332  12.298   0.237
30103W        W98508  14.742  26.990  13.384
30104W        W98509   5.676  24.603  12.241
30105W        W98510   3.839  28.610  13.861
30106W        W98511  35.734  21.714   4.030
30107W        W98512   5.635  37.262   0.224
30108W        W98513  37.164  29.119  11.642
30109W        W98514  19.790  24.342   4.755
30110W        W98515  33.567   2.396  11.116
30111W        W98516  13.082   3.510   5.061
30112W        W98517  29.868  35.926  13.351
30113W        W98518  18.648   4.415  14.748
30114W        W98519   2.305  35.501  14.429
30115W        W98520  14.631  25.425  12.282
30116W        W98521  25.652  41.330   2.728
30117W        W98522  39.874  39.870  13.460
30118W        W98523  39.233   2.900   1.449
30119W        W98524   6.200   6.746   3.751
30120W        W98525  14.808  32.867  11.415
30121W        W98526  26.736  36.910   1.161
30122W        W98527  16.313  37.483   2.755
30123W        W98528   5.338   1.394  13.594
30124W        W98529  42.393  40.823  13.447
30125W        W98530  43.353  35.586   2.329
30126W        W98531  31.160  40.041   4.628
30127W        W98532   7.079  13.823   0.201
30128W        W98533  21.824  15.267   2.390
30129W        W98534  37.918  27.538  11.608
30130W        W98535  31.561  42.972   2.223
30131W        W98536   9.561   6.853   0.964
30132W        W98537  31.488  30.559   2.968
30133W        W98538  37.983  21.721  11.093
30134W        W98539  25.676   0.872  12.970
30135W        W98540  25.873   4.554  14.022
30136W        W98541  43.548  22.186   3.069
30137W        W98542   6.699  34.174  12.003
30138W        W98543  26.465   7.286  12.599
30139W        W98544  42.035   7.617   2.208
30140W        W98545  36.544  32.955  10.763
30141W        W98546  31.683   6.466   0.522
30142W        W98547  17.760  29.642   2.660
30143W        W98548  43.316  31.376  13.994
30144W        W98549   9.151  23.097   4.148
30145W        W98550  37.326   0.526  12.322
30146W        W98551  19.590  14.235   4.123
30147W        W98552  30.870  31.359  14.358
30148W        W98553   6.789   6.776  10.369
30149W        W98554  15.264  21.649  12.876
30150W        W98555  38.779  15.555   4.533
30151W        W98556   0.798  31.471  11.621
30152W        W98557  24.557  32.429  11.590
30153W        W98558   8.981  30.108  14.521
30154W        W98559  21.808  13.872   3.282
30155W        W98560  25.059  27.184  13.599
30156W        W98561   0.844  13.475   2.232
30157W        W98562  33.671   1.843  10.614
30158W        W98563  14.427  10.872  11.132
30159W        W98564   4.842  13.356   0.786
30160W        W98565   7.724  10.699   4.792
30161W        W98566  37.594  12.681   3.714
30162W        W98567  41.530   5.458  14.473
30163W        W98568  42.330  21.236   1.256
30164W        W98569  25.096  25.950  12.464
30165W        W98570  24.284  43.109   2.610
30166W        W98571  37.002   2.184  11.113
30167W        W98572  22.578  12.110  12.611
30168W        W98573  17.688  32.407  11.752
30169W        W98574  14.632  20.227   0.560
30170W        W98575  12.378  24.970  13.431
30171W        W98576  27.498  16.039   4.589
30172W        W98577  13.046  13.157  12.354
30173W        W98578  43.357   8.330  13.557
30174W        W98579  30.901  16.250   4.234
30175W        W98580   7.567  15.279   4.921
30176W        W98581  43.978  16.570   4.777
30177W        W98582   0.992  29.164   4.200
30178W        W98583  19.743  30.966  14.293
30179W        W98584   0.660   7.205   1.164
30180W        W98585   7.203  22.064  13.375
30181W        W98586  22.998  40.328   0.952
30182W        W98587  22.558  26.104   3.566
30183W        W98588   5.162  36.540  14.853
30184W        W98589  27.975  13.201   3.764
30185W        W98590  36.358  11.561   3.322
30186W        W98591  16.018  26.603  13.445
30187W        W98592   9.380  32.423   2.315
30188W        W98593  43.773  28.950  11.560
30189W        W98594  40.138  29.965   3.673
30190W        W98595   9.902  35.877   0.822
30191W        W98596  17.580  12.259   0.726
30192W        W98597  44.313  38.040   4.593
30193W        W98598   4.413  13.013   4.584
30194W        W98599  25.166  10.594   3.709
30195W        W98600  26.460  32.333  12.987
30196W        W98601   1.930  40.786   3.444
30197W        W98602  15.176  31.491  12.843
30198W        W98603  21.156  34.443  12.645
30199W        W98604  40.901  33.872  12.557
30200W        W98605  21.540  38.491   2.936
30201W        W98606  25.685  12.816  11.497
30202W        W98607   7.084  23.202  13.918
30203W        W98608  35.296  41.417  14.994
30204W        W98609  19.538   4.509  12.029
30205W        W98610  13.688   3.893   3.547
30206W        W98611  41.552  24.499  11.423
30207W        W98612   6.534  20.741  12.513
30208W        W98613  38.510  24.060  14.799
30209W        W98614  22.981  44.128   1.853
30210W        W98615   1.751  37.838  11.420
30211W        W98616  19.065  35.593   0.895
30212W        W98617   9.620  44.332   3.363
30213W        W98618  43.545  35.786  11.086
30214W        W98619   9.354  38.905   2.770
30215W        W98620  14.486   4.694  12.181
30216W        W98621  27.521  27.903   0.798
30217W        W98622   9.538   4.934  14.694
30218W        W98623  35.591  17.905  10.521
30219W        W98624  10.228   0.300   0.711
30220W        W98625  31.670  12.879  11.592
30221W        W98626   2.374   4.759  14.206
30222W        W98627  29.034   4.995   0.961
30223W        W98628  13.219  27.562  11.508
30224W        W98629  35.139   0.943   4.134
30225W        W98630  43.194  18.849  14.926
30226W        W98631   2.044  10.196  12.226
30227W        W98632  34.722  43.005  12.557
30228W        W98633  24.939  34.675  11.577
30229W        W98634  10.823  27.084  13.030
30230W        W98635  16.044  17.811  13.044
30231W        W98636  25.026   4.355  12.551
30232W        W98637   1.981  35.090  14.911
30233W        W98638  12.692  15.119  10.671
30234W        W98639  41.764  13.189  12.224
30235W        W98640  13.591  44.385   2.704
30236W        W98641  11.255  17.803  13.012
30237W        W98642  10.316  28.281  13.331
30238W        W98643  40.982   0.752  14.464
30239W        W98644  35.664  36.543  12.996
30240W        W98645  42.147  17.094   5.279
30241W        W98646  42.738   0.465  14.912
30242W        W98647  10.748   8.889  10.974
30243W        W98648  24.962  41.365  14.600
30244W        W98649   2.075  19.710  12.348
30245W        W98650  11.618  22.817  12.489
30246W        W98651  26.326   6.821   3.635
30247W        W98652  26.395  41.724  13.910
30248W        W98653  35.983  24.615   4.913
30249W        W98654  16.279  22.422   2.364
30250W        W98655  28.448  11.163   4.067
30251W        W98656  29.435  25.197   2.807
30252W        W98657  14.164  33.594   3.757
30253W        W98658  30.883  34.429   1.252
30254W        W98659  32.512   1.652   2.676
30255W        W98660   7.585  30.672   3.244
30256W        W98661   7.238   9.231   3.428
30257W        W98662   6.068  36.295   2.427
30258W        W98663  14.118  18.212  14.948
30259W        W98664  31.294  19.441   1.856
30260W        W98665   7.345   5.826  10.525
30261W        W98666  32.545  13.486  10.498
30262W        W98667  39.508   7.188   1.900
30263W        W98668  27.166  33.518  10.547
30264W        W98669  16.686   4.754  10.916
30265W        W98670  10.179  15.660   1.889
30266W        W98671  27.148  41.530  14.146
30267W        W98672  20.677   3.877   3.158
30268W        W98673  25.018  41.254  11.062
30269W        W98674  21.622   1.940  11.237
30270W        W98675  28.451   7.819   2.713
30271W        W98676  40.135  34.640   1.400
30272W        W98677  16.011   5.803   3.806
30273W        W98678  33.924  21.503   3.744
30274W        W98679   5.101  22.154   4.585
30275W        W98680   9.388  30.338  14.869
30276W        W98681  40.476   1.436  10.909
30277W        W98682  12.904   1.350   2.597
30278W        W98683  31.871  37.999   3.357
30279W        W98684  12.810  14.611   3.072
30280W        W98685  19.954  38.159  14.454
30281W        W98686  15.175  36.648   1.834
30282W        W98687  33.347  36.781   4.534
30283W        W98688  40.898  14.086   3.296
30284W        W98689  24.669  22.943   3.283
30285W        W98690  34.963  26.584  12.551
30286W        W98691  18.105  27.480   2.844
30287W        W98692  11.097  15.545  10.946
30288W        W98693  42.503   7.425   2.424
30289W        W98694  10.399  31.694   0.337
30290W        W98695  15.088  31.817   2.440
30291W        W98696  27.996  12.198   0.774
30292W        W98697  43.136   1.431   1.515
30293W        W98698  25.952  40.808   4.650
30294W        W98699  22.435  32.977  13.568
30295W        W98700  18.653  32.491  13.536
30296W        W98701   5.097  22.300   0.001
30297W        W98702  32.128   5.001  11.098
30298W        W98703   0.045  21.530  10.012
30299W        W98704  20.941  23.372   0.457
30300W        W98705  17.264   8.369   2.725
30301W        W98706   0.385   1.753  13.337
30302W        W98707   0.005  17.164   2.283
30303W        W98708  28.053  13.031  12.561
30304W        W98709   1.140  33.995   3.079
30305W        W98710  39.856  11.286   3.599
30306W        W98711  34.034  13.387   2.275
30307W        W98712  11.369  41.534  11.994
30308W        W98713   9.727  17.195  11.398
30309W        W98714  13.595  14.079   3.742
30310W        W98715  43.967  37.613   4.528
30311W        W98716  12.695  32.395   4.546
30312W        W98717  23.999   8.724   1.270
30313W        W98718   3.176  21.762  13.148
30314W        W98719   5.987  13.171   0.226
30315W        W98720  17.302  30.051   3.833
30316W        W98721  28.242  27.649  10.722
30317W        W98722  22.068  13.152  12.375
30318W        W98723   9.937  44.902  11.229
30319W        W98724  38.936   5.738   2.473
30320W        W98725   3.969  24.575  13.843
30321W        W98726  16.829   8.287  11.860
30322W        W98727   0.821   2.757  13.013
30323W        W98728  33.470  22.297   3.831
30324W        W98729  24.863  28.615   2.375
30325W        W98730  20.261  44.427  13.083
30326W        W98731   7.754  43.439   3.234
30327W        W98732  43.140   7.475   3.262
30328W        W98733  18.217  42.490  12.871
30329W        W98734  28.096  33.606   3.486
30330W        W98735  16.157  32.094  12.513
30331W        W98736  16.781  38.024   0.435
30332W        W98737  21.626  15.578   3.750
30333W        W98738  31.976   4.069  12.290
30334W        W98739  39.172  17.478   3.612
30335W        W98740   0.744  29.755  12.320
30336W        W98741  25.118  13.609  10.697
30337W        W98742   9.164  36.772   4.290
30338W        W98743  12.083  21.220  11.686
30339W        W98744   8.307  36.397  14.829
30340W        W98745  13.810  37.062  13.328
30341W        W98746  10.257  33.687  12.058
30342W        W98747  22.172  11.778  12.495
30343W        W98748  26.706  19.891  11.160
30344W        W98749   7.767  42.229  14.830
30345W        W98750   8.348  22.706  11.157
30346W        W98751  14.102  27.103  12.491
30347W        W98752  34.915  34.699   1.881
30348W        W98753  41.886  14.445  11.918
30349W        W98754  15.039  22.260   0.006
30350W        W98755   4.327  39.999  13.031
30351W        W98756  33.134  43.794  14.116
30352W        W98757   1.946  25.023   3.726
30353W        W98758  19.268   1.119  14.919
30354W        W98759  31.059  29.001  14.394
30355W        W98760  19.936  17.673   0.341
30356W        W98761  44.270  19.597  10.263
30357W        W98762  40.555   4.338   1.472
30358W        W98763   3.985   7.178  13.931
30359W        W98764   7.934  28.984   2.576
30360W        W98765  19.194  23.154  14.780
30361W        W98766  23.681   6.241  14.363
30362W        W98767  17.061  44.040  14.927
30363W        W98768   9.820  38.019   0.353
30364W        W98769  43.740  37.392   0.300
30365W        W98770  40.181  27.155  13.533
30366W        W98771  33.626  23.251   3.951
30367W        W98772  27.077  22.654  10.586
30368W        W98773  13.127  37.388  11.088
30369W        W98774   9.752  31.135  13.345
30370W        W98775  36.985  33.099   4.427
30371W        W98776  15.128  40.695   2.909
30372W        W98777  15.703  26.427   0.424
30373W        W98778  41.289  35.557   1.211
30374W        W98779  39.139  27.681   3.623
30375W        W98780  26.927   4.680   2.707
30376W        W98781  32.174  14.877   0.919
30377W        W98782   5.438  18.331   1.414
30378W        W98783  16.714  33.108  11.271
30379W        W98784  41.609  28.658   0.503
30380W        W98785  40.058  14.061   3.497
30381W        W98786  39.481  43.966  11.558
30382W        W98787  18.655  13.130  11.400
30383W        W98788  44.684  36.947  11.709
30384W        W98789   7.176  14.860   4.568
30385W        W98790  24.959  25.032  13.870
30386W        W98791  40.878  27.232  13.924
30387W        W98792  42.192  17.259  11.017
30388W        W98793  24.912   9.829  12.486
30389W        W98794  21.684  41.874   3.337
30390W        W98795  31.337  39.339   1.879
30391W        W98796  19.664   4.503  10.652
30392W        W98797  39.593   7.889  12.467
30393W        W98798   8.670  15.213   2.164
30394W        W98799   0.832  38.115  13.858
30395W        W98800  24.446  33.024  13.583
30396W        W98801  14.028  16.120  14.516
30397W        W98802  38.501  17.310   1.188
30398W        W98803  13.227  11.113   3.141
30399W        W98804   7.709  38.959  10.581
30400W        W98805  32.207  23.844   4.462
30401W        W98806  42.904  10.560   0.643
30402W        W98807  38.109  19.355  11.039
30403W        W98808  24.399  22.303  14.994
30404W        W98809  23.009  10.617  14.768
30405W        W98810  34.935  11.020   1.158
30406W        W98811  26.175   7.672   2.856
30407W        W98812  44.427  18.697  12.079
30408W        W98813  14.168  41.580  12.464
30409W        W98814  44.456  35.070   4.121
30410W        W98815  43.313  19.026   1.913
30411W        W98816  12.995  10.468  12.982
30412W        W98817   9.033  21.294   1.553
30413W        W98818  42.744  34.099  10.557
30414W        W98819  24.934  44.055   1.601
30415W        W98820   6.064  32.099   4.996
30416W        W98821  37.026  35.391   1.142
30417W        W98822  19.598  16.695  11.904
30418W        W98823  16.076  37.003  14.779
30419W        W98824  24.311  22.852   4.133
30420W        W98825  35.702  14.733  10.790
30421W        W98826   7.667  36.562   2.358
30422W        W98827  24.774  42.665   3.386
30423W        W98828  15.314  34.983  13.444
30424W        W98829   1.032  24.509  14.430
30425W        W98830   7.842  29.453  13.064
30426W        W98831  44.430  15.029  12.874
30427W        W98832  34.003  12.132  14.377
30428W        W98833  32.942  38.519  11.697
30429W        W98834   6.611   1.921  13.004
30430W        W98835  17.194  15.053   1.231
30431W        W98836  19.345  10.664  13.766
30432W        W98837  38.401  20.548   1.687
30433W        W98838   3.876  40.012   0.601
30434W        W98839   8.934  12.788  14.885
30435W        W98840   2.223  37.637   2.762
30436W        W98841  37.893  13.835  11.601
30437W        W98842   3.895  27.006  10.493
30438W        W98843  41.543   7.246  10.959
30439W        W98844   1.742  15.811   4.063
30440W        W98845   8.183   4.387  11.173
30441W        W98846   8.521   4.880  11.212
30442W        W98847  43.349  15.209  10.589
30443W        W98848  30.131   5.893   2.745
30444W        W98849   1.885  34.132  13.363
30445W        W98850  13.220  20.987  12.463
30446W        W98851  21.148  12.660  11.233
30447W        W98852  44.081  43.340  13.315
30448W        W98853   4.865  42.921   1.126
30449W        W98854   4.758  34.729  10.258
30450W        W98855  32.109  32.422   0.215
30451W        W98856  42.471  21.414   4.552
30452W        W98857  44.793  27.999   3.843
30453W        W98858  33.956   4.316   4.223
30454W        W98859   0.822  12.719  11.170
30455W        W98860  14.289  12.301   3.722
30456W        W98861  24.094  29.676  12.063
30457W        W98862  11.722  28.148  11.504
30458W        W98863  35.594   2.432  11.975
30459W        W98864  36.535   3.243  13.408
30460W        W98865  18.541  10.547   4.845
30461W        W98866  27.495   8.451   3.463
30462W        W98867  26.656  41.016   1.255
30463W        W98868   0.823  12.653   1.159
30464W        W98869  38.316  40.856   0.348
30465W        W98870  16.762  22.961   4.056
30466W        W98871  39.465   3.609  12.667
30467W        W98872  31.493   3.261   2.760
30468W        W98873  44.201  26.471   0.366
30469W        W98874  21.199  37.439  14.252
30470W        W98875  35.491  22.416  12.585
30471W        W98876  35.909  39.484   2.732
30472W        W98877  23.830  14.656  11.424
30473W        W98878   2.062  32.701   4.176
30474W        W98879  32.946  36.148  13.142
30475W        W98880  31.303   9.809   1.338
30476W        W98881  18.663  23.193  12.984
30477W        W98882  25.643   8.364  13.520
30478W        W98883  39.229  36.761  11.077
30479W        W98884  30.582   2.768  11.133
30480W        W98885   3.362  33.592  10.813
30481W        W98886  20.842  30.007   3.919
30482W        W98887  18.378  22.224   3.130
30483W        W98888   3.969  19.693  11.771
30484W        W98889  18.366  31.082   0.256
30485W        W98890  41.811   8.625   2.108
30486W        W98891   8.950  28.380  11.573
30487W        W98892   0.369   7.466  14.677
30488W        W98893  17.365  23.072  11.605
30489W        W98894  40.219  10.692   1.299
30490W        W98895  10.402   9.242  10.759
30491W        W98896  28.467  32.016  11.797
30492W        W98897   6.608   2.091   2.206
30493W        W98898  14.187   7.448  11.662
30494W        W98899  20.753  25.205   3.292
30495W        W98900  30.669  18.331  10.036
30496W        W98901  22.776  21.496  14.915
30497W        W98902  37.639  30.837   0.205
30498W        W98903  10.367  28.027  12.865
30499W        W98904  13.742  39.975  13.768
30500W        W98905  20.778  22.137   3.570
30501W        W98906  34.105   1.743  14.013
30502W        W98907   9.556   0.444  14.950
30503W        W98908  20.645   9.275  14.484
30504W        W98909   0.701  27.488   3.777
30505W        W98910  26.280  30.645   1.705
30506W        W98911  42.556   4.130   4.066
30507W        W98912  26.185  23.563  13.069
30508W        W98913  16.214  29.987   2.087
30509W        W98914  23.537  26.713  10.965
30510W        W98915   2.695  40.490   2.773
30511W        W98916  43.602   2.159   3.665
30512W        W98917  31.644   9.101   1.177
30513W        W98918  29.178  20.099   1.822
30514W        W98919  12.838  14.638  12.255
30515W        W98920  29.677  10.549   4.367
30516W        W98921   1.177  44.575   2.245
30517W        W98922  21.542   3.260  10.610
30518W        W98923  14.865  25.291  13.591
30519W        W98924   3.707  43.000   1.905
30520W        W98925   9.736  11.822   2.977
30521W        W98926  32.087  19.857   1.095
30522W        W98927  39.432  42.478   3.935
30523W        W98928   8.385  40.894  13.972
30524W        W98929  18.621  10.638  11.953
30525W        W98930  20.088  42.273   4.541
30526W        W98931   6.427  33.512  10.760
30527W        W98932  11.629  26.683  12.726
30528W        W98933   6.143   1.497   1.447
30529W        W98934  37.489   4.176   2.632
30530W        W98935  15.590  40.006   0.871
30531W        W98936  38.990  15.498   1.970
30532W        W98937  33.952  15.306  10.860
30533W        W98938  29.714  35.552   3.097
30534W        W98939  30.563   7.026   5.036
30535W        W98940  25.051  15.137   1.852
30536W        W98941  31.010  36.476  14.836
30537W        W98942  28.292  29.044   1.377
30538W        W98943  22.638  18.975   3.657
30539W        W98944  42.921  34.586  10.380
30540W        W98945  33.229  38.428   3.431
30541W        W98946  39.999   5.920  13.771
30542W        W98947  42.448  33.465  13.107
30543W        W98948   3.188  22.801   4.291
30544W        W98949  24.686  12.816  10.731
30545W        W98950  35.405  43.735  12.581
30546W        W98951   3.319  14.713   1.013
30547W        W98952  13.530   7.501   2.874
30548W        W98953   4.006   1.779   3.830
30549W        W98954  28.538  44.378   2.246
30550W        W98955  16.112   4.930  14.769
30551W        W98956  13.117  22.008  12.972
30552W        W98957  20.928  22.138   1.884
30553W        W98958  16.337  29.261  12.913
30554W        W98959  26.113  21.876  12.470
30555W        W98960  29.487  22.196   3.698
30556W        W98961  27.103  25.547  14.624
30557W        W98962  14.196  19.052  10.734
30558W        W98963   9.589   7.960  12.132
30559W        W98964  27.360  25.458   3.894
30560W        W98965  28.143  19.288   1.818
30561W        W98966   1.006  30.847   3.324
30562W        W98967  27.163  39.421  10.577
30563W        W98968  27.075  27.005  11.390
30564W        W98969   1.718  25.515   1.290
30565W        W98970  36.114  28.759   4.158
30566W        W98971  19.093  26.030  10.264
30567W        W98972  29.586  27.535   4.032
30568W        W98973  29.647  37.732  12.439
30569W        W98974   9.905  22.696   0.039
30570W        W98975  28.694  36.250  11.136
30571W        W98976  34.898  10.052  13.338
30572W        W98977  15.842  13.105   1.886
30573W        W98978  26.347  28.560   2.221
30574W        W98979  21.262  39.460  14.261
30575W        W98980  29.606   7.410  13.354
30576W        W98981  15.186  43.041  12.037
30577W        W98982  32.766  23.299   3.892
30578W        W98983  12.207  13.627   2.672
30579W        W98984  37.843   6.882  13.292
30580W        W98985  19.874  43.499  10.704
30581W        W98986  42.012   1.465  12.012
30582W        W98987  17.750  22.138  12.994
30583W        W98988  31.239  44.343  11.699
30584W        W98989  37.272  39.321  13.046
30585W        W98990  37.081  20.591  13.419
30586W        W98991   0.620  39.984  12.227
30587W        W98992  30.619  22.980   2.536
30588W        W98993   3.564   9.460  14.376
30589W        W98994  17.072  26.064  13.073
30590W        W98995  43.067  14.837  10.851
30591W        W98996  20.030  11.741  13.079
30592W        W98997  11.645  42.016  10.960
30593W        W98998  14.999   9.288  11.060
30594W        W98999  27.466  41.833  10.455
30595W        W99000  25.045  30.667   2.246
30596W        W99001   5.411   5.223   2.251
30597W        W99002  21.059  15.604  14.881
30598W        W99003  37.008  25.159   3.545
30599W        W99004  22.294  18.989   2.845
30600W        W99005  15.845  12.817  13.593
30601W        W99006  16.493  41.886   1.887
30602W        W99007  15.797  17.180   0.748
30603W        W99008  41.736  24.551   3.061
30604W        W99009  28.362  25.754   1.080
30605W        W99010  11.046  11.106   1.369
30606W        W99011  35.444  44.275  13.369
30607W        W99012  14.135  26.435   2.773
30608W        W99013   5.142  34.624  11.105
30609W        W99014  43.724  25.452  14.550
30610W        W99015  39.836  38.574   0.903
30611W        W99016  13.061  27.128   3.285
30612W        W99017  14.207  12.901   1.487
30613W        W99018  40.903  24.552   3.559
30614W        W99019  23.200  39.744   2.447
30615W        W99020  26.680  35.244  14.374
30616W        W99021   4.740   3.430  12.973
30617W        W99022  27.956  39.408  11.143
30618W        W99023   3.967  30.680   1.388
30619W        W99024  29.005   7.784  14.479
30620W        W99025   8.981  17.773   4.079
30621W        W99026  25.906  34.531   2.678
30622W        W99027  24.663  28.627  11.622
30623W        W99028  29.189  44.908   2.758
30624W        W99029  34.144  41.907  12.433
30625W        W99030  32.903  17.253  10.762
30626W        W99031  20.504  34.219   3.253
30627W        W99032   8.672  41.494  13.502
30628W        W99033  30.238  28.073  14.747
30629W        W99034   8.334  36.015   3.324
30630W        W99035  33.526  35.500   4.482
30631W        W99036   7.395   9.425  13.825
30632W        W99037  21.959  24.694   3.223
30633W        W99038  14.242  43.789  11.225
30634W        W99039   4.449  27.567   4.375
30635W        W99040  12.611  22.091  12.916
30636W        W99041  35.948  42.196   2.816
30637W        W99042   2.156  12.581  12.123
30638W        W99043   1.864   8.703  13.738
30639W        W99044  26.709  36.585  12.002
30640W        W99045  28.777  30.594  12.400
30641W        W99046   2.252  14.079  13.057
30642W        W99047  22.772  15.873   0.436
30643W        W99048  34.929  15.057  10.375
30644W        W99049  39.402  44.791   4.158
30645W        W99050  28.400   4.684   4.633
30646W        W99051   7.630  22.507   0.275
30647W        W99052   5.848  35.826   2.413
30648W        W99053  37.452  23.259   1.537
30649W        W99054  17.395  37.363  14.468
30650W        W99055  27.420  32.190   4.064
30651W        W99056  24.196  35.635   1.210
30652W        W99057  22.260   4.020  13.043
30653W        W99058  19.813  31.072  12.935
30654W        W99059  39.952   1.060   2.584
30655W        W99060  28.179  33.635  10.165
30656W        W99061   7.654  16.139   0.370
30657W        W99062  25.390  24.031  14.819
30658W        W99063  31.183  35.811  13.837
30659W        W99064  34.635  11.337  12.823
30660W        W99065  15.048  21.013   2.886
30661W        W99066  35.118  30.179   3.599
30662W        W99067  27.547  28.617   2.282
30663W        W99068   2.995  21.451  10.802
30664W        W99069   1.922  33.074   0.435
30665W        W99070   5.940  37.646  11.477
30666W        W99071  12.465  23.853   3.768
30667W        W99072  10.311  19.524   4.069
30668W        W99073  12.311  21.297  10.183
30669W        W99074  31.920  13.580   3.644
30670W        W99075  37.787  23.311  13.882
30671W        W99076   0.380  25.278  14.040
30672W        W99077  22.596  20.509  13.139
30673W        W99078   8.751  23.459  11.446
30674W        W99079   8.231  44.967   2.421
30675W        W99080   4.334  22.799   0.662
30676W        W99081  10.660  26.033  14.423
30677W        W99082  22.125  36.481   4.436
30678W        W99083  37.784  10.364   3.745
30679W        W99084  28.589  28.084   3.656
30680W        W99085  19.047  14.109  12.017
30681W        W99086  36.962   5.278  12.897
30682W        W99087  16.666  31.761  13.458
30683W        W99088  10.105  16.103  14.378
30684W        W99089  12.823  28.981   2.337
30685W        W99090  42.488  24.476  14.951
30686W        W99091  18.598  12.564   1.831
30687W        W99092  16.557  26.142  12.909
30688W        W99093   4.702  27.423   2.257
30689W        W99094  24.894  10.362  13.790
30690W        W99095  11.528  27.161   2.244
30691W        W99096  37.517   8.198   0.455
30692W        W99097  41.941   9.036   4.611
30693W        W99098  32.596  30.981   3.639
30694W        W99099  28.198  29.429   2.272
30695W        W99100  41.414  37.376  10.630
30696W        W99101  25.048  22.432  10.927
30697W        W99102  32.113  22.016   0.530
30698W        W99103  29.560   7.332  12.838
30699W        W99104  34.051  25.327   0.742
30700W        W99105   0.949   0.618  12.494
30701W        W99106  14.334  34.973  10.934
30702W        W99107  40.524   1.515  10.357
30703W        W99108   9.513  13.915   3.403
30704W        W99109   9.060  25.503   3.710
30705W        W99110  30.422  13.659   3.861
30706W        W99111  24.238  15.663  10.335
30707W        W99112  34.978  31.549  14.353
30708W        W99113   1.165  43.970  10.701
30709W        W99114  21.492   3.730   4.828
30710W        W99115   2.153   6.998  11.370
30711W        W99116  23.681  33.536   0.361
30712W        W99117   0.447  17.209   4.514
30713W        W99118   7.137  37.599  12.420
30714W        W99119   7.635  10.815   1.982
30715W        W99120  30.471  27.633   1.406
30716W        W99121  42.968  42.749  10.376
30717W        W99122  25.481  27.807  13.069
30718W        W99123  13.179   7.349  10.706
30719W        W99124  21.122  15.672  10.557
30720W        W99125  23.050  20.230  13.131
30721W        W99126  29.628  12.971   0.730
30722W        W99127  10.835  25.484  14.920
30723W        W99128  23.143  23.573   0.482
30724W        W99129  32.932  17.016  13.897
30725W        W99130  20.216   3.632   3.276
30726W        W99131  28.235  12.117  14.822
30727W        W99132  30.831   9.262   3.688
30728W        W99133  43.250  18.095   0.275
30729W        W99134  43.591  26.524  10.507
30730W        W99135  13.723  12.864   3.274
30731W        W99136   3.055  24.276  12.402
30732W        W99137  20.023  38.117   2.280
30733W        W99138   8.761  35.896   0.770
30734W        W99139  34.065  32.562   4.599
30735W        W99140  13.609  31.454  13.915
30736W        W99141   0.988   5.890   2.194
30737W        W99142  28.170  15.506   3.307
30738W        W99143  14.413  21.982   1.543
30739W        W99144  44.917  40.475  12.947
30740W        W99145  24.437  24.584  13.291
30741W        W99146  14.084  44.517   2.749
30742W        W99147  22.937   9.360  11.128
30743W        W99148   2.074   1.883   0.851
30744W        W99149  22.082   1.286  12.331
30745W        W99150  30.858  33.121  11.657
30746W        W99151   6.187  27.962   1.842
30747W        W99152  39.913  15.063   3.118
30748W        W99153   5.839  20.476   4.207
30749W        W99154  27.452  23.774   1.279
30750W        W99155  21.329   3.824   1.847
30751W        W99156  27.432   8.224  11.122
30752W        W99157  11.245   2.730  13.456
30753W        W99158   0.014  12.845   4.243
30754W        W99159  12.143   1.213   2.798
30755W        W99160  31.621  39.706  14.035
30756W        W99161  34.606  15.599  13.402
30757W        W99162  31.881   8.806  11.450
30758W        W99163  21.763  44.398  11.077
30759W        W99164  41.827   7.852   1.313
30760W        W99165   5.068  16.159   1.276
30761W        W99166   4.408  40.452   1.946
30762W        W99167  27.946   9.804   0.887
30763W        W99168  13.780   9.655   3.981
30764W        W99169  25.553  41.889  11.258
30765W        W99170  31.634  12.127  14.084
30766W        W99171  40.795  36.524   2.935
30767W        W99172  12.407  26.229  12.893
30768W        W99173   7.700  33.124  14.435
30769W        W99174  15.076  12.337   0.177
30770W        W99175  20.571  25.544  14.855
30771W        W99176  11.714  23.142  14.835
30772W        W99177  20.808   9.386   4.220
30773W        W99178  15.865  19.211  11.870
30774W        W99179  19.184  27.221  14.333
30775W        W99180   2.159  23.304   1.429
30776W        W99181   8.783  37.706  11.431
30777W        W99182  29.081  33.574  11.961
30778W        W99183  12.410  41.803   0.856
30779W        W99184  29.227  25.453  14.498
30780W        W99185   8.329  21.030   1.466
30781W        W99186  32.026  42.407  11.552
30782W        W99187  12.941   2.367   3.313
30783W        W99188  42.500  20.580  13.411
30784W        W99189  28.747  17.270   0.405
30785W        W99190   6.154   3.914  14.797
30786W        W99191  19.650  18.313   1.428
30787W        W99192  13.198  17.970   0.510
30788W        W99193  25.441  31.664   0.289
30789W        W99194  26.934  25.099  10.666
30790W        W99195   3.027  33.891   2.755
30791W        W99196  13.577  22.809  13.046
30792W        W99197  30.906   6.387   3.147
30793W        W99198   5.137  34.077  12.517
30794W        W99199  18.169  34.222   0.446
30795W        W99200  26.677  37.308   3.685
30796W        W99201  18.853   2.115   2.329
30797W        W99202  28.536  40.062  12.548
30798W        W99203  11.738  28.002   1.446
30799W        W99204  44.773  21.264   5.018
30800W        W99205  21.479  21.131   3.258
30801W        W99206  13.558  13.066  12.372
30802W        W99207  11.392  23.636   3.862
30803W        W99208  22.613  30.865  13.309
30804W        W99209  21.809  40.666   0.171
30805W        W99210  32.028  31.097  10.646
30806W        W99211  39.001   7.144  13.836
30807W        W99212  23.016   6.732  10.720
30808W        W99213   0.442  31.633   0.773
30809W        W99214  14.621  12.401  13.521
30810W        W99215  35.565  15.793  13.093
30811W        W99216  44.326  42.970   2.825
30812W        W99217  38.594  44.853  11.093
30813W        W99218  39.479  33.494   3.699
30814W        W99219  43.827   6.284  13.740
30815W        W99220  28.953  28.493  11.783
30816W        W99221  10.194  42.505   3.364
30817W        W99222  26.761  11.369  12.524
30818W        W99223  39.994  21.387  14.766
30819W        W99224   4.939  19.441  13.474
30820W        W99225  29.569   1.841  14.185
30821W        W99226  35.019   1.468  10.695
30822W        W99227   9.835  21.469   3.711
30823W        W99228  29.439  23.893   1.500
30824W        W99229  24.049  12.806  11.975
30825W        W99230  44.996  44.896  13.685
30826W        W99231  42.501  35.976   0.533
30827W        W99232  15.137  34.541   3.210
30828W        W99233  31.494  23.579  10.726
30829W        W99234  43.669  41.006  11.134
30830W        W99235  19.197  31.990  14.847
30831W        W99236   6.166  31.519  14.992
30832W        W99237   5.487  37.844  13.449
30833W        W99238  36.335   2.623  12.516
30834W        W99239  22.652  20.009  10.670
30835W        W99240  27.747  25.560   2.970
30836W        W99241  32.221  23.151   2.177
30837W        W99242  44.751  13.198  10.641
30838W        W99243  14.240  27.411   0.311
30839W        W99244  30.901   3.854   0.895
30840W        W99245  17.086  44.252   1.335
30841W        W99246   7.217  28.044   2.802
30842W        W99247   8.466  35.390   3.806
30843W        W99248  40.440  32.561  13.787
30844W        W99249  19.258  31.748  11.925
30845W        W99250  19.260  17.585   4.605
30846W        W99251  16.253   3.009  13.979
30847W        W99252  10.902  14.244   3.266
30848W        W99253   8.757  34.063  13.073
30849W        W99254  23.878  17.277  11.710
30850W        W99255  10.746  24.541  14.515
30851W        W99256  41.714  12.288  11.678
30852W        W99257   8.231  17.746   3.575
30853W        W99258   9.492  21.751  12.424
30854W        W99259   8.338  28.165   1.472
30855W        W99260  28.945  42.016   2.954
30856W        W99261  26.581  43.532  14.355
30857W        W99262  27.248  27.872  12.404
30858W        W99263   4.874  35.058   3.338
30859W        W99264  35.626  22.789   1.748
30860W        W99265  27.532  15.064  14.043
30861W        W99266  43.240  15.837   2.899
30862W        W99267  20.238  24.650  11.642
30863W        W99268   1.691  11.489  13.935
30864W        W99269  33.044  29.200  14.037
30865W        W99270  13.054  26.386  12.422
30866W        W99271  19.796   9.777  11.138
30867W        W99272  28.992  37.541  14.882
30868W        W99273  26.305   0.372  12.462
30869W        W99274  11.345  34.975  12.166
30870W        W99275   3.465  32.644   0.721
30871W        W99276   5.207   3.783  11.464
30872W        W99277  23.708  16.797   2.361
30873W        W99278  44.790  22.320  14.617
30874W        W99279  39.536  14.054   4.162
30875W        W99280  42.272  16.184  11.591
30876W        W99281  37.647  21.014   2.460
30877W        W99282  32.896  12.698  13.998
30878W        W99283  18.443  33.163  12.989
30879W        W99284  32.414  14.322  13.300
30880W        W99285  23.204  41.193   2.334
30881W        W99286  17.123   7.211   3.152
30882W        W99287   9.631  22.482   3.232
30883W        W99288  42.468   0.784  13.843
30884W        W99289  41.963   1.290  10.686
30885W        W99290  35.897  11.731  12.596
30886W        W99291  38.497   5.770  14.528
30887W        W99292  35.367  25.065  11.167
30888W        W99293  23.894  11.707   0.494
30889W        W99294   8.747  18.546   0.307
30890W        W99295  42.940  42.074   1.784
30891W        W99296  10.528  25.448  10.697
30892W        W99297  22.106  43.330   3.207
30893W        W99298  17.382  31.698  10.210
30894W        W99299  17.615   0.485   1.358
30895W        W99300  44.099  12.221  10.695
30896W        W99301  10.790  37.098   0.827
30897W        W99302  12.417  25.887   0.772
30898W        W99303  37.629  31.098   1.678
30899W        W99304   4.055   4.909   0.806
30900W        W99305  35.752   4.731  11.065
30901W        W99306  43.279  20.330  11.662
30902W        W99307   5.297  15.797  13.480
30903W        W99308  31.937  17.061   1.350
30904W        W99309  37.195  41.405   1.233
30905W        W99310  27.100  39.688  13.900
30906W        W99311  11.751  14.813  11.180
30907W        W99312  39.748   1.740   4.204
30908W        W99313  33.084  36.471  11.657
30909W        W99314  21.304  41.331   0.497
30910W        W99315  18.487  19.859   0.002
30911W        W99316  15.456  44.064  13.863
30912W        W99317  39.832  32.907   2.886
30913W        W99318   4.242  42.704   2.827
30914W        W99319  24.065   1.153   0.408
30915W        W99320   0.286   7.231  13.324
30916W        W99321  43.047   1.919   3.829
30917W        W99322  38.340  28.978  13.517
30918W        W99323   7.933  39.783  13.351
30919W        W99324  23.886  42.754  14.056
30920W        W99325  37.895   9.723  14.846
30921W        W99326   6.246  35.026  14.433
30922W        W99327   0.477   9.278   4.568
30923W        W99328  37.881  31.409  14.941
30924W        W99329  12.092  13.100   2.714
30925W        W99330  11.852  37.448  12.058
30926W        W99331  31.895  27.052  12.976
30927W        W99332  40.854  31.659   3.729
30928W        W99333  44.467  44.964   3.857
30929W        W99334  21.256  27.703   0.917
30930W        W99335  27.722  13.313   4.706
30931W        W99336   9.692   1.409   3.805
30932W        W99337  32.625  33.066  12.993
30933W        W99338   4.495  32.916  13.919
30934W        W99339   1.680   7.626  12.558
30935W        W99340   3.702   9.242  13.059
30936W        W99341   9.818   0.848  10.892
30937W        W99342   6.795  23.783   1.258
30938W        W99343  40.165  30.247   4.124
30939W        W99344  24.770  10.949   1.030
30940W        W99345  34.343   7.264   2.229
30941W        W99346  21.681  24.691   0.890
30942W        W99347   5.597  20.738  11.147
30943W        W99348   8.631  12.122   4.710
30944W        W99349  33.555  16.860   0.990
30945W        W99350  31.455  15.343   0.852
30946W        W99351  15.673  32.877  14.552
30947W        W99352  39.282   1.756  10.837
30948W        W99353  26.209  38.782  13.548
30949W        W99354   8.720  11.575   2.800
30950W        W99355  30.383  13.894  13.029
30951W        W99356   3.931  38.835   4.362
30952W        W99357  29.856  40.231  11.374
30953W        W99358   2.726   3.235  13.558
30954W        W99359   3.321  12.913   0.794
30955W        W99360   1.183  16.580  13.021
30956W        W99361  24.618  30.579  13.500
30957W        W99362  35.813  37.645   3.648
30958W        W99363  21.675  13.483   1.942
30959W        W99364  43.781   4.411   1.314
30960W        W99365  30.598  42.249   0.849
30961W        W99366  33.522   4.458   1.900
30962W        W99367  28.672  40.216   3.110
30963W        W99368  20.741   7.831   2.809
30964W        W99369  16.070   8.263  14.728
30965W        W99370  24.974  26.657  13.836
30966W        W99371  42.918   7.382  11.406
30967W        W99372   6.190  38.184  14.865
30968W        W99373  40.537  16.430   3.325
30969W        W99374   9.654  33.323   0.249
30970W        W99375  32.394  43.348  13.920
30971W        W99376   0.836  24.916   0.245
30972W        W99377  19.288   5.360  10.769
30973W        W99378  44.647  29.369   9.897
30974W        W99379  10.680  25.283  13.046
30975W        W99380   7.421  16.118  13.417
30976W        W99381  14.163   8.923   2.126
30977W        W99382  44.340   8.913   0.822
30978W        W99383  43.019  24.872  13.382
30979W        W99384   5.233  10.228   4.779
30980W        W99385  41.074  25.022   2.866
30981W        W99386  16.763   3.406   2.077
30982W        W99387  43.475   3.417   3.355
30983W        W99388  15.301  19.234   1.330
30984W        W99389  27.049  33.954  11.588
30985W        W99390  32.994  36.755   0.235
30986W        W99391  14.502  35.836  13.494
30987W        W99392  33.714  26.126  14.116
30988W        W99393  17.923  33.066  13.850
30989W        W99394   6.778  27.889  12.219
30990W        W99395   9.924  13.238   1.308
30991W        W99396  24.706   5.274   1.871
30992W        W99397  38.410   0.522   0.741
30993W        W99398  42.328  31.132   3.654
30994W        W99399  36.291  29.045   2.567
30995W        W99400  29.960  10.286   3.148
30996W        W99401  42.805  30.066   0.345
30997W        W99402  33.495  34.322   3.860
30998W        W99403  35.560  39.114  12.588
30999W        W99404  24.975  38.221   4.045
31000W        W99405  16.284  17.892  13.836
31001W        W99406  32.156   5.658  11.511
31002W        W99407   0.067   0.876   3.357
31003W        W99408  31.940  17.078   1.876
31004W        W99409  35.472   0.235   2.739
31005W        W99410  15.733   6.158  11.945
31006W        W99411  29.155   4.927   3.192
31007W        W99412  11.709  15.124  12.333
31008W        W99413  34.637  12.210  12.312
31009W        W99414  40.277  31.465   1.788
31010W        W99415  20.266   3.756  13.971
31011W        W99416  15.524  24.055  14.383
31012W        W99417   4.128  42.389   4.082
31013W        W99418   6.871  10.745  14.939
31014W        W99419  14.588   7.237   1.669
31015W        W99420  31.092  36.063   0.394
31016W        W99421  40.776  15.715   3.366
31017W        W99422  36.152  12.405  14.458
31018W        W99423  21.382  24.237   3.650
31019W        W99424  30.784  12.163  11.152
31020W        W99425   6.076  39.899  13.158
31021W        W99426  40.565  41.997  11.032
31022W        W99427  26.816  26.524   9.986
31023W        W99428  10.424   4.371  12.447
31024W        W99429   5.696   4.417  13.373
31025W        W99430   9.221  15.363  11.055
31026W        W99431  41.851  22.271  12.830
31027W        W99432  27.207  30.068  12.145
31028W        W99433  31.138  30.359   1.849
31029W        W99434  34.209  34.530   3.623
31030W        W99435   7.255  41.971  11.241
31031W        W99436  38.941   7.523   9.737
31032W        W99437  34.549  32.448  14.836
31033W        W99438   7.829  37.488   2.583
31034W        W99439  26.384  12.346   1.751
31035W        W99440   9.170  21.191   2.673
31036W        W99441  22.416  11.257  10.135
31037W        W99442  19.323  28.542  14.024
31038W        W99443  32.192  39.941   3.860
31039W        W99444   6.262   2.169   4.605
31040W        W99445  36.070  18.104  10.626
31041W        W99446  16.358  11.752  11.919
31042W        W99447   0.284   3.672   0.794
31043W        W99448   6.148  10.155   2.280
31044W        W99449   0.007  41.301  11.061
31045W        W99450  26.750  30.940  10.683
31046W        W99451  14.613  20.705   0.892
31047W        W99452  44.680   8.827   3.676
31048W        W99453  44.411  18.512  13.029
31049W        W99454  29.687  41.490   1.890
31050W        W99455  21.027  37.498   0.851
31051W        W99456  36.310  30.686  11.124
31052W        W99457  43.944   4.319  13.431
31053W        W99458  11.405  41.587   4.514
31054W        W99459  44.968  20.998  13.965
31055W        W99460  31.940  19.291   3.035
31056W        W99461  17.912  15.269   2.277
31057W        W99462  31.099  10.618  14.335
31058W        W99463  16.617  40.922  11.004
31059W        W99464  26.442   5.297  13.304
31060W        W99465   9.827  12.908  12.443
31061W        W99466  38.496  41.234  11.266
31062W        W99467   6.272   2.970   1.215
31063W        W99468  37.087  12.755   0.937
31064W        W99469  39.563  28.055   1.433
31065W        W99470  43.738  39.068   2.773
31066W        W99471  23.998  28.645   0.354
31067W        W99472  30.663  35.155   1.438
31068W        W99473  15.356  32.014   3.704
31069W        W99474   3.193  32.906  14.987
31070W        W99475   0.528  23.859  12.584
31071W        W99476  40.728  37.012  14.436
31072W        W99477  37.364  25.543  12.183
31073W        W99478  24.847  16.381   3.302
31074W        W99479   1.553  11.300   2.286
31075W        W99480  29.869  34.207  11.540
31076W        W99481  42.599  34.890   0.033
31077W        W99482  16.546  44.289  12.011
31078W        W99483  27.397  24.137   3.195
31079W        W99484  22.707  16.721   3.509
31080W        W99485  31.023  17.073   3.446
31081W        W99486  16.743  28.894  14.074
31082W        W99487  16.623  33.492  12.189
31083W        W99488  39.660  38.118   0.756
31084W        W99489  43.994  11.182   0.476
31085W        W99490   8.542   1.837   2.366
31086W        W99491  22.207  21.943  13.006
31087W        W99492  20.079  31.495   4.950
31088W        W99493   1.007  16.127   4.510
31089W        W99494  14.795   9.787   2.592
31090W        W99495  42.277  39.486   4.115
31091W        W99496  32.318  42.606   1.937
31092W        W99497  24.685  39.001   1.409
31093W        W99498   3.946  43.405   1.658
31094W        W99499  21.602  43.894  11.655
31095W        W99500  20.974  10.179   0.376
31096W        W99501   2.733  24.991   2.327
31097W        W99502  21.573   1.876  13.873
31098W        W99503   3.246  31.019   0.729
31099W        W99504  38.261   6.070  14.887
31100W        W99505  37.008   9.198  12.539
31101W        W99506  37.948   1.027   0.299
31102W        W99507  34.071  11.573   0.999
31103W        W99508  32.913  13.233  13.840
31104W        W99509  16.384   4.338   2.442
31105W        W99510  31.989   6.978   1.215
31106W        W99511  26.573  17.764   4.712
31107W        W99512   9.740  38.500   0.187
31108W        W99513  40.526  39.334   0.807
31109W        W99514  33.200  29.225   1.266
31110W        W99515  10.059  30.421   3.770
31111W        W99516   8.177  12.266  10.575
31112W        W99517  13.140  36.631   1.862
31113W        W99518  23.494   3.370   4.454
31114W        W99519   1.001   6.989  13.067
31115W        W99520  34.091   1.011  10.879
31116W        W99521  22.291   5.352   0.460
31117W        W99522  22.050  18.072   0.831
31118W        W99523  35.498   2.750  10.648
31119W        W99524  28.093   1.210  11.431
31120W        W99525  34.886   8.911   1.791
31121W        W99526  35.335  14.092   3.375
31122W        W99527  16.246  27.008   2.102
31123W        W99528  38.152  41.157  13.971
31124W        W99529  12.329   4.714  12.817
31125W        W99530  40.294  38.868  13.433
31126W        W99531   8.635  32.967   3.676
31127W        W99532  11.322  34.145  14.676
31128W        W99533  31.454  30.554  13.058
31129W        W99534  13.746   8.800   2.573
31130W        W99535  24.156  10.870   1.802
31131W        W99536   4.892  30.006  10.496
31132W        W99537  13.195  42.130  13.453
31133W        W99538  11.617  16.041  11.899
31134W        W99539  40.063  19.533  14.930
31135W        W99540  41.627  44.313  14.805
31136W        W99541  16.286  13.302  12.180
31137W        W99542  40.599  16.760  11.003
31138W        W99543  29.089   1.318   2.744
31139W        W99544  21.459  24.516   3.212
31140W        W99545  38.828   3.820  14.553
31141W        W99546  13.363  27.447   2.310
31142W        W99547  34.312  19.984   1.455
31143W        W99548  23.784  19.168   0.467
31144W        W99549  38.996  39.297   1.440
31145W        W99550  13.445  10.062   4.110
31146W        W99551  25.174   6.411  14.702
31147W        W99552  32.498  16.615   1.518
31148W        W99553  22.666  15.033  11.880
31149W        W99554  14.266  34.200  12.427
31150W        W99555  15.896  20.028   3.091
31151W        W99556   0.238  43.269   0.760
31152W        W99557  39.765  25.479   3.218
31153W        W99558   4.750  21.479  10.919
31154W        W99559  17.068   5.459   2.605
31155W        W99560  11.266  11.047   2.193
31156W        W99561  24.457  44.462  11.196
31157W        W99562  44.975  26.833   0.370
31158W        W99563   9.232  31.671   4.048
31159W        W99564  23.810  33.449  14.828
31160W        W99565  26.071  23.244  14.598
31161W        W99566  42.031  20.836  13.396
31162W        W99567  42.075   9.374   0.085
31163W        W99568   1.966  20.076   4.550
31164W        W99569  39.491  25.033  13.156
31165W        W99570   1.796  16.719  14.977
31166W        W99571  16.496   9.352   5.108
31167W        W99572  40.406  32.411   1.721
31168W        W99573  22.145   2.165  14.412
31169W        W99574  12.413  14.525   3.991
31170W        W99575  19.302   3.856  12.447
31171W        W99576  36.838  32.110   3.694
31172W        W99577   3.456  29.111   3.892
31173W        W99578  39.212  27.208  12.621
31174W        W99579   2.342   8.075  10.261
31175W        W99580  39.509  13.113   2.199
31176W        W99581  15.632  28.135  14.529
31177W        W99582  12.352   5.766  13.964
31178W        W99583  21.941  12.552   2.371
31179W        W99584  26.176  44.566   1.223
31180W        W99585  18.046  20.838  10.627
31181W        W99586  20.161  21.473  10.946
31182W        W99587  44.777  15.111  13.937
31183W        W99588   4.457  31.884   1.281
31184W        W99589  38.874   9.631   3.304
31185W        W99590  42.707  15.038  11.205
31186W        W99591   8.756  30.001  13.017
31187W        W99592   7.407  23.850   4.617
31188W        W99593   0.341   8.119  11.916
31189W        W99594  19.575  38.962  11.470
31190W        W99595   6.185  22.651   1.757
31191W        W99596  16.110  44.484  12.861
31192W        W99597   4.774  27.756  11.350
31193W        W99598  44.830  13.605   2.915
31194W        W99599  43.392   1.966  11.610
31195W        W99600  37.449  43.229   2.877
31196W        W99601  23.735   7.998  11.985
31197W        W99602  17.874  18.653  13.262
31198W        W99603   0.384  23.507   0.796
31199W        W99604  43.559   5.501  11.326
31200W        W99605   3.783  35.507   1.604
31201W        W99606  31.104  13.509  10.742
31202W        W99607  18.738  28.610   0.096
31203W        W99608   6.324  30.396   0.943
31204W        W99609  36.973  22.613  10.782
31205W        W99610  15.800  18.293  14.565
31206W        W99611  28.484   1.234   4.207
31207W        W99612   1.430   1.705   1.216
31208W        W99613  32.690  15.871  11.272
31209W        W99614  33.422   1.821   2.790
31210W        W99615  38.475  11.659   0.706
31211W        W99616  16.777  34.659   0.473
31212W        W99617  35.481  17.675  11.795
31213W        W99618  17.677  11.667   4.193
31214W        W99619  25.416  42.996   4.181
31215W        W99620  25.151  30.490  12.452
31216W        W99621  10.957  34.201   3.674
31217W        W99622  26.909  39.826  13.366
31218W        W99623  10.301  20.532  12.589
31219W        W99624  25.792  17.595  13.034
31220W        W99625   4.851  17.807   2.961
31221W        W99626  24.036  14.346   1.606
31222W        W99627  18.835  11.363  13.831
31223W        W99628   4.445  15.364  12.417
31224W        W99629   1.514  39.036  13.476
31225W        W99630  15.922  36.058   1.378
31226W        W99631  33.178  28.543  12.074
31227W        W99632  38.637   4.597   3.215
31228W        W99633  29.415  29.076   2.325
31229W        W99634  29.842   1.471   0.034
31230W        W99635  33.697  41.754  11.730
31231W        W99636  36.275  18.573   4.181
31232W        W99637  31.513  29.661   0.023
31233W        W99638  32.125  36.826  13.766
31234W        W99639  17.842  24.517  12.049
31235W        W99640  44.583  16.039   3.749
31236W        W99641  43.239   1.395  11.195
31237W        W99642  25.963  29.000   2.730
31238W        W99643  38.380   7.345  10.690
31239W        W99644  38.187   6.609  11.390
31240W        W99645  30.386  18.632   1.220
31241W        W99646  15.238   8.682   2.077
31242W        W99647  15.942  42.244  12.461
31243W        W99648  17.760   6.283   3.776
31244W        W99649   1.880  11.273   0.884
31245W        W99650  31.829  13.077  12.555
31246W        W99651   6.153  11.878  14.030
31247W        W99652  42.857  28.031  13.550
31248W        W99653   3.312  14.849  13.730
31249W        W99654  37.708  38.580  10.736
31250W        W99655  38.497  35.591   3.208
31251W        W99656  39.667  43.343   1.559
31252W        W99657  44.753   7.707  12.913
31253W        W99658  42.179  44.813  10.493
31254W        W99659  24.134  39.533   3.220
31255W        W99660  40.410  34.129  13.505
31256W        W99661  37.499  13.429   2.492
31257W        W99662   7.717  43.804   0.876
31258W        W99663  36.004  10.185   0.606
31259W        W99664  37.560  26.960  10.940
31260W        W99665  21.980  44.735   0.539
31261W        W99666  23.428  41.287   1.307
31262W        W99667  16.140  36.377  10.336
31263W        W99668  12.291   4.369  13.541
31264W        W99669  31.578   5.369  12.893
31265W        W99670   9.412  25.470  12.782
31266W        W99671  44.927  32.830   3.309
31267W        W99672  23.768  34.532  13.306
31268W        W99673  27.573  16.033  12.202
31269W        W99674   3.206  39.874   3.418
31270W        W99675  18.035  23.754  11.609
31271W        W99676  41.006  27.779   4.053
31272W        W99677  44.948  20.528  13.533
31273W        W99678  10.142  41.231  13.367
31274W        W99679  31.112  28.950  11.506
31275W        W99680  40.659  26.082   2.222
31276W        W99681   2.079  19.987  11.183
31277W        W99682  21.117   6.262   4.008
31278W        W99683  12.283  24.372   4.937
31279W        W99684  24.189  42.083   4.507
31280W        W99685   4.753   2.002   0.373
31281W        W99686  36.678  35.014  10.738
31282W        W99687  20.823  26.773  14.257
31283W        W99688  39.520   0.807   0.355
31284W        W99689   9.283  21.355  11.637
31285W        W99690   8.725   5.641  14.875
31286W        W99691   1.880  20.360  14.930
31287W        W99692   7.672  11.662  14.010
31288W        W99693  27.756  36.477   4.054
31289W        W99694  13.824  21.136  11.725
31290W        W99695  35.139   0.083  12.555
31291W        W99696  28.316  29.537  11.546
31292W        W99697  15.652  22.197  11.666
31293W        W99698  24.503  38.564   1.960
31294W        W99699  23.339  37.792  11.048
31295W        W99700  32.385   3.810   2.965
31296W        W99701  36.637  10.308   5.244
31297W        W99702  43.364  25.737  14.836
31298W        W99703  16.047  10.765  12.078
31299W        W99704  16.686  12.530  13.790
31300W        W99705  22.646  35.446   4.024
31301W        W99706  40.877   6.474   0.435
31302W        W99707   6.222  20.199   2.665
31303W        W99708   4.679  44.564   4.850
31304W        W99709   0.819  18.023   2.288
31305W        W99710  11.315  24.535   1.478
31306W        W99711  13.703  13.403  14.005
31307W        W99712  34.356  23.126   4.030
31308W        W99713   8.213  15.598   3.627
31309W        W99714  39.475  13.641   0.904
31310W        W99715  26.667   9.422  11.503
31311W        W99716   4.294  37.794  12.443
31312W        W99717  35.801   8.110  10.789
31313W        W99718   1.503  27.994   4.792
31314W        W99719  28.574   9.148  11.592
31315W        W99720  11.394  21.603  10.621
31316W        W99721  31.357  10.283   0.047
31317W        W99722  10.577  37.385   4.527
31318W        W99723   6.925  11.026  11.503
31319W        W99724  43.152  33.414   4.097
31320W        W99725  37.396   8.511   4.884
31321W        W99726  22.585   4.670  14.863
31322W        W99727  42.266  26.672  14.236
31323W        W99728  19.821  21.786  12.872
31324W        W99729  23.018   5.640  13.294
31325W        W99730  43.725  26.195  12.179
31326W        W99731  16.592  36.925  10.708
31327W        W99732  40.834   1.325   2.357
31328W        W99733  20.668  21.323  10.853
31329W        W99734  10.243  15.574   5.332
31330W        W99735  29.279  27.113   0.632
31331W        W99736  33.851   3.899   3.194
31332W        W99737  10.826  27.405  10.658
31333W        W99738  12.318  38.261  10.831
31334W        W99739  39.190  38.946   4.837
31335W        W99740   5.199  30.964   0.897
31336W        W99741  15.793   6.234   3.566
31337W        W99742   5.664  26.026  12.866
31338W        W99743   5.215   5.239   3.796
31339W        W99744  33.529  22.737   3.579
31340W        W99745   0.443  18.232   3.704
31341W        W99746   9.923  28.662  13.375
31342W        W99747  43.310   4.456  12.864
31343W        W99748   5.064  18.639   3.374
31344W        W99749  24.767  17.378  12.561
31345W        W99750  41.496  34.587   1.032
31346W        W99751   6.446  21.190   1.950
31347W        W99752   0.123  24.751  13.144
31348W        W99753  25.261  18.300  13.523
31349W        W99754  27.521  15.268   3.672
31350W        W99755  21.740  41.086   0.698
31351W        W99756  43.857  31.693   0.295
31352W        W99757  14.096  36.071  13.873
31353W        W99758  39.422   8.471  13.249
31354W        W99759  38.352  32.865   0.379
31355W        W99760  22.722  18.028  13.365
31356W        W99761   1.406  30.981   4.382
31357W        W99762  40.477   1.194  11.762
31358W        W99763  14.333  25.736  13.965
31359W        W99764  26.736  26.912  13.944
31360W        W99765   0.879   8.175   1.702
31361W        W99766  12.316  32.247  11.141
31362W        W99767  41.390  21.714   0.328
31363W        W99768  30.169  21.670   0.296
31364W        W99769  16.066  42.795   0.097
31365W        W99770   9.490  32.315  10.263
31366W        W99771  32.124  24.032   2.283
31367W        W99772  38.159  17.184   4.820
31368W        W99773   7.242  26.398  13.781
31369W        W99774  23.000  10.857   3.991
31370W        W99775  44.717   3.310  14.978
31371W        W99776  34.421  43.863   3.199
31372W        W99777   4.259   5.723   0.322
31373W        W99778  13.177  16.265   3.566
31374W        W99779  14.633  31.043   2.386
31375W        W99780  40.072  35.467   1.791
31376W        W99781   7.191  23.158   2.775
31377W        W99782  41.333  44.462  14.361
31378W        W99783  20.286   5.122   9.945
31379W        W99784  28.691  14.106   3.154
31380W        W99785  40.556  33.831   1.231
31381W        W99786  26.983  26.663   4.525
31382W        W99787  19.816  32.275   2.744
31383W        W99788   4.182  11.261  11.380
31384W        W99789  10.900  31.919   0.797
31385W        W99790  24.391  20.501   0.937
31386W        W99791  32.150  15.741   2.641
31387W        W99792  23.788  10.137   1.767
31388W        W99793  13.585   3.446  10.753
31389W        W99794  44.427  17.487  13.306
31390W        W99795  26.433   2.925  10.713
31391W        W99796   3.109  35.961  13.034
31392W        W99797  20.365  42.437   4.118
31393W        W99798  18.625  36.447  11.985
31394W        W99799   8.162  34.995   3.205
31395W        W99800  12.667  27.240   0.856
31396W        W99801  16.333  13.229   1.916
31397W        W99802  17.482  22.235  13.528
31398W        W99803  27.131  18.703   4.075
31399W        W99804  43.274  39.052   9.948
31400W        W99805  20.209  25.163   2.248
31401W        W99806  16.339  36.103  14.883
31402W        W99807  37.555  30.218  10.963
31403W        W99808   2.288  16.391  10.659
31404W        W99809  32.467  33.873   4.535
31405W        W99810  25.396  20.307   4.195
31406W        W99811  22.351  36.435  11.064
31407W        W99812  12.734   5.163   2.147
31408W        W99813  23.757   6.295   2.335
31409W        W99814  26.589  13.093  11.200
31410W        W99815  10.950  27.928   0.440
31411W        W99816  34.915   0.402   4.947
31412W        W99817  42.000  42.292   4.563
31413W        W99818  18.565  34.098   3.684
31414W        W99819  11.206  31.403  14.354
31415W        W99820  11.415  41.216  10.915
31416W        W99821   1.357  35.542   1.443
31417W        W99822   5.270  30.721  10.678
31418W        W99823  37.473  35.698   3.301
31419W        W99824   1.321   8.245  13.932
31420W        W99825  31.946  13.482  11.737
31421W        W99826  36.103   8.403  14.341
31422W        W99827   7.791  24.125  11.168
31423W        W99828  35.903  43.940  14.981
31424W        W99829  28.559  22.048   4.188
31425W        W99830  27.092  33.850  13.610
31426W        W99831   6.564  41.135   2.646
31427W        W99832   8.327  10.507   4.826
31428W        W99833  14.784  20.127   3.307
31429W        W99834   0.027  35.801   1.158
31430W        W99835  38.719  19.487  11.694
31431W        W99836  44.965   7.792  11.993
31432W        W99837  21.818  11.201  14.719
31433W        W99838  27.638  28.401   2.755
31434W        W99839  14.263  26.668   3.299
31435W        W99840  23.968  19.350  12.520
31436W        W99841  25.622  36.805   3.785
31437W        W99842  28.484  27.397   3.274
31438W        W99843   7.138  31.501   2.719
31439W        W99844   1.593  15.057   4.489
31440W        W99845  35.891  34.593  14.437
31441W        W99846  22.115   9.847  11.533
31442W        W99847  35.556   3.826   1.660
31443W        W99848  39.799   7.912  14.401
31444W        W99849  24.605  28.143   0.181
31445W        W99850   3.562   2.437   5.083
31446W        W99851  17.478  28.083   0.192
31447W        W99852  18.661  25.826  11.012
31448W        W99853  14.197  11.121  10.711
31449W        W99854  29.808  15.629  10.574
31450W        W99855   1.281   3.825  11.607
31451W        W99856  10.420  20.520   0.309
31452W        W99857  18.579  21.952  14.962
31453W        W99858  36.368  23.170  13.011
31454W        W99859   9.231  22.746   3.732
31455W        W99860  10.130  12.964   2.149
31456W        W99861  12.311  15.680  12.839
31457W        W99862  30.338  21.188   0.932
31458W        W99863  43.772   4.920  11.756
31459W        W99864   3.195  38.436   0.316
31460W        W99865  15.851   6.798  10.781
31461W        W99866  11.652  18.520   2.847
31462W        W99867  14.573  23.669   3.159
31463W        W99868  43.421  39.412  11.883
31464W        W99869  43.769  15.293  11.437
31465W        W99870   6.516  15.243  13.703
31466W        W99871  38.428  10.333   4.110
31467W        W99872  18.749  22.989  13.946
31468W        W99873  22.656  20.261   2.682
31469W        W99874  14.648   1.469   2.336
31470W        W99875  40.305  12.137  11.189
31471W        W99876   0.230   4.823  14.894
31472W        W99877  36.992   0.931  11.902
31473W        W99878   7.617   6.421  10.505
31474W        W99879  20.028  16.295  14.507
31475W        W99880  10.899  10.288   3.777
31476W        W99881  32.031  20.769  11.473
31477W        W99882  30.090  30.981   4.697
31478W        W99883  22.030  39.088   2.327
31479W        W99884   2.908  18.233  13.172
31480W        W99885  25.566  13.313  12.593
31481W        W99886  44.477   4.495   3.304
31482W        W99887  19.512   3.751   4.209
31483W        W99888  37.043  32.504   1.715
31484W        W99889  32.584   5.499   3.264
31485W        W99890   7.286   2.451  12.886
31486W        W99891  13.894  41.125  12.513
31487W        W99892  20.200  33.582   3.783
31488W        W99893  28.642  11.918  13.259
31489W        W99894  23.516  25.452  13.540
31490W        W99895  33.353  12.800   4.620
31491W        W99896   8.178  25.951   4.190
31492W        W99897  12.222  34.242  14.325
31493W        W99898  22.521  32.902   4.671
31494W        W99899  10.118  35.132   3.152
31495W        W99900  40.008  40.136   0.776
31496W        W99901   1.808  41.859   3.807
31497W        W99902  41.758  34.164   0.929
31498W        W99903   1.407   4.058  14.847
31499W        W99904  43.606  42.213   4.213
31500W        W99905  36.897  22.983  12.031
31501W        W99906  15.120  16.661   4.575
31502W        W99907  41.242   9.384   4.136
31503W        W99908  26.046   8.443  14.835
31504W        W99909  15.155  42.670   2.345
31505W        W99910  44.402  20.702   3.289
31506W        W99911  25.558  22.992  11.000
31507W        W99912  40.414   1.558  14.528
31508W        W99913  27.969   2.931  13.550
31509W        W99914  25.968   2.921  14.543
31510W        W99915  38.454   6.932   0.068
31511W        W99916   6.740  16.337  10.790
31512W        W99917  38.858  11.589   3.329
31513W        W99918  29.341   4.432   3.308
31514W        W99919   0.556  33.334  12.855
31515W        W99920  44.820  16.782  12.020
31516W        W99921   9.502  36.449  12.031
31517W        W99922  30.415  20.673  13.145
31518W        W99923   1.068   5.708  13.343
31519W        W99924   3.813  37.384  13.111
31520W        W99925   2.684  44.650   3.977
31521W        W99926  23.556  28.745  13.962
31522W        W99927  26.189  39.248   1.745
31523W        W99928  31.912  18.126  14.244
31524W        W99929  41.210  20.306   2.746
31525W        W99930  34.478  39.600   3.672
31526W        W99931  15.867  21.744  10.685
31527W        W99932   2.759  30.429  10.746
31528W        W99933  24.133  26.618   3.611
31529W        W99934   5.578   9.987  11.696
31530W        W99935  22.100  25.073  11.630
31531W        W99936  41.763  21.001  14.847
31532W        W99937  14.563  42.506  13.134
31533W        W99938   6.342  27.016   1.708
31534W        W99939  17.682  35.117  13.343
31535W        W99940  11.694  11.932   3.662
31536W        W99941  19.211  14.790   2.630
31537W        W99942  20.626  30.524   1.544
31538W        W99943  29.377  14.374  13.999
31539W        W99944  27.123  13.148  11.091
31540W        W99945   3.645   3.333   4.536
31541W        W99946  14.390   6.709  12.165
31542W        W99947  13.834  35.114   0.269
31543W        W99948  17.719  44.846   3.799
31544W        W99949  41.724  13.883   1.007
31545W        W99950  12.645  38.554   3.246
31546W        W99951  37.017  25.475   4.368
31547W        W99952  35.921  12.133  12.993
31548W        W99953  20.258   1.980  13.163
31549W        W99954   4.737  31.653  12.544
31550W        W99955   8.410   8.755   0.449
31551W        W99956  24.993  12.819  12.849
31552W        W99957  39.451   3.811  14.740
31553W        W99958  38.182  19.748   2.296
31554W        W99959  39.681  14.272   2.180
31555W        W99960  30.074  36.385   1.285
31556W        W99961  29.410  24.805   4.601
31557W        W99962  11.729  13.840   1.213
31558W        W99963  18.830  29.047   4.054
31559W        W99964  42.502  12.899  14.515
31560W        W99965  26.154   2.528  13.831
31561W        W99966  19.527   8.873   3.190
31562W        W99967  37.018  19.624   3.709
31563W        W99968   3.353   0.999   3.215
31564W        W99969  32.027   7.321  13.017
31565W        W99970  33.050  21.453  12.954
31566W        W99971  37.297  15.380  14.880
31567W        W99972  44.897  13.140   1.144
31568W        W99973  29.869   9.504  11.265
31569W        W99974   5.262  33.016  12.098
31570W        W99975  30.582  42.564  10.187
31571W        W99976  22.653  13.845   1.819
31572W        W99977  14.205   8.176   4.521
31573W        W99978  15.257   4.707   1.201
31574W        W99979  43.058  35.002  11.551
31575W        W99980  39.445  36.085   4.371
31576W        W99981   7.215   2.979  10.626
31577W        W99982  10.392  19.504  11.648
31578W        W99983  21.634  34.298   3.807
31579W        W99984  14.110  18.828   4.222
31580W        W99985  37.929  12.347   2.808
31581W        W99986  27.031  28.617   0.355
31582W        W99987  29.926  25.206   2.689
31583W        W99988  40.921   4.521   1.806
31584W        W99989  29.366  27.562   0.902
31585W        W99990  11.086  42.724   3.524
31586W        W99991  44.505  19.230  13.925
31587W        W99992   8.431  27.478   3.136
31588W        W99993  13.794  40.964   2.773
31589W        W99994  35.971  14.549  13.207
31590W        W99995   0.985  34.961   1.965
31591W        W99996  27.249  23.652   0.826
31592W        W99997  42.496  38.106   3.013
31593W        W99998   2.269  10.484  12.818
31594W        W99999  27.186  27.690   0.250
31595W        W    0  22.573  44.190  13.449
31596W        W    1  43.357  27.569   4.030
31597W        W    2  23.219  39.719   2.994
31598W        W    3  22.809   2.873  13.016
31599W        W    4  21.702  25.163   3.328
31600W        W    5  18.522  16.213  14.962
31601W        W    6   2.245  36.203  13.484
31602W        W    7   7.351  27.278  13.674
31603W        W    8  43.958  17.345  12.905
31604W        W    9  22.096   0.125  12.083
31605W        W   10  20.673  17.607   3.566
31606W        W   11  44.866  38.304  11.476
31607W        W   12  21.111   1.950   4.145
31608W        W   13  31.862  13.664   4.566
31609W        W   14   6.943  14.108   1.891
31610W        W   15  27.152   6.630   1.233
31611W        W   16  34.891  14.294   3.526
31612W        W   17  31.283   1.014  13.126
31613W        W   18  40.896  21.598   4.535
31614W        W   19  33.085  35.455   4.786
31615W        W   20  39.575  31.434  13.896
31616W        W   21  40.028  22.516   0.675
31617W        W   22  31.728  12.357   2.322
31618W        W   23  13.691  23.785   0.357
31619W        W   24  40.460  22.220   3.834
31620W        W   25  12.434   9.831   1.815
31621W        W   26  12.417  21.248  14.962
31622W        W   27  39.981  33.790  14.983
31623W        W   28  20.323  39.107   4.523
31624W        W   29  36.813  37.865  14.397
31625W        W   30  14.347   4.321  12.579
31626W        W   31  25.944   2.135  11.745
31627W        W   32   5.659  34.535   0.815
31628W        W   33  33.160  32.708  12.156
31629W        W   34  34.085  11.548   4.159
31630W        W   35  37.862  13.895  12.433
31631W        W   36   4.386  16.160  14.194
31632W        W   37  40.877   5.854  13.527
31633W        W   38  19.293  40.523   2.679
31634W        W   39  38.772  23.062  12.426
31635W        W   40  29.134   9.349  12.515
31636W        W   41  24.685  23.489   2.347
31637W        W   42   4.869  13.741   3.141
31638W        W   43  31.135  37.393   0.841
31639W        W   44   2.732  22.006  12.958
31640W        W   45  17.656  39.562  13.133
31641W        W   46  15.037  22.990  13.046
31642W        W   47  28.388  17.035  13.830
31643W        W   48  37.655   1.922  14.789
31644W        W   49  14.946  21.536  13.790
31645W        W   50   6.804  35.417   1.644
31646W        W   51  44.351  31.883   0.317
31647W        W   52  39.299  12.731   1.421
31648W        W   53  33.362   1.444   3.146
31649W        W   54  26.756  21.521  11.987
31650W        W   55  13.046  27.416  13.744
31651W        W   56  24.703   5.212  13.438
31652W        W   57  39.330  31.172   1.754
31653W        W   58  12.086  37.930  12.115
31654W        W   59  14.845  39.967  13.805
31655W        W   60  12.247   1.723  13.076
31656W        W   61  38.052  42.458  13.994
31657W        W   62  36.907  11.700  11.697
31658W        W   63  14.671  21.494  11.612
31659W        W   64  13.128   0.752   4.605
31660W        W   65  25.991  18.155   1.596
31661W        W   66  20.411   8.879   1.610
31662W        W   67   3.001  19.701   2.486
31663W        W   68  14.402  18.851   0.337
31664W        W   69  11.719  38.330   0.544
31665W        W   70   3.066   5.507   5.288
31666W        W   71  31.853  31.570   2.661
31667W        W   72   8.582   9.904  14.978
31668W        W   73  10.808  25.073  10.479
31669W        W   74  29.429  11.782  14.043
31670W        W   75  14.493  39.831   0.343
31671W        W   76   3.077  21.208  12.441
31672W        W   77  44.834  28.369  12.083
31673W        W   78   5.422  22.294  11.983
31674W        W   79   4.420   8.380   0.951
31675W        W   80   2.943  23.269  13.659
31676W        W   81  11.368  38.102  13.431
31677W        W   82  30.917  35.107  13.563
31678W        W   83  29.214   0.121   1.718
31679W        W   84  23.014   7.495   4.670
31680W        W   85  23.647   2.746   3.916
31681W        W   86  38.863  22.033  13.946
31682W        W   87   6.662   0.465  12.487
31683W        W   88   0.039  30.219   0.707
31684W        W   89  32.546  26.694  11.491
31685W        W   90  36.039   6.765  14.011
31686W        W   91  12.067  12.073   0.586
31687W        W   92   8.622  27.161   0.796
31688W        W   93  12.276  26.644   2.660
31689W        W   94   0.738  29.597   0.849
31690W        W   95  40.942   4.370  13.120
31691W        W   96  29.361  38.427   3.838
31692W        W   97  38.143  30.661   1.360
31693W        W   98  43.312  36.315   0.847
31694W        W   99   1.506  35.343   2.461
31695W        W  100  15.654  37.878  13.840
31696W        W  101   9.703   4.459  14.755
31697W        W  102  19.781  43.447   0.524
31698W        W  103  12.697  22.397  11.244
31699W        W  104  22.551  43.483   0.016
31700W        W  105  32.718   6.152   2.824
31701W        W  106  24.267  38.893  14.882
31702W        W  107  41.575  14.886  11.851
31703W        W  108  24.062  19.759   0.479
31704W        W  109  28.899   6.605  14.269
31705W        W  110  16.861  14.208  13.529
31706W        W  111  34.102  16.302  11.008
31707W        W  112  14.232  16.538  14.258
31708W        W  113  28.838  42.047   4.981
31709W        W  114  14.701  16.357  12.486
31710W        W  115  27.521   2.300  12.479
31711W        W  116  10.615  31.326   0.009
31712W        W  117   3.971   9.904   4.791
31713W        W  118  34.369  40.366  13.811
31714W        W  119   6.609   7.882   3.746
31715W        W  120   0.928  40.900  10.798
31716W        W  121   2.205  24.050  10.818
31717W        W  122  35.004  41.492  14.586
31718W        W  123  29.338  43.602  13.407
31719W        W  124  36.412  32.510   4.282
31720W        W  125  33.051  42.901  13.844
31721W        W  126  28.588  18.604   4.093
31722W        W  127  40.608  38.951  11.666
31723W        W  128  37.771  22.843   4.559
31724W        W  129  37.521  25.747   1.345
31725W        W  130  37.611  30.444   4.990
31726W        W  131  39.811  26.609  10.745
31727W        W  132   1.222  19.292   1.272
31728W        W  133  34.475  37.601   3.017
31729W        W  134  22.267   7.944   4.246
31730W        W  135   4.725  12.564  14.511
31731W        W  136   6.404   9.522   4.532
31732W        W  137  31.023   7.243   2.161
31733W        W  138  31.222  41.192   1.827
31734W        W  139   6.921   4.802  14.464
31735W        W  140  30.967  18.981  13.469
31736W        W  141  18.267  29.532   2.572
31737W        W  142  14.713   7.122   5.080
31738W        W  143  16.499   8.677  12.174
31739W        W  144   8.337   3.174   2.253
31740W        W  145  40.692  27.896  13.549
31741W        W  146  28.001   5.199  14.883
31742W        W  147  19.104  20.644   3.791
31743W        W  148  15.198  37.607   2.214
31744W        W  149  35.006  17.150   2.178
31745W        W  150   5.488  37.902  11.295
31746W        W  151   2.525  20.316   1.338
31747W        W  152  22.760  42.641  12.091
31748W        W  153  11.556  16.605  13.798
31749W        W  154   8.648  31.601   5.387
31750W        W  155  16.191   5.464  11.713
31751W        W  156  21.338  12.640   1.048
31752W        W  157  21.712   0.247   2.431
31753W        W  158  35.875  34.173  11.987
31754W        W  159  29.409  40.359  14.953
31755W        W  160  28.531  14.757  12.421
31756W        W  161   3.230  21.504  11.603
31757W        W  162  21.505  24.940  10.810
31758W        W  163   2.307  41.139  10.743
31759W        W  164  43.026  31.368  13.066
31760W        W  165  39.454  12.608   3.890
31761W        W  166  30.100  40.997  12.521
31762W        W  167  30.229  29.253   0.853
31763W        W  168  17.648  10.748   3.840
31764W        W  169  38.576  27.739  13.065
31765W        W  170   4.874  31.472   1.886
31766W        W  171  33.105   7.659  10.857
31767W        W  172  14.335  31.127   1.169
31768W        W  173  20.557  17.437  13.101
31769W        W  174  28.949  13.363   1.769
31770W        W  175  22.238  33.373  13.309
31771W        W  176  32.575   7.371  14.449
31772W        W  177  35.271  37.097  14.235
31773W        W  178  39.420  35.037  11.204
31774W        W  179  11.412  14.527  11.821
31775W        W  180  15.837  34.565  12.915
31776W        W  181  29.968  40.576  13.435
31777W        W  182   4.828   1.431   4.128
31778W        W  183  42.183  14.035  13.723
31779W        W  184  36.640  20.345   1.981
31780W        W  185  22.159  10.810   2.772
31781W        W  186  30.282  30.288   0.974
31782W        W  187  28.591   2.918  11.895
31783W        W  188  10.601  39.001   0.947
31784W        W  189   0.232  18.302  11.988
31785W        W  190   4.743  39.380   1.409
31786W        W  191  28.193  24.110  12.633
31787W        W  192  37.070  40.174   2.089
31788W        W  193  26.111   9.413   2.937
31789W        W  194  19.324  18.412   3.605
31790W        W  195  12.617  42.015  12.091
31791W        W  196  18.102  13.096   2.329
31792W        W  197  14.650   6.716  14.568
31793W        W  198  35.043  37.413   0.608
31794W        W  199  34.915  22.138  10.586
31795W        W  200   8.425  24.911   1.165
31796W        W  201  35.864   4.709   4.604
31797W        W  202  10.167  25.702   4.174
31798W        W  203  30.974  16.656   1.972
31799W        W  204  17.712   9.197  12.554
31800W        W  205   4.271  23.931  12.345
31801W        W  206   3.913  24.255  14.259
31802W        W  207   6.415  31.315  13.767
31803W        W  208  39.388   5.877   1.831
31804W        W  209  36.200   6.450   1.233
31805W        W  210  21.539  19.607   5.110
31806W        W  211  44.045  27.948   3.554
31807W        W  212  36.024  19.213   2.614
31808W        W  213  32.187  11.438  14.886
31809W        W  214  27.021  19.839   2.595
31810W        W  215   5.112  14.618   3.699
31811W        W  216  42.718  26.445  13.556
31812W        W  217  34.120  21.952   4.591
31813W        W  218  33.962   8.267  12.838
31814W        W  219   4.847  31.958  13.506
31815W        W  220   1.060   0.728  12.982
31816W        W  221  28.672  26.899   3.363
31817W        W  222  30.106  42.496  14.318
31818W        W  223   6.198  38.309  10.802
31819W        W  224  18.835  32.084   1.794
31820W        W  225   1.723  43.586  14.848
31821W        W  226  30.810   4.526  14.539
31822W        W  227  42.043  36.976  11.812
31823W        W  228  20.356   4.727  13.802
31824W        W  229  32.320   3.343   3.712
31825W        W  230  19.329  13.531   0.497
31826W        W  231  40.580  33.367  10.062
31827W        W  232  29.100  33.506   2.637
31828W        W  233  12.580   6.833  12.659
31829W        W  234  19.335  20.165  13.438
31830W        W  235  44.418  34.040  12.931
31831W        W  236  13.296  42.706   2.807
31832W        W  237  32.474  30.411  10.986
31833W        W  238  10.754  14.189   0.628
31834W        W  239  14.291  19.558  10.716
31835W        W  240  30.536  31.343   0.376
31836W        W  241   4.268  42.258   4.580
31837W        W  242   7.904  42.072  11.612
31838W        W  243  36.577   1.932  10.513
31839W        W  244  41.019   6.581  13.018
31840W        W  245  22.501  39.614   2.314
31841W        W  246  11.174  29.603   3.636
31842W        W  247  16.436  32.821   3.644
31843W        W  248  41.034  19.732   1.319
31844W        W  249  15.146   1.185   3.642
31845W        W  250  27.714  27.873   3.446
31846W        W  251  16.407  16.529  11.182
31847W        W  252  39.646  40.642   3.628
31848W        W  253   8.668  36.312  10.730
31849W        W  254  31.362  25.541  12.540
31850W        W  255   6.777  20.959  11.197
31851W        W  256  10.114  41.446  12.529
31852W        W  257  19.169  36.041   2.208
31853W        W  258   0.708  15.268  14.006
31854W        W  259  22.522  23.746  12.831
31855W        W  260  42.771  39.866   2.327
31856W        W  261   0.817  25.529   3.098
31857W        W  262  40.580   2.651   1.794
31858W        W  263   7.888  17.115  11.444
31859W        W  264   3.465   6.261  13.472
31860W        W  265  40.519  43.717   4.687
31861W        W  266  29.438  28.947  11.970
31862W        W  267  19.014   9.149  11.689
31863W        W  268  15.397  37.414  13.145
31864W        W  269  41.004  22.133  13.031
31865W        W  270   3.925  14.400  10.618
31866W        W  271  26.644  39.105  13.389
31867W        W  272  11.746  30.135  12.676
31868W        W  273  34.593  28.866   3.169
31869W        W  274  34.121   9.624  12.123
31870W        W  275  32.430  27.815  14.546
31871W        W  276   4.398  37.777   3.152
31872W        W  277  11.654  42.461  11.464
31873W        W  278  28.147  38.000   1.252
31874W        W  279  11.682   9.039  11.023
31875W        W  280  10.934  43.410  11.198
31876W        W  281  33.969   0.933  13.786
31877W        W  282  39.379  34.673   0.964
31878W        W  283  32.534  12.173   2.849
31879W        W  284  19.472  20.170   3.516
31880W        W  285  34.959  21.297  12.957
31881W        W  286  42.549  40.523  11.771
31882W        W  287  11.681  39.399   4.552
31883W        W  288   1.524  13.315  13.156
31884W        W  289  21.981   5.295   2.265
31885W        W  290   8.845  41.774   0.844
31886W        W  291  35.565  25.282   1.211
31887W        W  292  38.635  18.199  12.998
31888W        W  293  30.653   0.487  12.450
31889W        W  294   9.529  12.106   3.393
31890W        W  295   2.949  27.078  12.618
31891W        W  296  38.730  41.292   1.680
31892W        W  297  35.492  12.631   2.186
31893W        W  298  26.987  37.352   1.085
31894W        W  299  20.323  38.531  14.424
31895W        W  300   9.715  29.660   0.749
31896W        W  301  39.050   9.626   2.198
31897W        W  302   3.790  39.924  12.231
31898W        W  303  32.279  25.169   2.968
31899W        W  304  26.656   7.578   2.234
31900W        W  305   2.218  16.132  13.401
31901W        W  306   8.424  21.709  12.524
31902W        W  307  39.631  27.437   3.961
31903W        W  308   9.917  32.443   3.153
31904W        W  309  40.627  20.947   2.848
31905W        W  310  44.547  22.606  10.396
31906W        W  311   0.551   6.231   3.445
31907W        W  312  43.801  16.688   0.234
31908W        W  313   8.841  30.717   2.671
31909W        W  314  34.515  16.603   1.825
31910W        W  315  25.711  41.259  14.039
31911W        W  316   7.317   2.118  12.483
31912W        W  317   4.886  26.068   4.119
31913W        W  318  44.871  13.235   4.742
31914W        W  319   1.409  43.606  14.013
31915W        W  320  12.223  13.936  14.486
31916W        W  321  34.959  30.050   1.644
31917W        W  322  31.412  37.483  12.653
31918W        W  323   5.016  43.007   2.599
31919W        W  324  18.704  24.186   1.380
31920W        W  325  31.482  10.537  10.984
31921W        W  326  35.621  25.796  12.668
31922W        W  327  42.437   4.545  14.227
31923W        W  328  35.322   6.278  12.604
31924W        W  329  41.508  12.033  10.765
31925W        W  330  10.193  18.213   0.830
31926W        W  331  22.035  39.356   2.754
31927W        W  332  36.310   8.824   4.067
31928W        W  333  23.740  44.426  14.705
31929W        W  334  26.153   6.485   1.423
31930W        W  335   7.208  32.712  13.925
31931W        W  336  15.116  15.175   1.181
31932W        W  337  24.680  33.393   2.214
31933W        W  338  29.056  18.566  10.610
31934W        W  339  42.274   0.874  14.309
31935W        W  340   1.028  31.879  11.419
31936W        W  341  11.297  30.167  10.899
31937W        W  342  18.622   5.800   4.591
31938W        W  343  36.837  15.611   3.861
31939W        W  344  13.847  40.504   4.869
31940W        W  345  12.380  16.727   3.964
31941W        W  346  28.098   9.058  14.859
31942W        W  347  34.012  20.725  13.417
31943W        W  348  14.074  29.670   3.270
31944W        W  349  34.381   0.056  12.882
31945W        W  350  27.703  28.423  10.767
31946W        W  351  11.303   8.741   4.832
31947W        W  352  24.716  42.822   2.480
31948W        W  353  38.007   3.692  12.135
31949W        W  354  23.234  25.752  13.905
31950W        W  355  30.574  25.411  12.961
31951W        W  356  34.637  41.098   1.060
31952W        W  357  43.431  20.213  12.635
31953W        W  358  26.127  19.951  10.789
31954W        W  359  33.846  44.762   3.640
31955W        W  360   8.332  21.567   0.943
31956W        W  361  30.806  44.595  11.473
31957W        W  362  11.147  30.351  14.492
31958W        W  363  17.240  29.790  11.658
31959W        W  364   1.841  35.198  13.609
31960W        W  365  42.846  28.137  11.580
31961W        W  366  34.153  21.939   2.076
31962W        W  367  15.080  27.863   4.349
31963W        W  368   8.615  22.982   3.253
31964W        W  369  22.904  18.144   2.299
31965W        W  370  19.666  22.507   5.406
31966W        W  371   7.797  27.940  11.037
31967W        W  372  38.749   3.140  10.200
31968W        W  373  24.945  27.940  12.971
31969W        W  374  19.914  30.755   0.063
31970W        W  375  34.959  36.646   1.152
31971W        W  376   6.452  32.173   0.995
31972W        W  377  16.572  12.560   4.096
31973W        W  378  19.105  23.468  13.927
31974W        W  379   2.897   4.230   5.505
31975W        W  380  10.132  14.151   4.656
31976W        W  381  10.409  35.066   0.385
31977W        W  382  32.950  17.864  11.494
31978W        W  383  30.372  31.188  14.905
31979W        W  384  39.836  25.983   3.116
31980W        W  385  25.312   6.294  12.056
31981W        W  386  29.283  31.980  11.191
31982W        W  387  44.410  16.614  11.703
31983W        W  388  30.507  19.225  14.726
31984W        W  389  33.330  21.081  14.762
31985W        W  390   9.069  35.652  11.620
31986W        W  391  35.746  15.278  11.029
31987W        W  392  18.593  28.722   2.789
31988W        W  393  29.175  43.079  13.552
31989W        W  394  13.629  33.878  14.514
31990W        W  395  27.131  38.402   3.397
31991W        W  396  21.153  39.386   1.273
31992W        W  397  35.221  37.789  14.805
31993W        W  398  14.804  20.419   2.064
31994W        W  399   2.477  33.547  12.113
31995W        W  400  35.836   5.479  14.575
31996W        W  401  20.223  25.328  13.916
31997W        W  402   0.275   3.294   2.404
31998W        W  403  35.535  31.336  11.222
31999W        W  404  12.054   8.594   1.367
32000W        W  405  15.057  27.214  14.655
32001W        W  406  44.908  19.508   2.698
32002W        W  407  42.091  36.394   2.335
32003W        W  408   3.948  25.548   3.750
32004W        W  409  28.615  42.954   4.720
32005W        W  410  15.095  40.417  12.452
32006W        W  411  37.944  17.293   0.904
32007W        W  412  36.870   1.385   3.612
32008W        W  413   8.724  25.091  10.722
32009W        W  414  19.730  32.195  11.938
32010W        W  415   6.408  38.106   4.312
32011W        W  416  20.481  20.695   4.124
32012W        W  417  34.543  11.171  14.076
32013W        W  418  11.695  27.005  11.025
32014W        W  419   5.793  40.347   4.640
32015W        W  420  41.453   9.121   1.631
32016W        W  421  26.463   7.087   2.319
32017W        W  422  21.916  25.562  11.473
32018W        W  423  32.802  22.786   0.312
32019W        W  424  33.453  15.724  12.854
32020W        W  425  43.804   5.213   4.021
32021W        W  426  15.590  23.893  12.916
32022W        W  427  28.156  26.948   3.248
32023W        W  428   5.655  13.811  11.559
32024W        W  429  21.530  19.004  13.062
32025W        W  430  16.857  29.906   1.061
32026W        W  431  33.541  26.485  13.811
32027W        W  432  22.585   3.155   0.852
32028W        W  433   1.340   3.164   1.907
32029W        W  434  37.972  11.349  11.511
32030W        W  435  16.202  25.004  12.538
32031W        W  436  35.879  26.506   1.175
32032W        W  437  14.536   9.528   1.620
32033W        W  438  30.810  37.062   3.694
32034W        W  439  17.940  36.696  14.865
32035W        W  440   8.260   7.355   2.846
32036W        W  441  33.332  23.482   2.658
32037W        W  442  31.634  29.232   1.447
32038W        W  443  40.778  30.784  14.450
32039W        W  444  29.000  16.273   3.574
32040W        W  445  43.610  34.084   3.685
32041W        W  446  25.637  42.055   4.839
32042W        W  447  22.157   9.613   4.101
32043W        W  448   9.357  36.961   3.849
32044W        W  449  11.378  35.774   3.297
32045W        W  450   7.911  16.609  12.535
32046W        W  451  34.495  20.360  10.620
32047W        W  452  27.383   5.615   1.654
32048W        W  453  16.384  15.136  12.100
32049W        W  454   9.977  32.434   4.996
32050W        W  455   3.404   5.941  13.045
32051W        W  456  14.639  20.978  11.648
32052W        W  457  39.546   1.770   3.247
32053W        W  458  19.651  12.428  14.420
32054W        W  459  38.912  36.890  14.243
32055W        W  460   0.958  40.897   3.176
32056W        W  461  30.562  13.126  14.265
32057W        W  462  44.414   7.330   3.316
32058W        W  463  27.089  30.213  10.464
32059W        W  464  14.020  39.935   3.746
32060W        W  465  38.595  16.737   3.359
32061W        W  466  13.614  31.971   2.317
32062W        W  467  30.936  10.914  13.928
32063W        W  468  36.979  24.802  10.742
32064W        W  469  23.021  10.134   2.337
32065W        W  470  35.984  29.272  14.881
32066W        W  471  13.173  40.759   0.758
32067W        W  472  29.197  43.870  14.372
32068W        W  473  27.059   5.314   0.243
32069W        W  474  13.690   8.730  11.903
32070W        W  475  40.291  13.505  10.733
32071W        W  476   1.757  11.567  12.083
32072W        W  477  33.445  11.134   0.357
32073W        W  478  41.763   2.820   2.957
32074W        W  479  10.790  19.983  14.863
32075W        W  480  37.358  37.838  14.390
32076W        W  481  14.494  44.450   1.461
32077W        W  482  14.198  43.831   4.788
32078W        W  483  37.210  27.052  13.469
32079W        W  484  42.731  30.595   1.353
32080W        W  485  32.364   8.569   1.929
32081W        W  486   5.576  14.729  14.489
32082W        W  487  23.939  18.057  11.613
32083W        W  488   0.602  14.978  14.426
32084W        W  489  38.533  31.135   3.815
32085W        W  490   1.840   8.480  14.434
32086W        W  491  42.308  15.259   4.364
32087W        W  492  17.722  42.524   0.840
32088W        W  493  17.850  36.437  13.569
32089W        W  494  27.223  44.874  14.446
32090W        W  495   5.871   0.762  13.284
32091W        W  496  18.057   4.923   3.663
32092W        W  497  26.036  42.700   2.338
32093W        W  498   9.212  17.609  12.802
32094W        W  499  13.863   1.425  13.483
32095W        W  500  10.665  19.646   2.143
32096W        W  501   9.845  13.731  14.752
32097W        W  502  19.187  40.053  10.673
32098W        W  503  42.308  17.031  12.882
32099W        W  504  10.183  22.290  11.005
32100W        W  505  15.097  18.183  13.532
32101W        W  506   9.317  40.562  13.629
32102W        W  507  30.564   5.898  14.098
32103W        W  508   5.186  37.025   4.224
32104W        W  509  32.174  35.310  11.293
32105W        W  510   4.509   4.283   0.968
32106W        W  511  22.947  36.151   1.232
32107W        W  512  34.116   7.603   1.222
32108W        W  513  39.358  20.894   4.954
32109W        W  514   6.845  28.779   0.814
32110W        W  515  42.412   8.833  11.571
32111W        W  516  17.806  14.657   3.392
32112W        W  517  25.641   3.854  12.025
32113W        W  518  29.680  38.286  13.390
32114W        W  519  24.085  12.813  14.807
32115W        W  520  38.827   3.379   0.343
32116W        W  521  36.363   4.408  14.854
32117W        W  522  39.964  20.981   1.006
32118W        W  523   8.258  31.314   1.528
32119W        W  524  33.355  29.776   4.837
32120W        W  525  37.024   3.291  12.533
32121W        W  526  13.356  44.740   3.427
32122W        W  527  44.739  29.675   0.951
32123W        W  528  21.353  33.972   2.758
32124W        W  529  21.520   2.649  14.184
32125W        W  530  16.617  24.070   1.385
32126W        W  531   1.772  10.865   1.163
32127W        W  532   7.183  41.843   4.038
32128W        W  533  32.617  19.859   4.128
32129W        W  534  12.795  39.610  11.911
32130W        W  535  28.632  15.328  12.453
32131W        W  536  41.914  13.278   1.881
32132W        W  537   4.367  25.546  14.859
32133W        W  538  25.713  24.224  11.528
32134W        W  539  19.293   3.854   1.473
32135W        W  540  34.519   5.067  11.615
32136W        W  541   1.085  37.552   2.268
32137W        W  542  29.625  20.109  13.036
32138W        W  543   7.934  33.639  11.620
32139W        W  544  35.140  23.016   1.740
32140W        W  545  15.111  39.791   0.709
32141W        W  546   8.900   6.820   3.234
32142W        W  547  23.476  43.070  13.960
32143W        W  548   5.799   9.618  14.225
32144W        W  549  26.394  42.989  10.650
32145W        W  550  42.525  44.452  10.671
32146W        W  551  37.000   2.189  11.631
32147W        W  552  42.813  43.603   3.664
32148W        W  553  14.593  41.748   1.290
32149W        W  554  43.004  41.677  14.456
32150W        W  555  41.285  23.482   2.865
32151W        W  556   3.971  31.696   2.281
32152W        W  557   6.193   2.727  11.559
32153W        W  558  30.519   2.157   0.853
32154W        W  559  28.536  16.145   3.199
32155W        W  560  21.154  27.499   3.919
32156W        W  561  35.625   7.716  12.084
32157W        W  562  27.452  12.757  13.951
32158W        W  563   9.340  14.704  14.473
32159W        W  564  10.368   8.827   1.642
32160W        W  565  39.061  36.172   2.171
32161W        W  566  14.911  37.431   3.597
32162W        W  567  39.459  23.700  11.289
32163W        W  568  30.776  26.072  11.970
32164W        W  569  15.978  28.474   0.898
32165W        W  570   5.735  12.542  11.501
32166W        W  571  19.724   3.994  10.768
32167W        W  572   2.779  38.767  11.051
32168W        W  573  15.792   4.763  13.466
32169W        W  574  18.974   4.817  13.805
32170W        W  575  37.774  42.760  12.465
32171W        W  576   2.909  24.219  12.881
32172W        W  577  42.941  26.660  13.146
32173W        W  578  29.553  37.291   4.538
32174W        W  579  30.874  13.957  11.602
32175W        W  580  31.015  29.164   3.604
32176W        W  581   4.206  18.060   1.870
32177W        W  582   2.066  36.587  13.899
32178W        W  583  19.302  18.990   2.857
32179W        W  584  18.809   8.502   3.752
32180W        W  585   5.238  14.095   1.106
32181W        W  586  15.193  22.692   1.325
32182W        W  587  13.850  10.678   0.459
32183W        W  588  23.402  38.420   3.268
32184W        W  589   5.224   0.334   1.410
32185W        W  590   6.088  39.503   2.278
32186W        W  591  30.083  25.583   2.364
32187W        W  592  13.111  25.120   2.130
32188W        W  593  42.967  15.594   1.888
32189W        W  594  37.851  44.512  13.576
32190W        W  595  33.977  38.753   3.627
32191W        W  596   5.345  18.864  10.431
32192W        W  597   5.517   8.956   0.390
32193W        W  598  20.284  37.130   2.654
32194W        W  599  19.591  43.432  11.625
32195W        W  600  21.560  18.695   3.784
32196W        W  601  27.942  16.957  14.042
32197W        W  602  26.161  23.034  14.128
32198W        W  603  33.875   2.735   2.908
32199W        W  604  10.431   1.204   3.054
32200W        W  605  27.513  16.705   2.788
32201W        W  606  10.116  32.053  11.547
32202W        W  607   9.427  20.279   0.269
32203W        W  608   1.747   6.913   3.444
32204W        W  609  14.948   3.280  10.543
32205W        W  610  34.649  21.621   4.089
32206W        W  611  23.368  30.750   3.626
32207W        W  612  30.043  26.845   2.747
32208W        W  613  34.066   8.621  11.948
32209W        W  614   5.912  33.493  11.674
32210W        W  615   5.425  16.264  13.659
32211W        W  616  31.875  12.765  14.320
32212W        W  617  22.317  34.419  13.428
32213W        W  618   6.738  38.628  14.431
32214W        W  619   5.649   3.391   0.260
32215W        W  620  10.649   7.838   2.928
32216W        W  621   5.689  14.282   1.234
32217W        W  622  43.693  15.581   4.423
32218W        W  623  43.688  20.699  13.033
32219W        W  624  41.919  17.082  14.975
32220W        W  625  26.989  24.660  13.536
32221W        W  626  22.653  27.384  12.789
32222W        W  627   8.291  26.571   0.289
32223W        W  628  36.930  32.583   4.262
32224W        W  629  25.654  17.677  11.092
32225W        W  630  40.780  41.958  11.642
32226W        W  631  42.758  32.422  12.606
32227W        W  632  41.599  41.071   4.106
32228W        W  633  13.221   5.343  10.729
32229W        W  634  40.347  16.308  11.072
32230W        W  635  40.325   3.824  14.338
32231W        W  636  23.906  33.404   4.905
32232W        W  637  18.531  31.845   2.220
32233W        W  638  34.336  30.525  14.000
32234W        W  639  31.199  25.616   0.947
32235W        W  640  24.505  35.393  12.612
32236W        W  641  22.452  44.031   1.876
32237W        W  642  22.229   3.752  10.664
32238W        W  643  19.131  27.297  12.995
32239W        W  644  32.684  42.810   1.624
32240W        W  645  35.869  22.016  11.891
32241W        W  646   3.204  32.441  11.739
32242W        W  647  21.798  28.839  11.187
32243W        W  648  15.231  36.833   4.199
32244W        W  649  23.726   7.789  11.136
32245W        W  650  14.259  40.052  13.963
32246W        W  651  26.133   9.728   0.271
32247W        W  652  23.511  11.469   2.206
32248W        W  653  17.737  14.334   1.322
32249W        W  654   6.187   5.432   2.724
32250W        W  655   4.804  41.831   0.306
32251W        W  656  31.849  34.392   0.013
32252W        W  657  15.459  34.926   3.278
32253W        W  658   5.926  37.909  11.026
32254W        W  659  19.803  28.339   1.880
32255W        W  660  15.194  41.430  14.232
32256W        W  661  16.028  15.690   1.471
32257W        W  662   0.275   3.337  11.182
32258W        W  663   0.357  20.096   2.320
32259W        W  664  31.422  13.698   1.720
32260W        W  665   6.340  31.075  13.122
32261W        W  666   5.164   5.746   0.243
32262W        W  667  34.170  33.435   1.817
32263W        W  668  32.144  32.917  13.910
32264W        W  669   0.739  14.147  14.913
32265W        W  670  24.370  30.000   4.564
32266W        W  671  24.499   7.841  12.437
32267W        W  672  10.498   0.251   2.674
32268W        W  673  28.869  39.655   3.764
32269W        W  674   5.711  41.008  11.223
32270W        W  675  31.606  25.768   2.883
32271W        W  676   8.414  12.443  12.224
32272W        W  677   7.692  42.983   4.538
32273W        W  678  29.972  34.114   0.893
32274W        W  679   5.815   9.612   0.865
32275W        W  680  20.594  22.433  13.818
32276W        W  681  28.066  33.842   1.067
32277W        W  682   5.208  31.005  12.483
32278W        W  683  43.830   7.944   2.759
32279W        W  684  21.530  29.623  11.172
32280W        W  685   1.243  16.566  14.375
32281W        W  686  31.724  29.682   3.326
32282W        W  687  26.213  27.591  12.816
32283W        W  688  12.181   0.238  11.663
32284W        W  689  26.610  33.136   4.077
32285W        W  690  43.264  13.296  14.793
32286W        W  691  28.720  22.503   1.283
32287W        W  692  15.065  21.707   2.308
32288W        W  693   2.774  22.536  12.967
32289W        W  694  32.593  41.548  14.320
32290W        W  695  18.050  14.639  12.531
32291W        W  696  24.273  29.067   9.898
32292W        W  697  39.606  10.367  10.163
32293W        W  698  25.624  16.279   2.103
32294W        W  699  11.701  41.043  14.679
32295W        W  700  30.618   2.854   0.227
32296W        W  701   1.875  27.863  12.011
32297W        W  702   3.223  12.694   1.267
32298W        W  703  11.564   9.366  12.894
32299W        W  704  11.889  21.112  14.819
32300W        W  705  26.092   0.999  13.858
32301W        W  706   6.227  32.948   4.242
32302W        W  707  25.067   4.658  12.998
32303W        W  708  24.422  40.500  11.860
32304W        W  709  13.325  15.233   1.824
32305W        W  710  32.218   5.499  13.318
32306W        W  711   2.408  19.062   0.923
32307W        W  712  36.106  16.124   3.788
32308W        W  713   6.908  14.327  10.509
32309W        W  714  19.707   7.811   0.598
32310W        W  715  44.630  36.866   2.752
32311W        W  716  32.896  12.696   4.352
32312W        W  717  33.800  24.053  12.826
32313W        W  718  17.296  36.421   2.582
32314W        W  719  23.030   5.816   2.920
32315W        W  720   1.379  31.620  12.799
32316W        W  721  23.869  34.592  10.682
32317W        W  722  19.022  32.524   2.192
32318W        W  723   1.316  29.203   2.294
32319W        W  724   2.274  31.638   4.122
32320W        W  725  38.432  28.019  13.491
32321W        W  726  20.305  12.183  13.836
32322W        W  727   4.889   0.816   2.286
32323W        W  728  16.931  35.134  11.932
32324W        W  729  22.167   9.679   0.568
32325W        W  730   1.430  24.968  11.638
32326W        W  731   2.918  44.821   3.437
32327W        W  732  16.495  41.745  13.768
32328W        W  733  34.941  25.932   0.427
32329W        W  734  33.895   3.330  10.864
32330W        W  735  10.421  35.025   2.734
32331W        W  736  38.492  22.465  11.634
32332W        W  737   4.872  12.363   5.024
32333W        W  738  16.979   3.383   4.521
32334W        W  739  26.864  22.245  14.965
32335W        W  740  25.808  31.743  11.122
32336W        W  741  14.116  33.083   2.856
32337W        W  742  13.765  39.343   0.473
32338W        W  743  13.699  39.959   2.633
32339W        W  744  22.770  32.948  12.493
32340W        W  745  35.276  14.933  13.312
32341W        W  746  25.631   8.670   0.320
32342W        W  747  29.704   2.491  11.324
32343W        W  748  35.228   2.643   3.890
32344W        W  749   2.237   2.177   2.254
32345W        W  750  39.175  23.611   1.910
32346W        W  751  34.138  14.260  14.474
32347W        W  752  19.615   2.253   2.890
32348W        W  753  30.186   0.831  14.320
32349W        W  754  41.932   3.634  14.042
32350W        W  755  36.533  16.082   3.298
32351W        W  756   2.854  35.878  12.586
32352W        W  757  44.400  19.662   1.449
32353W        W  758  35.320  40.852   1.865
32354W        W  759  40.061  23.107   3.565
32355W        W  760  43.458  21.050   4.703
32356W        W  761  39.506  20.493   3.550
32357W        W  762  17.740  17.742   4.405
32358W        W  763  15.695  33.415   1.974
32359W        W  764  23.441  24.194   1.842
32360W        W  765  23.591  17.738   2.193
32361W        W  766   7.686  25.536   1.768
32362W        W  767   3.635  28.945  14.213
32363W        W  768  20.459  35.836  11.419
32364W        W  769  35.413  22.775  12.233
32365W        W  770  11.687  33.662   0.443
32366W        W  771  33.534   6.545  11.493
32367W        W  772   3.746  19.105  14.583
32368W        W  773  35.478  37.156   4.932
32369W        W  774  20.228  37.958  14.898
32370W        W  775  31.504  36.601  14.963
32371W        W  776  37.028  33.602  12.987
32372W        W  777  12.571  31.943  12.467
32373W        W  778  34.201  26.965   1.450
32374W        W  779  39.366   3.266  12.315
32375W        W  780  20.138   3.910  14.497
32376W        W  781  14.760  26.447   1.990
32377W        W  782  28.617  16.830  11.646
32378W        W  783  41.033  30.338   3.400
32379W        W  784   9.128  17.276  14.921
32380W        W  785  39.822  26.947   0.340
32381W        W  786  25.943  27.677  14.756
32382W        W  787  10.211  42.286   3.810
32383W        W  788   2.481  22.729   1.115
32384W        W  789  14.344   6.392   2.194
32385W        W  790   8.867  22.249   2.224
32386W        W  791  24.535   5.294   3.719
32387W        W  792  30.639   9.205  11.427
32388W        W  793  14.566  25.742  11.886
32389W        W  794   7.297   2.939   3.280
32390W        W  795  40.494  35.159   2.643
32391W        W  796   1.426  19.731   3.099
32392W        W  797  17.208  17.274   2.245
32393W        W  798  33.819  18.719  14.386
32394W        W  799  14.154  38.871  12.656
32395W        W  800  28.077  16.944   2.215
32396W        W  801  37.372  37.890  11.584
32397W        W  802  26.320  39.558   2.137
32398W        W  803   2.011  23.447  13.251
32399W        W  804   1.869  12.616   2.701
32400W        W  805  33.886  27.796   1.887
32401W        W  806  38.351  43.403  14.360
32402W        W  807  28.263  17.545  13.873
32403W        W  808   6.233   1.290   2.379
32404W        W  809   6.758  12.172   3.644
32405W        W  810  19.988  13.136  14.805
32406W        W  811   2.556   4.178  14.416
32407W        W  812  38.312  14.180  13.319
32408W        W  813  12.119  27.051  12.459
32409W        W  814  35.459  10.179  12.016
32410W        W  815  27.762  38.011   5.408
32411W        W  816  11.208  32.865  13.145
32412W        W  817  10.327  35.568  12.856
32413W        W  818  11.321   5.701  10.760
32414W        W  819  34.494  35.428   1.443
32415W        W  820  38.505   6.717  13.634
32416W        W  821  23.861  29.207   1.350
32417W        W  822  27.695  42.747   4.112
32418W        W  823  10.888  21.622  10.754
32419W        W  824  16.254  42.592  11.453
32420W        W  825  16.238  36.891   3.696
32421W        W  826  41.038  20.049   0.903
32422W        W  827   8.553  27.728   1.278
32423W        W  828  11.623  23.900  13.450
32424W        W  829  43.878  29.068   4.376
32425W        W  830  40.566  19.406  14.915
32426W        W  831  38.392  16.758  10.659
32427W        W  832   5.856   6.307   1.810
32428W        W  833  30.160   0.306  11.518
32429W        W  834   4.426  33.365  12.137
32430W        W  835  17.355   2.731   3.570
32431W        W  836   8.930  30.590  12.090
32432W        W  837  43.779  20.226   2.391
32433W        W  838  30.961  15.248  11.142
32434W        W  839  30.688  23.473  13.390
32435W        W  840  24.686   6.201   0.468
32436W        W  841  12.764  20.471   1.004
32437W        W  842  12.097  11.808   1.047
32438W        W  843  25.912  36.059   4.193
32439W        W  844  35.583  11.986  13.921
32440W        W  845  39.267  30.099  14.246
32441W        W  846   4.103  39.729  14.825
32442W        W  847  42.716   5.915  12.664
32443W        W  848  27.122  22.060   3.647
32444W        W  849  42.261  25.147  13.163
32445W        W  850  40.864   7.197  13.831
32446W        W  851  36.117  44.020  13.107
32447W        W  852  35.124  36.442   4.728
32448W        W  853  21.042  21.221   2.290
32449W        W  854  37.377  16.336   2.773
32450W        W  855  43.602   3.355  13.519
32451W        W  856  36.472  43.008   4.028
32452W        W  857  17.660   0.345   4.508
32453W        W  858  28.963  41.037   3.951
32454W        W  859   4.333  42.379  14.404
32455W        W  860  28.436  34.636   2.610
32456W        W  861  17.286  31.019   1.656
32457W        W  862  28.641  41.066  13.494
32458W        W  863  36.435  10.768  11.706
32459W        W  864   3.858  18.350   3.611
32460W        W  865   7.108   0.249   4.095
32461W        W  866  28.892   3.305   2.936
32462W        W  867  20.003   5.764   2.333
32463W        W  868  16.367   9.962  10.650
32464W        W  869  41.369  42.883   4.631
32465W        W  870  13.056  24.174  11.316
32466W        W  871  40.952   9.311  11.128
32467W        W  872  41.780   5.968  14.995
32468W        W  873   6.163  29.003   4.614
32469W        W  874   6.481  24.477  14.893
32470W        W  875  37.371  22.289   0.468
32471W        W  876  33.597  38.023  11.155
32472W        W  877  43.303  22.730  14.927
32473W        W  878  31.429  10.258  14.097
32474W        W  879  42.806  32.164   0.909
32475W        W  880  15.228  12.230   2.191
32476W        W  881   6.901  43.264   1.738
32477W        W  882  18.712  32.542  10.253
32478W        W  883  41.538  31.073   4.276
32479W        W  884   6.839  21.462  10.807
32480W        W  885  21.380  40.811   0.433
32481W        W  886  10.853   6.849  10.628
32482W        W  887  26.140  16.763  14.019
32483W        W  888  42.976   8.827   0.315
32484W        W  889  24.200   5.412   2.715
32485W        W  890  25.026  17.815  12.349
32486W        W  891  19.037  32.562   1.688
32487W        W  892   2.496  20.929  11.438
32488W        W  893  17.985   2.916   0.409
32489W        W  894  42.625  26.654  10.760
32490W        W  895  20.165  36.174  11.071
32491W        W  896  38.168  15.627  11.467
32492W        W  897  40.773   1.649   3.974
32493W        W  898   6.914  44.282  13.363
32494W        W  899  12.780  35.674  10.247
32495W        W  900   3.010  10.730  11.532
32496W        W  901  20.022   8.971   3.389
32497W        W  902  39.932  22.976   3.091
32498W        W  903   8.757  15.404  12.878
32499W        W  904   4.207  19.596  12.221
32500W        W  905  13.847  15.064   2.624
32501W        W  906   9.724  20.743  13.938
32502W        W  907  14.628  16.779  10.671
32503W        W  908  13.888  15.230   1.725
32504W        W  909  22.797  43.587   2.509
32505W        W  910  26.374  43.738  12.938
32506W        W  911  31.604  18.807  11.534
32507W        W  912   9.603  35.056  11.997
32508W        W  913   4.195  21.651  12.002
32509W        W  914  12.955   8.888   0.807
32510W        W  915  16.135   6.295   1.702
32511W        W  916  23.778  33.055   0.624
32512W        W  917  15.562  28.671  10.391
32513W        W  918  26.017  15.210   4.793
32514W        W  919  25.162  36.881  10.769
32515W        W  920  10.816   5.644   3.082
32516W        W  921  38.078   3.939   3.308
32517W        W  922  16.333  23.564   2.352
32518W        W  923  29.584   8.737  11.909
32519W        W  924  42.073  23.173  11.815
32520W        W  925  34.899   0.657  12.555
32521W        W  926  31.333  36.473  10.761
32522W        W  927  22.802   0.186  11.658
32523W        W  928   3.673  22.610   4.430
32524W        W  929  31.799   1.707  11.064
32525W        W  930  29.135  22.276   4.572
32526W        W  931  44.455  43.516  11.986
32527W        W  932  18.075  21.815  14.958
32528W        W  933  17.022  33.117   1.398
32529W        W  934  21.237   4.252  10.088
32530W        W  935   7.884  24.001   2.171
32531W        W  936  40.320  36.684   0.692
32532W        W  937  40.368  44.531   1.800
32533W        W  938  15.452   7.884  11.802
32534W        W  939  31.217   9.364   3.180
32535W        W  940   6.352   6.875  14.102
32536W        W  941  15.550  22.885  12.905
32537W        W  942  39.934  14.552   3.301
32538W        W  943  21.663  35.612  10.621
32539W        W  944  24.697  40.502   0.529
32540W        W  945  19.105   8.428  14.550
32541W        W  946   9.251  37.660   2.724
32542W        W  947  27.457  16.169   5.081
32543W        W  948   1.923  36.610  13.410
32544W        W  949   5.950  19.782   2.542
32545W        W  950  12.255  12.127  12.940
32546W        W  951   4.240  32.557   0.345
32547W        W  952  35.419  29.529  13.342
32548W        W  953   5.859  33.670   1.500
32549W        W  954  44.708  16.995  11.541
32550W        W  955  40.268  10.119  13.855
32551W        W  956  17.890  38.985  14.833
32552W        W  957  24.666  27.737   1.369
32553W        W  958  29.585  20.674   2.654
32554W        W  959   3.260  28.234  13.558
32555W        W  960  16.665  37.102   2.754
32556W        W  961  29.487  27.483   3.518
32557W        W  962  12.417  29.179   4.372
32558W        W  963  40.399  17.503   1.060
32559W        W  964  19.164  44.813   3.399
32560W        W  965  28.764  44.795  14.437
32561W        W  966   4.903  23.221  13.068
32562W        W  967   4.900  26.614   2.672
32563W        W  968   1.968  34.582   1.215
32564W        W  969  40.787  19.338   3.135
32565W        W  970   0.794  44.995  13.246
32566W        W  971  44.439  44.021   3.348
32567W        W  972   7.367  18.188   0.476
32568W        W  973  26.884  40.500   1.187
32569W        W  974  17.452   5.565  10.226
32570W        W  975  26.772  44.576  11.539
32571W        W  976  19.547  24.712  11.018
32572W        W  977  30.607  40.910   3.112
32573W        W  978   8.664  26.585  13.479
32574W        W  979  26.104   7.007  10.405
32575W        W  980  29.009   3.011  12.655
32576W        W  981  39.769  12.261   1.698
32577W        W  982  43.381  16.718   2.335
32578W        W  983  40.015  17.029   0.735
32579W        W  984  11.794  26.939  14.451
32580W        W  985  16.752  39.820  13.755
32581W        W  986  23.065  18.559  13.946
32582W        W  987  36.810   4.648  11.914
32583W        W  988   1.359  21.728  12.153
32584W        W  989  42.202  37.949   2.583
32585W        W  990  41.543   2.721   4.830
32586W        W  991  30.536  29.020  13.619
32587W        W  992  23.370  19.545  14.085
32588W        W  993  19.163   0.180  13.101
32589W        W  994  26.894  36.333  13.398
32590W        W  995   3.220   1.920   2.183
32591W        W  996  29.166   3.655   1.465
32592W        W  997  33.379  36.242  10.723
32593W        W  998  30.003  33.657  11.634
32594W        W  999  24.104  40.509  14.298
32595W        W 1000   0.241  23.166   2.653
32596W        W 1001  13.914  30.431  11.158
32597W        W 1002  32.681  13.102   3.608
32598W        W 1003  18.597  38.867   1.183
32599W        W 1004   7.448  19.687  10.732
32600W        W 1005  29.426  35.333  12.630
32601W        W 1006  32.436  10.224   0.761
32602W        W 1007  31.129  40.255   3.521
32603W        W 1008   5.126  35.694  11.507
32604W        W 1009  11.389   3.474   4.619
32605W        W 1010  42.439  30.176  11.474
32606W        W 1011  23.295  37.511  11.492
32607W        W 1012  36.090   7.234  13.757
32608W        W 1013  12.830  10.217   3.251
32609W        W 1014  23.157  32.415  11.602
32610W        W 1015  16.761   9.291   2.837
32611W        W 1016  21.482  27.232   0.773
32612W        W 1017   8.863  32.120  11.510
32613W        W 1018  28.058   8.772  11.898
32614W        W 1019  27.585   4.965  10.640
32615W        W 1020  18.500  31.451  12.169
32616W        W 1021  22.382  14.865   1.891
32617W        W 1022   4.152  29.320   4.577
32618W        W 1023  22.676   2.039  12.353
32619W        W 1024  10.300   4.706   2.256
32620W        W 1025  13.799  32.430  11.513
32621W        W 1026  37.969  19.094   4.656
32622W        W 1027  44.963  37.536  10.454
32623W        W 1028  14.852  10.352  13.512
32624W        W 1029  23.960  31.094  11.149
32625W        W 1030  32.875  10.357  12.932
32626W        W 1031   5.620   8.168  13.252
32627W        W 1032  12.038  19.021   2.235
32628W        W 1033  22.340  17.128  13.623
32629W        W 1034  39.497  13.483   2.579
32630W        W 1035  21.791   2.937  12.023
32631W        W 1036  13.342  26.534  10.872
32632W        W 1037  22.265  22.173  11.002
32633W        W 1038  25.879  31.506   1.800
32634W        W 1039   7.027  36.945  12.508
32635W        W 1040  25.723  27.186  11.661
32636W        W 1041  23.496  15.431   0.605
32637W        W 1042  19.587  41.208  14.818
32638W        W 1043  29.681   8.910  13.354
32639W        W 1044   1.708  25.040   4.667
32640W        W 1045  41.597  40.953   2.959
32641W        W 1046  18.574  20.826  13.122
32642W        W 1047  23.588  34.732  11.460
32643W        W 1048  33.308  33.131  14.982
32644W        W 1049   4.619  15.864  13.249
32645W        W 1050  15.502   4.330   4.603
32646W        W 1051   8.176   2.366  12.435
32647W        W 1052   8.972   7.385  13.422
32648W        W 1053  33.010  23.023  10.623
32649W        W 1054  29.171  21.306  12.111
32650W        W 1055  14.547  39.959   3.741
32651W        W 1056   5.753   9.108  13.398
32652W        W 1057  14.073  16.265   1.905
32653W        W 1058  21.511  18.335   1.299
32654W        W 1059   4.844  22.044   2.658
32655W        W 1060   9.485   6.522   2.854
32656W        W 1061   5.420   7.978   4.257
32657W        W 1062  40.292  32.536  12.314
32658W        W 1063  25.347  12.279   2.473
32659W        W 1064  17.671  35.046   1.736
32660W        W 1065  24.961   6.277   1.830
32661W        W 1066   8.352  44.485   1.653
32662W        W 1067  40.265  10.989   0.413
32663W        W 1068   1.731  31.940  14.701
32664W        W 1069  30.083  21.306  11.176
32665W        W 1070  21.084  37.778  11.196
32666W        W 1071   4.005  44.397   3.611
32667W        W 1072  43.023   1.413   3.177
32668W        W 1073  41.097  22.722   2.700
32669W        W 1074   3.514   9.847  11.442
32670W        W 1075  27.122  34.672  12.113
32671W        W 1076  40.822  16.060  13.016
32672W        W 1077  27.145  23.175  13.570
32673W        W 1078  25.126  44.209  11.106
32674W        W 1079  18.330   8.946   1.002
32675W        W 1080   4.995  15.748   2.151
32676W        W 1081  29.903   8.774  12.398
32677W        W 1082   9.861  14.741  10.579
32678W        W 1083  16.257  29.014   2.406
32679W        W 1084  43.161   7.768  11.700
32680W        W 1085  42.285  44.971   1.328
32681W        W 1086  10.118  39.868   0.810
32682W        W 1087   8.662  30.542   3.140
32683W        W 1088  25.494  40.238   0.974
32684W        W 1089  30.029  24.212  14.005
32685W        W 1090   2.748   8.166  12.883
32686W        W 1091  22.515   4.434  14.372
32687W        W 1092  24.381  13.829  13.426
32688W        W 1093  40.823  30.165  12.377
32689W        W 1094  14.372  27.684  11.818
32690W        W 1095  22.993  19.337  11.566
32691W        W 1096  41.000   4.013  13.929
32692W        W 1097  18.007   1.411  12.542
32693W        W 1098  25.577  19.624   0.189
32694W        W 1099   3.393   1.005   4.559
32695W        W 1100  20.174  36.703  12.204
32696W        W 1101   0.766  37.233  10.355
32697W        W 1102  40.497  33.133   3.096
32698W        W 1103  35.419  34.384  14.436
32699W        W 1104  32.406  37.904   2.492
32700W        W 1105  30.553  29.356   3.751
32701W        W 1106  39.503  12.295  13.960
32702W        W 1107  20.017  41.093   3.195
32703W        W 1108   1.216  23.751   0.245
32704W        W 1109  43.919   8.205   2.287
32705W        W 1110   8.154  23.092   4.234
32706W        W 1111  20.030   9.981   1.764
32707W        W 1112  10.125  20.203  10.579
32708W        W 1113  16.222   3.926   4.651
32709W        W 1114  28.151   8.966   1.789
32710W        W 1115  44.071   3.337   4.301
32711W        W 1116  12.470   3.428   1.752
32712W        W 1117  13.366   6.749  10.701
32713W        W 1118  31.671  11.135  13.280
32714W        W 1119   9.116   8.961   4.197
32715W        W 1120  27.388  24.265   0.810
32716W        W 1121  44.938  22.946   1.518
32717W        W 1122  11.723  44.997   1.304
32718W        W 1123  14.148  15.628   3.883
32719W        W 1124  43.840  19.779   4.753
32720W        W 1125  33.587  35.964   5.299
32721W        W 1126   5.192  41.582  11.594
32722W        W 1127   9.620   4.947   1.228
32723W        W 1128  16.940  37.006   4.546
32724W        W 1129   6.208  39.779   2.721
32725W        W 1130   2.924  29.808  13.002
32726W        W 1131  24.162  23.607   2.212
32727W        W 1132  26.098   3.765   0.196
32728W        W 1133   8.682  29.952   3.958
32729W        W 1134  11.145  18.869   1.300
32730W        W 1135   2.400  21.083  10.539
32731W        W 1136  11.646  25.233  13.541
32732W        W 1137  15.772  20.450   3.363
32733W        W 1138  35.552  24.513  14.274
32734W        W 1139  36.538  30.640   3.713
32735W        W 1140  13.169  33.123   2.671
32736W        W 1141  27.110   9.795   2.109
32737W        W 1142  27.545  33.911   1.658
32738W        W 1143  32.517  42.933   0.172
32739W        W 1144  17.707  42.471  12.591
32740W        W 1145  23.647  25.041  12.846
32741W        W 1146   5.729  20.643   0.622
32742W        W 1147  43.990   0.517  11.974
32743W        W 1148  22.026  16.112  10.626
32744W        W 1149  17.634  20.394  13.093
32745W        W 1150  38.264  15.801  12.991
32746W        W 1151  19.653  31.686  11.582
32747W        W 1152  17.101  37.620   3.249
32748W        W 1153  22.265   2.386   0.538
32749W        W 1154  15.878  24.508  11.147
32750W        W 1155  21.946   7.929  13.535
32751W        W 1156  15.601  27.720  12.603
32752W        W 1157  17.215  17.376   5.032
32753W        W 1158  14.757  25.282   0.215
32754W        W 1159  36.934  20.087  11.582
32755W        W 1160  35.849  13.184   4.626
32756W        W 1161  34.055  20.021   4.726
32757W        W 1162   5.900  18.065   3.237
32758W        W 1163  41.311  22.933   3.826
32759W        W 1164  30.268  39.275   3.221
32760W        W 1165  13.996  18.800  11.139
32761W        W 1166  41.730  18.166   3.556
32762W        W 1167  28.335  20.560   3.137
32763W        W 1168  32.379  22.055  13.584
32764W        W 1169  17.893  38.965   3.253
32765W        W 1170  44.013  27.444  12.869
32766W        W 1171  32.581   1.241  12.205
32767W        W 1172   2.870  38.300  11.792
32768W        W 1173  13.678   5.419  10.488
32769W        W 1174  35.572  42.990  12.791
32770W        W 1175  13.565  19.513  11.512
32771W        W 1176  34.977  31.013  14.353
32772W        W 1177   0.477  33.622   1.513
32773W        W 1178  32.937  15.822   3.650
32774W        W 1179  41.147  34.636  13.507
32775W        W 1180  29.345  37.511  12.082
32776W        W 1181   9.724  41.124  12.435
32777W        W 1182   1.620  17.192  14.777
32778W        W 1183  11.837  24.406   0.365
32779W        W 1184  30.446  37.364  12.167
32780W        W 1185  41.925  40.095  11.710
32781W        W 1186   8.173  15.729   4.129
32782W        W 1187  21.537   2.314   2.844
32783W        W 1188  24.534   8.938  13.421
32784W        W 1189  30.086  23.289  14.272
32785W        W 1190  43.188  40.013   0.017
32786W        W 1191  41.064   3.675  11.519
32787W        W 1192  44.117  34.141   2.400
32788W        W 1193  12.059  26.123   2.786
32789W        W 1194   5.326   1.593  13.114
32790W        W 1195  29.609  19.508  10.345
32791W        W 1196  21.502   0.673   2.213
32792W        W 1197  29.978  41.542  12.079
32793W        W 1198  31.154  28.377  14.949
32794W        W 1199  22.019   1.969   4.092
32795W        W 1200  33.162   6.287  13.561
32796W        W 1201  41.947   4.917   0.613
32797W        W 1202  19.535  13.922  10.943
32798W        W 1203   2.693  12.340  10.409
32799W        W 1204  14.402  24.003   2.311
32800W        W 1205  37.101   9.731  12.639
32801W        W 1206  28.375   5.464   1.627
32802W        W 1207  44.786  24.894   3.282
32803W        W 1208  13.697  23.940   2.329
32804W        W 1209  33.211  40.835   0.889
32805W        W 1210  31.892  10.761  13.600
32806W        W 1211  22.376  33.993   3.805
32807W        W 1212  37.581  37.735   2.375
32808W        W 1213   6.517   7.213   4.416
32809W        W 1214  32.919  23.101  12.094
32810W        W 1215  27.621  23.034  12.079
32811W        W 1216  25.217  16.764  12.332
32812W        W 1217  43.393  37.758  13.960
32813W        W 1218  19.012  20.631   1.315
32814W        W 1219   0.942  19.380  10.195
32815W        W 1220  27.075   7.828   0.988
32816W        W 1221  31.273   9.377  13.585
32817W        W 1222   8.189  12.083  11.955
32818W        W 1223  37.783  15.743   3.958
32819W        W 1224  24.448   3.253  13.990
32820W        W 1225  42.960  29.154   4.480
32821W        W 1226   8.150  12.615   4.074
32822W        W 1227  10.654   4.334   2.389
32823W        W 1228   1.319  15.322  12.521
32824W        W 1229  13.155   7.076  12.464
32825W        W 1230  35.567  33.822   3.824
32826W        W 1231  16.046  39.458   1.218
32827W        W 1232  44.934  18.765  11.949
32828W        W 1233  38.640  22.741  13.019
32829W        W 1234  28.398  37.422   2.840
32830W        W 1235  26.036  29.069  14.575
32831W        W 1236  17.261   9.682  12.968
32832W        W 1237  19.938  34.218  13.052
32833W        W 1238  19.512  25.537  13.532
32834W        W 1239  21.758  23.494  11.700
32835W        W 1240   3.409  41.473  14.358
32836W        W 1241  36.746   1.746   2.290
32837W        W 1242  22.277  23.463  10.588
32838W        W 1243  27.390   8.499   3.971
32839W        W 1244  30.092   6.655  13.945
32840W        W 1245  38.110   1.022   2.402
32841W        W 1246  12.724   9.384   3.366
32842W        W 1247  11.620   9.875  13.659
32843W        W 1248   7.640  29.933   1.374
32844W        W 1249  12.850  32.427   4.036
32845W        W 1250  19.568  30.820   0.439
32846W        W 1251  25.098  15.388  11.390
32847W        W 1252  23.033  22.364   4.155
32848W        W 1253  26.721  21.669   2.830
32849W        W 1254  30.859  21.558   4.689
32850W        W 1255  12.699  35.093  12.370
32851W        W 1256  30.202   0.949   3.075
32852W        W 1257  30.148  21.568   3.537
32853W        W 1258  17.806  32.120  12.234
32854W        W 1259   7.392  28.910   1.765
32855W        W 1260  39.420  30.634   3.684
32856W        W 1261  23.228  15.266  13.079
32857W        W 1262  43.008  43.556   1.010
32858W        W 1263  40.339  44.277   2.699
32859W        W 1264  39.684  35.773  13.723
32860W        W 1265  34.381  25.102   3.301
32861W        W 1266  41.916  19.946  10.739
32862W        W 1267  14.528  15.746  11.969
32863W        W 1268  22.328  27.699  13.041
32864W        W 1269  27.239  10.045  11.010
32865W        W 1270  42.011  42.012  10.499
32866W        W 1271  35.616  24.070  14.004
32867W        W 1272  11.772  42.453  12.462
32868W        W 1273   4.602  20.613  14.696
32869W        W 1274   3.884  35.050  10.798
32870W        W 1275   2.443  42.283  11.558
32871W        W 1276  18.166  25.565  12.954
32872W        W 1277   0.657  19.666  14.981
32873W        W 1278  30.021   8.289  11.772
32874W        W 1279  40.421  29.117   2.776
32875W        W 1280  13.300  44.705   3.922
32876W        W 1281   2.268  26.671   0.850
32877W        W 1282  41.458  43.820  11.511
32878W        W 1283  41.067  13.236   2.121
32879W        W 1284   2.181   8.858  14.470
32880W        W 1285   2.286  16.577   1.468
32881W        W 1286  44.387  16.202   0.307
32882W        W 1287  29.715  31.013   3.159
32883W        W 1288  35.847  28.600  13.032
32884W        W 1289  15.652  14.610  11.126
32885W        W 1290  35.475  10.584   2.287
32886W        W 1291  26.952  32.506   0.755
32887W        W 1292  35.002  14.345   3.015
32888W        W 1293   6.912   7.773  12.397
32889W        W 1294  38.244  10.165   2.113
32890W        W 1295  29.875   2.196   2.438
32891W        W 1296  18.761  34.453  14.990
32892W        W 1297  19.212   0.792  10.799
32893W        W 1298   6.201  44.476  10.311
32894W        W 1299  13.693  18.460   0.753
32895W        W 1300  41.913  41.840   4.810
32896W        W 1301  42.657  19.076   0.344
32897W        W 1302  25.209  32.537   4.208
32898W        W 1303  28.618   5.636  13.976
32899W        W 1304   1.417  30.621  10.926
32900W        W 1305  23.458  29.618   2.378
32901W        W 1306  41.095  26.234   4.699
32902W        W 1307  27.382  40.358  13.995
32903W        W 1308  43.519  21.973  11.007
32904W        W 1309  37.860  19.430  10.231
32905W        W 1310  27.405  39.452  12.234
32906W        W 1311  37.438  29.713  10.948
32907W        W 1312  12.377  39.885  11.063
32908W        W 1313   7.229  36.392   0.438
32909W        W 1314   0.976  42.835  10.733
32910W        W 1315   2.896  34.366   4.988
32911W        W 1316  18.514   8.842  11.575
32912W        W 1317   2.945  18.182  11.382
32913W        W 1318  35.889  24.140   3.216
32914W        W 1319   8.857  31.533   4.365
32915W        W 1320   8.205  16.393  13.714
32916W        W 1321   1.308  28.613   1.372
32917W        W 1322   2.747  29.716  11.209
32918W        W 1323  44.685   9.606   2.870
32919W        W 1324   7.182   1.603  12.576
32920W        W 1325  41.756   9.372   0.538
32921W        W 1326   0.195   1.857   4.659
32922W        W 1327  43.545  24.794   0.846
32923W        W 1328  42.371  22.598   0.714
32924W        W 1329  14.076  27.173   3.325
32925W        W 1330   8.215  28.562   1.801
32926W        W 1331   5.809   7.039  14.481
32927W        W 1332  36.295  13.708   1.355
32928W        W 1333  30.837  44.377  13.047
32929W        W 1334  38.904  20.235   2.839
32930W        W 1335   1.727  37.615   2.812
32931W        W 1336  20.756   7.504  14.741
32932W        W 1337  44.168  26.692   4.225
32933W        W 1338  33.116  37.223   2.114
32934W        W 1339   0.223  18.222   4.617
32935W        W 1340  14.437  28.129  13.009
32936W        W 1341   5.988  23.598  13.850
32937W        W 1342  28.556  26.401   5.031
32938W        W 1343  20.618  37.327   2.313
32939W        W 1344  39.064   5.019   0.913
32940W        W 1345  26.432  32.853  14.312
32941W        W 1346   9.436   7.937   0.181
32942W        W 1347  37.946   0.003   1.767
32943W        W 1348  31.183  22.312   1.782
32944W        W 1349  20.308  19.118   0.028
32945W        W 1350  36.937  25.214  12.074
32946W        W 1351   3.696  13.734   2.707
32947W        W 1352  23.677   9.377   1.437
32948W        W 1353   5.938  35.407   0.324
32949W        W 1354  30.064  37.446  12.500
32950W        W 1355  24.110   4.406   0.236
32951W        W 1356  40.514  37.143   1.918
32952W        W 1357  20.250  27.899   2.735
32953W        W 1358  26.022   6.821  11.222
32954W        W 1359  11.517   0.996   2.971
32955W        W 1360  21.388  37.207  10.362
32956W        W 1361  30.077   5.014   4.016
32957W        W 1362  22.300  37.921   1.880
32958W        W 1363  24.987  33.937   0.470
32959W        W 1364   3.394  11.579   0.499
32960W        W 1365  29.776  31.870  11.138
32961W        W 1366   6.396   0.015  11.149
32962W        W 1367  33.751  28.152  12.521
32963W        W 1368  14.358  42.558  14.353
32964W        W 1369   5.423   0.908   0.252
32965W        W 1370  37.431  33.214  10.649
32966W        W 1371   7.563  12.598  11.168
32967W        W 1372  44.187   0.775   2.829
32968W        W 1373  28.714  38.543  11.405
32969W        W 1374  40.482  41.613  11.391
32970W        W 1375   7.712  31.340   4.562
32971W        W 1376  36.789  41.407  12.531
32972W        W 1377   5.185  17.020   4.100
32973W        W 1378  28.926   9.697   4.890
32974W        W 1379  14.344  24.491  12.806
32975W        W 1380  44.890  14.743  11.732
32976W        W 1381  31.176  21.069   2.217
32977W        W 1382  26.127  43.235   1.803
32978W        W 1383  10.085   5.384  10.441
32979W        W 1384  42.799   4.769   0.722
32980W        W 1385  11.737  14.288   3.676
32981W        W 1386  36.570   5.268  14.015
32982W        W 1387  27.634  10.445  11.162
32983W        W 1388  38.980  35.431   3.374
32984W        W 1389  44.843   8.134   3.286
32985W        W 1390   8.833  30.409  12.586
32986W        W 1391  13.603  24.081   1.019
32987W        W 1392  13.690  26.268  11.125
32988W        W 1393  31.023   1.213  10.998
32989W        W 1394   6.358  29.935   0.151
32990W        W 1395   9.450   6.322   2.314
32991W        W 1396  34.056  24.010   2.862
32992W        W 1397  44.613  28.119  10.693
32993W        W 1398  44.042  42.580   0.281
32994W        W 1399  12.775  26.720   0.884
32995W        W 1400  44.237  23.193  14.984
32996W        W 1401  33.138  34.392  13.447
32997W        W 1402  14.866   7.468   0.680
32998W        W 1403   4.715   8.441   3.548
32999W        W 1404   1.270  32.540   2.829
33000W        W 1405   2.376  29.590  12.953
33001W        W 1406   3.216   1.113   3.687
33002W        W 1407  44.963  34.984   4.216
33003W        W 1408  11.916  30.548  11.859
33004W        W 1409  28.111  15.042   3.546
33005W        W 1410   3.685  21.930  14.847
33006W        W 1411  44.560  21.697  13.802
33007W        W 1412  31.376  38.874  14.939
33008W        W 1413  35.452  20.356   1.248
33009W        W 1414   9.690  33.822   0.332
33010W        W 1415   7.425  40.842   2.385
33011W        W 1416  41.097   5.884   4.085
33012W        W 1417   9.566  30.199   1.041
33013W        W 1418  17.658  37.612   4.120
33014W        W 1419  25.283  18.267   2.394
33015W        W 1420  30.562  32.215   3.211
33016W        W 1421   6.813   5.481   0.704
33017W        W 1422  13.759   3.426   3.368
33018W        W 1423  11.239  13.363   4.608
33019W        W 1424  34.203  28.037  12.310
33020W        W 1425  27.488  44.395   1.649
33021W        W 1426  31.912   5.334   2.106
33022W        W 1427  30.506   5.140   0.888
33023W        W 1428  20.483  40.912   3.329
33024W        W 1429  29.042  34.086   2.970
33025W        W 1430  19.767  16.783   3.334
33026W        W 1431  37.445  14.553  13.862
33027W        W 1432  14.854   9.699   1.240
33028W        W 1433  25.280  23.304   1.912
33029W        W 1434  36.681   3.466  11.540
33030W        W 1435  29.321   0.851   0.814
33031W        W 1436  27.962  20.521  14.022
33032W        W 1437   6.899   9.511  10.610
33033W        W 1438  17.800   5.835  12.027
33034W        W 1439  32.517  31.688  12.908
33035W        W 1440  23.308   1.240  14.229
33036W        W 1441  28.044   2.829   1.893
33037W        W 1442  23.169  42.885  11.402
33038W        W 1443  14.325   3.273  12.093
33039W        W 1444  26.556  17.182  11.892
33040W        W 1445  22.603  44.002   4.322
33041W        W 1446  32.943  17.256   4.167
33042W        W 1447   6.468  34.522  11.662
33043W        W 1448  14.170   9.310   0.367
33044W        W 1449  13.453  31.164  10.279
33045W        W 1450   3.311  23.531  11.119
33046W        W 1451  30.400  18.543  13.857
33047W        W 1452  36.650  31.007   3.335
33048W        W 1453   2.303  15.319  10.483
33049W        W 1454  23.659  13.702   4.325
33050W        W 1455   0.506  18.356   1.328
33051W        W 1456   5.438  38.480   4.633
33052W        W 1457   5.283   9.966   3.392
33053W        W 1458  44.095  41.656   0.690
33054W        W 1459   7.126   1.923   4.538
33055W        W 1460  32.720  24.797  14.464
33056W        W 1461  18.982  42.353  14.104
33057W        W 1462   4.647  34.013   1.293
33058W        W 1463  23.655  42.406   2.826
33059W        W 1464  26.871  23.656  12.537
33060W        W 1465  12.357  17.647  10.947
33061W        W 1466  16.287  14.241  12.122
33062W        W 1467  39.383   5.274  13.259
33063W        W 1468  39.088  28.473   3.306
33064W        W 1469  17.540   8.217   2.165
33065W        W 1470  39.342  40.398  11.972
33066W        W 1471  13.214  44.292   4.824
33067W        W 1472   7.315   7.158  12.488
33068W        W 1473  28.435  29.144   4.685
33069W        W 1474  18.123  29.096   1.825
33070W        W 1475   0.384  33.585  13.495
33071W        W 1476  28.989  44.560  14.861
33072W        W 1477  26.714  15.334  13.102
33073W        W 1478   5.756  19.990   4.060
33074W        W 1479  29.932  20.745  14.453
33075W        W 1480  40.425  43.447  14.267
33076W        W 1481  38.436  15.671   3.234
33077W        W 1482   3.719  25.090  13.853
33078W        W 1483  25.553  15.198   3.455
33079W        W 1484   0.736  29.655   1.966
33080W        W 1485  16.204  21.199   3.915
33081W        W 1486  10.238  29.905  13.956
33082W        W 1487  36.043   1.859   3.688
33083W        W 1488  29.326  44.389   2.822
33084W        W 1489  36.616   9.906  11.599
33085W        W 1490  14.598  44.968   0.702
33086W        W 1491   0.494  25.053   3.788
33087W        W 1492  43.696  29.735  13.696
33088W        W 1493  28.588  19.312   3.688
33089W        W 1494  44.478   9.903   1.017
33090W        W 1495  35.069  10.760   3.214
33091W        W 1496  32.979  32.183  11.508
33092W        W 1497  16.776  14.525  13.920
33093W        W 1498  11.373  34.989   1.931
33094W        W 1499   1.574  16.295   3.411
33095W        W 1500   7.847  36.958   2.885
33096W        W 1501  25.486  18.553   4.157
33097W        W 1502  34.773  29.532   0.304
33098W        W 1503  13.646  13.385  11.539
33099W        W 1504   8.900  44.470  11.989
33100W        W 1505  19.024  20.068  13.888
33101W        W 1506  29.084  37.036   4.532
33102W        W 1507   9.882   9.707   2.898
33103W        W 1508  29.076  26.941  13.880
33104W        W 1509   2.040   3.891  10.690
33105W        W 1510  23.570  25.211   3.689
33106W        W 1511  43.459  33.544  10.640
33107W        W 1512  40.549  25.153  10.813
33108W        W 1513  26.415  31.164   4.601
33109W        W 1514  36.441  21.147   1.827
33110W        W 1515  16.205  10.640   0.694
33111W        W 1516   4.343   1.254  13.094
33112W        W 1517  23.734   0.372   2.189
33113W        W 1518  11.908  26.152  14.897
33114W        W 1519   8.744  13.588  13.394
33115W        W 1520  14.351  39.639   2.821
33116W        W 1521  31.573  42.582  11.314
33117W        W 1522  10.793  15.243   4.534
33118W        W 1523  14.533   9.201   2.401
33119W        W 1524  39.964   8.686   4.195
33120W        W 1525  12.620  19.577  11.694
33121W        W 1526   3.687  21.238   2.489
33122W        W 1527   2.433  20.095  10.447
33123W        W 1528  40.800   4.539  11.225
33124W        W 1529  33.105  18.133  14.802
33125W        W 1530   8.390   2.289   1.722
33126W        W 1531  17.136   4.391   1.425
33127W        W 1532  17.096  44.833   2.741
33128W        W 1533   2.861  21.089  11.744
33129W        W 1534  38.755  35.983  10.932
33130W        W 1535  31.954  41.864   5.074
33131W        W 1536  39.042  36.864  12.448
33132W        W 1537  14.529   1.311  11.574
33133W        W 1538  36.822  43.771   1.199
33134W        W 1539  13.264  34.113   2.697
33135W        W 1540  41.592  15.774   1.325
33136W        W 1541  21.339  23.607   2.341
33137W        W 1542  33.939   9.617   2.087
33138W        W 1543  20.164  42.188  11.135
33139W        W 1544  28.821  22.337  12.084
33140W        W 1545  19.670  13.734   0.857
33141W        W 1546   5.316   1.468   4.323
33142W        W 1547  23.999   4.398   2.224
33143W        W 1548   5.286  41.991   1.764
33144W        W 1549  11.256   6.426   0.420
33145W        W 1550   6.311  23.985  14.745
33146W        W 1551  27.732  28.339   1.836
33147W        W 1552  12.649  29.582   3.632
33148W        W 1553  38.891  39.104  13.496
33149W        W 1554  24.215  26.239  12.488
33150W        W 1555  27.597   5.352  12.445
33151W        W 1556  42.022  23.601  12.088
33152W        W 1557  15.141  41.375  10.683
33153W        W 1558  20.359  23.527   5.150
33154W        W 1559  13.781  28.226  14.468
33155W        W 1560   0.230   5.763   1.201
33156W        W 1561  37.061   4.830  10.761
33157W        W 1562  33.433  10.791  13.450
33158W        W 1563  18.983  18.634  11.134
33159W        W 1564  42.537  32.120  14.248
33160W        W 1565  28.899  10.533  12.098
33161W        W 1566  15.118  10.981   4.201
33162W        W 1567  17.278  17.560   4.255
33163W        W 1568  38.842  29.368  10.592
33164W        W 1569   4.845  16.208   3.820
33165W        W 1570  25.083   4.948  10.235
33166W        W 1571  35.889  17.748   3.163
33167W        W 1572  15.678  26.194  13.498
33168W        W 1573   2.245   7.611   3.116
33169W        W 1574  37.494  41.270   2.064
33170W        W 1575  34.931  18.954  14.070
33171W        W 1576  23.597  33.207  12.862
33172W        W 1577  40.248  33.706  12.378
33173W        W 1578  10.165  36.587  10.358
33174W        W 1579  22.617  44.076  12.590
33175W        W 1580  20.886   2.719   1.351
33176W        W 1581  36.795  23.482  11.922
33177W        W 1582  38.545  15.658   2.185
33178W        W 1583  35.666   2.781   1.816
33179W        W 1584  42.512  26.212  13.985
33180W        W 1585  21.533  35.497   4.797
33181W        W 1586  32.720  29.559  11.130
33182W        W 1587  20.636  20.220  14.270
33183W        W 1588   6.278  19.306   4.549
33184W        W 1589  20.215  23.132   0.801
33185W        W 1590  38.101   9.800  13.048
33186W        W 1591   8.812  44.172  12.425
33187W        W 1592  27.238  44.889  13.555
33188W        W 1593   0.470   6.640   3.747
33189W        W 1594  34.060  29.698   0.837
33190W        W 1595  40.241  26.639  12.085
33191W        W 1596  22.621  39.937  11.258
33192W        W 1597  34.123   5.945  11.953
33193W        W 1598  31.139  36.324  13.933
33194W        W 1599  36.836   5.146  12.005
33195W        W 1600  43.828  20.856   1.883
33196W        W 1601   2.025  39.449   4.034
33197W        W 1602  22.682  26.738  14.421
33198W        W 1603  33.579  25.403   4.774
33199W        W 1604  14.839  38.916   3.235
33200W        W 1605  25.063  16.073  14.481
33201W        W 1606  33.926  36.751   4.267
33202W        W 1607  37.818  44.281  14.443
33203W        W 1608  17.308   1.858  13.430
33204W        W 1609   1.013  27.909   2.696
33205W        W 1610  25.959  18.319   4.199
33206W        W 1611  39.903  32.620   2.460
33207W        W 1612  14.889  32.926   0.460
33208W        W 1613  35.443  10.380   0.861
33209W        W 1614  27.711   2.803  11.991
33210W        W 1615   7.082  18.695   4.679
33211W        W 1616  34.607   8.576  14.577
33212W        W 1617  38.134  37.996   3.241
33213W        W 1618  12.320  13.590  13.412
33214W        W 1619   7.556  42.927   2.814
33215W        W 1620  11.895  22.082   1.194
33216W        W 1621   8.842  11.398  11.580
33217W        W 1622   6.103  26.869  14.740
33218W        W 1623  30.645  34.283   3.553
33219W        W 1624  10.914   6.830   1.900
33220W        W 1625   2.354   1.168   3.152
33221W        W 1626   1.468   6.181   0.450
33222W        W 1627  19.820   7.092   3.832
33223W        W 1628   4.209  15.184  12.869
33224W        W 1629  24.734  18.237  12.141
33225W        W 1630   5.742  38.896  11.160
33226W        W 1631  36.382  26.924   3.753
33227W        W 1632  11.697  44.395   2.421
33228W        W 1633   7.465  28.400   1.243
33229W        W 1634  31.367  31.402  12.375
33230W        W 1635   2.829  36.856  12.379
33231W        W 1636  18.739  37.752   3.651
33232W        W 1637  25.119  41.292  12.889
33233W        W 1638  17.211  26.904   4.302
33234W        W 1639   2.853   3.810  10.270
33235W        W 1640   7.673   2.407   4.060
33236W        W 1641  29.903  33.620  12.924
33237W        W 1642  22.042  34.066   2.265
33238W        W 1643  18.036  30.595   2.777
33239W        W 1644   5.148  23.033   3.677
33240W        W 1645  33.941   3.697   2.728
33241W        W 1646  43.787  44.819  10.983
33242W        W 1647  40.682  42.831  12.589
33243W        W 1648   2.294   1.671   2.172
33244W        W 1649  35.153  42.256   4.247
33245W        W 1650  24.680  21.806   0.908
33246W        W 1651  14.697  20.679   4.859
33247W        W 1652   7.796  32.476   0.322
33248W        W 1653   5.491  26.696  14.908
33249W        W 1654  36.306  26.064  11.593
33250W        W 1655  40.995   5.893  11.231
33251W        W 1656  17.581  28.727   3.764
33252W        W 1657  37.102  38.376   2.207
33253W        W 1658  31.046  26.444  10.603
33254W        W 1659   2.956   3.221  14.314
33255W        W 1660  38.013  20.121  11.589
33256W        W 1661  42.361  41.569  12.032
33257W        W 1662  44.980   9.850   4.726
33258W        W 1663  10.638  34.347   1.303
33259W        W 1664  24.162   1.464  12.530
33260W        W 1665  44.436  12.343   2.326
33261W        W 1666  13.755   1.269  13.025
33262W        W 1667  24.832  42.517  10.011
33263W        W 1668  19.145   5.216  14.078
33264W        W 1669   3.244  29.537   1.842
33265W        W 1670  36.525  43.747  13.324
33266W        W 1671  35.901  18.937   3.598
33267W        W 1672   8.623  10.368   3.203
33268W        W 1673  27.002   3.170   2.922
33269W        W 1674  12.127  10.281   2.618
33270W        W 1675  34.922   2.788   2.461
33271W        W 1676  44.386  28.960  12.591
33272W        W 1677   8.309  18.561   1.270
33273W        W 1678  33.700  31.466  11.172
33274W        W 1679  40.720  32.567   4.201
33275W        W 1680  37.142  12.389   4.137
33276W        W 1681  18.631  17.676   3.710
33277W        W 1682  15.204  34.241   5.221
33278W        W 1683  16.394  30.039   3.615
33279W        W 1684  42.100  30.609  14.808
33280W        W 1685  10.060  37.276  10.085
33281W        W 1686  15.282  15.336   0.290
33282W        W 1687   5.311  44.088  14.009
33283W        W 1688  37.414  28.040  14.896
33284W        W 1689   8.428  16.813  13.893
33285W        W 1690   0.255  37.397   3.193
33286W        W 1691  23.650  27.159   0.256
33287W        W 1692  31.077  36.131  14.450
33288W        W 1693  43.393  28.916  11.225
33289W        W 1694  27.533  11.216   0.520
33290W        W 1695  29.001  14.115  10.230
33291W        W 1696  35.587  35.649  12.971
33292W        W 1697  10.834  37.598   1.080
33293W        W 1698  30.549  35.031   2.323
33294W        W 1699  14.953  14.559   3.991
33295W        W 1700  21.711   1.466  10.456
33296W        W 1701  28.239  25.218  14.821
33297W        W 1702  19.811  28.179   2.849
33298W        W 1703  21.737  19.035  10.755
33299W        W 1704  19.956  34.945   4.521
33300W        W 1705  12.296  26.004   3.680
33301W        W 1706  34.839  14.766  13.564
33302W        W 1707   1.920  25.136  11.666
33303W        W 1708  42.767   1.794   2.890
33304W        W 1709  39.319  19.532  12.171
33305W        W 1710  22.954  11.844   4.900
33306W        W 1711  35.505  20.179  11.310
33307W        W 1712  34.564  10.155   2.181
33308W        W 1713  29.990   5.465   1.790
33309W        W 1714  20.785  15.277  10.609
33310W        W 1715  25.141  31.473  12.711
33311W        W 1716  44.992  11.854   2.618
33312W        W 1717   6.754  16.093   1.372
33313W        W 1718  39.791  39.060  12.249
33314W        W 1719  32.853  41.712   0.150
33315W        W 1720  13.670  29.896  14.842
33316W        W 1721  38.711  34.991   3.255
33317W        W 1722   9.146   7.666  12.069
33318W        W 1723  26.078  23.279  10.808
33319W        W 1724  12.129  40.804  12.015
33320W        W 1725  39.110  15.745   4.179
33321W        W 1726  35.454  13.603   2.001
33322W        W 1727  43.890  37.136  12.812
33323W        W 1728  34.603  28.933  14.310
33324W        W 1729   5.654  36.325  10.459
33325W        W 1730  38.496   9.547  11.381
33326W        W 1731   2.791  20.501   3.111
33327W        W 1732  34.446  13.560   3.270
33328W        W 1733  38.425  19.760  10.763
33329W        W 1734  41.924   0.435   0.498
33330W        W 1735   4.219   8.759   4.183
33331W        W 1736  30.379  22.894  14.032
33332W        W 1737   9.754  14.267  12.055
33333W        W 1738  41.289  43.722   1.180
33334W        W 1739   0.432  26.397   2.447
33335W        W 1740  35.404  25.007  13.989
33336W        W 1741  35.388  29.876  13.933
33337W        W 1742  35.902  26.379  14.369
33338W        W 1743  13.280  14.266   0.387
33339W        W 1744   3.853  42.824  13.345
33340W        W 1745  31.543  38.250   2.666
33341W        W 1746  38.906  44.252   1.734
33342W        W 1747   6.891  42.456  10.975
33343W        W 1748   3.662  20.536   0.684
33344W        W 1749  31.458   5.522   2.217
33345W        W 1750  28.087   5.431  11.399
33346W        W 1751  25.138  11.642  13.374
33347W        W 1752  21.853  37.539  12.532
33348W        W 1753  34.654   0.274   1.520
33349W        W 1754  19.273   3.018   3.135
33350W        W 1755  28.419   3.358  10.527
33351W        W 1756  27.966  36.035  14.808
33352W        W 1757  20.113  29.946   1.408
33353W        W 1758  23.657  34.116  12.668
33354W        W 1759   5.582  15.339  13.475
33355W        W 1760  22.692  16.098  11.938
33356W        W 1761   1.919  36.085   4.038
33357W        W 1762  35.948   5.174  12.078
33358W        W 1763  31.322  24.062   2.793
33359W        W 1764   6.516  29.573   4.024
33360W        W 1765  11.090  40.196  10.631
33361W        W 1766  37.059  19.020  12.479
33362W        W 1767  19.275  22.098   4.739
33363W        W 1768  15.780  21.069  11.900
33364W        W 1769  41.960  40.163   4.479
33365W        W 1770  33.315  10.266   4.537
33366W        W 1771  40.692  36.563   0.346
33367W        W 1772  12.467  28.925  13.351
33368W        W 1773  42.809  33.915   4.117
33369W        W 1774  22.737  40.998  13.569
33370W        W 1775  23.206  33.622  12.043
33371W        W 1776   9.108  16.007  12.186
33372W        W 1777  44.286   8.199   1.081
33373W        W 1778  18.786  19.091  13.532
33374W        W 1779   1.366  20.187   2.829
33375W        W 1780  12.306  11.728  10.975
33376W        W 1781   8.392   8.233   3.670
33377W        W 1782  25.536  27.574   4.938
33378W        W 1783  43.205  12.048  14.922
33379W        W 1784  20.175  44.965  14.506
33380W        W 1785  10.351  39.063   1.386
33381W        W 1786   0.513  37.695   2.308
33382W        W 1787  25.760  21.502   0.703
33383W        W 1788   8.119  30.721   3.203
33384W        W 1789   4.018  44.889   1.903
33385W        W 1790  30.677  22.194   1.935
33386W        W 1791  15.959  38.478  12.106
33387W        W 1792  25.164  14.376  11.123
33388W        W 1793  19.271  35.101  11.051
33389W        W 1794  14.901  30.463  11.207
33390W        W 1795  21.741   6.384  12.068
33391W        W 1796  24.839   6.575  11.304
33392W        W 1797  17.993  31.511  13.024
33393W        W 1798  11.949   4.718  13.192
33394W        W 1799  24.075  33.019   1.628
33395W        W 1800   2.335  34.757   4.099
33396W        W 1801  42.563  18.133   2.814
33397W        W 1802  12.139   6.307   2.853
33398W        W 1803  41.269  12.756   3.005
33399W        W 1804  23.553  10.413   2.252
33400W        W 1805  28.379  28.722  12.655
33401W        W 1806  38.621  16.724  11.150
33402W        W 1807  37.175  37.057   4.729
33403W        W 1808   9.943   8.809   3.268
33404W        W 1809  31.630  12.159  13.070
33405W        W 1810   6.011  30.665  13.207
33406W        W 1811  23.233   0.741  11.907
33407W        W 1812  35.965   2.937  10.750
33408W        W 1813   1.737   1.153   0.737
33409W        W 1814   0.558  16.198  14.926
33410W        W 1815  29.407  21.324   0.937
33411W        W 1816  21.203  14.121  10.228
33412W        W 1817  40.602  44.277  14.833
33413W        W 1818   8.127  42.891  12.682
33414W        W 1819  39.085  23.416  11.063
33415W        W 1820  19.244  19.831  14.652
33416W        W 1821  31.398   4.773   2.678
33417W        W 1822   2.010  44.744   3.297
33418W        W 1823  23.332  22.853   3.260
33419W        W 1824  14.217   1.988   1.542
33420W        W 1825   8.822  18.389   1.246
33421W        W 1826  38.584  25.958  12.946
33422W        W 1827  22.221  42.835  14.520
33423W        W 1828   5.312   4.742   3.916
33424W        W 1829   4.931  44.147  11.981
33425W        W 1830  39.260  14.701  12.032
33426W        W 1831   9.845   7.826  11.029
33427W        W 1832  44.879   3.485   4.552
33428W        W 1833  17.690  30.497   0.358
33429W        W 1834  16.851  25.449  13.818
33430W        W 1835  28.245  39.826  11.057
33431W        W 1836  27.986  37.153  10.942
33432W        W 1837  28.051  43.793   1.678
33433W        W 1838  10.034  44.802  12.569
33434W        W 1839   2.199  26.171  14.476
33435W        W 1840  44.103   9.627  10.770
33436W        W 1841  11.193  32.019  13.103
33437W        W 1842  40.354  22.402  11.934
33438W        W 1843  36.238  25.307   1.788
33439W        W 1844   7.738  32.609  13.978
33440W        W 1845  41.789   8.695   4.042
33441W        W 1846   4.402   0.241  12.708
33442W        W 1847  37.146  32.071   4.968
33443W        W 1848  29.183   0.338  12.979
33444W        W 1849  15.824   3.740   4.981
33445W        W 1850   5.389   3.773   2.848
33446W        W 1851  19.485   9.458   1.840
33447W        W 1852   3.840  39.882   1.673
33448W        W 1853  16.858  29.292  12.559
33449W        W 1854  42.266  37.932  12.911
33450W        W 1855  15.880   6.805  14.938
33451W        W 1856  43.894   1.278   2.743
33452W        W 1857  14.762  28.062   1.421
33453W        W 1858  32.925  33.107   1.313
33454W        W 1859  11.808  26.702  13.201
33455W        W 1860  38.568  29.211  12.555
33456W        W 1861  10.925  22.269  11.575
33457W        W 1862  38.761  11.811   2.868
33458W        W 1863  39.995  42.815   3.221
33459W        W 1864  28.439  24.430  10.434
33460W        W 1865  17.155  25.617  12.800
33461W        W 1866  20.244  23.437   1.741
33462W        W 1867  18.209  39.852   0.460
33463W        W 1868  25.497   9.093   1.790
33464W        W 1869  28.571   1.345   1.499
33465W        W 1870  17.280  27.990   3.667
33466W        W 1871  43.585  27.786  14.020
33467W        W 1872   9.194  35.936   3.732
33468W        W 1873  23.247  19.584  11.932
33469W        W 1874  10.796   0.845  10.578
33470W        W 1875   4.445  36.568   4.581
33471W        W 1876  37.445  24.231   4.126
33472W        W 1877  32.069  30.384  11.717
33473W        W 1878  34.842  16.059  14.678
33474W        W 1879   8.309  29.570   3.837
33475W        W 1880   3.502  44.380  12.887
33476W        W 1881  40.538  18.688  12.110
33477W        W 1882  27.624  38.125   2.362
33478W        W 1883   5.694   7.337   4.093
33479W        W 1884   9.940  42.943   3.286
33480W        W 1885  35.745  43.404   2.063
33481W        W 1886   1.496  27.976   2.907
33482W        W 1887  22.120  10.746   4.612
33483W        W 1888  25.364  39.671  13.254
33484W        W 1889  24.079  38.530   4.838
33485W        W 1890  26.997   0.820   0.300
33486W        W 1891  20.644  26.548  12.939
33487W        W 1892  34.622  36.932  13.478
33488W        W 1893  39.537  16.117  14.869
33489W        W 1894   0.375   6.156   0.361
33490W        W 1895  44.898  34.665   0.383
33491W        W 1896   8.399  16.858   0.434
33492W        W 1897  27.020  32.619   0.237
33493W        W 1898  36.982  34.381  14.291
33494W        W 1899  10.151   2.382  13.438
33495W        W 1900  30.195  15.299  10.691
33496W        W 1901   3.867  23.207   3.071
33497W        W 1902  15.658  15.297   1.003
33498W        W 1903  42.384  21.585  14.386
33499W        W 1904  24.607  32.654  12.479
33500W        W 1905  11.628  23.195   4.632
33501W        W 1906  30.198  44.798   3.600
33502W        W 1907  42.622  32.574   1.841
33503W        W 1908  32.454  29.923  10.826
33504W        W 1909   4.140  33.413   3.475
33505W        W 1910   4.206   5.960  12.135
33506W        W 1911  19.737  43.555   2.333
33507W        W 1912   9.739  22.750  12.932
33508W        W 1913   8.854  22.081   3.209
33509W        W 1914  36.667  15.909   1.605
33510W        W 1915  26.744  41.597   3.626
33511W        W 1916  21.107  11.675  11.555
33512W        W 1917  17.301   1.707   1.992
33513W        W 1918  11.830  28.202   0.992
33514W        W 1919  17.762   7.654  11.093
33515W        W 1920  22.470  44.613  14.018
33516W        W 1921  29.611  34.642   1.952
33517W        W 1922  20.757  26.681  12.457
33518W        W 1923  16.099  19.900   1.731
33519W        W 1924  20.291  19.598  10.664
33520W        W 1925  16.048  18.303   0.031
33521W        W 1926   8.990   1.649   1.482
33522W        W 1927  20.134  19.665   2.800
33523W        W 1928  30.961  23.586   4.724
33524W        W 1929  42.471  44.279   0.127
33525W        W 1930  23.179  40.293   2.906
33526W        W 1931  29.399   2.682   0.489
33527W        W 1932   6.395  28.011  13.950
33528W        W 1933   5.658   4.258  14.295
33529W        W 1934   2.740  42.308   4.528
33530W        W 1935  36.513  23.979   3.951
33531W        W 1936  13.364  38.291   0.039
33532W        W 1937  41.025  31.933   1.217
33533W        W 1938  24.107  16.134   3.319
33534W        W 1939  44.831  40.351   1.162
33535W        W 1940  44.592   2.544   3.751
33536W        W 1941  36.999  24.189   0.321
33537W        W 1942  30.294  30.981  12.807
33538W        W 1943  21.000   8.341  11.957
33539W        W 1944  28.272  31.041  10.814
33540W        W 1945  34.872  22.075  13.265
33541W        W 1946   1.060  20.121   4.382
33542W        W 1947  23.950  38.357  12.101
33543W        W 1948  25.456  26.507  13.956
33544W        W 1949  16.986   0.570  11.624
33545W        W 1950  43.399  28.017  10.232
33546W        W 1951  26.326  24.990  13.918
33547W        W 1952  25.881  29.419   4.837
33548W        W 1953  18.776  41.957  13.834
33549W        W 1954   0.681  25.416   0.385
33550W        W 1955   2.357  34.525  11.179
33551W        W 1956   3.212  13.357  12.436
33552W        W 1957  15.669  35.587   1.850
33553W        W 1958  20.550  42.991   2.760
33554W        W 1959  10.007  37.446   4.200
33555W        W 1960  28.686  18.762   9.828
33556W        W 1961  39.215   1.738   2.830
33557W        W 1962  21.085  11.199  14.498
33558W        W 1963  23.743  22.955  11.577
33559W        W 1964  34.899  12.759  10.805
33560W        W 1965  41.008  31.001   1.228
33561W        W 1966  31.119  44.828   4.508
33562W        W 1967  13.765  15.094  13.438
33563W        W 1968   7.169  28.070   0.971
33564W        W 1969  35.084  25.044   4.071
33565W        W 1970  23.441  22.006   2.012
33566W        W 1971  15.083  39.592   4.198
33567W        W 1972   5.606  43.279   0.775
33568W        W 1973  40.236   3.427  12.944
33569W        W 1974  12.727  19.584  10.718
33570W        W 1975  27.329  34.183   0.745
33571W        W 1976   6.088  25.611  12.972
33572W        W 1977  13.726   9.138  13.707
33573W        W 1978   0.650  14.829   1.895
33574W        W 1979  44.430   6.795   4.610
33575W        W 1980  44.399  38.022   3.162
33576W        W 1981  24.566  30.492  10.733
33577W        W 1982  14.782  13.232  13.467
33578W        W 1983  43.819   5.015   2.281
33579W        W 1984  14.715  33.984  11.685
33580W        W 1985   1.823   8.704   1.760
33581W        W 1986   8.003  33.295   5.018
33582W        W 1987  27.616  40.441   2.389
33583W        W 1988   7.966  30.455  12.943
33584W        W 1989  27.870  44.703   1.865
33585W        W 1990   1.440  37.707  14.451
33586W        W 1991  26.433  43.438   3.594
33587W        W 1992  25.790  44.254  11.555
33588W        W 1993  39.258   8.213   0.867
33589W        W 1994  25.150  12.222  11.967
33590W        W 1995  44.811  35.760  13.802
33591W        W 1996  27.727  26.027   0.739
33592W        W 1997  28.911   5.399  13.115
33593W        W 1998  41.602  20.164   4.518
33594W        W 1999   8.704  40.080   0.304
33595W        W 2000   0.151  41.352   1.888
33596W        W 2001  12.801  15.463  12.544
33597W        W 2002  12.754  40.406   3.804
33598W        W 2003  11.668  39.900   4.525
33599W        W 2004  41.576  17.337  12.376
33600W        W 2005  43.934  22.774  13.593
33601W        W 2006  41.080  40.863  14.262
33602W        W 2007  40.777  36.168  14.531
33603W        W 2008  25.582   0.914   4.141
33604W        W 2009  18.387  27.781   3.166
33605W        W 2010   0.410  15.161  14.868
33606W        W 2011  42.422   9.092  12.005
33607W        W 2012  27.842  21.047   4.938
33608W        W 2013  18.539  35.839  11.135
33609W        W 2014  19.051  43.451  11.112
33610W        W 2015  11.471  11.442  11.037
33611W        W 2016  24.885  32.530  11.186
33612W        W 2017  12.852   5.725  10.690
33613W        W 2018  12.016  11.561   0.597
33614W        W 2019  10.352  34.592  10.528
33615W        W 2020   7.258  12.756  13.375
33616W        W 2021  42.033  18.539  10.565
33617W        W 2022  28.610  22.551  13.418
33618W        W 2023   4.918  13.060  12.319
33619W        W 2024  28.576  35.625  12.687
33620W        W 2025  41.385  32.876  14.970
33621W        W 2026  20.563  17.149   4.136
33622W        W 2027  21.816  28.195   0.474
33623W        W 2028  14.989   8.826  11.483
33624W        W 2029  11.876  12.826  11.168
33625W        W 2030  40.470  32.807   0.918
33626W        W 2031  39.846  18.588   0.897
33627W        W 2032  24.066  21.539  10.677
33628W        W 2033   3.204  17.092  12.042
33629W        W 2034  12.308  30.581  11.528
33630W        W 2035  26.748  30.533   3.589
33631W        W 2036  29.496  37.954  14.789
33632W        W 2037  25.100  44.464   4.708
33633W        W 2038   6.154  32.841  14.113
33634W        W 2039   5.432  28.411   3.635
33635W        W 2040  30.914   6.368   3.651
33636W        W 2041  43.042  28.490  13.364
33637W        W 2042  16.922  17.727   2.703
33638W        W 2043  32.036  27.117   0.319
33639W        W 2044  42.378   8.700  13.159
33640W        W 2045  42.317  10.288  10.737
33641W        W 2046  34.540  18.574   3.821
33642W        W 2047  16.385  35.465   0.738
33643W        W 2048   5.321  13.638   3.876
33644W        W 2049  16.866  37.400  13.751
33645W        W 2050  25.601  18.255   0.279
33646W        W 2051  30.930   4.315  14.096
33647W        W 2052  14.218   7.979  11.597
33648W        W 2053  17.565  31.894  13.149
33649W        W 2054  41.774  14.418  14.898
33650W        W 2055   2.483  42.586   0.260
33651W        W 2056  29.195  28.919  14.200
33652W        W 2057  23.509  26.084  10.685
33653W        W 2058   1.770  28.040  14.070
33654W        W 2059  11.760  24.431  12.960
33655W        W 2060  28.027   3.711  14.224
33656W        W 2061   0.740  15.814  14.571
33657W        W 2062  41.875  21.614   0.503
33658W        W 2063  28.213   0.939   0.106
33659W        W 2064  11.924  13.912   2.295
33660W        W 2065  21.674  15.128  13.983
33661W        W 2066   8.382  10.039  12.113
33662W        W 2067  14.324  41.080  13.348
33663W        W 2068  28.951  21.694  13.061
33664W        W 2069  34.515  17.080  11.014
33665W        W 2070   1.305  23.909  11.119
33666W        W 2071  43.058  13.176   0.257
33667W        W 2072   4.033   5.725  11.231
33668W        W 2073  23.950  15.035   4.823
33669W        W 2074  37.298   8.301  10.886
33670W        W 2075  26.597  13.794  14.237
33671W        W 2076  44.371  31.108   3.252
33672W        W 2077   4.844  33.558  10.650
33673W        W 2078  33.898   0.943   2.820
33674W        W 2079  13.333  25.039  13.357
33675W        W 2080  28.549  36.639  12.473
33676W        W 2081  31.834  11.624  13.400
33677W        W 2082   5.077  18.045  13.771
33678W        W 2083  14.238  21.345  10.977
33679W        W 2084  25.507  26.080   4.522
33680W        W 2085  32.405  14.290  11.351
33681W        W 2086  13.354  38.918  11.513
33682W        W 2087  36.521  35.352  12.134
33683W        W 2088  27.270  13.212  13.094
33684W        W 2089  12.442  29.246   1.224
33685W        W 2090  34.471   6.181   2.083
33686W        W 2091   3.477  38.026   2.384
33687W        W 2092  16.280  11.581  11.436
33688W        W 2093  25.638  34.082  14.123
33689W        W 2094  22.913   3.288  14.975
33690W        W 2095  17.914  19.496   0.759
33691W        W 2096  17.216  32.082   5.004
33692W        W 2097   1.350  42.166   3.792
33693W        W 2098  22.496  28.664   0.397
33694W        W 2099  16.750   6.439   2.404
33695W        W 2100  11.005  19.383  14.033
33696W        W 2101  26.187  25.679   4.553
33697W        W 2102  35.459   4.942  11.993
33698W        W 2103  35.806  29.524   1.237
33699W        W 2104   9.597  16.294  13.501
33700W        W 2105  25.921  41.881   3.357
33701W        W 2106  27.989  43.032  10.512
33702W        W 2107  24.207  37.350   3.213
33703W        W 2108  41.364   1.813  10.602
33704W        W 2109  19.991  30.071  10.847
33705W        W 2110  20.253  25.628  11.368
33706W        W 2111  29.922  19.213   2.702
33707W        W 2112   9.307  16.343   4.033
33708W        W 2113  24.989  28.602   3.631
33709W        W 2114  36.706  15.813  12.945
33710W        W 2115  22.515  35.845   1.291
33711W        W 2116  40.017   7.214   3.993
33712W        W 2117  43.832  15.072  10.448
33713W        W 2118   4.291   6.434   1.716
33714W        W 2119   4.292  18.412  11.454
33715W        W 2120   3.138  19.477  14.882
33716W        W 2121  39.827  19.113   2.252
33717W        W 2122  10.654  10.338  11.109
33718W        W 2123   7.787  27.146  13.940
33719W        W 2124   5.565  14.791  12.015
33720W        W 2125  23.100  43.545  12.098
33721W        W 2126  14.036   8.686  11.109
33722W        W 2127  28.439  39.390   3.777
33723W        W 2128   2.798   0.911   0.707
33724W        W 2129  28.550  24.697   1.697
33725W        W 2130  44.214   8.679   1.287
33726W        W 2131  20.199  13.582  13.993
33727W        W 2132  41.904   8.891   0.213
33728W        W 2133  33.908   6.222  10.615
33729W        W 2134   2.284  30.477  14.964
33730W        W 2135  43.460   4.823   9.931
33731W        W 2136  20.501  24.511  11.006
33732W        W 2137  17.617   9.726   1.138
33733W        W 2138  22.782  42.761   3.976
33734W        W 2139  10.166  30.540  10.745
33735W        W 2140  43.587  32.070  14.033
33736W        W 2141  38.973  18.723   1.928
33737W        W 2142  36.533  24.474   0.272
33738W        W 2143  34.502   0.257   2.874
33739W        W 2144  26.450  29.017  14.894
33740W        W 2145  42.232  21.514  12.461
33741W        W 2146  44.277  35.293   0.787
33742W        W 2147   8.258  10.114   3.442
33743W        W 2148  21.601  39.659   4.143
33744W        W 2149  13.271  15.299   3.456
33745W        W 2150  41.541   8.845  14.375
33746W        W 2151  20.314  21.629   1.434
33747W        W 2152  11.800   9.331  14.883
33748W        W 2153   3.242  42.975  12.625
33749W        W 2154  42.927   7.230  12.926
33750W        W 2155  18.342  26.282   3.757
33751W        W 2156  44.420   1.469  12.921
33752W        W 2157  34.019  19.758  12.128
33753W        W 2158  18.570  33.386  11.188
33754W        W 2159   2.364  16.646   2.343
33755W        W 2160  17.459   8.778  12.370
33756W        W 2161   7.075  27.255   3.233
33757W        W 2162   5.139  40.577   1.552
33758W        W 2163  16.548  33.009  12.000
33759W        W 2164  37.722  15.627  14.656
33760W        W 2165  40.984   3.439  13.236
33761W        W 2166  24.322   0.302   4.128
33762W        W 2167   5.186  39.634   0.590
33763W        W 2168   2.416  18.316   4.831
33764W        W 2169   9.358   7.913  11.686
33765W        W 2170  22.339  31.019   2.216
33766W        W 2171  28.881  34.503   3.736
33767W        W 2172  16.113   7.577   9.809
33768W        W 2173  22.895   8.221   0.347
33769W        W 2174  37.185  43.914   3.610
33770W        W 2175  39.507  22.621   1.272
33771W        W 2176  32.465   4.396   4.210
33772W        W 2177  30.481  35.197  11.862
33773W        W 2178  32.927   2.875  11.091
33774W        W 2179  21.027   0.380  11.331
33775W        W 2180  16.796   0.196  12.429
33776W        W 2181  43.424  30.878   0.853
33777W        W 2182  38.471  10.901  11.070
33778W        W 2183  32.463   9.607  14.451
33779W        W 2184  24.591  21.430  11.458
33780W        W 2185  12.264  28.514   5.511
33781W        W 2186  22.835   6.986  10.274
33782W        W 2187  42.169   8.424   3.855
33783W        W 2188  10.120   2.861  10.291
33784W        W 2189  16.238   1.765   1.485
33785W        W 2190  13.260  33.011  10.263
33786W        W 2191  22.493  14.726   4.096
33787W        W 2192   3.423  26.586  11.030
33788W        W 2193   2.647  18.341   3.038
33789W        W 2194  14.685   4.779   3.673
33790W        W 2195  39.292  32.742   4.220
33791W        W 2196  14.801  16.206   2.224
33792W        W 2197   2.725  41.470  11.530
33793W        W 2198   3.901  27.546   0.010
33794W        W 2199  29.544  35.183  11.498
33795W        W 2200   5.434  12.524   3.597
33796W        W 2201   9.645  37.938   2.995
33797W        W 2202  28.462  11.273   0.412
33798W        W 2203  39.271   4.750   1.514
33799W        W 2204  28.388  19.041   2.241
33800W        W 2205  38.224  38.501   3.324
33801W        W 2206  29.139   7.829   2.305
33802W        W 2207  14.204  16.728   3.978
33803W        W 2208  21.083  21.150  14.789
33804W        W 2209  11.216   1.853  13.446
33805W        W 2210  17.498  41.996   1.781
33806W        W 2211   4.557  11.641  11.639
33807W        W 2212   0.647  17.119  11.700
33808W        W 2213  44.018   6.134  12.838
33809W        W 2214  19.145  16.637  12.161
33810W        W 2215  11.659   2.745  14.137
33811W        W 2216  31.610   5.960   0.404
33812W        W 2217  20.346  28.019  11.461
33813W        W 2218  10.134  15.078  10.300
33814W        W 2219  40.830  23.426  11.679
33815W        W 2220  22.991   4.225  14.504
33816W        W 2221  10.342  21.479   3.886
33817W        W 2222  30.532  31.019   2.186
33818W        W 2223  28.865  31.462   0.457
33819W        W 2224  40.083  34.170  14.418
33820W        W 2225  17.715  14.681  14.260
33821W        W 2226  22.263  13.675  11.626
33822W        W 2227   8.325  26.928   5.208
33823W        W 2228  29.911  20.722   4.989
33824W        W 2229  23.742  25.221   1.812
33825W        W 2230  24.431  13.315   0.992
33826W        W 2231  14.786   8.885   4.164
33827W        W 2232   0.312  25.681   3.204
33828W        W 2233  40.963  44.289  13.494
33829W        W 2234  43.797   2.256   0.793
33830W        W 2235   0.267  42.292  13.489
33831W        W 2236  27.135  42.267   4.090
33832W        W 2237  16.116  12.301   0.878
33833W        W 2238  40.916  44.941  14.883
33834W        W 2239  41.145  25.904   4.295
33835W        W 2240  12.694  43.460  12.864
33836W        W 2241  39.788  26.050  11.462
33837W        W 2242  22.546  23.069   2.825
33838W        W 2243  18.296  35.979   0.626
33839W        W 2244   9.333  16.923   4.099
33840W        W 2245  35.156  29.418  12.071
33841W        W 2246  33.666  39.559  11.618
33842W        W 2247  34.887  22.525  13.522
33843W        W 2248   1.138  20.679   1.113
33844W        W 2249  29.834  44.230  13.165
33845W        W 2250  43.573  29.559  11.650
33846W        W 2251   1.358  34.064  14.381
33847W        W 2252  28.171  41.462  13.354
33848W        W 2253  35.883   6.630  11.127
33849W        W 2254   8.439  27.809   4.912
33850W        W 2255  44.333  27.484  12.008
33851W        W 2256  27.590  15.664  10.675
33852W        W 2257   7.808  14.543  12.835
33853W        W 2258   0.550  12.059   4.462
33854W        W 2259  29.430  11.395   1.680
33855W        W 2260  34.175  22.667   4.373
33856W        W 2261  21.050  17.123   0.866
33857W        W 2262  32.201   9.385   3.461
33858W        W 2263  18.842  41.686  12.443
33859W        W 2264  22.566   3.678   0.850
33860W        W 2265  13.101  11.345   4.925
33861W        W 2266  43.933  10.735   1.391
33862W        W 2267  34.987  41.364  11.663
33863W        W 2268  11.312  36.495  13.978
33864W        W 2269  13.612   2.073   1.405
33865W        W 2270  17.069  37.599   2.371
33866W        W 2271  41.905  10.831   0.989
33867W        W 2272  21.536  25.823  11.806
33868W        W 2273  16.963   5.378   3.107
33869W        W 2274  13.087  38.932  11.963
33870W        W 2275   6.314   5.726   1.377
33871W        W 2276  35.034  10.218   4.614
33872W        W 2277  37.338  27.136   0.929
33873W        W 2278  34.557  43.542   4.106
33874W        W 2279  22.135  10.081   4.371
33875W        W 2280  36.570   7.619  12.310
33876W        W 2281  37.667  29.190  10.188
33877W        W 2282   6.638  34.363   2.910
33878W        W 2283  13.605  32.313   4.640
33879W        W 2284   3.443  35.435   4.711
33880W        W 2285  36.584  26.180  12.040
33881W        W 2286  29.129   9.390   1.160
33882W        W 2287  38.828   5.976  12.538
33883W        W 2288   6.920  10.903   0.566
33884W        W 2289  34.996  38.943   3.298
33885W        W 2290  29.186  13.826   1.732
33886W        W 2291   2.190  14.877   1.839
33887W        W 2292   1.648   9.940   3.709
33888W        W 2293  36.852  41.516  11.934
33889W        W 2294  27.192  25.610   4.802
33890W        W 2295  22.033  19.129   4.493
33891W        W 2296  35.075  37.426  12.871
33892W        W 2297  22.734  30.246  14.367
33893W        W 2298   0.951  18.841  12.990
33894W        W 2299  14.075  42.061   1.795
33895W        W 2300  15.520  24.656   5.122
33896W        W 2301  37.363   6.340  14.609
33897W        W 2302  31.620  43.600   0.978
33898W        W 2303  26.516   9.396  13.329
33899W        W 2304  31.403   5.248  11.106
33900W        W 2305  32.862  35.631   2.805
33901W        W 2306   6.438  41.627   2.859
33902W        W 2307  31.103   4.183   4.560
33903W        W 2308   3.969   5.659   3.329
33904W        W 2309   4.856  38.017   1.451
33905W        W 2310  43.764  16.610   4.152
33906W        W 2311  18.096  35.983   2.745
33907W        W 2312  39.058  38.319   3.611
33908W        W 2313  14.873  40.083   4.172
33909W        W 2314  14.406  37.582   3.670
33910W        W 2315  18.832   2.939   1.339
33911W        W 2316   2.841  16.725  12.935
33912W        W 2317  40.311  42.641  11.649
33913W        W 2318  39.387   6.638  14.179
33914W        W 2319  34.100  22.546  10.891
33915W        W 2320  18.702  12.872   4.647
33916W        W 2321   3.162  42.474  14.393
33917W        W 2322   2.925  18.987  12.956
33918W        W 2323  21.075   1.016   2.420
33919W        W 2324  13.685  14.442  12.426
33920W        W 2325  39.865   7.911   1.627
33921W        W 2326  12.585   0.898   3.731
33922W        W 2327  29.852  44.225  14.052
33923W        W 2328  37.021  19.561  14.917
33924W        W 2329  34.873   9.106  10.806
33925W        W 2330   0.720  13.806  13.002
33926W        W 2331  33.458  16.164  11.159
33927W        W 2332  28.901  31.275  11.845
33928W        W 2333  25.266  36.367   2.364
33929W        W 2334  22.244  31.641  13.839
33930W        W 2335  16.778  25.339   3.073
33931W        W 2336  13.277   4.757   0.059
33932W        W 2337   3.162  21.964  13.627
33933W        W 2338  43.737  42.581  14.857
33934W        W 2339  11.096  31.519  12.986
33935W        W 2340   3.038  29.179  14.710
33936W        W 2341  11.426   8.234  13.875
33937W        W 2342  29.762  11.599  14.416
33938W        W 2343  11.977  35.303   1.376
33939W        W 2344  26.044   6.113  12.329
33940W        W 2345   0.257   9.047   4.137
33941W        W 2346  24.147  40.320   3.841
33942W        W 2347   9.065  24.392   0.882
33943W        W 2348  31.974  44.178  11.002
33944W        W 2349  35.842  26.693   4.694
33945W        W 2350  44.028  24.468  14.522
33946W        W 2351  12.609   3.014  11.089
33947W        W 2352   3.327  40.435   5.054
33948W        W 2353  29.939  21.996  14.018
33949W        W 2354  44.255  22.162  12.083
33950W        W 2355  23.789  34.628  14.349
33951W        W 2356   9.765  31.369  10.662
33952W        W 2357  10.475  33.981  11.242
33953W        W 2358   0.489   0.947  10.874
33954W        W 2359  30.148  26.291  13.850
33955W        W 2360  36.079  15.795   0.388
33956W        W 2361  15.221  25.324   0.927
33957W        W 2362  25.104  29.414   0.722
33958W        W 2363  20.311  43.461  12.176
33959W        W 2364  10.668  42.557   3.204
33960W        W 2365  22.321  30.355  10.677
33961W        W 2366  11.975  37.379  14.647
33962W        W 2367  16.367  42.936   0.946
33963W        W 2368  19.987  39.966   3.918
33964W        W 2369  20.901   4.961   4.408
33965W        W 2370  18.730  15.272   1.806
33966W        W 2371   5.855  10.665   2.525
33967W        W 2372  29.528  34.009  14.383
33968W        W 2373   9.831  22.585  12.398
33969W        W 2374  43.870  21.185   4.408
33970W        W 2375  11.817  14.718  12.628
33971W        W 2376   2.940  39.906  11.299
33972W        W 2377  36.840   5.149   4.502
33973W        W 2378  15.257   3.761  13.319
33974W        W 2379   6.174  11.954   4.697
33975W        W 2380  33.605  27.404   3.234
33976W        W 2381  12.237  31.740   3.754
33977W        W 2382   8.736  16.113   2.326
33978W        W 2383  25.682   7.435   2.770
33979W        W 2384  39.378  42.168  13.730
33980W        W 2385  34.015   6.679  14.978
33981W        W 2386  40.559  29.954   3.979
33982W        W 2387   0.869   9.269  12.152
33983W        W 2388  35.997  22.930   0.478
33984W        W 2389  10.784  14.713   0.653
33985W        W 2390  38.367  29.725   4.213
33986W        W 2391   1.754  40.299  12.520
33987W        W 2392  32.040  30.978  11.468
33988W        W 2393  16.164  27.176  13.961
33989W        W 2394  12.225  17.195  12.009
33990W        W 2395   7.916  26.404   2.353
33991W        W 2396  26.896  30.722  14.381
33992W        W 2397  10.107  35.056  10.527
33993W        W 2398  17.780  29.612   0.238
33994W        W 2399  24.260  31.891   4.540
33995W        W 2400  27.976   5.236  13.814
33996W        W 2401  17.491  21.145   1.678
33997W        W 2402  38.425  31.439  10.644
33998W        W 2403  35.358  27.013  13.933
33999W        W 2404  19.724  31.637   0.534
34000W        W 2405  31.380  30.139   2.258
34001W        W 2406  10.130  25.112   0.251
34002W        W 2407  27.158  18.034   1.196
34003W        W 2408   6.439  34.472   0.385
34004W        W 2409   6.430   2.480   2.502
34005W        W 2410  21.526   1.003  11.675
34006W        W 2411  28.284  41.950  14.465
34007W        W 2412  31.154  17.650   2.375
34008W        W 2413  31.161  17.245  10.161
34009W        W 2414  33.344  41.206  13.418
34010W        W 2415  29.172  21.814  11.243
34011W        W 2416  27.438  42.974  14.310
34012W        W 2417  18.066  16.346  12.991
34013W        W 2418  31.855  26.619   0.250
34014W        W 2419  12.697  14.489   3.570
34015W        W 2420  35.906  14.685  14.509
34016W        W 2421  42.775   6.382  14.902
34017W        W 2422  36.350   2.369   3.766
34018W        W 2423  20.481  13.087  14.922
34019W        W 2424  43.420   2.199  12.541
34020W        W 2425  15.578  22.312   1.990
34021W        W 2426  40.812   7.730   3.562
34022W        W 2427   1.957  32.290  12.285
34023W        W 2428   7.235  20.748   0.878
34024W        W 2429   9.812  13.510   4.537
34025W        W 2430  17.077   6.397  13.015
34026W        W 2431  20.120  31.854  12.483
34027W        W 2432  27.774  42.360  13.121
34028W        W 2433   7.410  27.808  13.698
34029W        W 2434  10.209  42.833   4.657
34030W        W 2435  29.598  34.333   4.156
34031W        W 2436  28.689  33.272  11.772
34032W        W 2437  14.690  34.382   3.653
34033W        W 2438  44.960  38.941  12.021
34034W        W 2439  20.643  13.031   2.816
34035W        W 2440  12.576  30.545  14.358
34036W        W 2441  19.976   2.830   4.351
34037W        W 2442  32.290  28.457   3.034
34038W        W 2443  34.576  39.132   0.868
34039W        W 2444  23.035  44.062   4.086
34040W        W 2445  21.967   8.772  10.585
34041W        W 2446  14.690  42.813  12.752
34042W        W 2447  21.720  32.451  14.943
34043W        W 2448  27.562  40.409   0.927
34044W        W 2449  15.535  39.390  12.834
34045W        W 2450  10.190  25.963   3.694
34046W        W 2451  28.114  32.465   1.228
34047W        W 2452  17.688   0.455   3.643
34048W        W 2453  17.058  26.515   0.446
34049W        W 2454  38.481  14.403   3.290
34050W        W 2455  33.975  14.317   5.052
34051W        W 2456  29.757   4.248  13.410
34052W        W 2457   6.430  36.021  13.312
34053W        W 2458   0.860  11.198   1.559
34054W        W 2459  37.170   9.703  10.717
34055W        W 2460  14.404  28.560  11.900
34056W        W 2461  19.219  41.749   0.320
34057W        W 2462   9.186   3.257  14.869
34058W        W 2463  27.727  21.608   1.240
34059W        W 2464  41.880  44.903   0.406
34060W        W 2465   4.453  17.013  12.378
34061W        W 2466  43.984  24.982  11.278
34062W        W 2467  29.931   2.811  13.453
34063W        W 2468  28.093  13.691   3.860
34064W        W 2469  28.613  19.103   3.210
34065W        W 2470  29.791  44.355  12.223
34066W        W 2471  33.570  18.128   0.720
34067W        W 2472  34.283   6.698   1.159
34068W        W 2473  35.128   4.113  11.856
34069W        W 2474  22.299   3.740  13.952
34070W        W 2475  41.417  26.512  14.744
34071W        W 2476  41.801  35.531   2.065
34072W        W 2477  12.385  28.132   4.730
34073W        W 2478   7.212  31.550   5.060
34074W        W 2479  37.627  12.662  12.448
34075W        W 2480   2.370   3.497  12.897
34076W        W 2481  44.576  15.831  12.398
34077W        W 2482   2.778   3.937  11.173
34078W        W 2483  41.264  21.951   1.838
34079W        W 2484  13.665  44.292   5.055
34080W        W 2485  34.501  27.922   3.405
34081W        W 2486  25.065  42.682  10.885
34082W        W 2487  24.509   6.490  13.789
34083W        W 2488  17.276   1.069  13.943
34084W        W 2489  36.955  36.822   4.346
34085W        W 2490  41.547  31.204  13.916
34086W        W 2491  38.318  22.294   3.169
34087W        W 2492   5.898  42.473  11.028
34088W        W 2493   9.538  38.946   0.858
34089W        W 2494  41.072  24.675  11.534
34090W        W 2495  26.693  19.753  13.556
34091W        W 2496   9.490  12.581  14.554
34092W        W 2497   9.393  33.980  13.345
34093W        W 2498  19.488  35.181   4.310
34094W        W 2499   9.298  10.913   1.887
34095W        W 2500  40.384   2.792   2.244
34096W        W 2501   3.964   3.364   2.601
34097W        W 2502   1.700  23.555  12.836
34098W        W 2503  19.673   5.021  10.702
34099W        W 2504  11.831  35.764  13.671
34100W        W 2505  32.677  18.218   1.687
34101W        W 2506  25.062  35.088   1.835
34102W        W 2507  27.679  36.103  12.072
34103W        W 2508  11.678   1.439   2.762
34104W        W 2509  30.514   5.386   1.926
34105W        W 2510  19.672  25.077  13.673
34106W        W 2511  27.018  43.046  14.012
34107W        W 2512   5.772  16.375   3.158
34108W        W 2513  19.844   3.549  13.775
34109W        W 2514  22.165  11.636   2.309
34110W        W 2515  13.129  21.712   0.808
34111W        W 2516  17.122  20.015  14.835
34112W        W 2517  20.193  38.920   0.917
34113W        W 2518   8.224  26.846   4.174
34114W        W 2519  18.182   0.243   4.535
34115W        W 2520  19.143  24.272   2.758
34116W        W 2521  37.936   1.767   0.937
34117W        W 2522   7.236  34.199   1.190
34118W        W 2523  14.378  20.740   0.436
34119W        W 2524  21.466  40.770  11.918
34120W        W 2525  18.568  11.201  11.097
34121W        W 2526   1.952   9.281  13.483
34122W        W 2527  42.845  20.008  14.013
34123W        W 2528  27.491  10.774  12.529
34124W        W 2529  30.261  40.043  14.427
34125W        W 2530  22.940  33.449  10.296
34126W        W 2531  20.258  11.563   0.824
34127W        W 2532  24.431  35.122  12.149
34128W        W 2533   5.975  10.951  14.839
34129W        W 2534  35.991  25.582   1.407
34130W        W 2535  43.915  20.568  10.693
34131W        W 2536  28.603  41.839  11.216
34132W        W 2537   4.895  42.772   2.149
34133W        W 2538  39.269  40.123   1.259
34134W        W 2539  39.540   6.168  13.958
34135W        W 2540  16.806  35.632  11.873
34136W        W 2541   0.761  36.518  12.408
34137W        W 2542  18.174   3.889   2.725
34138W        W 2543   3.239   8.799  12.640
34139W        W 2544   9.360  10.272   3.777
34140W        W 2545   6.520  13.660  11.148
34141W        W 2546   2.839   4.752  12.988
34142W        W 2547  30.931  29.907  10.703
34143W        W 2548  41.027  28.454   3.155
34144W        W 2549  18.735  15.659   3.640
34145W        W 2550  25.202  17.112   4.177
34146W        W 2551  43.575  12.079  12.030
34147W        W 2552  27.596  33.235   4.160
34148W        W 2553   5.173  23.638  13.478
34149W        W 2554  15.113   8.928   1.636
34150W        W 2555  44.341  36.586  12.728
34151W        W 2556  38.316   5.822  14.020
34152W        W 2557  32.612  34.341  14.426
34153W        W 2558   5.056  22.258  12.354
34154W        W 2559   0.002  26.441  12.279
34155W        W 2560   3.928  25.642  10.400
34156W        W 2561  44.974  18.196   1.949
34157W        W 2562  11.963  15.370   2.006
34158W        W 2563  18.673   9.212   3.121
34159W        W 2564  31.471  15.120  14.954
34160W        W 2565  25.165  37.327  10.478
34161W        W 2566   7.615   9.144  11.153
34162W        W 2567  37.517  10.458   0.771
34163W        W 2568  43.775  20.045   3.737
34164W        W 2569  40.813  44.150  10.747
34165W        W 2570  42.343  28.483   0.996
34166W        W 2571  16.247  34.537   0.789
34167W        W 2572  18.672  15.593   2.254
34168W        W 2573  22.616  10.922   3.007
34169W        W 2574   1.053   4.729   3.655
34170W        W 2575  15.692   9.915   4.645
34171W        W 2576  32.179  26.028  11.978
34172W        W 2577  29.158   0.947   0.332
34173W        W 2578  19.435   8.949   1.926
34174W        W 2579   8.651   2.659  11.975
34175W        W 2580  32.331  34.935  12.581
34176W        W 2581  30.954  12.181   2.739
34177W        W 2582   2.499  41.142   0.723
34178W        W 2583  15.126  31.127  10.085
34179W        W 2584   4.471   3.085  11.961
34180W        W 2585  35.510  35.109   1.935
34181W        W 2586  25.599  21.966   0.868
34182W        W 2587  21.496   5.229  11.575
34183W        W 2588  16.393  35.331  11.866
34184W        W 2589  10.462  12.852  13.020
34185W        W 2590   9.754   4.000  12.655
34186W        W 2591  17.086  23.015  12.069
34187W        W 2592  10.383  21.209  14.730
34188W        W 2593  37.938  21.266  12.913
34189W        W 2594  32.612  12.682  12.898
34190W        W 2595  11.752   3.579   2.136
34191W        W 2596  38.389   2.231  12.562
34192W        W 2597   4.328   4.219   0.490
34193W        W 2598  23.947  12.854   1.894
34194W        W 2599  42.062  39.827  13.452
34195W        W 2600   1.957  37.833  10.463
34196W        W 2601  38.942  35.315   4.429
34197W        W 2602   0.980   2.209   1.736
34198W        W 2603  43.684  34.377   3.247
34199W        W 2604  39.661  12.232   2.631
34200W        W 2605  35.397  35.607  10.468
34201W        W 2606  17.054   6.393  12.165
34202W        W 2607  10.324   1.725   0.692
34203W        W 2608  15.108  29.956   0.633
34204W        W 2609  33.379  29.601   2.041
34205W        W 2610  44.314   7.878   1.964
34206W        W 2611   7.180  26.241  11.175
34207W        W 2612   0.841  30.935   0.442
34208W        W 2613  26.272  21.168   1.358
34209W        W 2614  41.281  15.275  10.612
34210W        W 2615  39.480   6.622   2.885
34211W        W 2616  14.763   2.938   4.503
34212W        W 2617   1.292  42.777  14.340
34213W        W 2618  16.088  10.013  14.127
34214W        W 2619  43.547  39.813   0.375
34215W        W 2620  22.025  21.669  11.874
34216W        W 2621  20.063  36.317   0.376
34217W        W 2622  31.623   1.847   4.054
34218W        W 2623  30.922   8.453   3.378
34219W        W 2624   0.800  13.637  13.983
34220W        W 2625  42.393  27.548  12.976
34221W        W 2626  18.306   0.720   1.517
34222W        W 2627  36.292  22.122   0.311
34223W        W 2628  42.007  37.169   3.749
34224W        W 2629   1.913  12.240   1.434
34225W        W 2630  44.188   3.890   1.647
34226W        W 2631  16.501  29.991   0.256
34227W        W 2632   8.970  34.106   1.058
34228W        W 2633  33.997  17.091  14.778
34229W        W 2634   6.273  41.973  12.104
34230W        W 2635  25.703  32.092  13.378
34231W        W 2636   6.981  22.812  12.512
34232W        W 2637  16.356   9.185  12.201
34233W        W 2638  34.382   8.858   4.368
34234W        W 2639   0.291  30.104  14.497
34235W        W 2640  39.441  28.942   4.560
34236W        W 2641   0.815  38.040  12.483
34237W        W 2642  41.524   0.690   0.915
34238W        W 2643  27.587  32.848  10.968
34239W        W 2644   4.848  36.150   1.999
34240W        W 2645  27.022  20.208   3.265
34241W        W 2646  40.275   9.332  12.758
34242W        W 2647   9.817  40.829  13.297
34243W        W 2648  38.482  19.600  14.594
34244W        W 2649  33.644  29.511  12.036
34245W        W 2650  14.243   0.973   2.874
34246W        W 2651  33.320  34.172   0.770
34247W        W 2652  25.401   7.082  12.547
34248W        W 2653  19.006  25.194   3.729
34249W        W 2654   1.701   4.242   4.158
34250W        W 2655  32.874   2.712   1.970
34251W        W 2656   2.227  18.061  13.918
34252W        W 2657  15.048  25.001   4.491
34253W        W 2658  43.459  16.031  11.943
34254W        W 2659  29.086  24.911   4.178
34255W        W 2660  14.676  44.023  11.412
34256W        W 2661  33.949  42.552   3.110
34257W        W 2662  40.297  16.874  13.672
34258W        W 2663  31.907  38.112  14.477
34259W        W 2664  31.236  33.356   5.060
34260W        W 2665   3.150  19.696  13.942
34261W        W 2666   8.981  37.517  13.827
34262W        W 2667  19.235  34.867  12.608
34263W        W 2668  27.049  10.567   3.253
34264W        W 2669  39.528   7.807   0.269
34265W        W 2670   4.874  25.732   1.852
34266W        W 2671  37.330   2.063   4.432
34267W        W 2672  25.287  15.593   3.671
34268W        W 2673  28.486  22.731  11.889
34269W        W 2674  44.252  29.684   2.107
34270W        W 2675   5.009  33.693  14.889
34271W        W 2676  21.724  25.576   0.725
34272W        W 2677  10.415   0.459  13.251
34273W        W 2678  29.164  10.643  12.580
34274W        W 2679  19.156   0.477   4.653
34275W        W 2680  38.311  31.497  12.906
34276W        W 2681  21.467   9.872  12.859
34277W        W 2682   8.252   7.500  14.554
34278W        W 2683  23.604  41.551  10.998
34279W        W 2684  16.763  18.889   0.111
34280W        W 2685   5.653   7.212   1.743
34281W        W 2686  34.674   0.290   1.009
34282W        W 2687  44.243  30.112  10.792
34283W        W 2688  36.928   3.245  13.045
34284W        W 2689  17.611   0.290  12.012
34285W        W 2690  42.048  26.905   3.886
34286W        W 2691  39.796  39.820   4.538
34287W        W 2692  30.710  15.164  10.694
34288W        W 2693  42.161  31.960  12.802
34289W        W 2694   6.142  20.036   3.713
34290W        W 2695   2.548  18.606   2.177
34291W        W 2696  26.801  40.705  14.752
34292W        W 2697  13.577  34.001   4.529
34293W        W 2698  11.296  16.037   1.639
34294W        W 2699  42.783   6.419   4.650
34295W        W 2700  37.403  29.408  14.279
34296W        W 2701   3.297  29.639  14.735
34297W        W 2702  25.354  10.083  14.584
34298W        W 2703  16.120  10.587   4.240
34299W        W 2704  33.368   3.376  10.142
34300W        W 2705  21.611  32.574   2.442
34301W        W 2706  33.349  31.668  10.259
34302W        W 2707  33.130  37.833   2.881
34303W        W 2708  10.530  21.578  11.141
34304W        W 2709  41.824  26.471  14.425
34305W        W 2710   7.582  39.057   4.610
34306W        W 2711  40.558  22.614  14.001
34307W        W 2712  31.046  40.626  10.597
34308W        W 2713  30.597  19.708   0.985
34309W        W 2714   2.382  25.303  11.496
34310W        W 2715  43.228  18.708  14.060
34311W        W 2716  11.332  43.279  14.609
34312W        W 2717  39.023  16.650  12.883
34313W        W 2718  24.022  27.526  11.979
34314W        W 2719  27.550  26.117  10.604
34315W        W 2720  23.707  11.677  13.603
34316W        W 2721  30.092   6.019   0.887
34317W        W 2722   1.349  14.401   0.848
34318W        W 2723   1.679  41.069  12.149
34319W        W 2724  29.165  23.637  11.129
34320W        W 2725  36.539  31.539  13.725
34321W        W 2726  31.597   1.676  12.095
34322W        W 2727   2.370   1.652  10.570
34323W        W 2728  25.523  15.278   2.000
34324W        W 2729  32.688  27.627  12.956
34325W        W 2730  21.541   1.053  10.739
34326W        W 2731  21.272  29.932  10.819
34327W        W 2732  25.642  24.277  12.363
34328W        W 2733  38.014  24.190   2.321
34329W        W 2734  13.803  30.532  12.184
34330W        W 2735  41.776   7.910   2.843
34331W        W 2736  35.601  43.517   4.061
34332W        W 2737   2.074   6.612   3.139
34333W        W 2738  28.201  12.628   0.983
34334W        W 2739  17.790  41.273   3.684
34335W        W 2740  32.155  25.690   2.156
34336W        W 2741   3.361   0.734   1.396
34337W        W 2742   1.926  30.613  13.612
34338W        W 2743  25.908  24.062  14.849
34339W        W 2744  16.499  44.488   1.031
34340W        W 2745  32.468  19.009   1.691
34341W        W 2746   2.897  32.834  12.525
34342W        W 2747   5.691  22.414   3.262
34343W        W 2748  21.183  41.903   1.790
34344W        W 2749   2.228  41.607   2.282
34345W        W 2750  42.648  24.987   1.686
34346W        W 2751  11.725  38.857   3.700
34347W        W 2752   4.236  18.274  10.629
34348W        W 2753  19.544  25.200  11.186
34349W        W 2754  32.493  12.581  12.041
34350W        W 2755  42.936  18.773  11.282
34351W        W 2756  37.587   7.623   3.241
34352W        W 2757  20.501   7.144   0.348
34353W        W 2758  32.575  37.604   0.237
34354W        W 2759   8.249   2.281   1.236
34355W        W 2760  14.730  41.210   1.286
34356W        W 2761  18.336  39.031   3.536
34357W        W 2762  19.726  33.456   3.554
34358W        W 2763  35.844  43.464  14.751
34359W        W 2764   7.570  19.481   5.037
34360W        W 2765  20.889  11.599   5.013
34361W        W 2766  36.487  27.525  14.918
34362W        W 2767  18.359  26.131   1.285
34363W        W 2768   8.827  43.265   1.322
34364W        W 2769   7.934  35.089  12.910
34365W        W 2770  12.321  14.764  11.891
34366W        W 2771  18.609  42.161  12.476
34367W        W 2772   6.800   9.191  11.556
34368W        W 2773  15.117  17.380  11.557
34369W        W 2774  16.026   7.253  11.644
34370W        W 2775  41.526   0.740   1.785
34371W        W 2776  34.717  43.240  13.814
34372W        W 2777  43.898  26.113   4.929
34373W        W 2778  23.006   4.481   0.775
34374W        W 2779  44.666  43.847   4.427
34375W        W 2780   6.844  12.888   3.337
34376W        W 2781  31.676  43.951   0.568
34377W        W 2782  33.316  15.135   2.660
34378W        W 2783  20.199  25.578   0.415
34379W        W 2784   5.251   5.432   4.597
34380W        W 2785  20.315   6.949   3.927
34381W        W 2786   1.194  20.679  13.889
34382W        W 2787  42.513  20.588   0.825
34383W        W 2788  24.067  12.423   4.853
34384W        W 2789  33.527   5.072  10.770
34385W        W 2790  31.159  34.831   0.478
34386W        W 2791  42.960  19.545  10.627
34387W        W 2792   0.247  43.776   0.816
34388W        W 2793   2.876  39.149  10.733
34389W        W 2794  29.479  22.396  12.483
34390W        W 2795  17.312   8.389   3.616
34391W        W 2796  18.322   7.248  11.635
34392W        W 2797  27.304  16.116  11.114
34393W        W 2798   9.553  11.095  13.907
34394W        W 2799  35.677  34.505   3.213
34395W        W 2800  36.639  22.311  14.373
34396W        W 2801   4.719  20.154  14.475
34397W        W 2802  28.414  27.764   2.696
34398W        W 2803   6.477  33.347   4.019
34399W        W 2804  32.572  16.144   1.694
34400W        W 2805  20.342  43.894   0.771
34401W        W 2806  35.110  42.811  12.917
34402W        W 2807  36.778  27.713  11.877
34403W        W 2808  43.753  32.723   2.215
34404W        W 2809   8.656  38.622   1.377
34405W        W 2810  30.956   4.406   0.950
34406W        W 2811  25.838  17.764   0.300
34407W        W 2812  17.373  38.097  14.805
34408W        W 2813  21.602   6.644   1.810
34409W        W 2814  27.420   9.817   0.337
34410W        W 2815  30.537   3.880   1.285
34411W        W 2816  34.557  18.985  12.880
34412W        W 2817  13.867  22.136  12.452
34413W        W 2818   0.520  36.032  11.144
34414W        W 2819  39.895   5.911   1.242
34415W        W 2820  26.769  15.559  14.883
34416W        W 2821  13.234  44.518  14.504
34417W        W 2822  18.320   9.873  13.545
34418W        W 2823  22.083   3.178   3.743
34419W        W 2824  21.671  43.464  14.813
34420W        W 2825  32.790  34.315  14.941
34421W        W 2826  38.491  17.410  14.528
34422W        W 2827  33.651  16.607  11.285
34423W        W 2828   7.700  29.453  14.049
34424W        W 2829  39.569  22.762  13.862
34425W        W 2830  23.375  30.676   2.878
34426W        W 2831  24.767  44.537  10.795
34427W        W 2832  39.853  31.889  13.950
34428W        W 2833  10.134  21.573   4.371
34429W        W 2834  43.219  23.213   0.852
34430W        W 2835  11.910  25.239   3.494
34431W        W 2836  39.910   2.994  12.977
34432W        W 2837  42.487  20.605   3.930
34433W        W 2838  14.290  41.252  14.932
34434W        W 2839  13.840  37.345  14.911
34435W        W 2840  42.563  16.895  11.097
34436W        W 2841  17.236  15.973   1.358
34437W        W 2842  28.553  31.840   0.748
34438W        W 2843  44.398   5.237  14.451
34439W        W 2844  19.243   4.167  10.635
34440W        W 2845  14.232  24.549   0.254
34441W        W 2846  25.021  35.081   0.935
34442W        W 2847  29.560  21.180   2.413
34443W        W 2848  38.282  31.268   4.217
34444W        W 2849  37.404  37.654  12.475
34445W        W 2850  41.178   7.820   2.025
34446W        W 2851   2.790  18.221  10.438
34447W        W 2852  42.391  32.553   4.575
34448W        W 2853  10.277  37.002   0.883
34449W        W 2854  17.759  29.869  12.398
34450W        W 2855  23.122  18.178  10.749
34451W        W 2856  27.469  18.273  14.787
34452W        W 2857  32.037   0.506  11.691
34453W        W 2858  10.699  17.891  13.104
34454W        W 2859   1.451  29.982   4.078
34455W        W 2860  35.122  29.915   4.226
34456W        W 2861  31.199  24.272   0.993
34457W        W 2862  10.065  25.679  10.605
34458W        W 2863  43.250  32.369   0.690
34459W        W 2864  42.548  22.519  11.520
34460W        W 2865  17.516  26.941   2.196
34461W        W 2866  22.006  13.202   2.868
34462W        W 2867   0.496  13.617  11.017
34463W        W 2868  41.871  30.008   2.880
34464W        W 2869  42.695  44.076   3.812
34465W        W 2870  40.261  41.425   4.246
34466W        W 2871  19.292   0.761   3.298
34467W        W 2872  43.694  40.916   1.234
34468W        W 2873  23.097   8.135  14.859
34469W        W 2874  16.224   8.651  13.993
34470W        W 2875  22.576   8.218  12.830
34471W        W 2876  24.524  13.207  14.532
34472W        W 2877   6.225  31.151   3.158
34473W        W 2878  20.664   1.983  11.363
34474W        W 2879  27.737   3.669   4.558
34475W        W 2880  10.114  30.035   1.700
34476W        W 2881   7.320  37.991  13.322
34477W        W 2882   8.772  18.627  10.743
34478W        W 2883  43.259  14.121   3.636
34479W        W 2884  28.852  14.492   9.907
34480W        W 2885  33.083  17.031  13.394
34481W        W 2886   3.276  34.964   0.350
34482W        W 2887   4.577  24.495  10.967
34483W        W 2888  22.171  30.664  14.269
34484W        W 2889   2.866  21.693  12.416
34485W        W 2890  22.281  12.812  11.580
34486W        W 2891  16.152  23.753   0.403
34487W        W 2892  25.182  20.954   1.108
34488W        W 2893  29.306  40.541  12.336
34489W        W 2894  24.487  12.098   0.864
34490W        W 2895  26.960  44.955  13.131
34491W        W 2896  42.854  32.569   0.067
34492W        W 2897   1.201  43.136  13.996
34493W        W 2898  44.611  44.794  14.010
34494W        W 2899  21.538   6.815   4.580
34495W        W 2900   9.723  18.551  13.307
34496W        W 2901   5.404  40.361   0.017
34497W        W 2902  41.329   8.197   2.746
34498W        W 2903  10.097  12.481  12.969
34499W        W 2904  35.989   6.173  10.858
34500W        W 2905  27.413  24.726   0.525
34501W        W 2906  27.928  13.404  11.118
34502W        W 2907   7.117  33.344   4.914
34503W        W 2908  37.959  13.858   0.469
34504W        W 2909   1.776  17.831   3.337
34505W        W 2910  39.875  25.717  10.625
34506W        W 2911  32.343  40.894   1.317
34507W        W 2912   0.976  27.606  14.202
34508W        W 2913   4.501   1.847   1.763
34509W        W 2914  44.883  14.048  10.736
34510W        W 2915   2.157   8.476   2.798
34511W        W 2916  10.707  21.600  12.104
34512W        W 2917  10.945  18.753  12.922
34513W        W 2918  20.612   9.261   2.844
34514W        W 2919   8.426  35.859  14.985
34515W        W 2920  20.249  12.706   2.696
34516W        W 2921   9.110  24.235   2.664
34517W        W 2922   3.270   4.016   0.417
34518W        W 2923   0.862  40.379  10.772
34519W        W 2924  31.231  16.178  13.993
34520W        W 2925  39.943  32.811   0.867
34521W        W 2926  11.535  37.924  12.950
34522W        W 2927  19.767  43.308   2.815
34523W        W 2928  43.558  38.580  13.944
34524W        W 2929  30.469  28.177   0.749
34525W        W 2930   4.308   7.862  11.651
34526W        W 2931  14.640  41.583  11.645
34527W        W 2932  38.952  12.676  10.270
34528W        W 2933   4.260  12.521   0.834
34529W        W 2934  20.215  21.699  14.457
34530W        W 2935  16.487  25.054  10.687
34531W        W 2936   1.132  20.475  14.399
34532W        W 2937  20.240  31.569  11.616
34533W        W 2938  16.271  36.252  11.582
34534W        W 2939   2.153  25.046  11.111
34535W        W 2940  44.061  18.228  13.913
34536W        W 2941  25.647  19.267  14.311
34537W        W 2942  40.446  37.501  13.005
34538W        W 2943  40.591  26.925   2.275
34539W        W 2944  10.170   6.989   2.626
34540W        W 2945   3.460  30.362   0.471
34541W        W 2946  13.218  13.812  12.864
34542W        W 2947  30.184  18.839  14.496
34543W        W 2948   4.488  15.879  10.264
34544W        W 2949   9.846  30.638   1.688
34545W        W 2950  30.887  16.666   5.037
34546W        W 2951  11.171  41.291  12.961
34547W        W 2952   1.465  38.286   3.137
34548W        W 2953   3.677  28.144  12.837
34549W        W 2954  36.038  33.684   3.696
34550W        W 2955   1.927  31.571   3.302
34551W        W 2956  37.910   4.518   0.769
34552W        W 2957   7.833   4.337   1.272
34553W        W 2958   6.339  10.047  13.552
34554W        W 2959  15.891  44.261  14.110
34555W        W 2960  31.033  29.824  14.805
34556W        W 2961  13.796  30.052  13.056
34557W        W 2962  43.053  16.169   4.602
34558W        W 2963  15.855  27.514  14.399
34559W        W 2964  33.654  13.582   4.189
34560W        W 2965  13.079   2.430   1.293
34561W        W 2966  37.175  28.551  14.314
34562W        W 2967  41.310  36.943  12.891
34563W        W 2968   5.703   8.802   4.581
34564W        W 2969   3.851   8.548  11.087
34565W        W 2970  19.059  39.953  14.307
34566W        W 2971   7.906  34.706  11.539
34567W        W 2972  30.084  25.612   3.379
34568W        W 2973  43.321   2.762  13.917
34569W        W 2974  24.699  39.463  10.958
34570W        W 2975  40.597  14.210  12.607
34571W        W 2976  15.220  20.000  14.316
34572W        W 2977  41.527   0.466   3.137
34573W        W 2978  41.273  38.299  11.683
34574W        W 2979  32.495  43.528   4.664
34575W        W 2980  17.269  20.720   2.878
34576W        W 2981  15.645  34.773  10.684
34577W        W 2982  43.656  25.932  11.747
34578W        W 2983  40.904  20.256  10.753
34579W        W 2984  20.932  31.742  11.070
34580W        W 2985  36.421  44.235   4.922
34581W        W 2986  35.347   5.379  10.545
34582W        W 2987  10.272  43.343  13.511
34583W        W 2988   2.188  18.531  14.824
34584W        W 2989  19.770  27.907  11.132
34585W        W 2990  30.048   8.374   3.601
34586W        W 2991  26.237   9.808   3.289
34587W        W 2992  36.084  19.225  12.771
34588W        W 2993  13.263  40.624  11.967
34589W        W 2994  20.702  30.214   2.441
34590W        W 2995   6.429   8.383  12.909
34591W        W 2996  13.743  24.978  10.607
34592W        W 2997  10.743  16.581   0.480
34593W        W 2998  21.403  18.229   1.790
34594W        W 2999  26.787  25.234  12.414
34595W        W 3000  34.259  38.138   3.034
34596W        W 3001  33.106  31.163  10.602
34597W        W 3002  22.483  44.695   0.674
34598W        W 3003   1.846   1.980  14.359
34599W        W 3004   4.971  15.203   4.184
34600W        W 3005  42.405   8.816   0.990
34601W        W 3006  17.233  21.596   1.811
34602W        W 3007  33.919  42.155  12.005
34603W        W 3008  28.573  33.822   2.270
34604W        W 3009  41.317  33.909   0.784
34605W        W 3010  25.083  33.795   1.345
34606W        W 3011  36.568  15.826  12.167
34607W        W 3012  24.284   7.579   3.562
34608W        W 3013   0.820  39.468   1.585
34609W        W 3014  40.428  42.686   4.685
34610W        W 3015  12.172   4.399   2.180
34611W        W 3016  35.021  24.989   0.510
34612W        W 3017  10.454  36.088  13.524
34613W        W 3018  25.059  18.613  12.406
34614W        W 3019  44.759  21.790   2.153
34615W        W 3020  28.371  15.802   1.990
34616W        W 3021  19.540  28.017   4.149
34617W        W 3022  28.466  37.288  13.354
34618W        W 3023   0.994   2.102  12.086
34619W        W 3024   7.121   7.727   0.940
34620W        W 3025   8.146  28.591   2.854
34621W        W 3026   1.951  19.221   3.104
34622W        W 3027  30.399  17.031   2.804
34623W        W 3028  16.867  37.349  10.515
34624W        W 3029  41.753  26.986   3.417
34625W        W 3030  22.463   7.347   0.242
34626W        W 3031   0.239   6.419  13.954
34627W        W 3032  40.602  20.708   0.210
34628W        W 3033  10.374  35.077  14.411
34629W        W 3034  19.631  28.715   2.843
34630W        W 3035  23.075  32.777  14.590
34631W        W 3036  44.179  22.615   4.278
34632W        W 3037  26.535  35.962   1.316
34633W        W 3038  20.612  16.185  11.163
34634W        W 3039  32.488  25.471   1.804
34635W        W 3040   9.294  24.436   4.670
34636W        W 3041  34.878  13.285   3.174
34637W        W 3042  16.858  32.858  14.969
34638W        W 3043  19.117   5.295  13.037
34639W        W 3044  10.856  24.580   3.811
34640W        W 3045  36.780  42.166  11.067
34641W        W 3046   9.622  23.162  10.615
34642W        W 3047   9.772  11.146   2.569
34643W        W 3048  27.652  21.458  13.462
34644W        W 3049  13.272   9.253   3.225
34645W        W 3050  20.083   8.582  14.343
34646W        W 3051   5.179  37.946  14.548
34647W        W 3052  11.877  37.359   4.920
34648W        W 3053  42.437  25.989   2.415
34649W        W 3054   9.246  35.336  10.664
34650W        W 3055  16.779  20.770  11.084
34651W        W 3056  42.516  43.272  13.476
34652W        W 3057  29.697  25.860  14.904
34653W        W 3058  33.430  21.931  14.512
34654W        W 3059  31.044  20.607   0.269
34655W        W 3060  36.542  41.925  12.573
34656W        W 3061  36.980  29.570  12.538
34657W        W 3062  14.819  42.141   2.674
34658W        W 3063   6.005  23.692   4.220
34659W        W 3064  25.182   4.716   0.702
34660W        W 3065  22.090  33.118   4.920
34661W        W 3066  25.514  11.720   0.248
34662W        W 3067  14.433  27.435  13.472
34663W        W 3068  29.997  33.013  14.024
34664W        W 3069  12.237  33.212   3.505
34665W        W 3070  27.737  37.388  12.875
34666W        W 3071  31.137  29.485   9.885
34667W        W 3072  38.343  39.940  10.745
34668W        W 3073  26.024   3.245  10.580
34669W        W 3074  17.735  27.629  11.982
34670W        W 3075   9.366   8.413  11.867
34671W        W 3076   4.377  13.126   0.300
34672W        W 3077  24.278   3.936   4.672
34673W        W 3078  14.498  21.521  12.449
34674W        W 3079  32.036  36.708   4.117
34675W        W 3080  43.274  17.856  11.580
34676W        W 3081  26.838  25.404   0.544
34677W        W 3082  20.968  13.565   3.259
34678W        W 3083   9.402  21.539   1.800
34679W        W 3084  41.337  38.980   2.477
34680W        W 3085  32.577  12.575   1.963
34681W        W 3086  36.442  24.676   4.683
34682W        W 3087  43.084  19.827  12.524
34683W        W 3088  36.852   5.440  11.584
34684W        W 3089  14.345  15.880   2.926
34685W        W 3090  34.084  33.964   4.177
34686W        W 3091  40.726  33.793  13.045
34687W        W 3092  11.753  36.868   3.316
34688W        W 3093   6.939  24.102   4.604
34689W        W 3094   8.293  38.376  12.873
34690W        W 3095  27.653  39.948   0.029
34691W        W 3096  21.335  24.712   4.220
34692W        W 3097  35.586  25.510  14.915
34693W        W 3098  22.690  39.401   1.235
34694W        W 3099  26.298  25.457   2.797
34695W        W 3100   1.356  10.248  10.471
34696W        W 3101  24.998   5.864   3.391
34697W        W 3102  19.082  40.868  11.620
34698W        W 3103  13.338  31.531   4.331
34699W        W 3104  22.980   6.775   0.189
34700W        W 3105   3.302   3.944  11.144
34701W        W 3106   3.378  23.487  12.447
34702W        W 3107  39.367  13.187  13.418
34703W        W 3108   9.006  28.788   1.364
34704W        W 3109  12.690  32.855   4.313
34705W        W 3110  14.103  34.444   3.289
34706W        W 3111  28.587  40.811  11.541
34707W        W 3112  20.612  38.874   3.094
34708W        W 3113  20.202   4.035   1.098
34709W        W 3114  31.107   1.879  14.286
34710W        W 3115   9.873   3.271  11.991
34711W        W 3116  35.753  43.082  13.981
34712W        W 3117  29.610   4.032  11.719
34713W        W 3118  32.429   4.382   4.767
34714W        W 3119  28.828   6.957   0.231
34715W        W 3120  35.300  33.107   3.418
34716W        W 3121  33.851  11.670  10.671
34717W        W 3122  22.494  25.227   1.920
34718W        W 3123  26.629  24.046   0.407
34719W        W 3124  27.039  22.833   4.099
34720W        W 3125   6.219   2.659   0.746
34721W        W 3126  22.392  20.243  11.043
34722W        W 3127  18.694  34.402   1.924
34723W        W 3128  16.253  31.624  10.716
34724W        W 3129  43.469  44.377   3.332
34725W        W 3130  18.755   3.242  10.779
34726W        W 3131  19.782  24.695   0.765
34727W        W 3132  22.636   9.655  13.989
34728W        W 3133  13.731  33.843   3.656
34729W        W 3134  22.999   2.230   4.251
34730W        W 3135   8.438   7.265   0.419
34731W        W 3136  43.838  15.561  13.861
34732W        W 3137  14.210  16.144  12.554
34733W        W 3138  31.024  37.618  14.372
34734W        W 3139   1.913  27.641   3.134
34735W        W 3140  41.492  30.886  12.344
34736W        W 3141  24.033   8.185  14.759
34737W        W 3142  30.192  21.258  11.735
34738W        W 3143  43.936  17.372  13.722
34739W        W 3144  24.563  44.940  14.402
34740W        W 3145  17.653  13.228  12.943
34741W        W 3146   2.469   7.484  13.917
34742W        W 3147   7.803  30.435   2.322
34743W        W 3148  11.637  17.112  14.105
34744W        W 3149  28.642  32.767  11.909
34745W        W 3150  15.571  35.280  10.761
34746W        W 3151  16.112   0.745  10.298
34747W        W 3152  41.742   0.546   3.764
34748W        W 3153  10.172  40.820   0.799
34749W        W 3154  21.677  38.433   1.685
34750W        W 3155   4.268  15.045  13.384
34751W        W 3156  23.473  41.870  10.620
34752W        W 3157  29.666  14.816   1.727
34753W        W 3158   2.806  36.622   1.362
34754W        W 3159  36.395  22.687  11.719
34755W        W 3160  20.310  22.334   3.327
34756W        W 3161  22.050  18.187   4.531
34757W        W 3162  15.067  23.637  11.591
34758W        W 3163   0.208  24.822  12.637
34759W        W 3164  28.171  21.049   2.253
34760W        W 3165  37.864   8.617  12.360
34761W        W 3166   7.970  35.213   3.739
34762W        W 3167  24.112  21.865   3.950
34763W        W 3168  44.025  26.227   4.453
34764W        W 3169  31.996  34.838   0.908
34765W        W 3170   2.808   8.243  14.304
34766W        W 3171   9.002  30.874   0.624
34767W        W 3172   6.194  18.207  14.351
34768W        W 3173  38.432  42.621  13.674
34769W        W 3174  43.339   0.231   3.881
34770W        W 3175  20.040  39.205  11.547
34771W        W 3176  16.447  39.835   4.313
34772W        W 3177  26.294  15.478   3.829
34773W        W 3178  14.704  19.672  11.059
34774W        W 3179  23.620  44.130  11.650
34775W        W 3180   8.178   0.051   1.447
34776W        W 3181  44.019   2.865  11.551
34777W        W 3182  13.274  31.868  11.072
34778W        W 3183  23.032  25.599  12.657
34779W        W 3184   7.072   7.833   2.830
34780W        W 3185  44.883  24.643   4.637
34781W        W 3186   8.195  37.397  11.921
34782W        W 3187  39.838  24.633  13.960
34783W        W 3188  18.982  41.261  14.392
34784W        W 3189   8.911  40.996  13.490
34785W        W 3190   0.372  37.559  11.172
34786W        W 3191   6.750  15.084  11.488
34787W        W 3192  30.095  24.911   0.629
34788W        W 3193  36.385  43.887   2.901
34789W        W 3194  19.163  30.419   4.141
34790W        W 3195  41.769  12.316   1.858
34791W        W 3196  40.877  19.045  13.784
34792W        W 3197  20.239  12.733  12.617
34793W        W 3198   8.078  36.923  14.381
34794W        W 3199  15.719  40.737  10.971
34795W        W 3200  31.019  17.009  10.600
34796W        W 3201  44.360  39.927   3.161
34797W        W 3202  26.989  41.287   3.296
34798W        W 3203  24.569  40.525  14.534
34799W        W 3204   1.247  36.363  13.251
34800W        W 3205  31.475  33.892   3.091
34801W        W 3206  21.548  16.295  12.022
34802W        W 3207   2.396  23.089  11.191
34803W        W 3208  22.716  24.510   0.898
34804W        W 3209  34.618  39.242  13.930
34805W        W 3210  43.690  16.010  13.551
34806W        W 3211  12.796  11.320  11.395
34807W        W 3212  16.543   5.863   0.335
34808W        W 3213   8.474   6.803  13.751
34809W        W 3214   6.800  30.403  12.628
34810W        W 3215  41.354  15.733  14.766
34811W        W 3216   8.419  17.974  10.316
34812W        W 3217  23.993   3.818   3.657
34813W        W 3218  40.975  42.799  11.269
34814W        W 3219  40.090  42.015   0.968
34815W        W 3220  15.587  35.478   9.954
34816W        W 3221  10.904  41.359  12.123
34817W        W 3222  18.019  21.515   1.413
34818W        W 3223   2.950  43.804  11.187
34819W        W 3224  19.293  15.358   1.932
34820W        W 3225   0.875  44.466   4.688
34821W        W 3226   3.926  29.521  13.982
34822W        W 3227  27.634  32.093  10.533
34823W        W 3228  19.061  18.319  12.465
34824W        W 3229   0.797  23.608   1.990
34825W        W 3230  28.542  36.897   3.774
34826W        W 3231  20.364  12.896  11.650
34827W        W 3232  15.556   4.495  11.150
34828W        W 3233  38.781   3.012   2.204
34829W        W 3234  20.216  30.424   4.178
34830W        W 3235   3.948  40.974   2.673
34831W        W 3236  29.396   1.729  10.307
34832W        W 3237  38.873  42.170   2.810
34833W        W 3238  32.877  38.478   3.876
34834W        W 3239  11.200  35.886  12.642
34835W        W 3240  28.702  10.596   1.800
34836W        W 3241  29.480   1.404   2.319
34837W        W 3242  20.654  22.382  10.038
34838W        W 3243   3.847  39.873  11.737
34839W        W 3244  25.277   6.597  12.779
34840W        W 3245  11.433  32.610   3.239
34841W        W 3246   7.236  20.838  13.898
34842W        W 3247  25.000   0.401   1.089
34843W        W 3248   7.816  21.060   1.259
34844W        W 3249   4.537  44.385   3.493
34845W        W 3250  13.268  34.004  13.772
34846W        W 3251  20.559   8.506   5.044
34847W        W 3252  31.852  22.936   0.166
34848W        W 3253  18.238  37.490  14.515
34849W        W 3254  35.438  25.094  12.999
34850W        W 3255   5.672  19.690  13.839
34851W        W 3256  10.421  20.069   0.549
34852W        W 3257  33.908  17.089   1.302
34853W        W 3258   1.592  19.128   2.243
34854W        W 3259  44.852   5.254  11.913
34855W        W 3260  18.727  18.584   4.101
34856W        W 3261   2.079  23.168   3.681
34857W        W 3262  26.954  44.048  12.068
34858W        W 3263  20.229  23.384   3.929
34859W        W 3264  29.042  43.410  10.240
34860W        W 3265  30.946  11.101  11.180
34861W        W 3266   8.887   0.010   1.750
34862W        W 3267  37.129  17.876  13.540
34863W        W 3268   7.825  33.447   1.404
34864W        W 3269  19.652  26.500   3.413
34865W        W 3270  24.591  33.385   3.302
34866W        W 3271  20.673  37.396   4.818
34867W        W 3272  28.508  28.715  12.165
34868W        W 3273   8.449  27.867   9.806
34869W        W 3274  13.278   1.685   2.724
34870W        W 3275  42.545  33.325  13.593
34871W        W 3276  23.978   7.645  11.558
34872W        W 3277   1.054  21.690   2.779
34873W        W 3278  28.041   8.807  12.421
34874W        W 3279  11.602  18.734   2.030
34875W        W 3280  18.769  43.952   0.989
34876W        W 3281  36.868  32.944   1.465
34877W        W 3282  16.704   4.351  12.800
34878W        W 3283   8.743  21.417   4.568
34879W        W 3284  15.225  42.764  14.870
34880W        W 3285  16.155  28.550  11.121
34881W        W 3286   4.890   3.352  13.914
34882W        W 3287   0.505  29.954   3.315
34883W        W 3288  35.512  33.321  12.161
34884W        W 3289  10.733  18.393   2.922
34885W        W 3290  43.437  31.403   2.231
34886W        W 3291  18.580  12.792  12.217
34887W        W 3292  27.016  10.224   3.652
34888W        W 3293  40.413  21.081   1.902
34889W        W 3294   5.639  44.702  13.007
34890W        W 3295   8.931   9.146  14.745
34891W        W 3296  28.293  20.520   0.851
34892W        W 3297  18.822  40.537   3.664
34893W        W 3298  36.304   1.265  13.721
34894W        W 3299  40.709  19.329  11.559
34895W        W 3300  44.934   6.445   0.342
34896W        W 3301  16.054  27.674  13.886
34897W        W 3302  13.568  41.081  14.624
34898W        W 3303  18.346  34.524   3.929
34899W        W 3304  13.700  29.073   2.450
34900W        W 3305   1.124  20.113  13.623
34901W        W 3306   0.604  31.682  11.129
34902W        W 3307  28.403  38.864   1.758
34903W        W 3308  37.440   7.470   0.913
34904W        W 3309  31.869  32.591  10.791
34905W        W 3310  21.709  11.157   4.670
34906W        W 3311   7.226  31.738   0.327
34907W        W 3312  28.122  32.152  10.743
34908W        W 3313  29.949  36.673  14.010
34909W        W 3314  43.778  17.978   2.346
34910W        W 3315  36.641  38.797   4.657
34911W        W 3316  27.848  27.746  10.203
34912W        W 3317   4.266   0.387  10.706
34913W        W 3318  33.124  38.137  13.379
34914W        W 3319  25.947   7.843   0.898
34915W        W 3320  26.224  36.528  12.181
34916W        W 3321  34.358  39.718   4.636
34917W        W 3322   9.530  19.607  14.888
34918W        W 3323   6.455   8.749  12.505
34919W        W 3324  28.251   5.988  13.862
34920W        W 3325   6.262  24.409   1.048
34921W        W 3326   8.856   6.512   4.109
34922W        W 3327  20.999  27.920   4.156
34923W        W 3328   9.124  20.614   3.291
34924W        W 3329  31.075   0.511   0.109
34925W        W 3330  26.083  16.627  10.507
34926W        W 3331   0.938   0.840   1.718
34927W        W 3332   6.348  12.645   4.658
34928W        W 3333  43.661   6.690  14.974
34929W        W 3334  12.052  39.496   3.203
34930W        W 3335   3.454  25.619   4.327
34931W        W 3336   3.782  22.592  12.199
34932W        W 3337  27.309   0.540  12.365
34933W        W 3338  26.750  32.973   2.777
34934W        W 3339  42.077  15.695  14.335
34935W        W 3340  26.647  16.607   4.128
34936W        W 3341  30.482  25.177   0.409
34937W        W 3342  18.360  24.061   4.435
34938W        W 3343  11.344  32.115  11.988
34939W        W 3344  22.499  30.013   4.516
34940W        W 3345  15.757  13.895   1.360
34941W        W 3346  12.856  17.169  10.595
34942W        W 3347  33.007  16.827   0.522
34943W        W 3348   3.420  40.495  13.319
34944W        W 3349   0.986  42.600   4.644
34945W        W 3350  24.615  36.503   4.494
34946W        W 3351  37.591  16.310   1.863
34947W        W 3352   6.959  12.717  14.382
34948W        W 3353  32.435  10.918  10.956
34949W        W 3354  16.115  33.039  11.090
34950W        W 3355  42.185  40.331  13.436
34951W        W 3356  12.585  23.231   4.099
34952W        W 3357  15.606  43.012  13.272
34953W        W 3358  34.444  24.273   0.748
34954W        W 3359  43.474  35.818  14.566
34955W        W 3360  13.232   0.286  13.605
34956W        W 3361   8.798  39.438  11.508
34957W        W 3362  28.236  13.238   4.658
34958W        W 3363  21.426  16.246   3.207
34959W        W 3364  24.209  34.390  14.563
34960W        W 3365   9.098  33.656  14.970
34961W        W 3366  24.041   4.824   4.516
34962W        W 3367  23.305  32.967   3.857
34963W        W 3368   7.497  20.776  12.459
34964W        W 3369  14.777  25.453   2.266
34965W        W 3370  14.383  41.235  11.242
34966W        W 3371   1.404  17.523   1.121
34967W        W 3372   9.603  26.786  14.037
34968W        W 3373  37.971   0.235   0.848
34969W        W 3374  30.476  22.216   4.277
34970W        W 3375  41.811  38.227   2.407
34971W        W 3376  24.878  41.267   3.158
34972W        W 3377  26.111  34.019  14.408
34973W        W 3378  41.466  12.784  12.104
34974W        W 3379   2.597   5.386  10.157
34975W        W 3380  19.619  27.696   0.476
34976W        W 3381   7.995  32.218  10.494
34977W        W 3382   5.046   0.764  12.664
34978W        W 3383  39.397  38.742  12.152
34979W        W 3384  20.529  32.502  12.902
34980W        W 3385  35.830  32.718   1.852
34981W        W 3386  23.372   7.177   4.454
34982W        W 3387  35.477  32.931  14.269
34983W        W 3388  24.733  19.433   0.753
34984W        W 3389  10.602  42.437   0.378
34985W        W 3390  44.318  31.863  13.495
34986W        W 3391  42.385  30.414  11.040
34987W        W 3392   4.614  37.972  11.495
34988W        W 3393  12.361  18.171   2.139
34989W        W 3394  29.995  18.876   4.432
34990W        W 3395  31.861  36.132  14.911
34991W        W 3396  21.046  11.743  14.439
34992W        W 3397  31.158  38.595   0.605
34993W        W 3398  37.573  42.432   2.238
34994W        W 3399  41.007  12.000  11.910
34995W        W 3400  25.133  32.367  14.805
34996W        W 3401  34.720  30.887  11.868
34997W        W 3402  13.773  18.067  13.349
34998W        W 3403  16.052  32.617  12.438
34999W        W 3404  43.962  32.004  14.438
35000W        W 3405  38.648  19.308  10.853
35001W        W 3406  27.228  19.432   0.829
35002W        W 3407  14.338   7.952   4.980
35003W        W 3408  24.164  30.557   0.265
35004W        W 3409   9.856   2.237  14.299
35005W        W 3410  44.968  44.134   0.562
35006W        W 3411  27.298   5.727  13.952
35007W        W 3412   5.463   5.789   4.982
35008W        W 3413  44.853  37.585  12.473
35009W        W 3414   0.349  39.910   2.213
35010W        W 3415  14.607  31.915   4.713
35011W        W 3416  14.645  26.034   0.649
35012W        W 3417  43.520  25.683   3.372
35013W        W 3418  36.392  26.623  12.367
35014W        W 3419  41.422  24.023   3.584
35015W        W 3420   4.065  26.250   4.260
35016W        W 3421  33.305   2.321   1.460
35017W        W 3422   0.254   6.505   9.834
35018W        W 3423  35.493  18.990  12.934
35019W        W 3424  16.539   0.605   0.961
35020W        W 3425  18.066   3.924  12.959
35021W        W 3426  23.150  21.022   5.329
35022W        W 3427   0.951  41.092  14.344
35023W        W 3428  27.845  11.202  11.499
35024W        W 3429   9.149  42.267   1.845
35025W        W 3430  38.294  26.205  13.329
35026W        W 3431   6.402  31.177  12.092
35027W        W 3432  12.176   2.679   4.716
35028W        W 3433   6.102  35.994   2.853
35029W        W 3434  33.243  29.525   4.039
35030W        W 3435  15.818   6.921  13.057
35031W        W 3436  21.613  31.440   3.607
35032W        W 3437  37.863  13.378   3.696
35033W        W 3438  25.150  11.602   1.213
35034W        W 3439  30.095  44.281  13.586
35035W        W 3440  26.500  19.537   4.324
35036W        W 3441  30.105   2.871   1.842
35037W        W 3442  21.979  17.243  14.493
35038W        W 3443  24.923  25.320  10.658
35039W        W 3444   1.696  13.343  14.426
35040W        W 3445  22.748   4.486   4.887
35041W        W 3446  34.899  41.963   3.104
35042W        W 3447  10.598  38.417   4.680
35043W        W 3448  16.345   4.226  14.847
35044W        W 3449  14.753  36.005   4.294
35045W        W 3450  17.849   4.837   2.160
35046W        W 3451  40.381  21.634   4.513
35047W        W 3452  36.029  40.338  14.404
35048W        W 3453  30.938  10.245   1.856
35049W        W 3454  39.371  44.780   2.310
35050W        W 3455   0.950  15.007  14.822
35051W        W 3456  28.608  12.399   4.529
35052W        W 3457  20.825  29.047  14.244
35053W        W 3458  36.479  12.095  12.921
35054W        W 3459  16.016  16.705  14.850
35055W        W 3460  35.654   1.853  11.588
35056W        W 3461   0.317  36.893  14.284
35057W        W 3462  16.334  43.832   2.959
35058W        W 3463  28.855   8.735  11.468
35059W        W 3464  37.865  12.401   0.967
35060W        W 3465  44.443  18.980   3.287
35061W        W 3466  13.185   2.205  14.285
35062W        W 3467  43.994  30.123   0.959
35063W        W 3468  16.522  35.014   2.219
35064W        W 3469  26.718  30.409   1.873
35065W        W 3470  27.006  24.679  14.967
35066W        W 3471  12.475   0.401  12.074
35067W        W 3472   3.858   5.917   0.572
35068W        W 3473  13.542  10.628   4.124
35069W        W 3474  42.915  36.697   2.887
35070W        W 3475  25.133  35.055   3.169
35071W        W 3476   2.316  11.956   3.716
35072W        W 3477  30.068  13.501   0.021
35073W        W 3478   9.748  22.280   4.165
35074W        W 3479  35.472  20.035   2.363
35075W        W 3480  40.365  23.814  12.350
35076W        W 3481  44.557  27.653  14.197
35077W        W 3482   3.462  16.165  14.033
35078W        W 3483  31.518   6.744  11.324
35079W        W 3484   1.807   2.453   4.878
35080W        W 3485  20.785   9.150   1.830
35081W        W 3486  21.026  39.678   1.698
35082W        W 3487   9.391   5.793  10.440
35083W        W 3488  36.361  20.795   3.223
35084W        W 3489   9.152  27.631  13.070
35085W        W 3490  37.798  24.015   3.236
35086W        W 3491  14.106  14.269   3.720
35087W        W 3492  33.428  36.608   5.043
35088W        W 3493  18.497  18.797   5.089
35089W        W 3494   4.432  34.069  11.957
35090W        W 3495  11.611   6.675  12.828
35091W        W 3496  19.983   1.865   2.674
35092W        W 3497  27.610  29.900   1.837
35093W        W 3498   7.102   1.968  12.934
35094W        W 3499  22.010  27.101   4.770
35095W        W 3500   9.777  43.871  12.388
35096W        W 3501   5.755   3.933  11.867
35097W        W 3502  16.657  29.612   3.388
35098W        W 3503  30.886  27.390  14.341
35099W        W 3504  36.354  17.573   3.268
35100W        W 3505  37.321  27.861   2.453
35101W        W 3506  39.431  19.512   5.117
35102W        W 3507  18.735  16.016   0.955
35103W        W 3508  18.275  10.884  10.276
35104W        W 3509   3.040  44.951  13.759
35105W        W 3510  21.231  36.901   1.449
35106W        W 3511   2.719  31.516   1.698
35107W        W 3512  13.330  44.291   2.259
35108W        W 3513  34.143   5.740  13.300
35109W        W 3514   2.953  16.341   4.169
35110W        W 3515  20.569   3.732  10.436
35111W        W 3516  22.634   4.478   0.394
35112W        W 3517  17.889   2.919   3.104
35113W        W 3518  24.529  20.165  12.448
35114W        W 3519  37.825   0.355  11.104
35115W        W 3520  38.209  33.867   0.438
35116W        W 3521  42.527  35.952  14.056
35117W        W 3522   6.132  42.488  13.416
35118W        W 3523  20.368  11.797  13.490
35119W        W 3524   3.716  31.103   3.334
35120W        W 3525  14.203  29.459   0.960
35121W        W 3526   8.917  25.034   1.253
35122W        W 3527  10.632  30.756   1.327
35123W        W 3528  20.699  17.124  12.664
35124W        W 3529  43.471  42.936   2.419
35125W        W 3530  24.782  16.110  12.978
35126W        W 3531  24.577  44.671  13.455
35127W        W 3532   8.275  41.290   3.653
35128W        W 3533   0.520  30.646  11.225
35129W        W 3534  30.512  37.719   1.425
35130W        W 3535  36.353  24.097   3.470
35131W        W 3536   9.549  27.065  12.009
35132W        W 3537  19.023  25.545   5.241
35133W        W 3538  11.821   6.679  14.822
35134W        W 3539  43.756  11.323   3.684
35135W        W 3540  13.826  23.271   4.566
35136W        W 3541  27.554  19.425   3.253
35137W        W 3542  15.417   5.199   1.309
35138W        W 3543  12.629   9.916  11.218
35139W        W 3544   7.559  35.218  14.365
35140W        W 3545  23.027   3.220  12.158
35141W        W 3546  35.224  29.690   3.773
35142W        W 3547  12.663  14.185  14.018
35143W        W 3548  15.810  39.047  11.962
35144W        W 3549  12.866  34.543  13.860
35145W        W 3550  33.695   2.894   3.841
35146W        W 3551   1.835  42.758   2.793
35147W        W 3552   5.268  36.150  11.700
35148W        W 3553   7.961  12.065  11.026
35149W        W 3554  40.752  41.446  13.541
35150W        W 3555   4.863  26.408  11.267
35151W        W 3556   2.782  18.282   0.840
35152W        W 3557   6.285  29.470  14.909
35153W        W 3558   2.177  39.092   3.096
35154W        W 3559  37.155  30.146  13.549
35155W        W 3560  31.032  29.677   2.867
35156W        W 3561   9.692   1.309  11.172
35157W        W 3562  44.781   2.260  10.727
35158W        W 3563  22.556   7.000   1.570
35159W        W 3564  32.629  35.150  14.005
35160W        W 3565  44.838  37.829   4.413
35161W        W 3566  17.984   2.837  12.658
35162W        W 3567  36.859  25.968   3.612
35163W        W 3568   3.503   0.173   0.769
35164W        W 3569  23.145  29.701  11.907
35165W        W 3570  26.190  26.028   0.450
35166W        W 3571  44.886  33.306  14.977
35167W        W 3572  14.317   4.943  14.289
35168W        W 3573  29.058  15.072   3.621
35169W        W 3574  33.408   4.299   0.077
35170W        W 3575  23.230  29.409   1.925
35171W        W 3576   5.912  26.412   4.866
35172W        W 3577   7.598  44.274   2.587
35173W        W 3578  24.546  18.646  14.686
35174W        W 3579  22.428  34.829   2.894
35175W        W 3580  41.348   3.738  12.185
35176W        W 3581  33.435   5.060  12.392
35177W        W 3582  28.457   3.668   3.747
35178W        W 3583  43.975   9.196  13.404
35179W        W 3584  38.370   0.219  14.836
35180W        W 3585  27.585  36.286  14.287
35181W        W 3586   3.406  33.926   0.210
35182W        W 3587  36.087  35.058   0.335
35183W        W 3588  16.165  31.620  10.207
35184W        W 3589  34.106   4.622   3.795
35185W        W 3590   9.264  33.452  13.442
35186W        W 3591  28.129  11.397  11.145
35187W        W 3592   8.933  41.326  11.530
35188W        W 3593  24.976  34.998  13.820
35189W        W 3594  16.438  42.537   3.195
35190W        W 3595  42.865  33.959   1.814
35191W        W 3596  39.466  10.987  10.515
35192W        W 3597  10.383  19.636   3.559
35193W        W 3598   8.156  41.755   3.881
35194W        W 3599   2.930  40.364   4.151
35195W        W 3600  27.599  28.717  12.527
35196W        W 3601  33.480   9.477  12.770
35197W        W 3602  34.977  33.147  13.442
35198W        W 3603  28.535  17.797  11.651
35199W        W 3604   4.839  11.252   3.791
35200W        W 3605   2.483  33.591  14.641
35201W        W 3606   6.443  21.317   0.246
35202W        W 3607  13.697   5.769  11.992
35203W        W 3608  36.021  29.375   0.782
35204W        W 3609  28.668   5.870  13.002
35205W        W 3610  39.139  23.852  13.513
35206W        W 3611  21.584  32.601   4.144
35207W        W 3612   3.338  39.804  12.461
35208W        W 3613   3.449   7.787   1.916
35209W        W 3614  43.092  15.746   3.433
35210W        W 3615   9.299  13.820   2.961
35211W        W 3616  43.351  15.514  12.953
35212W        W 3617  30.018  43.932  11.987
35213W        W 3618   3.809   2.836   0.216
35214W        W 3619  25.521   3.679   3.356
35215W        W 3620   5.389   8.298   2.102
35216W        W 3621  28.526  12.307  11.567
35217W        W 3622   8.140  26.316  14.006
35218W        W 3623   4.908   6.288   4.684
35219W        W 3624  32.700  20.684  13.983
35220W        W 3625  11.799  30.284   4.922
35221W        W 3626  35.358  11.795   2.710
35222W        W 3627  27.899  23.382   4.250
35223W        W 3628   2.692   2.223  14.342
35224W        W 3629  36.325  19.333   1.809
35225W        W 3630  28.090  33.212   1.647
35226W        W 3631  20.736  44.428   1.892
35227W        W 3632   4.706  21.940  13.362
35228W        W 3633  23.848  25.870  14.415
35229W        W 3634   0.552   2.962   4.112
35230W        W 3635  37.359  30.912   4.094
35231W        W 3636  32.591  12.663  11.015
35232W        W 3637  26.997  25.092   3.398
35233W        W 3638  38.255  24.655  11.939
35234W        W 3639   9.211   8.904  11.711
35235W        W 3640  22.683   4.627   1.788
35236W        W 3641  30.533  18.132   1.281
35237W        W 3642  34.879  16.159  12.601
35238W        W 3643  27.479  41.358  12.598
35239W        W 3644   7.225  14.641   1.331
35240W        W 3645   2.096  24.139  13.974
35241W        W 3646   4.210  33.713  10.961
35242W        W 3647  29.194  34.042  13.996
35243W        W 3648  28.543  41.617  12.633
35244W        W 3649  26.000  14.311  14.685
35245W        W 3650  12.026   2.238   4.949
35246W        W 3651   8.947  32.634  11.458
35247W        W 3652  14.704   4.393  11.271
35248W        W 3653  11.062   5.838   3.680
35249W        W 3654  34.778  23.191  12.876
35250W        W 3655  41.299  11.355   0.301
35251W        W 3656  34.021  37.525   1.726
35252W        W 3657  43.484  10.458   1.375
35253W        W 3658  39.947  12.607  11.391
35254W        W 3659   2.901  12.861  11.664
35255W        W 3660   1.967   2.865  14.497
35256W        W 3661  25.891  37.494   3.994
35257W        W 3662  37.934  32.069   1.913
35258W        W 3663  32.974  32.670   0.378
35259W        W 3664  29.419  31.896   0.946
35260W        W 3665   0.780  43.881  14.940
35261W        W 3666  23.125  40.901   4.139
35262W        W 3667   8.489  20.140   1.199
35263W        W 3668  44.826  15.708   4.157
35264W        W 3669  30.921  17.150   4.105
35265W        W 3670  26.724  11.601   1.942
35266W        W 3671  23.239   0.058   2.742
35267W        W 3672  37.186  38.566  10.754
35268W        W 3673  19.507  13.834  13.744
35269W        W 3674  34.711   0.047  14.399
35270W        W 3675  14.447   8.603   1.843
35271W        W 3676  24.730  16.756   4.669
35272W        W 3677  27.716  29.317  14.311
35273W        W 3678  40.544  11.288   4.289
35274W        W 3679  32.159  42.023  10.681
35275W        W 3680   8.316  34.398   4.594
35276W        W 3681   6.955  33.830  11.178
35277W        W 3682  43.217  38.062  11.775
35278W        W 3683   8.912  33.117   0.881
35279W        W 3684  39.067  10.556  11.112
35280W        W 3685  25.600  17.342   2.178
35281W        W 3686  20.672  10.221   2.975
35282W        W 3687   1.234  40.182  10.453
35283W        W 3688  38.700  27.521  12.153
35284W        W 3689  16.147  29.085  10.995
35285W        W 3690  28.514  36.477   2.602
35286W        W 3691  41.468  10.928  11.408
35287W        W 3692  13.404  11.637   3.223
35288W        W 3693  21.796  16.181  14.815
35289W        W 3694  35.509  29.490  14.782
35290W        W 3695   7.123  43.561  12.536
35291W        W 3696  38.113  34.754   0.440
35292W        W 3697   3.759  38.856  10.768
35293W        W 3698  42.876  44.510   1.458
35294W        W 3699  21.091  44.810   2.880
35295W        W 3700   7.383  22.493  11.359
35296W        W 3701  38.333   7.946  11.899
35297W        W 3702  40.369  42.503  12.382
35298W        W 3703  28.514  16.277   1.256
35299W        W 3704  29.498  13.116  12.449
35300W        W 3705  17.811  31.514   2.371
35301W        W 3706  17.277  21.983   4.073
35302W        W 3707  14.913  17.885  14.700
35303W        W 3708   8.144  22.527  14.366
35304W        W 3709   1.964  29.594  11.792
35305W        W 3710  29.756  28.927   0.866
35306W        W 3711  41.846  15.596  13.853
35307W        W 3712  29.553  32.110  12.645
35308W        W 3713  20.574  17.748  13.923
35309W        W 3714  10.919  38.922   4.269
35310W        W 3715   0.050  29.049   3.185
35311W        W 3716   9.235  20.271   2.891
35312W        W 3717  32.098  40.954  14.079
35313W        W 3718  18.010  10.548   5.526
35314W        W 3719  41.794  33.642   1.823
35315W        W 3720  16.690  19.612   0.680
35316W        W 3721   7.121  22.307   4.576
35317W        W 3722   1.863   6.432   2.254
35318W        W 3723  38.643  29.445   0.813
35319W        W 3724  23.743  16.601  13.559
35320W        W 3725  31.384   9.592  12.861
35321W        W 3726  32.214  39.147   1.906
35322W        W 3727  24.260  31.937  12.081
35323W        W 3728  25.662   6.148   3.239
35324W        W 3729   4.172   7.802   3.268
35325W        W 3730  29.627  10.773  14.042
35326W        W 3731  44.452  28.092  12.433
35327W        W 3732  10.687  38.521  12.990
35328W        W 3733  23.672  17.644  11.412
35329W        W 3734  39.926  33.598   2.407
35330W        W 3735  22.264  19.101  11.459
35331W        W 3736  39.064  14.683   1.323
35332W        W 3737  42.824   9.650  12.862
35333W        W 3738  14.704  24.546   3.537
35334W        W 3739  31.433  17.542   5.067
35335W        W 3740   8.612  33.942   4.574
35336W        W 3741  42.010  36.682  14.400
35337W        W 3742  12.247  24.906  10.771
35338W        W 3743   2.770  31.578   3.905
35339W        W 3744  10.342  16.332   3.075
35340W        W 3745  15.733   6.175   4.655
35341W        W 3746  40.263  11.525  10.707
35342W        W 3747  32.172  25.627  11.149
35343W        W 3748   3.870  20.723   1.419
35344W        W 3749  16.265  16.290   2.758
35345W        W 3750  22.908  44.848  13.796
35346W        W 3751  36.296  39.219  11.618
35347W        W 3752   4.715  30.031   4.128
35348W        W 3753  37.944  12.055  13.079
35349W        W 3754  16.503  43.493   3.344
35350W        W 3755   7.378   2.587  12.242
35351W        W 3756  14.071   0.989   0.709
35352W        W 3757  35.504  15.526   3.181
35353W        W 3758   0.313  21.494   3.183
35354W        W 3759  14.973   4.201   2.816
35355W        W 3760  34.148   3.463   0.040
35356W        W 3761  41.017   1.678  10.198
35357W        W 3762   1.792  37.382  12.982
35358W        W 3763   5.120  40.587  12.002
35359W        W 3764  38.202  19.213  14.346
35360W        W 3765   3.768  40.279  11.435
35361W        W 3766  21.145  32.273   0.245
35362W        W 3767  35.128  26.502  13.956
35363W        W 3768  22.781  39.837   2.786
35364W        W 3769  13.550  44.259  11.522
35365W        W 3770   3.426  43.444   3.822
35366W        W 3771   9.442   9.131   3.473
35367W        W 3772  22.285  16.066  12.865
35368W        W 3773  19.215  14.881  14.400
35369W        W 3774  25.381  41.870  11.763
35370W        W 3775  26.456  32.462   2.794
35371W        W 3776  31.131  29.816   1.932
35372W        W 3777   3.541  44.187   2.168
35373W        W 3778  14.284  34.552   4.644
35374W        W 3779  11.048  24.549  11.561
35375W        W 3780  38.218  23.335   2.157
35376W        W 3781  32.425  28.053  12.153
35377W        W 3782  36.319  43.973  13.734
35378W        W 3783   5.293  28.165   2.848
35379W        W 3784  33.145  39.384  14.444
35380W        W 3785  15.167  33.601   0.857
35381W        W 3786  29.682  38.984   2.809
35382W        W 3787  13.528  42.108   1.878
35383W        W 3788   2.906  36.436  14.388
35384W        W 3789  36.347  32.980  12.177
35385W        W 3790  42.263  37.797   1.674
35386W        W 3791  37.295  23.737   1.720
35387W        W 3792  42.770  10.247  14.785
35388W        W 3793  30.143  34.329  11.111
35389W        W 3794  24.214  33.401   0.358
35390W        W 3795  16.046  35.034   0.838
35391W        W 3796   3.919  32.140   0.214
35392W        W 3797  13.208  20.806  11.856
35393W        W 3798   2.639  43.122   2.392
35394W        W 3799  16.509  10.268  14.315
35395W        W 3800  14.966   0.465   2.246
35396W        W 3801   8.338  36.187   4.237
35397W        W 3802  21.612  10.420  14.316
35398W        W 3803   8.776   0.301  12.769
35399W        W 3804   2.503  25.034  11.926
35400W        W 3805  17.079  36.009  10.616
35401W        W 3806   2.797   7.340   4.232
35402W        W 3807  40.457   1.435  13.413
35403W        W 3808  19.538  37.828   3.264
35404W        W 3809  43.517   6.121   0.421
35405W        W 3810  39.480   4.013   1.976
35406W        W 3811  40.805  43.056  10.818
35407W        W 3812   8.283   3.266   0.740
35408W        W 3813  33.591  30.372   3.235
35409W        W 3814   3.191   8.788   0.039
35410W        W 3815  10.176  27.576   3.752
35411W        W 3816  40.276  35.566   1.309
35412W        W 3817   5.334   6.152  14.349
35413W        W 3818  33.834  18.110   0.287
35414W        W 3819  35.432   5.232   3.578
35415W        W 3820   4.631  17.236   2.785
35416W        W 3821   3.380  14.229  12.516
35417W        W 3822  10.205   9.756  10.687
35418W        W 3823  41.849   6.988   0.994
35419W        W 3824  40.402   5.801   1.979
35420W        W 3825   5.133   6.307  11.957
35421W        W 3826  17.534  15.688  13.476
35422W        W 3827  40.751   2.248  10.944
35423W        W 3828   4.713  16.820  10.304
35424W        W 3829  27.747  18.145   2.995
35425W        W 3830  14.125  43.953   1.970
35426W        W 3831   3.010  20.064   3.219
35427W        W 3832  24.677  39.415  13.530
35428W        W 3833  36.418  12.089   1.650
35429W        W 3834  29.953  41.089  13.429
35430W        W 3835  41.773  22.781   1.686
35431W        W 3836   1.839  10.370   4.544
35432W        W 3837  15.606  26.638  14.430
35433W        W 3838  17.790  39.034  12.024
35434W        W 3839  31.042  19.968   4.705
35435W        W 3840  20.463   9.842   3.585
35436W        W 3841  37.598   3.610   4.672
35437W        W 3842  43.888  31.172  11.592
35438W        W 3843  21.083  37.074   2.285
35439W        W 3844  22.504  29.448  14.094
35440W        W 3845   4.334   2.871  14.060
35441W        W 3846  27.917   3.908   0.693
35442W        W 3847  36.845  43.513  14.453
35443W        W 3848  30.846  41.901  11.838
35444W        W 3849  29.269  43.306  12.113
35445W        W 3850   8.449  41.354  11.694
35446W        W 3851  30.934  22.233  10.623
35447W        W 3852  14.286  39.650   1.635
35448W        W 3853  11.015  31.988   3.347
35449W        W 3854   7.680  32.528  13.455
35450W        W 3855  17.554   9.354  13.452
35451W        W 3856   2.343  43.446   0.827
35452W        W 3857  44.048  43.686   3.254
35453W        W 3858  22.681  44.077  10.660
35454W        W 3859  24.665  41.756   4.574
35455W        W 3860   0.148  24.038  10.445
35456W        W 3861  19.455  31.442  13.040
35457W        W 3862  28.458  21.536   4.145
35458W        W 3863  22.991  39.789  12.413
35459W        W 3864  30.602  42.875  13.669
35460W        W 3865  31.838  36.903   3.598
35461W        W 3866  39.665  14.341  10.584
35462W        W 3867  25.171   0.928   1.813
35463W        W 3868  40.385   8.929  11.486
35464W        W 3869  21.208   0.727   5.087
35465W        W 3870  16.669  37.815   1.432
35466W        W 3871  18.285  11.938  12.992
35467W        W 3872  14.236   1.723  14.065
35468W        W 3873  42.232  39.022   1.976
35469W        W 3874  27.175  14.575  14.046
35470W        W 3875   4.123  44.992  11.177
35471W        W 3876   7.867  22.589   4.007
35472W        W 3877   0.847  41.852  12.424
35473W        W 3878  25.376  29.656  14.263
35474W        W 3879  27.124  38.014  11.823
35475W        W 3880  11.538  39.606  14.072
35476W        W 3881   3.509   7.510   4.060
35477W        W 3882   5.350  44.511   4.115
35478W        W 3883  38.716  13.140  14.054
35479W        W 3884  28.188  12.336  12.095
35480W        W 3885  39.116  41.966   3.219
35481W        W 3886  36.606  22.963  10.829
35482W        W 3887  30.587  12.076   1.800
35483W        W 3888  43.760  20.774  11.554
35484W        W 3889  29.971   6.679   3.159
35485W        W 3890   6.647  10.952  12.927
35486W        W 3891  42.236  14.560   1.097
35487W        W 3892  17.482  27.436   2.310
35488W        W 3893  10.648  25.174   2.959
35489W        W 3894  41.359  15.216  14.977
35490W        W 3895  24.703  11.090  12.265
35491W        W 3896   5.697  44.435   3.697
35492W        W 3897  21.606   6.667  12.521
35493W        W 3898  28.515   7.196  13.825
35494W        W 3899   3.785  17.740   2.729
35495W        W 3900   5.294  42.861   1.398
35496W        W 3901   9.684  21.573  11.940
35497W        W 3902  38.952  30.510   0.508
35498W        W 3903  43.794  13.100   3.225
35499W        W 3904   3.708  19.747   1.288
35500W        W 3905   8.082  32.887  11.593
35501W        W 3906  27.462  31.386  11.947
35502W        W 3907   8.313  16.515  12.975
35503W        W 3908   0.456  30.562   1.040
35504W        W 3909  22.468  36.881  11.465
35505W        W 3910  24.933   7.521  12.438
35506W        W 3911  38.332   4.783  14.560
35507W        W 3912  12.416   6.945   4.140
35508W        W 3913  27.510  28.717  13.492
35509W        W 3914   5.892  11.792  12.153
35510W        W 3915  20.036  37.803   1.393
35511W        W 3916  44.009  23.800   1.323
35512W        W 3917  38.400  13.426  12.110
35513W        W 3918  44.826  30.552  11.090
35514W        W 3919  15.691  20.702  14.220
35515W        W 3920   3.312  16.621  13.815
35516W        W 3921  18.695   9.882  14.827
35517W        W 3922  17.992  10.860   1.072
35518W        W 3923   6.292  36.038  12.281
35519W        W 3924  28.127  14.733  12.091
35520W        W 3925  42.467  20.760  13.987
35521W        W 3926  43.830  30.495   4.969
35522W        W 3927  22.248  28.143   1.225
35523W        W 3928  38.951  41.145   5.187
35524W        W 3929  19.415  20.652   0.764
35525W        W 3930  24.224  40.415  12.325
35526W        W 3931   4.490  34.947  11.646
35527W        W 3932  38.068   9.766  11.615
35528W        W 3933  10.503  39.907  13.145
35529W        W 3934  24.795  30.008  13.732
35530W        W 3935  13.329   2.148  13.705
35531W        W 3936  37.452  11.687   3.702
35532W        W 3937   5.047  42.737  11.036
35533W        W 3938  14.689  14.582   2.921
35534W        W 3939  30.057  20.834  11.466
35535W        W 3940  18.752  37.188   4.556
35536W        W 3941   2.878   3.255   3.312
35537W        W 3942  11.969   3.934  13.536
35538W        W 3943  27.689  15.609  13.975
35539W        W 3944  27.167  32.471  14.262
35540W        W 3945   3.963  34.926  11.665
35541W        W 3946  22.565  34.034   0.278
35542W        W 3947  19.927  27.063  13.502
35543W        W 3948  11.959  11.827   4.119
35544W        W 3949  42.233  21.681   3.169
35545W        W 3950  13.204  24.773   4.028
35546W        W 3951  43.316  44.493   3.826
35547W        W 3952  34.305  28.153   1.222
35548W        W 3953  15.539  42.041   4.899
35549W        W 3954   7.275  19.241   3.800
35550W        W 3955  16.522  26.095  10.595
35551W        W 3956  29.647  19.633  14.828
35552W        W 3957  28.983  41.708  13.076
35553W        W 3958  21.995  41.790  11.663
35554W        W 3959  38.559  30.216   0.247
35555W        W 3960  16.521   3.765  11.971
35556W        W 3961  21.049  12.012   0.445
35557W        W 3962  30.904  44.498   3.147
35558W        W 3963   3.883  37.912   1.355
35559W        W 3964   5.680  13.407  14.848
35560W        W 3965   4.627   4.300   2.783
35561W        W 3966  25.392  40.396  12.135
35562W        W 3967  42.658   2.756  14.425
35563W        W 3968  40.985  18.556  10.842
35564W        W 3969  42.258  27.078  13.917
35565W        W 3970  33.984  34.581  12.409
35566W        W 3971  26.789   0.076   4.948
35567W        W 3972  19.466   4.810   3.264
35568W        W 3973   5.854  13.820  13.317
35569W        W 3974  43.729   2.787  12.940
35570W        W 3975  36.279  33.328   3.959
35571W        W 3976  10.328  36.128  11.543
35572W        W 3977  37.580  15.306   4.545
35573W        W 3978   3.903  40.602  13.615
35574W        W 3979  23.068   4.138  12.127
35575W        W 3980   5.423   2.215   1.799
35576W        W 3981  36.562  31.250  12.970
35577W        W 3982  22.753  32.971   2.653
35578W        W 3983  18.750  42.224  11.042
35579W        W 3984   7.681  18.673  13.543
35580W        W 3985  44.756  22.181  11.921
35581W        W 3986  29.702  40.751  14.745
35582W        W 3987   1.811   5.179   9.866
35583W        W 3988   0.359  14.174  13.374
35584W        W 3989   5.410  41.592  12.910
35585W        W 3990  44.973  13.098  13.768
35586W        W 3991   0.181  19.257   1.353
35587W        W 3992  42.502  26.180   1.413
35588W        W 3993  20.174  35.834  14.031
35589W        W 3994  11.577  36.972  14.476
35590W        W 3995  17.131  22.968  14.727
35591W        W 3996  25.037   9.702  14.800
35592W        W 3997  39.964  21.451  12.522
35593W        W 3998  20.062  40.545   3.215
35594W        W 3999   3.679  22.469   1.749
35595W        W 4000  11.258   3.461   2.687
35596W        W 4001  21.212  34.544   2.118
35597W        W 4002  43.267  21.670   3.125
35598W        W 4003  42.684  23.228   4.531
35599W        W 4004  27.198   0.323  10.706
35600W        W 4005  10.147   0.892  11.741
35601W        W 4006   0.917  24.929  11.673
35602W        W 4007  17.703  28.084  14.247
35603W        W 4008  12.524  19.946   1.110
35604W        W 4009  44.757   5.016   2.115
35605W        W 4010  27.554  30.079  14.576
35606W        W 4011  10.743  31.046   2.454
35607W        W 4012   5.498  44.399  11.082
35608W        W 4013   6.852  27.889  14.213
35609W        W 4014  35.064   3.620  10.701
35610W        W 4015  11.617  21.078   0.811
35611W        W 4016  32.021  31.953  14.938
35612W        W 4017  11.660   3.862  13.122
35613W        W 4018  13.867   3.717   1.389
35614W        W 4019  33.624  28.691   1.842
35615W        W 4020  20.700  37.561  11.478
35616W        W 4021  40.267  30.098   2.701
35617W        W 4022  25.178  21.120   2.248
35618W        W 4023   7.076  23.517   2.419
35619W        W 4024  33.631  38.861   1.324
35620W        W 4025  17.090  37.537  11.274
35621W        W 4026  28.330   5.456   0.843
35622W        W 4027  39.251  20.702   1.496
35623W        W 4028   8.343  30.493  13.920
35624W        W 4029  23.069  20.913   4.161
35625W        W 4030  26.655   1.283   0.874
35626W        W 4031   1.253  32.087  13.518
35627W        W 4032   7.862  44.331  12.180
35628W        W 4033  33.864  16.400   4.614
35629W        W 4034  10.316  33.755   0.928
35630W        W 4035   8.580  24.214   2.667
35631W        W 4036   4.664  33.083  11.520
35632W        W 4037  39.762  35.034   3.123
35633W        W 4038  26.065  19.367   0.273
35634W        W 4039  15.539   1.469  11.554
35635W        W 4040  32.489   9.893   3.339
35636W        W 4041  37.556  42.245   0.844
35637W        W 4042   1.428   0.488  13.805
35638W        W 4043   6.874   4.366   2.283
35639W        W 4044  11.194  22.510  13.348
35640W        W 4045   8.111  23.962  12.092
35641W        W 4046   9.056   9.671  10.341
35642W        W 4047   2.757  11.680   2.932
35643W        W 4048   4.937   0.507   1.869
35644W        W 4049  27.517   9.965  11.877
35645W        W 4050   7.120  12.697   1.198
35646W        W 4051  28.701   7.882  12.471
35647W        W 4052  21.327  35.692  13.886
35648W        W 4053  42.057  22.467  11.653
35649W        W 4054  16.380  13.442   2.849
35650W        W 4055  20.339   1.886  10.113
35651W        W 4056   5.733  27.216  13.880
35652W        W 4057  30.236  41.254   1.771
35653W        W 4058  41.222  39.774  14.744
35654W        W 4059  24.079  40.574   0.350
35655W        W 4060  19.336   0.032  13.893
35656W        W 4061  36.625  32.608  11.923
35657W        W 4062  42.987  10.794  12.544
35658W        W 4063  26.638  31.817  14.754
35659W        W 4064  37.434  41.421   2.553
35660W        W 4065   2.746  33.158  14.001
35661W        W 4066   1.466   8.155   0.318
35662W        W 4067  23.249   5.330   2.888
35663W        W 4068  16.188   5.216  12.616
35664W        W 4069   1.775  39.597   1.522
35665W        W 4070  10.458  27.221   4.461
35666W        W 4071  34.272   4.925  12.932
35667W        W 4072   8.734  21.613   0.324
35668W        W 4073   1.228   4.561  13.951
35669W        W 4074  26.247  18.392   2.399
35670W        W 4075  33.312  39.430   4.236
35671W        W 4076  42.675  30.501  10.265
35672W        W 4077  19.811   5.534  10.614
35673W        W 4078  26.782  40.826  11.175
35674W        W 4079  22.885  40.081  13.629
35675W        W 4080  13.323  18.578   1.368
35676W        W 4081  35.962   6.560   2.771
35677W        W 4082  13.771   4.451  11.562
35678W        W 4083  26.549  34.060  11.425
35679W        W 4084  44.949  27.889   4.672
35680W        W 4085  15.752  11.465   0.985
35681W        W 4086  25.277   0.512   4.112
35682W        W 4087  28.263   5.641  14.801
35683W        W 4088  38.053  14.759  12.553
35684W        W 4089  44.792   8.295   1.322
35685W        W 4090   4.743   7.199  14.504
35686W        W 4091  38.828  20.574  13.882
35687W        W 4092   4.718  41.347   2.586
35688W        W 4093   4.699   2.891  10.741
35689W        W 4094  28.404   2.246  12.487
35690W        W 4095  33.599  12.834  12.831
35691W        W 4096  42.048  10.886  14.580
35692W        W 4097  23.362   2.430  10.618
35693W        W 4098   2.531  13.109  12.909
35694W        W 4099  35.325  25.986  11.636
35695W        W 4100  35.699  36.928  13.357
35696W        W 4101  17.822   9.477   3.815
35697W        W 4102  31.622  20.182  12.146
35698W        W 4103   8.271  29.727  13.447
35699W        W 4104  44.137  10.848   5.094
35700W        W 4105  10.293  32.307  14.715
35701W        W 4106  41.028  15.099   0.353
35702W        W 4107   3.593  39.609  14.733
35703W        W 4108  20.580  36.114  13.879
35704W        W 4109   1.658  23.604   2.073
35705W        W 4110  18.551  31.926  14.325
35706W        W 4111  21.064   8.785   2.299
35707W        W 4112  22.935  38.512  12.121
35708W        W 4113  43.933  18.335  13.069
35709W        W 4114  18.034  40.021  11.647
35710W        W 4115  14.712  20.792  13.142
35711W        W 4116   9.484  18.872  13.967
35712W        W 4117  14.654  44.404   0.492
35713W        W 4118   3.730   8.795   4.028
35714W        W 4119  11.872   6.808   0.371
35715W        W 4120  25.562  23.081  14.697
35716W        W 4121  42.264  13.201  10.960
35717W        W 4122   4.401  33.770  12.948
35718W        W 4123  28.777  30.155  13.869
35719W        W 4124  10.417  11.283   4.316
35720W        W 4125   5.409  17.843   0.396
35721W        W 4126  23.307  10.132   1.902
35722W        W 4127  41.870  33.448   0.394
35723W        W 4128  42.986  20.000   0.300
35724W        W 4129   8.401  28.298  14.558
35725W        W 4130   1.490   5.703   2.148
35726W        W 4131   1.781  24.577  12.284
35727W        W 4132  20.035   7.432   4.151
35728W        W 4133  13.711   3.903   0.438
35729W        W 4134   0.254  18.713  13.828
35730W        W 4135  33.942   9.313   0.207
35731W        W 4136  24.307  26.118   0.485
35732W        W 4137  22.727  18.688  11.621
35733W        W 4138  15.103  35.935   2.664
35734W        W 4139  26.579  15.656   2.319
35735W        W 4140   7.225   4.175   3.769
35736W        W 4141  17.826  16.524  12.053
35737W        W 4142  16.318   9.450  13.068
35738W        W 4143   3.514  27.559  14.457
35739W        W 4144  44.922   6.155  13.362
35740W        W 4145  19.189  22.546   3.147
35741W        W 4146  40.770  42.881   0.305
35742W        W 4147  23.289  12.725   3.207
35743W        W 4148  29.283  26.063   3.336
35744W        W 4149  35.247  27.027  11.798
35745W        W 4150  21.886  36.813  11.055
35746W        W 4151  34.949  26.025   3.703
35747W        W 4152  38.691   7.258  11.104
35748W        W 4153  26.236   0.217   2.788
35749W        W 4154   8.182  34.546  14.693
35750W        W 4155   6.554  11.408   1.438
35751W        W 4156  27.689   9.512  14.929
35752W        W 4157   4.340  24.477   1.721
35753W        W 4158  32.144  40.067  10.667
35754W        W 4159  19.623  10.049   0.308
35755W        W 4160   9.199  15.273   1.266
35756W        W 4161  38.296  41.624  11.628
35757W        W 4162  34.032  24.168  11.438
35758W        W 4163   8.601   5.266  10.603
35759W        W 4164  44.468   5.903   0.868
35760W        W 4165   3.254  44.011  12.599
35761W        W 4166  44.022  24.770   4.243
35762W        W 4167  40.916  42.692   4.100
35763W        W 4168  23.215   9.782  10.941
35764W        W 4169  13.044   3.922  11.935
35765W        W 4170   7.895  22.723   4.549
35766W        W 4171  29.143  38.436   0.979
35767W        W 4172  29.011  41.298   0.259
35768W        W 4173  38.292   1.456   0.296
35769W        W 4174  27.696   7.043  11.930
35770W        W 4175  40.260   0.853   1.256
35771W        W 4176  13.758   7.417   1.211
35772W        W 4177  43.298  40.084   3.431
35773W        W 4178  13.211  25.619   2.328
35774W        W 4179  34.589  19.200  12.425
35775W        W 4180  39.038  16.437  10.239
35776W        W 4181  41.113  15.644  11.166
35777W        W 4182  29.679  29.483   4.511
35778W        W 4183  14.912  16.973   1.960
35779W        W 4184  25.040  24.012  13.769
35780W        W 4185   6.855  35.624   2.564
35781W        W 4186  12.363  37.323   1.223
35782W        W 4187  13.346  28.939  14.530
35783W        W 4188   6.290  29.892   4.753
35784W        W 4189  20.255  27.185  11.801
35785W        W 4190  22.404  17.209   1.418
35786W        W 4191  22.531  38.408   2.705
35787W        W 4192   4.685   8.194  13.589
35788W        W 4193  10.739   1.713  12.038
35789W        W 4194  19.293  37.476  10.688
35790W        W 4195  23.731  10.953   1.364
35791W        W 4196  14.682   3.713  12.476
35792W        W 4197  14.083   7.508  12.455
35793W        W 4198  14.645  40.688  14.249
35794W        W 4199  37.809  27.093   3.602
35795W        W 4200   2.346  38.031   0.434
35796W        W 4201  20.534  24.623  12.962
35797W        W 4202  12.748  26.960   1.352
35798W        W 4203  21.076   6.859   1.179
35799W        W 4204  40.002  10.759  11.447
35800W        W 4205  41.384  17.623  10.630
35801W        W 4206  41.066  17.731  12.456
35802W        W 4207  11.667  21.938   4.070
35803W        W 4208  31.731  16.868  11.472
35804W        W 4209  16.387  39.092   3.231
35805W        W 4210  22.708   1.402  10.510
35806W        W 4211  29.653  13.417   3.262
35807W        W 4212   8.445  38.257  12.405
35808W        W 4213  21.680  21.324  11.148
35809W        W 4214  23.754  38.083   4.144
35810W        W 4215  43.839  29.045  14.866
35811W        W 4216  28.168  13.522  12.588
35812W        W 4217  29.974  31.429  10.971
35813W        W 4218  25.935  22.745  14.587
35814W        W 4219  40.446   9.445  11.250
35815W        W 4220  40.343  25.262  12.574
35816W        W 4221  41.620  38.729  11.596
35817W        W 4222  42.181  44.114   3.857
35818W        W 4223  38.450  34.084  14.313
35819W        W 4224  32.114  16.199   1.902
35820W        W 4225   4.201  16.706   2.150
35821W        W 4226  19.008  19.861   3.275
35822W        W 4227  27.691  34.133  13.018
35823W        W 4228  12.462  30.769  11.046
35824W        W 4229  42.237  19.708   2.193
35825W        W 4230   9.683  25.047   2.579
35826W        W 4231  14.893  13.641   2.885
35827W        W 4232  37.486  27.085  10.436
35828W        W 4233  31.006  23.434  10.757
35829W        W 4234  13.929  37.803   3.649
35830W        W 4235  27.531  44.967   4.600
35831W        W 4236  22.673  10.076  13.184
35832W        W 4237  32.750  29.901   2.706
35833W        W 4238  31.838  32.988   3.124
35834W        W 4239  30.342   1.402   4.321
35835W        W 4240  13.839  31.412   4.225
35836W        W 4241  20.547  42.023   4.390
35837W        W 4242  31.553  43.785  13.127
35838W        W 4243  18.017  21.535   4.970
35839W        W 4244  20.030  18.226  13.373
35840W        W 4245  11.180   1.171   3.298
35841W        W 4246  29.643  33.201   3.579
35842W        W 4247  25.637  13.818   2.275
35843W        W 4248  32.082   1.308   0.514
35844W        W 4249  13.356  43.930   5.394
35845W        W 4250  35.243  16.668   0.674
35846W        W 4251  27.840   3.539  12.921
35847W        W 4252  32.002  21.995  12.091
35848W        W 4253  36.360  17.546  12.646
35849W        W 4254  16.160  25.150  13.897
35850W        W 4255  35.382  40.971  10.901
35851W        W 4256  41.367  12.179  12.951
35852W        W 4257  18.276  44.943   0.977
35853W        W 4258  12.287  36.592  11.842
35854W        W 4259  21.259  17.358   0.432
35855W        W 4260  35.979  27.518  12.967
35856W        W 4261  44.826  12.545   0.233
35857W        W 4262   3.978  33.855  14.745
35858W        W 4263  26.985   9.661   0.685
35859W        W 4264   4.774  28.895   0.404
35860W        W 4265  16.601  33.515   3.588
35861W        W 4266  23.259   6.575  14.324
35862W        W 4267  33.971  30.484   1.355
35863W        W 4268   9.131  22.210   0.006
35864W        W 4269  23.229  32.876   2.841
35865W        W 4270   5.689  22.550   1.943
35866W        W 4271  10.448  24.603  13.436
35867W        W 4272  13.380   3.856   4.791
35868W        W 4273  21.632   9.633  11.458
35869W        W 4274  21.808  28.391   1.339
35870W        W 4275  14.676  11.394  10.739
35871W        W 4276  26.465   2.055  11.269
35872W        W 4277  15.200   7.247   5.160
35873W        W 4278  31.716  40.900   4.555
35874W        W 4279  20.549  15.654   3.708
35875W        W 4280  26.249   1.916  10.321
35876W        W 4281  14.225   3.871  12.371
35877W        W 4282  23.406   5.278  10.725
35878W        W 4283  34.814  33.077   3.649
35879W        W 4284  21.233  29.455  13.390
35880W        W 4285  43.571  36.291  11.177
35881W        W 4286  34.488  20.005  14.364
35882W        W 4287  10.449  37.040  10.346
35883W        W 4288   9.598  38.448  14.431
35884W        W 4289  40.733  17.208  14.339
35885W        W 4290   7.560  41.839   3.230
35886W        W 4291  20.927   8.975  12.998
35887W        W 4292  11.635   7.251  13.632
35888W        W 4293   4.962   3.364   0.905
35889W        W 4294   7.649  37.066  12.947
35890W        W 4295  35.087  38.579   2.705
35891W        W 4296  37.789  10.754   1.438
35892W        W 4297  42.045  20.322  12.810
35893W        W 4298  43.222  44.231  11.035
35894W        W 4299  33.291  44.007  10.796
35895W        W 4300  31.236  12.198   2.289
35896W        W 4301   9.238  36.470   3.653
35897W        W 4302  14.582  39.323   1.351
35898W        W 4303  31.483  30.157  14.867
35899W        W 4304   0.388  17.769  14.741
35900W        W 4305  15.520  21.161   2.753
35901W        W 4306   5.943  20.036  12.642
35902W        W 4307  17.177  36.616  14.814
35903W        W 4308  25.123   8.519  12.163
35904W        W 4309  22.615  28.485   1.398
35905W        W 4310   5.762   5.154   2.627
35906W        W 4311  16.747  41.647  14.828
35907W        W 4312  25.552   6.812  14.016
35908W        W 4313  34.956  27.066  10.978
35909W        W 4314  43.724  23.148   3.667
35910W        W 4315  22.671  26.558   2.690
35911W        W 4316  19.845  12.900   0.261
35912W        W 4317  12.035  40.464   1.261
35913W        W 4318  41.990   5.432  12.097
35914W        W 4319  16.123   5.306   2.718
35915W        W 4320  43.414   7.302  11.593
35916W        W 4321  12.079   7.280  10.323
35917W        W 4322  13.259   4.422   2.123
35918W        W 4323  29.513  44.188   0.024
35919W        W 4324   3.680  22.948   4.821
35920W        W 4325   4.224   4.176  10.561
35921W        W 4326  32.004  36.226  14.405
35922W        W 4327   4.823   6.331  10.680
35923W        W 4328  33.112   1.442   1.250
35924W        W 4329   3.569  13.433  13.458
35925W        W 4330  29.941  29.732  14.462
35926W        W 4331  42.259   6.806  11.861
35927W        W 4332  43.767  27.039   4.292
35928W        W 4333   9.101   9.985   3.184
35929W        W 4334  10.980  26.153   0.734
35930W        W 4335  24.559  44.963  11.017
35931W        W 4336   5.691   3.978   4.751
35932W        W 4337  23.136  14.177   3.594
35933W        W 4338  21.700   8.751  11.065
35934W        W 4339  42.971  37.613  12.009
35935W        W 4340   4.575  17.328   1.367
35936W        W 4341  27.852  33.297  12.977
35937W        W 4342  10.860  21.008  14.816
35938W        W 4343  39.875   6.750   2.581
35939W        W 4344  14.620  35.664   5.112
35940W        W 4345   6.336  28.420  10.226
35941W        W 4346  18.261  28.341  12.062
35942W        W 4347  43.758  29.820   2.165
35943W        W 4348  40.966  38.467   3.167
35944W        W 4349  17.756  22.462   1.925
35945W        W 4350   6.314  27.128   4.286
35946W        W 4351   8.237  17.338   0.231
35947W        W 4352  16.364  14.240   0.250
35948W        W 4353   6.962  20.916   3.775
35949W        W 4354   4.323  39.302   4.852
35950W        W 4355  27.178  38.640   0.399
35951W        W 4356  26.899  17.681   2.471
35952W        W 4357  34.046  12.833   3.909
35953W        W 4358  40.039  43.467   0.757
35954W        W 4359   0.865  39.987   2.175
35955W        W 4360  34.806  19.486   0.795
35956W        W 4361  41.386  29.695   2.237
35957W        W 4362  28.993  18.118   3.697
35958W        W 4363  29.598  43.097   2.246
35959W        W 4364  36.556   7.777   0.044
35960W        W 4365  13.679  35.496  11.100
35961W        W 4366   7.190  38.774  10.579
35962W        W 4367  28.926  15.702  13.340
35963W        W 4368  44.256   4.367   3.741
35964W        W 4369  20.492  11.980  13.019
35965W        W 4370   9.460  33.786   3.664
35966W        W 4371  14.292  17.338   2.823
35967W        W 4372  34.488  35.872   0.433
35968W        W 4373  24.725  21.525   1.743
35969W        W 4374   2.282  35.392   1.394
35970W        W 4375  24.414  31.621   1.366
35971W        W 4376  18.052  39.033   2.535
35972W        W 4377  15.611  29.565   3.453
35973W        W 4378  21.712  37.007   3.992
35974W        W 4379  31.135   9.653   0.873
35975W        W 4380   2.897  40.544   0.434
35976W        W 4381   5.707  36.515  12.925
35977W        W 4382  17.961  20.634  11.971
35978W        W 4383  30.630  23.537  14.856
35979W        W 4384  14.124  11.307  14.181
35980W        W 4385  44.071  21.806  12.583
35981W        W 4386  23.787   4.814   0.223
35982W        W 4387  25.636  43.462   4.224
35983W        W 4388  24.256  29.414  10.680
35984W        W 4389  15.139  39.779   1.721
35985W        W 4390   0.446  11.549   1.413
35986W        W 4391  20.747  44.391   2.804
35987W        W 4392   7.107  40.995   2.800
35988W        W 4393  17.640  33.746  12.944
35989W        W 4394  29.704  14.349   3.070
35990W        W 4395   2.270  29.798  14.302
35991W        W 4396  36.885   1.683   4.507
35992W        W 4397   5.231   1.535   3.806
35993W        W 4398  33.711  35.957   4.333
35994W        W 4399  38.372  11.372   1.780
35995W        W 4400  43.992  20.029  14.272
35996W        W 4401  16.307  37.939  11.531
35997W        W 4402  33.864  43.042   4.413
35998W        W 4403   3.587  16.716   0.451
35999W        W 4404   9.820  32.352   0.537
36000W        W 4405  36.212   7.721   4.701
36001W        W 4406  23.790  26.522  10.537
36002W        W 4407   2.467  22.498  12.439
36003W        W 4408  19.463  25.559   4.930
36004W        W 4409  24.463  43.750  10.650
36005W        W 4410   0.471   2.754  13.404
36006W        W 4411  34.915  21.098  13.434
36007W        W 4412   0.313  14.367   5.008
36008W        W 4413  25.506  19.021  10.789
36009W        W 4414   6.489  13.688  14.551
36010W        W 4415   0.269   4.247   2.346
36011W        W 4416  21.258  34.980  11.046
36012W        W 4417  18.547  29.144   0.352
36013W        W 4418  28.873  44.410  12.990
36014W        W 4419  44.218  30.590  13.885
36015W        W 4420  22.183   2.833  14.739
36016W        W 4421   3.268  39.285   4.653
36017W        W 4422  43.672   7.971   4.047
36018W        W 4423   3.760  30.669   3.614
36019W        W 4424   8.889   3.212   2.982
36020W        W 4425   9.877  37.633  13.470
36021W        W 4426   7.666   3.824   1.340
36022W        W 4427  41.013   2.030   3.713
36023W        W 4428   6.667   3.711   0.251
36024W        W 4429  44.237  25.935  12.840
36025W        W 4430   7.961  14.997  12.338
36026W        W 4431  32.161  28.807  13.461
36027W        W 4432  36.495   4.781  13.468
36028W        W 4433  13.063   3.845  10.059
36029W        W 4434  19.733   0.723   1.932
36030W        W 4435  33.379  27.618   2.790
36031W        W 4436  41.694  26.625   4.441
36032W        W 4437  16.253   6.577   4.162
36033W        W 4438  22.083  38.817  11.130
36034W        W 4439   2.816   0.861   4.588
36035W        W 4440  36.815  37.909   1.705
36036W        W 4441  24.117  19.115   4.525
36037W        W 4442  17.932  25.196   5.133
36038W        W 4443  26.455  14.778   1.357
36039W        W 4444  36.093  41.268  14.428
36040W        W 4445  17.194  15.779  11.131
36041W        W 4446  19.441  12.992  12.567
36042W        W 4447  13.477   3.207   3.755
36043W        W 4448  11.844  27.817   0.672
36044W        W 4449  23.772  39.328  12.535
36045W        W 4450  12.067  13.673   0.392
36046W        W 4451  11.821  17.514  13.716
36047W        W 4452  36.476  27.963   2.292
36048W        W 4453  19.521  12.315  11.485
36049W        W 4454   3.959  38.692  14.780
36050W        W 4455  29.551  34.888  12.888
36051W        W 4456  18.087   1.234  13.546
36052W        W 4457  43.026  22.158   3.016
36053W        W 4458  32.997  41.970  12.892
36054W        W 4459  11.496  34.932   2.918
36055W        W 4460   7.115  37.902   3.150
36056W        W 4461   8.165  10.373  13.038
36057W        W 4462  42.946  19.243  14.695
36058W        W 4463  31.691  29.022  11.503
36059W        W 4464  23.602  30.125  10.567
36060W        W 4465  35.951  29.890   0.820
36061W        W 4466   0.814  33.460   0.253
36062W        W 4467  15.704  42.931   1.557
36063W        W 4468  28.616   9.916  13.731
36064W        W 4469  25.866  17.128   0.831
36065W        W 4470  24.221  12.845   1.022
36066W        W 4471  10.042   4.026   3.631
36067W        W 4472  41.227  18.191   3.369
36068W        W 4473  18.825   2.443  12.384
36069W        W 4474  10.500   6.374   3.986
36070W        W 4475  31.445   3.158  10.755
36071W        W 4476  43.341   0.654  12.387
36072W        W 4477  21.526   7.283  13.441
36073W        W 4478  44.429   2.255   2.255
36074W        W 4479  43.700   5.891  14.990
36075W        W 4480  40.009  12.618   2.810
36076W        W 4481  12.499  35.044   1.274
36077W        W 4482  20.328  29.119  11.806
36078W        W 4483   8.371  43.369   0.206
36079W        W 4484  36.067  37.766   4.100
36080W        W 4485  18.217  20.151  11.885
36081W        W 4486  18.332   1.447  13.945
36082W        W 4487  30.580  28.180  11.865
36083W        W 4488  18.085  14.553   0.095
36084W        W 4489  33.695  36.957   2.966
36085W        W 4490  29.464  18.454  11.155
36086W        W 4491  39.557   1.038   1.695
36087W        W 4492  13.375  12.491  13.076
36088W        W 4493  24.619  26.442   3.554
36089W        W 4494  18.234  15.345  13.088
36090W        W 4495   6.695  21.947  13.353
36091W        W 4496   6.348   5.337  14.895
36092W        W 4497  32.167  10.235   2.413
36093W        W 4498  20.503   5.990   2.356
36094W        W 4499  23.378  37.753   0.467
36095W        W 4500  34.444   7.751  10.909
36096W        W 4501  24.133   9.630   3.557
36097W        W 4502   4.933   6.771  14.231
36098W        W 4503  32.467  26.014   0.942
36099W        W 4504  38.437  14.065   0.447
36100W        W 4505  43.199  42.062  13.098
36101W        W 4506   3.994  10.917  14.633
36102W        W 4507  21.166  17.063  14.933
36103W        W 4508  27.989  15.694   1.656
36104W        W 4509  30.134  25.077  11.717
36105W        W 4510  25.784  12.347  14.287
36106W        W 4511  43.016   7.835  11.181
36107W        W 4512  19.256  35.022  14.356
36108W        W 4513  15.787  27.430   0.328
36109W        W 4514  36.266  11.696  14.977
36110W        W 4515  17.080  31.197  11.570
36111W        W 4516  28.692  17.323  12.543
36112W        W 4517  11.389   1.375   0.214
36113W        W 4518  28.981  43.770   0.825
36114W        W 4519  31.845  19.581   1.895
36115W        W 4520  25.576   3.691   1.454
36116W        W 4521   2.456  40.370   0.194
36117W        W 4522  21.872  35.242   1.435
36118W        W 4523  22.751  18.519  13.522
36119W        W 4524  25.490  14.343  11.504
36120W        W 4525  27.846  30.488  14.442
36121W        W 4526  16.497  27.103  11.006
36122W        W 4527   5.532   9.644  12.610
36123W        W 4528  11.679  30.621  13.418
36124W        W 4529  12.996  23.298   4.897
36125W        W 4530  21.015  29.993   1.368
36126W        W 4531  35.044  22.647  10.552
36127W        W 4532  38.541  30.126   3.753
36128W        W 4533  44.315  42.237  10.540
36129W        W 4534  24.160  27.575   3.240
36130W        W 4535  37.615  37.988  13.890
36131W        W 4536  30.948  41.109  13.403
36132W        W 4537  27.853  34.999  13.823
36133W        W 4538  24.685  10.539   4.659
36134W        W 4539  39.008  10.093   3.113
36135W        W 4540  11.173  30.819  14.310
36136W        W 4541  20.089   5.182  11.210
36137W        W 4542  44.343  11.361   2.682
36138W        W 4543   0.925   7.909   3.789
36139W        W 4544  37.866   7.281  11.981
36140W        W 4545  38.545  38.470  12.351
36141W        W 4546  14.859  27.152   1.397
36142W        W 4547   6.773   6.672  13.779
36143W        W 4548   0.254  30.529  13.833
36144W        W 4549  34.730  23.964   1.998
36145W        W 4550   0.576  37.550  14.765
36146W        W 4551   6.222  43.201  12.722
36147W        W 4552  44.420   9.393   3.297
36148W        W 4553   7.211   1.110  10.524
36149W        W 4554  44.419  17.274   4.326
36150W        W 4555  17.760  10.342   4.148
36151W        W 4556  13.358  37.594   4.544
36152W        W 4557  20.800  36.592  14.818
36153W        W 4558  22.990  39.970   1.881
36154W        W 4559  18.091   4.267   1.912
36155W        W 4560   3.257  38.233   3.698
36156W        W 4561  32.050   6.319   2.007
36157W        W 4562  11.915  17.223  11.516
36158W        W 4563  30.151  14.319   4.097
36159W        W 4564  16.851  37.525   4.659
36160W        W 4565  24.779  18.649   1.848
36161W        W 4566   9.303  20.834  11.582
36162W        W 4567  25.772  44.430  12.959
36163W        W 4568  20.158  21.607   4.656
36164W        W 4569  29.193   3.362   4.223
36165W        W 4570  37.326  35.056   3.764
36166W        W 4571   4.219  40.842   0.853
36167W        W 4572   1.335  25.530  10.941
36168W        W 4573  35.172  30.746   1.136
36169W        W 4574  43.946  17.090  11.576
36170W        W 4575  29.125  18.309   2.360
36171W        W 4576  10.466  40.657   2.431
36172W        W 4577  15.585   4.086   0.409
36173W        W 4578  42.611  26.114  10.831
36174W        W 4579  36.829  19.956   3.354
36175W        W 4580   8.785  19.694   4.124
36176W        W 4581  31.758   3.795  13.283
36177W        W 4582  26.129  20.733  12.073
36178W        W 4583  31.420  28.885   4.941
36179W        W 4584  19.037  16.075   0.127
36180W        W 4585  41.860   9.353   2.453
36181W        W 4586   8.284  42.410   4.615
36182W        W 4587  33.670  35.575   2.709
36183W        W 4588  27.948   6.102  13.449
36184W        W 4589  37.820  30.460   2.320
36185W        W 4590  41.381  43.869   3.754
36186W        W 4591   4.841  17.464   4.806
36187W        W 4592   7.213  38.841   2.334
36188W        W 4593  27.222  43.320   3.244
36189W        W 4594   9.663  39.905  11.656
36190W        W 4595   8.645  41.735  11.262
36191W        W 4596   0.789  41.600  10.241
36192W        W 4597   4.278  26.228  14.341
36193W        W 4598  22.612  23.924  14.564
36194W        W 4599  44.026  42.852  13.437
36195W        W 4600   8.126  27.116   3.298
36196W        W 4601  36.713  37.649  10.801
36197W        W 4602  36.079  29.158   1.881
36198W        W 4603  42.069  15.339  12.916
36199W        W 4604  31.552   5.704  12.496
36200W        W 4605  13.185  39.344  13.162
36201W        W 4606  14.434  19.283  11.938
36202W        W 4607  26.109  17.192   1.805
36203W        W 4608  36.458  34.354  11.196
36204W        W 4609  34.659  35.801   2.636
36205W        W 4610  20.606  20.315   3.708
36206W        W 4611  32.015  30.101   3.301
36207W        W 4612  25.529  14.161   1.120
36208W        W 4613  43.247  24.600  10.999
36209W        W 4614  20.177  12.987   0.659
36210W        W 4615  38.986  23.057   0.679
36211W        W 4616  35.040  17.638   3.262
36212W        W 4617  21.602  31.909  13.385
36213W        W 4618  29.139  18.779  14.879
36214W        W 4619  35.608  44.503  11.491
36215W        W 4620  18.250  32.898  11.889
36216W        W 4621   7.817   1.884   3.671
36217W        W 4622  29.589  13.342   4.576
36218W        W 4623  39.387  40.027   3.244
36219W        W 4624  26.712  22.130   2.053
36220W        W 4625  21.575  18.483  14.755
36221W        W 4626  19.605  19.481  14.572
36222W        W 4627  31.151   1.841   4.261
36223W        W 4628  15.749  33.131   4.671
36224W        W 4629  42.088  34.490   1.669
36225W        W 4630  36.354  24.601   3.688
36226W        W 4631   4.694  25.608  11.663
36227W        W 4632  10.286  13.002  11.368
36228W        W 4633  39.023  28.773   1.351
36229W        W 4634  11.171  19.323   2.220
36230W        W 4635   6.626  16.768   3.038
36231W        W 4636  38.945  19.489   0.298
36232W        W 4637  18.724  41.440  14.828
36233W        W 4638  20.009  21.495  12.367
36234W        W 4639  31.993   6.892   2.139
36235W        W 4640  29.609  17.108   1.673
36236W        W 4641   3.661   8.925   1.723
36237W        W 4642  25.482  28.753   3.692
36238W        W 4643  39.779  30.022  14.415
36239W        W 4644  43.847  20.511   2.824
36240W        W 4645  11.535  39.855  13.106
36241W        W 4646  43.254  15.207   2.758
36242W        W 4647  34.077   3.038   0.324
36243W        W 4648  22.316  31.548   2.330
36244W        W 4649   8.405  18.706   4.063
36245W        W 4650  30.475  40.224   4.153
36246W        W 4651  28.942   4.748  11.407
36247W        W 4652  25.106  11.490   2.307
36248W        W 4653  25.296  18.192   3.723
36249W        W 4654  35.943  40.593  13.373
36250W        W 4655  18.048  26.477  12.133
36251W        W 4656   5.227  43.544   2.587
36252W        W 4657  17.512  17.181   3.308
36253W        W 4658   7.327   2.362  13.844
36254W        W 4659  21.532  16.851   1.213
36255W        W 4660  36.535  14.144  12.879
36256W        W 4661  32.214   2.539   1.245
36257W        W 4662  37.474  29.844  14.545
36258W        W 4663  22.282   3.124  12.088
36259W        W 4664   1.844  31.670  12.991
36260W        W 4665  14.158  25.940  14.452
36261W        W 4666  42.823  22.057  10.808
36262W        W 4667  28.986  39.270   0.512
36263W        W 4668  39.921   3.975  11.128
36264W        W 4669  13.777  21.520  14.973
36265W        W 4670  17.379   5.447  12.877
36266W        W 4671  41.924  14.728  12.325
36267W        W 4672  34.034  37.474   3.731
36268W        W 4673   2.952   9.333   0.993
36269W        W 4674   5.916  16.419  13.077
36270W        W 4675   6.315  15.782   0.478
36271W        W 4676  37.137  31.501  10.628
36272W        W 4677  24.154  10.252   4.612
36273W        W 4678  35.916  11.854  11.687
36274W        W 4679  42.773  35.429  12.772
36275W        W 4680  32.066   1.126  14.406
36276W        W 4681  35.535  30.910   1.495
36277W        W 4682   5.676   0.483   4.209
36278W        W 4683   3.063   1.808   0.783
36279W        W 4684  26.884   1.989  13.764
36280W        W 4685   9.127  35.846   1.414
36281W        W 4686  35.873  15.585  10.488
36282W        W 4687  41.194  27.686  13.502
36283W        W 4688  34.401  13.065   3.182
36284W        W 4689  24.748  12.255  11.619
36285W        W 4690  12.315  20.128   3.626
36286W        W 4691  40.514   0.964  13.105
36287W        W 4692  39.522  31.400   2.158
36288W        W 4693  15.892   5.835   1.763
36289W        W 4694  34.947  28.174  10.249
36290W        W 4695   8.761  10.064   2.794
36291W        W 4696  30.886  17.199  13.228
36292W        W 4697   9.420   0.494   3.388
36293W        W 4698  35.998  33.217   3.457
36294W        W 4699  38.353  29.779   0.043
36295W        W 4700  36.019  10.950  14.465
36296W        W 4701  32.492  18.124   2.726
36297W        W 4702  33.874  37.397  13.965
36298W        W 4703   3.814   2.477   1.048
36299W        W 4704  36.327  29.555   0.219
36300W        W 4705  30.156  40.971   2.654
36301W        W 4706  33.543   4.723  14.784
36302W        W 4707  17.530  16.556   4.749
36303W        W 4708  27.937  17.787  14.405
36304W        W 4709   4.908  12.182  12.906
36305W        W 4710   3.393  25.983  12.307
36306W        W 4711   0.313  15.126  11.628
36307W        W 4712   3.955  10.364   4.515
36308W        W 4713  44.970  40.074  13.328
36309W        W 4714  35.713  30.659   1.902
36310W        W 4715   4.714  31.868  14.539
36311W        W 4716   7.657  17.499   3.185
36312W        W 4717  22.462  13.355   1.111
36313W        W 4718  31.895  37.977   2.394
36314W        W 4719  15.584  41.830  11.982
36315W        W 4720   4.899  21.034  11.195
36316W        W 4721  14.772  11.037  14.977
36317W        W 4722  16.026  21.505  14.748
36318W        W 4723  42.755  10.388   5.006
36319W        W 4724  34.008   1.542   1.378
36320W        W 4725   9.770  10.856  13.487
36321W        W 4726  28.909  23.658  11.583
36322W        W 4727   4.234  15.692  14.343
36323W        W 4728  16.601  18.492  11.901
36324W        W 4729  33.616  10.346   4.111
36325W        W 4730  13.459   9.638   2.421
36326W        W 4731  38.827  33.660  13.441
36327W        W 4732   6.312  10.251  10.698
36328W        W 4733  14.670  30.625   3.986
36329W        W 4734   3.128   3.487  13.335
36330W        W 4735  19.764  31.430  13.483
36331W        W 4736  22.065  35.952  14.036
36332W        W 4737  41.278   2.159  14.181
36333W        W 4738  43.860   6.505  12.512
36334W        W 4739  27.820   8.851  12.888
36335W        W 4740  25.633  19.058   2.912
36336W        W 4741  19.806  19.117   1.295
36337W        W 4742  15.673  10.454  11.126
36338W        W 4743  26.039  29.342   0.003
36339W        W 4744  41.215  16.132   4.381
36340W        W 4745  22.245  28.024  11.716
36341W        W 4746   6.503  22.466  10.197
36342W        W 4747   0.925  36.812   1.934
36343W        W 4748  16.192  32.706   2.700
36344W        W 4749  36.280  14.125  13.328
36345W        W 4750  21.493   9.776   4.632
36346W        W 4751   3.545   7.209  10.756
36347W        W 4752  30.663  18.532  10.549
36348W        W 4753  38.644  12.892  11.220
36349W        W 4754  33.331   2.180   4.224
36350W        W 4755   7.002  44.891   3.635
36351W        W 4756  30.313  40.788  12.094
36352W        W 4757  40.807  10.764  12.499
36353W        W 4758   0.810  25.978   4.979
36354W        W 4759  26.618   6.823  12.757
36355W        W 4760   6.195  28.121   2.711
36356W        W 4761  37.877   3.875  11.254
36357W        W 4762   5.462  42.051  11.610
36358W        W 4763  29.460  14.380  11.131
36359W        W 4764  32.569  17.578   0.354
36360W        W 4765  30.378   1.926   2.241
36361W        W 4766  33.429  33.830  11.124
36362W        W 4767  10.884  10.289  11.564
36363W        W 4768   1.556  30.122   3.551
36364W        W 4769  12.627  41.506  12.470
36365W        W 4770  11.229  13.293  12.970
36366W        W 4771  15.879  10.142   4.186
36367W        W 4772   9.119  16.804   3.139
36368W        W 4773  28.857  34.424  11.387
36369W        W 4774  15.200   2.866  12.973
36370W        W 4775   2.327  41.198  14.819
36371W        W 4776  44.349  21.988  11.616
36372W        W 4777  28.047  37.834   3.230
36373W        W 4778   2.033  23.729   1.716
36374W        W 4779  32.107  10.062  12.572
36375W        W 4780  14.442  32.063   0.749
36376W        W 4781   8.457  12.279  11.015
36377W        W 4782   3.045  16.140  12.984
36378W        W 4783   2.717   5.115   0.950
36379W        W 4784  42.291  32.013  14.679
36380W        W 4785  10.850  27.199   3.264
36381W        W 4786   7.313  29.725  14.421
36382W        W 4787   2.227   6.260   1.939
36383W        W 4788   9.285  17.120  13.564
36384W        W 4789   0.315  13.966   4.521
36385W        W 4790  23.285   8.054  11.041
36386W        W 4791  12.704  28.030  12.262
36387W        W 4792  21.093  23.002  11.409
36388W        W 4793  29.415  20.182  10.729
36389W        W 4794  39.550   2.588   0.711
36390W        W 4795   0.874  22.102   3.467
36391W        W 4796   8.746  21.201  12.871
36392W        W 4797  17.523  13.399   3.134
36393W        W 4798   4.975  38.498   2.588
36394W        W 4799  28.358  16.008  11.649
36395W        W 4800  16.168  10.331   1.342
36396W        W 4801  19.094   5.786   0.924
36397W        W 4802  15.836  21.494  13.907
36398W        W 4803  35.369  11.834  11.714
36399W        W 4804  19.811  36.413   3.815
36400W        W 4805  18.611  43.757   3.339
36401W        W 4806  28.105  35.039   4.990
36402W        W 4807  36.821  25.969  12.542
36403W        W 4808  24.171   9.381  12.048
36404W        W 4809  42.973   3.989  12.051
36405W        W 4810  23.364   1.553   0.097
36406W        W 4811   0.107   1.116  11.177
36407W        W 4812  33.083  28.898  13.515
36408W        W 4813  32.971   9.880  14.466
36409W        W 4814  37.132  35.816   1.428
36410W        W 4815  32.535   3.297  12.705
36411W        W 4816  42.261  15.783   3.061
36412W        W 4817  20.288  17.645  14.350
36413W        W 4818  17.743   6.328   3.271
36414W        W 4819  16.627   5.331  14.229
36415W        W 4820   9.219   3.903  10.830
36416W        W 4821  15.743  39.804  14.030
36417W        W 4822   9.221  19.323  11.062
36418W        W 4823  22.189  14.288   3.312
36419W        W 4824  26.133   5.879   3.232
36420W        W 4825  19.927   8.467  14.813
36421W        W 4826  18.555  14.873  10.698
36422W        W 4827  28.069  22.514  11.607
36423W        W 4828  44.337  22.393  11.295
36424W        W 4829   3.518   0.696   3.600
36425W        W 4830  35.453  18.185  13.860
36426W        W 4831  35.602   1.226   1.860
36427W        W 4832  29.160  39.434  12.347
36428W        W 4833   5.077  28.622  10.806
36429W        W 4834  14.111  13.395   1.302
36430W        W 4835   3.344  18.103  11.061
36431W        W 4836  25.909  30.932  12.985
36432W        W 4837  21.357  12.285  12.059
36433W        W 4838   7.409  15.235  13.374
36434W        W 4839  21.921   4.613   2.759
36435W        W 4840   7.271  13.597  11.525
36436W        W 4841   2.726  19.781  13.356
36437W        W 4842   9.522   8.641   4.167
36438W        W 4843   9.391  34.209  13.809
36439W        W 4844  40.371  22.676  11.492
36440W        W 4845  14.717  34.495  13.959
36441W        W 4846  26.611  24.799   1.681
36442W        W 4847  44.661  39.699  12.588
36443W        W 4848  12.811  33.321   4.137
36444W        W 4849  39.071  35.182  11.707
36445W        W 4850  35.232  23.328   2.399
36446W        W 4851  17.001  28.155  12.560
36447W        W 4852  26.590  27.870   0.869
36448W        W 4853  22.923   4.251  11.657
36449W        W 4854  21.707   6.494   2.726
36450W        W 4855  41.424   0.873  12.515
36451W        W 4856  23.569  22.696  11.152
36452W        W 4857  23.867  33.120   3.303
36453W        W 4858   3.847  34.112  13.535
36454W        W 4859   1.191  38.891   4.108
36455W        W 4860  25.631  20.046  12.447
36456W        W 4861  26.060   6.868  13.922
36457W        W 4862   0.513  14.188  12.416
36458W        W 4863  22.210  40.092  14.848
36459W        W 4864  32.585  38.315   2.785
36460W        W 4865  25.104  29.986   4.126
36461W        W 4866  23.361  18.547  14.390
36462W        W 4867  16.765  11.054  12.485
36463W        W 4868  28.931  18.737  14.411
36464W        W 4869  33.140  16.584  11.438
36465W        W 4870  42.265   8.263  13.416
36466W        W 4871  32.633  23.022  13.840
36467W        W 4872   6.065  27.353   2.307
36468W        W 4873  24.262  42.724   2.163
36469W        W 4874  30.683  41.399  12.807
36470W        W 4875  19.231  26.932  14.762
36471W        W 4876  22.851  22.577  14.566
36472W        W 4877  19.030  42.027   3.566
36473W        W 4878  28.688   3.657   4.410
36474W        W 4879   4.277  19.077  12.096
36475W        W 4880  30.680  21.221  12.777
36476W        W 4881   5.219  36.487   3.641
36477W        W 4882  14.290   4.826   2.701
36478W        W 4883  35.433  30.342  14.648
36479W        W 4884  39.035   1.456  14.826
36480W        W 4885  22.065  38.456   2.937
36481W        W 4886  23.014   7.713   2.771
36482W        W 4887   0.281  26.439   3.710
36483W        W 4888  29.942   0.885  14.814
36484W        W 4889  20.547  17.223  12.191
36485W        W 4890  40.199  43.406  10.454
36486W        W 4891   0.760  32.810  11.528
36487W        W 4892  16.005  24.534  12.544
36488W        W 4893  20.147   6.860  13.179
36489W        W 4894  41.855  10.402   0.706
36490W        W 4895  12.314  12.385   0.919
36491W        W 4896  35.659  41.832   2.548
36492W        W 4897  37.322  24.047   5.093
36493W        W 4898  26.562  34.102  10.903
36494W        W 4899   6.731  32.386   2.283
36495W        W 4900  28.684   1.839   1.962
36496W        W 4901  27.561  34.404   1.916
36497W        W 4902   6.288   9.427   3.661
36498W        W 4903  21.480  18.763  11.144
36499W        W 4904  34.385  27.021   2.469
36500W        W 4905  33.308  22.708   0.263
36501W        W 4906  11.539  25.699   4.095
36502W        W 4907   8.008  25.557  12.680
36503W        W 4908  44.782  33.592   1.996
36504W        W 4909   8.280  37.949   0.756
36505W        W 4910  28.386  19.958  10.809
36506W        W 4911   3.818   5.222   4.078
36507W        W 4912  41.282  44.965  10.774
36508W        W 4913  11.195   0.226  10.196
36509W        W 4914  28.948  15.182  10.734
36510W        W 4915   8.614   0.659  14.420
36511W        W 4916  12.391  19.239   3.501
36512W        W 4917   4.862   1.302  10.149
36513W        W 4918  37.336  41.976  10.595
36514W        W 4919  44.358   1.312  14.840
36515W        W 4920   5.362  15.266  12.131
36516W        W 4921  18.056  27.583  13.441
36517W        W 4922   6.985  26.267   0.955
36518W        W 4923  42.918  30.145   4.574
36519W        W 4924  26.204   7.879  14.020
36520W        W 4925   0.925  37.838  14.334
36521W        W 4926   4.366  36.110  11.204
36522W        W 4927  31.888   0.221  14.142
36523W        W 4928   5.182  44.044   1.823
36524W        W 4929  11.767  23.584   4.243
36525W        W 4930  33.477  20.291   3.297
36526W        W 4931  44.373  23.330   0.470
36527W        W 4932  27.856   2.983  11.478
36528W        W 4933  12.122  22.312  12.881
36529W        W 4934  17.328   6.491  11.737
36530W        W 4935  38.151  21.193   3.875
36531W        W 4936  25.182  29.164  12.712
36532W        W 4937  18.567   7.458  13.389
36533W        W 4938  20.283  20.253   0.861
36534W        W 4939  16.834  19.950   4.825
36535W        W 4940  20.707  35.346   2.383
36536W        W 4941  21.368   5.371  14.313
36537W        W 4942   3.751  22.549  14.237
36538W        W 4943  39.236  43.000  14.218
36539W        W 4944  38.992  39.849  12.927
36540W        W 4945  34.085  29.091  14.287
36541W        W 4946  17.984  22.834   1.541
36542W        W 4947  34.007  33.579   0.399
36543W        W 4948  23.069   1.709   2.656
36544W        W 4949  12.165  44.044   3.488
36545W        W 4950  20.998  29.927   0.208
36546W        W 4951   9.750   6.958   2.974
36547W        W 4952  43.002  34.666  14.811
36548W        W 4953  40.879   4.583  14.637
36549W        W 4954  40.433  29.844   2.238
36550W        W 4955  26.095  23.246   3.321
36551W        W 4956  39.014   7.142   2.189
36552W        W 4957   9.282  19.768   2.174
36553W        W 4958  19.253  24.555   0.494
36554W        W 4959  43.764   2.784   3.768
36555W        W 4960   4.369  37.699   1.330
36556W        W 4961  10.599  14.343  14.752
36557W        W 4962  23.400   5.929   3.274
36558W        W 4963  26.998  13.724   0.022
36559W        W 4964  23.787  11.709  13.108
36560W        W 4965  38.033  17.653  14.487
36561W        W 4966  18.318  12.234   2.332
36562W        W 4967  42.169  21.508   4.970
36563W        W 4968  29.058  43.702   2.201
36564W        W 4969   4.498  42.531  12.553
36565W        W 4970  22.713  43.141  12.166
36566W        W 4971  27.052  19.539   2.151
36567W        W 4972  34.627  30.899  11.098
36568W        W 4973   6.307  13.540   0.370
36569W        W 4974  18.246   7.691  13.992
36570W        W 4975  29.385  15.202   1.963
36571W        W 4976   1.184  37.267  12.026
36572W        W 4977   7.157  25.025   3.352
36573W        W 4978  38.871  31.339   0.872
36574W        W 4979  16.722  37.912  11.160
36575W        W 4980  14.360   5.493   2.184
36576W        W 4981  43.563  35.804   5.129
36577W        W 4982  14.258  16.417   2.902
36578W        W 4983   8.857  30.430   0.359
36579W        W 4984   6.221  38.965   0.344
36580W        W 4985  35.489  13.702   3.717
36581W        W 4986  13.731  19.001   0.800
36582W        W 4987   9.972  31.128   1.786
36583W        W 4988  10.695  17.952   0.280
36584W        W 4989   9.377  26.777   3.218
36585W        W 4990   2.191   6.856  13.306
36586W        W 4991  28.478   8.852   4.193
36587W        W 4992  16.731   6.015   0.798
36588W        W 4993  28.048  34.982  10.491
36589W        W 4994  34.521   5.347  12.058
36590W        W 4995  17.550  30.501   3.658
36591W        W 4996  16.308  21.653  12.950
36592W        W 4997   7.780  32.947   4.682
36593W        W 4998  38.594   3.389   2.810
36594W        W 4999   8.155  23.998  10.845
36595W        W 5000  44.946  15.684  13.264
36596W        W 5001  37.306   4.218   2.162
36597W        W 5002  44.331   9.423   0.890
36598W        W 5003  27.177   3.386   1.592
36599W        W 5004   7.001  31.104   1.097
36600W        W 5005  40.767  17.207   4.715
36601W        W 5006  33.434  41.079  12.559
36602W        W 5007  18.400   3.656   3.151
36603W        W 5008  35.144  22.933  12.632
36604W        W 5009  34.584  40.799  14.006
36605W        W 5010   3.777  41.517  12.459
36606W        W 5011  30.059  43.208   3.788
36607W        W 5012  24.101   5.947   1.486
36608W        W 5013   3.774  28.225   2.915
36609W        W 5014   6.381  26.984  13.290
36610W        W 5015  40.310  44.763   2.463
36611W        W 5016   5.910  19.334   2.813
36612W        W 5017  18.191  30.344   2.335
36613W        W 5018  37.075  28.518  10.511
36614W        W 5019   6.172  13.302   4.665
36615W        W 5020  33.527  41.543   0.405
36616W        W 5021  14.307  16.899   3.114
36617W        W 5022  35.589  39.947  11.868
36618W        W 5023  26.002  17.267  10.055
36619W        W 5024  25.064   2.481   2.768
36620W        W 5025   1.681  36.544   0.996
36621W        W 5026  42.494  14.948   2.190
36622W        W 5027   3.563  20.737   1.898
36623W        W 5028  36.915  34.414  11.509
36624W        W 5029  41.800  30.972  14.498
36625W        W 5030   8.424  11.780  12.884
36626W        W 5031  19.611  21.787  10.605
36627W        W 5032  32.608  11.232   2.609
36628W        W 5033   8.421  12.679   0.860
36629W        W 5034   8.042  10.973   0.439
36630W        W 5035  31.077  43.318  13.490
36631W        W 5036  18.645  34.949   4.055
36632W        W 5037  38.215   2.758   2.816
36633W        W 5038  28.486  38.650   3.177
36634W        W 5039  37.996  12.099   2.331
36635W        W 5040  36.972  21.200  10.775
36636W        W 5041  39.272   2.226   2.070
36637W        W 5042  40.870  29.144   1.639
36638W        W 5043  22.478  42.415   3.636
36639W        W 5044   2.846   6.675   0.700
36640W        W 5045   9.780  39.133  13.551
36641W        W 5046   9.275  30.395   2.223
36642W        W 5047  20.167  16.867  12.409
36643W        W 5048  32.145  14.314   2.947
36644W        W 5049  23.976  19.194  14.314
36645W        W 5050  31.418  26.713  12.511
36646W        W 5051  33.637   0.790  11.610
36647W        W 5052  18.621  25.886   4.076
36648W        W 5053  16.139  44.255   0.740
36649W        W 5054  18.377  31.954  11.578
36650W        W 5055  24.902  29.510   2.239
36651W        W 5056   3.138  31.456   3.546
36652W        W 5057  28.931  26.256  10.762
36653W        W 5058  25.632   0.548  13.871
36654W        W 5059  17.398  21.553   0.455
36655W        W 5060  16.158  33.394   0.194
36656W        W 5061   5.158   0.886  11.684
36657W        W 5062   2.979  10.944   5.084
36658W        W 5063  18.733  21.217   2.147
36659W        W 5064  39.923  10.290   1.018
36660W        W 5065  42.723  27.159  13.067
36661W        W 5066  19.475  28.636  10.835
36662W        W 5067  24.498  38.603  14.526
36663W        W 5068  40.390   0.455   1.626
36664W        W 5069  39.138  12.786   4.832
36665W        W 5070  44.635  16.225   1.274
36666W        W 5071  31.815  40.851   3.608
36667W        W 5072   2.773  23.064  14.640
36668W        W 5073  27.488  33.753  14.844
36669W        W 5074  32.618   3.294   0.477
36670W        W 5075   1.815  13.182  13.918
36671W        W 5076  19.179  40.108   2.963
36672W        W 5077  22.125  25.920   3.805
36673W        W 5078  32.358  24.707  12.162
36674W        W 5079   3.288  26.074  12.815
36675W        W 5080  38.861   9.794  12.166
36676W        W 5081   9.920   0.352   3.274
36677W        W 5082  43.535  12.700  10.902
36678W        W 5083  17.649   7.329  13.965
36679W        W 5084   9.813  40.065   1.777
36680W        W 5085  40.521  33.216   5.085
36681W        W 5086  29.913  23.231  11.338
36682W        W 5087   6.332  15.664  13.952
36683W        W 5088  24.846  13.349   0.323
36684W        W 5089  34.735  40.806  10.963
36685W        W 5090   8.255  43.918   4.126
36686W        W 5091  40.505   0.519  14.495
36687W        W 5092  31.049  15.765  11.193
36688W        W 5093  20.695  29.090   0.181
36689W        W 5094  41.825  29.939   2.339
36690W        W 5095   1.638  26.586  12.392
36691W        W 5096  38.156  33.432  14.710
36692W        W 5097   9.631  43.729  13.867
36693W        W 5098  35.458  17.267   1.880
36694W        W 5099  10.561  34.778  14.934
36695W        W 5100  32.400  35.928  14.524
36696W        W 5101  13.146   8.013   0.823
36697W        W 5102  10.959  36.525   1.279
36698W        W 5103  28.499   5.841   1.310
36699W        W 5104  28.127  14.308  14.904
36700W        W 5105  28.962  27.146  10.696
36701W        W 5106   3.726  25.239   0.139
36702W        W 5107  27.773  29.584   1.442
36703W        W 5108   8.198  10.059   0.870
36704W        W 5109  16.974  35.018  13.915
36705W        W 5110   0.229  24.582   3.753
36706W        W 5111  35.572  43.274  13.533
36707W        W 5112  40.584  35.035  10.586
36708W        W 5113  11.115  41.205   2.692
36709W        W 5114  22.881   0.304  12.151
36710W        W 5115  27.709   6.362  10.636
36711W        W 5116   9.341  11.556  11.608
36712W        W 5117  23.067   2.429   0.877
36713W        W 5118  22.829  10.742   3.455
36714W        W 5119  41.035   5.545   1.842
36715W        W 5120  33.776  14.914   3.201
36716W        W 5121  31.501   9.788   3.047
36717W        W 5122  36.814   0.151   3.188
36718W        W 5123  28.425  36.126   0.824
36719W        W 5124  20.878  17.339  13.992
36720W        W 5125   4.359   0.410   2.941
36721W        W 5126  29.158  30.873  10.751
36722W        W 5127  32.640  16.123   2.201
36723W        W 5128  32.430  28.453   0.560
36724W        W 5129  19.914   2.685  13.585
36725W        W 5130   5.123   1.301   2.316
36726W        W 5131   2.317  42.513   3.642
36727W        W 5132  10.617   8.081  14.048
36728W        W 5133   4.682  25.610   1.376
36729W        W 5134  44.344  28.408  10.348
36730W        W 5135  40.331   1.454   2.517
36731W        W 5136  33.651   9.555  11.006
36732W        W 5137  37.407  18.744  14.242
36733W        W 5138  17.066   3.815   2.249
36734W        W 5139  24.119  44.074   1.801
36735W        W 5140  29.504   7.856   1.869
36736W        W 5141   3.973  31.729   1.376
36737W        W 5142   3.699  34.908  14.498
36738W        W 5143  25.001  11.308   2.839
36739W        W 5144  21.691  20.679  10.561
36740W        W 5145  21.482  14.470   4.969
36741W        W 5146  37.048   3.782   0.938
36742W        W 5147  31.213  36.426   2.512
36743W        W 5148  29.217  34.024   3.973
36744W        W 5149   1.271  22.606   2.859
36745W        W 5150  36.009  12.914  14.401
36746W        W 5151  25.236  17.704  11.383
36747W        W 5152  21.049  35.503  13.459
36748W        W 5153  20.528  29.976  14.712
36749W        W 5154  33.554  23.726  10.588
36750W        W 5155  40.054  43.581  11.259
36751W        W 5156  15.600   9.687   3.243
36752W        W 5157  38.733  42.857  12.178
36753W        W 5158  33.044   1.171  10.783
36754W        W 5159  37.274  20.815   0.213
36755W        W 5160  25.513  34.366   3.554
36756W        W 5161  44.344  42.891   1.455
36757W        W 5162  11.206   9.959  12.377
36758W        W 5163   1.338  25.420  11.863
36759W        W 5164   4.019  26.520   2.381
36760W        W 5165  41.858  18.636   3.751
36761W        W 5166   7.113  16.767   2.215
36762W        W 5167  28.646   5.831  14.451
36763W        W 5168   7.472   7.352   4.851
36764W        W 5169   7.216  13.655   2.782
36765W        W 5170  10.183  43.867  14.437
36766W        W 5171  23.082  11.159   2.270
36767W        W 5172  31.711  17.104   4.965
36768W        W 5173   5.459  36.842   2.592
36769W        W 5174  34.552  23.256  12.004
36770W        W 5175  12.096  44.303   1.727
36771W        W 5176  24.532  31.899  11.555
36772W        W 5177  34.414  12.355   1.811
36773W        W 5178  28.385  10.092   2.625
36774W        W 5179  39.589  30.375   1.457
36775W        W 5180  24.996  24.834   2.201
36776W        W 5181  40.357  39.462  11.999
36777W        W 5182   8.322  14.914  10.221
36778W        W 5183  37.268  23.941   3.123
36779W        W 5184   2.434  38.025   4.056
36780W        W 5185  40.535  17.970  10.131
36781W        W 5186  30.921  19.321   4.977
36782W        W 5187  14.651  12.006   0.461
36783W        W 5188  36.389  27.017  10.427
36784W        W 5189   5.235  10.353  11.906
36785W        W 5190   0.747  10.840   2.239
36786W        W 5191  44.937   8.634   3.235
36787W        W 5192  35.844   8.079   4.866
36788W        W 5193  44.177  20.523  11.705
36789W        W 5194  25.407  29.584   2.279
36790W        W 5195  40.131  33.071   1.348
36791W        W 5196  39.222  12.861   0.228
36792W        W 5197   4.300  41.269   2.302
36793W        W 5198   0.905   8.080  11.265
36794W        W 5199  32.025  25.515   2.646
36795W        W 5200   5.414  37.456   4.413
36796W        W 5201   2.842  32.663  11.455
36797W        W 5202  16.030  30.565   4.646
36798W        W 5203  12.695  43.433   3.747
36799W        W 5204  17.799  39.065   4.409
36800W        W 5205   9.116  36.920  13.381
36801W        W 5206  36.965  42.104   2.847
36802W        W 5207   0.017  15.436   4.572
36803W        W 5208   0.063  20.065  12.723
36804W        W 5209  34.225  36.514   2.537
36805W        W 5210  24.528  19.747  11.853
36806W        W 5211   6.185  29.412   4.983
36807W        W 5212   4.627  18.265  12.318
36808W        W 5213  25.640   6.593  10.327
36809W        W 5214  22.041  36.413  12.721
36810W        W 5215   5.837  27.604   0.311
36811W        W 5216  21.059  18.488   2.128
36812W        W 5217   4.860  11.223   0.614
36813W        W 5218  27.977  31.160   0.900
36814W        W 5219  16.164  44.407   4.274
36815W        W 5220  12.171  18.393   2.838
36816W        W 5221  13.686   6.312   3.720
36817W        W 5222  44.302  40.311   3.962
36818W        W 5223  18.812  38.072  11.811
36819W        W 5224  17.498   0.657  11.468
36820W        W 5225  26.481  24.761   0.658
36821W        W 5226  15.505   8.289   3.210
36822W        W 5227   5.437   0.719   2.699
36823W        W 5228  38.381  43.623  14.860
36824W        W 5229  41.468   5.229   2.693
36825W        W 5230  33.558   2.451  10.224
36826W        W 5231   5.731  14.503  12.478
36827W        W 5232  36.433  35.381   1.770
36828W        W 5233  17.908  14.986  12.963
36829W        W 5234  38.022  19.755  14.483
36830W        W 5235  24.741   3.411  10.443
36831W        W 5236  36.717  15.268   3.453
36832W        W 5237  43.053   7.978   2.071
36833W        W 5238  40.339   8.663   3.577
36834W        W 5239   7.353  15.458  14.119
36835W        W 5240   0.412  12.705   3.244
36836W        W 5241   8.268   7.836  12.197
36837W        W 5242   5.061   9.845  12.614
36838W        W 5243  42.407   1.748   0.189
36839W        W 5244  14.623  23.439  10.462
36840W        W 5245   5.093  20.178   1.409
36841W        W 5246  21.947   6.887  12.855
36842W        W 5247  31.621   4.360  14.542
36843W        W 5248  25.022   5.216  13.896
36844W        W 5249   9.421  23.218   3.676
36845W        W 5250  16.566  24.628  11.668
36846W        W 5251  32.701  16.061  14.358
36847W        W 5252  35.411   6.791  10.501
36848W        W 5253  31.567  44.029   4.654
36849W        W 5254   6.287   6.726  12.414
36850W        W 5255  27.862   4.424  11.472
36851W        W 5256  12.254  14.991   5.436
36852W        W 5257  36.088  32.435   1.270
36853W        W 5258  41.522   2.952   1.393
36854W        W 5259   1.403  10.982   2.674
36855W        W 5260  41.874   7.499   0.917
36856W        W 5261  24.342  11.571  11.997
36857W        W 5262  42.411  36.170   4.504
36858W        W 5263  27.925  24.752   1.833
36859W        W 5264  42.261   9.538   0.528
36860W        W 5265  19.011  24.764  12.541
36861W        W 5266  20.218  19.119   2.010
36862W        W 5267  19.304  28.947   3.210
36863W        W 5268   3.804  12.127  12.741
36864W        W 5269  37.518  22.258   3.231
36865W        W 5270  27.485  12.835  14.821
36866W        W 5271  12.530  16.776  13.553
36867W        W 5272  23.463   2.914   0.922
36868W        W 5273   9.970  20.821   2.907
36869W        W 5274   7.471  15.938  13.989
36870W        W 5275  34.410  27.617   3.806
36871W        W 5276  25.115  28.456  12.947
36872W        W 5277   2.184  42.167   4.012
36873W        W 5278  37.339  34.093  14.798
36874W        W 5279  15.170  41.889  10.949
36875W        W 5280   6.754  29.235  14.945
36876W        W 5281  42.835  35.550   2.208
36877W        W 5282   8.870  34.337  13.586
36878W        W 5283  18.226  36.329  11.421
36879W        W 5284   3.841   8.450   1.753
36880W        W 5285   0.551  12.089  11.119
36881W        W 5286   7.410  27.803  12.416
36882W        W 5287  23.691  29.165   2.405
36883W        W 5288  37.538  44.480   4.129
36884W        W 5289  17.295  33.992   3.175
36885W        W 5290  24.896  17.104  13.072
36886W        W 5291  37.001   4.977   1.693
36887W        W 5292  37.823  15.542  10.947
36888W        W 5293  38.839  10.695  14.716
36889W        W 5294   7.111  26.015  12.493
36890W        W 5295  38.393   6.727   3.624
36891W        W 5296  32.638  19.777   3.180
36892W        W 5297  17.760   7.181   4.890
36893W        W 5298  21.804  11.906  10.545
36894W        W 5299  39.877  22.579  11.388
36895W        W 5300   5.982  25.466  12.140
36896W        W 5301  25.522   3.168  10.444
36897W        W 5302  28.498  29.923   3.581
36898W        W 5303  16.513  20.804  10.618
36899W        W 5304  39.281   8.480   2.612
36900W        W 5305   1.956  18.963   1.151
36901W        W 5306  25.630  32.472  14.896
36902W        W 5307  26.271   8.406  12.958
36903W        W 5308   0.257  14.451   4.321
36904W        W 5309  40.480  27.624   1.199
36905W        W 5310  12.722  32.588  11.033
36906W        W 5311  22.797  17.227  14.954
36907W        W 5312   5.047  24.371  11.131
36908W        W 5313   9.908   0.785   2.313
36909W        W 5314  33.439   0.247   0.343
36910W        W 5315  24.593  27.054  14.528
36911W        W 5316  15.716  19.476   2.245
36912W        W 5317  25.128  18.506   2.817
36913W        W 5318  17.139  26.067   4.671
36914W        W 5319  31.632  44.817   0.368
36915W        W 5320  13.766  33.002   5.367
36916W        W 5321  10.167  39.864  14.947
36917W        W 5322   7.098  33.604   0.963
36918W        W 5323  35.245  12.142  14.304
36919W        W 5324  31.344  37.974   0.878
36920W        W 5325  10.416  40.202   3.649
36921W        W 5326  44.649  31.139  12.077
36922W        W 5327   9.265   7.360  14.351
36923W        W 5328   4.807   7.909  12.360
36924W        W 5329  12.816  12.626  14.364
36925W        W 5330  11.402  22.979   1.189
36926W        W 5331  12.163  27.312   4.093
36927W        W 5332  33.423  36.028   3.874
36928W        W 5333   0.729  32.298  11.451
36929W        W 5334  32.915  38.042   2.446
36930W        W 5335  23.793  25.447   2.673
36931W        W 5336   7.229  13.023   5.026
36932W        W 5337  35.238  25.701   0.912
36933W        W 5338  27.495   9.564   0.814
36934W        W 5339   1.032  22.749  10.710
36935W        W 5340  26.151   7.808  12.172
36936W        W 5341  20.975  15.395   2.834
36937W        W 5342  44.317  27.253  10.160
36938W        W 5343   0.826  41.789   0.771
36939W        W 5344   8.724  18.397  10.291
36940W        W 5345  34.526  22.747  10.665
36941W        W 5346  38.397   2.479  14.384
36942W        W 5347  25.867  42.320  11.107
36943W        W 5348   3.422   4.916  10.711
36944W        W 5349  42.105   3.372   2.289
36945W        W 5350  39.632  24.540  13.380
36946W        W 5351  31.616  33.503   0.559
36947W        W 5352  42.798  36.176   1.668
36948W        W 5353  40.503   3.409   1.150
36949W        W 5354  19.029  34.008   4.602
36950W        W 5355   5.421  14.434  14.090
36951W        W 5356  30.981  15.706   1.270
36952W        W 5357  20.625   7.878   2.293
36953W        W 5358   1.295  21.514  13.510
36954W        W 5359   3.223  10.071   1.527
36955W        W 5360  23.939  42.272   4.075
36956W        W 5361  26.144  30.354   4.206
36957W        W 5362  25.713   4.580   3.341
36958W        W 5363  39.903  29.027   3.699
36959W        W 5364  15.816  18.288   1.937
36960W        W 5365  12.207  40.043   0.320
36961W        W 5366  40.701  41.285   2.585
36962W        W 5367  43.328   7.198   1.871
36963W        W 5368  12.801  39.242   0.447
36964W        W 5369  31.655   9.627  11.970
36965W        W 5370  40.935  12.496  12.808
36966W        W 5371  44.305  28.866  10.589
36967W        W 5372   1.650  26.793  10.759
36968W        W 5373  29.604  37.329  11.692
36969W        W 5374   5.332  22.560   1.532
36970W        W 5375  44.662  11.571  10.956
36971W        W 5376  25.576   2.249   2.694
36972W        W 5377  22.218  24.739  12.014
36973W        W 5378   3.659  30.594  14.564
36974W        W 5379  27.091  12.120   2.254
36975W        W 5380  21.938  11.186  11.045
36976W        W 5381   7.428  13.856  11.987
36977W        W 5382  32.069  31.591  14.203
36978W        W 5383  16.131  12.640   2.320
36979W        W 5384  34.379  43.334   3.268
36980W        W 5385   6.871  22.637  13.812
36981W        W 5386  31.111  15.545   3.178
36982W        W 5387   0.261  10.578   4.335
36983W        W 5388  27.824   9.248  13.237
36984W        W 5389  20.183  35.363  11.974
36985W        W 5390  29.011  38.496   2.491
36986W        W 5391  27.460   2.245  10.659
36987W        W 5392  21.049  34.908  14.359
36988W        W 5393  33.620  42.910   0.227
36989W        W 5394  29.981  40.834  13.893
36990W        W 5395  20.666   3.051  14.638
36991W        W 5396  36.776  18.502   3.329
36992W        W 5397  39.771  22.875   0.419
36993W        W 5398  28.151  35.503  13.420
36994W        W 5399  19.232  39.458  11.954
36995W        W 5400  11.660  26.096  14.446
36996W        W 5401  42.887  12.536   3.985
36997W        W 5402  42.495  32.814  13.697
36998W        W 5403   2.438  30.718  12.947
36999W        W 5404  18.187  34.985   3.147
37000W        W 5405  11.074  34.610   2.135
37001W        W 5406  27.572   3.753  12.489
37002W        W 5407  20.594   7.793  12.750
37003W        W 5408  28.724  27.554  13.323
37004W        W 5409  23.009  32.643   0.907
37005W        W 5410  21.764  17.066  11.259
37006W        W 5411  26.024   0.791  14.316
37007W        W 5412  27.031  13.576  11.990
37008W        W 5413  32.994  44.723  14.904
37009W        W 5414  36.020  28.223   0.005
37010W        W 5415  18.113  38.608   3.758
37011W        W 5416  12.625   7.115   3.674
37012W        W 5417   6.121  17.276   1.216
37013W        W 5418  26.643  37.676   1.336
37014W        W 5419  43.771  24.469  12.124
37015W        W 5420   8.718   8.994  11.875
37016W        W 5421  34.575  19.963   2.225
37017W        W 5422  34.544  44.252   2.694
37018W        W 5423   6.142  35.433  10.702
37019W        W 5424  31.606  26.593   3.228
37020W        W 5425   4.442  44.362   0.892
37021W        W 5426  25.991  34.870   4.695
37022W        W 5427   2.332  11.326  11.116
37023W        W 5428  42.694   5.955   0.162
37024W        W 5429  32.559  43.047  14.446
37025W        W 5430  40.032  44.044  12.503
37026W        W 5431   6.085  15.367  12.505
37027W        W 5432   1.088  26.479  11.198
37028W        W 5433  16.849   4.957  13.403
37029W        W 5434   3.977  40.792  14.911
37030W        W 5435  37.415   2.248  14.435
37031W        W 5436   2.764  22.260  13.409
37032W        W 5437   1.042  41.869   3.059
37033W        W 5438  27.796   4.773   2.733
37034W        W 5439  10.759  41.868  14.813
37035W        W 5440  22.207  44.771  12.657
37036W        W 5441  32.876  16.294  11.047
37037W        W 5442  18.319   0.704  11.079
37038W        W 5443  38.938  22.281   4.003
37039W        W 5444  39.416  32.558   1.752
37040W        W 5445  19.484  18.649   2.356
37041W        W 5446  10.746  11.814   0.832
37042W        W 5447   0.549  38.364   4.510
37043W        W 5448  13.303  34.675   0.785
37044W        W 5449  11.471  15.832  13.211
37045W        W 5450  30.610  38.946   3.389
37046W        W 5451  26.004  30.308   0.957
37047W        W 5452   4.729  14.900  11.047
37048W        W 5453  40.743  22.009  11.478
37049W        W 5454  23.735  39.966  12.923
37050W        W 5455  11.661  34.679  12.917
37051W        W 5456  41.228  24.259   1.413
37052W        W 5457  20.018  34.528   2.145
37053W        W 5458  27.268  44.561  14.849
37054W        W 5459   0.427  17.568  11.549
37055W        W 5460  24.032  26.178  13.433
37056W        W 5461  20.169  25.310   1.739
37057W        W 5462  22.661  15.254   3.137
37058W        W 5463   3.552  29.830  12.562
37059W        W 5464  29.076  34.480   4.213
37060W        W 5465  26.562  30.885   3.177
37061W        W 5466  28.063  21.974   1.072
37062W        W 5467  30.537  42.521   1.825
37063W        W 5468  32.251   3.061   3.196
37064W        W 5469  22.268  12.890   1.198
37065W        W 5470  15.199   0.843  14.839
37066W        W 5471  42.591  18.230  10.692
37067W        W 5472  32.537  31.018  13.788
37068W        W 5473  17.705  36.601   0.728
37069W        W 5474  24.550  28.603  12.553
37070W        W 5475  25.108  44.321  14.085
37071W        W 5476  29.927  38.510  14.249
37072W        W 5477  36.519  34.349  13.009
37073W        W 5478   0.244  20.787  14.352
37074W        W 5479  33.373  34.477  10.113
37075W        W 5480  42.038  13.772   1.920
37076W        W 5481  33.739  24.844   2.565
37077W        W 5482   4.526  20.734  11.436
37078W        W 5483   0.650  38.086  14.714
37079W        W 5484  10.419  26.228  10.069
37080W        W 5485  34.161  38.995  12.637
37081W        W 5486  18.704  17.172   0.274
37082W        W 5487  33.673  44.890  11.626
37083W        W 5488  19.324  32.637   3.515
37084W        W 5489  29.470   7.189   0.946
37085W        W 5490  23.999  41.304   4.185
37086W        W 5491  23.466  13.341   0.837
37087W        W 5492  12.777  32.469  10.541
37088W        W 5493  39.275   0.431   3.067
37089W        W 5494  10.471  31.192   1.687
37090W        W 5495   1.844   0.602   3.758
37091W        W 5496  26.673  42.521   2.652
37092W        W 5497   7.403   1.861  13.728
37093W        W 5498  29.203  15.849  11.186
37094W        W 5499   8.514   9.215   1.799
37095W        W 5500  43.454   2.328  12.023
37096W        W 5501  33.198   6.735  14.796
37097W        W 5502  38.222  23.128   2.820
37098W        W 5503   8.720  14.905  12.706
37099W        W 5504  30.658  38.876   3.888
37100W        W 5505  14.811  25.819   3.237
37101W        W 5506  33.580  44.803  13.463
37102W        W 5507   0.705  37.373   1.366
37103W        W 5508   5.451  26.922  13.330
37104W        W 5509  13.338  33.205  12.369
37105W        W 5510  38.507  39.453   3.628
37106W        W 5511  14.269  28.981   1.176
37107W        W 5512  17.614  16.997  14.425
37108W        W 5513   3.907  24.032  10.597
37109W        W 5514  41.770   0.842  10.847
37110W        W 5515  28.963  34.660   0.401
37111W        W 5516  34.789  29.643   2.016
37112W        W 5517  32.670  27.615   4.224
37113W        W 5518  38.107  20.089   0.783
37114W        W 5519  42.844  37.524   4.068
37115W        W 5520  25.568  27.907  11.233
37116W        W 5521  29.887   9.715   3.295
37117W        W 5522  36.890  25.737  12.076
37118W        W 5523  23.735   3.995  13.601
37119W        W 5524  15.307   1.944  10.234
37120W        W 5525  25.001  43.403   4.539
37121W        W 5526  38.115  40.548   4.581
37122W        W 5527  24.970  39.800   2.695
37123W        W 5528  43.345  19.737   2.200
37124W        W 5529  29.179  39.349  11.826
37125W        W 5530  40.721  24.068   1.363
37126W        W 5531  39.419  41.318  14.959
37127W        W 5532  36.501  41.528  14.244
37128W        W 5533  23.301  32.000   3.264
37129W        W 5534  16.709  27.138   1.883
37130W        W 5535  34.408  12.839  10.702
37131W        W 5536  21.232  29.230  13.860
37132W        W 5537  16.640  24.650   0.313
37133W        W 5538  20.168  18.670  13.043
37134W        W 5539  22.232  10.120  11.968
37135W        W 5540   9.443  20.410   1.390
37136W        W 5541  20.232  17.510   0.761
37137W        W 5542  18.336  19.313  13.037
37138W        W 5543  11.850  39.884   1.406
37139W        W 5544  19.317  30.011  12.925
37140W        W 5545  20.989  24.691   0.267
37141W        W 5546  30.889  43.066  11.484
37142W        W 5547  10.121   4.816  13.488
37143W        W 5548  11.003  41.414  10.707
37144W        W 5549  37.885  39.948   1.391
37145W        W 5550  24.398  21.397   0.817
37146W        W 5551   2.309  20.104   0.888
37147W        W 5552  30.226   8.259   2.595
37148W        W 5553  35.269  20.277  13.115
37149W        W 5554   7.832  38.595  12.940
37150W        W 5555  14.532  39.100  12.390
37151W        W 5556  16.416  29.984  11.421
37152W        W 5557  40.871   6.768  11.029
37153W        W 5558  32.762   7.184   1.704
37154W        W 5559  26.414   0.583  13.441
37155W        W 5560  21.134  28.615  10.950
37156W        W 5561  27.686  29.558   2.299
37157W        W 5562  26.778   6.388   4.120
37158W        W 5563  14.216   7.164   1.156
37159W        W 5564  23.469  20.729   3.352
37160W        W 5565  22.134  44.682  13.161
37161W        W 5566  39.726   8.763  12.035
37162W        W 5567  11.248  35.334  11.389
37163W        W 5568  26.323   4.977  14.862
37164W        W 5569  26.009  18.121  14.983
37165W        W 5570  40.240  14.533   3.717
37166W        W 5571  35.920  36.592   3.720
37167W        W 5572  14.809   4.329  14.873
37168W        W 5573  21.757   8.277  13.883
37169W        W 5574  17.353  14.133  10.687
37170W        W 5575  22.598  29.403   2.820
37171W        W 5576  38.491  24.932   2.307
37172W        W 5577   5.849  25.906  11.211
37173W        W 5578  26.241  38.892  14.080
37174W        W 5579  15.732   5.228  12.385
37175W        W 5580  44.598  31.560  11.004
37176W        W 5581  32.969  16.857   3.814
37177W        W 5582  37.056  24.218  11.865
37178W        W 5583  33.836  43.826  14.533
37179W        W 5584  39.980  20.410  12.484
37180W        W 5585  13.357   5.775  14.758
37181W        W 5586   3.699  22.136   2.237
37182W        W 5587  12.920  16.425  11.757
37183W        W 5588  19.501  17.811   4.189
37184W        W 5589  29.406  10.785   1.413
37185W        W 5590  16.250   8.191  13.750
37186W        W 5591  34.944   9.730   0.695
37187W        W 5592  17.855  26.049   1.315
37188W        W 5593  24.728  40.413   1.987
37189W        W 5594  36.555   3.521  12.437
37190W        W 5595   0.237  39.879   2.722
37191W        W 5596  28.538  28.266  12.400
37192W        W 5597  44.986   6.439   2.227
37193W        W 5598  43.329  38.947   0.439
37194W        W 5599  41.545  18.575  12.868
37195W        W 5600  35.015  33.214  11.154
37196W        W 5601   9.811  36.911   4.858
37197W        W 5602  12.802   0.919   2.850
37198W        W 5603   3.847  18.587   0.426
37199W        W 5604   4.459   9.675   0.323
37200W        W 5605   9.835   5.347  14.844
37201W        W 5606   1.754   6.122  12.414
37202W        W 5607   4.838   1.720   1.332
37203W        W 5608  40.282  17.601  12.999
37204W        W 5609  34.336  13.350   2.726
37205W        W 5610  16.083  28.715   1.355
37206W        W 5611  24.565  39.897  11.185
37207W        W 5612  41.525  17.292   3.766
37208W        W 5613  23.573  37.086   2.392
37209W        W 5614  39.860  23.983  12.619
37210W        W 5615  37.978  30.527  10.800
37211W        W 5616  31.745  35.283   2.295
37212W        W 5617  10.299  16.123   4.180
37213W        W 5618   0.887  43.450   3.688
37214W        W 5619  20.534  35.888   3.709
37215W        W 5620  11.102  18.121  14.496
37216W        W 5621  19.870  21.307  13.856
37217W        W 5622  38.497   8.215   0.490
37218W        W 5623  10.658  16.139  14.293
37219W        W 5624  42.810   7.864   1.261
37220W        W 5625   9.119  33.963   3.254
37221W        W 5626  37.042  12.811   2.721
37222W        W 5627  11.804  44.914  14.281
37223W        W 5628  40.272  23.036   0.452
37224W        W 5629   2.867  16.801   2.207
37225W        W 5630  29.671   1.183  12.941
37226W        W 5631   2.698  11.502  11.741
37227W        W 5632  23.562  14.170   1.818
37228W        W 5633   6.196  42.394   2.297
37229W        W 5634   7.642  18.567  12.045
37230W        W 5635  34.445  26.746  12.489
37231W        W 5636  22.557  15.713  12.471
37232W        W 5637  34.976  39.911  14.942
37233W        W 5638   8.663  39.422   4.090
37234W        W 5639  21.092   7.735   1.453
37235W        W 5640  18.012  19.795   4.048
37236W        W 5641  27.649  34.103  14.503
37237W        W 5642  22.826  30.398  10.503
37238W        W 5643  38.980  39.408  14.458
37239W        W 5644  15.248   7.151   0.978
37240W        W 5645   4.569  18.059  13.660
37241W        W 5646  31.834   3.566   5.108
37242W        W 5647  23.596  32.129  11.449
37243W        W 5648   2.284   0.313   0.867
37244W        W 5649  43.240  17.526  11.980
37245W        W 5650  21.177  25.205   4.270
37246W        W 5651  35.341  26.669  12.162
37247W        W 5652  37.525  10.392   1.685
37248W        W 5653  37.085  23.186   0.580
37249W        W 5654   8.089   0.887  12.377
37250W        W 5655   7.977  17.109   2.880
37251W        W 5656  38.150  40.875   2.288
37252W        W 5657   2.059   7.339   3.691
37253W        W 5658  42.575  10.885   3.792
37254W        W 5659   5.712  21.156  13.560
37255W        W 5660  24.222  41.809  14.287
37256W        W 5661  22.219  24.546  10.596
37257W        W 5662  12.160  19.980   0.271
37258W        W 5663  12.148   9.525  14.554
37259W        W 5664  35.988  20.839  13.970
37260W        W 5665  30.366  12.795   4.246
37261W        W 5666  27.516  37.781   0.434
37262W        W 5667   0.029   7.393   0.445
37263W        W 5668  19.538  19.821  13.835
37264W        W 5669  30.585  11.142   1.797
37265W        W 5670  13.814  27.160   1.522
37266W        W 5671   5.714  27.883   2.709
37267W        W 5672  22.785  37.271  11.624
37268W        W 5673  16.786  21.909   3.165
37269W        W 5674  18.199   8.363  14.731
37270W        W 5675  31.780  19.726   2.786
37271W        W 5676  18.575  25.029  12.024
37272W        W 5677  18.045   3.305   3.792
37273W        W 5678  18.488  30.078  12.295
37274W        W 5679  23.822  10.680   0.921
37275W        W 5680  14.289   8.798   0.271
37276W        W 5681   2.980  43.552   1.887
37277W        W 5682  14.123  30.371   0.600
37278W        W 5683  38.855   9.850  13.620
37279W        W 5684  43.457   9.884  12.559
37280W        W 5685  16.810  42.461  10.629
37281W        W 5686   8.621  12.995   0.448
37282W        W 5687  26.517   4.133  11.594
37283W        W 5688  37.804  44.396   4.568
37284W        W 5689  34.831  38.003   1.753
37285W        W 5690  41.531   7.979  12.532
37286W        W 5691  19.944   9.664   0.926
37287W        W 5692  40.526  31.051  13.960
37288W        W 5693   6.877  26.191  12.915
37289W        W 5694  29.425   2.455   2.352
37290W        W 5695  43.743  28.604  13.793
37291W        W 5696  31.075  27.019   0.152
37292W        W 5697  42.563  27.592   4.548
37293W        W 5698  17.012  33.070  11.741
37294W        W 5699  26.645   0.320  13.959
37295W        W 5700  40.761  42.259  13.969
37296W        W 5701  26.673  15.593  11.122
37297W        W 5702  14.427  11.059  13.235
37298W        W 5703  35.168   3.811  13.559
37299W        W 5704  37.883   6.696   3.643
37300W        W 5705  21.245  13.859  14.048
37301W        W 5706  28.826  13.135  14.014
37302W        W 5707  37.639  22.436   2.023
37303W        W 5708  21.348  11.366   3.730
37304W        W 5709  27.544   4.181  11.097
37305W        W 5710   0.250  11.033   2.310
37306W        W 5711  19.571  44.045   2.406
37307W        W 5712  17.068  17.115  10.359
37308W        W 5713  22.099   3.597  12.800
37309W        W 5714   3.947  14.024  12.492
37310W        W 5715  23.987  11.669  10.514
37311W        W 5716  16.089  35.497  10.036
37312W        W 5717   1.272   4.572  14.917
37313W        W 5718  16.779   9.168   1.748
37314W        W 5719  42.959  43.497  10.949
37315W        W 5720  16.922  37.342  14.257
37316W        W 5721   1.473  14.759  13.389
37317W        W 5722  40.324  16.876  11.603
37318W        W 5723  37.439  32.676  10.355
37319W        W 5724   8.786  32.079   2.571
37320W        W 5725  35.384  39.690  10.433
37321W        W 5726   8.669   0.213  11.482
37322W        W 5727  27.155  26.141  14.295
37323W        W 5728  43.045  30.130  13.830
37324W        W 5729  38.583  30.732  11.563
37325W        W 5730  29.962   9.136  10.655
37326W        W 5731  10.751   0.304  11.455
37327W        W 5732  30.948   2.433  13.524
37328W        W 5733  36.547  36.731   1.550
37329W        W 5734   9.676  12.329  10.672
37330W        W 5735  10.745  12.686  11.284
37331W        W 5736  33.846   8.652   0.872
37332W        W 5737  12.795  40.305  12.676
37333W        W 5738  18.210  20.324   4.530
37334W        W 5739  27.473  39.474   0.246
37335W        W 5740  34.427  13.103  11.889
37336W        W 5741  40.807  28.743   1.943
37337W        W 5742   7.156  21.011   1.310
37338W        W 5743  35.608  20.522  13.795
37339W        W 5744  23.722  33.532  12.018
37340W        W 5745   6.814  23.880   2.172
37341W        W 5746  25.652  42.482   4.088
37342W        W 5747   3.809   3.914  10.333
37343W        W 5748  16.199  26.156  10.179
37344W        W 5749  41.449  37.335  14.360
37345W        W 5750  23.611  34.511   1.657
37346W        W 5751  21.179  10.640   0.260
37347W        W 5752   8.535  22.539   2.521
37348W        W 5753  38.327  26.213   3.716
37349W        W 5754  15.906   1.787   0.836
37350W        W 5755   7.683  27.528  13.353
37351W        W 5756   1.899   3.939   1.178
37352W        W 5757   6.779  35.547   4.257
37353W        W 5758  28.061  14.550  12.596
37354W        W 5759  38.967  33.900   0.790
37355W        W 5760  44.967   3.761  11.060
37356W        W 5761  38.336   5.154  12.109
37357W        W 5762  43.569   8.296  13.082
37358W        W 5763   8.974   8.152  12.742
37359W        W 5764  34.544  18.635  13.857
37360W        W 5765  37.777  31.935  13.832
37361W        W 5766   2.732   3.771   0.669
37362W        W 5767  19.752  12.394  13.646
37363W        W 5768  26.558  35.551   4.362
37364W        W 5769  40.473  36.132   2.703
37365W        W 5770  20.602  36.568  12.956
37366W        W 5771   3.683   1.008   1.708
37367W        W 5772  26.970   3.459   0.271
37368W        W 5773  29.706  31.167  11.996
37369W        W 5774  37.083  38.820  12.550
37370W        W 5775   9.184  38.819  11.073
37371W        W 5776  42.023  27.324  12.154
37372W        W 5777  17.064  26.835  10.149
37373W        W 5778  17.764   9.473   4.442
37374W        W 5779  25.241  13.576  11.556
37375W        W 5780  20.030  19.045   3.508
37376W        W 5781   9.227  36.840   0.215
37377W        W 5782  13.754  41.771  14.475
37378W        W 5783  33.550  30.417  11.908
37379W        W 5784  30.441  34.775   3.612
37380W        W 5785  27.615  14.333  13.575
37381W        W 5786  13.275  26.498   0.926
37382W        W 5787  39.435  41.397   2.816
37383W        W 5788   0.945  35.303  14.873
37384W        W 5789  26.111  32.613   0.096
37385W        W 5790   1.755  35.856  10.605
37386W        W 5791   6.745  41.914  11.079
37387W        W 5792  42.005  22.070  13.777
37388W        W 5793  22.154  33.642   0.242
37389W        W 5794  34.383  24.737  13.580
37390W        W 5795  34.680  35.364   2.960
37391W        W 5796  21.066  21.688  14.655
37392W        W 5797  25.886  40.415   4.323
37393W        W 5798  33.450   2.237  14.538
37394W        W 5799  20.566  42.751  14.074
37395W        W 5800  26.010  36.160  11.404
37396W        W 5801   1.333  24.700   3.708
37397W        W 5802  15.961  27.991   3.513
37398W        W 5803  14.051  38.020   2.251
37399W        W 5804   6.965  26.135   1.928
37400W        W 5805  29.070   7.342  10.720
37401W        W 5806  15.860   8.131  14.094
37402W        W 5807  26.705  25.071   4.622
37403W        W 5808  34.080  36.784  13.488
37404W        W 5809  44.830  43.157  12.012
37405W        W 5810  24.210   7.327   0.733
37406W        W 5811  40.278   5.439  13.703
37407W        W 5812  30.055  26.103   4.284
37408W        W 5813  25.793  35.051  14.295
37409W        W 5814  34.122  30.132   2.220
37410W        W 5815  15.638   4.390   5.101
37411W        W 5816  32.974  16.091  13.577
37412W        W 5817  30.987  14.078   4.234
37413W        W 5818  32.387  14.141  12.302
37414W        W 5819   0.179  41.754  11.236
37415W        W 5820  25.529  13.610  11.042
37416W        W 5821   5.661  34.865  12.695
37417W        W 5822   6.097  16.268   0.530
37418W        W 5823  30.331   9.983   3.315
37419W        W 5824   8.365   5.266  13.900
37420W        W 5825   8.225   0.272  12.573
37421W        W 5826   0.324   6.822   4.585
37422W        W 5827  12.598  28.928  12.099
37423W        W 5828  44.358  12.858  14.851
37424W        W 5829  25.976  27.207   1.217
37425W        W 5830  39.923  24.083   3.111
37426W        W 5831  16.289  42.446  11.980
37427W        W 5832   7.997  13.612   3.286
37428W        W 5833  37.132  25.170  14.719
37429W        W 5834   5.530  32.533   4.593
37430W        W 5835  33.328  40.484   0.286
37431W        W 5836   3.765  31.427   1.750
37432W        W 5837  29.658  21.682   0.331
37433W        W 5838   6.781  35.082  11.885
37434W        W 5839  21.095  14.810   2.007
37435W        W 5840   3.608  24.525  13.394
37436W        W 5841  43.532   0.894   1.996
37437W        W 5842   2.463  32.612   0.658
37438W        W 5843   3.124  22.081   2.248
37439W        W 5844  23.393  34.221  13.098
37440W        W 5845   3.459  38.604  14.357
37441W        W 5846  25.579   5.190  10.314
37442W        W 5847  14.016  19.245   2.442
37443W        W 5848  41.837   8.717  11.052
37444W        W 5849  30.642  34.442  12.481
37445W        W 5850  44.318   9.967   1.872
37446W        W 5851  25.523  41.801   0.852
37447W        W 5852  20.525  14.604   0.033
37448W        W 5853  17.978  20.318  13.746
37449W        W 5854   7.922   7.597   3.183
37450W        W 5855  17.945  11.731   1.521
37451W        W 5856  17.875   3.863  11.216
37452W        W 5857  24.515  11.612   2.230
37453W        W 5858   9.195  44.025   4.593
37454W        W 5859  28.112   4.436  13.036
37455W        W 5860  39.886   5.789   1.787
37456W        W 5861  29.691  35.551   4.587
37457W        W 5862  29.717  10.698   1.022
37458W        W 5863  13.308  11.285  14.402
37459W        W 5864  28.532  20.191   4.481
37460W        W 5865  21.567   2.619   1.969
37461W        W 5866  31.863  30.169   0.258
37462W        W 5867   5.271  27.187  14.181
37463W        W 5868  40.812  32.832  12.010
37464W        W 5869   7.002  43.550   1.309
37465W        W 5870  19.956  31.154   3.554
37466W        W 5871   5.794  13.687  10.709
37467W        W 5872  15.723  44.904  12.777
37468W        W 5873  29.028  37.729  13.930
37469W        W 5874  33.058  42.314  14.561
37470W        W 5875  33.134  22.138   1.921
37471W        W 5876  44.468   3.991   1.181
37472W        W 5877   8.076   4.870   1.856
37473W        W 5878   6.402  16.039   1.846
37474W        W 5879  30.461   8.360   1.926
37475W        W 5880  31.625  42.275   1.437
37476W        W 5881  29.898  35.034  13.243
37477W        W 5882  43.058  14.440  13.971
37478W        W 5883  24.908  38.901  11.706
37479W        W 5884   9.847  33.913   0.822
37480W        W 5885   7.487  17.014   3.066
37481W        W 5886  37.942   7.636   0.911
37482W        W 5887  19.486  14.852  12.186
37483W        W 5888  19.333   2.469   4.635
37484W        W 5889  27.071  15.113   1.837
37485W        W 5890  27.106  20.959  14.374
37486W        W 5891  28.473   9.434  10.844
37487W        W 5892  15.262  16.584   1.089
37488W        W 5893   5.311   1.996   3.102
37489W        W 5894   5.181  21.312   2.123
37490W        W 5895  22.299   7.104  14.815
37491W        W 5896   5.959  39.005  13.911
37492W        W 5897  39.838  19.698  14.496
37493W        W 5898  24.676  17.197   0.195
37494W        W 5899  43.348  27.459  14.332
37495W        W 5900  17.785  23.218   0.878
37496W        W 5901  44.473   7.399  12.575
37497W        W 5902  44.563  19.177  11.946
37498W        W 5903  13.112  14.234  12.483
37499W        W 5904  34.117  37.148   5.015
37500W        W 5905  39.767  31.486   1.715
37501W        W 5906  31.592  17.527  10.120
37502W        W 5907   1.272   2.313   0.891
37503W        W 5908  18.385   1.035   2.390
37504W        W 5909  32.053  36.087  11.663
37505W        W 5910  30.008   2.496  11.989
37506W        W 5911  32.484  27.492   3.764
37507W        W 5912  30.433  29.155  12.124
37508W        W 5913  32.031  41.063   2.407
37509W        W 5914   8.614  35.168   3.351
37510W        W 5915  11.930   3.359   3.434
37511W        W 5916  43.452   7.256   3.607
37512W        W 5917  22.832  34.463  13.407
37513W        W 5918   5.313  22.254  10.748
37514W        W 5919   0.869  21.823  13.352
37515W        W 5920   3.793   2.935  12.306
37516W        W 5921  21.846  17.307  13.589
37517W        W 5922  24.338  44.252  10.729
37518W        W 5923  35.295  11.230   1.456
37519W        W 5924  41.167  10.853   0.267
37520W        W 5925  34.019  31.521   2.294
37521W        W 5926   4.387  31.032  12.019
37522W        W 5927   3.232   1.005  12.624
37523W        W 5928  40.793  25.242  12.304
37524W        W 5929  23.023  20.757  10.805
37525W        W 5930  44.596   5.675   4.149
37526W        W 5931  11.713   1.408   0.946
37527W        W 5932   3.078   2.146   2.645
37528W        W 5933  23.356  41.370   3.410
37529W        W 5934  15.884  14.413   3.617
37530W        W 5935  29.007  12.081   4.621
37531W        W 5936   1.971  16.990  13.353
37532W        W 5937  16.334  20.429  13.369
37533W        W 5938  29.960  33.416   3.233
37534W        W 5939  44.462   5.665   0.406
37535W        W 5940  27.423   0.858   0.759
37536W        W 5941  28.582   4.488  12.822
37537W        W 5942  39.811  27.851   2.333
37538W        W 5943  18.146  16.150  11.524
37539W        W 5944   8.889   5.406  12.514
37540W        W 5945  22.947  16.368   3.190
37541W        W 5946  13.321  44.017  14.385
37542W        W 5947  28.094  39.136  14.551
37543W        W 5948  40.913   5.493   0.815
37544W        W 5949  13.187   8.594  11.285
37545W        W 5950  41.533  40.460   3.831
37546W        W 5951   0.839  44.555   5.197
37547W        W 5952  21.969  16.804  13.485
37548W        W 5953  44.627  14.388  13.170
37549W        W 5954  42.554  44.647  14.782
37550W        W 5955  31.073  42.119  13.808
37551W        W 5956  43.903  13.048  11.106
37552W        W 5957   3.974  22.292  13.004
37553W        W 5958  33.617  14.777   1.779
37554W        W 5959  10.879  30.848  13.851
37555W        W 5960  39.435  24.959   4.310
37556W        W 5961  16.107   0.220   2.683
37557W        W 5962  16.197  24.830   1.375
37558W        W 5963  41.868  24.285   3.724
37559W        W 5964   3.347   1.496   3.351
37560W        W 5965  18.324  15.238  11.444
37561W        W 5966  29.585  25.191  10.569
37562W        W 5967  19.254  16.315   4.126
37563W        W 5968   5.676  27.005  14.464
37564W        W 5969  27.962  14.117   4.536
37565W        W 5970  30.069  18.237  13.129
37566W        W 5971  13.405  23.540  13.861
37567W        W 5972  33.209  28.131   3.474
37568W        W 5973  32.914  39.741   2.622
37569W        W 5974   3.017   9.829  11.506
37570W        W 5975  11.746  32.378  13.725
37571W        W 5976   9.946  12.791   0.900
37572W        W 5977   4.593  42.844  14.349
37573W        W 5978  17.679  12.909  13.362
37574W        W 5979  10.460  43.714   2.000
37575W        W 5980  25.488   8.371  11.681
37576W        W 5981  40.893   1.658  10.702
37577W        W 5982   7.630  23.031   4.225
37578W        W 5983   3.545   0.309  12.915
37579W        W 5984  36.314  31.122   3.747
37580W        W 5985  41.970  44.490   4.121
37581W        W 5986  29.595  19.997  11.179
37582W        W 5987  41.442  19.662   4.541
37583W        W 5988  16.128  39.094   3.666
37584W        W 5989  23.132  42.863  14.721
37585W        W 5990  19.655  21.569  11.071
37586W        W 5991  31.978  29.615  10.629
37587W        W 5992   5.667  43.814  11.304
37588W        W 5993  20.221  37.330  10.747
37589W        W 5994  23.250   7.263   1.830
37590W        W 5995  39.041   9.335  11.990
37591W        W 5996  22.443   0.955  11.519
37592W        W 5997  43.325  39.435   1.418
37593W        W 5998   1.708  16.757   1.416
37594W        W 5999  36.442  37.937   2.725
37595W        W 6000  16.604  17.766   4.719
37596W        W 6001  28.664  36.008  13.000
37597W        W 6002  36.633  34.673   4.150
37598W        W 6003   8.209  38.255   1.529
37599W        W 6004  34.847  18.240   2.349
37600W        W 6005   1.126  14.369   1.331
37601W        W 6006  23.232   3.706  12.367
37602W        W 6007   5.283  27.084   0.225
37603W        W 6008  34.886  25.352   0.169
37604W        W 6009  12.687   8.411  13.094
37605W        W 6010  15.064   5.316   2.812
37606W        W 6011  32.048  12.854  12.121
37607W        W 6012   6.715  37.829   1.731
37608W        W 6013   9.221  16.623  12.959
37609W        W 6014  36.321   7.227  12.019
37610W        W 6015  36.869   5.400   0.433
37611W        W 6016   9.963  27.937   1.211
37612W        W 6017   4.668  40.245   3.762
37613W        W 6018  31.885  15.852  12.072
37614W        W 6019  21.104  23.810  12.389
37615W        W 6020   8.271  31.255   3.258
37616W        W 6021  14.142  34.553  11.157
37617W        W 6022   2.103  29.026  10.330
37618W        W 6023  41.214  44.830   4.862
37619W        W 6024  40.445  37.496   2.322
37620W        W 6025  13.316  16.575  14.915
37621W        W 6026   0.756  13.367   4.903
37622W        W 6027   0.400  20.312  14.387
37623W        W 6028  37.507  21.588  12.853
37624W        W 6029  26.476  24.980   4.115
37625W        W 6030  32.083  32.553  12.041
37626W        W 6031  23.147  41.975  13.801
37627W        W 6032  42.578  10.439   1.287
37628W        W 6033  43.010  34.350   1.514
37629W        W 6034  20.113  19.159  10.906
37630W        W 6035   4.713   9.300   1.366
37631W        W 6036  16.867  15.503   2.353
37632W        W 6037  28.328  20.817  11.201
37633W        W 6038   7.185  25.935   2.386
37634W        W 6039   3.478  41.763  11.097
37635W        W 6040  26.885   0.784  13.483
37636W        W 6041  40.428  36.063  12.367
37637W        W 6042   1.057  27.637  14.709
37638W        W 6043   3.895   4.745  10.897
37639W        W 6044  24.405  27.411  13.002
37640W        W 6045   4.930  10.207   1.795
37641W        W 6046  15.495  28.135   4.183
37642W        W 6047  33.367  44.241   0.405
37643W        W 6048  24.499  26.660  12.553
37644W        W 6049  24.930  42.530  13.882
37645W        W 6050  44.523  13.744  14.781
37646W        W 6051  26.626  24.443   2.710
37647W        W 6052  35.992  37.698  11.118
37648W        W 6053  25.151   5.468  13.473
37649W        W 6054  15.757  15.151  10.424
37650W        W 6055  27.213  41.399   2.849
37651W        W 6056  40.013  11.197   2.576
37652W        W 6057  31.449  19.150  14.603
37653W        W 6058  39.073  23.520   3.331
37654W        W 6059  17.628  25.004  13.263
37655W        W 6060  41.414  29.907   0.756
37656W        W 6061  17.628  12.066   1.246
37657W        W 6062   8.139  31.047  14.058
37658W        W 6063  35.452   2.389   3.224
37659W        W 6064  31.796   0.706  13.961
37660W        W 6065  14.437   6.877  13.078
37661W        W 6066  44.005  26.194   3.426
37662W        W 6067   9.815  14.269   1.898
37663W        W 6068   3.026  35.605   1.386
37664W        W 6069  20.221   8.432  11.215
37665W        W 6070  43.219   6.805  11.678
37666W        W 6071  15.173  32.267  10.361
37667W        W 6072  41.601  23.348  11.882
37668W        W 6073  17.257  16.306  12.024
37669W        W 6074  38.381   1.933   1.204
37670W        W 6075   5.289  10.759   1.275
37671W        W 6076  14.173  33.967  13.516
37672W        W 6077  19.480   6.413   3.140
37673W        W 6078  38.073   6.220   0.933
37674W        W 6079  19.079  19.546   2.373
37675W        W 6080  27.221   4.696  13.824
37676W        W 6081   0.213  37.299  11.598
37677W        W 6082   9.746   7.417   3.265
37678W        W 6083  37.499  23.895  14.312
37679W        W 6084  13.861  33.319   1.867
37680W        W 6085  27.532   5.224   0.069
37681W        W 6086   5.358   0.244   3.620
37682W        W 6087  24.948  18.587   3.669
37683W        W 6088  20.547  39.543   1.979
37684W        W 6089  14.157  23.593  13.281
37685W        W 6090  24.780   3.419   3.789
37686W        W 6091  29.715  16.181   0.090
37687W        W 6092  31.530  42.022   9.654
37688W        W 6093  41.544  37.316   4.486
37689W        W 6094  19.583  25.107  11.964
37690W        W 6095  44.825  15.174   4.161
37691W        W 6096  28.874  21.507  14.871
37692W        W 6097  15.022  24.247  12.406
37693W        W 6098  11.290  18.682  10.215
37694W        W 6099  17.171  26.659   1.454
37695W        W 6100  12.989  17.040   3.101
37696W        W 6101  34.969  42.831   3.730
37697W        W 6102  27.001  23.455  11.611
37698W        W 6103  41.968  33.995  14.597
37699W        W 6104  41.404  32.891   0.954
37700W        W 6105  32.850  14.245  13.571
37701W        W 6106  43.446  12.234  14.097
37702W        W 6107  10.381  37.713  11.984
37703W        W 6108  25.061  44.710  14.440
37704W        W 6109   3.688  35.488  14.942
37705W        W 6110  24.682  34.530  13.835
37706W        W 6111  33.485  23.914  11.060
37707W        W 6112  35.343  12.590   4.513
37708W        W 6113  18.047  30.109  12.927
37709W        W 6114  25.170  19.710  14.374
37710W        W 6115  25.022  33.239   4.507
37711W        W 6116  12.708  27.632  13.400
37712W        W 6117  17.013  24.309   4.191
37713W        W 6118  27.462   2.649   4.447
37714W        W 6119  23.252  17.480  12.075
37715W        W 6120   7.256  11.310  13.260
37716W        W 6121  33.046  30.517   4.215
37717W        W 6122  28.140  11.638  11.606
37718W        W 6123  15.061  15.303  13.172
37719W        W 6124  36.596  35.893   3.608
37720W        W 6125  23.209   4.967   0.293
37721W        W 6126   1.339   7.371   2.649
37722W        W 6127  24.561  21.626   4.230
37723W        W 6128  10.307  34.638   3.091
37724W        W 6129  37.786  11.156  13.577
37725W        W 6130  37.294  17.576  12.213
37726W        W 6131  11.671  22.566   2.887
37727W        W 6132  36.414  39.354  12.107
37728W        W 6133  40.006  41.939   3.440
37729W        W 6134  16.695  35.582   3.717
37730W        W 6135  16.126  33.776   3.526
37731W        W 6136  10.062  36.570   3.244
37732W        W 6137  33.447  18.882   5.173
37733W        W 6138  33.965  12.080   2.718
37734W        W 6139  32.010  35.247   4.054
37735W        W 6140  22.586  17.572  10.417
37736W        W 6141  11.658  15.976  12.614
37737W        W 6142  20.825  26.278   4.569
37738W        W 6143  41.439   9.890   3.203
37739W        W 6144  19.586  21.649  12.067
37740W        W 6145   6.936  40.325   2.646
37741W        W 6146   7.162  44.893   1.464
37742W        W 6147  14.155  40.779  12.853
37743W        W 6148  29.958  30.902  14.966
37744W        W 6149  40.005  33.786  13.523
37745W        W 6150  13.694  22.714   0.837
37746W        W 6151  33.062  21.675   3.358
37747W        W 6152  21.535   5.911  13.456
37748W        W 6153   2.906   9.644   3.095
37749W        W 6154  23.095  31.801  14.362
37750W        W 6155  24.708  37.275  12.227
37751W        W 6156   2.253   9.784   0.319
37752W        W 6157  21.078  28.825   2.289
37753W        W 6158  42.894  36.768  13.038
37754W        W 6159  15.100  28.669  10.670
37755W        W 6160  32.875  26.745   0.363
37756W        W 6161  17.396   5.883  10.690
37757W        W 6162   0.308  39.297  13.421
37758W        W 6163  36.221  40.849  12.105
37759W        W 6164  25.534   7.291  14.761
37760W        W 6165  29.948  34.542  14.420
37761W        W 6166  28.428  43.410   4.093
37762W        W 6167  40.895  24.187  14.905
37763W        W 6168  13.321  14.574  12.069
37764W        W 6169  42.344  38.568   4.215
37765W        W 6170  27.755  20.601   2.869
37766W        W 6171  44.346   5.672  12.458
37767W        W 6172   2.829  10.688  10.652
37768W        W 6173  24.423  20.357   3.620
37769W        W 6174  28.935  27.959  13.604
37770W        W 6175  29.381  42.273  11.217
37771W        W 6176  36.502  42.143  11.560
37772W        W 6177  17.789   9.407   2.872
37773W        W 6178  33.122  37.737   0.251
37774W        W 6179  37.829  27.106   2.740
37775W        W 6180  13.679  15.596   2.625
37776W        W 6181   4.433  22.278  11.518
37777W        W 6182   5.717  31.067   1.789
37778W        W 6183  41.376   4.784  13.068
37779W        W 6184  39.294  34.092   3.286
37780W        W 6185  20.804  38.759  11.444
37781W        W 6186  11.959  27.556  12.604
37782W        W 6187  30.616   8.420  10.663
37783W        W 6188  25.472  42.502  12.050
37784W        W 6189  38.808   5.790  14.052
37785W        W 6190  42.764   8.115   4.937
37786W        W 6191  31.967  27.052  11.861
37787W        W 6192   4.759  24.672   1.924
37788W        W 6193  40.043  40.104   0.213
37789W        W 6194   2.813  41.572   0.536
37790W        W 6195   7.769  14.920  11.553
37791W        W 6196  32.958  20.852   0.772
37792W        W 6197  11.357  11.966  11.059
37793W        W 6198   7.294  15.100  10.651
37794W        W 6199   7.235  29.389   1.862
37795W        W 6200  26.963  40.388  10.971
37796W        W 6201  41.406  33.891  13.839
37797W        W 6202  37.293  39.354   0.710
37798W        W 6203  15.279  24.181  14.837
37799W        W 6204   7.754   3.927  14.890
37800W        W 6205  23.549  21.044   4.967
37801W        W 6206  44.659  43.942   4.945
37802W        W 6207  40.285   2.649   1.333
37803W        W 6208  33.984   2.932  13.416
37804W        W 6209  19.653  40.478   0.462
37805W        W 6210  42.809   5.279  13.807
37806W        W 6211  15.898  12.979   1.384
37807W        W 6212  26.062  22.165   0.185
37808W        W 6213  20.502  23.939   3.600
37809W        W 6214  40.918  36.265  11.078
37810W        W 6215   6.815  19.463   3.660
37811W        W 6216  37.923  24.381   1.091
37812W        W 6217  31.653   8.681  11.952
37813W        W 6218   0.681  39.398   1.107
37814W        W 6219  18.234  27.915  14.855
37815W        W 6220   1.419   2.798   2.284
37816W        W 6221  11.176  20.532  12.552
37817W        W 6222  31.256  11.153  13.602
37818W        W 6223  32.015  38.596  14.339
37819W        W 6224  10.703   7.203  13.374
37820W        W 6225  34.156  40.764  12.924
37821W        W 6226  20.501   1.786   3.587
37822W        W 6227  22.453  33.756  14.851
37823W        W 6228   5.244  16.279  14.688
37824W        W 6229  24.158  31.412   3.612
37825W        W 6230  21.077  39.598  10.380
37826W        W 6231  15.623   5.269  12.929
37827W        W 6232   2.772   0.307  14.536
37828W        W 6233   6.902  37.530  12.918
37829W        W 6234  15.363   0.496  10.749
37830W        W 6235  41.329   4.183   5.574
37831W        W 6236  11.802   7.291   0.693
37832W        W 6237  33.616  33.672   2.739
37833W        W 6238   8.575  20.041  13.543
37834W        W 6239  32.538  35.860  10.590
37835W        W 6240   4.857  35.243  11.923
37836W        W 6241  37.845  14.578  10.807
37837W        W 6242  25.232  21.298  13.446
37838W        W 6243   4.742   3.746   3.153
37839W        W 6244  38.656  33.078  12.524
37840W        W 6245  41.553  15.348  12.038
37841W        W 6246  43.312  30.361   4.848
37842W        W 6247  19.837   8.729  12.152
37843W        W 6248  33.867  15.758   2.590
37844W        W 6249   9.191   6.174   0.722
37845W        W 6250  27.422   9.173  11.492
37846W        W 6251  13.182   5.512   0.439
37847W        W 6252  27.094  31.186   1.998
37848W        W 6253  40.614  15.168  12.887
37849W        W 6254  33.891  17.589  14.723
37850W        W 6255  32.067  28.860   1.470
37851W        W 6256   6.238   0.868   1.596
37852W        W 6257  43.459   8.396   3.147
37853W        W 6258  35.168  22.779   4.113
37854W        W 6259  34.434  35.722  13.933
37855W        W 6260   8.306  24.868   0.665
37856W        W 6261   7.393  26.453  14.269
37857W        W 6262  34.073  33.904  15.000
37858W        W 6263  19.024   7.207   4.086
37859W        W 6264  24.868  23.876  12.000
37860W        W 6265  33.094   4.853  13.684
37861W        W 6266  32.460  15.009  11.360
37862W        W 6267  32.072  10.138   1.438
37863W        W 6268  32.138   5.912   0.168
37864W        W 6269  29.081   0.875  10.695
37865W        W 6270  26.991  34.341  14.516
37866W        W 6271  44.815  42.448   0.807
37867W        W 6272   3.940  13.255   4.583
37868W        W 6273  18.752  31.641  11.757
37869W        W 6274  44.881  15.458   1.570
37870W        W 6275  32.448   6.306  14.837
37871W        W 6276  26.463  23.957   1.953
37872W        W 6277  19.183   5.245  13.557
37873W        W 6278  36.540  28.247  13.406
37874W        W 6279  31.771  25.464   4.239
37875W        W 6280  20.760   3.948  14.502
37876W        W 6281  39.303   6.367  11.011
37877W        W 6282  24.529  14.323   1.363
37878W        W 6283  41.318  37.531  11.193
37879W        W 6284  36.390  21.309  12.060
37880W        W 6285  11.167  42.487  11.595
37881W        W 6286  23.016  14.153  12.530
37882W        W 6287   0.218  31.854   3.278
37883W        W 6288   8.581  44.653   5.141
37884W        W 6289  31.806   0.626  10.575
37885W        W 6290   0.996  27.349   1.401
37886W        W 6291  22.312  37.511  11.582
37887W        W 6292  15.249  26.411  11.787
37888W        W 6293  10.360   5.798   3.252
37889W        W 6294  42.556  22.448  14.381
37890W        W 6295   5.474   8.473   4.925
37891W        W 6296  34.622  26.639  14.963
37892W        W 6297  43.678  19.070   4.721
37893W        W 6298  36.447   3.369   2.815
37894W        W 6299  37.721  21.969  11.596
37895W        W 6300  26.622  12.753  12.327
37896W        W 6301  14.896  38.707   4.186
37897W        W 6302   4.433   1.905   3.580
37898W        W 6303   6.983  14.422  11.036
37899W        W 6304  30.002  34.125  13.050
37900W        W 6305  15.117   7.399  12.615
37901W        W 6306   5.284  13.370  13.065
37902W        W 6307  16.554  17.665   1.701
37903W        W 6308  11.249  10.607   0.904
37904W        W 6309  30.529  26.259  10.707
37905W        W 6310  14.170  21.027   3.780
37906W        W 6311  22.455  21.659  14.550
37907W        W 6312  40.753   6.760  12.087
37908W        W 6313   7.701  29.408   2.795
37909W        W 6314  29.211  43.917   3.197
37910W        W 6315  24.557  38.976  13.742
37911W        W 6316  13.776  41.454  14.949
37912W        W 6317   7.310   6.040   3.315
37913W        W 6318  12.640   7.809  14.940
37914W        W 6319  39.891  19.304  12.856
37915W        W 6320   7.101   2.077   3.108
37916W        W 6321   1.923  40.368   2.193
37917W        W 6322  21.716  40.386   3.377
37918W        W 6323  33.837  18.623  11.587
37919W        W 6324   9.791  25.028   0.671
37920W        W 6325  20.632   7.726   0.679
37921W        W 6326  26.270  38.400   2.301
37922W        W 6327  23.082   2.833  10.440
37923W        W 6328  40.044  30.178  10.748
37924W        W 6329  44.839  44.045   1.040
37925W        W 6330  26.226  33.597   0.279
37926W        W 6331   9.351  24.697   4.154
37927W        W 6332  29.690  39.336  11.624
37928W        W 6333  42.292  14.256   3.980
37929W        W 6334  35.464  19.808  13.224
37930W        W 6335  25.973  16.023   2.386
37931W        W 6336  21.474  30.035   0.373
37932W        W 6337   4.178  21.470   3.707
37933W        W 6338  14.577  16.955  13.496
37934W        W 6339  11.517  28.055   5.098
37935W        W 6340  26.304  39.250   0.874
37936W        W 6341   7.172  16.737   0.858
37937W        W 6342  27.204  21.310  12.385
37938W        W 6343  43.689   0.443  11.536
37939W        W 6344  24.564  16.097  14.687
37940W        W 6345  37.098  36.647   3.219
37941W        W 6346  29.300  37.365   5.048
37942W        W 6347  43.686   0.814   2.875
37943W        W 6348  14.244  32.693  11.594
37944W        W 6349  31.966   2.844   2.131
37945W        W 6350  34.929  26.929   4.034
37946W        W 6351  27.953  20.738   4.065
37947W        W 6352  26.451  10.328  14.775
37948W        W 6353  35.840  17.662  10.906
37949W        W 6354   8.584  35.069  12.135
37950W        W 6355  23.233   0.989  13.791
37951W        W 6356  15.794   1.915  11.480
37952W        W 6357  42.534  35.477  14.928
37953W        W 6358  10.707  39.452   1.201
37954W        W 6359  31.396  32.036   4.316
37955W        W 6360   0.059  19.999   2.739
37956W        W 6361  43.428  44.816   0.031
37957W        W 6362  17.159   0.504   4.362
37958W        W 6363  39.157  36.426   1.354
37959W        W 6364   7.580  14.986   3.786
37960W        W 6365  13.742  40.209  14.245
37961W        W 6366  31.437  26.947   4.654
37962W        W 6367   4.696  11.135  13.809
37963W        W 6368  27.981  37.467  13.326
37964W        W 6369  28.071  26.878   4.119
37965W        W 6370  41.528  22.653  11.531
37966W        W 6371  41.288  38.099  13.872
37967W        W 6372  40.923   2.132  10.475
37968W        W 6373  36.391  39.494  12.597
37969W        W 6374  20.591  34.063   2.084
37970W        W 6375  44.316  32.454   4.074
37971W        W 6376  26.507  15.866  10.698
37972W        W 6377   5.004  33.498  11.457
37973W        W 6378   1.916  37.846   2.349
37974W        W 6379  18.605  32.075  10.558
37975W        W 6380  36.144  18.729   0.740
37976W        W 6381  30.464   4.498  11.611
37977W        W 6382  41.591  44.084   4.206
37978W        W 6383  17.379   7.429   2.701
37979W        W 6384  17.704  35.334  11.562
37980W        W 6385  28.410   4.010  12.940
37981W        W 6386  20.769  18.641  10.635
37982W        W 6387  26.119  31.706   3.237
37983W        W 6388   5.366  15.931   1.828
37984W        W 6389  33.685   8.270   2.266
37985W        W 6390  41.876  13.695  14.184
37986W        W 6391  31.832  35.330   1.033
37987W        W 6392  43.559  19.191  14.782
37988W        W 6393   2.896  42.921  10.347
37989W        W 6394  11.699   5.063   4.539
37990W        W 6395   8.197  12.645   2.205
37991W        W 6396  19.889   1.874  10.389
37992W        W 6397  10.660   8.172   1.518
37993W        W 6398  11.621   9.768  12.122
37994W        W 6399   8.557  24.120   3.521
37995W        W 6400  24.383  10.115  13.082
37996W        W 6401   7.945   7.315  11.611
37997W        W 6402  31.777  35.548   0.003
37998W        W 6403  22.168  31.083   3.126
37999W        W 6404   9.721  41.049   1.970
38000W        W 6405  35.945   8.870   0.757
38001W        W 6406  15.102  32.397  13.719
38002W        W 6407  42.003  34.927   3.807
38003W        W 6408  11.405  23.163   3.651
38004W        W 6409  41.294  16.896   0.882
38005W        W 6410  44.593  22.100  14.191
38006W        W 6411  27.470   6.913  14.488
38007W        W 6412  16.053  28.467  13.422
38008W        W 6413   1.821  28.122   3.335
38009W        W 6414  42.960  19.692   3.265
38010W        W 6415  43.885  42.823   4.016
38011W        W 6416   9.741  12.602   4.406
38012W        W 6417  13.149  30.478  10.541
38013W        W 6418  10.194  44.314  12.562
38014W        W 6419  31.544  27.002   0.398
38015W        W 6420  31.099   3.795  14.931
38016W        W 6421  35.955  43.473  14.244
38017W        W 6422  38.745  37.502   2.407
38018W        W 6423   2.506   5.120  10.579
38019W        W 6424  28.086  19.181   2.665
38020W        W 6425   5.832  44.610  12.019
38021W        W 6426   1.453   5.781   3.241
38022W        W 6427  17.385  39.975  13.341
38023W        W 6428  35.055  21.716   1.542
38024W        W 6429   9.764   1.688  14.324
38025W        W 6430  35.785  38.924   0.679
38026W        W 6431  29.771   7.242  11.303
38027W        W 6432  31.085  23.224  11.645
38028W        W 6433  36.984   9.275   2.752
38029W        W 6434  34.253   6.923   2.931
38030W        W 6435  12.308  26.872  13.746
38031W        W 6436  36.834   5.633   4.706
38032W        W 6437  20.292  35.722   2.315
38033W        W 6438   0.809  20.274   3.559
38034W        W 6439  32.318  41.422   0.278
38035W        W 6440  21.256  26.148   4.273
38036W        W 6441   9.532  34.003   5.041
38037W        W 6442  37.110  12.531  12.497
38038W        W 6443  42.254   2.468  14.282
38039W        W 6444  43.408  35.554   4.693
38040W        W 6445  28.678   9.253   0.969
38041W        W 6446   5.487   0.459   1.853
38042W        W 6447  35.565  30.458   3.536
38043W        W 6448   6.314  27.046  10.697
38044W        W 6449  30.102  32.167   3.879
38045W        W 6450   2.430  19.064   2.408
38046W        W 6451  14.227  36.404   2.989
38047W        W 6452   8.738  15.040   5.404
38048W        W 6453   5.697  14.664   4.844
38049W        W 6454  35.481  22.728  11.732
38050W        W 6455  14.266  24.481   3.798
38051W        W 6456   3.933  26.453   0.018
38052W        W 6457  15.816   7.348   4.082
38053W        W 6458   4.874  43.643  14.505
38054W        W 6459   7.699   5.373  14.316
38055W        W 6460   8.771  40.927   1.922
38056W        W 6461  27.204  18.027   2.221
38057W        W 6462  16.089  21.026  11.475
38058W        W 6463  11.579  21.737   4.536
38059W        W 6464   4.901   3.367  11.896
38060W        W 6465   9.685  11.617  12.000
38061W        W 6466  30.365  39.452  12.060
38062W        W 6467  14.656  27.598   1.759
38063W        W 6468  24.484  34.088   4.602
38064W        W 6469   1.975  40.928   1.893
38065W        W 6470  29.300  34.880  13.891
38066W        W 6471  36.767  32.878   0.193
38067W        W 6472  17.775  34.385   1.928
38068W        W 6473  15.131   3.736   2.282
38069W        W 6474  38.553  24.556   4.607
38070W        W 6475  10.880  12.391  11.749
38071W        W 6476  36.277  11.421  13.513
38072W        W 6477   0.728   7.163  11.584
38073W        W 6478  14.584  23.582  11.883
38074W        W 6479  27.172   1.504   4.274
38075W        W 6480  15.642  36.549   3.155
38076W        W 6481  27.741  30.982  12.166
38077W        W 6482  40.519  14.219  11.711
38078W        W 6483  18.337   7.916  14.473
38079W        W 6484  13.797  12.824  13.141
38080W        W 6485  19.679  12.120  13.150
38081W        W 6486   0.785   6.355  13.888
38082W        W 6487   9.770  30.934   3.087
38083W        W 6488   1.166   2.347   2.219
38084W        W 6489  44.723  26.052  12.031
38085W        W 6490  20.684   1.924  12.398
38086W        W 6491  38.302   5.883   0.361
38087W        W 6492  17.280  40.938  13.648
38088W        W 6493  22.522  10.726  14.961
38089W        W 6494   0.600   2.786   1.210
38090W        W 6495   1.031  43.317  10.956
38091W        W 6496  20.653  20.616  13.771
38092W        W 6497  16.049   2.205  14.472
38093W        W 6498  23.529  22.732  12.915
38094W        W 6499  38.815  14.085  12.490
38095W        W 6500  43.939  34.536   1.700
38096W        W 6501  41.111  39.425   2.736
38097W        W 6502  12.410   7.970  11.203
38098W        W 6503  42.866  15.487   3.836
38099W        W 6504  12.914  42.564  12.724
38100W        W 6505  36.082  36.070   3.691
38101W        W 6506   0.257   3.726   0.273
38102W        W 6507  35.066  33.515  10.140
38103W        W 6508   2.462  37.485  11.608
38104W        W 6509  35.416  16.757   1.764
38105W        W 6510  12.343  32.506   4.178
38106W        W 6511  18.602  13.714  10.638
38107W        W 6512  20.742  32.405  13.392
38108W        W 6513  25.100   2.769   3.221
38109W        W 6514   8.731   1.217   4.287
38110W        W 6515  14.629  25.394  14.228
38111W        W 6516  19.064  43.084  10.411
38112W        W 6517  38.283  23.138  13.061
38113W        W 6518  30.573  16.536   2.778
38114W        W 6519  25.637  20.870  11.929
38115W        W 6520  25.739  33.184  12.026
38116W        W 6521  11.181  17.402   1.394
38117W        W 6522   9.404  37.077  13.790
38118W        W 6523  42.235  31.645   3.679
38119W        W 6524  43.103  15.795  12.482
38120W        W 6525  10.267  41.010  14.014
38121W        W 6526  22.919   7.913   3.314
38122W        W 6527  39.013  44.347   3.691
38123W        W 6528  18.662  19.149   3.378
38124W        W 6529  24.209  17.643  11.451
38125W        W 6530  24.936  36.809   3.227
38126W        W 6531   8.154  36.926  13.026
38127W        W 6532  16.987  22.594  11.413
38128W        W 6533  40.099  25.672   3.550
38129W        W 6534  12.134  28.796   5.076
38130W        W 6535  38.786  41.920  12.341
38131W        W 6536   8.028  15.604   0.868
38132W        W 6537  17.778  37.830   1.809
38133W        W 6538  24.053  23.417   2.728
38134W        W 6539   1.341  25.374   2.268
38135W        W 6540  14.874  30.657   2.634
38136W        W 6541   3.523  28.621   3.237
38137W        W 6542  13.275  10.404   1.801
38138W        W 6543  34.479  31.924   3.106
38139W        W 6544   2.481  44.456  12.255
38140W        W 6545  39.302  43.248   0.892
38141W        W 6546  25.742  16.505   3.701
38142W        W 6547  11.677  39.654   0.869
38143W        W 6548   4.185   1.017  14.831
38144W        W 6549  39.908   6.046   0.704
38145W        W 6550   4.990  18.084   0.203
38146W        W 6551   4.817  26.081   1.175
38147W        W 6552  27.264  37.986   3.679
38148W        W 6553  31.789  17.384  11.589
38149W        W 6554  22.241   1.178   4.666
38150W        W 6555  15.300  34.506   4.232
38151W        W 6556  43.997   0.413  14.781
38152W        W 6557  13.749  35.751  14.069
38153W        W 6558  35.387  39.261  13.081
38154W        W 6559   9.916  30.134   3.378
38155W        W 6560  29.602   9.102   0.008
38156W        W 6561  27.608  29.186  12.264
38157W        W 6562  33.383  42.526  13.891
38158W        W 6563  12.635  38.682   2.250
38159W        W 6564  12.920  38.412   1.879
38160W        W 6565  14.760  13.826   2.384
38161W        W 6566  36.515   7.551  13.835
38162W        W 6567  12.941   9.679  14.033
38163W        W 6568  20.801  10.662  14.079
38164W        W 6569  34.424  24.571   3.307
38165W        W 6570  29.694  12.233  13.950
38166W        W 6571  19.252   3.375   2.718
38167W        W 6572  21.174  14.041   1.444
38168W        W 6573  12.171  32.909   4.466
38169W        W 6574  23.294  34.411   1.230
38170W        W 6575   4.158  43.419  12.287
38171W        W 6576   9.957  31.476  12.409
38172W        W 6577  40.599   1.280   4.362
38173W        W 6578  31.441   9.622  11.066
38174W        W 6579  21.032  21.769  10.708
38175W        W 6580  30.350  33.367  12.815
38176W        W 6581   2.888   9.339  11.502
38177W        W 6582  28.235   9.001  10.695
38178W        W 6583   4.301  11.723   4.154
38179W        W 6584  36.523   1.443   4.770
38180W        W 6585   9.951  27.442   5.066
38181W        W 6586  38.381  11.631  14.825
38182W        W 6587  44.276  10.313   4.132
38183W        W 6588   3.466   3.813   3.193
38184W        W 6589  26.429  20.311  11.152
38185W        W 6590  36.515  14.070  13.920
38186W        W 6591  25.308  26.092  14.639
38187W        W 6592  28.153   1.450   0.845
38188W        W 6593   6.406  20.855  14.965
38189W        W 6594   6.186  22.247  14.072
38190W        W 6595   3.386  32.999   4.413
38191W        W 6596  22.074  40.337   1.033
38192W        W 6597  16.211   2.638  10.608
38193W        W 6598  18.397  29.370   1.501
38194W        W 6599  18.585   1.674   1.866
38195W        W 6600  40.759  25.588   2.022
38196W        W 6601  33.101   9.263   1.357
38197W        W 6602  42.697  33.016  10.737
38198W        W 6603  22.925  17.063   1.312
38199W        W 6604  44.281  20.123   2.359
38200W        W 6605  19.606  22.116  11.023
38201W        W 6606  16.214  40.328  11.543
38202W        W 6607  15.243  14.180   2.646
38203W        W 6608  26.017  15.279   0.587
38204W        W 6609  12.804   8.306   2.344
38205W        W 6610  39.160  25.773   1.242
38206W        W 6611   4.278   5.135  11.769
38207W        W 6612  30.735   2.544  12.920
38208W        W 6613  15.311   3.178   3.673
38209W        W 6614  25.566  17.213   0.239
38210W        W 6615  30.544  41.390  13.289
38211W        W 6616   6.805  41.256  12.947
38212W        W 6617  10.962  23.714  14.123
38213W        W 6618   0.839  25.618   4.558
38214W        W 6619  23.850  13.853  13.494
38215W        W 6620  30.509  37.340  10.769
38216W        W 6621  28.643  41.545   4.813
38217W        W 6622  17.615  13.307  13.886
38218W        W 6623  39.414   7.911  14.760
38219W        W 6624  31.563  44.459  10.864
38220W        W 6625  28.609  37.830  10.820
38221W        W 6626  22.231  29.900   0.867
38222W        W 6627  27.133  33.403  13.344
38223W        W 6628  36.902   7.295   0.371
38224W        W 6629  20.613   5.962   3.129
38225W        W 6630  19.522  31.161   2.286
38226W        W 6631  41.538  33.954  14.911
38227W        W 6632  21.168  23.516   9.680
38228W        W 6633  20.591   6.883  10.561
38229W        W 6634  17.275   1.548  13.010
38230W        W 6635   2.797   6.251  13.026
38231W        W 6636   9.716  35.573  12.477
38232W        W 6637  31.544  29.008   2.891
38233W        W 6638   0.028   5.257   2.905
38234W        W 6639  10.781  26.755   2.201
38235W        W 6640  21.530   8.641   1.684
38236W        W 6641  32.594  37.768  11.530
38237W        W 6642  30.937  40.677  14.911
38238W        W 6643  30.401  17.693   3.310
38239W        W 6644  11.119  31.554   1.834
38240W        W 6645  22.059   5.539   0.897
38241W        W 6646  32.544  10.412  11.051
38242W        W 6647  16.447  39.480  10.403
38243W        W 6648  35.238  33.094   3.952
38244W        W 6649  19.117  12.611   0.896
38245W        W 6650  28.412   3.493  12.919
38246W        W 6651   3.695  36.893  14.037
38247W        W 6652  39.172  44.838   3.691
38248W        W 6653   5.774  18.181  11.459
38249W        W 6654  23.202  30.059  14.331
38250W        W 6655  37.354  35.248  11.432
38251W        W 6656  35.858  24.037  11.139
38252W        W 6657   3.005  41.946  10.830
38253W        W 6658  13.656  39.856  11.918
38254W        W 6659   7.861   6.825   1.431
38255W        W 6660  40.829  34.915  11.080
38256W        W 6661   6.239  16.072   0.059
38257W        W 6662  35.999  29.138  12.978
38258W        W 6663   7.885  36.978  13.904
38259W        W 6664  36.789  37.583  14.860
38260W        W 6665   9.554  14.729   4.187
38261W        W 6666  21.159  38.627   4.554
38262W        W 6667   3.176  34.836   3.992
38263W        W 6668  35.273  33.053   0.878
38264W        W 6669  13.791  16.484  12.603
38265W        W 6670  22.967  28.476  10.711
38266W        W 6671  15.119  38.837  11.615
38267W        W 6672  24.639  42.880   4.351
38268W        W 6673  28.090   0.265   0.966
38269W        W 6674  44.651  13.117   3.002
38270W        W 6675  26.592  44.567  13.361
38271W        W 6676  44.471  16.827   0.978
38272W        W 6677  44.302  33.157   0.766
38273W        W 6678  20.570  12.645   0.681
38274W        W 6679  22.977  39.486  14.752
38275W        W 6680  36.028  26.574   2.898
38276W        W 6681   1.300  19.703  10.676
38277W        W 6682  31.563   9.546  10.557
38278W        W 6683  27.576   9.690   4.662
38279W        W 6684   5.140  39.044   1.290
38280W        W 6685  13.388  27.618   2.828
38281W        W 6686  38.968  23.615   2.390
38282W        W 6687   3.950  36.656  11.829
38283W        W 6688  38.255  16.266  13.836
38284W        W 6689  18.251  41.793   2.399
38285W        W 6690  22.698   5.724  12.866
38286W        W 6691  27.389   0.427  14.323
38287W        W 6692  12.767  30.015   3.393
38288W        W 6693  41.198  21.039   3.683
38289W        W 6694   2.986  14.143   3.047
38290W        W 6695  15.235  28.977  14.359
38291W        W 6696  13.276   9.256   1.482
38292W        W 6697  12.289   7.712  12.581
38293W        W 6698  37.089  34.500   2.089
38294W        W 6699  36.487  15.154   0.847
38295W        W 6700  40.107  32.857   3.385
38296W        W 6701  44.939  32.884   1.344
38297W        W 6702  40.882  38.232  11.097
38298W        W 6703  12.839  31.462  12.552
38299W        W 6704  12.709  33.745  13.251
38300W        W 6705  22.535   9.866  14.487
38301W        W 6706  25.504  31.278  13.018
38302W        W 6707  23.844  36.005   1.492
38303W        W 6708  15.190  42.028  10.461
38304W        W 6709  10.885  33.062   0.784
38305W        W 6710  23.012  26.703   3.088
38306W        W 6711   0.503  43.476  13.076
38307W        W 6712  12.809  22.531  10.755
38308W        W 6713   3.975  20.927   0.927
38309W        W 6714  26.786  19.092   0.729
38310W        W 6715  44.467  21.744  12.908
38311W        W 6716  18.943  36.754  14.938
38312W        W 6717  37.338  41.389  14.820
38313W        W 6718  37.958   7.236   5.246
38314W        W 6719  21.998   8.755   4.035
38315W        W 6720  19.781  33.445  14.801
38316W        W 6721  23.895  33.626   2.691
38317W        W 6722   5.454  31.144  12.922
38318W        W 6723  12.016  16.769  13.639
38319W        W 6724  28.551  42.514   3.736
38320W        W 6725  20.156  26.994  10.920
38321W        W 6726  35.844  12.348  11.130
38322W        W 6727  14.102  10.394  14.379
38323W        W 6728  35.907  17.007   1.755
38324W        W 6729  42.141  28.607   1.459
38325W        W 6730   7.628   1.527   1.364
38326W        W 6731  13.319  11.761  13.474
38327W        W 6732   4.647  43.800  13.518
38328W        W 6733  12.377  34.367   1.408
38329W        W 6734  42.519  21.082   0.358
38330W        W 6735  38.630  32.436  12.994
38331W        W 6736  31.468  29.417  14.047
38332W        W 6737  24.581  41.832   0.424
38333W        W 6738  22.221  19.803   3.710
38334W        W 6739  18.074  35.111   0.900
38335W        W 6740  42.288   6.148  14.852
38336W        W 6741   5.703  20.251   2.626
38337W        W 6742  34.374  20.952   3.350
38338W        W 6743  12.724   5.085   3.573
38339W        W 6744  15.085  13.808  14.424
38340W        W 6745  31.201  19.695   1.360
38341W        W 6746  38.383   3.840  14.264
38342W        W 6747  24.682  17.396  10.620
38343W        W 6748  27.962  16.604   0.440
38344W        W 6749   0.939  25.740  12.064
38345W        W 6750  35.017  35.741   3.724
38346W        W 6751   6.050  13.127   3.055
38347W        W 6752  28.909  28.938   2.147
38348W        W 6753  44.461  32.948   0.281
38349W        W 6754  25.534  32.093  10.886
38350W        W 6755  35.743  16.989  14.415
38351W        W 6756  44.911  27.770  13.119
38352W        W 6757  39.806   5.795  12.791
38353W        W 6758  38.787   5.952   3.558
38354W        W 6759  37.343  31.429   4.149
38355W        W 6760  34.106  41.956   0.968
38356W        W 6761   6.151   0.603   4.148
38357W        W 6762  26.639  13.325  11.691
38358W        W 6763   5.728   5.707  13.891
38359W        W 6764   3.064   9.270  14.377
38360W        W 6765  31.019   2.971  10.971
38361W        W 6766  38.593  27.081   0.452
38362W        W 6767  34.894  16.649  12.814
38363W        W 6768   3.917  27.003  14.979
38364W        W 6769  27.231  26.568   0.702
38365W        W 6770  21.092  33.622   0.303
38366W        W 6771  29.588  28.178  10.361
38367W        W 6772  18.822  29.151  11.839
38368W        W 6773  14.520  24.935   4.473
38369W        W 6774  22.582   9.333   4.239
38370W        W 6775  25.493  14.413  10.677
38371W        W 6776   0.956  10.596   3.673
38372W        W 6777  39.317  25.369   5.129
38373W        W 6778  42.024   1.391   4.272
38374W        W 6779   8.072  20.593   1.364
38375W        W 6780   2.238   3.672   2.612
38376W        W 6781  13.273   0.785  13.727
38377W        W 6782   9.313   5.307   0.963
38378W        W 6783  21.317  21.273  12.349
38379W        W 6784  43.358  36.359  12.804
38380W        W 6785   4.918  31.080   2.256
38381W        W 6786   4.225  39.346  12.618
38382W        W 6787  16.294  40.995   1.820
38383W        W 6788   6.176  14.037   4.102
38384W        W 6789  39.567  34.879   0.205
38385W        W 6790  25.119  35.696  11.667
38386W        W 6791  11.242  41.485  13.907
38387W        W 6792  24.505   5.693   0.642
38388W        W 6793  21.100  31.854   0.921
38389W        W 6794  44.060  36.382  11.537
38390W        W 6795  27.000  32.730   3.195
38391W        W 6796  34.352   0.393   3.339
38392W        W 6797  11.363  25.373  11.446
38393W        W 6798   1.372   6.717   3.836
38394W        W 6799   3.977  17.667   3.194
38395W        W 6800  30.891  17.723   3.357
38396W        W 6801  27.152   2.664   0.897
38397W        W 6802   2.210   6.786   3.602
38398W        W 6803   0.325  24.264   0.307
38399W        W 6804   9.625  23.498   1.425
38400W        W 6805  10.059  23.617  12.992
38401W        W 6806  25.589  27.578   4.357
38402W        W 6807  44.079   7.724  13.584
38403W        W 6808  32.465  37.045   2.336
38404W        W 6809  34.376  10.740  13.866
38405W        W 6810  39.334  12.439   0.480
38406W        W 6811  13.814   4.359   3.734
38407W        W 6812  28.512   8.743  14.776
38408W        W 6813  20.288  34.806   1.603
38409W        W 6814   7.933  16.744  13.995
38410W        W 6815   9.401   3.521  12.041
38411W        W 6816  44.670   5.243  12.394
38412W        W 6817   1.393  30.632   0.751
38413W        W 6818  44.388  33.853   3.624
38414W        W 6819  21.568  24.877   1.939
38415W        W 6820  25.487  37.553   4.359
38416W        W 6821  35.592  18.091   4.137
38417W        W 6822  32.621  32.413   4.710
38418W        W 6823   6.911  18.789   0.707
38419W        W 6824  19.838   5.013  10.193
38420W        W 6825  25.661  18.732  13.430
38421W        W 6826   6.769  20.116  13.861
38422W        W 6827  37.395  36.126  13.475
38423W        W 6828  11.337   9.127  14.803
38424W        W 6829  32.527  38.529  14.478
38425W        W 6830  32.415   8.387   0.251
38426W        W 6831   3.879   2.321   4.702
38427W        W 6832  39.892  11.778   3.809
38428W        W 6833   7.277  34.462   1.668
38429W        W 6834  41.241  26.723   4.654
38430W        W 6835  12.483  36.979  13.477
38431W        W 6836  36.322  41.394   2.642
38432W        W 6837   6.995  15.280   1.371
38433W        W 6838  28.209  29.841  13.317
38434W        W 6839  38.300  24.510   2.038
38435W        W 6840  41.363   6.750   4.602
38436W        W 6841   6.222  39.422   0.938
38437W        W 6842  24.411   1.350   3.284
38438W        W 6843  18.382  29.392  13.514
38439W        W 6844   0.519  23.488  14.998
38440W        W 6845  37.580  12.223  10.973
38441W        W 6846  41.230  37.318  12.529
38442W        W 6847   4.537  21.106  13.542
38443W        W 6848  24.449  27.708  13.886
38444W        W 6849  15.238  11.603   2.953
38445W        W 6850  24.488   4.919   4.237
38446W        W 6851  18.845   4.124   1.345
38447W        W 6852  27.609  36.711   1.711
38448W        W 6853  13.548  26.034  10.683
38449W        W 6854  28.955  44.756  11.185
38450W        W 6855  16.541  19.455  13.987
38451W        W 6856  19.983   0.825  11.480
38452W        W 6857   7.755   9.832  11.459
38453W        W 6858   6.839   8.210  14.342
38454W        W 6859   6.811  17.846  12.976
38455W        W 6860  10.693  31.498   3.281
38456W        W 6861  10.173   7.858   2.667
38457W        W 6862  26.446   3.715   1.857
38458W        W 6863  22.533  11.792  11.695
38459W        W 6864  17.626  11.204  14.363
38460W        W 6865  17.727  31.305   3.309
38461W        W 6866   2.594  20.751   0.924
38462W        W 6867  13.847  33.905  12.563
38463W        W 6868  20.453  22.510  11.835
38464W        W 6869  35.571  28.539   3.193
38465W        W 6870  16.511   3.850   2.187
38466W        W 6871  12.108  14.821   1.375
38467W        W 6872   4.186  11.826  14.761
38468W        W 6873  35.060  41.445   3.211
38469W        W 6874  23.973   1.060  10.396
38470W        W 6875  44.904  32.759  11.450
38471W        W 6876  33.017  12.034   0.909
38472W        W 6877  38.553  38.271  13.247
38473W        W 6878  37.510  26.797  13.932
38474W        W 6879  23.636  32.025  10.948
38475W        W 6880   4.206  21.254   2.421
38476W        W 6881   8.517  32.464  14.455
38477W        W 6882  43.911  19.472   2.841
38478W        W 6883  23.417  18.984   3.224
38479W        W 6884   4.254  14.797   4.232
38480W        W 6885  40.991  14.237  14.394
38481W        W 6886  37.370  16.554   3.274
38482W        W 6887  19.077  27.412  11.594
38483W        W 6888   7.225  29.899   1.952
38484W        W 6889   5.376  16.517  11.064
38485W        W 6890  42.866  33.017   2.751
38486W        W 6891  43.933  36.018   1.675
38487W        W 6892   6.230  34.633   1.818
38488W        W 6893  25.700   9.853  11.904
38489W        W 6894  43.363  17.014  12.876
38490W        W 6895  40.516  10.222  11.944
38491W        W 6896  33.960  13.362  14.096
38492W        W 6897  17.131  15.610   1.749
38493W        W 6898  16.340  43.024  10.014
38494W        W 6899   6.244  32.432   0.082
38495W        W 6900  14.884  24.964   1.794
38496W        W 6901  39.581  20.288   2.269
38497W        W 6902  24.429   1.832  13.806
38498W        W 6903  40.894  36.122   0.507
38499W        W 6904  12.053  28.789  12.115
38500W        W 6905  37.682  38.804   4.494
38501W        W 6906  14.859  37.582   0.414
38502W        W 6907  37.378  17.106   1.458
38503W        W 6908   2.671  30.507   1.799
38504W        W 6909  32.059  21.475   3.300
38505W        W 6910  16.666  33.396   0.020
38506W        W 6911  21.775  16.734  14.448
38507W        W 6912  43.832  29.813   1.356
38508W        W 6913  10.086   4.201   1.245
38509W        W 6914  39.459   1.265  12.538
38510W        W 6915  18.211  18.309  13.006
38511W        W 6916  32.633  36.027   3.194
38512W        W 6917   8.994  26.998   4.505
38513W        W 6918  42.926  11.763   4.597
38514W        W 6919   2.015   4.903   0.006
38515W        W 6920  31.098  22.337   0.928
38516W        W 6921  29.124  41.907  13.572
38517W        W 6922  44.938  40.905  14.240
38518W        W 6923  28.655   5.570   4.842
38519W        W 6924   1.235  24.083  12.033
38520W        W 6925  21.000  11.039  14.982
38521W        W 6926  44.314  13.193  11.971
38522W        W 6927  41.047  10.106  13.396
38523W        W 6928  16.421  36.202   1.499
38524W        W 6929  24.020  10.437  14.371
38525W        W 6930  26.448  20.769  13.950
38526W        W 6931  39.915  38.418   2.289
38527W        W 6932  28.461  19.520  12.053
38528W        W 6933  18.256  38.265   4.133
38529W        W 6934  31.047  16.408  12.069
38530W        W 6935  35.033  34.923  14.780
38531W        W 6936  39.971   1.275  14.541
38532W        W 6937  12.721  42.824   2.255
38533W        W 6938   7.937  13.045  11.170
38534W        W 6939  30.856  36.627  13.565
38535W        W 6940   5.450   6.723   1.675
38536W        W 6941  22.507  10.646  11.062
38537W        W 6942  38.212  33.243  11.268
38538W        W 6943  21.678  19.699  11.975
38539W        W 6944   3.404  39.607  11.972
38540W        W 6945  10.246  20.606  13.086
38541W        W 6946  42.808  20.909   5.112
38542W        W 6947  16.845  27.241  13.498
38543W        W 6948  40.339  24.769   4.383
38544W        W 6949  18.333   2.868   3.823
38545W        W 6950  36.235  26.654  10.073
38546W        W 6951  25.793  32.901  12.493
38547W        W 6952  24.688  32.932   4.186
38548W        W 6953  43.420   2.671  14.851
38549W        W 6954   6.740   0.852  11.452
38550W        W 6955  20.028  33.515  10.665
38551W        W 6956   4.420  10.223   1.851
38552W        W 6957  33.043  26.953  10.416
38553W        W 6958   0.835   9.826   1.187
38554W        W 6959  34.749   8.101   2.148
38555W        W 6960  21.926  37.061   2.280
38556W        W 6961  28.626  20.307  11.653
38557W        W 6962  32.985   5.175   1.036
38558W        W 6963   2.446  33.404   1.650
38559W        W 6964  40.885  18.145  14.617
38560W        W 6965  19.582  41.789   1.865
38561W        W 6966  34.979  44.257   0.868
38562W        W 6967  30.460  13.342  13.790
38563W        W 6968   9.249  33.277   3.719
38564W        W 6969   6.839  32.915   4.952
38565W        W 6970  26.008  11.749  12.904
38566W        W 6971  43.327   2.912   1.228
38567W        W 6972  29.989   0.778  12.947
38568W        W 6973  13.110   0.523  12.760
38569W        W 6974  36.396  12.713   2.172
38570W        W 6975   8.382  27.239   2.639
38571W        W 6976  22.026  17.061   3.794
38572W        W 6977   0.251   3.296  14.083
38573W        W 6978   1.678   2.440  14.539
38574W        W 6979  13.099  43.846   4.516
38575W        W 6980  18.499  12.190  14.344
38576W        W 6981  44.391  37.194  10.944
38577W        W 6982  18.900  21.154  10.632
38578W        W 6983  42.723   3.945   3.595
38579W        W 6984  39.873  38.527  14.832
38580W        W 6985  23.159  18.529   0.402
38581W        W 6986  29.126  27.977   0.247
38582W        W 6987  39.304  24.030  14.058
38583W        W 6988   6.388  16.534  14.884
38584W        W 6989  22.588  32.943  10.892
38585W        W 6990  32.572   6.928   4.074
38586W        W 6991  14.548  11.090   3.735
38587W        W 6992  21.913  33.901   4.110
38588W        W 6993  32.970  26.803   3.362
38589W        W 6994  44.912   8.670   4.117
38590W        W 6995  13.058  40.596  10.372
38591W        W 6996  19.001  10.712   5.041
38592W        W 6997  18.571  24.135   3.426
38593W        W 6998  28.382  32.166   3.271
38594W        W 6999  20.553  27.061  13.015
38595W        W 7000   7.883  38.354   3.301
38596W        W 7001  37.442  31.866  14.441
38597W        W 7002   7.759  43.695  13.480
38598W        W 7003  31.613   7.672   4.398
38599W        W 7004  29.145  28.487  11.274
38600W        W 7005  21.530  21.452   0.970
38601W        W 7006  16.279   3.716  12.404
38602W        W 7007  43.378  13.261  13.146
38603W        W 7008  12.364  39.277  10.633
38604W        W 7009  35.638  14.355  11.953
38605W        W 7010  29.903   0.168   1.281
38606W        W 7011  11.668   9.883   1.334
38607W        W 7012  18.911  13.907  10.255
38608W        W 7013  35.913  19.873   2.128
38609W        W 7014  28.470  20.029  12.067
38610W        W 7015  44.758  32.425  11.064
38611W        W 7016  25.182   5.955   0.474
38612W        W 7017   7.778  19.709  10.314
38613W        W 7018  34.509  42.742   4.541
38614W        W 7019  32.640  22.200   3.294
38615W        W 7020  10.890  19.677  10.715
38616W        W 7021  18.728  43.341  12.928
38617W        W 7022  28.388  38.283   4.066
38618W        W 7023  21.344  16.800  11.105
38619W        W 7024  12.319  42.964  12.123
38620W        W 7025   6.398   9.184   0.798
38621W        W 7026  16.219   7.455   5.331
38622W        W 7027  26.638   9.328   2.851
38623W        W 7028  40.514  14.545  10.819
38624W        W 7029  14.187   0.015   2.879
38625W        W 7030   9.781   1.149   1.891
38626W        W 7031   0.026   8.677   1.651
38627W        W 7032  35.427  17.676   1.001
38628W        W 7033  10.693   3.720  11.798
38629W        W 7034  16.306   5.509  10.742
38630W        W 7035  34.000  15.365   2.276
38631W        W 7036  33.485  41.347   0.901
38632W        W 7037  25.021  10.888   4.110
38633W        W 7038   8.876  27.046  12.890
38634W        W 7039  42.057  15.719  11.467
38635W        W 7040   1.566  37.942   1.211
38636W        W 7041  14.538  22.530   0.320
38637W        W 7042  15.354  18.586  14.468
38638W        W 7043  31.744  41.821   3.791
38639W        W 7044  13.771   0.045   4.622
38640W        W 7045  27.742   1.363   3.600
38641W        W 7046   9.668  23.214  13.867
38642W        W 7047  11.098  30.882  12.566
38643W        W 7048   6.459   3.700   4.112
38644W        W 7049  10.732  10.456   4.527
38645W        W 7050  26.278   3.276   3.450
38646W        W 7051  28.086   7.769   2.301
38647W        W 7052  21.259   8.189  10.324
38648W        W 7053  30.204  39.417   0.842
38649W        W 7054  40.952   6.938   1.699
38650W        W 7055  36.789  10.409  11.597
38651W        W 7056   5.275  24.072  11.468
38652W        W 7057   4.514  37.349  10.650
38653W        W 7058  18.136  25.733   3.988
38654W        W 7059  21.478  11.099  12.439
38655W        W 7060  27.750  26.089   0.187
38656W        W 7061  14.839  44.347   3.266
38657W        W 7062   4.354  12.550   0.321
38658W        W 7063   1.316  16.337  13.472
38659W        W 7064   4.702  25.195  11.054
38660W        W 7065  38.071  39.852   0.366
38661W        W 7066  25.702  31.016  11.619
38662W        W 7067  32.543  37.018   0.329
38663W        W 7068  19.202  37.248  14.212
38664W        W 7069  27.512  31.572  10.474
38665W        W 7070   1.701  18.014   0.202
38666W        W 7071  13.441  12.297  10.642
38667W        W 7072  40.954   3.208  11.752
38668W        W 7073  15.424  38.123   4.751
38669W        W 7074  11.646  34.215  11.653
38670W        W 7075  41.474  22.707  13.392
38671W        W 7076  40.330   0.232  11.457
38672W        W 7077   6.736  27.090   4.588
38673W        W 7078  33.485   1.665   2.292
38674W        W 7079   0.752  24.594   3.643
38675W        W 7080  16.131  36.567   3.292
38676W        W 7081  11.609   1.986   1.851
38677W        W 7082  38.608  15.166   1.990
38678W        W 7083  39.807  30.907  11.297
38679W        W 7084  22.224  14.983  12.194
38680W        W 7085  18.754  19.726   2.753
38681W        W 7086  42.782   7.116   3.331
38682W        W 7087  26.284  38.158   3.729
38683W        W 7088  34.477  14.572   3.245
38684W        W 7089   0.101  29.528   4.198
38685W        W 7090  25.428  21.112  14.223
38686W        W 7091  11.176  27.460   0.443
38687W        W 7092  16.715  10.621   0.853
38688W        W 7093  32.934   6.411  12.603
38689W        W 7094   5.953  10.621  11.186
38690W        W 7095  34.542   2.459   2.216
38691W        W 7096  29.473   8.907  10.669
38692W        W 7097  20.606  39.874  12.234
38693W        W 7098  25.611  36.656  12.949
38694W        W 7099  12.827  20.684  12.636
38695W        W 7100  11.173  11.178   3.174
38696W        W 7101  26.673  22.342   3.681
38697W        W 7102  39.146  42.220  14.946
38698W        W 7103  33.674  26.190  14.977
38699W        W 7104  20.292  43.757   3.447
38700W        W 7105  20.048   6.039  12.588
38701W        W 7106  33.997  36.132   0.337
38702W        W 7107  31.661  42.839   0.470
38703W        W 7108   8.553  14.795   4.183
38704W        W 7109  27.489   3.967  11.986
38705W        W 7110  33.386  44.448   9.987
38706W        W 7111   9.011  39.270  10.678
38707W        W 7112  32.374  27.589   1.444
38708W        W 7113  17.204  31.619  11.237
38709W        W 7114  39.393   4.950   1.978
38710W        W 7115   2.327  13.167  11.081
38711W        W 7116  19.730  21.560  14.301
38712W        W 7117  11.245   3.171   1.329
38713W        W 7118  38.844  43.201  12.913
38714W        W 7119  26.174   9.901   9.964
38715W        W 7120  26.566  16.823   5.059
38716W        W 7121  21.286  11.646  11.068
38717W        W 7122  16.566  25.145   4.610
38718W        W 7123  11.882   2.065  12.929
38719W        W 7124  19.159  40.341  11.567
38720W        W 7125  40.572   7.213  11.093
38721W        W 7126  36.457  39.349   0.077
38722W        W 7127  42.957  38.750  12.989
38723W        W 7128  26.284  33.250  11.142
38724W        W 7129  15.113  23.215   5.026
38725W        W 7130  32.985  14.872   1.416
38726W        W 7131  20.641  23.786  14.417
38727W        W 7132  43.462   9.609   0.770
38728W        W 7133  12.165  44.910  13.881
38729W        W 7134   3.148   7.776   3.162
38730W        W 7135  26.251  28.687   3.317
38731W        W 7136  16.597  30.206  10.660
38732W        W 7137  34.391   6.526  12.892
38733W        W 7138  44.973   3.446   1.871
38734W        W 7139  32.031   4.683   0.752
38735W        W 7140  26.654   9.059  14.031
38736W        W 7141  39.402  24.176  11.027
38737W        W 7142  16.993  29.640   2.147
38738W        W 7143  38.391  34.524  12.485
38739W        W 7144   3.827  14.533  11.304
38740W        W 7145  14.383  20.841  11.091
38741W        W 7146   5.984  32.607   1.809
38742W        W 7147   1.482  17.384  10.808
38743W        W 7148  37.037  40.224  14.385
38744W        W 7149  20.576  36.541   4.346
38745W        W 7150  16.531  18.602   0.820
38746W        W 7151  13.688  41.711  13.036
38747W        W 7152  24.558  38.127   1.686
38748W        W 7153  17.141   2.446  13.006
38749W        W 7154  40.588  37.974   3.792
38750W        W 7155  10.460  42.351  10.723
38751W        W 7156   0.295   9.747   2.833
38752W        W 7157  27.046   3.640   0.763
38753W        W 7158  10.100  25.761   0.894
38754W        W 7159   2.336   2.468  11.145
38755W        W 7160  15.628  14.389   0.843
38756W        W 7161  36.034  26.551   5.189
38757W        W 7162  29.054  25.408   4.269
38758W        W 7163  29.137   3.580   4.671
38759W        W 7164  32.928  16.068   0.936
38760W        W 7165  34.516  22.615  13.875
38761W        W 7166  16.411  18.615  14.844
38762W        W 7167   1.973  38.942   4.276
38763W        W 7168  41.967  28.148  13.830
38764W        W 7169  41.293   8.138   0.652
38765W        W 7170   2.279  18.163  12.560
38766W        W 7171  32.695  32.928   4.875
38767W        W 7172  27.108  32.533   1.317
38768W        W 7173  35.369   3.804   2.852
38769W        W 7174  14.267  34.938   3.362
38770W        W 7175  42.876   7.362  14.999
38771W        W 7176  25.672   7.733   2.332
38772W        W 7177  36.107  13.219   1.504
38773W        W 7178  19.541   3.595  10.475
38774W        W 7179  11.714  26.376  11.929
38775W        W 7180  22.062  42.509   2.771
38776W        W 7181  23.011  43.897  12.917
38777W        W 7182   0.884  13.949  14.388
38778W        W 7183  39.738  21.741   3.277
38779W        W 7184  28.043  28.416  12.413
38780W        W 7185   9.884  31.069   0.856
38781W        W 7186  17.130  37.650   4.119
38782W        W 7187  25.155  41.381   1.841
38783W        W 7188  14.580   0.417  13.292
38784W        W 7189  22.590  31.120  10.705
38785W        W 7190  37.407   0.430  10.773
38786W        W 7191  25.247  11.708   4.615
38787W        W 7192  19.224   1.931   3.102
38788W        W 7193  25.722  37.458  14.927
38789W        W 7194  25.484  14.663   1.310
38790W        W 7195  22.635  34.116   3.310
38791W        W 7196  11.618  22.712  11.530
38792W        W 7197  24.269  28.914   4.529
38793W        W 7198  32.321  43.428   2.364
38794W        W 7199   9.854  22.155   1.312
38795W        W 7200  19.207  23.988   2.275
38796W        W 7201  24.258  39.034   3.206
38797W        W 7202   2.007  13.496   1.672
38798W        W 7203  42.870  40.057   3.155
38799W        W 7204  12.967   7.502   3.635
38800W        W 7205  20.027  19.518   3.310
38801W        W 7206  32.870   3.972   1.407
38802W        W 7207  38.478  23.488  14.880
38803W        W 7208  33.384  42.940   4.601
38804W        W 7209  19.000  17.573  11.150
38805W        W 7210   1.107  29.926   0.727
38806W        W 7211   2.153  38.024  12.446
38807W        W 7212  34.027  14.189   2.802
38808W        W 7213   7.659  16.685   2.183
38809W        W 7214  43.393  19.824  13.004
38810W        W 7215  42.102  43.341  13.907
38811W        W 7216  19.088  37.296  14.707
38812W        W 7217  31.533  16.338   0.646
38813W        W 7218  42.121  34.151  12.179
38814W        W 7219   4.918  30.484  13.938
38815W        W 7220  39.472  34.957  13.853
38816W        W 7221  29.963   9.409  14.780
38817W        W 7222  28.148  39.395  10.649
38818W        W 7223  44.967  34.354  10.416
38819W        W 7224  13.207   8.109  11.517
38820W        W 7225   5.594  19.958  11.667
38821W        W 7226  37.795  10.006  14.369
38822W        W 7227  43.649  43.883   3.508
38823W        W 7228  14.367  25.138  13.476
38824W        W 7229  32.384  13.473   3.807
38825W        W 7230  29.462  42.790  13.906
38826W        W 7231  25.452  14.353   3.499
38827W        W 7232  27.394  36.539  14.857
38828W        W 7233  15.733   1.756   1.343
38829W        W 7234  26.385  25.719  11.560
38830W        W 7235   6.923   1.286  11.750
38831W        W 7236   6.268   9.728  14.472
38832W        W 7237   4.477  27.680   0.879
38833W        W 7238  31.078  38.379  12.542
38834W        W 7239  30.045  30.567  11.057
38835W        W 7240  43.477  32.581  10.706
38836W        W 7241  26.006  23.974   1.733
38837W        W 7242  12.917  12.269  10.545
38838W        W 7243  20.632   3.049   3.795
38839W        W 7244  31.354  30.169  11.714
38840W        W 7245   4.751  18.793   0.711
38841W        W 7246   5.017   5.644  11.225
38842W        W 7247  19.076  14.384   4.133
38843W        W 7248   2.135  15.071   4.491
38844W        W 7249  23.834  20.242   0.270
38845W        W 7250   9.391  23.132  14.315
38846W        W 7251  14.321   3.947   1.298
38847W        W 7252  14.541  32.103  14.398
38848W        W 7253  42.847  44.536  14.125
38849W        W 7254  12.722   9.651  11.644
38850W        W 7255  17.111  27.876   9.924
38851W        W 7256   9.294  27.237   4.122
38852W        W 7257   3.657  29.526  10.846
38853W        W 7258  35.071  36.525   1.634
38854W        W 7259  10.453  44.580   4.129
38855W        W 7260  32.134  27.648  12.942
38856W        W 7261   5.221  21.079   4.506
38857W        W 7262  15.214  45.000  13.957
38858W        W 7263  42.000  20.762  11.221
38859W        W 7264  10.413  24.749  12.522
38860W        W 7265  12.309  44.558   9.964
38861W        W 7266  44.215  19.795  14.672
38862W        W 7267   1.721   7.882   5.315
38863W        W 7268   7.245  20.334  13.959
38864W        W 7269  24.445  33.292  13.144
38865W        W 7270  23.179  15.428   4.074
38866W        W 7271   4.025  18.722  13.887
38867W        W 7272  21.586  19.570  14.924
38868W        W 7273  30.148  38.811  13.875
38869W        W 7274  12.538  10.181   0.380
38870W        W 7275  20.265   8.378   1.701
38871W        W 7276  27.013  26.498   2.763
38872W        W 7277  33.358  25.277  12.566
38873W        W 7278  41.630  28.652  12.088
38874W        W 7279  22.243  42.599  11.067
38875W        W 7280  41.396  35.943   4.546
38876W        W 7281  41.023  28.177  14.858
38877W        W 7282  18.556  32.951  10.566
38878W        W 7283  44.205  40.216  13.488
38879W        W 7284  41.303   2.890   2.272
38880W        W 7285  31.776  15.409   3.254
38881W        W 7286  19.598  10.831  14.317
38882W        W 7287  34.473  21.229   0.175
38883W        W 7288  44.869  37.104   0.789
38884W        W 7289  31.397  29.995   0.979
38885W        W 7290  28.697  25.413  14.562
38886W        W 7291  24.297  44.508  12.124
38887W        W 7292  15.598  44.329   4.194
38888W        W 7293  43.020  43.070   1.741
38889W        W 7294  11.396  38.139   1.793
38890W        W 7295  19.506  27.960   1.657
38891W        W 7296  44.090  43.363  11.207
38892W        W 7297  15.180  44.851   3.881
38893W        W 7298  23.500  18.007   1.341
38894W        W 7299  12.137  30.140   4.117
38895W        W 7300   8.394  42.499   1.249
38896W        W 7301   0.483  41.338  11.230
38897W        W 7302  43.307   5.766  10.808
38898W        W 7303  36.077  43.780   1.984
38899W        W 7304  30.826  36.506  10.877
38900W        W 7305  33.441  32.910   0.426
38901W        W 7306  19.788  26.871   3.084
38902W        W 7307   1.816  11.902   0.167
38903W        W 7308  28.546   0.992  11.416
38904W        W 7309   9.398   0.238   1.974
38905W        W 7310  17.511  43.838   3.820
38906W        W 7311   6.809  27.123  13.005
38907W        W 7312   9.940  22.747  13.863
38908W        W 7313   4.091  36.610  13.745
38909W        W 7314  11.630  24.688  10.779
38910W        W 7315   5.777  25.535   3.226
38911W        W 7316  15.966  10.696   3.553
38912W        W 7317  37.931   7.647  12.946
38913W        W 7318   6.452  29.157  14.496
38914W        W 7319  20.191  16.318  11.408
38915W        W 7320  11.739  12.802   1.203
38916W        W 7321  23.954  10.347  13.334
38917W        W 7322  19.106  42.944  11.842
38918W        W 7323  11.104  22.411  13.844
38919W        W 7324  29.020  38.039   0.019
38920W        W 7325  13.564  25.193  12.901
38921W        W 7326  44.436  21.445  11.832
38922W        W 7327  17.304  21.614  10.338
38923W        W 7328  29.295  18.141  12.461
38924W        W 7329  21.653  33.062   2.628
38925W        W 7330   7.390   3.155  11.094
38926W        W 7331  37.309  30.190   1.392
38927W        W 7332  15.194  25.364  14.919
38928W        W 7333  25.634   2.448  11.403
38929W        W 7334  11.293  41.119  12.485
38930W        W 7335  20.525  34.005  13.472
38931W        W 7336  21.099  19.771   1.816
38932W        W 7337  33.955  39.004  11.799
38933W        W 7338  21.464  44.588   1.205
38934W        W 7339  22.730  32.518  14.304
38935W        W 7340  38.494  30.983  10.402
38936W        W 7341  42.773   8.869   1.444
38937W        W 7342   9.844  23.758   1.889
38938W        W 7343  42.280  41.418  10.804
38939W        W 7344  27.034  44.371  13.559
38940W        W 7345  29.578  35.587   3.582
38941W        W 7346  16.259   6.705  10.374
38942W        W 7347  29.223  40.838   3.077
38943W        W 7348   5.414   5.427  10.999
38944W        W 7349  23.293  26.008   0.347
38945W        W 7350  25.907  26.611  14.190
38946W        W 7351  15.967   5.256   1.380
38947W        W 7352  38.441  16.587  11.676
38948W        W 7353   5.627  20.752   4.595
38949W        W 7354  26.184  38.451   0.415
38950W        W 7355  10.282   5.180   4.089
38951W        W 7356  23.220  31.688  11.161
38952W        W 7357  24.721   0.827   1.172
38953W        W 7358   4.171  13.527   2.748
38954W        W 7359   8.237  44.962   0.936
38955W        W 7360  39.423  39.714  13.754
38956W        W 7361  38.511  15.534   4.102
38957W        W 7362  16.618  42.295   4.026
38958W        W 7363  10.654   5.248  13.906
38959W        W 7364  30.614  24.976   4.165
38960W        W 7365  23.002  32.206  14.010
38961W        W 7366   5.817   6.771   4.092
38962W        W 7367  13.348  21.040   2.107
38963W        W 7368  24.497  10.606  12.087
38964W        W 7369  14.673  12.768   1.646
38965W        W 7370  13.169  24.241  14.048
38966W        W 7371  26.212  37.876  11.973
38967W        W 7372  29.036  38.008  11.960
38968W        W 7373  35.279   0.795   3.631
38969W        W 7374  12.502  29.074   0.287
38970W        W 7375   4.925   0.427  14.880
38971W        W 7376  17.187  14.763   0.647
38972W        W 7377  36.595  20.067  14.487
38973W        W 7378   8.978  37.841  14.246
38974W        W 7379  34.079   3.285   1.378
38975W        W 7380  10.484   8.668  12.421
38976W        W 7381  41.206  37.835  13.377
38977W        W 7382   3.356  40.476  11.695
38978W        W 7383  12.148  39.019  14.478
38979W        W 7384   7.368  32.839  11.124
38980W        W 7385   7.834   9.952   1.880
38981W        W 7386  21.064   4.721  12.122
38982W        W 7387   9.047   2.713  12.269
38983W        W 7388  15.709   9.752  14.838
38984W        W 7389  42.354  25.177  14.407
38985W        W 7390  21.289  24.305   0.810
38986W        W 7391  16.194  24.330   1.217
38987W        W 7392  18.006  20.754   4.796
38988W        W 7393  22.486  26.618   3.172
38989W        W 7394   0.348  36.118   2.844
38990W        W 7395  24.552  19.338  14.362
38991W        W 7396  35.015  23.648  10.399
38992W        W 7397  22.984   5.113  14.842
38993W        W 7398  39.168  11.046   2.283
38994W        W 7399  13.286   0.873  14.241
38995W        W 7400   3.210  14.336  13.055
38996W        W 7401  17.843  36.112   0.817
38997W        W 7402   5.139   6.651   2.089
38998W        W 7403  44.410  28.466   0.454
38999W        W 7404  39.539  42.404  12.365
39000W        W 7405  13.697  11.588  14.243
39001W        W 7406  26.525  13.857  12.935
39002W        W 7407  27.867  26.942  12.130
39003W        W 7408  31.361  21.333   0.070
39004W        W 7409  21.999  18.709  11.181
39005W        W 7410  18.832   1.711  14.084
39006W        W 7411   2.318  10.381  11.382
39007W        W 7412  34.906  43.305  12.948
39008W        W 7413  28.830   3.155   4.553
39009W        W 7414   2.249   8.817   4.144
39010W        W 7415  10.303  42.558   4.224
39011W        W 7416   0.830  10.351   2.960
39012W        W 7417   2.815   0.869   3.264
39013W        W 7418  42.280  29.017  12.796
39014W        W 7419  35.838  44.508   3.644
39015W        W 7420  18.637  31.901   9.830
39016W        W 7421  36.387   0.345  13.073
39017W        W 7422  29.530  43.676  14.914
39018W        W 7423  36.156  10.937   3.906
39019W        W 7424   9.202  39.041   2.264
39020W        W 7425  32.437  22.598   1.272
39021W        W 7426  24.477  34.853   4.169
39022W        W 7427  33.953   8.302  11.532
39023W        W 7428  10.672  39.024  12.022
39024W        W 7429  44.962   9.109  10.949
39025W        W 7430  43.346  18.064  11.095
39026W        W 7431   8.411  21.397   2.395
39027W        W 7432   4.736  19.763  11.162
39028W        W 7433   9.655  26.461   4.273
39029W        W 7434   5.831  43.582  13.992
39030W        W 7435   4.175  37.937   2.726
39031W        W 7436  21.541  12.140   2.819
39032W        W 7437  36.399  40.380  11.992
39033W        W 7438   4.913  22.572   3.685
39034W        W 7439  25.351   5.714   2.337
39035W        W 7440  43.260  17.237   2.228
39036W        W 7441   3.720  11.868   1.445
39037W        W 7442   2.594  41.059  11.165
39038W        W 7443  44.802  36.870  14.930
39039W        W 7444   7.075  14.645  12.288
39040W        W 7445  26.936  37.835   2.733
39041W        W 7446  17.725  44.031   1.091
39042W        W 7447  33.495   8.934  13.494
39043W        W 7448   9.747  36.417   1.417
39044W        W 7449  29.470   1.884   1.261
39045W        W 7450   1.461  38.616  12.157
39046W        W 7451  15.851  33.603  10.994
39047W        W 7452  26.554  43.508   1.680
39048W        W 7453  20.649  40.411   3.236
39049W        W 7454  40.302  39.980  13.792
39050W        W 7455  37.437  43.678  13.308
39051W        W 7456  25.592  21.730   2.226
39052W        W 7457  35.597  13.111   3.155
39053W        W 7458  21.960  36.476  13.240
39054W        W 7459   6.358  26.532   3.161
39055W        W 7460  29.685   9.719  12.087
39056W        W 7461  31.515  40.326   1.858
39057W        W 7462   3.491  22.733  11.530
39058W        W 7463  22.111  13.773  12.965
39059W        W 7464  30.468   8.856  14.385
39060W        W 7465  17.267  39.480   0.416
39061W        W 7466  44.347  41.327  12.121
39062W        W 7467   8.021  17.534   2.230
39063W        W 7468  14.633  17.520  11.686
39064W        W 7469  13.602   7.832  14.918
39065W        W 7470  32.988  29.260   0.101
39066W        W 7471  26.758  39.951   4.166
39067W        W 7472  35.395  39.312  10.778
39068W        W 7473  14.342   8.098   0.354
39069W        W 7474  13.655   3.959  10.682
39070W        W 7475  12.051   2.725   3.368
39071W        W 7476  13.070  23.257   2.461
39072W        W 7477  36.967  21.022  11.706
39073W        W 7478  26.005  35.548  11.113
39074W        W 7479  44.844   1.541  14.873
39075W        W 7480   5.370  37.971   0.038
39076W        W 7481  36.664  41.057  14.089
39077W        W 7482   0.931  17.673  11.641
39078W        W 7483  30.996  42.096  13.294
39079W        W 7484  28.420  22.050   0.272
39080W        W 7485  26.415  25.032  12.068
39081W        W 7486  21.625  24.381  10.151
39082W        W 7487  25.009   4.308  14.792
39083W        W 7488  29.787  29.138   2.779
39084W        W 7489  42.873  26.780   3.601
39085W        W 7490  32.978  28.900   0.490
39086W        W 7491   0.882   8.483  13.985
39087W        W 7492  24.006  24.532  11.142
39088W        W 7493  39.030  32.407   2.679
39089W        W 7494  39.041   9.892   1.762
39090W        W 7495   8.774  30.466   3.980
39091W        W 7496   2.361  41.271  13.873
39092W        W 7497  33.057   5.845  13.285
39093W        W 7498   4.895  22.703  14.755
39094W        W 7499   0.854  38.675   3.757
39095W        W 7500  44.703   9.277  11.378
39096W        W 7501  25.128  40.878   4.423
39097W        W 7502  37.348  40.391   4.194
39098W        W 7503   2.901  25.713  10.861
39099W        W 7504  18.594  41.906   3.826
39100W        W 7505  38.259  29.996   4.655
39101W        W 7506  33.759   5.451  13.503
39102W        W 7507  29.120   0.264   4.807
39103W        W 7508  40.226  29.591   2.690
39104W        W 7509  35.204  11.328  10.729
39105W        W 7510  31.440  15.738   1.860
39106W        W 7511  11.143  44.745  13.370
39107W        W 7512   7.170  41.808  12.109
39108W        W 7513   3.454   6.177  12.060
39109W        W 7514  28.036  17.500   1.338
39110W        W 7515   1.663  25.059  12.582
39111W        W 7516  41.502   7.224   3.717
39112W        W 7517  25.290  38.772   0.230
39113W        W 7518  10.487  27.362  11.178
39114W        W 7519  37.502  10.401   3.291
39115W        W 7520  42.452  40.035  10.625
39116W        W 7521  14.035  14.653  13.451
39117W        W 7522  42.305  35.806  11.526
39118W        W 7523  16.338  35.584   2.567
39119W        W 7524  39.013  36.849   0.849
39120W        W 7525  23.576   0.543  14.904
39121W        W 7526  12.699   1.965  11.855
39122W        W 7527   6.277  43.204   1.194
39123W        W 7528  34.178  40.073   2.463
39124W        W 7529  30.885   2.468   4.065
39125W        W 7530  19.008  25.590   4.691
39126W        W 7531  15.722  39.051   1.084
39127W        W 7532   0.124  34.050   0.776
39128W        W 7533  42.470  32.038   0.159
39129W        W 7534  39.242  31.824  14.922
39130W        W 7535  39.312   2.505   5.445
39131W        W 7536  14.097  10.926  12.343
39132W        W 7537   6.220  23.114  12.846
39133W        W 7538  40.386  25.697   4.886
39134W        W 7539   4.724  21.071   0.380
39135W        W 7540  37.841  23.195   2.460
39136W        W 7541  27.911  42.964  10.013
39137W        W 7542  21.278  41.775   4.554
39138W        W 7543  29.432  43.473   1.851
39139W        W 7544  40.015  11.820   0.907
39140W        W 7545  41.880  14.693   4.493
39141W        W 7546  22.089  22.818  14.385
39142W        W 7547  34.178   2.784   1.379
39143W        W 7548  28.591  32.668  13.990
39144W        W 7549  40.005  35.061  12.839
39145W        W 7550  30.148  44.681  10.748
39146W        W 7551  12.938  38.598   4.109
39147W        W 7552  17.542  44.795  10.684
39148W        W 7553   4.869  39.475  10.887
39149W        W 7554  12.855  26.465  11.065
39150W        W 7555  19.983  11.785  14.453
39151W        W 7556  31.920  43.586   4.203
39152W        W 7557  15.814  37.105   0.585
39153W        W 7558  16.241   4.296   1.956
39154W        W 7559  39.488  12.681   0.939
39155W        W 7560   6.965  44.555  11.081
39156W        W 7561  20.625  26.205  10.897
39157W        W 7562  16.777  40.999  13.604
39158W        W 7563  25.656   0.251   0.860
39159W        W 7564  25.855   5.919  13.527
39160W        W 7565  24.734   7.825   0.332
39161W        W 7566   2.399   2.871   0.358
39162W        W 7567  40.705   9.482  10.706
39163W        W 7568   8.815  41.034   0.337
39164W        W 7569   8.993   7.281  12.373
39165W        W 7570   4.896  10.076  12.200
39166W        W 7571  17.057   5.868  14.949
39167W        W 7572  34.492  37.024   1.716
39168W        W 7573  13.419   4.943   0.515
39169W        W 7574  43.493   3.233   1.982
39170W        W 7575  25.798  38.985  12.377
39171W        W 7576  22.805   2.417   0.420
39172W        W 7577  44.038  40.874   1.750
39173W        W 7578  40.094  37.068  10.934
39174W        W 7579  11.894  26.055   1.847
39175W        W 7580   8.392  25.780  12.966
39176W        W 7581  30.785  27.433  10.708
39177W        W 7582  26.658  13.302   4.671
39178W        W 7583   7.198   9.428   1.431
39179W        W 7584   6.327   0.051   1.017
39180W        W 7585  43.689   7.731   0.753
39181W        W 7586  39.045  22.399  12.006
39182W        W 7587  39.395  26.554   0.395
39183W        W 7588  17.602  31.032   2.133
39184W        W 7589   0.019  23.537  13.477
39185W        W 7590  26.695  15.406   2.764
39186W        W 7591  35.143  40.045  14.467
39187W        W 7592  44.384  15.762  14.541
39188W        W 7593  44.880  13.749   4.336
39189W        W 7594  12.796  18.541   0.970
39190W        W 7595  35.576  24.805   4.665
39191W        W 7596  19.242   3.379  13.533
39192W        W 7597  38.822  20.683   4.238
39193W        W 7598  18.220  24.482  14.101
39194W        W 7599  39.871  30.990  11.798
39195W        W 7600  16.673  16.742   3.885
39196W        W 7601   9.717  35.976  14.007
39197W        W 7602  40.816   0.333   0.778
39198W        W 7603  42.323  23.577   1.623
39199W        W 7604  24.825   2.325   3.223
39200W        W 7605   5.922  22.206  14.505
39201W        W 7606  43.926  26.674   2.323
39202W        W 7607  34.977   6.350  14.810
39203W        W 7608  11.332  31.631  13.876
39204W        W 7609  22.304  37.273  12.901
39205W        W 7610  20.915  24.537  13.853
39206W        W 7611  31.640  30.103   3.692
39207W        W 7612  37.440  35.608  12.516
39208W        W 7613  38.018   2.924   1.397
39209W        W 7614  27.189  11.232   1.925
39210W        W 7615  18.748  41.445  11.996
39211W        W 7616  11.314  12.236  11.503
39212W        W 7617  31.344  39.682  11.965
39213W        W 7618  23.146  30.925  11.572
39214W        W 7619   6.694   9.364   0.012
39215W        W 7620   7.611   1.382   3.429
39216W        W 7621   4.035  28.549   3.215
39217W        W 7622   1.203  34.348   3.809
39218W        W 7623  24.685  38.758   3.323
39219W        W 7624  17.856  23.082  12.553
39220W        W 7625   6.980  24.524   3.406
39221W        W 7626  19.378  37.573  13.861
39222W        W 7627  34.976  30.466  14.433
39223W        W 7628  42.815  13.408  12.306
39224W        W 7629  35.662  44.315   9.907
39225W        W 7630  36.479  42.473   4.117
39226W        W 7631   8.153  33.864   3.610
39227W        W 7632  41.979   3.720  11.454
39228W        W 7633  44.017  32.727   0.186
39229W        W 7634  41.938  27.538   2.860
39230W        W 7635  11.648  30.919  11.602
39231W        W 7636  21.236  12.785  10.746
39232W        W 7637  25.729  43.929   1.452
39233W        W 7638  31.111   9.733  11.896
39234W        W 7639  41.722  42.627  10.174
39235W        W 7640   5.192  23.102   4.545
39236W        W 7641  20.564   9.726  14.724
39237W        W 7642  36.572  40.386   2.114
39238W        W 7643   0.012  17.055  14.616
39239W        W 7644  42.081   5.427   4.730
39240W        W 7645  11.792  36.411   3.039
39241W        W 7646  40.967  44.785  12.128
39242W        W 7647   5.279  25.531  10.782
39243W        W 7648  10.309  16.797   0.285
39244W        W 7649  29.473   6.381   4.312
39245W        W 7650  29.511  16.547   2.965
39246W        W 7651  39.904   0.050  14.012
39247W        W 7652  27.323   4.569   0.688
39248W        W 7653  19.530  38.321   3.110
39249W        W 7654   3.655  10.171  13.581
39250W        W 7655  14.611  35.163   3.069
39251W        W 7656  30.664  34.051  11.212
39252W        W 7657  27.944  31.932  11.168
39253W        W 7658  12.923  43.752  11.063
39254W        W 7659  29.623  29.460  14.806
39255W        W 7660   9.285  15.662  14.603
39256W        W 7661  23.963  27.916  13.970
39257W        W 7662  27.194  38.149  14.524
39258W        W 7663  24.698  20.192  10.727
39259W        W 7664  33.559   2.875   3.324
39260W        W 7665  43.874  16.573  12.463
39261W        W 7666  27.477   4.763   1.456
39262W        W 7667  18.084  26.451   0.972
39263W        W 7668  42.455  21.819  12.114
39264W        W 7669   8.389  43.047  13.086
39265W        W 7670  10.137  44.888   4.407
39266W        W 7671  23.448   6.659   3.568
39267W        W 7672   2.423  42.790   4.098
39268W        W 7673  18.314  30.533  14.296
39269W        W 7674  26.670  38.818  13.810
39270W        W 7675  26.413  40.728  11.572
39271W        W 7676   2.278  27.997  13.308
39272W        W 7677   4.103  17.546  11.132
39273W        W 7678  13.105  10.005  11.551
39274W        W 7679   8.661  17.106  12.428
39275W        W 7680  23.708  13.172   4.253
39276W        W 7681  26.519  13.802  10.809
39277W        W 7682  19.248  36.316   3.844
39278W        W 7683  33.725  40.901   0.983
39279W        W 7684  12.873   9.020  14.826
39280W        W 7685  15.484  39.458  10.785
39281W        W 7686  31.172  39.239   9.884
39282W        W 7687   0.747  37.344  14.276
39283W        W 7688  25.296   2.816  13.998
39284W        W 7689  35.934  43.951   0.970
39285W        W 7690   4.236  39.892   3.233
39286W        W 7691  24.257  36.174   4.759
39287W        W 7692  12.800  42.130   4.189
39288W        W 7693  26.521  17.812  13.564
39289W        W 7694  44.194  11.287   4.533
39290W        W 7695  15.833   8.314  12.690
39291W        W 7696  35.019  44.698  13.788
39292W        W 7697  41.785  40.352  12.540
39293W        W 7698  21.525  25.570   4.700
39294W        W 7699  19.183  38.279  11.157
39295W        W 7700   9.313   5.209   4.074
39296W        W 7701  21.312  43.514   2.836
39297W        W 7702  27.491  39.127  11.793
39298W        W 7703   8.289  41.795  12.598
39299W        W 7704  22.982  33.013   1.321
39300W        W 7705  13.724  13.054   1.548
39301W        W 7706   7.144   1.386   1.417
39302W        W 7707  13.815   4.199   1.240
39303W        W 7708  19.472   4.447  14.922
39304W        W 7709  41.840  28.607   0.977
39305W        W 7710   7.125  24.857  13.318
39306W        W 7711  23.342   6.461  12.942
39307W        W 7712  32.106  17.618  14.293
39308W        W 7713  41.959  22.804  13.574
39309W        W 7714   6.486   5.912   4.330
39310W        W 7715  19.493   5.642   2.426
39311W        W 7716  38.005   2.742   0.596
39312W        W 7717   6.168  17.358   4.191
39313W        W 7718  14.785   1.759  10.183
39314W        W 7719  13.112  14.795   3.531
39315W        W 7720  32.322   4.321   1.078
39316W        W 7721  25.926   1.525   4.632
39317W        W 7722  30.627   0.145  13.797
39318W        W 7723   7.810   7.344  12.561
39319W        W 7724   6.716  19.070   4.663
39320W        W 7725  43.908  37.875   3.267
39321W        W 7726  35.694  40.935  12.968
39322W        W 7727  15.721  16.510   2.925
39323W        W 7728  31.992  18.009  12.508
39324W        W 7729  35.890  35.124   4.598
39325W        W 7730   1.218  41.738   0.422
39326W        W 7731   0.812  23.026  10.292
39327W        W 7732   4.782   5.453  12.558
39328W        W 7733  44.007  30.104  13.945
39329W        W 7734   4.918  19.861  14.883
39330W        W 7735  33.200  33.558  14.723
39331W        W 7736  18.709  35.843   2.342
39332W        W 7737   5.608  10.829   0.335
39333W        W 7738  36.817   6.603   2.400
39334W        W 7739  18.909  31.776  10.253
39335W        W 7740  16.693  43.039   1.374
39336W        W 7741  22.643  25.064   3.672
39337W        W 7742  23.970  34.554   2.611
39338W        W 7743  36.981  37.847  11.238
39339W        W 7744  18.325  25.405  11.061
39340W        W 7745  12.461  31.514   4.155
39341W        W 7746   2.690  21.207   1.156
39342W        W 7747  42.197  42.010  13.065
39343W        W 7748  42.735  28.427  12.005
39344W        W 7749  23.630   4.448  14.881
39345W        W 7750  40.096  40.624  14.367
39346W        W 7751   3.923   4.243  14.694
39347W        W 7752  12.346  36.487   1.246
39348W        W 7753  14.567  33.571  13.409
39349W        W 7754  10.851   6.572  13.952
39350W        W 7755  23.846  10.630   3.751
39351W        W 7756  41.972  25.187   3.801
39352W        W 7757  38.980  41.401   4.715
39353W        W 7758  10.442  15.544  12.454
39354W        W 7759  31.855  37.230   4.575
39355W        W 7760  35.553   0.499  11.975
39356W        W 7761  24.507  16.404  10.838
39357W        W 7762   8.331  20.986   4.603
39358W        W 7763  19.422   6.878   4.058
39359W        W 7764  32.487  28.583   1.065
39360W        W 7765   1.284   5.647  13.850
39361W        W 7766   6.478  37.506   4.625
39362W        W 7767  16.690  26.776   2.266
39363W        W 7768   5.540  32.471   3.257
39364W        W 7769  16.806  38.881  13.044
39365W        W 7770   1.921   0.534   2.835
39366W        W 7771  44.999  16.791  11.136
39367W        W 7772  34.968   1.498   0.434
39368W        W 7773  17.914  24.541   2.418
39369W        W 7774   6.242  14.336  11.188
39370W        W 7775   8.193  25.205  12.374
39371W        W 7776  32.112   0.377  13.700
39372W        W 7777  28.088   9.777  10.107
39373W        W 7778  16.000  12.364   4.112
39374W        W 7779  18.305  21.022  12.024
39375W        W 7780  10.890  13.827  12.368
39376W        W 7781  43.023  37.479   3.581
39377W        W 7782  18.850  32.094  11.478
39378W        W 7783  37.502   8.434   2.901
39379W        W 7784   3.460  14.329   1.407
39380W        W 7785   1.435   4.300   2.809
39381W        W 7786  44.047   9.169  12.521
39382W        W 7787  15.500   5.831  14.192
39383W        W 7788  38.761  16.153  13.808
39384W        W 7789  40.773  16.028  11.192
39385W        W 7790  31.154  10.792  12.969
39386W        W 7791  26.236  17.649  14.005
39387W        W 7792  17.040  21.165   0.394
39388W        W 7793  31.416  19.324   3.726
39389W        W 7794  18.242  22.082   4.017
39390W        W 7795  18.008  19.987   1.777
39391W        W 7796  41.540  36.953  11.912
39392W        W 7797  35.349  15.181   0.913
39393W        W 7798  17.924  39.000  13.525
39394W        W 7799  12.562  34.630  14.271
39395W        W 7800  22.255  10.612   2.289
39396W        W 7801  35.654  27.243  12.661
39397W        W 7802  32.015  16.206   0.843
39398W        W 7803  16.149  17.512  14.420
39399W        W 7804  32.939   5.136  12.060
39400W        W 7805  21.503  38.041  14.291
39401W        W 7806  21.716  35.480  12.087
39402W        W 7807   3.190  41.950   1.365
39403W        W 7808  19.606  27.260  12.829
39404W        W 7809  12.271  35.627   4.716
39405W        W 7810  36.553  40.405   3.653
39406W        W 7811  18.675  12.672  12.989
39407W        W 7812  13.781  14.820  12.992
39408W        W 7813  44.866  36.084   2.102
39409W        W 7814  42.410  24.564  13.042
39410W        W 7815   3.354  22.462   3.940
39411W        W 7816  23.073  31.920   1.856
39412W        W 7817  13.232  28.078  11.484
39413W        W 7818  22.626  42.989  12.645
39414W        W 7819  37.666  20.595  14.308
39415W        W 7820   8.887  25.785   1.700
39416W        W 7821  17.271  43.773  13.294
39417W        W 7822  44.927  12.108  12.367
39418W        W 7823   8.161  20.203  11.156
39419W        W 7824  35.673  43.925   2.316
39420W        W 7825  30.029  42.455   1.720
39421W        W 7826  24.984  21.566   3.918
39422W        W 7827  34.008  34.931  11.584
39423W        W 7828   2.459  33.126   4.907
39424W        W 7829  33.975  22.411   1.345
39425W        W 7830  13.909  20.142  10.756
39426W        W 7831   7.912  14.844   2.498
39427W        W 7832  24.692  29.132  12.530
39428W        W 7833   4.189   3.873   0.866
39429W        W 7834   4.598  14.769  11.965
39430W        W 7835  42.314  38.843  12.452
39431W        W 7836   3.717  19.598  13.104
39432W        W 7837   6.229  26.477  13.297
39433W        W 7838  26.957   6.928  14.389
39434W        W 7839  20.769   7.179   0.812
39435W        W 7840  15.849  31.656  14.473
39436W        W 7841   6.825  15.979  11.161
39437W        W 7842   8.095  11.131   1.336
39438W        W 7843  43.656  29.989   4.938
39439W        W 7844  16.148  24.571   0.011
39440W        W 7845   7.995  18.690   1.965
39441W        W 7846  21.153  14.315   1.888
39442W        W 7847  44.893   6.484  14.369
39443W        W 7848  24.607  36.589   1.294
39444W        W 7849  35.348  13.554   4.255
39445W        W 7850  21.097  26.261   1.753
39446W        W 7851  39.281   6.675  13.678
39447W        W 7852  41.837  34.604  13.388
39448W        W 7853   6.051  23.531  11.223
39449W        W 7854  23.485  18.140   1.845
39450W        W 7855  37.940  37.932   1.281
39451W        W 7856  33.366   3.336   0.929
39452W        W 7857  40.548  19.804   4.316
39453W        W 7858  25.363  31.570   1.749
39454W        W 7859  36.494   6.970   4.504
39455W        W 7860  29.659   3.992  12.570
39456W        W 7861  44.989  23.241   4.118
39457W        W 7862  37.066  19.112   1.828
39458W        W 7863  24.285   9.153  10.558
39459W        W 7864  23.693  28.056   5.003
39460W        W 7865  29.983   8.233   2.096
39461W        W 7866  12.318  24.970   3.746
39462W        W 7867  16.784  21.750  11.003
39463W        W 7868  15.770  18.466  12.628
39464W        W 7869   2.321  28.127  11.924
39465W        W 7870  29.103  14.113   2.227
39466W        W 7871  38.634   5.335   0.847
39467W        W 7872  44.312  40.774  10.767
39468W        W 7873   1.886  21.431   2.493
39469W        W 7874  31.113  36.635  14.345
39470W        W 7875   2.282   2.477  13.011
39471W        W 7876   4.291  42.721  13.008
39472W        W 7877  35.065  32.703  11.218
39473W        W 7878  22.008  31.632  12.877
39474W        W 7879  26.563  25.195   3.133
39475W        W 7880  42.410   2.952   1.195
39476W        W 7881  29.152   7.863   4.498
39477W        W 7882  31.458  33.543  14.214
39478W        W 7883  43.410  34.603   0.515
39479W        W 7884  14.181  29.166   2.276
39480W        W 7885   6.465  19.764   2.458
39481W        W 7886  23.705  26.016  13.823
39482W        W 7887   1.680   7.393  14.327
39483W        W 7888  35.323  18.365  13.393
39484W        W 7889  43.614   2.040  14.391
39485W        W 7890  39.048   7.159   4.281
39486W        W 7891  12.916  41.061  13.419
39487W        W 7892  17.387  29.797  14.916
39488W        W 7893  19.096  31.350   1.217
39489W        W 7894   6.695  32.164   0.431
39490W        W 7895   3.353  42.272   3.828
39491W        W 7896  15.830   3.500  10.624
39492W        W 7897  13.009   0.271  14.915
39493W        W 7898  28.254  25.345  11.136
39494W        W 7899  14.657  27.554   4.511
39495W        W 7900   1.848   0.244  12.455
39496W        W 7901  16.066  35.692  14.304
39497W        W 7902  32.566   5.205   0.754
39498W        W 7903  17.549  36.890  10.759
39499W        W 7904  12.595  32.086   1.025
39500W        W 7905  32.024  27.717   3.743
39501W        W 7906  30.447  33.391   1.368
39502W        W 7907  29.742   2.641  14.937
39503W        W 7908  39.429  33.493   2.250
39504W        W 7909  20.485  38.415   1.671
39505W        W 7910  44.266  28.155   5.266
39506W        W 7911  14.177   4.892  10.837
39507W        W 7912  16.480  26.866   3.145
39508W        W 7913  43.496  14.489  10.552
39509W        W 7914  42.131  11.589  13.327
39510W        W 7915   7.947  13.056   1.351
39511W        W 7916   3.278  19.714  11.462
39512W        W 7917   8.310  26.029  11.119
39513W        W 7918  41.512  25.580  12.985
39514W        W 7919  37.485  44.209   4.979
39515W        W 7920  16.018  14.373   1.193
39516W        W 7921  14.500  18.258   0.409
39517W        W 7922  32.180  32.311   2.250
39518W        W 7923  36.668  11.913  12.118
39519W        W 7924   1.407  28.433   3.202
39520W        W 7925   7.744  43.963  13.039
39521W        W 7926  15.800  42.558   1.211
39522W        W 7927  12.627  10.929   4.098
39523W        W 7928   5.668  27.365   2.679
39524W        W 7929  15.264  22.254  13.961
39525W        W 7930  25.051  40.104   0.679
39526W        W 7931  24.492  34.334   0.828
39527W        W 7932  25.715  21.766   0.241
39528W        W 7933  11.650  27.145  11.577
39529W        W 7934  29.419  10.346   3.862
39530W        W 7935  26.924  27.024   2.668
39531W        W 7936  38.242  19.222  10.546
39532W        W 7937  14.236  44.435   0.832
39533W        W 7938  39.603  44.294  14.008
39534W        W 7939  22.720  20.229   1.230
39535W        W 7940   5.951  44.934   0.162
39536W        W 7941  19.342  22.045   3.316
39537W        W 7942  35.967  19.265   0.358
39538W        W 7943   0.265  12.881  12.048
39539W        W 7944  38.034   0.890  12.037
39540W        W 7945  36.332   2.194   3.275
39541W        W 7946   1.871   8.109  13.427
39542W        W 7947  11.391  31.262   2.792
39543W        W 7948  40.856   4.940   2.298
39544W        W 7949  26.556  21.764  11.578
39545W        W 7950   2.888  43.132  13.084
39546W        W 7951  23.622   8.152  11.488
39547W        W 7952  30.408  38.306  14.251
39548W        W 7953  44.466  34.585  12.947
39549W        W 7954  36.863   2.296   3.710
39550W        W 7955  13.678  33.328   2.770
39551W        W 7956  38.366   5.350  10.743
39552W        W 7957   8.809  12.620   4.771
39553W        W 7958  21.156  17.323   2.751
39554W        W 7959  36.136  40.507   2.369
39555W        W 7960  19.956   7.389  12.454
39556W        W 7961   7.346  44.236   4.268
39557W        W 7962  15.190  43.422   0.549
39558W        W 7963  21.702  30.580   1.490
39559W        W 7964  32.175  28.506  12.100
39560W        W 7965  22.483  21.439  10.558
39561W        W 7966  41.793  39.320  12.605
39562W        W 7967  11.771  20.453  11.990
39563W        W 7968   2.782  26.101   4.817
39564W        W 7969  23.046   4.634  11.987
39565W        W 7970  33.935  42.870   0.668
39566W        W 7971  22.599  38.559  14.977
39567W        W 7972   5.828  16.211  10.698
39568W        W 7973  14.309  23.479  14.160
39569W        W 7974  16.796  36.132   4.575
39570W        W 7975  36.576  33.633   3.659
39571W        W 7976  18.202  43.392   1.606
39572W        W 7977  19.275  34.874  13.115
39573W        W 7978   9.349   0.315  12.002
39574W        W 7979  10.866  19.118   4.780
39575W        W 7980  24.662  23.714  12.864
39576W        W 7981  44.303  33.353  13.490
39577W        W 7982  35.924   0.841   1.329
39578W        W 7983  37.102  13.292  13.945
39579W        W 7984  21.400  37.116   0.950
39580W        W 7985   9.212  25.038  14.565
39581W        W 7986  34.982  34.560  12.257
39582W        W 7987  19.583  20.240  12.124
39583W        W 7988  15.741  43.245   2.825
39584W        W 7989  28.874  15.147   1.788
39585W        W 7990  35.011  41.331   3.707
39586W        W 7991  13.218   2.490   4.805
39587W        W 7992  31.972  22.462  11.186
39588W        W 7993  30.319  29.994   0.215
39589W        W 7994  27.576  44.839   1.405
39590W        W 7995   8.239  28.081   0.498
39591W        W 7996  30.957  19.668   0.442
39592W        W 7997  30.489  11.348  13.190
39593W        W 7998   3.506  41.254  11.150
39594W        W 7999  34.237   4.128   3.794
39595W        W 8000  10.673  13.315  13.184
39596W        W 8001  22.835  22.529   2.083
39597W        W 8002   4.434  30.171  11.605
39598W        W 8003   1.117  37.218  12.875
39599W        W 8004  25.531  12.620   1.699
39600W        W 8005   8.185  24.060  15.000
39601W        W 8006  27.939  36.909  12.866
39602W        W 8007  40.442  19.166   1.917
39603W        W 8008  23.564  20.301   1.123
39604W        W 8009  29.437  33.535   3.919
39605W        W 8010  36.957  39.454   4.593
39606W        W 8011  21.114  13.266   1.749
39607W        W 8012   6.265  27.911   4.595
39608W        W 8013  26.518  21.646  14.015
39609W        W 8014  14.120   7.139   0.285
39610W        W 8015  14.693  27.232   0.490
39611W        W 8016  31.577   5.352  12.007
39612W        W 8017  15.714  38.627  11.218
39613W        W 8018  32.007  40.739   2.802
39614W        W 8019  15.286  24.143   0.449
39615W        W 8020   1.640   1.878   4.277
39616W        W 8021  12.192  21.282  10.773
39617W        W 8022   9.713  38.247   4.608
39618W        W 8023  24.127  36.457   3.163
39619W        W 8024  24.343  39.627  12.138
39620W        W 8025  15.247  28.035   2.366
39621W        W 8026  16.107  44.266   1.320
39622W        W 8027  41.907  16.588   0.780
39623W        W 8028  37.789  26.133   4.468
39624W        W 8029  22.774  29.978   2.679
39625W        W 8030  18.541   7.254   2.259
39626W        W 8031  14.566   4.392  10.779
39627W        W 8032  12.730   7.999   3.323
39628W        W 8033  21.631  39.149   0.625
39629W        W 8034  42.538  29.599   0.431
39630W        W 8035  25.641  40.059   2.318
39631W        W 8036  36.374  34.088   0.939
39632W        W 8037  22.044  39.799  13.897
39633W        W 8038  11.454  26.701   1.084
39634W        W 8039  34.879  32.946   3.154
39635W        W 8040  34.488  37.706  13.621
39636W        W 8041  18.882  40.104  14.776
39637W        W 8042   5.642  26.028   2.381
39638W        W 8043  31.100  33.756  11.056
39639W        W 8044   7.222  31.073  12.599
39640W        W 8045  24.836  20.301   1.684
39641W        W 8046   0.037  43.490  11.160
39642W        W 8047  21.969  42.189   4.671
39643W        W 8048  16.054   2.818   3.271
39644W        W 8049  23.765  13.215  11.675
39645W        W 8050  39.854   6.838   4.852
39646W        W 8051   9.478  38.745   9.717
39647W        W 8052  38.571  16.015   0.706
39648W        W 8053  28.573  40.278  13.021
39649W        W 8054  30.654  40.984   4.549
39650W        W 8055   7.314  30.007  10.567
39651W        W 8056  41.897  43.008   0.435
39652W        W 8057  17.800  10.256  12.484
39653W        W 8058  35.588  24.932   2.692
39654W        W 8059  34.553   2.232   1.289
39655W        W 8060  25.618  29.799  12.034
39656W        W 8061  41.072   3.382   2.352
39657W        W 8062  30.432  44.639   4.018
39658W        W 8063  41.478  30.226   3.156
39659W        W 8064  18.781  37.978   1.192
39660W        W 8065   3.327  17.291   0.238
39661W        W 8066  38.227  13.150  11.347
39662W        W 8067  24.602  41.693  11.265
39663W        W 8068  19.736  35.547  12.891
39664W        W 8069  42.140  24.436   0.336
39665W        W 8070  38.517  25.193  13.462
39666W        W 8071  37.026  22.054   3.120
39667W        W 8072  33.198  44.774  13.809
39668W        W 8073  14.646   5.942   1.424
39669W        W 8074  31.364  20.721  12.781
39670W        W 8075  35.125  23.129  11.730
39671W        W 8076  27.664  38.871  10.093
39672W        W 8077  32.387   3.784   4.016
39673W        W 8078  17.002  35.542   4.163
39674W        W 8079  20.314  22.716   5.392
39675W        W 8080  10.890  11.227  11.512
39676W        W 8081  17.494   7.766  10.671
39677W        W 8082  27.122  44.575  11.187
39678W        W 8083  35.501  39.439   4.643
39679W        W 8084  19.141  23.209   4.044
39680W        W 8085  32.923   8.415  13.901
39681W        W 8086  36.304  31.404   2.716
39682W        W 8087   4.397  11.934  12.041
39683W        W 8088  36.713   2.793  10.061
39684W        W 8089  34.987  21.763  14.224
39685W        W 8090  10.581  37.492   0.153
39686W        W 8091  13.851  27.081   0.398
39687W        W 8092  15.206  14.339  11.209
39688W        W 8093  20.319   6.363   1.220
39689W        W 8094  36.452  28.042  14.774
39690W        W 8095   5.154  38.427  12.495
39691W        W 8096  41.403  15.311   3.856
39692W        W 8097  25.211  19.451  10.630
39693W        W 8098   0.968  17.472   0.512
39694W        W 8099   5.766  20.054  13.477
39695W        W 8100   9.655  13.905   9.541
39696W        W 8101  32.925  26.572  10.735
39697W        W 8102  42.281  10.695   1.852
39698W        W 8103   1.389   2.469  12.601
39699W        W 8104   7.439  21.074   2.318
39700W        W 8105  39.340   3.224  11.380
39701W        W 8106  18.246  16.052  12.569
39702W        W 8107  43.439  41.916   1.212
39703W        W 8108  30.951  25.433  10.694
39704W        W 8109  31.947   0.878   4.627
39705W        W 8110  34.374  23.657   0.084
39706W        W 8111  39.473  41.252   4.626
39707W        W 8112  36.365  36.138  12.591
39708W        W 8113  38.595   4.986  12.540
39709W        W 8114   3.719  22.627  13.282
39710W        W 8115  35.618  12.408  13.498
39711W        W 8116  37.515  35.164   1.889
39712W        W 8117  35.389  27.517   3.255
39713W        W 8118  33.075  14.744   3.653
39714W        W 8119  43.052  26.256   2.980
39715W        W 8120  25.662   7.807   0.016
39716W        W 8121   8.912  23.525  14.988
39717W        W 8122  24.246  34.685  13.099
39718W        W 8123   4.112  11.559   1.653
39719W        W 8124  14.383  22.540   3.657
39720W        W 8125   8.233   6.992  14.609
39721W        W 8126  38.467  37.509  10.946
39722W        W 8127   0.384  28.024  13.359
39723W        W 8128  17.250   0.783  14.436
39724W        W 8129  20.817  18.657   2.560
39725W        W 8130  44.825  44.108  13.016
39726W        W 8131  24.662  22.926   4.761
39727W        W 8132  41.419  12.409   3.971
39728W        W 8133  23.216  22.837  10.798
39729W        W 8134  16.971   1.959  12.929
39730W        W 8135   1.709  33.605   0.330
39731W        W 8136   1.090  13.805   2.567
39732W        W 8137  33.447  32.415   0.265
39733W        W 8138   6.169  35.138   1.762
39734W        W 8139   7.151  23.966  14.564
39735W        W 8140   3.793  15.370  12.052
39736W        W 8141  37.674  11.230   3.845
39737W        W 8142  30.062  22.758   0.015
39738W        W 8143  30.641  40.441   1.267
39739W        W 8144  25.163  32.131   3.176
39740W        W 8145   9.369  17.443   4.269
39741W        W 8146  14.324   6.406  14.289
39742W        W 8147  30.892  16.595  14.884
39743W        W 8148  16.215   3.413   0.945
39744W        W 8149  25.471  32.003   4.960
39745W        W 8150  34.469  40.943   2.951
39746W        W 8151   3.183  30.451  11.064
39747W        W 8152  25.431  33.627  12.903
39748W        W 8153  19.283  43.808   3.264
39749W        W 8154  26.902  40.536   3.840
39750W        W 8155   6.625  35.521   2.119
39751W        W 8156  23.510  25.472  12.466
39752W        W 8157   6.061  42.428  12.142
39753W        W 8158  31.831  34.054  13.351
39754W        W 8159  22.548  10.582  13.120
39755W        W 8160  31.169  17.510   1.361
39756W        W 8161   7.644  44.818  10.586
39757W        W 8162  42.236  23.133  10.971
39758W        W 8163  39.867  14.675  13.958
39759W        W 8164  39.940  33.336   1.768
39760W        W 8165   6.628  24.081  13.996
39761W        W 8166  13.463   9.362   3.680
39762W        W 8167  43.425  27.504   3.126
39763W        W 8168   6.934  15.113  11.960
39764W        W 8169  40.503  31.679  12.237
39765W        W 8170  31.323  22.506  11.688
39766W        W 8171  11.907  16.665  10.996
39767W        W 8172  25.019  36.861   4.511
39768W        W 8173  20.607  44.777  14.757
39769W        W 8174  24.323  10.841  12.491
39770W        W 8175  35.402   9.472   0.431
39771W        W 8176  36.324  41.470   4.066
39772W        W 8177  18.115  32.647   2.109
39773W        W 8178  33.349   1.782  11.794
39774W        W 8179  20.756   6.172   0.377
39775W        W 8180  13.086   9.433   2.765
39776W        W 8181   8.259  10.134   2.914
39777W        W 8182  37.590  34.573   1.265
39778W        W 8183  18.300  13.451  11.154
39779W        W 8184  16.103  13.158  14.844
39780W        W 8185   7.058   9.640  11.512
39781W        W 8186   5.651   0.780   0.738
39782W        W 8187  41.461  34.416  12.044
39783W        W 8188  34.490  41.726   4.431
39784W        W 8189  20.613   1.784  10.894
39785W        W 8190   8.711  19.358   1.528
39786W        W 8191  12.175  32.923  11.620
39787W        W 8192  22.221  36.936   4.202
39788W        W 8193  10.364  32.020   0.735
39789W        W 8194  42.957  36.649   4.198
39790W        W 8195   2.466   0.449  14.914
39791W        W 8196  13.188   1.956   2.302
39792W        W 8197  41.417  39.766  14.270
39793W        W 8198   1.548  21.629  12.628
39794W        W 8199   1.900  14.800   2.258
39795W        W 8200  32.120   9.335   2.448
39796W        W 8201  30.478  16.818   2.350
39797W        W 8202   6.266  18.401  13.865
39798W        W 8203   7.331  14.930  14.348
39799W        W 8204  14.717  28.626  14.402
39800W        W 8205  31.616  12.988   1.481
39801W        W 8206   5.015  36.657  13.941
39802W        W 8207  31.155  28.082   0.931
39803W        W 8208   7.368  25.570  12.416
39804W        W 8209  23.656  43.942   0.531
39805W        W 8210  29.557  28.285  12.549
39806W        W 8211  20.230   7.793   3.818
39807W        W 8212   5.004  25.550   0.969
39808W        W 8213   3.826  37.464   1.008
39809W        W 8214  30.000  42.561  13.311
39810W        W 8215  33.355  35.115   2.836
39811W        W 8216   9.527  28.977   0.965
39812W        W 8217  12.912   5.864   4.448
39813W        W 8218   9.914  21.226   1.403
39814W        W 8219  34.150  43.307   2.685
39815W        W 8220   5.005   0.037  13.501
39816W        W 8221  41.406  26.296   0.201
39817W        W 8222  27.328  16.818  12.469
39818W        W 8223  30.438   4.963  11.162
39819W        W 8224  15.376  14.938  12.960
39820W        W 8225   1.879  30.510   0.555
39821W        W 8226  33.092  10.665   2.415
39822W        W 8227  10.420  18.775  14.388
39823W        W 8228  35.938  38.379   3.138
39824W        W 8229  38.233  22.609   2.755
39825W        W 8230  35.692  29.175  12.539
39826W        W 8231   0.452  19.882   3.587
39827W        W 8232  10.019   8.216   4.710
39828W        W 8233  25.042  31.707  13.164
39829W        W 8234  30.892  27.181  11.123
39830W        W 8235  19.056  39.824  11.597
39831W        W 8236  21.704  30.619   4.244
39832W        W 8237  41.266  23.928  11.129
39833W        W 8238  15.607  42.191  10.751
39834W        W 8239   7.153  14.343   2.292
39835W        W 8240  18.175  34.819  11.640
39836W        W 8241  38.171  40.543   2.852
39837W        W 8242  28.528   1.015  13.883
39838W        W 8243  40.966  33.139  14.779
39839W        W 8244  41.843   1.878   3.196
39840W        W 8245  29.638  33.906   1.258
39841W        W 8246  32.350   3.863  11.487
39842W        W 8247   7.238  44.742   4.141
39843W        W 8248  26.430   5.016   1.355
39844W        W 8249   1.388  24.387   0.828
39845W        W 8250  44.722  23.507  13.897
39846W        W 8251   2.011  40.196  14.920
39847W        W 8252  10.289  12.678  12.537
39848W        W 8253  31.983  36.629  14.756
39849W        W 8254  37.039  10.877  11.656
39850W        W 8255  11.890   9.349   3.753
39851W        W 8256   6.775  30.930  13.931
39852W        W 8257   6.022  28.826  14.541
39853W        W 8258  32.023   8.817   2.716
39854W        W 8259   2.799  16.391   2.526
39855W        W 8260  20.536   6.659   0.744
39856W        W 8261  29.483  12.473  13.428
39857W        W 8262  14.400  19.221   4.354
39858W        W 8263  23.925  23.658  12.120
39859W        W 8264   1.281  40.416   0.747
39860W        W 8265  43.997   9.066  10.788
39861W        W 8266  30.518   9.883  10.711
39862W        W 8267  24.067   0.159  10.493
39863W        W 8268  34.113  38.975   0.661
39864W        W 8269  27.664  26.495   0.985
39865W        W 8270  24.905  30.602   1.346
39866W        W 8271  13.172  37.887  14.776
39867W        W 8272  30.504  27.643   4.396
39868W        W 8273   3.773  14.458   0.387
39869W        W 8274  22.537  19.674   0.379
39870W        W 8275  43.448  15.455   3.160
39871W        W 8276  36.677  29.400  12.077
39872W        W 8277  38.274  29.413  13.978
39873W        W 8278  22.083  20.450  11.378
39874W        W 8279  29.180  17.182  13.472
39875W        W 8280   1.431  19.235  11.001
39876W        W 8281  17.348  32.178   0.978
39877W        W 8282  11.814  39.219   0.343
39878W        W 8283  24.171  43.814  11.909
39879W        W 8284  16.096  17.594   2.344
39880W        W 8285  33.113  28.855  12.488
39881W        W 8286  39.924  29.379  13.949
39882W        W 8287  28.667  26.312  11.981
39883W        W 8288  36.661   8.807   1.319
39884W        W 8289  31.793  40.002   0.247
39885W        W 8290  38.524  38.268   2.010
39886W        W 8291  19.537  39.596   4.037
39887W        W 8292  34.402  30.079  10.702
39888W        W 8293  12.100  33.988  11.604
39889W        W 8294  43.425  23.840  12.993
39890W        W 8295   7.444   9.497   4.746
39891W        W 8296   3.686  41.402   2.875
39892W        W 8297  13.883  16.796  11.194
39893W        W 8298  39.521  39.257   4.534
39894W        W 8299  20.882  27.120   3.674
39895W        W 8300  26.209  20.451  11.605
39896W        W 8301  40.186   6.142  12.896
39897W        W 8302  31.405  25.573   3.882
39898W        W 8303  37.601  10.109  10.696
39899W        W 8304  24.577  19.695   0.342
39900W        W 8305  17.581   5.917   0.719
39901W        W 8306  32.136  41.332  14.501
39902W        W 8307  15.105  39.606   2.235
39903W        W 8308  18.242  33.542   1.036
39904W        W 8309  16.550   4.899  12.995
39905W        W 8310   4.743  12.830  13.664
39906W        W 8311   0.909  34.473   1.309
39907W        W 8312  27.727  30.943  13.052
39908W        W 8313   2.812  11.100   3.692
39909W        W 8314  31.637  37.042  11.155
39910W        W 8315  41.913  18.424  14.420
39911W        W 8316  40.309   7.715  13.825
39912W        W 8317  20.840  11.424   3.656
39913W        W 8318  11.824  22.566   2.400
39914W        W 8319  13.731   1.280   1.424
39915W        W 8320  34.636  30.378  12.015
39916W        W 8321  29.481  24.668  12.043
39917W        W 8322  11.091  12.555   1.424
39918W        W 8323  29.939   3.342   0.353
39919W        W 8324  22.520   6.835  11.179
39920W        W 8325  27.485  27.303  11.131
39921W        W 8326  24.675  43.088  13.044
39922W        W 8327  39.853  39.790  10.754
39923W        W 8328  10.373  15.234   4.011
39924W        W 8329  15.802  22.415  13.042
39925W        W 8330  16.712  34.554   2.852
39926W        W 8331   8.675   0.452  14.898
39927W        W 8332  18.070  32.460   1.627
39928W        W 8333  22.519  31.940  12.628
39929W        W 8334   7.176  18.683  13.404
39930W        W 8335  42.245   5.762   3.409
39931W        W 8336  39.345   9.160   3.703
39932W        W 8337  40.093  41.789  11.088
39933W        W 8338   4.398  29.522   1.301
39934W        W 8339   4.939  33.099   0.699
39935W        W 8340  26.427  44.475   4.129
39936W        W 8341  26.638  12.404   2.211
39937W        W 8342   1.750  39.595  14.384
39938W        W 8343   0.303  27.652  11.124
39939W        W 8344  36.358  12.371  11.071
39940W        W 8345  32.880  32.498   3.244
39941W        W 8346  10.660   2.824   2.238
39942W        W 8347  11.154  17.166   2.794
39943W        W 8348  21.429  41.525  14.912
39944W        W 8349  24.586   8.196   2.450
39945W        W 8350  39.400   6.165   5.072
39946W        W 8351  19.968  22.054   1.952
39947W        W 8352  33.055  24.206   2.185
39948W        W 8353  29.056  41.406   1.305
39949W        W 8354  36.279  20.188  13.447
39950W        W 8355   9.819   9.784   0.242
39951W        W 8356  31.510   6.353  14.355
39952W        W 8357  37.623  37.936  12.900
39953W        W 8358  23.587  27.702   4.521
39954W        W 8359   5.407   3.418  13.887
39955W        W 8360  33.082  12.803  11.073
39956W        W 8361  42.998  36.391   2.491
39957W        W 8362   9.762   9.786  10.954
39958W        W 8363  39.770  41.039  14.401
39959W        W 8364   5.321  21.241  10.431
39960W        W 8365  24.935  15.076  10.475
39961W        W 8366  33.250  17.698   1.346
39962W        W 8367  22.299   9.844  12.444
39963W        W 8368   2.703  37.012  13.605
39964W        W 8369   2.392  35.816  11.677
39965W        W 8370  31.004  35.260   3.361
39966W        W 8371  23.160  24.521   4.060
39967W        W 8372  32.716  23.512   4.484
39968W        W 8373  32.932  12.240  14.756
39969W        W 8374   5.965  26.710  11.613
39970W        W 8375   3.753   6.397   0.379
39971W        W 8376  28.046  15.518   5.716
39972W        W 8377   5.594  26.297   3.660
39973W        W 8378   5.236  15.184  12.661
39974W        W 8379   2.218  24.470  11.162
39975W        W 8380  44.363  42.634   4.093
39976W        W 8381   6.339  35.022   4.613
39977W        W 8382  37.912  32.347   4.789
39978W        W 8383  12.741  20.859   2.844
39979W        W 8384  30.997  10.788   1.963
39980W        W 8385  20.685   7.748  14.255
39981W        W 8386   2.923  21.618   0.316
39982W        W 8387   4.962  26.695  14.014
39983W        W 8388  38.318  18.259   1.413
39984W        W 8389   0.198  20.949   1.047
39985W        W 8390  29.433  23.539  11.562
39986W        W 8391  12.907  40.309   0.778
39987W        W 8392  43.219  29.005   3.604
39988W        W 8393  18.212   8.142  13.734
39989W        W 8394  41.452  26.872  12.524
39990W        W 8395  38.832  14.560   4.641
39991W        W 8396   1.735  16.020  14.836
39992W        W 8397  22.126  25.626   3.359
39993W        W 8398   6.761   8.318   1.781
39994W        W 8399  28.108   7.502  14.995
39995W        W 8400  32.594  18.141   3.920
39996W        W 8401  12.460  36.116   1.596
39997W        W 8402  21.843  31.063  14.448
39998W        W 8403  35.786  23.696   1.429
39999W        W 8404  16.368  24.938  14.335
40000W        W 8405  22.718  35.268  13.852
40001W        W 8406   5.641  18.198   0.061
40002W        W 8407  39.194  29.569   2.258
40003W        W 8408  27.205  14.836  11.194
40004W        W 8409  11.167  40.032  12.532
40005W        W 8410  22.513  13.618  10.644
40006W        W 8411  29.968  32.827  11.926
40007W        W 8412   1.149  10.873  13.309
40008W        W 8413   1.752  43.976   2.928
40009W        W 8414  11.916  37.571   1.265
40010W        W 8415   2.227  32.220   0.399
40011W        W 8416  29.257  41.043  14.881
40012W        W 8417   3.726  13.196   0.935
40013W        W 8418  20.354  23.793  11.407
40014W        W 8419  14.600   5.676   0.487
40015W        W 8420  16.188  26.569   1.832
40016W        W 8421   5.864   1.938  13.869
40017W        W 8422  19.531  30.453  13.187
40018W        W 8423  27.548  13.770   3.172
40019W        W 8424  35.897  35.943   1.391
40020W        W 8425   1.882  42.817   1.822
40021W        W 8426   4.720  15.490  11.480
40022W        W 8427  37.908  15.943   0.597
40023W        W 8428  21.228  29.063   0.300
40024W        W 8429   5.571  32.591   0.850
40025W        W 8430  34.328   9.855  14.278
40026W        W 8431   6.243  26.096  14.114
40027W        W 8432  36.587  14.868   0.405
40028W        W 8433  39.818  30.309  12.070
40029W        W 8434  14.760  23.644  14.372
40030W        W 8435   3.250  10.814   4.097
40031W        W 8436  20.589  13.027  12.983
40032W        W 8437  15.656  27.706   2.234
40033W        W 8438   9.351  40.547   0.006
40034W        W 8439  34.164  30.422  14.968
40035W        W 8440  28.078   2.638   1.413
40036W        W 8441   5.199  18.752   2.876
40037W        W 8442  16.886  30.047  13.940
40038W        W 8443  10.651  28.933  12.224
40039W        W 8444  44.896  32.590  11.970
40040W        W 8445   2.826  17.918  12.196
40041W        W 8446  12.139  14.977  11.462
40042W        W 8447  13.836   8.255  13.824
40043W        W 8448  10.212  23.516  11.595
40044W        W 8449  26.213  22.991  11.707
40045W        W 8450  44.254  34.090   4.525
40046W        W 8451  40.147  19.281  14.463
40047W        W 8452  24.607  40.950  13.253
40048W        W 8453  23.865   1.379   1.707
40049W        W 8454  25.997  14.765   0.411
40050W        W 8455  29.238   2.675  11.183
40051W        W 8456  25.869   6.716  10.758
40052W        W 8457   8.054  37.908   2.345
40053W        W 8458  18.147   1.335  11.616
40054W        W 8459   2.419  33.303  10.648
40055W        W 8460   2.788  34.467  13.566
40056W        W 8461  10.753   3.307   2.735
40057W        W 8462   8.603  41.233   1.256
40058W        W 8463  16.198  22.098   4.155
40059W        W 8464  35.827   5.869  12.994
40060W        W 8465  28.904  31.778  11.973
40061W        W 8466  37.891  40.428  13.326
40062W        W 8467  37.521  36.156   0.864
40063W        W 8468  29.532  32.212  10.825
40064W        W 8469  29.189  13.091  11.995
40065W        W 8470  36.624   1.373  10.627
40066W        W 8471  43.528   6.851   0.884
40067W        W 8472  20.535  32.209   3.307
40068W        W 8473  44.204  24.492  14.052
40069W        W 8474  34.346   3.567   0.812
40070W        W 8475  25.717   6.761  12.985
40071W        W 8476  10.564  17.070   0.669
40072W        W 8477  14.744  39.097  10.732
40073W        W 8478  39.836   0.648  11.897
40074W        W 8479   5.932   4.334   1.217
40075W        W 8480   4.704   9.202   0.428
40076W        W 8481  29.741   0.798   1.738
40077W        W 8482  11.650  35.273   5.106
40078W        W 8483  35.097  25.787   1.775
40079W        W 8484  11.203   7.139   2.351
40080W        W 8485  23.488  38.538   2.001
40081W        W 8486  43.328  26.499  12.016
40082W        W 8487   2.217  27.986  14.434
40083W        W 8488  18.543  37.581   0.984
40084W        W 8489  34.930  14.531   4.796
40085W        W 8490  34.097  10.601   2.396
40086W        W 8491  36.314  38.251  13.222
40087W        W 8492  42.980  20.252   5.158
40088W        W 8493  13.373   3.682  14.001
40089W        W 8494  23.485  35.498   0.734
40090W        W 8495   1.349  13.015   4.326
40091W        W 8496  21.016  17.138   5.033
40092W        W 8497  39.219   1.742   4.130
40093W        W 8498  12.686   6.776  13.167
40094W        W 8499  41.687  12.592  10.868
40095W        W 8500   2.848  13.698   1.582
40096W        W 8501  18.033   6.685   4.017
40097W        W 8502  22.259  23.452   0.520
40098W        W 8503   9.520  11.224   4.775
40099W        W 8504   7.888  11.845  11.609
40100W        W 8505  12.722  32.171   1.520
40101W        W 8506   8.769  15.928  13.831
40102W        W 8507  15.387  10.111   4.141
40103W        W 8508  19.816   0.895  14.492
40104W        W 8509  27.797  41.387   4.563
40105W        W 8510   6.184  28.687  12.701
40106W        W 8511  24.611  37.473   4.119
40107W        W 8512   2.355   0.701   2.291
40108W        W 8513  43.373  26.493   2.398
40109W        W 8514  13.865   4.667  14.306
40110W        W 8515   1.014  38.985  13.371
40111W        W 8516  10.170   1.855  13.418
40112W        W 8517   2.442  28.063   1.771
40113W        W 8518   6.605  15.619   3.999
40114W        W 8519  23.598   6.407  13.402
40115W        W 8520  37.495  20.337   3.923
40116W        W 8521  37.051  43.726  11.092
40117W        W 8522  25.966  35.661  13.389
40118W        W 8523  36.808  14.769   2.213
40119W        W 8524  40.794   2.692   2.620
40120W        W 8525  33.925  40.441   3.825
40121W        W 8526  33.226  22.620   1.742
40122W        W 8527  24.123  38.460  10.790
40123W        W 8528  34.000  30.646  14.372
40124W        W 8529   9.770  38.064  12.656
40125W        W 8530  18.174  44.683   2.388
40126W        W 8531  22.415  35.340   2.224
40127W        W 8532   3.509  37.132   1.224
40128W        W 8533   3.805   6.799  13.003
40129W        W 8534  18.304  36.471  10.939
40130W        W 8535  15.543  31.568   5.071
40131W        W 8536   4.848  44.502   4.355
40132W        W 8537   0.812  26.861  14.945
40133W        W 8538  34.141   1.809   2.146
40134W        W 8539  25.082  14.177  13.906
40135W        W 8540  27.065  13.723   4.887
40136W        W 8541  21.748  15.223  12.099
40137W        W 8542  30.963  31.113   1.428
40138W        W 8543  29.539   9.292   1.430
40139W        W 8544  28.080   8.800   2.298
40140W        W 8545  42.530  21.918   4.613
40141W        W 8546  37.335  43.736  12.442
40142W        W 8547  38.513  41.435  10.747
40143W        W 8548  24.728  28.733  14.830
40144W        W 8549  13.195  11.056   4.081
40145W        W 8550  44.801  42.311  10.739
40146W        W 8551  36.330  13.679  10.792
40147W        W 8552  42.269   5.709  13.312
40148W        W 8553  43.199  11.768  12.910
40149W        W 8554   0.817  24.099  12.949
40150W        W 8555  41.268  17.566   3.050
40151W        W 8556  19.295   4.715   1.925
40152W        W 8557  14.177  37.454  13.309
40153W        W 8558  33.425  15.660  10.615
40154W        W 8559  43.957   3.323  14.427
40155W        W 8560  42.958   4.130  13.070
40156W        W 8561   9.768  36.652   3.681
40157W        W 8562  37.591  36.602  13.554
40158W        W 8563  12.968   9.109  10.706
40159W        W 8564  33.171   3.895  13.878
40160W        W 8565   6.846  27.745   0.673
40161W        W 8566  22.180  17.398  11.169
40162W        W 8567   8.805  21.631  11.721
40163W        W 8568  20.201  25.513  11.870
40164W        W 8569   8.416   3.464  13.254
40165W        W 8570   6.613  14.318   0.275
40166W        W 8571  41.441   0.030  12.059
40167W        W 8572   3.902   0.210   4.647
40168W        W 8573   5.871  15.667   0.248
40169W        W 8574   9.677  32.055   5.200
40170W        W 8575  27.081  12.346  12.873
40171W        W 8576  10.071  13.360   4.939
40172W        W 8577  15.657  24.390  10.710
40173W        W 8578  13.180  43.337  12.171
40174W        W 8579  41.448  32.041   0.563
40175W        W 8580  24.654  43.443   1.733
40176W        W 8581  39.354  24.448   4.232
40177W        W 8582  32.382  23.072  12.801
40178W        W 8583  11.568  12.765  10.788
40179W        W 8584  29.712  17.160  13.429
40180W        W 8585  23.978   0.922  11.547
40181W        W 8586  44.442  22.880   1.294
40182W        W 8587   4.120  31.144  11.555
40183W        W 8588  39.519   9.316  14.073
40184W        W 8589  32.594  39.905   4.191
40185W        W 8590  39.703   1.812  13.361
40186W        W 8591  17.937  25.136   1.736
40187W        W 8592  23.201   0.161  14.969
40188W        W 8593  29.880  43.708   0.326
40189W        W 8594  29.459   0.613   4.652
40190W        W 8595  34.091  38.551  14.610
40191W        W 8596  33.799  28.974   1.189
40192W        W 8597   8.852  21.956  13.560
40193W        W 8598  21.080   7.842   1.956
40194W        W 8599   0.820  10.256  10.411
40195W        W 8600  22.734   4.179  14.957
40196W        W 8601  24.196  28.689  14.862
40197W        W 8602  18.531  33.343   1.458
40198W        W 8603  36.819  39.772  10.935
40199W        W 8604  35.582   2.807   4.226
40200W        W 8605   7.413  14.906  11.984
40201W        W 8606  37.825  30.518  11.289
40202W        W 8607  11.693  15.506  11.947
40203W        W 8608  37.367  38.080   4.463
40204W        W 8609   0.933  19.042  11.152
40205W        W 8610   9.190  29.881   3.670
40206W        W 8611  17.994  26.144  13.038
40207W        W 8612   8.161  36.022  14.209
40208W        W 8613  39.774   6.754  12.434
40209W        W 8614  29.519  34.451  14.077
40210W        W 8615  31.957  28.240   3.699
40211W        W 8616  16.635  11.377   2.288
40212W        W 8617  30.251  41.453   4.568
40213W        W 8618  31.449  37.479   9.883
40214W        W 8619  26.848  12.824   1.133
40215W        W 8620  25.217  37.255   3.088
40216W        W 8621  24.936   3.277  12.676
40217W        W 8622  26.211   2.421   3.926
40218W        W 8623   1.242  24.047   4.199
40219W        W 8624  43.415   3.910  12.916
40220W        W 8625  20.620  18.747   4.688
40221W        W 8626  37.267  36.852  14.819
40222W        W 8627  12.742  18.238   0.390
40223W        W 8628   5.442  43.760  13.081
40224W        W 8629  44.210   6.303   2.565
40225W        W 8630   3.321  31.973   1.212
40226W        W 8631  22.610  30.416   3.575
40227W        W 8632   0.352   0.349  12.517
40228W        W 8633   4.966  20.214   2.234
40229W        W 8634   0.916  12.787   3.023
40230W        W 8635  31.913  37.304   2.776
40231W        W 8636  20.537   2.994  11.551
40232W        W 8637  42.810  29.031  12.457
40233W        W 8638   5.938   2.207  14.316
40234W        W 8639   3.686  13.607  13.928
40235W        W 8640  34.971   0.454  12.085
40236W        W 8641  30.116  36.899  13.446
40237W        W 8642  28.006  10.124   4.579
40238W        W 8643  12.846  38.448  11.891
40239W        W 8644   5.201  31.813   2.890
40240W        W 8645  30.443   3.287  14.687
40241W        W 8646  16.088   9.840  12.588
40242W        W 8647  31.876   3.709   4.093
40243W        W 8648  31.680  29.133  14.463
40244W        W 8649  33.598  15.348   0.884
40245W        W 8650  33.851   1.243   3.244
40246W        W 8651  33.384  23.846  13.074
40247W        W 8652  41.482  17.280   2.688
40248W        W 8653   5.852  17.428  12.955
40249W        W 8654  15.236  19.618  10.350
40250W        W 8655  28.356  28.967   2.064
40251W        W 8656  15.082  23.239  10.299
40252W        W 8657  11.820  27.488   4.709
40253W        W 8658  26.409  14.214   3.745
40254W        W 8659  22.065  26.112   1.871
40255W        W 8660   8.326  16.229   3.308
40256W        W 8661  19.478  15.300   3.305
40257W        W 8662   4.131  20.191   4.805
40258W        W 8663  13.292   8.934   2.804
40259W        W 8664  13.743  39.307   4.555
40260W        W 8665  13.434  17.902   2.826
40261W        W 8666  43.968  40.464   1.155
40262W        W 8667  15.017  12.737  13.353
40263W        W 8668  36.255  37.097   1.782
40264W        W 8669  42.919  26.751   3.094
40265W        W 8670  41.199  33.483  12.385
40266W        W 8671   7.885  13.352   3.737
40267W        W 8672  30.541   2.274  11.189
40268W        W 8673  12.816  40.450  12.181
40269W        W 8674  29.277  14.606  10.206
40270W        W 8675  10.187  25.319   4.629
40271W        W 8676   1.462  42.986   3.066
40272W        W 8677  36.227  11.899  11.273
40273W        W 8678  31.452  10.352   1.887
40274W        W 8679   6.491  23.537  13.986
40275W        W 8680  10.832  38.218  13.493
40276W        W 8681  32.227   5.165  11.567
40277W        W 8682   1.869   0.315   3.313
40278W        W 8683  34.998  27.741  11.489
40279W        W 8684   5.000  12.362  13.737
40280W        W 8685  44.564  19.168  11.163
40281W        W 8686  41.791  27.795  12.093
40282W        W 8687  25.925   2.146   1.671
40283W        W 8688  42.501  39.054   4.346
40284W        W 8689   0.468   2.338   4.638
40285W        W 8690  23.310  40.426   1.913
40286W        W 8691  12.457  43.405  14.850
40287W        W 8692  32.638  14.873   4.450
40288W        W 8693  25.615  22.768   4.165
40289W        W 8694  10.176  37.329   2.750
40290W        W 8695   0.499  15.660  12.559
40291W        W 8696  30.258  11.268   3.854
40292W        W 8697  25.375  21.614  11.120
40293W        W 8698  15.681  44.965  10.492
40294W        W 8699  28.735  19.627  10.618
40295W        W 8700   9.184   6.418  12.390
40296W        W 8701  36.454  32.531  12.404
40297W        W 8702  39.865   7.603   2.589
40298W        W 8703  38.619  23.918   1.272
40299W        W 8704  22.519  36.280   5.194
40300W        W 8705  33.016  34.894   3.183
40301W        W 8706   6.768  18.541   1.234
40302W        W 8707  38.939  24.926   3.165
40303W        W 8708  23.656  34.034   3.283
40304W        W 8709  10.243  41.650  14.823
40305W        W 8710  20.608  23.192  12.603
40306W        W 8711  18.715  31.532  12.619
40307W        W 8712  29.035  24.511  11.097
40308W        W 8713   5.886  12.401   1.846
40309W        W 8714  26.739  38.617   2.185
40310W        W 8715  24.969  27.262   3.566
40311W        W 8716  39.964  23.226   1.798
40312W        W 8717   9.892  22.510   0.937
40313W        W 8718   5.857  10.236  13.427
40314W        W 8719  18.732  25.796   2.004
40315W        W 8720   5.928  31.178  11.234
40316W        W 8721  26.916  13.251   5.106
40317W        W 8722  34.978  12.989  12.071
40318W        W 8723  26.149   7.383   4.221
40319W        W 8724  16.226  17.058   3.189
40320W        W 8725  27.464   4.446  14.724
40321W        W 8726   0.778  19.746  10.617
40322W        W 8727   6.761  24.578   3.879
40323W        W 8728  12.620   2.844   4.495
40324W        W 8729  14.879  26.635  13.876
40325W        W 8730   3.310   5.411   3.942
40326W        W 8731  23.213  42.219  12.455
40327W        W 8732   6.768   5.474   3.635
40328W        W 8733   9.865  41.089   1.325
40329W        W 8734  44.396  44.537   3.185
40330W        W 8735   5.682   6.843  11.321
40331W        W 8736   8.308  39.781   0.002
40332W        W 8737   6.475  44.538  13.348
40333W        W 8738  18.829  35.603   2.811
40334W        W 8739  23.222  37.223  13.899
40335W        W 8740  13.599   2.970   4.738
40336W        W 8741  10.203  15.168  13.535
40337W        W 8742   0.402   7.245  10.321
40338W        W 8743  43.559  30.823   2.220
40339W        W 8744  42.449  41.484   4.208
40340W        W 8745  23.822  29.131   4.711
40341W        W 8746  36.191  39.215   0.827
40342W        W 8747  23.815  29.985   0.867
40343W        W 8748   7.396  14.235   0.116
40344W        W 8749  12.120  39.459   2.266
40345W        W 8750  34.852   9.886  14.226
40346W        W 8751  32.119   5.650   4.645
40347W        W 8752  31.106  14.581  12.894
40348W        W 8753   7.583  27.225   3.331
40349W        W 8754  44.811  23.725  13.044
40350W        W 8755  31.591  16.392  10.691
40351W        W 8756   6.389  12.225  13.054
40352W        W 8757  17.587   2.970  12.067
40353W        W 8758  40.263   2.327  12.454
40354W        W 8759   1.424  28.486  12.159
40355W        W 8760   9.631  24.643  11.548
40356W        W 8761  25.491   4.825   1.828
40357W        W 8762   3.828   8.891   4.529
40358W        W 8763  41.959  24.158  13.945
40359W        W 8764  30.621  32.743   0.875
40360W        W 8765  37.856  14.366   1.741
40361W        W 8766  25.144  32.039   4.143
40362W        W 8767  20.217  25.807  10.888
40363W        W 8768  14.287   6.929  11.680
40364W        W 8769  32.502  27.577  11.962
40365W        W 8770  13.341  17.261  12.857
40366W        W 8771   1.492  44.273  11.006
40367W        W 8772   7.892  25.175  10.844
40368W        W 8773  11.589  14.206   0.878
40369W        W 8774  11.781  28.953  12.580
40370W        W 8775  12.856   9.023   3.044
40371W        W 8776  14.469  11.571   2.361
40372W        W 8777  41.579  21.308  12.176
40373W        W 8778   6.857  36.113  13.023
40374W        W 8779  24.357  24.962   2.362
40375W        W 8780   4.674  28.997  11.121
40376W        W 8781  10.874   5.555   0.709
40377W        W 8782  41.429  41.818   3.054
40378W        W 8783  26.112  34.122   1.960
40379W        W 8784  40.424  33.385   4.609
40380W        W 8785  11.282  33.435   2.763
40381W        W 8786   7.977  11.636  14.410
40382W        W 8787  37.820  42.041  10.440
40383W        W 8788  36.460  24.177   4.805
40384W        W 8789   4.617  33.436  11.124
40385W        W 8790  38.305  15.651  12.444
40386W        W 8791  31.043  41.609  13.496
40387W        W 8792  24.510   8.829  12.516
40388W        W 8793  33.996  41.446   0.878
40389W        W 8794   2.785  14.273   0.699
40390W        W 8795  34.448   3.682  12.983
40391W        W 8796   4.022  10.124   2.861
40392W        W 8797   7.788  13.539   1.290
40393W        W 8798   8.289  19.650   3.408
40394W        W 8799  15.291   5.806   2.889
40395W        W 8800  31.092  34.759  11.221
40396W        W 8801  33.940   7.664  11.081
40397W        W 8802  17.795  11.905   3.280
40398W        W 8803  32.860  19.223   1.960
40399W        W 8804  10.230  30.506  14.896
40400W        W 8805  18.350  10.796   0.698
40401W        W 8806  23.990  20.572   3.362
40402W        W 8807  36.603  11.290   2.960
40403W        W 8808  24.996  35.211  11.520
40404W        W 8809  43.377   3.960  10.702
40405W        W 8810  18.369  10.073  14.429
40406W        W 8811  24.224   3.939  12.453
40407W        W 8812  27.501  12.390  12.551
40408W        W 8813  31.161  12.464  14.823
40409W        W 8814  20.533  18.286  13.213
40410W        W 8815  35.998  10.511  11.875
40411W        W 8816  19.618  36.092   4.165
40412W        W 8817  39.636   7.772  13.908
40413W        W 8818  20.207  14.392   3.900
40414W        W 8819  17.725  34.081   0.174
40415W        W 8820  23.700  39.045  12.965
40416W        W 8821  34.132  26.449  14.944
40417W        W 8822  33.355   9.705   2.678
40418W        W 8823  30.707  33.426   9.814
40419W        W 8824  17.367  28.134  10.847
40420W        W 8825   0.456  18.132   1.793
40421W        W 8826   3.772  33.454  13.783
40422W        W 8827  13.903  34.819  14.311
40423W        W 8828   4.674   8.729   3.955
40424W        W 8829  20.489  22.684  10.944
40425W        W 8830  18.150  12.664   3.592
40426W        W 8831  14.120   7.834  14.052
40427W        W 8832  13.383  11.255   0.375
40428W        W 8833  20.800   2.340   0.339
40429W        W 8834  29.618  27.826   4.472
40430W        W 8835  22.915   6.470  14.756
40431W        W 8836  39.503  18.923  13.788
40432W        W 8837  20.541  38.317  12.655
40433W        W 8838  17.222  44.243  14.206
40434W        W 8839  32.372  22.897   1.704
40435W        W 8840  36.001   1.942  10.739
40436W        W 8841   4.394  38.397  14.790
40437W        W 8842  18.048  20.870   0.392
40438W        W 8843   9.898  24.090   2.282
40439W        W 8844  21.548   4.383   1.437
40440W        W 8845  38.446   6.169  11.354
40441W        W 8846   2.543  32.107  14.075
40442W        W 8847  43.950  29.232  12.607
40443W        W 8848  37.664  36.644   3.260
40444W        W 8849  22.139  23.119   4.632
40445W        W 8850  25.145   8.601  13.302
40446W        W 8851  22.644  14.224  10.795
40447W        W 8852  24.186  30.620   4.057
40448W        W 8853  29.292  10.244   2.592
40449W        W 8854  22.533  37.353   4.271
40450W        W 8855  33.391  30.056  10.733
40451W        W 8856   9.418   3.255   1.321
40452W        W 8857  40.501  23.580   1.350
40453W        W 8858  21.803  12.766  12.599
40454W        W 8859   6.319   9.043  14.123
40455W        W 8860   0.546  19.872  12.503
40456W        W 8861   5.261  38.313  10.406
40457W        W 8862  38.958  24.774   4.056
40458W        W 8863  38.538  43.390  13.869
40459W        W 8864   6.956  40.012  13.448
40460W        W 8865   2.864   9.806  10.631
40461W        W 8866   6.344  42.106  10.754
40462W        W 8867  44.342  37.473   2.156
40463W        W 8868  22.496  32.912  13.047
40464W        W 8869  41.411  28.922  12.492
40465W        W 8870  39.680  36.988   2.146
40466W        W 8871  38.361  41.784  13.018
40467W        W 8872  43.548  24.480   0.415
40468W        W 8873  12.143  37.907   2.819
40469W        W 8874  30.422  42.554   3.444
40470W        W 8875  18.980  14.761  13.924
40471W        W 8876  36.026  21.037   0.343
40472W        W 8877  18.072  17.656  12.530
40473W        W 8878  17.460   4.769   0.823
40474W        W 8879  26.672  32.950  13.856
40475W        W 8880   1.386   6.200   3.664
40476W        W 8881  10.105  18.706  10.553
40477W        W 8882   0.073  38.952   0.811
40478W        W 8883  14.637   3.196  12.510
40479W        W 8884  23.281   2.247  11.153
40480W        W 8885   4.974  12.531  11.652
40481W        W 8886  25.999   4.654   1.993
40482W        W 8887  43.247  24.182  11.559
40483W        W 8888  35.439  41.436   1.445
40484W        W 8889  24.433  32.661  14.519
40485W        W 8890   6.406  41.944   2.417
40486W        W 8891   0.241  43.330  10.702
40487W        W 8892  26.639  16.527  13.965
40488W        W 8893   8.320   6.630  14.218
40489W        W 8894  42.708  35.825  13.091
40490W        W 8895  22.810  25.014  11.102
40491W        W 8896   0.758  15.865   3.385
40492W        W 8897  40.878  30.042   4.859
40493W        W 8898   9.032  12.304   3.367
40494W        W 8899   0.204  21.461   0.945
40495W        W 8900   8.929  25.181   3.261
40496W        W 8901  32.449  17.538  10.752
40497W        W 8902  37.510  33.211   3.722
40498W        W 8903  15.269   3.464   4.126
40499W        W 8904   2.727   2.147  11.167
40500W        W 8905  44.933   5.888   1.715
40501W        W 8906  34.411  12.506   4.059
40502W        W 8907  23.636   4.587   4.260
40503W        W 8908   4.042  16.206   4.239
40504W        W 8909  33.638  24.897  13.998
40505W        W 8910   7.673   0.442  13.800
40506W        W 8911  41.858   6.974   0.003
40507W        W 8912   7.726  39.103   0.121
40508W        W 8913  23.632  15.193   4.151
40509W        W 8914  41.270  40.577  13.381
40510W        W 8915  11.926   9.419  10.672
40511W        W 8916  22.958  11.139   1.747
40512W        W 8917  19.113  11.097  14.521
40513W        W 8918  22.628  34.352   2.831
40514W        W 8919  13.816  31.642  14.358
40515W        W 8920  28.279  24.072  13.516
40516W        W 8921   3.369  10.548   1.664
40517W        W 8922  13.184  18.957  10.614
40518W        W 8923  41.811  16.168  14.361
40519W        W 8924   7.128   6.982   4.101
40520W        W 8925   6.697  20.033  14.730
40521W        W 8926  41.278   3.844   2.820
40522W        W 8927  24.474   1.477   4.611
40523W        W 8928  26.002  37.912  12.436
40524W        W 8929  19.040   4.264  12.639
40525W        W 8930   1.319  38.087   2.092
40526W        W 8931  44.472   5.179  13.836
40527W        W 8932  38.578  37.122   0.835
40528W        W 8933  32.491  32.006   4.293
40529W        W 8934  18.620  21.701  10.685
40530W        W 8935  34.789  13.613  13.571
40531W        W 8936   4.645  40.436  10.680
40532W        W 8937   5.001   1.524   4.705
40533W        W 8938  25.122  10.190  10.807
40534W        W 8939  19.269  30.610  11.155
40535W        W 8940  19.222   9.259  12.672
40536W        W 8941  12.807   9.975  14.975
40537W        W 8942   0.469   2.810   0.729
40538W        W 8943  15.863  33.767  11.742
40539W        W 8944  39.921  27.053   4.668
40540W        W 8945  17.233  44.244   2.271
40541W        W 8946  39.757  41.987   1.367
40542W        W 8947  37.559  22.040  13.492
40543W        W 8948   7.816  24.593  13.649
40544W        W 8949  30.444  21.661   0.725
40545W        W 8950  37.116   8.156  14.251
40546W        W 8951  34.978  34.191   3.291
40547W        W 8952   2.362  25.129  10.648
40548W        W 8953   1.285  23.206  12.050
40549W        W 8954  12.971   9.756   2.323
40550W        W 8955  22.902  12.734  14.020
40551W        W 8956  18.823  35.988  13.173
40552W        W 8957  43.081   8.348  10.557
40553W        W 8958  16.681  12.254   1.236
40554W        W 8959  24.571   1.762   0.728
40555W        W 8960  19.213   8.887   1.180
40556W        W 8961  23.163  31.974   4.601
40557W        W 8962  31.008  15.862  13.659
40558W        W 8963   1.315  43.366  13.556
40559W        W 8964  26.535  10.885   4.681
40560W        W 8965  22.233  27.879   0.746
40561W        W 8966  17.756  25.254   0.364
40562W        W 8967  37.515  26.453  11.090
40563W        W 8968   5.727  35.085  11.760
40564W        W 8969  32.010  30.579   4.193
40565W        W 8970  10.619  35.283   3.694
40566W        W 8971  13.338  43.535  14.587
40567W        W 8972   7.859  42.515   1.230
40568W        W 8973   7.304  17.189   4.089
40569W        W 8974  29.424   9.274   3.981
40570W        W 8975  37.731   6.779   3.160
40571W        W 8976  42.061   3.881  10.958
40572W        W 8977  15.688  41.533   2.449
40573W        W 8978  23.660  43.527   2.356
40574W        W 8979  32.133   0.970   4.163
40575W        W 8980  37.969  41.324   3.227
40576W        W 8981  23.062  11.153   3.188
40577W        W 8982  18.992  13.723   0.159
40578W        W 8983  40.519  42.891  14.823
40579W        W 8984   7.910  36.890  12.542
40580W        W 8985  24.349  28.226  11.594
40581W        W 8986  24.012  15.738  10.780
40582W        W 8987   4.857  38.812  11.588
40583W        W 8988  33.851   9.750  12.544
40584W        W 8989  15.130  30.046  11.362
40585W        W 8990   9.339  33.677   4.670
40586W        W 8991  20.469  25.646   1.434
40587W        W 8992  33.182  33.878   3.089
40588W        W 8993  29.790  25.094  12.097
40589W        W 8994   4.848  37.630  13.746
40590W        W 8995   1.735  43.832   2.432
40591W        W 8996   6.498  41.021   3.700
40592W        W 8997  26.079  11.272  12.165
40593W        W 8998  17.100  31.786  12.944
40594W        W 8999  28.198  18.928  12.880
40595W        W 9000  34.664  43.357   2.847
40596W        W 9001   2.926   6.712   4.023
40597W        W 9002  19.256   0.377   3.694
40598W        W 9003   3.271   3.734  14.977
40599W        W 9004  25.474  18.105  11.594
40600W        W 9005  21.840  14.985  11.592
40601W        W 9006  10.161  31.030  14.946
40602W        W 9007  18.290   9.383   1.320
40603W        W 9008  30.869  37.551   4.249
40604W        W 9009  37.178  10.071  11.577
40605W        W 9010   4.775  41.316   3.715
40606W        W 9011  44.902  10.896   0.160
40607W        W 9012  38.305   5.694  12.046
40608W        W 9013  14.680  40.569  11.638
40609W        W 9014  39.897  26.449   0.271
40610W        W 9015  19.298  37.191   3.526
40611W        W 9016  38.225  33.578   4.392
40612W        W 9017  15.512  44.227   2.724
40613W        W 9018  13.838  13.361   3.291
40614W        W 9019  30.028  31.473   4.567
40615W        W 9020  15.982  15.519  13.934
40616W        W 9021  25.935   7.275  13.454
40617W        W 9022   5.824   7.966   3.291
40618W        W 9023  23.479  11.156   1.777
40619W        W 9024   0.394  10.821   0.826
40620W        W 9025  33.476   2.026   1.879
40621W        W 9026  33.168   5.763   2.196
40622W        W 9027  16.808  38.513   0.245
40623W        W 9028  42.545  20.024   1.765
40624W        W 9029  30.377  35.878  14.960
40625W        W 9030   3.213  28.094   2.174
40626W        W 9031  41.442  29.760  11.131
40627W        W 9032  37.853  11.645  14.891
40628W        W 9033  42.186  14.117   0.014
40629W        W 9034  42.298  32.933   3.202
40630W        W 9035   0.810  19.810   1.211
40631W        W 9036   2.288  12.212  11.251
40632W        W 9037  19.478  31.665   1.398
40633W        W 9038  26.915   0.286  13.518
40634W        W 9039  27.471  13.576   0.228
40635W        W 9040  18.783  27.453   3.197
40636W        W 9041   1.355   3.708   0.228
40637W        W 9042  33.277  40.530   2.275
40638W        W 9043  43.763  16.695   3.631
40639W        W 9044  42.507  41.330  14.497
40640W        W 9045  20.226  37.079  13.461
40641W        W 9046  21.252  12.212   3.295
40642W        W 9047  40.667  36.551   1.206
40643W        W 9048   6.375   6.469   1.895
40644W        W 9049   6.796  32.181   4.464
40645W        W 9050  24.180   0.073  12.760
40646W        W 9051   0.140  15.148   3.728
40647W        W 9052  44.566  32.910  11.067
40648W        W 9053  26.672   7.345  14.514
40649W        W 9054  32.992  19.517  11.216
40650W        W 9055  27.707  24.996  12.526
40651W        W 9056  13.292  12.258  12.190
40652W        W 9057  27.417  34.557  13.060
40653W        W 9058   9.335  35.615   1.885
40654W        W 9059   6.737  42.913  11.219
40655W        W 9060   3.357  14.891   0.182
40656W        W 9061  39.006   9.445   0.372
40657W        W 9062  12.498  44.128  14.913
40658W        W 9063  43.052  10.330  13.611
40659W        W 9064  33.317  43.452   2.223
40660W        W 9065  30.994   6.464  14.414
40661W        W 9066   7.851  36.391   2.821
40662W        W 9067  13.141   4.485   0.490
40663W        W 9068  19.489  32.420  14.903
40664W        W 9069  34.457  42.881  12.136
40665W        W 9070   8.112  21.754  11.133
40666W        W 9071  26.048  26.920   2.656
40667W        W 9072  41.682  18.011  10.810
40668W        W 9073  19.981   0.439   4.153
40669W        W 9074  24.535  43.821  13.746
40670W        W 9075  38.463  19.173   4.745
40671W        W 9076  36.318  19.542  14.366
40672W        W 9077  27.989  26.933  13.487
40673W        W 9078   7.804   8.071   3.298
40674W        W 9079  23.847   2.577   1.317
40675W        W 9080  36.370   6.181  14.430
40676W        W 9081  31.980   1.688  14.707
40677W        W 9082   5.105  31.442  12.261
40678W        W 9083   3.761  32.388   3.563
40679W        W 9084   8.380  33.540   3.247
40680W        W 9085  12.582  21.233   1.407
40681W        W 9086  27.648  40.526  11.545
40682W        W 9087  10.208  11.481  13.109
40683W        W 9088  43.928  17.375   1.706
40684W        W 9089  43.429   0.196   2.344
40685W        W 9090  29.481  33.076  13.756
40686W        W 9091  44.834  29.876   3.913
40687W        W 9092  26.740  28.504   4.131
40688W        W 9093  24.362  28.677   2.277
40689W        W 9094   4.428  32.028   3.705
40690W        W 9095  15.762  40.308  10.630
40691W        W 9096  42.864  40.630  10.313
40692W        W 9097  11.228  27.470  14.940
40693W        W 9098  33.995  36.949   1.403
40694W        W 9099  32.563  14.594  12.901
40695W        W 9100  40.871  40.111  14.914
40696W        W 9101  13.030   6.706   3.300
40697W        W 9102   5.965  39.380  12.029
40698W        W 9103  11.898  36.506  10.712
40699W        W 9104  23.277  22.437  13.288
40700W        W 9105  13.748  10.750  11.147
40701W        W 9106  16.242  20.729  12.940
40702W        W 9107  42.057  10.328   1.173
40703W        W 9108  30.244  14.207   1.235
40704W        W 9109   6.616  21.881  12.837
40705W        W 9110  37.135  38.936   2.802
40706W        W 9111   0.525  40.340   4.225
40707W        W 9112  44.532  43.364   4.571
40708W        W 9113  22.000  14.112  13.374
40709W        W 9114  10.262   9.777   3.235
40710W        W 9115  22.282   6.353  11.221
40711W        W 9116  24.110  14.608   1.144
40712W        W 9117  18.229  32.651   1.178
40713W        W 9118   6.781  17.310  12.849
40714W        W 9119  27.711   1.326   1.111
40715W        W 9120  13.433  43.760   3.720
40716W        W 9121  42.046  42.913  10.530
40717W        W 9122  29.990  39.897   0.926
40718W        W 9123  11.110  11.568   1.158
40719W        W 9124  29.353  20.809  12.082
40720W        W 9125   3.829   9.451  10.560
40721W        W 9126  39.378  14.277  14.353
40722W        W 9127  24.525  41.248  10.996
40723W        W 9128  10.262  11.600  13.616
40724W        W 9129  39.957  37.332   4.538
40725W        W 9130  22.017  43.301  11.733
40726W        W 9131  38.213   8.832   2.374
40727W        W 9132  43.242  25.700   0.793
40728W        W 9133   2.772   1.482  11.965
40729W        W 9134  10.450  41.346   1.847
40730W        W 9135  21.423  17.320  12.054
40731W        W 9136  40.490  33.648   0.265
40732W        W 9137  11.638  41.104  13.790
40733W        W 9138  15.207  25.239   1.457
40734W        W 9139  41.983  41.885  11.019
40735W        W 9140   2.215  30.874   0.333
40736W        W 9141  29.901   1.705   2.246
40737W        W 9142  36.133   2.810  14.948
40738W        W 9143  15.416  28.282   1.682
40739W        W 9144  29.645  18.296   2.373
40740W        W 9145  18.285  10.550  14.198
40741W        W 9146  43.997  12.802  11.661
40742W        W 9147  31.144  44.189  13.430
40743W        W 9148  29.032   4.288  13.956
40744W        W 9149  22.108  34.596   2.137
40745W        W 9150  26.309  12.359  14.367
40746W        W 9151  33.060   5.762  10.576
40747W        W 9152  41.198  35.464   4.569
40748W        W 9153  13.664  40.853   0.072
40749W        W 9154  29.428   4.383   0.479
40750W        W 9155  21.687   4.964  14.785
40751W        W 9156  24.675  27.729   1.901
40752W        W 9157  15.884  16.023   1.895
40753W        W 9158   0.762  13.368  13.304
40754W        W 9159   8.901  27.606   4.959
40755W        W 9160   7.193  11.370  11.859
40756W        W 9161  40.406  32.505  13.290
40757W        W 9162  20.422  38.419  11.350
40758W        W 9163  40.446  35.632  13.407
40759W        W 9164  20.547  43.357   3.230
40760W        W 9165  12.344   4.191   3.085
40761W        W 9166  17.545  15.699   4.144
40762W        W 9167  14.341  36.048   0.297
40763W        W 9168   4.644  23.743  14.467
40764W        W 9169   5.857   5.744   3.503
40765W        W 9170  10.315   1.243  14.112
40766W        W 9171  36.421  30.984  10.735
40767W        W 9172  11.911  22.647  14.968
40768W        W 9173  32.967  41.277  14.625
40769W        W 9174  32.183  32.811  13.004
40770W        W 9175  25.126  19.137  12.370
40771W        W 9176  39.982  37.441  14.758
40772W        W 9177  15.057   8.317  10.758
40773W        W 9178  27.006  38.819  11.659
40774W        W 9179   7.302  35.720  10.233
40775W        W 9180  38.394   6.131   4.534
40776W        W 9181  19.189  29.124   1.731
40777W        W 9182  40.398  43.543   1.980
40778W        W 9183   7.339  43.530   2.273
40779W        W 9184   7.974  25.529   2.197
40780W        W 9185  43.291  44.007   0.946
40781W        W 9186  22.465  22.724  13.692
40782W        W 9187  21.007  39.747   3.127
40783W        W 9188  21.740  18.053   3.066
40784W        W 9189  34.580  37.390  14.016
40785W        W 9190  32.942  27.269   0.327
40786W        W 9191  28.898  24.686  11.581
40787W        W 9192  37.165  39.256   3.244
40788W        W 9193  19.649   7.698   1.564
40789W        W 9194   8.118  35.148   5.106
40790W        W 9195  28.973  16.130  13.014
40791W        W 9196  38.753  27.936   2.251
40792W        W 9197   6.834   5.321  12.661
40793W        W 9198  38.790   1.289   1.714
40794W        W 9199  42.109  27.636  14.025
40795W        W 9200   0.865  36.004  11.538
40796W        W 9201  11.582  12.361   1.440
40797W        W 9202  40.313  20.407  14.857
40798W        W 9203  18.465  21.260  11.540
40799W        W 9204  27.087  22.019  14.540
40800W        W 9205  26.138   7.177   2.757
40801W        W 9206  37.309  13.218   2.062
40802W        W 9207  44.448   4.449  13.485
40803W        W 9208   0.451  20.667  11.587
40804W        W 9209  22.037   7.156   3.232
40805W        W 9210  27.475  29.881   0.041
40806W        W 9211  33.456  22.001  12.561
40807W        W 9212   3.686  24.699   0.227
40808W        W 9213  31.033  40.943   2.246
40809W        W 9214  36.247  29.163   1.208
40810W        W 9215   6.710  21.074   4.212
40811W        W 9216   9.398  22.646  14.944
40812W        W 9217  19.874   1.700  13.378
40813W        W 9218   6.975  11.708   0.876
40814W        W 9219   0.321  21.149  11.699
40815W        W 9220  15.717   6.327  13.417
40816W        W 9221  15.753   2.216  14.891
40817W        W 9222  23.465  19.064  14.341
40818W        W 9223  27.140  21.019   1.274
40819W        W 9224  39.849  20.050  13.966
40820W        W 9225  34.969  41.041   2.825
40821W        W 9226  24.354  25.983  14.518
40822W        W 9227  43.437  10.073   2.330
40823W        W 9228  40.145  19.312  10.581
40824W        W 9229   8.787   9.664   1.890
40825W        W 9230  31.940  33.674   1.509
40826W        W 9231  16.185  15.542  13.029
40827W        W 9232  35.633  43.995   4.303
40828W        W 9233  15.517  26.684  13.556
40829W        W 9234   7.479  36.734  12.263
40830W        W 9235  33.599  24.073  14.840
40831W        W 9236  16.221   4.683  11.143
40832W        W 9237  44.406  14.812  13.422
40833W        W 9238  13.334   1.190  13.355
40834W        W 9239  19.482  26.611   2.418
40835W        W 9240  39.817  39.259   4.077
40836W        W 9241   9.788   7.473  10.501
40837W        W 9242  36.364  30.238  13.068
40838W        W 9243   0.539  43.415  11.111
40839W        W 9244  34.089  34.566  14.258
40840W        W 9245  10.158  30.986   1.330
40841W        W 9246   6.889  18.572   3.082
40842W        W 9247   8.051  24.040   1.421
40843W        W 9248  34.783  41.824   0.340
40844W        W 9249   0.022   3.443  13.631
40845W        W 9250  25.604   8.890  13.380
40846W        W 9251  38.314  27.744   4.194
40847W        W 9252  24.231  22.665  13.299
40848W        W 9253  32.404  17.639  13.536
40849W        W 9254  19.226  19.654   0.478
40850W        W 9255  20.532  40.629   1.660
40851W        W 9256   1.393  20.023  12.450
40852W        W 9257  10.590  26.554   4.205
40853W        W 9258  42.309  10.286   0.010
40854W        W 9259   8.498  31.475  10.795
40855W        W 9260  43.991  32.007  11.178
40856W        W 9261  43.832  20.527  14.363
40857W        W 9262   3.964  22.517   1.165
40858W        W 9263  31.823   3.420   3.685
40859W        W 9264   4.176  41.319  14.853
40860W        W 9265   6.263  42.860   4.038
40861W        W 9266   9.144  17.091   4.572
40862W        W 9267  22.049  18.337   2.257
40863W        W 9268   7.600  22.697  10.891
40864W        W 9269  27.034  13.647  10.576
40865W        W 9270  10.940   9.416   3.831
40866W        W 9271   9.702   1.142  13.527
40867W        W 9272  16.672   5.684   2.311
40868W        W 9273  43.132  13.231  12.688
40869W        W 9274  17.622   2.339   4.852
40870W        W 9275  35.178   6.289   0.277
40871W        W 9276  35.847  18.642  12.127
40872W        W 9277   2.399  31.607   3.062
40873W        W 9278   2.869  10.768   2.632
40874W        W 9279  31.848  40.729  14.956
40875W        W 9280  25.670  23.664  12.987
40876W        W 9281  41.266  40.555   2.624
40877W        W 9282  11.733  41.624  13.828
40878W        W 9283   7.205  41.181  12.493
40879W        W 9284  21.036  38.466  11.794
40880W        W 9285  16.982  25.187   3.661
40881W        W 9286   6.242  10.297   1.340
40882W        W 9287  33.113  19.515  13.861
40883W        W 9288   9.300  25.218   4.219
40884W        W 9289  13.860  15.713   4.673
40885W        W 9290  24.459  18.005  11.721
40886W        W 9291  28.202  36.485   4.816
40887W        W 9292  23.522  16.537  12.674
40888W        W 9293  18.543  16.634   2.894
40889W        W 9294  33.466  39.692  11.088
40890W        W 9295  11.404   8.423   0.205
40891W        W 9296  42.403  20.543  14.489
40892W        W 9297  16.806  44.313   1.930
40893W        W 9298  40.631  11.153   0.803
40894W        W 9299  18.224  19.147  11.532
40895W        W 9300  37.992  32.198   4.297
40896W        W 9301  33.615   7.918   1.307
40897W        W 9302  32.662  22.563   4.556
40898W        W 9303  42.748  18.312   3.619
40899W        W 9304  17.751  13.831   0.079
40900W        W 9305  39.485  27.507   2.656
40901W        W 9306   6.742  26.185  13.951
40902W        W 9307  31.020   8.924  13.600
40903W        W 9308   4.715  34.778  12.091
40904W        W 9309  40.535  11.801   1.865
40905W        W 9310  19.961  13.558   4.913
40906W        W 9311  31.467  24.450   4.362
40907W        W 9312   0.326  22.713  13.995
40908W        W 9313  42.907  25.511  14.985
40909W        W 9314  26.750  19.254  12.906
40910W        W 9315  35.935  31.088   4.515
40911W        W 9316   2.176  25.326  12.504
40912W        W 9317  39.331  33.556  13.423
40913W        W 9318  16.202  25.478   2.359
40914W        W 9319  32.574  24.141  14.837
40915W        W 9320   3.139  43.295  14.803
40916W        W 9321  23.341  32.949  10.625
40917W        W 9322  29.174  38.790  13.906
40918W        W 9323  23.186  20.179   1.960
40919W        W 9324  31.617  40.696  12.167
40920W        W 9325  30.085  21.997  14.878
40921W        W 9326  37.562  19.639   1.370
40922W        W 9327   0.499  44.735   3.567
40923W        W 9328  24.646   8.763   4.531
40924W        W 9329  36.833   2.714   4.609
40925W        W 9330   9.704  33.465   1.915
40926W        W 9331  36.930  25.319   4.845
40927W        W 9332  10.877   5.374  12.023
40928W        W 9333   9.863  18.007   4.558
40929W        W 9334   2.755   0.504   4.204
40930W        W 9335   1.396  33.635  10.758
40931W        W 9336  37.030  19.741  13.574
40932W        W 9337   1.497  30.947   1.158
40933W        W 9338   7.393  34.715   1.217
40934W        W 9339  34.999  32.421  10.757
40935W        W 9340  20.165  13.609  12.427
40936W        W 9341  12.210  22.042   0.374
40937W        W 9342   8.698  17.055   2.365
40938W        W 9343   3.381   9.358  11.340
40939W        W 9344  42.402  30.862  12.054
40940W        W 9345   6.867  28.685   3.717
40941W        W 9346  32.746  35.371   2.266
40942W        W 9347  34.109  34.692   3.042
40943W        W 9348  11.867  44.466   1.186
40944W        W 9349  41.111  28.664  14.985
40945W        W 9350  36.434  10.268  11.949
40946W        W 9351  23.081  38.380   3.699
40947W        W 9352  12.790  28.103  13.170
40948W        W 9353  39.779  42.209  11.425
40949W        W 9354  42.859  28.968  13.344
40950W        W 9355  40.819   2.862  14.518
40951W        W 9356  19.840  41.419   0.931
40952W        W 9357   5.924  18.042  13.471
40953W        W 9358   3.717  44.202  12.447
40954W        W 9359  28.657  13.042  13.181
40955W        W 9360  39.003  34.654   0.004
40956W        W 9361  34.150  39.624   3.252
40957W        W 9362  43.466  23.992   1.721
40958W        W 9363   8.657   0.361  12.287
40959W        W 9364  24.149   9.570   2.291
40960W        W 9365  43.219  30.141   3.413
40961W        W 9366  16.044   1.044   2.868
40962W        W 9367  23.040  40.868  12.044
40963W        W 9368  14.709  19.612  13.355
40964W        W 9369  23.022   3.239   1.498
40965W        W 9370  42.284  31.103  14.438
40966W        W 9371  20.519   4.865  10.946
40967W        W 9372  26.074  21.348  12.438
40968W        W 9373  10.710  23.472  14.495
40969W        W 9374  17.223   2.731   2.111
40970W        W 9375   0.479  15.527   3.657
40971W        W 9376  27.702  36.759   3.624
40972W        W 9377   1.080  44.487  10.743
40973W        W 9378   3.538   2.301   2.846
40974W        W 9379  32.156   0.845   2.814
40975W        W 9380  10.782  30.062  11.552
40976W        W 9381   4.966  40.857   2.726
40977W        W 9382  44.647  19.764   3.996
40978W        W 9383  13.388  30.004  10.589
40979W        W 9384   6.707  20.338   1.726
40980W        W 9385  39.534  33.210  11.475
40981W        W 9386   3.035  22.156  14.268
40982W        W 9387  41.292  33.835  11.629
40983W        W 9388  20.733  14.090  14.786
40984W        W 9389  24.599  20.693   4.763
40985W        W 9390  25.110  26.957  14.506
40986W        W 9391  42.345  35.961   1.441
40987W        W 9392  25.317  23.104   3.742
40988W        W 9393   9.314  29.556   1.785
40989W        W 9394  42.827  27.879   4.103
40990W        W 9395   8.587   6.976   3.615
40991W        W 9396  44.322  31.105   4.384
40992W        W 9397  23.229  16.239   2.768
40993W        W 9398  35.319   5.720   1.879
40994W        W 9399  15.300   5.432  12.524
40995W        W 9400   2.718  34.909  11.171
40996W        W 9401   4.544  29.202  14.421
40997W        W 9402   1.710  29.628  12.593
40998W        W 9403  36.298  14.987  13.335
40999W        W 9404  32.047  23.798  10.896
41000W        W 9405  32.149  22.752  13.137
41001W        W 9406   8.717  37.576  12.866
41002W        W 9407  22.433  12.852   1.698
41003W        W 9408  24.450  33.893   0.503
41004W        W 9409   5.033  10.280  14.972
41005W        W 9410  19.177  39.688   2.132
41006W        W 9411  16.589  27.025  12.871
41007W        W 9412  19.055  15.644  13.077
41008W        W 9413  19.841   0.230  14.865
41009W        W 9414   1.581  33.891  14.837
41010W        W 9415  35.959   8.601  13.427
41011W        W 9416   8.254  22.249   0.283
41012W        W 9417  20.373  30.585  13.577
41013W        W 9418  14.795  40.381  14.636
41014W        W 9419   1.941  17.807  11.673
41015W        W 9420  27.097  27.408  12.577
41016W        W 9421  38.420  21.464   3.551
41017W        W 9422  22.004  10.800   0.829
41018W        W 9423  28.116  24.959  12.850
41019W        W 9424   4.402  14.654   1.362
41020W        W 9425  27.486   8.640   2.490
41021W        W 9426  42.422  25.254  12.697
41022W        W 9427  18.122  25.208  10.631
41023W        W 9428  15.092  44.331  13.592
41024W        W 9429  33.964  11.233   0.378
41025W        W 9430  10.411  18.248  11.292
41026W        W 9431  13.839  15.902  12.838
41027W        W 9432  16.519   1.941   0.341
41028W        W 9433  23.750  18.108   5.029
41029W        W 9434   5.912   8.876  12.454
41030W        W 9435  40.416  26.081   3.598
41031W        W 9436  24.726  26.983   2.856
41032W        W 9437   7.131  18.513  11.088
41033W        W 9438  21.815  13.341   2.409
41034W        W 9439  30.603   0.279  14.981
41035W        W 9440   7.301  16.586   1.365
41036W        W 9441  13.264  12.838   1.627
41037W        W 9442  17.136  10.734   1.670
41038W        W 9443  23.049  31.637  13.384
41039W        W 9444  30.723  31.109  13.059
41040W        W 9445  44.914  14.851   2.938
41041W        W 9446  34.321  18.598  14.341
41042W        W 9447  18.183   9.325   4.680
41043W        W 9448  44.090   8.121   3.736
41044W        W 9449  22.105   9.246   1.501
41045W        W 9450  40.046   5.361  11.523
41046W        W 9451   1.929  14.258   2.189
41047W        W 9452  11.308   7.626  12.974
41048W        W 9453  13.107  22.137  10.527
41049W        W 9454   7.081  37.119  14.166
41050W        W 9455  23.317  20.281  13.577
41051W        W 9456  40.887   0.538   2.652
41052W        W 9457  27.237  24.622   3.341
41053W        W 9458   0.244  36.140   4.188
41054W        W 9459   9.902   8.325  11.948
41055W        W 9460  33.019  28.135  10.657
41056W        W 9461   8.876  37.292  14.805
41057W        W 9462  37.654  25.074   4.645
41058W        W 9463  34.584  39.734   2.354
41059W        W 9464  40.412  20.553   3.127
41060W        W 9465   3.902  16.547  13.521
41061W        W 9466  43.065  30.874  11.005
41062W        W 9467  13.744   2.961  12.451
41063W        W 9468   2.642   4.336   1.856
41064W        W 9469  15.407  15.012   2.324
41065W        W 9470  33.641  43.834  11.150
41066W        W 9471   8.857  34.829  10.735
41067W        W 9472  29.894  14.804   3.214
41068W        W 9473   9.236  23.195   2.592
41069W        W 9474   0.330  29.426  12.895
41070W        W 9475  14.466  34.214   0.424
41071W        W 9476   4.244  11.370  14.482
41072W        W 9477  22.075  14.456   0.335
41073W        W 9478  36.401  42.507  11.209
41074W        W 9479  43.309  33.867   2.731
41075W        W 9480  27.446  32.687   0.940
41076W        W 9481   2.460  18.348   0.235
41077W        W 9482  39.021   2.295  10.711
41078W        W 9483  32.477  34.417   0.324
41079W        W 9484  41.125  38.893  11.631
41080W        W 9485   1.999  44.941   4.551
41081W        W 9486  26.391  22.102   2.839
41082W        W 9487  27.193  23.772  11.960
41083W        W 9488   5.108  44.042  13.530
41084W        W 9489  28.458  30.298  12.079
41085W        W 9490   1.769   5.269   2.119
41086W        W 9491  19.501  19.771   0.901
41087W        W 9492  13.200  32.931  11.942
41088W        W 9493   5.310   7.760  13.064
41089W        W 9494   0.167   9.450  10.175
41090W        W 9495   1.847   9.853   3.222
41091W        W 9496  23.900  23.664  13.964
41092W        W 9497  36.213  24.082  11.513
41093W        W 9498  12.640   0.647   2.319
41094W        W 9499  16.816  11.361  14.845
41095W        W 9500  23.643  13.090  12.536
41096W        W 9501  44.493  28.471  14.289
41097W        W 9502  19.546  27.443   2.471
41098W        W 9503  19.994  16.036   2.098
41099W        W 9504   6.387  42.465  14.664
41100W        W 9505  13.019  10.254  11.077
41101W        W 9506   8.992  36.470  12.023
41102W        W 9507  37.706   4.993   0.650
41103W        W 9508  10.740  31.623  14.404
41104W        W 9509  27.157  32.868  12.458
41105W        W 9510  39.008  13.729  13.342
41106W        W 9511  25.379  14.005   3.101
41107W        W 9512   9.159  18.218   3.882
41108W        W 9513  25.526  17.254  11.379
41109W        W 9514   7.374  30.540  10.638
41110W        W 9515   3.705   5.297   0.752
41111W        W 9516  13.756  21.320   3.905
41112W        W 9517  29.557   0.726   2.826
41113W        W 9518   0.843  44.998   4.553
41114W        W 9519  37.415  27.002   3.981
41115W        W 9520  11.142  23.611  11.492
41116W        W 9521  11.161  37.118   2.798
41117W        W 9522  28.052  34.037  11.942
41118W        W 9523   0.194   2.141   2.203
41119W        W 9524  10.666  24.050  11.356
41120W        W 9525  10.407  40.453  12.371
41121W        W 9526  36.367  11.559   0.764
41122W        W 9527  26.716  39.079   4.463
41123W        W 9528   3.366  25.122  14.259
41124W        W 9529  41.862   4.968   1.769
41125W        W 9530  36.267  44.032   3.739
41126W        W 9531   4.428  38.762   3.540
41127W        W 9532  39.951  32.392   1.999
41128W        W 9533   0.674  39.880   4.921
41129W        W 9534  15.314   5.223   3.712
41130W        W 9535  36.058  41.547  14.861
41131W        W 9536  31.648   4.422   0.415
41132W        W 9537  34.993  23.934   3.280
41133W        W 9538  31.396  23.384   2.417
41134W        W 9539  31.460  41.002  13.100
41135W        W 9540  30.546  41.053   0.573
41136W        W 9541  30.651  12.212   3.638
41137W        W 9542   0.926   6.190  13.350
41138W        W 9543  36.788  19.109  14.996
41139W        W 9544  36.888  34.418  12.037
41140W        W 9545  19.530  33.445   2.596
41141W        W 9546  26.245  35.704  12.131
41142W        W 9547   5.537  42.846  11.007
41143W        W 9548   1.530  21.042   2.441
41144W        W 9549  39.891  22.745   4.910
41145W        W 9550  13.974  29.180  11.111
41146W        W 9551  34.957  12.839   3.747
41147W        W 9552  39.189   7.493  14.182
41148W        W 9553  13.982  24.962   2.314
41149W        W 9554  24.313  25.436   2.639
41150W        W 9555  14.200  41.000  11.697
41151W        W 9556  21.479  43.329  13.486
41152W        W 9557  30.680  16.698   4.293
41153W        W 9558   0.537  23.228  13.871
41154W        W 9559  31.042   1.990   0.486
41155W        W 9560  15.130   1.176  13.427
41156W        W 9561   1.238  21.008  13.484
41157W        W 9562  30.488  10.917   3.208
41158W        W 9563  25.358   4.491  11.438
41159W        W 9564  11.363  19.533  10.492
41160W        W 9565  22.989  26.937   4.142
41161W        W 9566  13.625   2.620  11.127
41162W        W 9567  20.250  26.125   1.599
41163W        W 9568  20.496  21.993   4.511
41164W        W 9569  20.258  21.004  10.761
41165W        W 9570  33.135  23.112  12.556
41166W        W 9571  34.999  12.249  13.609
41167W        W 9572  26.130  20.971   2.353
41168W        W 9573  18.178  13.304  12.912
41169W        W 9574  35.801  31.990   0.816
41170W        W 9575   5.742  35.445  12.714
41171W        W 9576  16.295  25.639  10.228
41172W        W 9577  33.364   0.195   1.492
41173W        W 9578   6.956  41.525  13.902
41174W        W 9579  20.071  30.107  13.852
41175W        W 9580   4.319  43.925   4.143
41176W        W 9581  12.097  40.823   0.226
41177W        W 9582   1.480  22.582   1.298
41178W        W 9583  41.967  36.961   0.726
41179W        W 9584  39.525   2.028  12.058
41180W        W 9585  32.061  24.289   3.315
41181W        W 9586  43.557   4.776   4.120
41182W        W 9587   4.429  34.171   4.599
41183W        W 9588  26.755  28.147   0.248
41184W        W 9589   3.308  33.525   0.587
41185W        W 9590  35.387   8.337   2.229
41186W        W 9591  41.350  27.499   1.684
41187W        W 9592   7.903  28.096   3.538
41188W        W 9593  37.190  11.356  10.907
41189W        W 9594  30.954   3.575  14.493
41190W        W 9595  13.858  30.905   1.139
41191W        W 9596  22.442   9.262   4.743
41192W        W 9597  33.954  14.306   0.978
41193W        W 9598  13.643  12.222  13.457
41194W        W 9599   2.772  42.924  12.248
41195W        W 9600  20.004  14.973  11.591
41196W        W 9601  33.539  36.907   3.451
41197W        W 9602  18.214  11.664   2.818
41198W        W 9603   1.059   4.295  14.530
41199W        W 9604   6.859  16.707  12.442
41200W        W 9605  13.624  10.837   0.898
41201W        W 9606   9.184   2.740  14.757
41202W        W 9607  27.656   9.947  11.332
41203W        W 9608  11.362   2.978   0.504
41204W        W 9609  31.516  42.067   0.963
41205W        W 9610  39.839  20.088   4.141
41206W        W 9611  34.106  19.618   3.198
41207W        W 9612  19.763  33.581   1.780
41208W        W 9613  24.268  16.125  12.127
41209W        W 9614   9.729  34.650  13.645
41210W        W 9615   4.575   5.130   1.239
41211W        W 9616  25.168  31.512  14.861
41212W        W 9617  31.041  27.684  11.141
41213W        W 9618  24.533  35.431  11.516
41214W        W 9619  23.334  30.933  13.799
41215W        W 9620  37.927  20.233  10.761
41216W        W 9621  31.944  18.923   1.370
41217W        W 9622  16.195  13.205   9.951
41218W        W 9623  25.726  36.414  14.345
41219W        W 9624   8.453  43.591   1.069
41220W        W 9625   4.232  14.827  13.939
41221W        W 9626  40.390  36.340   3.202
41222W        W 9627   7.087  39.919  12.927
41223W        W 9628  44.470   5.723   2.392
41224W        W 9629  24.240  10.348   0.880
41225W        W 9630  33.579  27.650   4.146
41226W        W 9631   8.917  37.451   3.315
41227W        W 9632  33.087   5.926  14.790
41228W        W 9633   1.927  19.697   2.876
41229W        W 9634  14.180  31.345  10.803
41230W        W 9635   2.354  17.571  14.756
41231W        W 9636  29.569  28.014   2.326
41232W        W 9637  14.202  28.854   2.935
41233W        W 9638  20.215   6.241   0.717
41234W        W 9639  19.591  11.954   3.425
41235W        W 9640  31.769  28.651   2.288
41236W        W 9641  16.036   9.949   3.319
41237W        W 9642  35.140  28.465   1.327
41238W        W 9643  21.788  22.081  12.142
41239W        W 9644  28.647  25.050   0.857
41240W        W 9645  36.683   8.321  13.042
41241W        W 9646  31.243  30.883  11.107
41242W        W 9647  13.383  20.944   0.326
41243W        W 9648  25.948  29.158   1.269
41244W        W 9649   1.004  22.066  12.369
41245W        W 9650  44.291  32.121  14.844
41246W        W 9651  29.673   4.965  13.926
41247W        W 9652   8.346  18.936  10.718
41248W        W 9653  27.949  42.053   0.904
41249W        W 9654  23.460  43.648  11.688
41250W        W 9655  41.312   4.787   2.479
41251W        W 9656  31.857  33.259  10.343
41252W        W 9657  37.069   5.343  14.109
41253W        W 9658  17.796  41.611   2.551
41254W        W 9659  25.067  36.626  14.928
41255W        W 9660  44.478  25.125   2.626
41256W        W 9661  44.860  43.544  11.638
41257W        W 9662  30.643  30.825  14.545
41258W        W 9663   0.237  26.162  13.400
41259W        W 9664  15.335   4.031   3.161
41260W        W 9665  20.471  26.656  11.137
41261W        W 9666  22.582   5.038  11.148
41262W        W 9667   5.686   8.863  14.363
41263W        W 9668  14.869   8.419  12.592
41264W        W 9669  36.308  24.726  11.572
41265W        W 9670  37.355   5.977   3.696
41266W        W 9671  11.279  20.635   1.901
41267W        W 9672  18.661  21.319   0.659
41268W        W 9673   7.896   6.425   3.677
41269W        W 9674   1.875  38.513   0.823
41270W        W 9675  24.957  37.390   4.521
41271W        W 9676  10.574   7.193   0.295
41272W        W 9677   0.055  14.745  14.832
41273W        W 9678  12.571  30.032   3.886
41274W        W 9679  16.097  18.003  11.720
41275W        W 9680  28.526  21.005   3.296
41276W        W 9681  33.943  21.491  12.898
41277W        W 9682  32.024  43.068  12.349
41278W        W 9683  11.332  41.455   4.030
41279W        W 9684  24.525  22.554  11.011
41280W        W 9685  10.752  40.487   3.952
41281W        W 9686  37.801   4.716  12.889
41282W        W 9687   8.797   2.376   4.204
41283W        W 9688  38.579  39.827   3.135
41284W        W 9689  44.838  32.096  12.762
41285W        W 9690   6.753  13.364   0.575
41286W        W 9691  14.621  26.614   2.875
41287W        W 9692  25.234  21.586  14.324
41288W        W 9693  16.558  13.853  11.911
41289W        W 9694  15.210  32.534   0.276
41290W        W 9695  43.949  12.224  13.410
41291W        W 9696  44.699  33.380   4.832
41292W        W 9697  19.144  28.416  11.973
41293W        W 9698  19.738   3.238  12.522
41294W        W 9699  14.612   2.681  14.264
41295W        W 9700   8.326  14.692   3.738
41296W        W 9701  20.468  11.568   3.316
41297W        W 9702  43.533   6.754  13.419
41298W        W 9703  12.600   7.206  11.957
41299W        W 9704  22.829  29.310   4.171
41300W        W 9705  17.860   5.172   0.960
41301W        W 9706  13.817  22.727   2.905
41302W        W 9707  26.489  29.597  11.085
41303W        W 9708  30.479  31.430  12.534
41304W        W 9709   7.514  18.077  11.170
41305W        W 9710  39.851   3.963  11.952
41306W        W 9711  44.960  30.477  14.299
41307W        W 9712  14.943   9.321  12.011
41308W        W 9713  30.107  32.540  13.268
41309W        W 9714  17.827   0.257   2.706
41310W        W 9715   8.407   4.865   5.046
41311W        W 9716   4.822  38.044  10.214
41312W        W 9717  27.561  20.090  11.045
41313W        W 9718  44.731  19.764   0.213
41314W        W 9719  13.196  39.259  14.947
41315W        W 9720   9.749  28.297  14.450
41316W        W 9721   7.247  27.552  12.830
41317W        W 9722  26.402   6.589  14.215
41318W        W 9723   1.494  18.704   4.323
41319W        W 9724  41.556   7.368   1.318
41320W        W 9725   5.348  25.005  12.368
41321W        W 9726   1.262   4.245   4.491
41322W        W 9727  42.075  20.295   0.763
41323W        W 9728   8.808   9.548   0.291
41324W        W 9729  29.085  13.751   3.219
41325W        W 9730  16.062  23.032   0.896
41326W        W 9731  21.492  37.935   1.454
41327W        W 9732  18.091   3.213  13.584
41328W        W 9733  27.504  16.777  14.375
41329W        W 9734  17.677  32.896  11.618
41330W        W 9735  39.576  19.172  12.429
41331W        W 9736  11.653   3.786   0.869
41332W        W 9737   6.287  24.530   3.085
41333W        W 9738  43.567  11.277   0.757
41334W        W 9739  28.479  10.588  12.826
41335W        W 9740   9.165  14.744  10.145
41336W        W 9741  11.623  36.154  10.464
41337W        W 9742  25.785  11.681   3.732
41338W        W 9743  22.740  23.578  11.489
41339W        W 9744  26.304  31.658   5.062
41340W        W 9745  22.187  41.342  10.458
41341W        W 9746  41.097  19.818   2.913
41342W        W 9747  10.407  20.567   3.086
41343W        W 9748   5.303  18.627  11.466
41344W        W 9749  13.531   2.214  11.432
41345W        W 9750  41.540  43.810  10.593
41346W        W 9751  41.998   4.051  11.835
41347W        W 9752  44.346  31.554   4.149
41348W        W 9753  32.459  32.825   3.231
41349W        W 9754   7.765  13.711  13.852
41350W        W 9755  44.816  17.190   0.090
41351W        W 9756  31.115   5.670  10.408
41352W        W 9757  29.100   3.972   4.300
41353W        W 9758   1.353  23.900   2.361
41354W        W 9759  42.937  18.147   1.797
41355W        W 9760   4.340  11.750   1.248
41356W        W 9761  43.331  42.777  12.023
41357W        W 9762   6.372  17.509  11.600
41358W        W 9763  21.339  42.764  10.936
41359W        W 9764  20.281   2.548   2.154
41360W        W 9765   2.392  21.678  10.676
41361W        W 9766   4.983  25.509  14.901
41362W        W 9767  12.445  30.269  10.963
41363W        W 9768  37.779  31.116   3.834
41364W        W 9769   9.220  24.581  12.929
41365W        W 9770  14.700  26.433   0.991
41366W        W 9771  32.153  26.426   1.034
41367W        W 9772  36.954  34.975   2.420
41368W        W 9773   0.568  11.278   1.979
41369W        W 9774  17.573  36.504   1.730
41370W        W 9775   0.014  29.241  14.054
41371W        W 9776  19.747   9.808   2.172
41372W        W 9777  44.959  31.513   0.968
41373W        W 9778  15.348   6.145   0.811
41374W        W 9779  21.324  36.933   4.326
41375W        W 9780  27.566   0.739   2.293
41376W        W 9781  18.167  24.728   5.034
41377W        W 9782   9.156  38.005  13.736
41378W        W 9783  18.648  23.141  10.841
41379W        W 9784  21.634  17.743   1.765
41380W        W 9785  31.876  36.524  12.957
41381W        W 9786  25.400  14.920  10.726
41382W        W 9787  42.300  34.931   0.963
41383W        W 9788  21.785   5.747  14.940
41384W        W 9789  20.681  10.792   4.103
41385W        W 9790   6.900   1.822  11.045
41386W        W 9791  38.659  25.963   0.439
41387W        W 9792  16.748   9.679   4.784
41388W        W 9793  12.090  28.928  14.493
41389W        W 9794  38.907   1.301   2.807
41390W        W 9795  33.580  36.677  12.565
41391W        W 9796  31.298  13.359   1.287
41392W        W 9797   4.704  25.148   2.115
41393W        W 9798  13.307   3.424   2.335
41394W        W 9799  18.798  20.276  11.496
41395W        W 9800  18.190  10.874   4.076
41396W        W 9801  21.335  26.026   1.385
41397W        W 9802  22.766   3.804  10.681
41398W        W 9803  13.410  15.720  10.675
41399W        W 9804  40.887  33.806   2.826
41400W        W 9805  41.825   6.179  14.023
41401W        W 9806  39.224  13.221  13.922
41402W        W 9807  38.972   6.407   2.789
41403W        W 9808  38.837   6.684  14.030
41404W        W 9809  12.760  28.418  14.898
41405W        W 9810  35.317  12.720  11.524
41406W        W 9811   0.269  11.812  12.681
41407W        W 9812  11.679  27.961  14.348
41408W        W 9813  19.342  43.525   3.727
41409W        W 9814  37.368  10.801  13.568
41410W        W 9815  22.699   4.861  12.696
41411W        W 9816   5.542  18.478  14.107
41412W        W 9817  38.429  19.061   3.682
41413W        W 9818   9.345  41.910   0.331
41414W        W 9819  39.792  27.533  12.103
41415W        W 9820  23.350  18.178   4.188
41416W        W 9821  32.195  33.104  12.077
41417W        W 9822  33.934  33.112   4.619
41418W        W 9823  39.899  27.124   1.829
41419W        W 9824  37.596  27.560   1.031
41420W        W 9825  41.537  13.899  11.063
41421W        W 9826  12.971  33.144   9.851
41422W        W 9827   0.118   1.011   3.982
41423W        W 9828  34.975  42.518   4.665
41424W        W 9829  44.977  43.459  13.064
41425W        W 9830   6.677  38.471   2.821
41426W        W 9831  26.906  12.684  11.029
41427W        W 9832  29.213  39.912  13.125
41428W        W 9833  33.977  38.505  11.662
41429W        W 9834  22.217  12.023   4.239
41430W        W 9835  31.148   2.662  10.594
41431W        W 9836  41.809  10.118  11.642
41432W        W 9837  25.107  11.077  12.559
41433W        W 9838  20.008  40.247  11.635
41434W        W 9839  43.442  22.592   3.747
41435W        W 9840  44.867   9.146   3.273
41436W        W 9841  10.791   3.626  12.733
41437W        W 9842   6.296   1.932  14.563
41438W        W 9843  38.089  28.480   0.020
41439W        W 9844   2.538  36.509   4.628
41440W        W 9845  29.808  20.999   0.843
41441W        W 9846  32.512  35.527  11.999
41442W        W 9847   3.775   6.328   1.802
41443W        W 9848  20.783  12.590  11.634
41444W        W 9849  36.479  14.081  11.655
41445W        W 9850  25.039  17.263   1.539
41446W        W 9851  37.255  13.810  14.955
41447W        W 9852  29.812  41.992  14.208
41448W        W 9853  14.327  29.412   0.393
41449W        W 9854   7.265  20.083   2.662
41450W        W 9855   9.178  32.748   9.573
41451W        W 9856  21.722  26.368   2.480
41452W        W 9857  37.752  21.201  10.232
41453W        W 9858  11.316  19.664  11.006
41454W        W 9859  41.754  18.181  12.584
41455W        W 9860   1.322  12.706   3.340
41456W        W 9861  19.106  19.442  11.942
41457W        W 9862  13.264   6.222  12.644
41458W        W 9863  32.196  43.610  14.830
41459W        W 9864  19.609  27.599   3.808
41460W        W 9865  21.957  28.209   3.159
41461W        W 9866  18.314   7.216   1.757
41462W        W 9867  10.181   4.881   4.512
41463W        W 9868  10.802  40.513  14.644
41464W        W 9869   3.320  42.081  11.452
41465W        W 9870  32.640  21.661   3.677
41466W        W 9871  38.330  37.098   1.303
41467W        W 9872  31.951  22.101   4.597
41468W        W 9873  26.266  22.589  12.979
41469W        W 9874  24.539  19.113   4.081
41470W        W 9875  13.127  35.953  11.578
41471W        W 9876  31.530  18.971   2.407
41472W        W 9877   4.559  23.573   9.944
41473W        W 9878  29.482  14.896  11.152
41474W        W 9879  38.484  26.025   3.271
41475W        W 9880   6.405  28.751   3.064
41476W        W 9881  19.115  36.965   0.761
41477W        W 9882  42.527  22.950  10.605
41478W        W 9883   3.724  19.721  10.590
41479W        W 9884  21.054  16.853  11.524
41480W        W 9885   6.191   3.852  13.900
41481W        W 9886  33.373  10.350  10.678
41482W        W 9887  40.944  44.808  13.499
41483W        W 9888  41.787  31.619  12.566
41484W        W 9889   6.945  41.378  14.444
41485W        W 9890   8.350  36.258   0.700
41486W        W 9891   9.187  39.548   4.097
41487W        W 9892  18.268   2.151   3.246
41488W        W 9893  15.283  14.439  13.033
41489W        W 9894  43.374  26.194  12.554
41490W        W 9895   1.567  39.390   3.742
41491W        W 9896  41.597  25.164   0.963
41492W        W 9897  40.144  25.664  11.403
41493W        W 9898  19.195  12.195   1.239
41494W        W 9899  41.924  28.700  12.523
41495W        W 9900  26.445  32.388   0.894
41496W        W 9901  27.094  18.531  13.851
41497W        W 9902  17.837   4.394  10.675
41498W        W 9903   7.388  22.973   0.336
41499W        W 9904   8.240  24.730  11.488
41500W        W 9905  37.622  38.469  12.113
41501W        W 9906  18.389  14.969  12.764
41502W        W 9907  13.244   2.857   5.698
41503W        W 9908  15.724  38.815  13.772
41504W        W 9909  13.430  23.847  11.081
41505W        W 9910  36.061  38.765  13.897
41506W        W 9911  28.821  27.219  12.398
41507W        W 9912  26.209  36.899   2.634
41508W        W 9913  28.471  13.872  14.385
41509W        W 9914  38.768  17.992  13.843
41510W        W 9915   8.803  25.790  12.073
41511W        W 9916  16.288  10.445   3.203
41512W        W 9917  23.197  27.364  13.456
41513W        W 9918   2.593  21.660   1.995
41514W        W 9919  26.496  31.439   2.958
41515W        W 9920  14.233  22.779  14.952
41516W        W 9921  25.445   1.229  13.280
41517W        W 9922  18.620   9.917  12.327
41518W        W 9923  14.222  15.821   4.347
41519W        W 9924  16.101  34.362   4.666
41520W        W 9925  31.611  27.946   2.437
41521W        W 9926  16.996  14.307   1.856
41522W        W 9927  17.718  34.107  13.849
41523W        W 9928   2.580  27.596  13.401
41524W        W 9929  39.104   1.158   9.716
41525W        W 9930  23.540   3.544  13.758
41526W        W 9931  13.194  39.832  13.065
41527W        W 9932   8.686  18.268   3.197
41528W        W 9933  25.133   5.980  14.419
41529W        W 9934   6.811  21.682  13.821
41530W        W 9935  33.220  34.917   1.444
41531W        W 9936  38.339  34.680  10.822
41532W        W 9937   0.672   2.823  10.719
41533W        W 9938   7.964  37.912   1.183
41534W        W 9939  15.284   6.048  13.645
41535W        W 9940   5.716   2.488   4.376
41536W        W 9941  21.806   2.800  10.831
41537W        W 9942   8.431   1.309   3.394
41538W        W 9943  15.520  20.751   3.714
41539W        W 9944  35.378  18.113   3.647
41540W        W 9945   0.825  44.903   4.032
41541W        W 9946  37.055  38.838  11.720
41542W        W 9947   7.614   8.896  13.936
41543W        W 9948   6.129   0.563  12.636
41544W        W 9949   1.780   2.300   0.903
41545W        W 9950  31.701   2.314   0.333
41546W        W 9951   4.359  36.570   0.963
41547W        W 9952  28.139   6.413   5.369
41548W        W 9953   4.313  10.551  11.924
41549W        W 9954   0.626   5.547   4.080
41550W        W 9955  34.804   5.672   1.893
41551W        W 9956  18.240  20.965  11.140
41552W        W 9957  14.773  23.667   0.988
41553W        W 9958   1.700   1.442   2.662
41554W        W 9959  14.545  13.677   0.393
41555W        W 9960  17.739  29.560  11.579
41556W        W 9961  15.451  38.964   0.078
41557W        W 9962  15.667  28.716   3.858
41558W        W 9963  15.582  13.639  12.095
41559W        W 9964  38.404   6.953  12.010
41560W        W 9965   9.139  11.290  11.993
41561W        W 9966  27.530  41.320   1.004
41562W        W 9967   3.990  20.042  14.939
41563W        W 9968   6.928   9.668   1.027
41564W        W 9969  43.710  22.611  12.871
41565W        W 9970  40.236  11.407   1.705
41566W        W 9971  14.076  26.480   0.506
41567W        W 9972  22.460  11.623   5.016
41568W        W 9973  28.606  18.258   1.371
41569W        W 9974   7.724  32.280   0.819
41570W        W 9975  18.171  29.636   0.550
41571W        W 9976  27.494   5.439   0.542
41572W        W 9977  26.713  20.757   3.710
41573W        W 9978  20.507  12.310   1.888
41574W        W 9979   0.222  37.896  14.521
41575W        W 9980  19.220  39.316  13.391
41576W        W 9981  12.594   3.581   4.927
41577W        W 9982  16.392  34.433  11.701
41578W        W 9983  24.022  30.744  11.954
41579W        W 9984  10.439  33.668  14.812
41580W        W 9985   0.526  29.310  12.436
41581W        W 9986  22.901  24.418  11.980
41582W        W 9987  13.101  16.945   1.449
41583W        W 9988  41.341   5.367   3.177
41584W        W 9989  28.327   9.908  12.242
41585W        W 9990  13.177  32.578   4.530
41586W        W 9991  21.748  16.668   2.185
41587W        W 9992  22.882  38.675   3.289
41588W        W 9993   3.235  38.750  10.087
41589W        W 9994  35.196   0.021   3.330
41590W        W 9995   7.820  31.089   0.385
41591W        W 9996  32.094  29.754  14.347
41592W        W 9997   3.900   0.396   1.750
41593W        W 9998  27.173  21.022   3.654
41594W        W 9999   8.491  21.004  14.339
41595W        W10000  12.726   3.264  13.089
41596W        W10001  14.290  20.566  13.360
41597W        W10002  10.796  12.650  12.658
41598W        W10003  13.218  35.603   1.897
41599W        W10004  34.178  20.501   3.700
41600W        W10005  19.734  37.919   2.789
41601W        W10006  41.831  13.612   1.463
41602W        W10007   3.460  14.894   2.401
41603W        W10008  10.875  28.016  12.963
41604W        W10009   6.647  13.049   4.798
41605W        W10010   9.092  32.443  12.391
41606W        W10011  11.979   3.850   4.141
41607W        W10012  42.826  32.589  11.595
41608W        W10013  43.585   8.376  10.514
41609W        W10014   1.838  37.558   4.544
41610W        W10015  21.794  10.421   1.734
41611W        W10016  40.010  41.147  12.552
41612W        W10017   8.920   4.366  12.405
41613W        W10018  31.518  23.104   1.964
41614W        W10019  26.261  34.312   4.528
41615W        W10020  30.572  41.589   0.770
41616W        W10021  12.542  37.798   0.371
41617W        W10022  11.323  37.784  14.321
41618W        W10023  33.431  23.542  13.551
41619W        W10024  13.854  31.878  12.821
41620W        W10025  37.947  29.247   2.821
41621W        W10026  32.988  15.239  10.410
41622W        W10027  44.815  32.367  13.949
41623W        W10028  20.215   2.809   0.900
41624W        W10029   0.979   1.996   1.240
41625W        W10030  18.821  27.118  10.681
41626W        W10031  33.497  22.202   2.850
41627W        W10032  41.539   6.459  10.362
41628W        W10033  43.957  40.258   3.138
41629W        W10034  35.421   0.879   4.594
41630W        W10035  24.115  20.034  11.565
41631W        W10036  38.902  36.322   4.540
41632W        W10037  16.592   3.197   2.891
41633W        W10038  30.729  40.415  12.957
41634W        W10039  21.531  36.357   0.285
41635W        W10040  15.334  31.756  12.407
41636W        W10041  24.160  24.824  10.755
41637W        W10042  20.749  37.462  12.234
41638W        W10043  19.451  15.374  12.082
41639W        W10044  28.498  43.712   1.382
41640W        W10045  39.529  31.397   4.582
41641W        W10046  41.806   4.035   3.592
41642W        W10047   9.467  37.980  14.294
41643W        W10048  40.899  14.919  14.884
41644W        W10049  12.819  43.412   4.442
41645W        W10050  40.589  14.011   1.519
41646W        W10051  35.515  22.671  11.200
41647W        W10052  25.262   4.137  11.800
41648W        W10053  39.811  44.884   1.241
41649W        W10054  43.264  31.249  12.602
41650W        W10055  12.812  11.460  12.732
41651W        W10056  13.396  20.153  14.836
41652W        W10057  20.116  40.266   0.371
41653W        W10058   3.719  19.832  12.190
41654W        W10059  24.332  14.831  12.461
41655W        W10060   0.383   6.671  11.160
41656W        W10061  34.970  14.974  12.181
41657W        W10062  15.238  26.693  11.356
41658W        W10063   8.412  14.897  11.123
41659W        W10064  32.009  41.862  13.751
41660W        W10065  33.470  43.022  14.138
41661W        W10066  23.687  14.741   2.767
41662W        W10067   5.993  37.800  13.406
41663W        W10068  29.358   5.278  10.867
41664W        W10069  28.751   3.984   2.408
41665W        W10070  14.357   6.161   0.752
41666W        W10071  33.916   5.408  14.535
41667W        W10072  33.107  30.524  12.529
41668W        W10073   9.930  42.268   4.471
41669W        W10074  22.533  13.685  12.052
41670W        W10075   8.585  25.290   0.844
41671W        W10076   0.686  16.110  13.348
41672W        W10077  26.483  38.801   0.672
41673W        W10078  42.027  10.725  10.720
41674W        W10079  24.712   0.936  11.090
41675W        W10080  37.044   1.651   9.981
41676W        W10081  43.937  41.088   2.727
41677W        W10082   8.464   4.405  10.723
41678W        W10083  25.626  37.574   3.151
41679W        W10084   4.274  12.826  11.059
41680W        W10085  11.691  18.710  10.539
41681W        W10086  21.417   3.385  14.821
41682W        W10087   6.764  14.511  11.496
41683W        W10088  14.190  38.375   1.439
41684W        W10089   1.047  33.154  12.956
41685W        W10090  11.247  23.161   1.662
41686W        W10091  33.516  37.777  11.603
41687W        W10092  41.127  40.478  14.631
41688W        W10093  43.204  25.496   1.399
41689W        W10094  27.490  44.871  13.022
41690W        W10095   3.805  38.600   2.989
41691W        W10096  19.019   9.267  13.907
41692W        W10097  22.111   4.473   0.914
41693W        W10098  35.784  35.397  13.416
41694W        W10099   0.518   2.381   0.435
41695W        W10100  41.428  26.067   1.141
41696W        W10101  41.611  40.967  12.085
41697W        W10102  30.597  32.038   3.697
41698W        W10103  37.432  39.096   1.979
41699W        W10104  29.812   4.457  14.762
41700W        W10105  13.110   5.884  11.993
41701W        W10106  24.984  19.761  10.274
41702W        W10107  17.632  23.990  12.398
41703W        W10108   3.358   7.799   3.651
41704W        W10109  23.746  41.319  13.319
41705W        W10110   1.801  18.780  14.526
41706W        W10111  24.093  27.627   0.683
41707W        W10112  18.848  35.938   3.268
41708W        W10113   6.986  18.027  11.142
41709W        W10114  11.652  34.872  10.307
41710W        W10115  40.905  24.716  14.797
41711W        W10116  13.565  19.317   0.407
41712W        W10117   3.329  41.063   4.357
41713W        W10118  25.681  36.003  14.679
41714W        W10119  23.438  37.491  12.126
41715W        W10120  44.820  37.034  10.636
41716W        W10121  35.454  31.118  10.745
41717W        W10122   3.981  30.405   0.418
41718W        W10123   8.300  43.611  11.198
41719W        W10124   2.982  20.259  13.300
41720W        W10125  11.734  16.802   1.788
41721W        W10126  38.387   8.359   2.339
41722W        W10127  30.536  39.926  12.117
41723W        W10128  22.126  33.304  11.523
41724W        W10129  28.186  27.165   1.506
41725W        W10130  43.402  38.259  10.638
41726W        W10131  38.876  40.826   3.861
41727W        W10132  17.972  44.972  13.286
41728W        W10133  42.889  32.840  14.358
41729W        W10134  14.450  17.309   0.933
41730W        W10135   7.107  36.954  11.186
41731W        W10136  28.112  25.118  13.801
41732W        W10137  26.398  23.427  12.605
41733W        W10138   6.409  27.308  12.312
41734W        W10139  28.908  43.542   4.270
41735W        W10140   4.929  13.785  14.144
41736W        W10141  13.601  12.007   2.853
41737W        W10142   2.060  23.274  12.590
41738W        W10143  31.894  38.685  11.674
41739W        W10144  31.111  23.593   2.873
41740W        W10145  21.986  39.489   3.863
41741W        W10146  17.309  38.489   2.443
41742W        W10147  42.343  10.868  13.681
41743W        W10148   0.964  20.785   4.531
41744W        W10149  30.847   6.948  14.362
41745W        W10150  25.101   7.372   0.570
41746W        W10151  16.816  39.837   3.900
41747W        W10152  20.765  26.800   4.598
41748W        W10153  10.738  17.240   4.227
41749W        W10154  22.429  21.223   2.446
41750W        W10155  15.167   7.453  11.590
41751W        W10156   1.600  43.093  11.525
41752W        W10157  33.208  38.499  13.032
41753W        W10158   7.894  41.084  14.019
41754W        W10159  28.119  43.272   2.998
41755W        W10160  34.444  10.909   4.909
41756W        W10161   6.294  36.788  11.754
41757W        W10162  44.272  27.895   2.800
41758W        W10163  29.897  23.473   2.299
41759W        W10164  33.857  17.988  12.458
41760W        W10165  43.950  29.313  14.424
41761W        W10166  31.207  19.202  10.193
41762W        W10167  25.952  36.303   1.749
41763W        W10168  19.559   9.354  10.980
41764W        W10169  12.067  25.789   4.102
41765W        W10170   2.386  13.836  11.958
41766W        W10171  42.800  41.559  10.749
41767W        W10172  21.501  15.831  12.890
41768W        W10173  12.891  21.962  14.433
41769W        W10174  31.839   7.148  10.383
41770W        W10175  13.570   7.017   1.489
41771W        W10176  36.879  23.009   4.667
41772W        W10177   2.312   8.783  12.440
41773W        W10178  25.827  26.223   1.296
41774W        W10179  31.558  24.565   0.738
41775W        W10180  35.891  13.576   0.100
41776W        W10181  43.270   0.690  14.087
41777W        W10182   5.903   6.974  10.328
41778W        W10183   8.796  11.298   0.775
41779W        W10184  34.529   7.121   4.878
41780W        W10185  29.429  30.289   4.575
41781W        W10186  33.788   9.253  12.389
41782W        W10187   0.005  10.101  14.768
41783W        W10188  34.580   9.363  11.159
41784W        W10189  20.269  27.961   3.677
41785W        W10190  13.460  43.896  14.907
41786W        W10191   7.848  23.036  14.404
41787W        W10192  25.084  21.117   3.677
41788W        W10193   9.449  23.730   3.739
41789W        W10194  15.245  27.753   2.817
41790W        W10195  38.365  13.545  14.077
41791W        W10196  33.094  38.564  11.211
41792W        W10197  36.597  42.996   2.715
41793W        W10198   5.402  34.841   4.089
41794W        W10199  38.374  29.201  13.042
41795W        W10200  37.554  24.725   4.293
41796W        W10201  11.845  40.982  12.515
41797W        W10202  15.514  13.267  11.372
41798W        W10203  23.227  34.647  11.890
41799W        W10204  23.138  33.970  12.447
41800W        W10205   5.201  33.991   2.114
41801W        W10206   7.915  11.092  11.121
41802W        W10207  29.577  17.705   3.895
41803W        W10208   7.597  15.159   0.424
41804W        W10209  10.981   0.333  11.915
41805W        W10210   0.271  14.932  13.917
41806W        W10211  42.873  13.076   1.717
41807W        W10212   6.799   3.912   3.690
41808W        W10213   7.614   3.114  11.566
41809W        W10214  21.736  39.859   2.707
41810W        W10215  12.984  27.051   0.058
41811W        W10216  12.267  19.980   4.503
41812W        W10217  34.888   8.058   4.574
41813W        W10218   8.276  20.860   2.394
41814W        W10219  22.080  11.305   1.394
41815W        W10220   1.317   0.964   4.578
41816W        W10221  30.063  13.250   0.782
41817W        W10222  43.792  36.891   2.203
41818W        W10223  31.439  37.285  13.116
41819W        W10224  42.767  28.964   2.744
41820W        W10225  12.258  36.166   4.662
41821W        W10226  17.597   3.676  11.596
41822W        W10227  11.973  42.490  14.770
41823W        W10228  39.302  39.196   4.073
41824W        W10229  24.478  12.796  12.854
41825W        W10230  14.405  12.509   3.274
41826W        W10231  38.571  29.150  14.332
41827W        W10232  40.913  13.115   3.619
41828W        W10233   9.834  43.597  11.368
41829W        W10234  11.053  38.102  12.090
41830W        W10235  17.709   4.915  10.630
41831W        W10236  22.885  40.806   0.778
41832W        W10237  29.246  38.668   1.493
41833W        W10238  14.160   8.967   5.019
41834W        W10239   6.957  16.035  11.640
41835W        W10240  25.975   4.972   2.402
41836W        W10241  26.962  35.978  11.509
41837W        W10242  42.010  30.194   1.864
41838W        W10243   9.130   2.981   0.302
41839W        W10244  41.840  35.182   0.324
41840W        W10245  36.252  24.822  13.401
41841W        W10246  36.751  21.757   2.397
41842W        W10247  25.574  24.761   3.916
41843W        W10248  35.036  23.868   1.530
41844W        W10249  16.366   5.720  10.158
41845W        W10250  11.223   7.225  13.296
41846W        W10251  22.388  27.127  10.695
41847W        W10252  19.800  24.598  11.935
41848W        W10253  40.087  29.610  14.392
41849W        W10254  13.692  32.805   1.433
41850W        W10255  40.578  31.455   2.825
41851W        W10256  15.906  44.433  11.158
41852W        W10257  19.183   2.023  11.078
41853W        W10258  28.597   3.398   1.174
41854W        W10259  41.535  26.805   0.205
41855W        W10260   7.218   5.443  13.011
41856W        W10261  18.188  27.587  12.904
41857W        W10262   7.674  44.924   1.355
41858W        W10263  12.707  42.709   0.470
41859W        W10264   2.723  23.759   3.537
41860W        W10265   7.882  19.668  12.541
41861W        W10266  32.911  28.438   0.745
41862W        W10267  10.570  26.501  12.106
41863W        W10268  28.380   5.757   2.462
41864W        W10269  40.247   4.878   1.423
41865W        W10270  13.327  12.071   2.406
41866W        W10271  15.089  35.110   1.165
41867W        W10272   7.469  40.751  13.977
41868W        W10273  22.189   8.420  12.531
41869W        W10274  38.644  37.377   4.324
41870W        W10275  15.220  24.512   3.646
41871W        W10276  28.590  35.850  12.222
41872W        W10277   7.861  22.237  10.773
41873W        W10278   2.342  13.573   0.411
41874W        W10279  16.408  32.620  14.825
41875W        W10280   2.768  28.358  11.980
41876W        W10281  35.283  28.595  11.130
41877W        W10282  36.887   3.445  12.029
41878W        W10283  30.112  20.676   3.971
41879W        W10284  33.423  35.786   3.436
41880W        W10285   5.705  31.448   3.841
41881W        W10286  39.023   3.969   5.019
41882W        W10287   5.661   1.375   1.448
41883W        W10288  30.120  31.113   2.864
41884W        W10289  25.131  16.484   2.198
41885W        W10290  13.094  33.033  13.319
41886W        W10291  40.348  23.532   3.557
41887W        W10292  37.492   0.618  13.689
41888W        W10293  12.933  20.639   2.413
41889W        W10294   5.945   1.140  14.419
41890W        W10295  27.934  23.916  11.422
41891W        W10296  14.037  40.531  13.825
41892W        W10297  35.605  15.768  11.288
41893W        W10298   4.251  23.711   0.357
41894W        W10299  37.484  12.629   0.283
41895W        W10300  27.080   6.982  11.575
41896W        W10301  13.787  40.287   1.422
41897W        W10302  15.947   8.697   5.026
41898W        W10303  44.980  31.587   1.484
41899W        W10304   8.200   5.805  13.896
41900W        W10305  34.220  36.230   3.248
41901W        W10306  20.630   3.493  11.687
41902W        W10307  30.444   1.302   3.416
41903W        W10308  23.693   4.681  10.127
41904W        W10309   7.899   7.903  10.475
41905W        W10310  16.177  14.672  14.495
41906W        W10311  34.377  10.763  11.534
41907W        W10312  35.960  28.728  11.685
41908W        W10313  41.728  44.849   4.729
41909W        W10314  17.223  41.106  11.722
41910W        W10315  42.407  21.060   1.883
41911W        W10316  11.385   8.171   4.148
41912W        W10317  21.478  28.027   0.125
41913W        W10318  14.598  21.096  14.289
41914W        W10319  38.802  22.046  11.554
41915W        W10320   2.935  29.947  13.748
41916W        W10321  44.125  32.488   2.514
41917W        W10322  31.924  34.748  12.940
41918W        W10323  21.034  13.864   2.807
41919W        W10324  44.036  26.048  13.790
41920W        W10325  21.960  17.870  11.160
41921W        W10326  15.319  43.534   2.351
41922W        W10327  37.668  13.045   3.314
41923W        W10328   5.537  36.040   4.947
41924W        W10329  11.263  41.100  11.722
41925W        W10330  35.294   3.123   0.860
41926W        W10331  22.504  35.566  14.837
41927W        W10332  17.107  17.503   3.343
41928W        W10333   7.771   7.815   2.363
41929W        W10334   6.694   4.697  14.024
41930W        W10335  44.966  36.084   3.664
41931W        W10336  26.839  10.798   1.184
41932W        W10337  17.427  17.169   4.606
41933W        W10338   5.853  35.877   1.899
41934W        W10339   2.523  21.292  11.000
41935W        W10340  24.497   7.477  14.895
41936W        W10341  28.863  28.695   0.829
41937W        W10342  36.881   8.783   2.833
41938W        W10343  17.157  16.715  10.698
41939W        W10344  13.766  37.665   0.901
41940W        W10345  27.048  43.803   1.617
41941W        W10346  31.696  23.122  10.534
41942W        W10347   5.720  22.637  11.329
41943W        W10348  38.115  16.570  12.408
41944W        W10349  34.402  38.895   2.000
41945W        W10350  19.713  23.424  11.665
41946W        W10351  42.603   6.331  14.414
41947W        W10352  16.148   3.924   3.772
41948W        W10353  10.313  10.524  14.347
41949W        W10354  33.226  27.645   0.144
41950W        W10355   8.973   8.658  12.662
41951W        W10356   5.797  14.006  12.373
41952W        W10357   1.441  37.327   4.913
41953W        W10358   9.785  34.806   0.036
41954W        W10359  18.641  38.473  12.042
41955W        W10360  40.802   3.595   2.753
41956W        W10361  18.749  11.433  14.829
41957W        W10362  25.622  38.193   2.288
41958W        W10363  37.372  44.470  12.038
41959W        W10364   9.926  40.346   0.786
41960W        W10365  14.106   4.818  14.744
41961W        W10366  13.779   5.504   1.793
41962W        W10367  15.298  39.060  11.073
41963W        W10368  14.047   7.675   2.885
41964W        W10369   8.241   2.424  14.506
41965W        W10370   8.866   0.195   1.262
41966W        W10371  34.459  19.714  12.390
41967W        W10372  11.344  21.425   1.146
41968W        W10373  34.510  29.498   3.707
41969W        W10374  44.254  22.194   2.671
41970W        W10375  16.595   9.422   1.322
41971W        W10376  33.956  42.489   0.303
41972W        W10377  32.029  39.403  11.202
41973W        W10378   0.568  24.543   1.885
41974W        W10379  28.413  30.666  11.445
41975W        W10380  40.023  22.636  14.115
41976W        W10381   3.794   2.478  11.999
41977W        W10382  21.271  35.137   2.505
41978W        W10383  33.608  43.063   1.259
41979W        W10384  23.476  31.403  13.591
41980W        W10385  11.177   2.023  10.758
41981W        W10386  43.620  10.048   4.990
41982W        W10387   3.414  21.555   0.741
41983W        W10388  21.055  17.362   1.337
41984W        W10389   4.345  26.464  11.178
41985W        W10390   9.260  12.349   1.545
41986W        W10391  10.715  14.869   2.174
41987W        W10392   2.414  22.741   3.634
41988W        W10393   8.981  39.983   1.993
41989W        W10394  21.484  30.416   1.066
41990W        W10395   5.251   7.081  14.521
41991W        W10396   2.135   1.510  13.897
41992W        W10397  11.893   0.268   0.560
41993W        W10398  31.047  25.612  12.957
41994W        W10399  40.471  37.118  13.320
41995W        W10400  15.777  28.955   0.999
41996W        W10401  42.287  41.548  14.078
41997W        W10402  44.071  42.081  11.903
41998W        W10403   8.786  20.383   1.826
41999W        W10404  12.628   3.730   0.259
42000W        W10405  41.973  37.422   0.949
42001W        W10406   4.613  31.438   3.745
42002W        W10407  42.094   8.301  11.327
42003W        W10408  12.867  13.199  10.503
42004W        W10409  10.002   6.859   0.690
42005W        W10410  40.429  43.480  12.009
42006W        W10411   5.480  20.622  14.377
42007W        W10412   5.182  31.899   1.717
42008W        W10413   9.400   2.506   4.619
42009W        W10414  16.797  16.256   2.735
42010W        W10415  36.163  16.657   3.635
42011W        W10416   3.828  12.261   4.360
42012W        W10417  31.613   5.278   3.261
42013W        W10418   6.168  34.414  14.943
42014W        W10419  41.242  35.922  10.503
42015W        W10420   3.992   6.843   0.388
42016W        W10421  27.985   5.894   3.326
42017W        W10422  18.758  13.431   0.843
42018W        W10423  25.581  34.459   4.049
42019W        W10424  25.773  34.843  10.745
42020W        W10425  40.798  20.895  13.067
42021W        W10426  35.716   2.699   3.734
42022W        W10427  31.476  15.858  11.462
42023W        W10428  40.446  14.738  13.824
42024W        W10429  21.538  33.678  12.306
42025W        W10430  27.136  30.475   9.993
42026W        W10431  16.238  28.971  13.395
42027W        W10432  42.946   5.940  13.598
42028W        W10433  17.673  26.471  14.045
42029W        W10434  21.118  23.466   0.964
42030W        W10435   7.811   3.661   3.639
42031W        W10436  25.281  15.193  12.720
42032W        W10437  39.146  23.905   1.071
42033W        W10438  22.823  31.536  12.502
42034W        W10439  16.755  30.435   0.302
42035W        W10440  44.569  26.094   0.303
42036W        W10441  19.749  31.130   4.012
42037W        W10442  14.187   4.193  13.935
42038W        W10443   7.488  22.115   0.795
42039W        W10444  32.101  35.689   2.323
42040W        W10445  28.521   2.697  14.614
42041W        W10446  31.656  41.622   1.870
42042W        W10447  39.846  16.060   3.531
42043W        W10448  25.159  38.478   1.207
42044W        W10449  14.066  21.703   1.830
42045W        W10450  40.712   6.825  12.622
42046W        W10451  26.939  18.744   4.533
42047W        W10452   1.015   7.401   0.333
42048W        W10453  31.784  38.446   3.618
42049W        W10454  39.153  34.145   2.180
42050W        W10455  21.925  18.574   4.161
42051W        W10456  36.141  36.319   2.323
42052W        W10457  32.749  12.322   2.388
42053W        W10458  44.427  37.890  12.532
42054W        W10459  31.871  20.271  11.477
42055W        W10460   6.641   6.692  14.486
42056W        W10461  31.081  16.208   0.952
42057W        W10462  42.905  17.297  14.031
42058W        W10463   9.342  40.019  13.608
42059W        W10464  43.874   1.796   1.487
42060W        W10465  30.544  15.343  12.081
42061W        W10466  23.092   2.882  12.584
42062W        W10467  27.492  25.469  14.939
42063W        W10468  25.901   1.487   1.362
42064W        W10469  18.506  34.141  12.334
42065W        W10470  37.265  27.212   3.527
42066W        W10471  11.354   9.648  14.791
42067W        W10472  39.139  37.566   4.284
42068W        W10473  41.895  41.356   2.336
42069W        W10474  22.639  29.521  12.136
42070W        W10475  31.993  33.523  10.757
42071W        W10476  42.998   8.995   1.900
42072W        W10477  36.369  12.664  14.853
42073W        W10478  17.096  30.949  14.323
42074W        W10479  14.099  38.570   4.541
42075W        W10480  31.877  20.565  11.924
42076W        W10481  17.233  27.480   3.682
42077W        W10482   0.229  34.005   4.599
42078W        W10483  35.576  23.673  11.877
42079W        W10484  23.540  44.626   1.165
42080W        W10485  10.334   1.257   0.427
42081W        W10486  25.306  15.649   2.774
42082W        W10487  42.817  29.493  13.363
42083W        W10488  23.403  11.019  11.025
42084W        W10489  20.821   4.414   0.292
42085W        W10490  41.204  42.551  13.894
42086W        W10491   3.726  26.107   2.350
42087W        W10492  13.244  21.727   4.374
42088W        W10493  21.512  25.322   5.131
42089W        W10494  12.591   7.681  14.001
42090W        W10495  41.241   8.748   2.851
42091W        W10496  15.139  15.645  14.881
42092W        W10497   7.191  42.778  11.426
42093W        W10498  34.880  34.703   5.066
42094W        W10499  11.312  11.089   4.131
42095W        W10500  20.073  44.753  12.024
42096W        W10501  44.484  21.958  11.096
42097W        W10502  29.191  34.895   2.562
42098W        W10503   4.143  16.117  10.568
42099W        W10504   5.406  44.515   0.573
42100W        W10505  18.735   5.881   4.055
42101W        W10506  38.012  37.489  11.226
42102W        W10507   1.705  41.334   1.070
42103W        W10508   0.966  12.647   2.511
42104W        W10509  20.116  25.019  13.451
42105W        W10510  36.366  30.481  11.609
42106W        W10511  26.012   0.868  11.606
42107W        W10512  43.317  43.500   3.640
42108W        W10513  25.355  38.419  14.740
42109W        W10514  24.580  28.919  14.365
42110W        W10515  26.568  32.507   2.278
42111W        W10516   9.676  37.824   4.341
42112W        W10517  24.559   4.882  13.030
42113W        W10518   7.834  30.637   4.073
42114W        W10519   1.540   2.829   3.506
42115W        W10520  36.817  12.133  11.128
42116W        W10521  22.627  20.286  10.198
42117W        W10522  30.053  39.417   2.250
42118W        W10523  21.390  43.028   9.939
42119W        W10524  24.561  42.755  10.765
42120W        W10525  12.949  19.829  14.916
42121W        W10526  28.688  30.084  12.490
42122W        W10527  13.660   3.125  14.318
42123W        W10528  40.638   3.105   4.529
42124W        W10529   8.678   3.719  13.641
42125W        W10530  25.609  44.251  13.443
42126W        W10531   5.709  26.464  13.269
42127W        W10532   5.672  23.510  13.462
42128W        W10533  35.817   2.250   0.439
42129W        W10534   6.749  11.918   0.442
42130W        W10535  30.653  10.531   0.776
42131W        W10536  15.907  24.743   0.961
42132W        W10537  21.001  12.735  12.108
42133W        W10538  28.184  44.777  14.462
42134W        W10539  44.439   2.458   3.270
42135W        W10540  39.597  14.501   1.456
42136W        W10541  44.000  20.995  11.946
42137W        W10542  34.907  37.463  10.986
42138W        W10543  11.688  28.549   3.794
42139W        W10544   1.545  43.272  14.402
42140W        W10545   8.414  29.486  11.893
42141W        W10546  23.668  43.895  12.098
42142W        W10547  44.051  12.130   0.248
42143W        W10548  31.617   1.011   4.241
42144W        W10549   1.031   1.388  14.479
42145W        W10550  31.821  43.508   2.220
42146W        W10551   3.322  34.767   2.447
42147W        W10552  44.476  34.945   5.118
42148W        W10553  43.872  34.662  14.706
42149W        W10554  17.821  22.605  12.723
42150W        W10555  30.098  10.938   2.700
42151W        W10556  32.087   2.162  14.929
42152W        W10557  41.201  18.188   0.019
42153W        W10558  40.774   3.014  14.998
42154W        W10559  34.117  31.242   4.271
42155W        W10560  41.373  25.085   2.430
42156W        W10561  39.864  11.376  13.415
42157W        W10562   7.700  17.940   2.340
42158W        W10563  22.507  24.517  11.653
42159W        W10564  29.873   4.364  14.268
42160W        W10565   7.404   0.614  14.254
42161W        W10566  19.299  36.163  13.261
42162W        W10567  20.948   7.423   0.378
42163W        W10568  37.433   8.229   1.387
42164W        W10569  26.126  20.042   4.892
42165W        W10570  31.367  40.962  14.926
42166W        W10571  19.110   8.146  12.112
42167W        W10572  26.629  10.415  12.507
42168W        W10573   3.974  21.147  12.456
42169W        W10574   9.242  34.088   0.198
42170W        W10575  12.212  28.987  12.900
42171W        W10576  36.071   7.416   3.694
42172W        W10577  17.872  25.454   2.173
42173W        W10578   1.248  44.751   4.891
42174W        W10579   7.508  10.904  10.773
42175W        W10580   2.615  42.703  13.859
42176W        W10581  13.342  43.054  14.440
42177W        W10582  32.148  29.455   0.696
42178W        W10583   1.920   8.625   0.816
42179W        W10584  34.627  19.790  11.329
42180W        W10585  20.320   6.165   4.242
42181W        W10586  37.457  41.900   2.774
42182W        W10587   9.436  34.033  12.434
42183W        W10588   2.406  44.948  12.466
42184W        W10589   2.497  33.448   4.149
42185W        W10590   9.330  39.405   0.751
42186W        W10591  34.043  42.746  11.059
42187W        W10592  24.326  41.492   1.412
42188W        W10593  12.413  39.178  12.530
42189W        W10594  20.069  24.288   2.410
42190W        W10595  14.309  20.742  13.851
42191W        W10596  28.894   0.547   3.850
42192W        W10597   1.290  40.284   4.595
42193W        W10598  21.481   5.341   0.069
42194W        W10599  13.538  37.779   1.367
42195W        W10600   3.454  36.965  13.192
42196W        W10601   9.297  28.459  11.208
42197W        W10602  44.449  30.336  13.480
42198W        W10603  42.648  36.630   4.592
42199W        W10604   8.804  17.838  13.042
42200W        W10605  26.599  20.793  11.895
42201W        W10606  32.546  26.907   3.671
42202W        W10607  28.718  42.946  14.436
42203W        W10608  23.207  26.533  10.615
42204W        W10609   3.342  30.372   3.629
42205W        W10610   7.382  43.242  12.989
42206W        W10611  22.670  26.793   0.303
42207W        W10612  38.084   8.584   5.298
42208W        W10613  27.416  29.580  12.569
42209W        W10614  29.598  17.231   4.149
42210W        W10615  32.877  27.296   3.511
42211W        W10616   2.151  15.848   0.959
42212W        W10617   7.509   6.778   0.445
42213W        W10618  15.289  35.018  11.882
42214W        W10619  32.120   5.783   3.301
42215W        W10620  32.912  34.715  14.645
42216W        W10621  22.456   9.306  12.525
42217W        W10622  25.713  38.452  12.420
42218W        W10623  31.158  34.380   0.820
42219W        W10624  32.950  22.172  14.327
42220W        W10625   0.284  24.544  14.859
42221W        W10626  15.042  13.178   2.633
42222W        W10627  35.879  19.640  12.953
42223W        W10628  10.843   6.584  12.156
42224W        W10629  12.133  23.509   2.298
42225W        W10630  17.582  42.979   2.154
42226W        W10631  23.057  38.036   3.263
42227W        W10632   3.689  12.954   0.113
42228W        W10633  33.906  15.838   0.206
42229W        W10634  31.558  26.022  11.486
42230W        W10635  15.511  15.019   2.824
42231W        W10636  15.441  21.893   5.240
42232W        W10637   0.837  35.582   3.252
42233W        W10638  27.407  14.775  10.745
42234W        W10639  11.388  20.620  10.654
42235W        W10640  16.349  12.704  13.418
42236W        W10641  36.345  12.606  13.790
42237W        W10642   8.512   1.387   1.575
42238W        W10643  40.641   2.975  10.415
42239W        W10644  19.213   7.654  11.216
42240W        W10645   8.617  22.052   2.728
42241W        W10646  19.818  20.078   2.262
42242W        W10647  20.097  20.984   4.789
42243W        W10648  37.544  22.977   0.522
42244W        W10649  14.307   4.426  14.413
42245W        W10650  26.149  15.347   4.304
42246W        W10651  35.977  36.470  11.684
42247W        W10652  21.739   9.554   1.263
42248W        W10653  15.669  18.489  13.661
42249W        W10654  39.591  11.274  11.909
42250W        W10655  41.888  31.716  12.031
42251W        W10656   2.293  34.446  13.446
42252W        W10657  20.194  36.568  13.537
42253W        W10658  23.664  23.938   1.425
42254W        W10659  17.077   1.339   2.307
42255W        W10660  17.011  26.215   1.677
42256W        W10661   9.357  41.918   4.681
42257W        W10662  21.463   8.935   3.754
42258W        W10663   3.452  33.980   3.020
42259W        W10664   3.767  16.185   1.802
42260W        W10665  32.041  12.518  11.757
42261W        W10666  29.410  20.027  12.542
42262W        W10667  17.867   8.392   3.676
42263W        W10668   3.280  37.316  10.203
42264W        W10669  10.168  12.351  12.072
42265W        W10670   6.899   6.328  12.483
42266W        W10671   6.639  30.138   1.640
42267W        W10672  43.934  13.601  10.705
42268W        W10673  17.837  10.687  13.953
42269W        W10674  24.559  43.382   0.871
42270W        W10675  29.617  19.988   0.770
42271W        W10676  39.999  32.794  12.639
42272W        W10677   9.251  18.293   2.422
42273W        W10678   8.973   9.297  13.829
42274W        W10679  27.419  10.060   2.687
42275W        W10680  39.023   2.425  11.590
42276W        W10681  41.531  36.543   1.275
42277W        W10682  25.629  12.753   0.718
42278W        W10683   7.313  16.127   2.831
42279W        W10684  42.086  28.530   2.456
42280W        W10685  32.213  27.043  11.064
42281W        W10686  27.689  28.556   1.379
42282W        W10687  19.543  20.547   4.080
42283W        W10688  14.617  10.624  10.699
42284W        W10689   5.283  43.067  11.404
42285W        W10690  11.503  19.618   1.950
42286W        W10691  44.292  15.228  13.738
42287W        W10692  34.394  12.846   2.704
42288W        W10693  20.775  27.128   2.830
42289W        W10694  42.182  12.645  11.027
42290W        W10695   5.236  34.648  12.904
42291W        W10696   9.898  39.874  11.180
42292W        W10697  35.833   3.232  13.848
42293W        W10698  20.645  26.856   3.271
42294W        W10699  15.891   2.387   5.406
42295W        W10700  25.091  41.553  10.249
42296W        W10701  41.621   0.274  11.171
42297W        W10702   4.194  35.152  14.761
42298W        W10703  29.652  39.635   4.122
42299W        W10704  38.151  40.358   0.414
42300W        W10705   1.303  17.764   2.102
42301W        W10706  31.402  26.721  11.985
42302W        W10707  12.532  39.844  12.872
42303W        W10708   4.900  36.670   0.387
42304W        W10709   8.964  43.668  12.444
42305W        W10710  26.706  34.579   4.478
42306W        W10711  18.760  33.414  10.710
42307W        W10712  20.597  23.428   4.664
42308W        W10713   6.943  33.764   4.674
42309W        W10714  37.558  42.911  12.028
42310W        W10715  21.064  15.876   1.305
42311W        W10716  19.030  23.733   0.442
42312W        W10717  40.886   9.735   0.453
42313W        W10718   1.421   3.310  11.620
42314W        W10719  21.106  21.924   2.795
42315W        W10720  16.317   7.605  10.830
42316W        W10721  43.126  43.286  12.577
42317W        W10722  36.410  15.558   2.614
42318W        W10723  37.398   5.479   3.602
42319W        W10724  33.554  14.748  10.957
42320W        W10725  14.722   0.027   3.613
42321W        W10726   5.462  42.364   1.309
42322W        W10727  42.733  42.294  11.508
42323W        W10728   6.281   1.670   5.253
42324W        W10729  29.044  12.206  11.205
42325W        W10730  16.492  28.240  14.887
42326W        W10731  38.708  12.343   2.729
42327W        W10732  12.054  34.442   2.338
42328W        W10733  20.498  10.757  12.925
42329W        W10734  36.955  32.829  13.358
42330W        W10735  21.471  39.564   0.890
42331W        W10736  34.820  19.211  13.597
42332W        W10737   5.127  16.707  10.005
42333W        W10738   9.594  13.566  11.545
42334W        W10739  31.445  19.535   9.791
42335W        W10740  23.719  37.825  11.388
42336W        W10741   1.681  27.127   4.527
42337W        W10742  24.009  13.398   1.897
42338W        W10743   0.776   2.320  10.795
42339W        W10744  23.452   4.229   0.892
42340W        W10745  39.393  37.370   0.319
42341W        W10746  17.666  39.911  13.893
42342W        W10747  18.187   4.485  14.412
42343W        W10748  10.608  35.167   0.851
42344W        W10749  21.642  34.603   3.364
42345W        W10750  41.301  41.618  10.870
42346W        W10751  24.653  17.855   3.275
42347W        W10752  38.444  21.941  14.910
42348W        W10753  41.318  39.304  14.544
42349W        W10754  22.657  17.692   2.174
42350W        W10755  41.343   9.593  12.581
42351W        W10756   7.803  27.998  12.816
42352W        W10757  29.459  27.465   1.439
42353W        W10758  26.546  20.330   1.379
42354W        W10759  19.582  18.777  14.033
42355W        W10760  16.201   9.663   1.007
42356W        W10761  19.728   7.124   0.847
42357W        W10762   8.165  16.399  12.129
42358W        W10763  36.807  28.573   0.422
42359W        W10764  26.092  32.113  13.963
42360W        W10765   6.978   4.264  13.951
42361W        W10766  35.547  34.174  13.971
42362W        W10767  32.051   2.535  11.211
42363W        W10768  11.735   3.432   5.355
42364W        W10769  38.402  21.494   2.669
42365W        W10770  25.554  26.901   5.168
42366W        W10771   2.188   2.381  14.337
42367W        W10772  14.160  38.381  13.292
42368W        W10773  43.478  40.412   1.313
42369W        W10774   6.110  36.347   1.251
42370W        W10775  26.108  22.590  13.870
42371W        W10776   0.408  27.750  12.911
42372W        W10777   3.926  30.389  10.499
42373W        W10778  23.164  33.999   4.525
42374W        W10779   0.669   8.117   1.226
42375W        W10780  34.021  31.176  14.411
42376W        W10781  37.250  11.827  11.188
42377W        W10782  14.405  37.192  11.947
42378W        W10783  38.627  43.078  13.448
42379W        W10784  19.599  41.739   2.741
42380W        W10785  36.506  32.116  14.090
42381W        W10786   9.830  14.829   4.611
42382W        W10787  37.378  23.959  13.472
42383W        W10788  23.036  10.642  10.894
42384W        W10789   0.223   7.033   9.864
42385W        W10790   4.780  15.293   4.653
42386W        W10791  34.036  34.033   3.673
42387W        W10792   7.416  31.171   2.403
42388W        W10793  13.177  33.953  13.233
42389W        W10794  44.920  28.020  14.051
42390W        W10795   8.073  34.095   2.103
42391W        W10796  29.936  15.134  12.975
42392W        W10797  43.240  33.023   4.440
42393W        W10798   7.885   7.757  14.290
42394W        W10799   3.803  36.668  14.680
42395W        W10800  15.187  13.686   4.450
42396W        W10801   3.331  21.919  12.538
42397W        W10802  18.742   3.763   0.198
42398W        W10803  15.248   8.832  10.659
42399W        W10804   9.250  11.420   1.003
42400W        W10805  40.976  34.698   2.244
42401W        W10806  16.909  14.665   1.434
42402W        W10807  23.019  10.464  12.887
42403W        W10808   2.965   5.041   2.807
42404W        W10809  39.906  11.763   0.394
42405W        W10810  14.630  25.404   1.223
42406W        W10811  13.689  14.966  12.492
42407W        W10812  43.442  22.633  10.352
42408W        W10813  24.723  11.285   3.911
42409W        W10814  24.178  24.288  10.716
42410W        W10815  17.539   7.273  12.919
42411W        W10816  27.045  25.592  10.763
42412W        W10817  32.383  35.899   0.863
42413W        W10818  18.199  18.650   3.838
42414W        W10819  32.326   9.666  10.590
42415W        W10820   5.727   8.772   2.648
42416W        W10821  23.542  28.123   3.757
42417W        W10822  31.761  28.115  10.467
42418W        W10823  13.387  40.325   3.201
42419W        W10824  22.252  16.597   2.708
42420W        W10825   9.082   0.748  14.643
42421W        W10826  30.416   8.420  14.012
42422W        W10827   5.878  15.820   0.747
42423W        W10828  18.647  14.757   4.946
42424W        W10829  35.639  40.366  11.535
42425W        W10830  16.655  25.243   2.131
42426W        W10831  43.576   8.587  13.935
42427W        W10832  32.022   0.934   2.318
42428W        W10833  26.671  30.590   2.735
42429W        W10834  17.308   8.341  14.926
42430W        W10835  18.605  10.567   4.128
42431W        W10836  20.254  41.981   3.153
42432W        W10837   8.929  40.378   5.075
42433W        W10838  25.566   9.604   2.669
42434W        W10839   1.033   3.118   4.129
42435W        W10840   7.142  18.378   0.906
42436W        W10841   9.458   5.877   0.364
42437W        W10842   3.714   3.473   0.241
42438W        W10843  33.938  32.916  12.599
42439W        W10844  17.183  38.527  12.990
42440W        W10845  18.478   5.121  11.081
42441W        W10846  33.725  14.739  11.972
42442W        W10847  39.004  13.408   3.974
42443W        W10848   0.391  18.276   0.465
42444W        W10849  34.951   3.007   0.280
42445W        W10850  27.289  25.106  12.263
42446W        W10851  34.269  17.706   4.220
42447W        W10852  27.048  24.215   3.606
42448W        W10853  26.847   5.850  12.646
42449W        W10854  15.689  32.817   4.267
42450W        W10855  22.858  44.515  10.412
42451W        W10856  11.751  23.531   2.856
42452W        W10857  30.678  40.045   2.923
42453W        W10858  42.728   9.230  11.599
42454W        W10859  15.107  14.571   0.782
42455W        W10860  14.897  14.256  10.800
42456W        W10861   0.500  37.157   0.638
42457W        W10862  25.714  14.762   2.686
42458W        W10863  30.091  43.458  11.768
42459W        W10864   2.589  26.561  10.818
42460W        W10865  18.342   4.797  11.449
42461W        W10866   7.280  30.491   3.736
42462W        W10867  36.652  18.298  12.231
42463W        W10868  20.266  16.028  14.880
42464W        W10869  37.561   2.682   1.368
42465W        W10870  37.902  12.744   1.353
42466W        W10871  32.905   9.816  12.305
42467W        W10872  33.679  24.394   0.317
42468W        W10873  38.507  17.088   4.427
42469W        W10874   7.374  17.073  13.059
42470W        W10875   8.784  34.690  11.686
42471W        W10876  17.394  35.058   2.413
42472W        W10877  25.976   4.966   0.290
42473W        W10878  36.228  23.588  10.493
42474W        W10879  44.669   3.719   4.143
42475W        W10880  18.066  10.466   4.614
42476W        W10881  44.369  41.823   0.287
42477W        W10882  15.228  44.015   1.248
42478W        W10883  29.404  21.090   3.879
42479W        W10884  42.904   0.930   3.262
42480W        W10885  23.214  12.195  12.229
42481W        W10886   6.913   8.809   5.206
42482W        W10887  24.843  38.366  14.835
42483W        W10888  15.227  31.225   3.289
42484W        W10889  36.874  11.999   1.920
42485W        W10890  14.084  35.588   0.307
42486W        W10891  28.703  37.983  14.460
42487W        W10892  22.634   6.358   3.720
42488W        W10893   4.142  34.194   1.193
42489W        W10894  13.755  40.722  11.561
42490W        W10895  36.493  20.077   0.383
42491W        W10896  17.086  38.572  14.828
42492W        W10897  27.221  17.269   0.436
42493W        W10898  27.725   5.707   0.044
42494W        W10899  30.910  41.955   4.216
42495W        W10900  15.272  29.036   1.181
42496W        W10901  42.412  37.842   0.222
42497W        W10902  42.236  18.136   0.475
42498W        W10903  20.562  44.063  10.845
42499W        W10904  43.015  38.369   0.744
42500W        W10905   6.260  42.523   0.184
42501W        W10906   7.236  42.386  14.932
42502W        W10907  21.058   1.373  14.299
42503W        W10908  39.078  23.567  14.297
42504W        W10909  15.313  22.987  10.716
42505W        W10910  43.567  14.569   3.498
42506W        W10911  43.610   2.066   9.888
42507W        W10912  13.684  10.704  14.514
42508W        W10913   6.723  16.441  11.394
42509W        W10914  20.566   6.517  12.434
42510W        W10915  16.754  14.875  12.891
42511W        W10916  25.146  44.194   4.210
42512W        W10917  30.870  24.652  11.595
42513W        W10918   6.785  43.753   0.837
42514W        W10919  12.128  31.486   1.725
42515W        W10920  16.683  26.644   1.695
42516W        W10921   9.904  41.386   4.767
42517W        W10922  39.989  25.710  11.887
42518W        W10923  29.093  19.499  14.054
42519W        W10924   4.677   4.507   1.934
42520W        W10925  10.650  17.320   4.741
42521W        W10926  38.901   3.236  12.082
42522W        W10927   9.399  23.659  14.040
42523W        W10928  37.874  20.762  12.939
42524W        W10929  22.032   9.919   1.018
42525W        W10930  24.093  11.376   4.738
42526W        W10931  24.979  21.603   2.295
42527W        W10932  19.226   9.321   3.935
42528W        W10933  29.860   3.295  10.625
42529W        W10934   7.935   2.339  13.056
42530W        W10935   7.439  14.205   3.858
42531W        W10936   3.940  29.645   1.471
42532W        W10937  38.060  16.215   4.330
42533W        W10938  44.539  13.819   0.755
42534W        W10939  25.234   4.410   1.583
42535W        W10940  29.010  44.301   0.851
42536W        W10941   2.958  35.226  11.502
42537W        W10942  19.059   4.255   0.881
42538W        W10943  17.229  10.314  14.410
42539W        W10944  32.902  44.899  12.346
42540W        W10945   1.525  15.661   1.776
42541W        W10946  12.754  25.716  11.604
42542W        W10947   1.817  27.629  12.461
42543W        W10948  34.856  38.267   2.341
42544W        W10949  18.750  42.866   0.887
42545W        W10950  13.758  34.182  12.129
42546W        W10951   7.113  40.438  13.090
42547W        W10952  16.039   9.378   3.219
42548W        W10953  41.764  33.089   1.933
42549W        W10954  11.654  32.150   2.719
42550W        W10955  13.320  33.455  14.553
42551W        W10956  27.626   4.495  11.944
42552W        W10957   4.952   7.191   3.049
42553W        W10958  26.590  16.591   0.392
42554W        W10959  13.269  11.437   4.431
42555W        W10960  23.463   9.438  11.650
42556W        W10961   8.319  15.277   9.846
42557W        W10962  14.580  36.563  11.330
42558W        W10963  15.720  41.827  11.108
42559W        W10964  26.216  44.131   1.542
42560W        W10965  42.035  23.090   1.996
42561W        W10966  41.581  24.223  10.806
42562W        W10967   2.758  39.257   2.366
42563W        W10968  24.095  38.116  11.204
42564W        W10969  34.861  26.908  13.755
42565W        W10970  21.130  12.225  12.924
42566W        W10971   3.896   4.977   1.765
42567W        W10972  19.142  13.445  13.906
42568W        W10973   6.397  24.550   1.530
42569W        W10974   6.153  17.546  13.492
42570W        W10975   7.866   3.702   0.474
42571W        W10976   7.675  12.345  10.707
42572W        W10977  24.462  29.929  11.419
42573W        W10978  14.229  34.630  13.904
42574W        W10979  13.655  38.503  10.781
42575W        W10980  43.175  15.485   2.348
42576W        W10981  12.597  36.705  13.971
42577W        W10982  14.686  41.725   4.518
42578W        W10983  29.711  13.605  11.065
42579W        W10984  16.730  28.597  11.194
42580W        W10985  35.163  10.259  14.431
42581W        W10986  20.174  44.908   1.493
42582W        W10987   5.789  26.340   2.802
42583W        W10988   6.190   6.672  11.161
42584W        W10989  17.334  39.246  11.055
42585W        W10990  41.295  28.983   4.234
42586W        W10991  35.786  13.800   4.158
42587W        W10992  31.988  33.934  11.619
42588W        W10993  32.603  11.247   1.643
42589W        W10994  35.100   2.406  12.142
42590W        W10995  25.603  27.092   2.851
42591W        W10996  14.313  44.549   3.311
42592W        W10997  13.025   7.408   4.511
42593W        W10998  15.839  31.841  12.200
42594W        W10999  12.329   5.045  11.910
42595W        W11000  11.762  16.162  11.065
42596W        W11001   0.396  30.395   0.308
42597W        W11002  11.335  24.505   0.246
42598W        W11003  13.843   1.235  14.868
42599W        W11004   6.631  16.117   2.302
42600W        W11005  35.201   8.349  11.441
42601W        W11006  30.456  37.125  12.657
42602W        W11007  20.581  17.486  14.752
42603W        W11008  20.149  39.763   2.798
42604W        W11009  15.135   2.646  14.115
42605W        W11010  12.168  12.742   2.292
42606W        W11011   4.806  34.394   3.562
42607W        W11012  39.395  25.547  10.708
42608W        W11013  16.001  35.113   4.144
42609W        W11014  24.266   1.630   0.337
42610W        W11015  29.757  43.525  12.179
42611W        W11016  21.159  14.372  13.939
42612W        W11017  27.408   9.483  14.491
42613W        W11018  36.206  18.383   1.938
42614W        W11019  22.640  38.036   0.024
42615W        W11020  43.788   4.655  10.895
42616W        W11021  27.807  22.046  12.864
42617W        W11022  41.466  37.916   3.671
42618W        W11023  43.756  44.231   3.906
42619W        W11024   1.061  36.914   4.888
42620W        W11025  26.504  41.090   3.214
42621W        W11026  37.594  14.362   0.801
42622W        W11027  26.059  17.322  12.674
42623W        W11028  25.528  24.155   3.820
42624W        W11029   3.729  24.655   3.022
42625W        W11030   7.422  28.411   5.479
42626W        W11031  20.578  28.680   0.469
42627W        W11032  41.718   4.607  14.830
42628W        W11033  21.234   8.260  12.456
42629W        W11034  43.919  39.308   4.186
42630W        W11035  33.090   5.682   3.177
42631W        W11036  35.557  28.157   0.493
42632W        W11037  26.148  35.135   3.877
42633W        W11038  43.814  15.191   2.382
42634W        W11039  35.059  24.059  10.742
42635W        W11040  14.829  11.539  14.829
42636W        W11041   9.324  26.650  12.912
42637W        W11042  32.818  27.584   1.879
42638W        W11043   0.427  27.245  12.998
42639W        W11044  38.961  19.641  14.794
42640W        W11045   3.299  37.431   0.858
42641W        W11046  34.942   2.972  12.776
42642W        W11047  17.721  18.246   0.462
42643W        W11048  36.106   1.345  11.991
42644W        W11049  15.297  36.837   2.323
42645W        W11050  13.379  24.136  14.882
42646W        W11051   0.461  42.189  11.346
42647W        W11052  43.804  42.109   2.881
42648W        W11053   9.726  13.247   0.819
42649W        W11054  34.056  25.846   2.647
42650W        W11055  44.933   4.237   3.284
42651W        W11056   7.262  18.748   1.275
42652W        W11057   8.837  17.734  14.057
42653W        W11058   8.369  36.335   2.904
42654W        W11059  14.082  13.736  13.836
42655W        W11060  19.485   7.376  12.601
42656W        W11061  38.530   8.829   3.247
42657W        W11062   1.354  21.464  10.846
42658W        W11063  42.230   9.082  11.152
42659W        W11064  42.319   9.193  13.342
42660W        W11065   9.064   8.265  11.488
42661W        W11066  22.736  17.549  12.084
42662W        W11067  34.353  21.633   0.885
42663W        W11068  37.951  10.102   4.156
42664W        W11069  19.812  12.772   4.750
42665W        W11070   5.154   7.413  10.718
42666W        W11071   1.048  28.181  11.022
42667W        W11072  38.536   9.402  12.009
42668W        W11073   4.803   3.015  11.516
42669W        W11074  13.103  31.874  12.404
42670W        W11075  30.870  21.518  13.236
42671W        W11076  44.496  23.035   1.803
42672W        W11077   5.746  44.654  10.118
42673W        W11078  13.619  30.907   2.171
42674W        W11079  36.918  26.486   1.120
42675W        W11080  40.089  20.671   0.232
42676W        W11081  29.031  22.078  14.044
42677W        W11082  38.944  26.159  11.077
42678W        W11083  20.522  10.063  10.638
42679W        W11084  23.851  18.086   4.104
42680W        W11085  20.762  12.193   1.450
42681W        W11086  16.666   5.773   5.180
42682W        W11087  12.244  44.317  13.353
42683W        W11088  23.926  40.397  11.122
42684W        W11089  40.005  14.107  11.860
42685W        W11090  31.155  14.608   1.847
42686W        W11091  12.349  17.247  10.616
42687W        W11092  18.041  43.911   4.584
42688W        W11093  29.923  20.027  12.476
42689W        W11094  30.528  36.799  13.119
42690W        W11095  30.170  12.807  11.669
42691W        W11096   7.735  13.209  14.976
42692W        W11097  15.978  15.207   3.237
42693W        W11098  24.520  17.320   1.187
42694W        W11099   7.918  30.137  13.829
42695W        W11100  32.552  20.506  10.684
42696W        W11101   6.668  29.001   4.523
42697W        W11102   8.381  34.651   4.151
42698W        W11103   3.408  36.987   0.276
42699W        W11104  41.999  16.053   3.933
42700W        W11105  17.156  35.817   3.676
42701W        W11106  24.792  22.649   0.023
42702W        W11107  31.890  32.895  13.437
42703W        W11108  13.790  16.092  10.580
42704W        W11109  38.561  31.530   4.558
42705W        W11110  27.177  33.849  14.437
42706W        W11111  15.331   0.703  12.472
42707W        W11112   7.618  36.684   1.342
42708W        W11113  19.672   6.762  10.051
42709W        W11114  40.364  39.751   4.587
42710W        W11115   1.034  22.770   5.054
42711W        W11116  25.577   5.908  11.190
42712W        W11117  40.757  13.626   0.232
42713W        W11118  20.718  22.631  10.489
42714W        W11119  40.868  27.395   0.403
42715W        W11120   5.793  39.052  14.418
42716W        W11121  27.625  34.499   2.826
42717W        W11122   4.826  41.403   4.650
42718W        W11123  12.482  30.071   4.525
42719W        W11124  34.822  11.727  12.475
42720W        W11125  35.657   9.246   4.930
42721W        W11126   3.083  26.529   3.605
42722W        W11127  10.327  28.437   4.049
42723W        W11128  28.778  14.156  11.631
42724W        W11129  37.561   0.718   0.513
42725W        W11130  29.516  13.127  11.134
42726W        W11131  36.002   8.833   2.717
42727W        W11132  37.644  15.673   0.182
42728W        W11133  13.645   4.973  11.543
42729W        W11134  26.988  30.617   5.212
42730W        W11135  27.724  40.042   1.441
42731W        W11136  18.269  20.109  11.377
42732W        W11137   7.639   3.011  13.603
42733W        W11138  34.485   0.572  12.189
42734W        W11139  31.804  13.588  12.542
42735W        W11140  18.127  20.637  10.148
42736W        W11141  31.981  15.603  12.547
42737W        W11142   7.627  12.645   1.280
42738W        W11143  41.086  32.023  11.614
42739W        W11144  36.100  23.082   1.939
42740W        W11145  41.576  31.127  13.108
42741W        W11146  25.379  14.878  14.513
42742W        W11147  28.724  12.610   1.821
42743W        W11148  36.996  17.548  10.591
42744W        W11149  27.232   9.644  11.486
42745W        W11150  35.819  36.974  11.552
42746W        W11151  33.555  10.718  12.369
42747W        W11152  20.687   4.993  10.449
42748W        W11153  20.062  12.279  12.819
42749W        W11154  13.325  13.210  11.913
42750W        W11155  36.292  17.132   0.136
42751W        W11156  21.210  24.962   3.253
42752W        W11157  43.836  43.360  14.792
42753W        W11158  15.991   2.697  14.327
42754W        W11159  37.296  28.585   0.213
42755W        W11160  38.557  44.446   1.410
42756W        W11161  11.325  30.434  13.058
42757W        W11162   7.343  25.565  14.930
42758W        W11163   8.219  25.648   0.890
42759W        W11164  28.310   0.888   1.824
42760W        W11165  35.029  22.277   0.964
42761W        W11166  44.509  13.343   1.980
42762W        W11167  17.064  33.755   3.578
42763W        W11168  40.792   5.449  11.088
42764W        W11169  23.109  16.707   0.286
42765W        W11170  42.012  39.769   1.781
42766W        W11171   1.100  24.551   1.806
42767W        W11172  14.444   3.938   3.089
42768W        W11173   1.280   7.981   1.237
42769W        W11174  22.521  41.966  10.970
42770W        W11175  13.576  27.592   1.673
42771W        W11176  20.830  40.066  11.427
42772W        W11177   2.953  23.692   4.005
42773W        W11178  37.996  35.990  13.196
42774W        W11179  17.191   6.525  14.352
42775W        W11180  20.238  12.063   0.547
42776W        W11181  10.320  17.237   3.408
42777W        W11182  31.966   9.781  14.483
42778W        W11183  27.162  28.574   2.777
42779W        W11184  38.352  43.442  12.053
42780W        W11185  25.512  44.852   2.564
42781W        W11186  41.023  32.678   3.793
42782W        W11187  31.863  15.256  14.294
42783W        W11188  17.189  39.924  10.489
42784W        W11189   8.268  19.138   3.582
42785W        W11190   2.774  38.310   2.727
42786W        W11191  32.226   0.956  12.908
42787W        W11192  21.235   9.091   4.181
42788W        W11193  26.280  17.164   3.158
42789W        W11194  12.948  15.979   0.414
42790W        W11195  16.636  33.728  11.186
42791W        W11196  34.736  18.331  10.211
42792W        W11197  25.124  42.062  10.342
42793W        W11198  34.471  40.338  14.322
42794W        W11199  19.761   1.927   2.191
42795W        W11200  16.648  30.237   3.203
42796W        W11201  33.325  29.558   0.599
42797W        W11202  42.065  35.339  10.427
42798W        W11203  32.456  44.594   4.506
42799W        W11204   5.033  15.755  11.160
42800W        W11205  20.147  40.417  12.943
42801W        W11206   3.143  28.235  14.837
42802W        W11207  17.110   9.337   3.282
42803W        W11208  11.343  40.011   0.299
42804W        W11209  21.714   1.445  14.890
42805W        W11210  41.520  21.537  13.435
42806W        W11211  41.483   2.893  11.658
42807W        W11212  11.585   0.860   3.535
42808W        W11213  20.493  16.657  12.754
42809W        W11214  24.567  33.166  14.511
42810W        W11215   2.023  26.119  13.469
42811W        W11216  35.537  30.188   4.358
42812W        W11217  27.634   3.052  13.014
42813W        W11218  19.341  26.028   2.462
42814W        W11219  23.148  42.406   0.033
42815W        W11220  24.065  16.306   2.238
42816W        W11221   4.764  27.061  13.039
42817W        W11222   1.353  19.789  12.000
42818W        W11223  33.467  41.454   2.471
42819W        W11224   3.686  41.558   4.562
42820W        W11225  33.651  28.245  11.408
42821W        W11226  24.983   3.575   3.278
42822W        W11227  38.091  23.103   1.261
42823W        W11228  36.407   8.347   1.317
42824W        W11229  30.818   1.514   0.184
42825W        W11230   9.991   8.119  12.441
42826W        W11231  41.402  37.496  12.993
42827W        W11232  43.455  37.772  12.119
42828W        W11233   0.380  44.820   0.824
42829W        W11234  44.455  10.927   0.827
42830W        W11235  40.865   7.360   4.353
42831W        W11236   0.023  17.733   2.829
42832W        W11237   2.954   9.669   3.595
42833W        W11238  40.559  37.846  14.884
42834W        W11239  27.897   1.774   4.670
42835W        W11240  11.582  37.458  11.614
42836W        W11241   4.513  22.582   3.349
42837W        W11242  35.892  41.259  12.133
42838W        W11243  31.139  39.144  11.918
42839W        W11244  11.501   0.853   1.310
42840W        W11245  36.709  23.980  11.586
42841W        W11246  25.693   1.335  10.756
42842W        W11247  24.093  43.827   2.257
42843W        W11248  23.028  10.624  12.382
42844W        W11249  43.835  21.244   0.865
42845W        W11250  25.636  30.632  13.558
42846W        W11251  38.874  24.904   1.306
42847W        W11252   0.504  37.542   1.806
42848W        W11253  37.425  24.166   3.581
42849W        W11254  41.393  32.114  11.168
42850W        W11255  21.672  37.742   3.939
42851W        W11256  36.797   0.276   4.465
42852W        W11257  20.624  37.562   1.829
42853W        W11258  31.871  19.047  14.960
42854W        W11259  40.762  20.379  12.990
42855W        W11260  30.166  10.801   1.818
42856W        W11261   6.718   0.960  10.458
42857W        W11262  17.696   4.307   1.543
42858W        W11263  25.182  35.425  13.027
42859W        W11264  43.757  32.208   2.259
42860W        W11265  33.705  15.074  14.997
42861W        W11266  19.663  27.989  12.644
42862W        W11267  22.134  41.340   0.984
42863W        W11268  21.024  12.385   1.874
42864W        W11269  31.364   8.531   2.280
42865W        W11270  27.669   0.409   0.695
42866W        W11271   8.247  21.218  13.006
42867W        W11272  17.529  41.829  11.428
42868W        W11273  20.882  44.350   5.011
42869W        W11274  27.045  40.292   3.345
42870W        W11275   2.935  16.605  11.622
42871W        W11276  37.072  27.083  13.967
42872W        W11277  20.769  25.568   9.703
42873W        W11278  14.550  39.657   4.156
42874W        W11279  13.064  13.929   0.813
42875W        W11280  22.158  16.120   3.807
42876W        W11281  42.720  38.423  14.424
42877W        W11282  18.976   6.266   1.664
42878W        W11283   4.503  24.723  12.538
42879W        W11284  19.224  21.274  14.382
42880W        W11285  28.721  27.920  12.928
42881W        W11286   3.441  10.654  13.965
42882W        W11287  27.137  30.137   1.734
42883W        W11288   9.872  20.672  13.433
42884W        W11289  15.922  12.292   3.281
42885W        W11290   8.670  13.410  12.474
42886W        W11291   8.759  21.702   4.133
42887W        W11292  26.056   4.618   2.938
42888W        W11293  19.677  15.558   0.755
42889W        W11294  40.413  26.476   2.437
42890W        W11295  12.835   4.012   1.229
42891W        W11296  31.130  33.052   3.822
42892W        W11297  41.043  29.394  11.010
42893W        W11298   3.173   9.687  14.084
42894W        W11299  20.513  42.274  10.772
42895W        W11300  20.091  34.442   1.249
42896W        W11301   8.192  27.056  10.211
42897W        W11302  10.527   6.872   0.724
42898W        W11303  12.406  27.643   3.039
42899W        W11304  22.769  35.373  12.947
42900W        W11305  14.575   2.829  12.006
42901W        W11306   6.252  14.568   1.652
42902W        W11307  32.785  15.317   1.119
42903W        W11308  16.084  15.597   0.942
42904W        W11309  36.705   6.442   0.385
42905W        W11310  27.468  31.201   0.755
42906W        W11311  43.072  24.789   2.894
42907W        W11312  30.232  34.379  13.448
42908W        W11313  39.342  24.510  12.007
42909W        W11314  37.996  28.604  14.518
42910W        W11315  43.242  39.737   3.865
42911W        W11316  42.035  23.560  13.524
42912W        W11317  44.275   0.571   1.665
42913W        W11318   4.278  44.850   1.008
42914W        W11319  23.317  10.886  12.734
42915W        W11320   4.831  17.035  11.430
42916W        W11321  22.755  25.504   2.716
42917W        W11322  35.071  41.265   4.583
42918W        W11323  44.804  24.172   2.194
42919W        W11324  35.677  29.548  12.903
42920W        W11325  35.816  16.230   0.441
42921W        W11326  24.117  14.815   1.848
42922W        W11327  34.939  26.475   3.190
42923W        W11328  37.501  16.234  11.582
42924W        W11329   4.217   4.362   4.226
42925W        W11330  16.580  37.014  13.523
42926W        W11331  26.588  41.491   1.010
42927W        W11332  20.625   3.104  12.523
42928W        W11333  40.861  28.606   0.436
42929W        W11334  15.921  37.986   4.651
42930W        W11335  21.172  19.766  13.995
42931W        W11336  22.242  27.417  13.461
42932W        W11337  43.001   3.464   4.644
42933W        W11338  13.757  19.813   0.461
42934W        W11339  13.666  28.461  10.638
42935W        W11340  16.742  21.564   1.652
42936W        W11341  16.134  23.054   2.916
42937W        W11342  29.585  22.868   1.530
42938W        W11343  20.951  44.931  12.123
42939W        W11344  29.150   5.801  12.259
42940W        W11345  12.776  30.212   1.014
42941W        W11346  14.650   4.360  13.015
42942W        W11347   5.963  34.743   3.328
42943W        W11348  42.803  32.715   3.727
42944W        W11349  33.618  15.251  12.603
42945W        W11350   8.420  24.769   1.685
42946W        W11351  40.096   8.722  14.862
42947W        W11352  16.358   0.958   3.317
42948W        W11353  11.892  17.681   4.696
42949W        W11354  19.649   8.387  13.793
42950W        W11355  15.523   7.037   1.423
42951W        W11356  30.518   6.219   0.075
42952W        W11357  20.676  39.804   2.703
42953W        W11358  25.289  17.706  11.900
42954W        W11359  38.363   6.217   3.674
42955W        W11360  27.612  32.729  12.207
42956W        W11361  42.203  27.217   3.435
42957W        W11362   6.494   4.730  13.195
42958W        W11363  37.926  24.779   2.272
42959W        W11364  20.816  27.447   4.309
42960W        W11365  19.681  43.810   2.863
42961W        W11366  14.717  30.711  13.490
42962W        W11367  12.720   1.542  11.562
42963W        W11368  42.478  19.644   3.599
42964W        W11369   5.844  36.859  11.074
42965W        W11370  15.213  37.343   4.306
42966W        W11371  40.352  40.445  11.965
42967W        W11372  11.712   0.378  11.502
42968W        W11373   3.931  35.322   3.691
42969W        W11374  14.842  44.843  14.341
42970W        W11375  17.753  32.819  13.424
42971W        W11376  36.738   6.071   2.469
42972W        W11377   4.889  25.703   4.906
42973W        W11378  16.680   8.602  12.640
42974W        W11379   5.270  28.592  14.161
42975W        W11380   3.711  27.458  12.471
42976W        W11381  39.900  18.127   3.288
42977W        W11382  40.023  10.177   4.649
42978W        W11383   8.298  32.950   4.751
42979W        W11384  22.640   0.614   3.142
42980W        W11385  30.307  37.923  13.567
42981W        W11386  17.682  38.989   1.719
42982W        W11387  26.911   5.729   4.712
42983W        W11388   5.300  10.847  12.647
42984W        W11389   5.360  41.156   2.833
42985W        W11390   0.371   5.419   4.519
42986W        W11391  43.027  21.471  11.491
42987W        W11392   9.863  33.877   4.044
42988W        W11393  10.113  20.201  13.430
42989W        W11394  14.048  38.491  12.304
42990W        W11395  30.630  44.281  13.529
42991W        W11396  22.091  37.390   3.960
42992W        W11397  22.966  37.946  13.330
42993W        W11398  41.000   9.793  11.298
42994W        W11399  44.556  39.873  13.561
42995W        W11400   5.657  37.730   3.610
42996W        W11401   2.059  21.767   2.878
42997W        W11402   6.928  37.584  10.748
42998W        W11403  26.179  25.039   4.592
42999W        W11404  32.363  27.399   2.808
43000W        W11405   4.677  25.218   2.609
43001W        W11406  21.099  44.195  10.793
43002W        W11407   5.478  29.472  14.268
43003W        W11408   0.764  32.305   1.323
43004W        W11409  19.387  34.461  12.352
43005W        W11410  30.070   7.808   1.810
43006W        W11411  15.342  20.443  13.454
43007W        W11412  22.021  38.098   4.691
43008W        W11413  10.700  27.745  13.888
43009W        W11414  38.473  11.162  10.622
43010W        W11415  40.841  40.614   0.053
43011W        W11416  38.979  27.425  13.108
43012W        W11417  26.579   7.662   3.192
43013W        W11418  31.163   3.667   1.314
43014W        W11419  35.304  20.147  13.616
43015W        W11420  38.658  42.538   1.407
43016W        W11421  34.211   7.376   3.700
43017W        W11422  42.342  44.851   4.069
43018W        W11423   5.326  10.263  14.562
43019W        W11424  25.490  28.607   2.736
43020W        W11425  12.098  36.043   3.801
43021W        W11426  18.151   7.296   3.168
43022W        W11427  30.692  33.426  13.334
43023W        W11428  25.318  39.389  14.015
43024W        W11429  23.184  22.564   2.841
43025W        W11430  11.421  42.802  14.335
43026W        W11431   2.906  24.685   3.698
43027W        W11432  41.685  27.045   2.896
43028W        W11433  40.191  31.590  13.081
43029W        W11434  40.253  21.273  13.935
43030W        W11435  31.338  31.707   3.539
43031W        W11436  35.544  36.782   2.895
43032W        W11437  34.220  19.015  11.400
43033W        W11438  38.600   7.904   2.310
43034W        W11439   1.669  24.451   1.534
43035W        W11440   9.697  25.555   2.764
43036W        W11441  12.608  26.687  13.078
43037W        W11442  34.066  27.456   1.500
43038W        W11443   4.285  10.189   0.386
43039W        W11444  39.451  19.491  11.101
43040W        W11445  39.460  14.303   3.270
43041W        W11446   1.392  24.093  13.378
43042W        W11447  16.218   2.279  12.027
43043W        W11448  18.122  16.423  14.003
43044W        W11449  34.432  27.099  14.698
43045W        W11450   7.801   7.436   0.988
43046W        W11451  11.311  15.128  10.206
43047W        W11452  22.717   4.122   1.705
43048W        W11453  16.553  30.918   4.631
43049W        W11454   9.592   4.719   5.234
43050W        W11455  14.858   0.790  12.612
43051W        W11456  12.104  16.791  11.729
43052W        W11457   8.741  14.343  10.565
43053W        W11458  27.596  38.992   0.439
43054W        W11459  41.908   2.577  10.987
43055W        W11460   6.461   5.137   3.273
43056W        W11461  18.229   7.884   1.003
43057W        W11462  19.171  27.914  11.210
43058W        W11463  37.424  42.653  14.554
43059W        W11464  24.288  43.057   1.721
43060W        W11465  35.894  35.479   3.266
43061W        W11466   1.738  26.201   0.782
43062W        W11467  18.727  10.432  14.990
43063W        W11468  10.520  22.311   4.156
43064W        W11469  43.309  42.257  10.734
43065W        W11470  36.796   3.340   4.144
43066W        W11471  18.559  30.651   2.747
43067W        W11472  13.165  38.740  14.802
43068W        W11473   3.837  28.666   0.163
43069W        W11474   4.226  13.991  11.932
43070W        W11475  15.510  44.105  13.352
43071W        W11476   1.070  24.193  13.793
43072W        W11477   2.187  42.417  11.978
43073W        W11478  44.038   8.659  12.504
43074W        W11479  13.853  24.088  14.641
43075W        W11480  40.707  38.747  11.155
43076W        W11481   8.554  44.424  12.803
43077W        W11482  30.465   9.251  14.762
43078W        W11483  27.623  38.783   3.783
43079W        W11484  32.428  17.142   4.079
43080W        W11485  44.867  23.922  10.864
43081W        W11486  33.069  12.202   3.672
43082W        W11487  22.096  22.025   4.367
43083W        W11488  41.967   1.101  14.656
43084W        W11489  23.418   8.994   4.390
43085W        W11490  36.865   3.680  10.938
43086W        W11491  26.024  33.980  14.950
43087W        W11492  35.299  17.153  13.339
43088W        W11493  35.413  26.586   2.035
43089W        W11494  27.788  38.993   4.233
43090W        W11495  31.507  32.483   0.832
43091W        W11496  24.606  11.412   0.069
43092W        W11497  16.375  26.171  14.069
43093W        W11498  42.246  38.972   3.463
43094W        W11499   1.873  21.434   3.294
43095W        W11500  36.610   6.793  11.846
43096W        W11501   5.396  19.256  11.164
43097W        W11502  33.377   7.378   3.133
43098W        W11503  18.348   7.674   1.969
43099W        W11504  12.248  33.943  14.750
43100W        W11505  30.265  34.794   2.727
43101W        W11506  35.955  29.489  14.419
43102W        W11507  36.918  14.110   4.624
43103W        W11508  14.768  17.334   1.338
43104W        W11509  42.509  32.006   3.939
43105W        W11510   5.177  32.647  12.975
43106W        W11511   7.505  39.482   2.607
43107W        W11512   2.558  23.516   4.262
43108W        W11513   9.720  30.569  13.606
43109W        W11514  26.050  36.104  13.652
43110W        W11515  41.850   3.381   1.810
43111W        W11516   2.841  19.067  14.553
43112W        W11517  41.792  17.143  13.488
43113W        W11518  38.590  37.274   1.720
43114W        W11519  38.084  15.407   0.230
43115W        W11520  39.771   0.291   3.212
43116W        W11521  38.867  37.939  11.565
43117W        W11522  32.903   0.473   4.205
43118W        W11523  29.918   7.429   1.000
43119W        W11524  44.417  26.000  13.317
43120W        W11525  38.581  15.142  10.710
43121W        W11526  31.091  15.974  12.688
43122W        W11527  20.993  32.517  10.685
43123W        W11528  14.738   3.836   1.001
43124W        W11529  31.970   9.824   2.718
43125W        W11530  10.276  16.689  12.106
43126W        W11531  26.607  34.970   3.530
43127W        W11532  41.198  35.851  12.831
43128W        W11533   4.687  28.055   1.764
43129W        W11534  44.000   3.685  11.222
43130W        W11535  28.561  42.209   1.276
43131W        W11536  43.826  10.595   4.206
43132W        W11537  26.253   3.513  14.750
43133W        W11538   5.914  17.225  10.716
43134W        W11539  13.181   9.450  11.537
43135W        W11540  26.714   8.061  13.922
43136W        W11541  13.133  25.248   4.800
43137W        W11542   6.708  22.667   1.946
43138W        W11543   4.280  32.381   2.648
43139W        W11544  26.599   9.874   4.114
43140W        W11545  34.647  31.937  11.050
43141W        W11546  38.496   3.669  11.307
43142W        W11547  15.979  28.050  11.261
43143W        W11548  30.926   8.936   3.194
43144W        W11549  23.563  43.538  14.187
43145W        W11550  34.385  34.894  12.017
43146W        W11551  11.262   1.356  10.965
43147W        W11552  31.917  26.172   2.298
43148W        W11553   6.425  19.542  12.537
43149W        W11554   3.744  36.621   3.120
43150W        W11555  37.359  41.842   4.546
43151W        W11556  23.038   3.908   0.785
43152W        W11557  35.920  31.405   3.537
43153W        W11558  19.226   1.769   2.176
43154W        W11559  41.982  30.704   2.749
43155W        W11560  33.247  15.586  12.394
43156W        W11561   6.030  19.620  14.200
43157W        W11562  37.386  25.366  13.074
43158W        W11563  16.736  26.411  10.253
43159W        W11564  10.777   6.931  12.950
43160W        W11565  19.169  40.300   0.388
43161W        W11566  30.067  24.555   4.827
43162W        W11567  32.576  16.361   4.093
43163W        W11568   0.762  38.060  10.730
43164W        W11569  30.575  25.468  13.886
43165W        W11570  27.298  12.569  14.418
43166W        W11571  34.033  29.301   3.800
43167W        W11572   4.902  19.256   4.609
43168W        W11573   3.797  24.136  11.416
43169W        W11574  11.888  10.926   1.325
43170W        W11575   5.191  40.430  13.618
43171W        W11576  37.560  16.756  11.975
43172W        W11577  24.750  40.381   3.289
43173W        W11578  40.064   8.657  10.743
43174W        W11579   5.143   7.710   4.666
43175W        W11580  25.998   9.642   0.915
43176W        W11581  25.140  23.308  11.386
43177W        W11582  24.514  29.074  11.396
43178W        W11583  39.393  28.624  13.965
43179W        W11584  18.503   2.881   4.770
43180W        W11585  14.049  22.321   2.661
43181W        W11586  31.028  20.991  14.787
43182W        W11587  28.569  43.214  10.221
43183W        W11588  17.260  27.989  12.963
43184W        W11589   8.791  20.902   1.785
43185W        W11590   0.241   8.569   2.231
43186W        W11591  38.871  27.960  10.906
43187W        W11592  27.669  37.043  11.682
43188W        W11593  15.382  35.998   3.514
43189W        W11594  12.912  39.851  13.604
43190W        W11595   8.392   4.888   4.138
43191W        W11596  23.510  32.262  13.893
43192W        W11597  30.277  24.146  10.727
43193W        W11598   5.608  37.011   1.193
43194W        W11599  11.591  38.482  10.996
43195W        W11600  44.266  30.974  13.002
43196W        W11601   5.781  43.811  12.139
43197W        W11602  28.224  43.362  11.855
43198W        W11603   4.183  42.221   0.810
43199W        W11604  24.821  33.051  12.253
43200W        W11605  18.942   4.127   2.239
43201W        W11606  35.588  33.569  14.992
43202W        W11607  44.198  18.451  13.486
43203W        W11608  38.812  28.870  11.839
43204W        W11609  16.267  37.639  11.098
43205W        W11610  23.507  13.865   3.825
43206W        W11611  28.601   9.381   4.653
43207W        W11612  12.423  20.678  14.310
43208W        W11613  40.504  31.178  12.442
43209W        W11614  22.063   6.845   0.228
43210W        W11615  38.330  27.690   1.712
43211W        W11616   1.970  30.017   4.162
43212W        W11617  10.267  20.076   2.412
43213W        W11618  28.588  13.651   3.419
43214W        W11619  28.874   6.774  12.358
43215W        W11620  28.906  33.600  11.441
43216W        W11621  34.503  11.837  12.869
43217W        W11622  30.519  39.376   3.701
43218W        W11623  39.289   4.306   3.611
43219W        W11624   0.260  26.479  10.618
43220W        W11625  30.028  18.302   1.403
43221W        W11626   0.423   2.222  13.590
43222W        W11627   8.009   1.197   3.098
43223W        W11628  15.525  33.026  11.893
43224W        W11629   6.294  39.827   1.294
43225W        W11630  30.132  26.147  12.559
43226W        W11631   4.329  30.437   4.938
43227W        W11632   0.394  34.607   1.229
43228W        W11633  14.703  29.484   4.695
43229W        W11634  16.785  13.405  11.744
43230W        W11635  32.101   5.809  14.207
43231W        W11636   7.848   3.511   2.541
43232W        W11637  42.675  13.119  11.889
43233W        W11638  15.376  20.778   3.219
43234W        W11639  32.557   5.488  12.223
43235W        W11640  14.418  16.248  12.059
43236W        W11641  40.233   9.278   1.498
43237W        W11642  10.271  32.117   2.860
43238W        W11643  15.582  16.861   4.728
43239W        W11644   2.832  37.446  13.856
43240W        W11645   2.954   7.305  13.837
43241W        W11646  11.327  42.545  12.770
43242W        W11647  38.969  16.844  13.345
43243W        W11648   0.010  39.472  14.153
43244W        W11649  42.384  39.885   3.257
43245W        W11650  25.448  40.377   4.050
43246W        W11651  36.124  24.755   0.513
43247W        W11652  36.568  31.979   3.281
43248W        W11653  17.766  18.218   4.089
43249W        W11654  13.707   7.403  11.459
43250W        W11655  34.450  27.094   4.366
43251W        W11656  14.844  35.129  13.059
43252W        W11657  10.772   3.887  10.286
43253W        W11658   9.414  30.015   3.230
43254W        W11659   5.205  18.566   0.984
43255W        W11660  30.233  23.039   1.788
43256W        W11661  43.901  36.117   2.203
43257W        W11662   6.355  17.520  10.710
43258W        W11663  16.539  17.902   2.180
43259W        W11664  16.836  38.086   3.177
43260W        W11665  39.815  12.188   3.107
43261W        W11666  27.432  11.815  10.998
43262W        W11667  40.426  11.041  10.654
43263W        W11668  17.129  22.900   3.658
43264W        W11669   2.994   9.159  11.061
43265W        W11670   6.788  24.435   2.240
43266W        W11671  18.492  24.078   3.932
43267W        W11672   5.180  35.643   0.923
43268W        W11673   3.598   8.503  10.654
43269W        W11674   0.870   0.507  14.783
43270W        W11675  28.216  39.299   4.236
43271W        W11676  38.779   8.588   0.218
43272W        W11677  40.648   3.735  12.969
43273W        W11678   2.841  11.913  11.980
43274W        W11679  34.984  37.367   3.354
43275W        W11680  29.557  13.753   0.270
43276W        W11681  16.129  32.070  10.442
43277W        W11682  22.355  23.649  10.108
43278W        W11683  43.458  21.402   0.266
43279W        W11684  27.883  23.745   4.690
43280W        W11685  26.536   0.054   3.581
43281W        W11686   4.942  34.152   4.278
43282W        W11687  39.835  12.930  13.438
43283W        W11688  43.080  43.686  13.840
43284W        W11689  19.538   8.637   0.102
43285W        W11690  23.046  43.782   1.203
43286W        W11691   1.433  34.332  13.474
43287W        W11692  36.997  32.575  14.770
43288W        W11693  30.700  17.097  14.635
43289W        W11694  43.606  40.785   4.267
43290W        W11695  23.585  43.286  14.965
43291W        W11696  15.739  35.119  10.313
43292W        W11697   0.963  25.775  13.406
43293W        W11698  23.294  38.339  13.458
43294W        W11699   9.216   0.867   5.023
43295W        W11700  40.600   5.924  12.688
43296W        W11701  44.302  20.562  11.198
43297W        W11702   7.836  37.495   0.886
43298W        W11703   5.358   3.594  11.930
43299W        W11704  23.481  42.500   2.329
43300W        W11705   5.694  22.081  14.044
43301W        W11706   4.887  15.865   1.657
43302W        W11707  27.658  11.205   1.048
43303W        W11708  22.598  31.078  12.439
43304W        W11709  36.890  20.801  12.173
43305W        W11710  43.669  22.671  14.549
43306W        W11711  31.969  41.278   2.855
43307W        W11712  22.513  18.315  11.906
43308W        W11713  38.947  40.026   0.181
43309W        W11714  16.732  42.439   4.523
43310W        W11715  44.980  37.396   4.716
43311W        W11716  25.993  40.307   0.780
43312W        W11717  40.001  35.041  11.422
43313W        W11718  22.207  23.118  13.965
43314W        W11719  36.921  31.414   0.037
43315W        W11720  15.590  33.859   3.489
43316W        W11721  22.997  10.178  14.473
43317W        W11722  42.547  13.279   0.331
43318W        W11723  25.243  16.058   3.396
43319W        W11724  19.609  39.622   0.856
43320W        W11725  21.710  16.569  13.964
43321W        W11726  27.253   6.112   1.254
43322W        W11727  24.709  24.244  12.996
43323W        W11728  33.094  22.238   0.957
43324W        W11729  11.389  25.740   0.379
43325W        W11730  31.968  29.669  13.857
43326W        W11731  39.005   3.852  11.305
43327W        W11732   1.424  42.530   3.379
43328W        W11733  37.277  44.410   4.557
43329W        W11734  17.373  17.759   2.969
43330W        W11735  42.413  42.375   3.713
43331W        W11736  32.045   1.994   3.781
43332W        W11737  13.162  19.016  13.432
43333W        W11738   3.033   3.652  10.805
43334W        W11739  32.059  20.570  13.027
43335W        W11740  34.966  38.604  14.578
43336W        W11741   7.438  30.856   1.801
43337W        W11742  32.878  44.098   2.933
43338W        W11743  10.269  35.063   4.508
43339W        W11744  28.705  37.634   0.902
43340W        W11745   1.773  40.978   4.382
43341W        W11746  43.096  36.037  11.045
43342W        W11747  12.619  10.277   0.894
43343W        W11748  16.792  19.973  12.162
43344W        W11749   3.150  38.994   3.398
43345W        W11750  36.474  43.784   0.806
43346W        W11751  22.957   8.321  14.249
43347W        W11752  31.544  27.858  14.030
43348W        W11753  21.996   0.752  13.081
43349W        W11754  20.775  41.759  10.769
43350W        W11755  30.340   2.457   0.457
43351W        W11756  33.815  31.390  14.822
43352W        W11757  27.283   4.245   1.874
43353W        W11758  20.101  43.496  11.187
43354W        W11759  37.046  22.019  13.482
43355W        W11760  24.506  41.944  10.838
43356W        W11761  21.398  14.842   3.237
43357W        W11762   0.377  21.254   1.422
43358W        W11763  23.757  33.605  13.867
43359W        W11764  41.499   3.922   4.031
43360W        W11765  40.490  29.449   0.807
43361W        W11766  11.218  33.911  12.465
43362W        W11767  34.109  32.573   3.746
43363W        W11768   3.335  33.022   2.857
43364W        W11769  33.367  11.795   3.600
43365W        W11770   1.511  27.390   0.395
43366W        W11771  11.188   3.320  12.580
43367W        W11772   4.862  34.210  14.926
43368W        W11773  33.780  13.242  14.984
43369W        W11774   7.338  31.931   0.810
43370W        W11775  33.033   4.901   1.472
43371W        W11776  36.911  20.938  14.368
43372W        W11777   5.448  31.501   4.838
43373W        W11778  44.405   2.774   2.451
43374W        W11779  18.846  40.685   0.524
43375W        W11780  16.829  23.052  11.613
43376W        W11781   5.573  13.228  10.648
43377W        W11782  31.032   9.225  11.750
43378W        W11783  35.076   1.693   5.020
43379W        W11784   0.401  17.083  12.180
43380W        W11785  16.751  11.733   0.321
43381W        W11786  15.627  11.194   4.115
43382W        W11787  10.139   1.302  10.916
43383W        W11788  15.214   7.641   2.806
43384W        W11789  44.578  37.759   2.725
43385W        W11790  32.800  41.514  12.701
43386W        W11791  22.145  36.609  10.619
43387W        W11792  19.973  18.087  11.200
43388W        W11793  20.675  19.636   3.684
43389W        W11794   3.740  33.360   2.164
43390W        W11795   1.956  23.627   3.444
43391W        W11796  27.021   4.385   3.199
43392W        W11797  44.968   8.878  11.574
43393W        W11798   3.602   2.596  11.528
43394W        W11799  25.267  33.328   1.223
43395W        W11800  25.605  14.589  14.905
43396W        W11801   7.111  22.531  14.310
43397W        W11802  17.577  12.402  13.417
43398W        W11803  23.927  36.957  11.980
43399W        W11804  22.994  39.048  10.920
43400W        W11805   6.677  31.954  14.541
43401W        W11806  26.212  33.665  11.491
43402W        W11807  27.559  30.699  14.029
43403W        W11808  29.780  24.929   5.072
43404W        W11809  22.420  22.324  14.720
43405W        W11810  24.450   8.579   2.773
43406W        W11811  44.107  17.803  11.433
43407W        W11812  17.735  19.985  14.322
43408W        W11813  10.617  38.581  14.423
43409W        W11814  26.377  29.542   4.995
43410W        W11815  15.133  34.631   3.761
43411W        W11816   0.666   7.912  14.551
43412W        W11817  42.435  20.297   1.308
43413W        W11818  22.014  35.636   4.633
43414W        W11819  25.914  22.606   4.559
43415W        W11820  37.324  26.317  11.551
43416W        W11821  16.729  44.000   4.186
43417W        W11822  32.451  44.319  13.892
43418W        W11823  14.620   7.487  12.447
43419W        W11824  26.336  36.541  14.044
43420W        W11825  19.149   5.708  13.345
43421W        W11826  20.730  10.571  14.965
43422W        W11827   3.762  39.094   0.681
43423W        W11828  19.419   2.454  13.525
43424W        W11829  21.323   0.351   0.706
43425W        W11830   7.269  10.275  14.296
43426W        W11831  13.572  37.390   1.811
43427W        W11832  26.552   4.698  10.110
43428W        W11833  44.882   3.613  12.548
43429W        W11834  42.763  16.660  13.990
43430W        W11835  12.382  43.282   4.678
43431W        W11836   1.704  19.642   2.190
43432W        W11837  24.522  39.636   2.516
43433W        W11838  14.901  35.901  11.631
43434W        W11839  15.564   3.765  14.941
43435W        W11840   3.460  16.873  12.462
43436W        W11841  23.481  17.340   4.531
43437W        W11842   6.843   3.267   4.468
43438W        W11843  40.654  12.178   1.353
43439W        W11844  37.515  35.577  11.068
43440W        W11845  39.585  18.051   1.764
43441W        W11846  31.950  34.975   4.498
43442W        W11847  20.162   3.983   4.607
43443W        W11848  13.717  12.096  12.602
43444W        W11849  21.171  31.960   2.014
43445W        W11850  41.964   6.341  12.685
43446W        W11851   5.378  26.453  10.795
43447W        W11852  12.217  19.489  12.877
43448W        W11853  23.520   1.410  11.812
43449W        W11854  33.893  32.671   0.315
43450W        W11855  12.724   9.132  11.616
43451W        W11856  38.071  30.402   3.636
43452W        W11857  12.901   3.786  13.780
43453W        W11858  13.733  35.428   0.736
43454W        W11859  40.508   6.846  14.770
43455W        W11860  27.453  30.582   4.056
43456W        W11861  10.350   2.346  14.368
43457W        W11862   4.189  33.036   1.828
43458W        W11863   0.501  26.026  10.659
43459W        W11864  10.752  13.683  14.746
43460W        W11865  34.474   6.483   0.720
43461W        W11866  30.379  44.044   1.160
43462W        W11867  23.925  15.493  12.674
43463W        W11868  22.973  28.086  14.663
43464W        W11869  32.554  29.339   2.541
43465W        W11870   5.746  20.507  13.737
43466W        W11871   9.254  27.216   1.443
43467W        W11872  18.114  16.125  10.993
43468W        W11873  13.290   6.140  13.154
43469W        W11874   5.842   9.357  12.314
43470W        W11875  26.917  24.076   0.861
43471W        W11876  33.379  41.507   1.390
43472W        W11877   9.023  11.549   3.207
43473W        W11878  39.084  28.184  13.885
43474W        W11879  33.358  38.103  14.018
43475W        W11880   3.823  29.796  10.417
43476W        W11881   1.943   1.681  12.129
43477W        W11882  13.320  21.255  13.395
43478W        W11883  29.619  12.984  11.606
43479W        W11884  41.384   6.554   0.286
43480W        W11885  34.692  10.172   0.205
43481W        W11886  38.814  32.936   3.644
43482W        W11887  14.742  15.686  11.479
43483W        W11888  37.329  43.455  12.010
43484W        W11889   8.608  20.585   3.317
43485W        W11890  31.903  23.675   1.428
43486W        W11891  34.804  41.381  13.007
43487W        W11892   4.967  20.336  12.570
43488W        W11893   0.574  30.961   1.408
43489W        W11894  28.603  30.165   1.391
43490W        W11895  36.096   3.902   1.639
43491W        W11896  37.527  37.570   1.773
43492W        W11897  11.790  13.840  10.858
43493W        W11898  13.162  28.387   4.829
43494W        W11899  24.562  44.485  12.934
43495W        W11900  36.013   0.327   2.775
43496W        W11901  41.916  37.973  10.787
43497W        W11902  30.640  25.633  14.484
43498W        W11903  31.608   0.497   0.870
43499W        W11904   0.472  18.995  11.433
43500W        W11905  24.071  31.379   4.530
43501W        W11906  29.863   7.715  11.921
43502W        W11907  38.328   0.134   3.748
43503W        W11908  13.266  17.289  13.362
43504W        W11909   1.363   7.262  13.904
43505W        W11910   1.886  26.012   1.231
43506W        W11911  23.086  25.510   2.137
43507W        W11912  25.173  37.038  12.241
43508W        W11913   0.477  39.436  13.945
43509W        W11914  40.828  27.529  10.488
43510W        W11915   2.002  24.921   2.710
43511W        W11916  25.608  23.413   3.295
43512W        W11917  40.499   1.902   3.592
43513W        W11918  37.399  18.496  12.911
43514W        W11919  26.632  19.365   3.313
43515W        W11920  36.962   0.523  13.298
43516W        W11921  16.645  33.312  14.118
43517W        W11922  27.740  12.887   0.888
43518W        W11923  12.224  42.365   1.310
43519W        W11924  41.640   3.781   9.760
43520W        W11925   8.881  34.352   2.304
43521W        W11926  37.314  12.295  14.242
43522W        W11927  44.697  31.749  14.897
43523W        W11928  36.704  43.265   1.780
43524W        W11929  31.264   3.383   3.392
43525W        W11930  25.628  34.550  14.887
43526W        W11931  28.638   7.188   1.289
43527W        W11932   7.483   7.338   3.314
43528W        W11933  14.828  37.026   1.532
43529W        W11934  40.827  28.680   2.684
43530W        W11935   9.185  19.163   3.843
43531W        W11936  16.927  44.276  11.291
43532W        W11937  44.206  34.856  10.960
43533W        W11938  36.668  18.480   0.748
43534W        W11939  20.667   6.716  11.558
43535W        W11940  12.298  36.595  14.425
43536W        W11941  11.919  32.887  10.774
43537W        W11942  26.105   7.192   4.879
43538W        W11943  21.280   5.321   5.094
43539W        W11944  23.139  17.775  13.199
43540W        W11945   5.387  29.906   3.413
43541W        W11946  20.816  30.155  14.313
43542W        W11947  37.210   2.898   0.987
43543W        W11948  41.343  12.699  13.062
43544W        W11949  12.928  32.866   0.819
43545W        W11950  22.055  21.577  13.810
43546W        W11951  23.014   8.303   0.868
43547W        W11952  35.579  38.892   4.682
43548W        W11953  44.068   8.416  13.109
43549W        W11954   1.652  12.771  14.791
43550W        W11955   5.664  14.767   2.869
43551W        W11956   9.928   0.500  13.063
43552W        W11957  33.138  23.339   2.202
43553W        W11958  28.378  21.033   4.080
43554W        W11959  16.019   4.388   0.941
43555W        W11960  37.412   4.379  11.956
43556W        W11961   5.465   5.791  13.454
43557W        W11962  23.739   4.830  12.474
43558W        W11963  43.881  41.403   1.143
43559W        W11964  25.672  21.087  13.313
43560W        W11965  29.543   3.743   4.144
43561W        W11966  26.162  35.409   1.287
43562W        W11967   4.874  40.544  12.456
43563W        W11968  33.077  24.173  13.990
43564W        W11969  26.691  14.058   3.255
43565W        W11970  27.947   3.702   3.798
43566W        W11971  15.161  43.772  11.089
43567W        W11972  16.345  13.127  11.679
43568W        W11973  37.220  30.041  12.494
43569W        W11974  33.148  33.775  12.945
43570W        W11975  33.227  17.293   3.666
43571W        W11976  10.153  43.308   2.159
43572W        W11977  21.570   7.939  14.262
43573W        W11978  39.483  12.273   1.267
43574W        W11979  11.184   6.384   1.814
43575W        W11980  25.012  29.436   4.232
43576W        W11981  10.626  27.630   2.372
43577W        W11982  33.592  17.632   0.508
43578W        W11983  33.121  11.524   0.766
43579W        W11984  34.483  34.550  12.399
43580W        W11985  25.190  35.945  10.865
43581W        W11986  35.099  30.190   4.658
43582W        W11987  22.374  40.045  13.503
43583W        W11988   7.919  27.674  11.518
43584W        W11989  42.883  20.021   1.300
43585W        W11990  16.138  42.375  14.787
43586W        W11991  36.600  25.267  11.086
43587W        W11992  20.639  44.814   1.210
43588W        W11993  34.086  31.578  11.990
43589W        W11994   8.913  31.933  10.742
43590W        W11995  38.811  15.515  12.551
43591W        W11996  20.607   2.357   4.233
43592W        W11997  35.064  33.766  14.780
43593W        W11998   9.630  25.255  14.369
43594W        W11999  24.864  21.687  11.059
43595W        W12000  27.058  20.203  10.894
43596W        W12001  32.842  35.389  13.522
43597W        W12002  18.158  41.456  11.256
43598W        W12003  30.686   9.408   3.215
43599W        W12004  22.503  31.166   2.697
43600W        W12005  42.267  29.961  13.084
43601W        W12006   2.446   9.814   2.587
43602W        W12007   2.361  13.592  12.946
43603W        W12008   3.753  18.420   4.423
43604W        W12009  39.089  37.938   0.906
43605W        W12010  37.294   7.399  10.745
43606W        W12011  23.703  37.889  11.904
43607W        W12012  12.285  42.276  13.260
43608W        W12013  23.784  24.547   2.665
43609W        W12014  14.181   4.736   3.624
43610W        W12015   0.006  30.317   4.117
43611W        W12016  27.586  34.264  12.152
43612W        W12017   5.350  26.463   1.424
43613W        W12018   4.361  39.258   3.804
43614W        W12019  16.592   6.654  14.249
43615W        W12020  26.862  10.373  10.191
43616W        W12021  11.155  18.626   1.763
43617W        W12022   4.463   3.712  12.631
43618W        W12023  20.771  10.937  12.482
43619W        W12024   5.851   6.846  10.828
43620W        W12025  11.413  42.987   2.238
43621W        W12026  40.321   6.766  11.799
43622W        W12027  26.759  28.634   1.673
43623W        W12028   0.304   4.600  14.436
43624W        W12029  21.748  41.598   0.762
43625W        W12030  41.538  17.813   2.620
43626W        W12031  12.032  41.891   1.221
43627W        W12032  43.133  23.471  12.792
43628W        W12033  40.749  41.785  12.134
43629W        W12034  38.277  10.124   4.573
43630W        W12035  10.477  12.107   2.129
43631W        W12036  28.640  32.814   4.387
43632W        W12037   7.376  29.091  12.038
43633W        W12038  13.161  21.539  12.412
43634W        W12039   3.849  28.383  14.318
43635W        W12040   4.223   1.636   2.175
43636W        W12041  44.550   0.873  11.599
43637W        W12042  20.507  21.170   1.803
43638W        W12043  11.208   1.458  11.975
43639W        W12044  15.979  42.935   0.577
43640W        W12045  44.437  34.411  11.175
43641W        W12046  33.466  12.479  11.211
43642W        W12047  11.856  21.124  13.812
43643W        W12048  18.669   8.138   0.942
43644W        W12049  25.842   8.039   2.745
43645W        W12050  37.942   1.776  10.919
43646W        W12051  35.542  27.463  14.871
43647W        W12052  24.975  18.044  11.698
43648W        W12053  37.824   8.054   3.075
43649W        W12054  14.222   8.681  14.777
43650W        W12055  28.147  27.082  13.951
43651W        W12056  23.410   8.240   0.292
43652W        W12057  11.676  19.983  10.248
43653W        W12058   6.865  42.020   3.652
43654W        W12059  38.011  27.280  13.917
43655W        W12060  41.843  29.189  14.747
43656W        W12061  38.887  21.804   3.683
43657W        W12062  21.507  22.470  14.848
43658W        W12063  27.397  35.124  14.908
43659W        W12064  27.927  30.079   1.444
43660W        W12065   3.354  38.534   1.694
43661W        W12066  21.351   0.584  10.083
43662W        W12067   2.252  26.075   4.785
43663W        W12068   6.248  34.465   3.736
43664W        W12069  40.709  13.011  13.737
43665W        W12070  27.186  14.310  10.729
43666W        W12071  12.670  26.158  13.340
43667W        W12072  38.036  23.702   4.931
43668W        W12073  26.870  35.088  11.953
43669W        W12074  26.005  43.658  12.056
43670W        W12075  23.592  35.719  12.544
43671W        W12076  25.443   0.494  14.537
43672W        W12077  19.230  32.176   0.906
43673W        W12078  17.165   5.473  11.162
43674W        W12079  31.030  22.085   3.662
43675W        W12080  12.030  27.288  11.282
43676W        W12081  14.180   7.210   3.612
43677W        W12082  35.090   2.008   0.461
43678W        W12083   9.343  24.448  11.999
43679W        W12084   4.004  32.592   3.128
43680W        W12085  10.222  34.056   4.351
43681W        W12086   4.414  41.781   2.456
43682W        W12087  37.786  23.587   2.934
43683W        W12088  32.625  23.020  11.427
43684W        W12089  25.186  12.486   0.434
43685W        W12090  42.779  33.031  14.811
43686W        W12091  31.019  37.791  12.542
43687W        W12092   1.916  36.629  12.070
43688W        W12093   0.380  29.219   0.899
43689W        W12094  33.222   9.816   0.001
43690W        W12095   5.514  14.948   0.944
43691W        W12096  38.712  36.988  14.966
43692W        W12097  31.892  10.377   0.930
43693W        W12098  15.626  21.260  13.343
43694W        W12099  18.562  26.708  14.007
43695W        W12100  27.525   8.454  10.660
43696W        W12101  26.620   7.098  10.358
43697W        W12102  20.048   2.682   2.845
43698W        W12103  19.129  33.003  14.074
43699W        W12104  13.115  17.501  11.978
43700W        W12105   5.280   3.371  12.920
43701W        W12106  27.308  12.733   1.322
43702W        W12107  44.022  12.301  14.397
43703W        W12108  29.492  23.009  11.609
43704W        W12109  30.348  36.490   0.804
43705W        W12110  24.300  32.195   3.147
43706W        W12111   7.181  38.890  14.392
43707W        W12112  36.502   6.736   2.801
43708W        W12113   6.152  36.540   3.735
43709W        W12114  29.397   2.440  13.464
43710W        W12115  38.507   2.392  10.708
43711W        W12116  24.072   6.332   2.768
43712W        W12117  40.577  21.169  12.178
43713W        W12118  12.816   8.144  14.040
43714W        W12119   3.765  28.604   0.665
43715W        W12120  25.408   3.343   2.125
43716W        W12121  44.373   3.349  11.255
43717W        W12122  30.190   9.268   3.144
43718W        W12123   0.987  36.886  13.245
43719W        W12124  31.704  18.585   1.017
43720W        W12125  33.422  31.559  11.625
43721W        W12126  14.730   4.215   1.486
43722W        W12127  19.220   2.948  11.488
43723W        W12128   1.538  30.927  13.901
43724W        W12129  43.662  34.154   0.403
43725W        W12130  15.850  38.526   1.279
43726W        W12131   6.526  41.833  11.544
43727W        W12132  17.872  44.453   0.440
43728W        W12133  37.813   5.753   0.275
43729W        W12134  32.716  17.303   3.680
43730W        W12135  30.901  13.570   1.712
43731W        W12136  34.678  27.070   4.835
43732W        W12137  42.237  16.761   2.787
43733W        W12138  18.113  44.014  10.425
43734W        W12139   7.712  12.741   4.930
43735W        W12140  36.319  19.012   2.231
43736W        W12141  38.663  44.889  14.544
43737W        W12142  39.461   3.886   3.854
43738W        W12143  31.662  10.761   1.212
43739W        W12144   3.307  12.289  11.019
43740W        W12145  24.183  24.975  12.172
43741W        W12146  26.414  29.515   2.263
43742W        W12147  12.929  31.374   2.109
43743W        W12148  23.512  21.831  13.816
43744W        W12149  24.486  11.261   1.852
43745W        W12150  44.475  13.720  10.687
43746W        W12151  26.154  26.059  11.019
43747W        W12152  44.547  42.230  11.742
43748W        W12153   4.590  19.267   1.258
43749W        W12154  44.739  12.921  12.042
43750W        W12155   8.100  30.458   2.738
43751W        W12156   4.997  18.556   1.587
43752W        W12157  40.359  25.224   4.669
43753W        W12158  22.765   5.605  14.986
43754W        W12159  32.724   8.140   3.134
43755W        W12160  44.405   6.290  14.560
43756W        W12161  17.352  33.318   3.646
43757W        W12162   3.941  11.193  10.773
43758W        W12163   9.909  38.479   3.642
43759W        W12164  32.976  43.360  14.418
43760W        W12165  36.088   2.987  11.630
43761W        W12166  31.561  18.010   2.207
43762W        W12167  16.294  30.807  11.879
43763W        W12168  30.967   6.629   0.881
43764W        W12169  40.309  18.844   3.687
43765W        W12170  13.650   6.226  12.233
43766W        W12171  13.084  39.987   0.406
43767W        W12172   2.383   3.371   0.553
43768W        W12173   5.177  35.138   3.734
43769W        W12174   7.698  33.201   3.657
43770W        W12175  17.503   3.339   4.663
43771W        W12176  41.082   3.420  14.993
43772W        W12177  42.428  41.781   4.988
43773W        W12178  11.589  29.701  12.986
43774W        W12179  22.614   6.454  11.588
43775W        W12180   8.631  19.109  12.396
43776W        W12181   9.232  39.458  14.818
43777W        W12182   9.117   6.855   2.768
43778W        W12183  30.508   4.920   1.350
43779W        W12184  37.170   1.714  13.033
43780W        W12185  15.070   1.706  12.607
43781W        W12186  10.341  34.122  12.280
43782W        W12187  15.669  34.039   5.339
43783W        W12188  35.870   5.593   3.851
43784W        W12189  42.944  14.221   0.474
43785W        W12190  11.233  16.757  11.699
43786W        W12191  16.737  22.486  12.061
43787W        W12192   5.174  38.059   2.810
43788W        W12193  15.633  22.711  11.025
43789W        W12194   3.091   8.486   4.253
43790W        W12195  21.558  23.280   2.668
43791W        W12196  13.454   8.777   1.599
43792W        W12197  21.404  10.649  11.189
43793W        W12198  19.135  26.025   5.169
43794W        W12199   0.872   7.714   3.285
43795W        W12200  34.658   5.529   0.024
43796W        W12201  38.094  44.550   1.587
43797W        W12202  32.238  11.327  13.996
43798W        W12203  31.857  40.573   2.310
43799W        W12204  18.242  16.016   1.148
43800W        W12205  20.197  28.078  13.005
43801W        W12206  20.129  24.179   0.042
43802W        W12207   1.901  15.837   2.279
43803W        W12208  34.643  24.598   0.398
43804W        W12209  29.350  34.007  14.863
43805W        W12210  41.332  34.552   4.746
43806W        W12211  38.836  27.514   3.249
43807W        W12212   4.576  40.841   0.446
43808W        W12213  21.195   0.825  12.057
43809W        W12214   9.719   8.190  14.314
43810W        W12215  17.114   5.972  11.267
43811W        W12216  35.111  23.181   4.413
43812W        W12217  27.397   9.319  10.578
43813W        W12218  28.141  18.575   9.999
43814W        W12219  43.547  33.626   1.228
43815W        W12220  24.350  18.841  14.257
43816W        W12221  14.571  13.217   2.859
43817W        W12222   0.715   5.594  14.715
43818W        W12223  26.479  23.021   0.427
43819W        W12224  37.018  26.608  13.281
43820W        W12225  25.210  27.258  11.734
43821W        W12226  44.472  42.834  14.529
43822W        W12227  21.232   2.393   3.911
43823W        W12228  18.071  36.899  10.719
43824W        W12229   7.711  39.962   2.629
43825W        W12230   5.003   2.703  11.133
43826W        W12231  32.366   4.028   1.525
43827W        W12232  44.846  13.093   1.659
43828W        W12233  35.795   6.839  13.054
43829W        W12234  34.837  15.826   2.167
43830W        W12235  19.814  24.483  12.458
43831W        W12236  33.841  29.432   0.381
43832W        W12237  15.235  33.881   0.438
43833W        W12238  41.091  19.129  12.539
43834W        W12239  36.688  34.536  13.476
43835W        W12240  31.060  42.584  10.667
43836W        W12241  11.855  16.627   1.197
43837W        W12242   9.248   0.166  10.087
43838W        W12243  33.897   3.853   1.375
43839W        W12244  34.015   5.286   3.445
43840W        W12245  21.088  18.029   4.814
43841W        W12246   2.516  44.983  13.809
43842W        W12247  44.506  21.052  11.161
43843W        W12248  26.493  34.021   0.224
43844W        W12249  30.421  30.086  12.925
43845W        W12250  15.816  17.328  12.221
43846W        W12251  32.034   5.916  12.407
43847W        W12252  30.432  21.574  12.488
43848W        W12253  39.637  24.303   2.263
43849W        W12254  38.005  25.451   4.862
43850W        W12255  17.127  16.197   1.827
43851W        W12256  43.493  37.250  14.007
43852W        W12257  14.674   1.234   2.783
43853W        W12258   4.013  17.621   1.276
43854W        W12259  29.468  34.890   0.881
43855W        W12260   7.396  12.207  14.066
43856W        W12261  38.694  38.834  14.886
43857W        W12262  40.409  20.024   3.270
43858W        W12263  33.405  38.089   2.243
43859W        W12264  30.650  39.266   0.112
43860W        W12265  38.966  44.008  13.154
43861W        W12266  24.762   4.581   3.289
43862W        W12267  30.863  11.660   1.959
43863W        W12268   6.615  28.681   0.338
43864W        W12269  15.415  10.369   5.098
43865W        W12270  30.535  40.775  11.624
43866W        W12271   2.442  43.676  11.211
43867W        W12272   8.383  13.961   3.330
43868W        W12273  22.014   7.428  13.558
43869W        W12274  35.058  25.982  13.889
43870W        W12275   1.754  38.287  13.924
43871W        W12276  42.813  34.052  11.915
43872W        W12277  17.210  18.156   0.516
43873W        W12278  44.305  13.645   4.154
43874W        W12279  27.519  32.796  13.145
43875W        W12280  22.822  17.251  12.508
43876W        W12281  16.150  25.083  14.801
43877W        W12282  30.698   7.720  12.943
43878W        W12283  26.534  10.415   1.394
43879W        W12284  42.354  26.487   2.269
43880W        W12285  34.510  27.672  12.103
43881W        W12286  42.710  22.569   3.164
43882W        W12287   9.750  27.683   3.492
43883W        W12288   1.313   8.882   0.108
43884W        W12289  28.040  23.169  13.508
43885W        W12290   4.291  43.345   3.712
43886W        W12291  18.805  34.992  12.889
43887W        W12292   5.629  18.172  12.456
43888W        W12293   6.546   9.876   1.424
43889W        W12294  21.235  31.027   2.961
43890W        W12295  15.891  15.836  11.156
43891W        W12296  24.988   5.709   0.947
43892W        W12297  35.108  35.901  12.149
43893W        W12298  40.443  11.811   9.849
43894W        W12299  13.643  22.636   4.448
43895W        W12300   9.928  34.031   3.540
43896W        W12301  38.026   2.572   9.951
43897W        W12302  22.191  17.699  10.735
43898W        W12303  43.873   3.272  10.515
43899W        W12304  16.827   8.687   0.776
43900W        W12305  23.039  12.191   1.289
43901W        W12306   6.324   9.145   2.378
43902W        W12307  15.216  33.373  13.809
43903W        W12308  30.551  22.896  14.895
43904W        W12309   1.301  37.941  12.649
43905W        W12310  36.982  31.139   0.994
43906W        W12311  24.987   1.888   3.755
43907W        W12312  28.858  11.545   1.058
43908W        W12313  18.077  14.792  13.484
43909W        W12314  40.894   8.991  10.712
43910W        W12315  41.269  34.468   1.835
43911W        W12316  42.737  29.167  11.548
43912W        W12317  38.018  14.691  14.361
43913W        W12318  36.801   6.855   1.941
43914W        W12319  37.320  13.125   0.228
43915W        W12320  20.281  12.696   1.192
43916W        W12321  20.810  31.956  11.518
43917W        W12322  15.636  25.964  13.945
43918W        W12323  44.504  10.603  14.908
43919W        W12324   9.163  18.530  14.420
43920W        W12325  24.077   9.139  12.506
43921W        W12326   9.231  15.732   0.510
43922W        W12327  27.627  20.140   0.238
43923W        W12328  32.174   2.963   2.688
43924W        W12329  24.063  21.101   3.326
43925W        W12330   2.611  39.125   1.495
43926W        W12331   6.805  26.573   0.354
43927W        W12332   6.121  20.907   5.055
43928W        W12333  23.169  32.297  14.487
43929W        W12334  18.776  27.731   3.630
43930W        W12335   5.786  42.603  13.814
43931W        W12336  14.022  22.630   0.415
43932W        W12337  18.076  34.629  11.180
43933W        W12338  10.176  33.543   0.270
43934W        W12339  39.457  42.110  13.014
43935W        W12340  21.733  10.322  14.812
43936W        W12341  19.022   0.388   4.151
43937W        W12342  16.989  31.332   3.746
43938W        W12343  29.215  18.843   9.822
43939W        W12344  35.643   3.343  10.741
43940W        W12345  36.252  14.610  14.958
43941W        W12346  44.368  26.655   1.666
43942W        W12347  33.010   8.224   4.113
43943W        W12348  34.765  39.761  13.658
43944W        W12349  36.603  10.166   4.563
43945W        W12350  26.074  21.985  11.634
43946W        W12351  19.619  43.409  14.525
43947W        W12352   8.865  33.466   4.557
43948W        W12353   6.589  36.295  10.844
43949W        W12354  17.717  24.373   2.893
43950W        W12355   5.890  34.863   4.790
43951W        W12356  43.338  35.353   4.196
43952W        W12357  41.858  32.706  14.813
43953W        W12358   2.742  29.467   1.837
43954W        W12359   1.016   5.305  13.021
43955W        W12360  39.546  40.074  14.495
43956W        W12361  12.792  10.849  11.137
43957W        W12362  33.640  22.403  11.076
43958W        W12363  13.334  19.614   1.289
43959W        W12364   6.287  22.002   2.370
43960W        W12365  40.900  41.224  13.974
43961W        W12366  20.943  19.496  12.608
43962W        W12367   6.587  35.360   3.807
43963W        W12368  13.015   9.314  12.007
43964W        W12369  33.127  27.671   3.245
43965W        W12370  19.015  11.080   3.379
43966W        W12371  30.882  22.596   2.724
43967W        W12372  35.491  44.810   2.436
43968W        W12373  29.031  38.992  12.557
43969W        W12374  20.514  37.896  12.933
43970W        W12375  40.976  32.393  12.927
43971W        W12376  21.232  23.487  11.437
43972W        W12377   3.354   4.996   0.524
43973W        W12378  11.817  43.254   4.629
43974W        W12379  44.075  15.534  14.909
43975W        W12380   2.252  20.320   2.274
43976W        W12381   5.713  30.463   2.731
43977W        W12382  26.364  16.778   1.964
43978W        W12383  23.315   2.324  13.966
43979W        W12384  26.052  12.867   4.781
43980W        W12385   8.196  44.500   2.166
43981W        W12386   0.283  26.790  14.905
43982W        W12387  40.056  35.077   4.087
43983W        W12388  30.627  32.937   3.815
43984W        W12389   8.793  21.062   3.268
43985W        W12390  16.270  15.367   3.648
43986W        W12391  27.332  41.897  13.823
43987W        W12392  33.052  26.365   4.172
43988W        W12393  33.516  41.933  12.900
43989W        W12394  36.552   3.622   2.380
43990W        W12395  34.066  27.173   3.176
43991W        W12396   2.079  28.066   1.402
43992W        W12397  12.329  21.518   4.773
43993W        W12398  17.792  13.887   3.995
43994W        W12399  34.911  39.448   1.415
43995W        W12400   3.788  29.231  12.065
43996W        W12401  18.733   3.310  12.497
43997W        W12402  11.309  41.063   4.477
43998W        W12403  35.200   3.568   1.974
43999W        W12404   0.441  20.376   2.760
44000W        W12405  39.123   5.191  10.328
44001W        W12406  36.578   9.325   4.561
44002W        W12407  32.637  18.681   4.815
44003W        W12408  17.323  29.747  11.030
44004W        W12409   0.462   8.166   2.495
44005W        W12410  41.573  22.545   4.592
44006W        W12411  15.455  26.447  10.572
44007W        W12412  34.993  11.285   0.726
44008W        W12413   2.770  30.471  12.529
44009W        W12414  38.429  38.555   2.434
44010W        W12415  23.698  38.107  12.960
44011W        W12416   0.478   1.335   4.559
44012W        W12417  33.403  40.825  11.633
44013W        W12418  43.062  24.973   5.072
44014W        W12419  27.972  13.913  14.528
44015W        W12420  22.957  16.550  12.188
44016W        W12421  32.974  12.360  13.450
44017W        W12422  35.497  16.581   2.610
44018W        W12423  17.239  21.665  11.375
44019W        W12424   1.459  10.845  12.386
44020W        W12425  30.944  27.028   1.699
44021W        W12426  36.823  13.648  11.633
44022W        W12427  32.128  38.869  14.791
44023W        W12428   3.817  18.387   0.914
44024W        W12429  34.325   8.938  11.626
44025W        W12430  15.684  12.800   4.114
44026W        W12431  41.732  13.625   0.511
44027W        W12432  31.781  42.938  10.311
44028W        W12433  14.932  10.742   3.737
44029W        W12434  44.779   9.041  12.844
44030W        W12435   2.220  33.916  11.493
44031W        W12436  39.051  44.460   1.266
44032W        W12437   6.587  42.521  10.481
44033W        W12438  34.874  20.835  14.410
44034W        W12439  40.426  10.370  12.590
44035W        W12440   9.702   3.648  14.456
44036W        W12441   4.775  43.128  10.751
44037W        W12442  20.120  36.679   2.468
44038W        W12443  19.356  43.563   4.596
44039W        W12444  40.932  22.254   4.041
44040W        W12445  20.295  32.485   2.866
44041W        W12446  16.657  39.105  10.680
44042W        W12447  11.887   3.450   4.844
44043W        W12448  33.593  37.512   0.309
44044W        W12449  15.798  10.331   2.346
44045W        W12450   6.408  27.479   1.935
44046W        W12451  10.106   9.106  12.556
44047W        W12452   6.224  27.222   0.780
44048W        W12453  20.245  13.150  13.440
44049W        W12454  38.052  36.086   4.094
44050W        W12455  17.322   8.803   0.786
44051W        W12456  38.684  33.588  14.836
44052W        W12457  17.782  41.121   2.765
44053W        W12458  37.127  16.601  13.346
44054W        W12459  21.176  39.151  10.675
44055W        W12460  11.605  38.577   1.977
44056W        W12461  37.570  35.081  10.933
44057W        W12462  10.680   5.774  13.399
44058W        W12463  38.373   2.706  11.086
44059W        W12464  27.172  43.020  11.152
44060W        W12465  23.665  30.253  12.623
44061W        W12466   3.342  13.109  13.816
44062W        W12467  28.529  10.372   3.289
44063W        W12468   9.879  38.932   0.456
44064W        W12469  18.498  44.836  10.611
44065W        W12470  42.207  35.387   3.669
44066W        W12471  36.984  18.760  12.021
44067W        W12472  13.083  18.289   2.715
44068W        W12473   0.408  29.598   1.231
44069W        W12474  22.049   5.188   4.543
44070W        W12475   5.633  35.688  11.571
44071W        W12476   3.000  36.579  10.765
44072W        W12477  18.959  18.834   1.232
44073W        W12478  34.121  41.454  11.510
44074W        W12479  30.419  40.397   3.214
44075W        W12480  26.063  27.937  11.891
44076W        W12481  40.266  34.969   3.620
44077W        W12482  38.727  14.631   4.078
44078W        W12483   2.283  14.913  14.980
44079W        W12484   6.949  13.671  12.037
44080W        W12485  25.718   6.403  11.130
44081W        W12486  25.629  22.271   0.435
44082W        W12487   2.487  40.509  14.295
44083W        W12488  19.080  15.278  10.737
44084W        W12489  11.847  38.996   2.166
44085W        W12490   5.368  22.483   1.010
44086W        W12491   9.243  38.329   4.379
44087W        W12492  16.574  29.702  12.449
44088W        W12493   8.673  33.976  14.975
44089W        W12494   5.640  22.153   3.722
44090W        W12495  23.763  24.682   1.811
44091W        W12496   2.718  40.380  12.631
44092W        W12497   8.751   4.393  11.148
44093W        W12498  32.522   1.920  12.934
44094W        W12499   0.324  37.430   0.236
44095W        W12500   7.227  43.446   0.848
44096W        W12501  10.625  26.579  13.127
44097W        W12502   4.934  41.016  13.329
44098W        W12503  18.051   3.357   1.360
44099W        W12504  35.913  22.201   4.062
44100W        W12505  39.819  30.604  10.911
44101W        W12506   4.925   0.197   3.197
44102W        W12507  41.566   1.664   1.796
44103W        W12508  26.738  23.136   1.876
44104W        W12509  43.772   6.463  11.115
44105W        W12510  24.708  38.513  12.480
44106W        W12511   6.349  22.539   1.268
44107W        W12512  40.305  40.391   1.753
44108W        W12513  13.166  42.245   3.774
44109W        W12514  10.403  29.518  13.596
44110W        W12515  24.345  31.053  12.404
44111W        W12516  32.735  23.272  10.982
44112W        W12517  34.623  24.659   3.808
44113W        W12518   2.316   9.540   1.189
44114W        W12519  24.715  42.764   1.862
44115W        W12520  23.392  13.580  10.530
44116W        W12521  29.605  29.975  13.993
44117W        W12522   9.271   6.994   1.782
44118W        W12523   3.824   2.011   4.281
44119W        W12524  27.516   2.696  13.425
44120W        W12525  37.137   1.486   1.777
44121W        W12526  41.169  33.382  13.743
44122W        W12527  16.676  28.436  11.682
44123W        W12528  12.369  12.694  11.199
44124W        W12529  30.046  10.837  12.904
44125W        W12530  33.326  10.838   1.994
44126W        W12531  42.853  41.157   3.390
44127W        W12532   3.445   0.006   4.776
44128W        W12533   7.630   1.365  14.081
44129W        W12534  35.865  12.649   1.183
44130W        W12535   2.406  27.747   3.241
44131W        W12536  19.198   1.355  13.320
44132W        W12537   9.249   5.821  12.406
44133W        W12538   4.513  33.832  13.799
44134W        W12539   0.931  32.619   3.307
44135W        W12540  21.044  29.724  12.943
44136W        W12541  30.987  29.611   3.870
44137W        W12542  11.662  20.957   1.784
44138W        W12543  24.717  12.890   1.208
44139W        W12544  44.711  25.455  10.952
44140W        W12545   6.970  17.779  13.825
44141W        W12546  18.667  25.474   2.845
44142W        W12547  33.947   7.204  10.876
44143W        W12548  16.396  44.889   4.083
44144W        W12549  13.625  11.201   2.829
44145W        W12550  27.776   1.868  12.027
44146W        W12551   6.711   3.678  10.713
44147W        W12552   4.011  28.225   0.377
44148W        W12553  38.413  17.389  10.568
44149W        W12554  42.268  33.090  10.429
44150W        W12555  24.378  10.468   3.792
44151W        W12556  18.042  38.502  14.598
44152W        W12557  34.071  21.913   0.489
44153W        W12558  32.608  11.530   1.220
44154W        W12559  29.618  38.859   3.690
44155W        W12560  43.575  21.530  13.499
44156W        W12561  19.319  18.302  14.891
44157W        W12562  39.565  30.219  13.329
44158W        W12563  25.381  33.029  13.532
44159W        W12564  36.731  14.786  13.640
44160W        W12565   1.988  20.941   3.385
44161W        W12566  26.717   5.693  13.119
44162W        W12567  24.224  36.342  13.974
44163W        W12568  19.095  22.694   1.212
44164W        W12569  26.760  39.936  12.859
44165W        W12570   9.639  14.526   0.291
44166W        W12571  15.184  32.521  10.827
44167W        W12572  22.046  33.912  12.453
44168W        W12573  25.930  15.111   3.913
44169W        W12574  40.640  39.729   3.784
44170W        W12575   6.267  16.132  12.170
44171W        W12576  30.669  35.550  13.884
44172W        W12577   9.323   0.315   0.536
44173W        W12578  18.828  24.166   0.862
44174W        W12579   9.482  27.658  11.456
44175W        W12580  37.308   5.427   4.604
44176W        W12581  13.676  39.420  13.061
44177W        W12582  13.295  26.489  11.408
44178W        W12583  13.900   9.745   2.209
44179W        W12584   3.349   2.990   1.888
44180W        W12585  22.628   6.960   1.051
44181W        W12586  31.881  34.209  12.842
44182W        W12587  35.908  43.553  13.245
44183W        W12588  25.471  43.259  11.615
44184W        W12589  28.965  14.331  13.039
44185W        W12590  23.425  31.372  12.040
44186W        W12591  28.043  25.164   5.026
44187W        W12592   8.138  28.983   1.212
44188W        W12593  35.837  22.030   3.579
44189W        W12594  29.380   0.756  11.497
44190W        W12595  41.754  23.433   2.345
44191W        W12596   1.803   3.727  10.251
44192W        W12597  21.769  35.324   2.434
44193W        W12598  24.122  21.785   4.829
44194W        W12599  29.790  12.473  11.636
44195W        W12600   7.744  14.854  13.584
44196W        W12601  36.396  42.972   0.349
44197W        W12602  22.493  18.000   3.747
44198W        W12603  30.278  43.348  12.219
44199W        W12604  22.219   6.292   4.668
44200W        W12605  17.224  38.434   2.946
44201W        W12606   4.328  40.459  11.795
44202W        W12607  34.547  14.063  12.025
44203W        W12608  14.392  12.310  14.427
44204W        W12609   5.985   3.157   2.669
44205W        W12610  14.250  20.599  14.373
44206W        W12611  19.536   0.396  13.574
44207W        W12612  15.822  38.989   3.250
44208W        W12613   9.664  20.548   2.122
44209W        W12614  37.081  28.010  14.409
44210W        W12615   9.893  16.283   0.832
44211W        W12616  30.980   0.776   3.655
44212W        W12617  11.634  17.597   2.185
44213W        W12618  43.415  10.271   3.652
44214W        W12619  28.123  18.034  13.036
44215W        W12620  41.887   8.630  13.337
44216W        W12621  25.616   8.243   3.145
44217W        W12622   3.879  12.353   0.524
44218W        W12623  40.566  18.782   4.144
44219W        W12624  43.902  38.867  14.350
44220W        W12625  38.292  39.379  12.916
44221W        W12626  26.917   2.175   0.845
44222W        W12627  25.061   1.616   1.235
44223W        W12628  29.690  12.463   5.017
44224W        W12629  29.028  15.705  10.725
44225W        W12630   0.972  37.322   1.806
44226W        W12631   8.094  31.462  13.215
44227W        W12632   2.989  37.465  11.678
44228W        W12633  40.914  28.577   4.549
44229W        W12634  41.099   5.231  12.973
44230W        W12635  21.611  44.210   3.534
44231W        W12636   8.087  19.821  12.059
44232W        W12637   2.655  35.410   0.966
44233W        W12638  14.072  33.845   2.398
44234W        W12639   2.961  38.970   3.877
44235W        W12640  11.349  17.736   4.195
44236W        W12641   8.896  44.464   4.644
44237W        W12642  18.101  23.586  13.737
44238W        W12643  16.804  27.563  12.037
44239W        W12644  33.134  27.749   4.410
44240W        W12645  10.445  40.102   0.400
44241W        W12646   1.914  13.840  12.590
44242W        W12647  29.481  39.839   0.160
44243W        W12648   7.392  25.732  11.925
44244W        W12649   7.516  25.214   1.274
44245W        W12650  18.768  23.673   1.223
44246W        W12651   6.131  25.721  11.655
44247W        W12652  14.748  43.247  11.852
44248W        W12653  24.090  17.497  13.361
44249W        W12654  35.625   5.935   0.840
44250W        W12655   2.502  39.834   0.808
44251W        W12656  19.854  14.078   3.646
44252W        W12657  25.715  43.540  14.512
44253W        W12658  38.939   8.808   1.788
44254W        W12659  18.843  40.391   2.341
44255W        W12660  13.809  30.763  14.457
44256W        W12661  44.622  25.331  13.586
44257W        W12662  34.589  22.428  11.095
44258W        W12663  40.838  23.575  12.506
44259W        W12664   8.701  32.551   2.790
44260W        W12665   7.213   1.364  13.699
44261W        W12666  41.046  30.897  13.966
44262W        W12667  12.681  13.955   3.712
44263W        W12668  23.066  24.773  12.321
44264W        W12669  19.025  33.059   0.982
44265W        W12670  16.779  23.866  11.282
44266W        W12671  35.286  26.495  11.674
44267W        W12672   4.737  15.112  12.749
44268W        W12673  24.624   7.755   2.196
44269W        W12674  31.150  16.155   1.466
44270W        W12675  22.086  18.322  12.185
44271W        W12676  44.343   0.840  10.783
44272W        W12677  28.632   4.296   1.173
44273W        W12678  21.764   8.749   0.257
44274W        W12679  44.867  34.940  14.921
44275W        W12680  13.766  17.206  13.293
44276W        W12681  43.142   2.237   3.451
44277W        W12682   0.762  42.298   0.816
44278W        W12683   0.736   8.957  10.892
44279W        W12684  25.143   1.889   3.246
44280W        W12685  40.404   8.643   0.861
44281W        W12686  41.810  35.516  12.356
44282W        W12687  22.285  24.577   3.627
44283W        W12688   2.324  15.183  13.502
44284W        W12689   5.258   7.280   1.355
44285W        W12690  27.093   2.251   3.095
44286W        W12691  15.331  13.305   0.261
44287W        W12692  21.618  39.426   4.606
44288W        W12693  33.195  27.227   1.811
44289W        W12694  15.005   5.562   1.335
44290W        W12695   4.205  27.114   4.599
44291W        W12696   4.690   5.447  11.558
44292W        W12697  11.407  32.435  12.386
44293W        W12698  22.786  42.497   1.465
44294W        W12699  28.090  28.021   1.303
44295W        W12700  33.848  22.224   4.237
44296W        W12701  23.126  41.450   0.040
44297W        W12702   2.189  21.256   2.894
44298W        W12703  16.605   1.472  11.654
44299W        W12704  10.823  34.591  10.712
44300W        W12705   3.438  22.953   1.835
44301W        W12706  40.271  11.826   1.396
44302W        W12707  32.502   3.523   1.355
44303W        W12708  35.308  17.080   0.367
44304W        W12709  38.384   7.956   0.938
44305W        W12710   4.694  34.590   4.471
44306W        W12711  22.550  32.883   0.822
44307W        W12712   3.860  39.990   4.161
44308W        W12713  19.149  18.784   3.901
44309W        W12714  15.851   8.670   2.029
44310W        W12715   3.702  13.261   4.136
44311W        W12716   4.690  40.003   2.324
44312W        W12717  36.403  35.807   2.726
44313W        W12718  23.968  20.294  12.857
44314W        W12719  31.917  37.040   2.298
44315W        W12720  22.940   2.366  14.894
44316W        W12721  23.689  16.198   2.994
44317W        W12722   5.396  39.522   3.727
44318W        W12723  34.132   9.110  11.183
44319W        W12724  18.813   8.348   2.289
44320W        W12725  11.592  10.309  12.321
44321W        W12726  28.958  20.797   4.760
44322W        W12727   1.264  35.135   1.136
44323W        W12728  14.414  28.378   2.888
44324W        W12729   2.790   2.811   3.062
44325W        W12730  30.569   7.159  13.512
44326W        W12731  44.507  22.162   3.601
44327W        W12732   2.413  23.522   3.184
44328W        W12733  32.840  34.910   3.919
44329W        W12734   1.237   8.724  11.075
44330W        W12735  29.665  34.669   2.467
44331W        W12736  35.378  38.656  14.870
44332W        W12737   5.760   1.911   1.402
44333W        W12738  11.806   4.195   3.703
44334W        W12739  13.017  36.137   1.741
44335W        W12740  14.824  11.849  11.664
44336W        W12741  18.204  35.898  12.499
44337W        W12742  40.116  20.050  11.141
44338W        W12743  42.974  28.562   0.087
44339W        W12744  44.695  24.347   1.716
44340W        W12745  30.826   7.944  11.996
44341W        W12746  14.719  30.183  11.669
44342W        W12747  23.114  12.283  14.072
44343W        W12748  13.101  17.097  14.011
44344W        W12749  20.540  16.177  14.458
44345W        W12750  15.076  32.757  12.495
44346W        W12751  41.837   8.439   0.973
44347W        W12752  29.139   0.357   0.774
44348W        W12753  22.473  27.004  13.092
44349W        W12754  20.596  14.061   0.780
44350W        W12755   0.007   5.236  13.865
44351W        W12756  17.524  26.932  12.914
44352W        W12757  25.008  29.100  11.181
44353W        W12758  13.600  19.538   2.703
44354W        W12759  40.252  41.800  12.025
44355W        W12760  30.701  28.580  13.417
44356W        W12761  28.165   4.632  11.032
44357W        W12762  39.636  32.077  13.520
44358W        W12763   3.927  11.274  12.141
44359W        W12764  17.386  28.441  12.386
44360W        W12765  44.000   5.025   4.451
44361W        W12766  28.948  35.793  14.753
44362W        W12767  11.772  29.430  10.930
44363W        W12768  24.531  44.396   1.779
44364W        W12769   0.819  14.362  13.368
44365W        W12770  35.836  12.946  11.166
44366W        W12771  30.655  41.524  11.559
44367W        W12772   3.908  24.113  12.723
44368W        W12773  35.537  13.122  14.958
44369W        W12774  36.346  11.794  14.456
44370W        W12775  19.105   9.112  13.395
44371W        W12776  28.414  43.879   3.808
44372W        W12777   0.724  11.140  13.561
44373W        W12778  42.083  44.481   2.686
44374W        W12779  17.572   7.833  11.545
44375W        W12780  28.064   0.935   4.150
44376W        W12781  24.718   4.334  11.540
44377W        W12782  11.106  18.618  13.407
44378W        W12783  41.312  22.151  11.054
44379W        W12784  25.480  28.491  12.358
44380W        W12785  11.720  26.470   4.942
44381W        W12786  10.820  41.267  14.482
44382W        W12787  16.614  16.941   4.779
44383W        W12788  42.017  40.974   2.646
44384W        W12789   5.372  28.084  10.302
44385W        W12790  39.271  10.454  14.459
44386W        W12791  39.013  23.575   4.660
44387W        W12792  12.298  32.562  12.065
44388W        W12793  16.626   9.608  14.882
44389W        W12794  44.089  44.962   4.207
44390W        W12795   6.881  32.085   3.581
44391W        W12796  16.308  38.976  14.330
44392W        W12797  39.962  38.534  11.067
44393W        W12798  43.463  31.171   4.234
44394W        W12799  23.012  21.499  11.803
44395W        W12800   8.179  14.060  14.795
44396W        W12801  16.766  23.047   0.217
44397W        W12802   8.583  13.583  13.897
44398W        W12803   3.439  17.319  11.655
44399W        W12804  29.793  24.587   0.166
44400W        W12805  32.924   1.066  11.483
44401W        W12806  17.674  34.817  11.482
44402W        W12807   5.486  14.452   0.775
44403W        W12808  19.985  18.590   0.338
44404W        W12809   0.961   0.808  11.010
44405W        W12810  39.542  39.850   0.907
44406W        W12811  26.723  41.964   1.364
44407W        W12812   9.887   8.902   0.669
44408W        W12813  25.047  11.293  13.018
44409W        W12814  19.057  43.914   0.047
44410W        W12815  28.002  16.530  11.413
44411W        W12816  21.667  22.194  11.663
44412W        W12817  22.258  10.160  12.901
44413W        W12818  38.788  19.107   2.328
44414W        W12819  13.599  16.648   0.346
44415W        W12820  40.578   7.821  10.536
44416W        W12821   6.267  22.845   4.015
44417W        W12822   4.982  14.333  10.651
44418W        W12823   1.643  17.112  11.593
44419W        W12824  28.333  40.286  13.858
44420W        W12825  18.567  38.256  13.882
44421W        W12826  21.992   3.245  11.648
44422W        W12827  25.257  30.556  14.996
44423W        W12828   1.991  29.317  12.218
44424W        W12829   1.816  41.060   4.907
44425W        W12830  11.781   8.919   2.096
44426W        W12831  39.451  26.165   1.033
44427W        W12832  28.530  26.391  10.394
44428W        W12833  32.692   6.756  14.787
44429W        W12834  40.044  15.068  11.928
44430W        W12835  16.254  26.517   2.380
44431W        W12836  39.561  37.931  10.572
44432W        W12837  25.687  24.708   2.963
44433W        W12838  26.864   7.277  11.237
44434W        W12839  20.175  43.360   1.521
44435W        W12840  20.002  36.054   1.052
44436W        W12841   9.340   5.501   4.550
44437W        W12842   1.054   3.801  13.062
44438W        W12843  22.595  27.714  11.451
44439W        W12844   9.620  35.920   1.255
44440W        W12845  32.912  36.488  14.788
44441W        W12846  35.850  36.525   0.178
44442W        W12847  37.468  37.030   2.956
44443W        W12848  17.102   0.913   4.937
44444W        W12849  27.091  40.137   2.243
44445W        W12850  19.184  18.690   4.414
44446W        W12851  23.721  20.101  13.318
44447W        W12852  17.206   3.489   0.020
44448W        W12853   4.832  18.835  10.712
44449W        W12854  35.840  28.103   3.235
44450W        W12855   1.689  21.071   2.951
44451W        W12856  26.624  23.219  10.002
44452W        W12857  17.019  15.125   4.861
44453W        W12858  43.348  15.983   0.513
44454W        W12859  44.799  40.583   2.684
44455W        W12860  18.050  37.976  14.475
44456W        W12861  12.059  25.108  13.835
44457W        W12862  42.330  11.783  12.892
44458W        W12863  20.859   6.306  14.209
44459W        W12864  44.723  15.576  13.716
44460W        W12865  24.989  17.727  10.907
44461W        W12866   1.263  34.881  11.882
44462W        W12867   3.247  40.961  14.335
44463W        W12868   4.658  44.045  12.438
44464W        W12869  27.363  42.090   4.899
44465W        W12870  41.325  43.892   0.645
44466W        W12871  14.884  15.323   0.695
44467W        W12872  28.418   7.169   3.792
44468W        W12873   3.706  30.272   2.731
44469W        W12874  43.007  18.232  14.836
44470W        W12875  41.093   9.838  10.801
44471W        W12876   1.282  26.444   0.898
44472W        W12877   3.211  33.519   3.771
44473W        W12878  20.185  13.161   4.631
44474W        W12879  30.549   6.734   0.156
44475W        W12880  30.928  40.474   3.113
44476W        W12881  34.651   0.992  12.980
44477W        W12882  39.027  27.515   4.559
44478W        W12883  33.784   2.881   0.720
44479W        W12884  41.327  10.618  12.402
44480W        W12885  34.055  25.895  12.200
44481W        W12886  38.588  17.526  13.680
44482W        W12887  37.119   6.526   0.995
44483W        W12888  37.687   7.405  11.109
44484W        W12889  13.845   8.636   0.870
44485W        W12890   5.372  19.527  14.774
44486W        W12891   6.494  19.818   4.369
44487W        W12892  23.225  29.907   1.735
44488W        W12893   9.441   2.270   2.180
44489W        W12894  22.934  30.972   2.918
44490W        W12895  34.468  17.565   3.709
44491W        W12896  27.066  10.184   0.468
44492W        W12897  21.221  30.915  13.523
44493W        W12898  20.624  33.097  12.094
44494W        W12899  16.819  35.853   1.480
44495W        W12900   7.985  39.786  12.069
44496W        W12901   1.761   9.350   3.245
44497W        W12902  11.176  15.079  12.488
44498W        W12903  30.925   0.291  14.203
44499W        W12904   0.090  20.079  13.259
44500W        W12905  26.101  40.294   3.344
44501W        W12906  30.634  31.856  14.040
44502W        W12907  26.109  18.108  13.800
44503W        W12908  25.368  13.885  13.444
44504W        W12909  37.649  11.625   1.195
44505W        W12910  17.520  34.380  11.263
44506W        W12911   1.417   9.519  14.902
44507W        W12912  14.683   0.023  10.642
44508W        W12913  23.792  15.233   0.968
44509W        W12914  38.459  36.818   1.923
44510W        W12915  33.413   0.497  10.839
44511W        W12916   1.829   7.636   0.705
44512W        W12917  44.454  32.938   4.254
44513W        W12918   5.545  42.423   4.971
44514W        W12919  44.725  28.834   1.265
44515W        W12920  35.757  39.985  12.749
44516W        W12921  41.728  37.875  12.058
44517W        W12922  30.764  17.318  11.939
44518W        W12923  22.382  26.709  11.623
44519W        W12924  16.016   8.229   2.309
44520W        W12925  30.234  12.843  13.021
44521W        W12926  13.423  17.958   1.435
44522W        W12927   5.277   1.697  12.546
44523W        W12928   4.437  40.024  12.528
44524W        W12929  37.609  35.799   4.196
44525W        W12930   6.419  44.067   2.943
44526W        W12931  23.111  23.749  12.573
44527W        W12932   7.164  41.544   2.171
44528W        W12933  14.492   3.819   1.799
44529W        W12934   6.186  15.026  12.913
44530W        W12935  14.816  41.112   2.766
44531W        W12936  43.417  26.920   0.026
44532W        W12937  36.513  43.364   1.298
44533W        W12938  10.910  41.998   0.337
44534W        W12939  17.096  10.077   4.853
44535W        W12940   8.872  41.517  14.402
44536W        W12941   2.494  34.169  13.868
44537W        W12942  26.628   6.603   2.384
44538W        W12943  30.458   6.291  13.231
44539W        W12944  11.201  39.360   3.337
44540W        W12945  19.133  30.555   3.644
44541W        W12946   0.421   5.917   4.406
44542W        W12947  27.525  18.401   3.388
44543W        W12948  36.403   9.222   2.643
44544W        W12949  34.318  20.694   0.773
44545W        W12950  43.949  20.277   3.267
44546W        W12951  18.049  23.810  10.811
44547W        W12952  34.480  41.384   3.743
44548W        W12953  34.970   1.206  13.952
44549W        W12954  36.904  31.890  13.848
44550W        W12955  25.002  18.642   0.927
44551W        W12956  15.209   0.832   1.356
44552W        W12957  36.398  12.101   0.775
44553W        W12958  27.244  38.965  10.888
44554W        W12959   0.542  20.064  10.960
44555W        W12960   7.297  17.223  14.299
44556W        W12961  44.012  33.854  14.155
44557W        W12962  18.560  36.974  14.058
44558W        W12963   8.947  27.524  14.063
44559W        W12964  18.128  33.445   1.798
44560W        W12965   8.462  32.453  11.510
44561W        W12966  22.716  26.451  10.795
44562W        W12967   9.930  23.471   5.073
44563W        W12968  15.041  23.113   2.832
44564W        W12969   9.676   9.884   0.743
44565W        W12970  19.247  16.134  13.779
44566W        W12971  28.552  43.444   2.695
44567W        W12972  29.013  32.140   2.722
44568W        W12973  12.345  35.307   0.422
44569W        W12974  20.111  20.164   1.806
44570W        W12975  39.566  31.949  11.939
44571W        W12976  24.745  35.309   4.290
44572W        W12977   8.617  10.360   0.833
44573W        W12978   4.339  27.983   1.308
44574W        W12979  26.085  12.943   0.477
44575W        W12980  25.852  23.043   3.710
44576W        W12981  28.591   8.919  11.056
44577W        W12982  21.519  27.490  14.560
44578W        W12983  35.923  30.555   1.430
44579W        W12984  10.303   5.950   1.814
44580W        W12985  20.277  37.685   5.042
44581W        W12986   0.720   4.428  12.641
44582W        W12987   3.715  34.285  12.107
44583W        W12988  17.211   9.794  12.090
44584W        W12989  27.416  19.621   4.873
44585W        W12990  14.749   9.568   2.112
44586W        W12991  15.317  13.216  12.195
44587W        W12992  10.357  38.080  14.433
44588W        W12993   8.337   7.371   3.897
44589W        W12994  30.610  14.865  11.880
44590W        W12995  20.204  41.435   0.546
44591W        W12996   7.663  30.156  14.288
44592W        W12997   1.855   1.719  10.686
44593W        W12998  15.292   8.219   1.833
44594W        W12999  41.980  11.098   3.737
44595W        W13000  10.190  42.430  13.004
44596W        W13001  21.198  41.200  12.766
44597W        W13002   4.658   6.470  13.838
44598W        W13003  21.135  33.343  14.860
44599W        W13004  28.653  40.089   0.308
44600W        W13005   3.014  14.166   3.548
44601W        W13006  19.719  44.743   1.709
44602W        W13007  32.625  28.991  14.342
44603W        W13008  41.580   0.550  12.075
44604W        W13009   4.744   6.398  12.876
44605W        W13010  17.276  37.331  10.845
44606W        W13011  31.515  20.076  14.482
44607W        W13012   5.849   5.360  14.774
44608W        W13013  20.178  37.432   3.758
44609W        W13014   5.199  32.495   2.264
44610W        W13015  39.990   5.796   2.314
44611W        W13016  43.381   9.475  14.132
44612W        W13017  10.813  10.213  10.614
44613W        W13018  21.227   4.739   4.079
44614W        W13019  29.899  42.218  14.714
44615W        W13020  38.127  40.557  12.419
44616W        W13021  25.009   8.947  12.426
44617W        W13022  38.490   4.312   4.079
44618W        W13023  13.109  34.660   1.873
44619W        W13024   2.109  21.081   4.225
44620W        W13025  34.277  11.722  11.598
44621W        W13026  32.960  20.053   1.456
44622W        W13027   3.681  15.187  11.100
44623W        W13028  31.434  10.680  13.372
44624W        W13029   9.779   1.724   1.947
44625W        W13030   7.310  39.872   1.367
44626W        W13031  30.880  15.703   0.223
44627W        W13032  13.313  31.228   3.071
44628W        W13033  28.923  25.197  11.621
44629W        W13034  34.412  44.535   1.537
44630W        W13035  17.401  38.738  11.131
44631W        W13036  41.504   3.719   4.507
44632W        W13037   6.277   6.773   4.311
44633W        W13038  17.256   8.405  13.134
44634W        W13039  39.332  39.287  12.120
44635W        W13040  32.288  39.849  13.329
44636W        W13041  21.492   6.327   4.353
44637W        W13042  19.855  10.479  11.948
44638W        W13043  10.406  43.785  10.719
44639W        W13044  43.194   8.786  13.391
44640W        W13045  12.023  19.633   1.869
44641W        W13046  34.992   7.848   1.768
44642W        W13047  16.377  12.259  12.109
44643W        W13048   9.596   1.446   4.321
44644W        W13049  30.665  15.810   2.296
44645W        W13050  19.012   7.216  13.233
44646W        W13051  12.640  23.484   4.559
44647W        W13052   6.389  16.476   0.901
44648W        W13053  10.095  29.992  11.453
44649W        W13054   1.582  23.132  12.477
44650W        W13055  13.146  27.738  12.994
44651W        W13056   0.352  43.961  12.943
44652W        W13057  38.375   0.170  13.325
44653W        W13058  26.081   9.631  13.510
44654W        W13059  33.450  17.248  12.087
44655W        W13060  11.104  30.372   2.878
44656W        W13061  23.792   9.692   3.156
44657W        W13062   6.385  26.327   5.039
44658W        W13063   2.285  11.829  14.952
44659W        W13064  39.028  22.612   1.475
44660W        W13065  29.038  28.445   2.139
44661W        W13066  39.921  41.497  10.687
44662W        W13067  10.249  31.817  14.486
44663W        W13068   2.134  11.253  11.598
44664W        W13069  29.109  18.517  13.411
44665W        W13070  42.875  23.117  13.097
44666W        W13071  37.313  39.860   0.897
44667W        W13072  23.743  17.326   0.728
44668W        W13073  42.309  27.504   0.955
44669W        W13074  28.612  42.508  10.597
44670W        W13075   7.894  29.124  11.734
44671W        W13076  39.947  25.233  12.911
44672W        W13077   9.576  25.513   3.873
44673W        W13078  26.305  27.975   0.421
44674W        W13079  11.283  40.545   4.126
44675W        W13080   7.711  42.054   1.438
44676W        W13081  15.772   9.906   0.787
44677W        W13082  16.454  37.993   3.891
44678W        W13083  23.251  24.696   4.538
44679W        W13084  16.323  36.082   2.358
44680W        W13085  34.379  32.572   4.184
44681W        W13086  40.396  19.747  11.463
44682W        W13087   6.379  24.038   1.372
44683W        W13088  32.220  35.272  14.837
44684W        W13089   9.569  33.369  13.025
44685W        W13090   9.880   8.296   2.708
44686W        W13091  16.808  33.612   1.375
44687W        W13092  10.318  37.105   1.646
44688W        W13093  11.175   6.597  14.519
44689W        W13094  44.169   2.055  13.245
44690W        W13095  23.197  22.663   4.563
44691W        W13096  26.935  42.381   5.010
44692W        W13097  37.655  26.272   1.388
44693W        W13098  21.138  28.232  13.974
44694W        W13099  12.118  40.896   4.127
44695W        W13100  12.764   8.892  11.128
44696W        W13101   6.741   4.471   3.795
44697W        W13102  28.271  42.225  12.846
44698W        W13103  36.046  36.932  10.680
44699W        W13104  31.113  18.711  11.464
44700W        W13105   3.475  21.034   0.839
44701W        W13106  27.579  13.708  13.156
44702W        W13107  34.167  19.235   2.865
44703W        W13108  41.451  29.722  13.900
44704W        W13109   5.145   3.239   3.942
44705W        W13110  42.876  25.919  13.444
44706W        W13111  10.867  36.805  13.367
44707W        W13112  42.405  15.520   0.360
44708W        W13113  42.393  28.109   3.873
44709W        W13114  17.694  12.487  11.945
44710W        W13115   8.741  28.612   2.925
44711W        W13116  11.412   1.314   3.730
44712W        W13117  30.514  22.091  11.273
44713W        W13118  24.592  28.499   4.523
44714W        W13119  37.007  20.742   0.674
44715W        W13120  41.841  16.131   2.984
44716W        W13121  34.968  36.987   2.392
44717W        W13122  27.988  28.064   4.505
44718W        W13123  20.625  43.441   2.275
44719W        W13124  19.114  37.092  13.456
44720W        W13125  34.956  31.342   1.991
44721W        W13126  43.499  40.319  12.902
44722W        W13127  24.769  29.154   0.397
44723W        W13128  13.280  35.477  13.969
44724W        W13129  26.087  17.527   2.193
44725W        W13130  14.826   5.579  12.678
44726W        W13131  12.082  44.489  11.111
44727W        W13132  35.062  42.993   2.699
44728W        W13133  25.090  39.796   5.044
44729W        W13134  35.051  43.899  11.229
44730W        W13135  23.280   9.932   0.813
44731W        W13136   7.431  24.951  11.037
44732W        W13137  17.679  18.467   1.362
44733W        W13138  38.741  30.066   4.464
44734W        W13139   9.460  18.020  11.043
44735W        W13140  28.178  17.150   0.361
44736W        W13141   2.770  10.212  10.943
44737W        W13142  42.702  13.332  10.728
44738W        W13143  23.585   1.885   3.837
44739W        W13144  15.606   3.054   0.240
44740W        W13145  29.848  17.831   1.777
44741W        W13146  38.134  32.775  11.109
44742W        W13147  19.833  17.785   3.326
44743W        W13148  12.242  21.084   3.736
44744W        W13149  23.703   0.918  13.566
44745W        W13150  29.553   0.473  12.217
44746W        W13151  27.143  14.538   4.820
44747W        W13152  39.057  33.027   4.593
44748W        W13153  40.984  22.252   2.219
44749W        W13154  40.778  21.801  14.390
44750W        W13155  26.551  16.083   4.546
44751W        W13156  11.762  19.227  10.729
44752W        W13157  15.306   7.736  12.273
44753W        W13158  34.788  41.530   2.771
44754W        W13159  11.919  39.519  11.923
44755W        W13160   2.437  17.045   1.315
44756W        W13161   6.360  23.451   5.083
44757W        W13162  17.546   6.444  13.855
44758W        W13163   3.810  19.295  12.073
44759W        W13164  15.240  10.416  13.882
44760W        W13165   3.136  43.831   0.942
44761W        W13166  32.438  12.472  13.333
44762W        W13167   9.400   3.233  14.024
44763W        W13168   1.959  31.397  12.542
44764W        W13169  14.278  44.130   2.446
44765W        W13170  40.933   4.959  11.517
44766W        W13171  34.418  27.755   4.311
44767W        W13172  19.410  22.553   4.942
44768W        W13173  31.075  16.201  11.559
44769W        W13174  16.261  16.412   0.248
44770W        W13175  18.786  39.281   1.427
44771W        W13176  32.130  11.237   3.910
44772W        W13177   4.419  27.226  14.332
44773W        W13178  25.743  36.668   1.312
44774W        W13179  29.973  19.120  10.309
44775W        W13180  13.330  33.107  13.773
44776W        W13181  18.022  35.997   3.617
44777W        W13182   5.313  32.968   3.656
44778W        W13183  25.225  15.749  13.958
44779W        W13184  40.558   5.479  12.419
44780W        W13185  27.687  28.736   4.087
44781W        W13186  43.880  32.434  14.767
44782W        W13187  32.401  38.864  13.453
44783W        W13188   1.372  38.509  11.030
44784W        W13189  16.459  14.287  11.624
44785W        W13190   6.306  12.203   1.446
44786W        W13191   7.784  11.195  14.208
44787W        W13192  27.505  20.633   0.960
44788W        W13193  26.926  33.652  12.909
44789W        W13194  37.345  30.463  12.149
44790W        W13195  37.285  15.098   1.310
44791W        W13196  14.936   7.801  11.924
44792W        W13197  33.936  33.459   0.950
44793W        W13198  13.526  28.889   0.002
44794W        W13199  16.230  35.143   5.008
44795W        W13200  33.479  11.113   3.762
44796W        W13201  24.201  38.850   1.265
44797W        W13202  38.356  16.838   0.331
44798W        W13203   6.256  26.887   2.214
44799W        W13204   9.724  22.207  12.929
44800W        W13205   7.836  38.527  13.805
44801W        W13206   0.899  36.307   2.675
44802W        W13207   1.421  16.071   2.252
44803W        W13208  35.800   5.446   0.544
44804W        W13209   1.310  39.123  12.075
44805W        W13210  37.950  17.956   3.531
44806W        W13211  25.623   1.919  14.983
44807W        W13212   5.796  43.818   2.287
44808W        W13213  41.478  19.614  14.256
44809W        W13214  41.540  12.106   2.412
44810W        W13215   3.855  36.904   1.500
44811W        W13216   4.373  34.415  10.440
44812W        W13217  38.728   7.801  12.279
44813W        W13218  24.193  30.628   2.224
44814W        W13219  30.457  39.771   3.301
44815W        W13220  26.106  31.391   3.663
44816W        W13221  18.689  10.755  14.514
44817W        W13222  40.066  17.547  12.494
44818W        W13223  14.938  34.851   1.596
44819W        W13224   0.535   0.494  11.116
44820W        W13225  32.893  39.135   0.783
44821W        W13226  38.746   2.280   4.258
44822W        W13227  20.187  41.241  13.095
44823W        W13228  23.758  30.424   4.328
44824W        W13229  36.399  11.622   4.077
44825W        W13230  13.940  38.860  14.028
44826W        W13231   7.063  44.372   4.665
44827W        W13232  28.992   5.213  11.207
44828W        W13233  20.927  33.228   1.504
44829W        W13234  38.540  28.981   1.210
44830W        W13235  33.237  33.880   4.018
44831W        W13236  13.800   6.202   3.205
44832W        W13237  18.905  14.842   0.701
44833W        W13238  28.550   2.985   2.151
44834W        W13239  14.304  39.160   1.826
44835W        W13240   9.503  39.357   2.951
44836W        W13241  12.043  18.053  13.990
44837W        W13242  33.103  23.791  14.338
44838W        W13243  15.022  15.162   4.762
44839W        W13244  10.150   9.299  12.062
44840W        W13245  13.217  13.775   1.692
44841W        W13246  36.048  29.416  10.584
44842W        W13247   4.975   7.222   5.331
44843W        W13248  34.424  25.725   0.865
44844W        W13249  36.469  18.352   2.946
44845W        W13250  16.712   2.774  14.921
44846W        W13251  22.459  40.750   3.622
44847W        W13252  42.474  16.892  11.970
44848W        W13253   7.461   2.450   3.121
44849W        W13254  32.841  41.090  13.454
44850W        W13255  37.719  36.104  10.083
44851W        W13256  19.694  14.379   4.615
44852W        W13257  33.453  15.782  14.924
44853W        W13258  39.047  43.362  13.787
44854W        W13259   5.298  29.512   1.178
44855W        W13260  30.681  14.677   2.830
44856W        W13261  41.591   7.904   4.525
44857W        W13262   0.134  36.781  11.548
44858W        W13263  39.502  13.529   1.893
44859W        W13264  42.439  41.911   3.473
44860W        W13265  19.787  32.445   4.449
44861W        W13266  43.014  36.627  12.541
44862W        W13267  11.136  19.636   2.760
44863W        W13268  37.900   5.367   1.385
44864W        W13269   9.734  41.083   3.754
44865W        W13270  42.543  12.104  13.827
44866W        W13271  25.927  28.002   1.725
44867W        W13272   7.271   7.363   2.845
44868W        W13273   3.681  10.802  10.950
44869W        W13274  41.006   2.266   1.403
44870W        W13275  25.194  17.088   2.397
44871W        W13276  27.682  25.042  11.387
44872W        W13277  27.718  32.315   4.490
44873W        W13278  11.221  14.358  11.351
44874W        W13279  18.181  31.607   9.791
44875W        W13280  17.386  10.772  14.212
44876W        W13281   3.895  42.135  14.531
44877W        W13282  26.807  29.178  11.124
44878W        W13283  11.086  25.687  14.507
44879W        W13284  41.522  30.749  14.114
44880W        W13285  10.846  32.619   4.856
44881W        W13286  17.630  12.078   3.865
44882W        W13287  42.004  21.121   0.305
44883W        W13288  15.208  36.861  10.673
44884W        W13289  31.163  36.964  14.756
44885W        W13290   8.133  36.632  13.429
44886W        W13291  10.879   3.513   4.640
44887W        W13292  24.685  16.850   1.362
44888W        W13293  39.325  15.213  14.309
44889W        W13294  25.249   0.911  14.832
44890W        W13295   8.896  30.992   3.108
44891W        W13296  38.061  15.622   1.448
44892W        W13297  33.153   8.248   2.182
44893W        W13298   9.474  13.962   0.090
44894W        W13299  43.907  37.998  12.225
44895W        W13300   6.592  33.346  13.529
44896W        W13301  22.187  18.475   2.740
44897W        W13302  13.234   0.431  14.503
44898W        W13303   8.671   2.760   2.225
44899W        W13304  10.604  25.494  13.558
44900W        W13305  34.462  44.711  12.485
44901W        W13306  31.431   3.549   1.928
44902W        W13307  22.278  20.092   1.450
44903W        W13308  28.158  39.959  12.911
44904W        W13309  41.052  23.896  14.312
44905W        W13310  40.150  31.221  11.018
44906W        W13311  36.054  13.075   0.015
44907W        W13312  33.881  18.600  10.559
44908W        W13313  12.243  26.470  13.403
44909W        W13314  10.360  19.126  11.276
44910W        W13315  39.158  12.174   0.878
44911W        W13316  24.232  39.412  10.733
44912W        W13317  19.267  11.591  11.610
44913W        W13318  12.979  25.085   1.630
44914W        W13319  28.204  32.566  11.085
44915W        W13320  42.017  12.768   1.826
44916W        W13321  29.590   4.817   0.249
44917W        W13322  33.097  27.397   3.997
44918W        W13323  24.810  16.855   0.559
44919W        W13324  37.575  29.633   3.675
44920W        W13325  36.288  22.360  13.249
44921W        W13326  38.939  31.363  10.739
44922W        W13327  43.509  12.715   1.003
44923W        W13328  21.266  31.074   3.654
44924W        W13329  23.103  42.127   2.302
44925W        W13330  31.655  32.805  11.237
44926W        W13331  36.401   1.025   2.710
44927W        W13332  30.611  14.172  14.510
44928W        W13333  38.859  44.492   3.146
44929W        W13334  32.421  26.079   2.362
44930W        W13335   8.207  24.575  10.981
44931W        W13336  19.471  21.556   1.223
44932W        W13337  22.455  17.870  11.227
44933W        W13338  29.241  41.354   2.311
44934W        W13339  34.146   3.956  14.873
44935W        W13340  15.723  25.959  12.875
44936W        W13341  24.980  27.193  11.264
44937W        W13342  37.416  25.859  13.182
44938W        W13343  40.058   6.360  13.339
44939W        W13344  43.353   7.198   2.681
44940W        W13345  26.942   2.803  10.742
44941W        W13346  38.043  12.323  11.195
44942W        W13347  36.576   5.424  14.969
44943W        W13348  12.032  15.803  14.646
44944W        W13349  11.285  30.083  11.893
44945W        W13350  12.152   6.824   2.423
44946W        W13351  37.015  26.028   4.095
44947W        W13352  13.366  27.303   0.475
44948W        W13353  28.600   4.901   3.800
44949W        W13354  12.752   7.922  13.337
44950W        W13355  18.299  41.429   0.784
44951W        W13356  33.023  37.031   4.177
44952W        W13357  26.592  43.545  13.372
44953W        W13358  32.440  17.753   3.566
44954W        W13359  16.918  42.581   9.932
44955W        W13360  16.482  30.298  14.843
44956W        W13361   4.115  18.125   4.213
44957W        W13362  40.182   7.099   0.639
44958W        W13363  31.981  12.658   1.280
44959W        W13364  36.675   8.173  11.918
44960W        W13365  25.264   4.347   3.864
44961W        W13366  39.056  30.300  12.567
44962W        W13367  29.988  21.518   3.055
44963W        W13368  39.341   0.762  14.872
44964W        W13369  29.888  22.056   0.868
44965W        W13370  15.842  37.894  11.325
44966W        W13371  19.738  44.212   4.226
44967W        W13372   0.078   7.813  13.912
44968W        W13373  12.970  13.642   3.190
44969W        W13374  25.843  28.930   0.817
44970W        W13375  37.223  34.826   4.216
44971W        W13376  29.024   1.615   1.337
44972W        W13377  40.321   3.669  13.393
44973W        W13378  33.503  21.569  10.651
44974W        W13379  30.902   1.019  14.966
44975W        W13380  12.207   7.308   4.906
44976W        W13381  19.838   8.185   4.572
44977W        W13382  30.005  12.187   4.710
44978W        W13383  28.517  11.700  14.063
44979W        W13384  17.021  14.525  12.383
44980W        W13385  43.764   4.766  13.196
44981W        W13386  41.473  17.807  12.172
44982W        W13387  44.375  16.404   4.175
44983W        W13388  43.460  38.645   0.038
44984W        W13389  40.916  43.278   3.226
44985W        W13390  36.433   7.810  14.323
44986W        W13391   2.413  21.452  12.561
44987W        W13392  21.899   9.216   2.336
44988W        W13393  33.374  38.411   1.283
44989W        W13394  24.176  23.712   3.170
44990W        W13395  33.330  36.493   3.684
44991W        W13396  36.045  27.188   2.258
44992W        W13397  36.347  21.031   2.751
44993W        W13398   0.711  21.702  11.389
44994W        W13399  23.148  26.802   2.605
44995W        W13400  30.322  10.206   2.792
44996W        W13401  18.667   3.751   3.894
44997W        W13402  11.191  29.061   0.019
44998W        W13403  27.739   0.322  12.912
44999W        W13404   0.763  43.521  11.637
45000W        W13405   8.183  35.426  10.716
45001W        W13406   1.071   9.831  10.572
45002W        W13407   7.282  44.264  12.978
45003W        W13408   3.681  11.764  11.434
45004W        W13409  36.603   0.366  14.139
45005W        W13410  30.482  34.118   0.734
45006W        W13411  39.547  23.982  10.576
45007W        W13412  19.802  19.662  12.876
45008W        W13413  40.134  39.954  12.076
45009W        W13414  20.771  11.467  11.944
45010W        W13415  29.361  44.708  12.985
45011W        W13416   5.881  19.617   2.068
45012W        W13417  26.080  21.511   2.212
45013W        W13418  27.191  28.530  10.615
45014W        W13419  26.887  16.568  12.667
45015W        W13420  22.298  32.851  11.326
45016W        W13421  10.134  35.864   3.712
45017W        W13422  18.132  35.021   4.001
45018W        W13423  20.146   2.918  12.471
45019W        W13424  31.373  35.934   1.659
45020W        W13425  39.298  32.405  10.995
45021W        W13426  31.574  14.758  12.985
45022W        W13427  30.009  32.992  11.082
45023W        W13428  27.864   7.858  11.297
45024W        W13429  24.685  33.100   2.891
45025W        W13430  43.518   9.948  14.351
45026W        W13431  11.946  13.812   3.578
45027W        W13432  19.586   8.432  14.327
45028W        W13433  39.690  43.545  10.410
45029W        W13434  40.657   7.188   3.544
45030W        W13435   2.291  37.908   4.533
45031W        W13436  36.987  39.480   3.692
45032W        W13437  13.554  13.448  12.733
45033W        W13438  23.181  20.825   2.917
45034W        W13439  22.721   7.366  10.996
45035W        W13440  24.724  13.318  11.605
45036W        W13441  21.109   6.205  13.422
45037W        W13442  31.391  42.495  14.027
45038W        W13443  28.915  12.494   0.261
45039W        W13444  39.409  14.783  10.716
45040W        W13445  30.933   3.233  14.108
45041W        W13446  34.958   7.688   3.619
45042W        W13447   3.503   8.888   0.444
45043W        W13448  19.219   5.940   3.840
45044W        W13449  17.686  29.078  14.494
45045W        W13450   9.368  20.677  13.486
45046W        W13451  13.278  19.430  12.049
45047W        W13452   6.370   6.379  11.576
45048W        W13453  19.602  32.937  13.339
45049W        W13454  35.599  27.110  12.157
45050W        W13455  42.394   4.953   1.414
45051W        W13456   9.738  17.823  13.128
45052W        W13457  16.283  32.974  11.564
45053W        W13458  24.735  37.357   2.320
45054W        W13459  34.513  30.075   3.418
45055W        W13460   7.729  20.443   1.718
45056W        W13461   5.520   7.896   2.855
45057W        W13462  10.970  22.057   0.854
45058W        W13463  28.574  18.038  10.237
45059W        W13464  37.094  13.709  14.434
45060W        W13465  11.563  42.783  13.397
45061W        W13466   9.739  16.076  11.583
45062W        W13467  38.190   1.403  10.650
45063W        W13468  29.761   6.837  13.580
45064W        W13469  13.599  10.904  13.545
45065W        W13470  15.103  12.415  12.472
45066W        W13471   6.397  26.048  13.041
45067W        W13472  12.399  42.236   2.717
45068W        W13473  31.278  44.807   2.229
45069W        W13474  41.439  30.888   3.815
45070W        W13475  28.468   9.886   4.632
45071W        W13476   3.909  34.793  13.105
45072W        W13477  18.289  38.032   0.932
45073W        W13478  12.859  24.106   0.030
45074W        W13479  13.360   3.161  13.907
45075W        W13480  35.330   5.490   0.740
45076W        W13481  37.107  33.189   0.711
45077W        W13482  31.555  40.983   2.183
45078W        W13483   0.532   8.089  13.796
45079W        W13484   7.709  13.881  11.542
45080W        W13485  36.007  44.910  13.140
45081W        W13486   2.680  33.462   0.658
45082W        W13487  38.811   2.734  12.019
45083W        W13488  36.441  32.550  13.839
45084W        W13489  32.486   2.768  11.393
45085W        W13490  16.369  13.623  11.488
45086W        W13491  44.914  17.116   4.122
45087W        W13492  16.381  12.262   4.482
45088W        W13493  38.166  23.502  13.612
45089W        W13494  25.734  22.829   1.353
45090W        W13495  36.028  36.788   1.400
45091W        W13496  24.237  10.765   3.353
45092W        W13497  11.326  41.868   3.271
45093W        W13498  16.999  30.197   4.784
45094W        W13499   3.574   5.309  14.385
45095W        W13500  29.811  33.035   1.146
45096W        W13501  33.852   8.821  11.521
45097W        W13502   6.152  17.668  12.552
45098W        W13503   4.405  42.573  13.927
45099W        W13504  35.578  15.554   1.247
45100W        W13505  41.324  16.035   3.344
45101W        W13506  42.810  19.661   4.986
45102W        W13507  34.046  39.909   3.700
45103W        W13508  20.516  38.845   1.331
45104W        W13509  42.639  28.929  11.989
45105W        W13510  10.060  34.463   3.818
45106W        W13511  33.882  32.162   0.396
45107W        W13512  23.429  11.501  11.174
45108W        W13513  19.616  15.034   2.886
45109W        W13514  18.486  32.015  13.433
45110W        W13515  14.282  27.463   2.703
45111W        W13516  44.221   4.737  11.540
45112W        W13517  13.020  33.443   1.332
45113W        W13518  17.964   9.658  11.637
45114W        W13519  25.919   3.199   2.225
45115W        W13520  41.262   3.134   3.333
45116W        W13521   8.431  11.789   0.761
45117W        W13522  14.048  10.727   4.236
45118W        W13523  12.928  43.899   0.719
45119W        W13524  23.073   6.277   2.672
45120W        W13525  27.518  22.296  14.522
45121W        W13526  20.526  36.031   2.843
45122W        W13527  33.427  22.434  14.336
45123W        W13528  27.243  35.364  12.191
45124W        W13529   0.319  26.739  13.013
45125W        W13530   2.961  28.566   2.358
45126W        W13531   3.900  39.435  11.992
45127W        W13532  44.759  39.124   2.679
45128W        W13533   4.671  33.775  10.209
45129W        W13534  22.998  33.093  12.011
45130W        W13535  43.756  15.690   0.714
45131W        W13536   0.490  16.565   0.900
45132W        W13537  33.920  42.215   1.400
45133W        W13538  12.694  27.052   3.748
45134W        W13539  10.162   2.437   2.747
45135W        W13540  17.194   3.240   2.295
45136W        W13541  28.991  26.657  10.378
45137W        W13542  42.119  39.494  14.055
45138W        W13543  44.774  19.530  10.492
45139W        W13544  17.515  35.998  14.330
45140W        W13545   8.765  13.413   3.934
45141W        W13546  14.940   2.805   4.027
45142W        W13547   2.870  34.941   0.024
45143W        W13548  25.988  12.251  14.769
45144W        W13549   3.737   0.389  10.503
45145W        W13550  17.232  39.383  14.510
45146W        W13551   3.823  24.258   0.678
45147W        W13552  20.188   8.834   5.231
45148W        W13553   9.885   9.421   0.713
45149W        W13554  19.052  21.311  14.891
45150W        W13555  22.498  31.479   0.919
45151W        W13556  19.678  34.174   0.528
45152W        W13557  20.319   8.165   4.742
45153W        W13558   7.966   7.135   2.314
45154W        W13559  29.013  10.438   0.513
45155W        W13560   7.757  38.874   3.638
45156W        W13561  22.513  10.153  14.070
45157W        W13562  31.925  43.599   3.271
45158W        W13563  33.337   8.676   1.980
45159W        W13564  38.623  40.910   2.054
45160W        W13565  43.594  12.164  10.749
45161W        W13566  22.542   0.549  14.430
45162W        W13567  30.194   4.481   1.702
45163W        W13568   3.026  40.734  11.081
45164W        W13569  44.476  18.601   0.404
45165W        W13570  33.200   2.725  12.879
45166W        W13571  23.059   4.167   2.141
45167W        W13572  21.172  28.471   3.601
45168W        W13573  40.242  35.067  14.467
45169W        W13574  22.203  23.953  12.445
45170W        W13575  20.648  44.908   1.701
45171W        W13576  28.381  24.054  11.216
45172W        W13577   2.858  16.078   3.718
45173W        W13578  40.534   8.598  12.846
45174W        W13579   6.807  31.633   1.800
45175W        W13580  16.035  19.895  12.928
45176W        W13581  43.407  43.796  10.854
45177W        W13582  39.356  34.879  13.101
45178W        W13583   1.712   8.953  14.167
45179W        W13584  27.407   0.820  13.486
45180W        W13585  38.927  18.617   2.971
45181W        W13586  44.468  33.092   1.286
45182W        W13587  18.594  43.215  11.053
45183W        W13588   4.980  40.574   4.204
45184W        W13589   4.788  23.336   2.411
45185W        W13590  37.444  24.515   4.755
45186W        W13591   3.249  15.815  13.325
45187W        W13592  40.683  33.436  12.308
45188W        W13593  29.859  14.689   0.418
45189W        W13594  43.007  19.168  10.972
45190W        W13595  38.865   0.792   0.930
45191W        W13596  30.804   6.462   4.157
45192W        W13597  10.794  29.934   0.882
45193W        W13598  32.643  36.944   2.851
45194W        W13599   6.296  12.382   3.816
45195W        W13600   9.609   4.380   4.428
45196W        W13601   0.538  36.437  12.990
45197W        W13602  20.054   0.313  11.082
45198W        W13603  10.852  35.495  10.606
45199W        W13604  19.636   0.739   0.816
45200W        W13605  33.831   0.560   0.468
45201W        W13606  34.641  26.422   3.638
45202W        W13607  32.868  40.134  12.699
45203W        W13608  34.834  21.323  10.322
45204W        W13609  38.895  26.234  12.371
45205W        W13610   8.638   6.439   0.903
45206W        W13611   9.367   5.945   3.704
45207W        W13612  22.769  14.533   0.044
45208W        W13613  25.398  16.628   1.769
45209W        W13614  23.088   8.392   3.377
45210W        W13615  27.827  44.460   2.808
45211W        W13616  18.637  13.709   3.580
45212W        W13617  14.615  43.078   2.808
45213W        W13618  11.624  22.514  12.957
45214W        W13619   1.849  26.236   3.183
45215W        W13620  25.204  28.921  13.157
45216W        W13621  37.607  30.620   1.448
45217W        W13622  10.679   7.840   2.426
45218W        W13623  27.553  38.088   3.228
45219W        W13624  43.919  11.768   2.364
45220W        W13625  42.684  44.740   2.650
45221W        W13626  44.973  21.655  12.078
45222W        W13627  13.657   8.203  11.976
45223W        W13628  32.080  43.049   2.087
45224W        W13629  13.245  41.467  12.919
45225W        W13630  24.229  36.104  11.188
45226W        W13631   1.515  28.475   4.053
45227W        W13632  42.286  30.537   1.116
45228W        W13633  20.830  26.912   1.380
45229W        W13634  35.012  22.178   2.906
45230W        W13635  18.549   9.333   4.113
45231W        W13636  30.045  35.640   2.711
45232W        W13637  44.784   4.356  12.627
45233W        W13638  42.500   7.246  10.378
45234W        W13639   5.775  14.086  12.859
45235W        W13640  18.056  34.711   3.574
45236W        W13641  38.807  30.607  12.940
45237W        W13642   2.020  33.001  11.544
45238W        W13643  10.759  35.943  12.909
45239W        W13644  28.845  36.445   0.807
45240W        W13645  15.094   2.396  11.658
45241W        W13646  10.256   5.738   2.414
45242W        W13647  22.539  36.218  12.609
45243W        W13648  35.866  44.254   1.402
45244W        W13649   7.944  10.400   3.746
45245W        W13650  16.859  28.963   1.408
45246W        W13651  32.111  23.281   0.486
45247W        W13652  41.302  36.463   1.939
45248W        W13653  40.717  19.130  13.234
45249W        W13654  39.300  18.457   1.581
45250W        W13655   1.714  34.976  14.455
45251W        W13656  36.449  22.034  13.947
45252W        W13657  30.569  37.308  11.671
45253W        W13658  26.083  17.659  10.816
45254W        W13659  41.925  30.913   1.312
45255W        W13660  37.931  14.882  13.883
45256W        W13661  13.051  13.235   2.891
45257W        W13662  27.508  32.502   0.384
45258W        W13663   8.505  28.633   1.297
45259W        W13664  39.652  40.622  13.936
45260W        W13665  31.014   4.936   0.918
45261W        W13666  24.129  35.259   1.563
45262W        W13667   0.087  38.867  11.331
45263W        W13668  35.891  31.442  11.570
45264W        W13669  20.815  38.076   1.899
45265W        W13670  20.983  38.119  12.169
45266W        W13671  10.084  21.649  14.220
45267W        W13672  12.352  35.987   0.720
45268W        W13673  24.949  37.359  13.608
45269W        W13674  39.071  10.687  13.326
45270W        W13675  37.267  11.848   4.176
45271W        W13676   2.144  20.973  12.520
45272W        W13677  14.285   2.675  13.846
45273W        W13678  20.377  37.015   4.552
45274W        W13679   9.619   9.351   4.929
45275W        W13680  36.047  19.118  11.350
45276W        W13681  27.684  35.353   1.597
45277W        W13682  29.075  10.858  11.737
45278W        W13683   9.753  10.282   4.630
45279W        W13684   7.961  38.863  12.537
45280W        W13685  31.104  26.085   0.159
45281W        W13686  37.900  13.531  12.022
45282W        W13687  20.291  27.109   2.293
45283W        W13688  27.073   3.017   4.242
45284W        W13689  38.837  34.641  10.664
45285W        W13690  25.372  10.123   3.665
45286W        W13691   5.127  38.053  11.649
45287W        W13692  34.016   8.878   1.333
45288W        W13693  23.171  13.821   4.218
45289W        W13694  10.555  44.880  12.566
45290W        W13695  40.619  40.685  14.582
45291W        W13696  25.758  18.416   3.719
45292W        W13697   9.830  33.013   1.704
45293W        W13698  42.965  30.341  14.555
45294W        W13699  29.476  24.549  13.863
45295W        W13700  44.010  40.039   0.211
45296W        W13701   6.892   3.181   1.926
45297W        W13702  19.248  17.843  12.408
45298W        W13703  23.110   2.385   1.902
45299W        W13704   0.861   0.411   2.354
45300W        W13705  38.866  40.882   4.712
45301W        W13706  32.967  29.446   2.836
45302W        W13707  32.183  37.607   3.162
45303W        W13708  20.330  42.532  12.036
45304W        W13709  40.512   7.234   1.003
45305W        W13710  15.315  11.430  12.901
45306W        W13711  39.372   9.397   3.216
45307W        W13712  22.944  31.205   0.953
45308W        W13713  19.733  19.517   0.493
45309W        W13714  27.350  28.870  13.003
45310W        W13715  42.403   6.725  13.304
45311W        W13716   6.392  43.698  12.853
45312W        W13717  31.545  15.089  11.976
45313W        W13718   4.335  28.634   0.302
45314W        W13719  36.479  18.022   0.537
45315W        W13720   7.808  43.742  14.896
45316W        W13721   2.682  38.599  12.577
45317W        W13722  42.976  38.971   1.410
45318W        W13723  24.015  33.189  11.761
45319W        W13724   7.794  18.202   1.900
45320W        W13725   8.938  41.010  14.428
45321W        W13726  27.654  12.843  10.378
45322W        W13727  39.938  22.174   4.585
45323W        W13728  25.547  26.451  11.196
45324W        W13729  20.577  27.585   2.404
45325W        W13730   8.531  19.486  11.615
45326W        W13731  17.169  42.927  11.364
45327W        W13732  12.471  15.066  10.148
45328W        W13733  41.065  41.835  14.412
45329W        W13734  10.585  14.506   3.846
45330W        W13735   3.478  32.581   3.118
45331W        W13736  18.832  20.011  13.380
45332W        W13737  35.933  35.545   2.731
45333W        W13738  21.540  10.847  12.923
45334W        W13739  44.407   7.320  13.480
45335W        W13740  30.337  14.838  10.884
45336W        W13741  36.991  27.483  13.240
45337W        W13742  30.614  44.460   2.706
45338W        W13743  40.476   3.664   4.033
45339W        W13744  26.671  43.256  14.779
45340W        W13745  23.956  29.497  12.942
45341W        W13746  40.058  19.818   2.164
45342W        W13747  39.140  14.392   4.245
45343W        W13748  28.840  21.118   0.241
45344W        W13749  19.200  39.782   0.461
45345W        W13750  30.027   1.415   3.091
45346W        W13751   3.422  22.020   1.825
45347W        W13752  44.989   3.325   2.851
45348W        W13753  38.528   4.805   3.688
45349W        W13754  40.861  37.746   2.116
45350W        W13755  11.721  19.602  14.998
45351W        W13756  13.766  14.408   2.022
45352W        W13757  10.954  34.817   3.787
45353W        W13758  31.652  18.087   4.192
45354W        W13759  35.828  33.536  11.217
45355W        W13760   3.515  16.992   1.250
45356W        W13761  30.174  11.333   2.388
45357W        W13762  10.186   1.299   0.936
45358W        W13763  39.226  14.030  14.814
45359W        W13764  16.087   8.950  13.384
45360W        W13765  38.937  15.650   1.440
45361W        W13766  24.101   8.227   2.624
45362W        W13767   0.783   8.346  11.735
45363W        W13768  43.991  16.874   1.798
45364W        W13769  21.156  22.528   3.677
45365W        W13770   5.397   4.987  11.876
45366W        W13771  24.505  22.056   4.513
45367W        W13772  39.051  40.798   2.339
45368W        W13773   0.065  28.570  11.594
45369W        W13774  38.952  44.003   3.331
45370W        W13775   4.462   1.928  13.721
45371W        W13776   4.785  10.044  10.877
45372W        W13777  22.238  25.013  12.456
45373W        W13778  16.352  22.190  12.324
45374W        W13779  15.751  15.864  14.195
45375W        W13780   7.325  27.151   0.522
45376W        W13781  34.572  16.080   4.153
45377W        W13782  32.110   3.552   3.284
45378W        W13783  42.671  33.455   3.955
45379W        W13784  36.828   8.915  12.963
45380W        W13785  37.611  22.081   3.712
45381W        W13786  11.159  38.423   0.643
45382W        W13787  38.331  18.084   0.065
45383W        W13788  40.370  24.301  14.828
45384W        W13789   1.353  40.682  12.057
45385W        W13790  16.220   6.189   0.665
45386W        W13791  25.486  11.087   2.823
45387W        W13792   1.419  32.867  10.758
45388W        W13793   9.919  39.898  14.479
45389W        W13794  32.640  43.835  13.985
45390W        W13795   0.099  36.954   0.353
45391W        W13796  34.075  34.467  11.384
45392W        W13797   9.825   6.442  13.961
45393W        W13798  21.316   4.738   1.788
45394W        W13799  43.244   2.419   1.796
45395W        W13800  36.535  29.456  10.715
45396W        W13801  36.256  13.229   3.732
45397W        W13802   1.197  39.860   4.889
45398W        W13803  15.021  34.091   0.890
45399W        W13804  36.941   2.277  12.577
45400W        W13805  23.427  36.358   0.348
45401W        W13806  21.705  40.287   1.708
45402W        W13807  34.057  17.563   3.364
45403W        W13808  34.280  27.848  14.460
45404W        W13809  40.397   3.684   3.388
45405W        W13810  36.656  18.976   0.872
45406W        W13811   6.744  37.426  14.373
45407W        W13812  23.466  34.513   2.371
45408W        W13813  33.191  22.967   3.900
45409W        W13814  35.268  25.127   2.324
45410W        W13815  16.507  24.434  12.548
45411W        W13816  17.986  24.533   3.309
45412W        W13817  26.739   8.231   0.742
45413W        W13818  40.461  37.142  11.368
45414W        W13819   0.207   9.119   2.328
45415W        W13820   5.258  38.416   0.272
45416W        W13821   5.731   1.717   3.336
45417W        W13822  42.858  33.282   0.320
45418W        W13823  40.527  40.405   2.233
45419W        W13824  22.184  15.308  11.779
45420W        W13825  19.961  25.605   1.308
45421W        W13826  14.807  16.429   1.276
45422W        W13827  39.069  16.563  13.778
45423W        W13828  42.403   2.076   0.935
45424W        W13829  17.609   7.162  11.091
45425W        W13830  19.677  33.021  11.583
45426W        W13831  23.056   1.255  14.731
45427W        W13832  21.612   6.860  14.455
45428W        W13833  21.753  38.132  10.770
45429W        W13834  25.227  20.741  11.230
45430W        W13835  12.603  36.111  12.432
45431W        W13836  31.512  24.714   2.698
45432W        W13837   9.099  25.414   0.872
45433W        W13838  16.305   9.342  11.714
45434W        W13839  22.661  29.026  13.857
45435W        W13840  11.858   2.266   1.503
45436W        W13841  32.478   2.373  14.097
45437W        W13842  15.102   0.744   3.887
45438W        W13843  18.116  14.942  11.031
45439W        W13844   1.094  37.084   3.239
45440W        W13845  26.051  39.421  11.683
45441W        W13846  20.756  29.636  12.483
45442W        W13847  40.054  10.664  13.267
45443W        W13848  24.738  14.721   3.645
45444W        W13849  38.417   4.967   1.771
45445W        W13850  17.787  37.424  13.748
45446W        W13851  32.229   4.395  10.232
45447W        W13852  27.655  25.138   0.700
45448W        W13853  44.871  24.283   2.685
45449W        W13854  36.034  12.604   0.274
45450W        W13855  31.614  19.824  11.430
45451W        W13856  40.708  35.729  13.848
45452W        W13857  44.120  35.055   4.550
45453W        W13858  24.160   7.325   3.121
45454W        W13859   1.146  28.738  12.505
45455W        W13860   1.308  26.037  14.528
45456W        W13861  32.552  36.799   4.207
45457W        W13862  12.351  37.457  12.945
45458W        W13863   5.502  24.700   1.189
45459W        W13864   2.342  20.020  12.662
45460W        W13865  12.948  34.633  12.442
45461W        W13866   2.770  11.710   4.452
45462W        W13867  14.300  35.540   2.710
45463W        W13868  12.890  10.193  12.515
45464W        W13869  11.910   8.362   2.299
45465W        W13870  10.093  23.805   3.351
45466W        W13871   4.600  26.541  10.305
45467W        W13872  28.747  13.209   4.534
45468W        W13873  41.940  40.146   1.360
45469W        W13874   0.251  43.056   3.557
45470W        W13875  24.157   5.889   2.497
45471W        W13876  41.572  10.300  10.176
45472W        W13877   1.415  12.382   1.488
45473W        W13878  36.201   9.345   2.174
45474W        W13879  40.238   5.140  13.263
45475W        W13880  39.525   1.966   1.711
45476W        W13881  23.428  41.994   3.378
45477W        W13882  29.400  28.706   5.119
45478W        W13883   3.304  14.589   3.832
45479W        W13884  31.535  37.542   1.111
45480W        W13885  44.020   0.739   4.564
45481W        W13886  20.134  14.355   2.664
45482W        W13887  36.947  41.094  13.491
45483W        W13888  36.067  11.409   3.721
45484W        W13889   3.646  29.094  12.809
45485W        W13890  15.777   7.217  13.506
45486W        W13891  18.323   5.669   3.181
45487W        W13892  25.350  40.042  11.360
45488W        W13893  41.381  18.172   4.373
45489W        W13894  23.144  30.973   1.983
45490W        W13895  44.693   9.287  10.056
45491W        W13896  37.522   8.417   2.379
45492W        W13897  13.739  39.180  12.597
45493W        W13898  10.693   8.351  13.242
45494W        W13899  10.280  41.784   3.742
45495W        W13900   2.224   5.616  13.748
45496W        W13901   1.751  24.119   3.334
45497W        W13902   7.646   0.354   3.191
45498W        W13903  15.747  22.234  10.868
45499W        W13904   1.585  19.547  12.397
45500W        W13905   1.781  37.777  13.781
45501W        W13906  17.247  24.455   3.761
45502W        W13907  27.712  29.733  11.066
45503W        W13908  16.052  22.541   1.844
45504W        W13909  37.053   2.418   2.894
45505W        W13910  25.100  12.610   1.420
45506W        W13911   5.406  38.470   1.899
45507W        W13912  10.557   2.913   3.640
45508W        W13913   6.259  14.203  13.947
45509W        W13914  13.871   7.438  13.778
45510W        W13915  40.011  43.526  13.965
45511W        W13916  15.759  16.742   0.993
45512W        W13917  23.075  39.113  11.464
45513W        W13918  19.040  18.550   2.131
45514W        W13919   9.659  22.517   4.634
45515W        W13920  31.924   6.786   3.436
45516W        W13921   1.356  23.649   3.703
45517W        W13922  19.895  31.530   2.273
45518W        W13923  22.528  28.986   1.480
45519W        W13924   5.498   9.709  10.848
45520W        W13925  25.098  20.110   3.313
45521W        W13926  27.560  16.020  13.047
45522W        W13927  13.680  25.574   2.038
45523W        W13928  14.048  32.553  10.002
45524W        W13929  17.660  38.769   0.839
45525W        W13930  12.289  44.315   2.216
45526W        W13931  30.923  29.603   1.191
45527W        W13932  20.910  28.973  13.240
45528W        W13933  26.990  43.269  13.539
45529W        W13934  42.929   0.251  13.054
45530W        W13935  31.380   6.410   4.703
45531W        W13936  43.242  38.875   2.803
45532W        W13937  36.550  12.008   3.145
45533W        W13938  27.366  24.239   2.245
45534W        W13939  14.143  42.694   3.575
45535W        W13940  25.124  11.262   0.825
45536W        W13941  40.366  37.523   3.652
45537W        W13942   2.888  44.312   0.830
45538W        W13943  40.944   5.211   2.808
45539W        W13944  35.187  27.384  12.906
45540W        W13945   5.216  42.773   4.722
45541W        W13946  19.505  15.641  14.849
45542W        W13947  28.249   7.274   2.346
45543W        W13948  34.591  24.060   1.184
45544W        W13949  42.072  10.132  13.344
45545W        W13950   1.234  32.717   1.213
45546W        W13951  29.074  28.047  10.511
45547W        W13952  21.193  24.816  12.562
45548W        W13953  44.266  12.362  12.603
45549W        W13954  28.126  14.845  14.924
45550W        W13955  12.920  39.044  11.236
45551W        W13956  23.765  11.281  14.415
45552W        W13957  42.989  33.194  12.420
45553W        W13958  32.462  29.128  11.088
45554W        W13959  10.089  12.826  13.390
45555W        W13960  25.486  25.440   3.308
45556W        W13961  39.504  37.569   4.662
45557W        W13962  32.391  33.014  13.455
45558W        W13963  10.694  15.842  10.868
45559W        W13964  39.993  31.154  12.253
45560W        W13965  17.059  24.635  11.592
45561W        W13966  37.661  12.928   1.800
45562W        W13967  32.730  11.190  14.863
45563W        W13968  20.677  29.441   1.910
45564W        W13969  27.592  32.177   2.784
45565W        W13970  28.172  41.843   0.466
45566W        W13971  12.579  31.078  14.401
45567W        W13972   8.667  21.801   1.269
45568W        W13973   8.341  16.588  14.992
45569W        W13974  39.670  41.695   0.953
45570W        W13975  12.079  12.564  10.776
45571W        W13976  23.683  39.839   2.234
45572W        W13977   1.693   4.179   0.780
45573W        W13978  30.377  33.233  11.766
45574W        W13979  20.559  27.723  14.398
45575W        W13980  43.632  34.381   4.113
45576W        W13981   0.012   1.623  11.284
45577W        W13982  38.313  22.657   0.841
45578W        W13983  11.406  38.965  10.894
45579W        W13984  30.754  39.919  14.481
45580W        W13985  28.327  34.272   2.267
45581W        W13986  30.422  20.168   1.100
45582W        W13987  44.264  37.244  11.817
45583W        W13988  31.818   1.216  13.935
45584W        W13989  39.875   8.800  14.377
45585W        W13990  32.533  13.720  13.037
45586W        W13991  33.079  13.822   0.307
45587W        W13992  29.116  40.795   1.671
45588W        W13993  43.160  37.791   1.727
45589W        W13994  19.673  41.278  11.087
45590W        W13995  28.517  15.063  10.487
45591W        W13996  36.472  21.062  13.027
45592W        W13997   0.204  13.909   2.680
45593W        W13998  19.574  26.231  14.975
45594W        W13999  40.711  18.970  14.688
45595W        W14000   1.291  41.618  10.417
45596W        W14001  39.017  12.431   2.272
45597W        W14002  32.271  12.551   3.089
45598W        W14003  34.497  17.100   0.504
45599W        W14004  36.117  30.616  13.957
45600W        W14005  39.803  35.573   4.540
45601W        W14006  24.377   4.472  11.923
45602W        W14007  20.206  35.380   4.401
45603W        W14008  41.516  34.091   3.761
45604W        W14009   3.707   6.880   3.267
45605W        W14010  37.416   1.729   2.141
45606W        W14011  44.479  42.725  10.709
45607W        W14012  37.939  21.719   2.858
45608W        W14013  16.679  15.853   1.799
45609W        W14014  26.318  32.518  10.501
45610W        W14015  23.635  25.898  13.280
45611W        W14016  19.349  14.067   0.389
45612W        W14017  13.923   3.831   3.094
45613W        W14018   1.186  34.135  10.774
45614W        W14019  31.403  24.594  11.607
45615W        W14020  21.036   7.507   5.047
45616W        W14021  28.774  44.880   1.654
45617W        W14022  28.997  35.359   2.431
45618W        W14023  18.179  31.025  10.756
45619W        W14024   7.647  10.503  10.000
45620W        W14025  10.166  27.491   0.369
45621W        W14026  11.693  27.219  14.868
45622W        W14027  40.486  43.483  13.339
45623W        W14028  16.771  44.800   4.645
45624W        W14029   0.533  43.563   0.305
45625W        W14030  29.362  10.216  12.793
45626W        W14031   0.295   0.883   0.057
45627W        W14032  38.896  16.868   2.232
45628W        W14033   0.721   6.761  11.914
45629W        W14034  35.487   9.325  13.298
45630W        W14035   7.776   9.670  12.244
45631W        W14036  18.803  43.288   2.310
45632W        W14037  37.629  29.083   0.337
45633W        W14038  15.581  13.355   2.271
45634W        W14039  31.452  21.109  11.105
45635W        W14040  43.321  43.098  10.216
45636W        W14041  20.075  22.999  11.031
45637W        W14042  37.914   4.690   0.267
45638W        W14043  28.833  43.963   0.370
45639W        W14044  24.144  16.233   0.813
45640W        W14045  18.576  43.997  11.598
45641W        W14046  21.305  28.940   0.816
45642W        W14047   7.789  35.001  11.139
45643W        W14048   7.664  16.196   2.423
45644W        W14049   6.223  41.993   4.645
45645W        W14050  33.880  39.260   3.528
45646W        W14051  22.755   6.402  12.068
45647W        W14052  13.822  34.348  13.988
45648W        W14053  41.033   5.950   3.173
45649W        W14054  20.114  34.518   0.234
45650W        W14055  17.989  27.096  12.758
45651W        W14056  25.740  18.556  10.736
45652W        W14057  36.057  27.922   2.805
45653W        W14058   6.978  38.266  14.137
45654W        W14059  16.151   5.390   1.863
45655W        W14060  19.390  35.688   4.434
45656W        W14061  43.667  36.882  11.972
45657W        W14062   6.850   6.013   3.536
45658W        W14063  38.793  41.302  14.346
45659W        W14064  43.984   8.921  13.850
45660W        W14065  33.841  15.198   3.620
45661W        W14066  39.063  13.278  14.413
45662W        W14067  33.193   7.737   1.011
45663W        W14068  20.121  15.987   3.673
45664W        W14069  31.238  39.109  12.874
45665W        W14070  40.513  15.466  13.815
45666W        W14071  16.235  15.132   1.715
45667W        W14072  13.810  12.122   3.686
45668W        W14073  44.878   9.666   3.352
45669W        W14074   9.114  18.019  14.438
45670W        W14075  28.160   3.158   1.480
45671W        W14076  43.030  20.689  14.914
45672W        W14077  25.197  24.616  14.445
45673W        W14078   5.891  39.695  11.618
45674W        W14079  35.408  18.669   3.715
45675W        W14080  23.601  39.969   4.001
45676W        W14081  44.944  26.525   2.367
45677W        W14082  27.700  21.280   9.976
45678W        W14083  24.978  13.512  13.406
45679W        W14084  29.121   9.346   0.013
45680W        W14085  41.546  20.002  12.405
45681W        W14086  19.482  16.581  14.898
45682W        W14087  13.915  16.790  13.936
45683W        W14088  19.689  11.887   4.313
45684W        W14089  35.487   5.240  11.506
45685W        W14090  29.565  31.180  10.710
45686W        W14091  35.389   7.304   0.307
45687W        W14092  18.256  28.219   0.703
45688W        W14093   1.132  25.081  12.624
45689W        W14094  15.972  36.817   1.021
45690W        W14095  25.604  40.024   1.435
45691W        W14096  32.890  13.551   3.770
45692W        W14097  31.011  12.254   0.682
45693W        W14098  12.264  33.495   0.995
45694W        W14099  38.919  21.302  14.495
45695W        W14100  33.049   7.750   3.322
45696W        W14101  35.543   0.001  12.875
45697W        W14102  31.702   7.713  12.969
45698W        W14103  21.076  31.922  13.416
45699W        W14104  18.236  12.416  12.002
45700W        W14105  20.532   9.601   1.770
45701W        W14106  24.599  12.833   1.718
45702W        W14107  26.997  23.832  11.232
45703W        W14108  19.692  25.932  11.983
45704W        W14109  42.713   1.894  14.770
45705W        W14110  36.701  31.423  10.863
45706W        W14111  23.291  34.318  11.492
45707W        W14112  25.267  36.576  12.039
45708W        W14113  38.600  21.135   4.117
45709W        W14114  40.230  12.604   4.772
45710W        W14115  35.392  32.117   4.923
45711W        W14116  44.948  35.154   3.121
45712W        W14117   7.288   0.869   1.394
45713W        W14118  35.818  23.205   1.534
45714W        W14119  19.208  17.131   1.346
45715W        W14120   3.243  16.205   4.595
45716W        W14121   9.458  42.752   0.913
45717W        W14122  20.962  14.710   0.871
45718W        W14123   6.406  28.931  10.308
45719W        W14124  36.604   2.859   4.154
45720W        W14125  33.068  39.000   2.119
45721W        W14126   1.237  28.695   3.673
45722W        W14127   9.810  18.152   9.812
45723W        W14128  20.082  40.825   3.644
45724W        W14129  27.140  43.280   4.009
45725W        W14130  18.586  39.933   3.599
45726W        W14131  44.482  15.430   4.478
45727W        W14132  43.552   2.069   2.757
45728W        W14133  25.420  24.684   4.453
45729W        W14134   9.620  41.748  14.903
45730W        W14135  31.149  20.511   0.774
45731W        W14136  24.813  36.350  12.633
45732W        W14137  26.526   9.118  12.302
45733W        W14138   2.727  37.022  10.593
45734W        W14139   2.550  12.563   4.197
45735W        W14140  23.270  12.671  10.516
45736W        W14141  43.749  31.540  12.493
45737W        W14142  41.175  34.081  12.939
45738W        W14143  24.431  36.903   3.134
45739W        W14144  20.833  12.815   0.186
45740W        W14145  36.639  33.127   3.637
45741W        W14146  39.787  32.341   1.012
45742W        W14147  12.694   8.408   3.675
45743W        W14148  31.861  13.870  14.411
45744W        W14149  34.930  24.094   0.672
45745W        W14150   7.304  31.219   0.307
45746W        W14151  14.862  23.198  13.492
45747W        W14152  40.864  21.679  10.616
45748W        W14153  42.383   8.019   4.129
45749W        W14154  11.339  20.326  11.086
45750W        W14155  42.240  36.173   0.971
45751W        W14156  16.579  31.694   1.372
45752W        W14157  23.921   1.160   1.248
45753W        W14158   2.941  39.426   1.249
45754W        W14159  36.514  20.615  13.304
45755W        W14160   9.738  16.103  13.998
45756W        W14161  38.652  18.534   4.317
45757W        W14162  13.940   0.797  12.819
45758W        W14163  34.758  25.377   1.863
45759W        W14164  42.319  16.876  13.872
45760W        W14165  42.537  23.216   1.904
45761W        W14166  18.708  39.404   3.630
45762W        W14167   6.116  19.096  12.521
45763W        W14168  33.371  41.571   4.249
45764W        W14169  25.975  37.340   1.419
45765W        W14170  24.025  17.546  14.891
45766W        W14171  42.335   1.005   4.121
45767W        W14172  37.505  29.229   3.127
45768W        W14173  36.424  16.817  10.705
45769W        W14174   0.295  23.755   0.373
45770W        W14175   2.251  44.241  14.313
45771W        W14176  14.832  15.614  14.420
45772W        W14177   5.249  28.965   1.207
45773W        W14178   5.816  14.622   2.412
45774W        W14179  39.947  40.115   2.790
45775W        W14180  18.491  38.365   2.921
45776W        W14181  17.314  19.158  10.495
45777W        W14182  19.073  43.794  13.354
45778W        W14183   6.725  39.546  10.625
45779W        W14184  22.187  35.931   0.039
45780W        W14185  44.457  35.607   3.194
45781W        W14186  41.119  19.173  10.741
45782W        W14187  25.790  32.589  10.824
45783W        W14188  23.453   8.522  11.170
45784W        W14189  31.182  23.636   4.217
45785W        W14190  21.079  12.849   2.076
45786W        W14191  27.260  13.225  13.961
45787W        W14192  24.590  17.372  13.428
45788W        W14193   7.701  42.634  10.743
45789W        W14194  14.129   0.186   3.875
45790W        W14195  18.724  27.164   2.347
45791W        W14196  28.503  17.794  12.549
45792W        W14197  44.480   0.579   1.188
45793W        W14198  10.724  21.908  12.979
45794W        W14199   5.659  17.200  11.710
45795W        W14200  30.939   8.884   0.590
45796W        W14201  27.322   8.928   1.682
45797W        W14202  32.981  38.536   0.465
45798W        W14203  42.264  26.559   1.723
45799W        W14204   3.337  20.346   2.669
45800W        W14205  40.957  20.211   2.282
45801W        W14206  16.722  26.611   3.968
45802W        W14207   3.937  37.264   2.006
45803W        W14208  20.138  17.675   4.841
45804W        W14209  16.012  18.075   4.156
45805W        W14210  36.514  19.562  10.771
45806W        W14211  31.031  19.520  14.737
45807W        W14212  23.257  30.303  10.170
45808W        W14213   0.397  39.241  14.432
45809W        W14214  34.631  33.735  10.353
45810W        W14215   1.447  24.107   4.689
45811W        W14216   9.744   7.319  10.992
45812W        W14217  15.171  20.464   1.714
45813W        W14218  31.577  10.259   1.382
45814W        W14219  24.368  15.409   0.634
45815W        W14220  29.631  29.484   3.994
45816W        W14221  37.185  18.532   0.616
45817W        W14222   4.873  27.590   4.721
45818W        W14223  23.018  31.358   0.159
45819W        W14224   5.139  40.242   2.425
45820W        W14225  36.978  43.400   2.736
45821W        W14226   5.215   7.825  12.035
45822W        W14227  24.660  16.244  14.206
45823W        W14228  18.636   5.384  12.438
45824W        W14229  37.865  18.740  12.848
45825W        W14230  14.328  40.068   0.801
45826W        W14231   5.617  24.552   4.265
45827W        W14232  28.876  32.108   5.048
45828W        W14233  43.577   2.797   1.680
45829W        W14234  23.610  39.021   0.699
45830W        W14235  34.951   7.064  10.885
45831W        W14236   9.802  26.127  12.309
45832W        W14237   8.038  42.371   0.290
45833W        W14238  41.866  44.201  14.105
45834W        W14239  41.994  13.943  11.940
45835W        W14240  30.115  13.591  12.046
45836W        W14241   3.223   0.930   1.946
45837W        W14242   4.932  30.085   2.718
45838W        W14243  13.468   6.654  12.469
45839W        W14244  13.101  16.840  13.041
45840W        W14245   3.690   0.924  13.725
45841W        W14246  32.999  25.206  14.278
45842W        W14247  38.937   3.759  12.129
45843W        W14248  31.529  13.739   3.373
45844W        W14249   3.805  15.387   2.359
45845W        W14250  11.029  43.152  14.204
45846W        W14251  41.482  13.265   1.288
45847W        W14252  15.515  42.464   4.146
45848W        W14253  22.529   1.465  13.044
45849W        W14254   5.723  16.071   4.904
45850W        W14255  37.092  28.085   0.307
45851W        W14256  37.876  34.092  13.909
45852W        W14257   8.878  41.400   4.715
45853W        W14258  43.165   9.290   0.085
45854W        W14259  22.568  41.072  12.111
45855W        W14260  13.171   1.897  12.078
45856W        W14261  12.689  32.672   1.632
45857W        W14262  40.116  26.674  14.806
45858W        W14263  29.288   3.739  14.550
45859W        W14264  29.579  22.808   2.446
45860W        W14265  35.518  37.552  14.180
45861W        W14266  12.883   7.040   0.570
45862W        W14267  37.669  43.263  10.764
45863W        W14268  35.396  34.591   4.178
45864W        W14269   2.755   8.884   4.214
45865W        W14270  28.888   9.220   4.227
45866W        W14271  34.905  35.955  11.680
45867W        W14272   4.804  33.293   4.616
45868W        W14273  21.422  27.280  12.961
45869W        W14274  31.671  17.570   4.230
45870W        W14275  35.927   1.052   2.278
45871W        W14276  44.011  37.484   2.548
45872W        W14277  31.558   5.586  14.814
45873W        W14278  24.633   7.291  10.797
45874W        W14279   0.959   6.426  14.374
45875W        W14280  10.714  17.310  11.794
45876W        W14281   4.313   2.161   4.981
45877W        W14282  40.446  34.044  10.467
45878W        W14283  41.058  15.108   2.157
45879W        W14284  15.627  32.778   0.062
45880W        W14285  41.562  16.035   1.860
45881W        W14286  19.673  22.113   5.065
45882W        W14287   4.938  44.525   0.866
45883W        W14288  39.823  31.491   0.832
45884W        W14289   4.715  23.724  10.647
45885W        W14290  15.708  19.830  14.865
45886W        W14291   8.856  11.533  12.957
45887W        W14292  41.928  40.272  11.189
45888W        W14293   9.851   7.659   1.419
45889W        W14294  29.669   4.872  11.608
45890W        W14295  21.781  13.592   4.227
45891W        W14296  26.231  22.061   3.817
45892W        W14297   3.067  42.507  12.404
45893W        W14298  11.686  20.220  13.861
45894W        W14299  14.726   1.478   3.720
45895W        W14300  36.588  39.556   4.044
45896W        W14301  13.466  15.223   2.326
45897W        W14302   4.765  11.633  13.912
45898W        W14303  22.806  29.639   3.238
45899W        W14304  41.781  19.071   0.508
45900W        W14305   5.722  21.477  10.736
45901W        W14306  21.428   9.369   2.229
45902W        W14307  32.153   1.877  13.307
45903W        W14308  29.513   0.709  13.106
45904W        W14309  25.545  40.892  12.773
45905W        W14310   1.489  27.610  14.418
45906W        W14311  38.971  41.735  11.386
45907W        W14312  40.428   8.408  11.556
45908W        W14313   8.716  42.733   0.559
45909W        W14314   5.818  24.602  11.562
45910W        W14315  31.542  20.671  11.360
45911W        W14316  15.247  18.638  12.019
45912W        W14317  21.369  37.509  12.736
45913W        W14318  37.178   8.240  12.014
45914W        W14319  30.208  11.851   1.214
45915W        W14320  16.615   3.178   1.640
45916W        W14321  41.497   3.986   1.409
45917W        W14322  25.634  32.855   3.292
45918W        W14323  17.383   1.563  13.881
45919W        W14324   2.241   0.922   3.631
45920W        W14325  27.198  21.696  13.595
45921W        W14326  35.862  43.764   0.488
45922W        W14327  35.756  39.505   0.763
45923W        W14328  14.662  35.235   4.415
45924W        W14329  22.991  42.875   0.222
45925W        W14330  30.803  25.076   3.219
45926W        W14331   5.217  41.954   3.116
45927W        W14332  25.174  15.296   4.367
45928W        W14333   1.788  18.790   3.322
45929W        W14334  44.121  44.083   0.338
45930W        W14335  38.453  23.307  11.297
45931W        W14336  26.720  24.488  10.702
45932W        W14337   8.465  44.439   2.617
45933W        W14338   8.439  23.585  10.691
45934W        W14339  35.072   9.123  13.531
45935W        W14340  38.712  29.332  13.659
45936W        W14341   7.607   9.771  12.711
45937W        W14342  41.722   0.232  12.477
45938W        W14343  18.721  17.685  10.414
45939W        W14344  32.840  22.952  14.800
45940W        W14345  16.771  42.791  13.958
45941W        W14346  21.544  42.300  10.761
45942W        W14347  26.190  44.768  13.617
45943W        W14348  27.457  10.870  11.438
45944W        W14349  15.657  23.381  12.939
45945W        W14350  33.429  40.653   4.587
45946W        W14351   7.118  44.929  11.674
45947W        W14352  23.618  42.926  11.169
45948W        W14353  26.943   9.673   3.745
45949W        W14354   0.298  19.674  11.186
45950W        W14355   9.738  31.466   3.197
45951W        W14356  27.289   9.578   3.302
45952W        W14357   3.182  32.018  13.511
45953W        W14358  43.255  30.554  13.621
45954W        W14359  37.498  28.154   4.564
45955W        W14360  31.895  14.361  10.314
45956W        W14361  16.648  32.395   9.727
45957W        W14362  37.957  35.454   3.486
45958W        W14363  25.097  15.302   0.299
45959W        W14364  42.942  21.742   3.749
45960W        W14365  41.528   1.497  13.265
45961W        W14366  11.022   6.077   0.724
45962W        W14367  18.275   0.737   4.778
45963W        W14368  30.995  38.103  12.965
45964W        W14369  39.913  16.838  14.396
45965W        W14370   3.716  18.947   4.342
45966W        W14371  11.860   0.367   3.915
45967W        W14372  27.473  15.248  14.521
45968W        W14373   1.020  44.268  11.198
45969W        W14374   1.698  19.788  11.475
45970W        W14375  12.174  14.090  13.494
45971W        W14376  11.322  38.979  13.063
45972W        W14377  32.358  20.597  13.544
45973W        W14378  16.626  25.318  14.578
45974W        W14379   0.222  41.000  13.013
45975W        W14380  37.500   2.362  10.870
45976W        W14381   2.484   8.928   3.722
45977W        W14382   7.693  20.000  11.090
45978W        W14383  20.274   4.994  12.626
45979W        W14384  44.541  23.979  13.450
45980W        W14385  24.250  24.100   2.313
45981W        W14386  39.138  26.402  14.955
45982W        W14387   5.391  44.776   1.018
45983W        W14388  22.892  27.713   1.741
45984W        W14389  44.769  11.122  13.113
45985W        W14390  11.339  30.052   0.819
45986W        W14391  36.810  23.862  13.308
45987W        W14392  40.304  22.210  11.285
45988W        W14393  44.485  37.688  11.042
45989W        W14394  16.145  42.000   3.160
45990W        W14395  29.603  36.337   4.062
45991W        W14396  40.078  44.214   0.398
45992W        W14397  44.898  41.399   3.970
45993W        W14398  40.975  33.351  13.267
45994W        W14399  33.700  33.203  14.627
45995W        W14400   6.434   6.373   5.090
45996W        W14401  18.679  32.797   1.393
45997W        W14402  33.574   7.165  11.916
45998W        W14403  43.409  11.445  12.428
45999W        W14404   0.933  34.503  13.556
46000W        W14405   4.772  25.472   3.477
46001W        W14406  30.868  18.331  14.520
46002W        W14407  43.035   5.272   1.876
46003W        W14408  28.897  42.861  10.952
46004W        W14409  15.397  16.255  10.426
46005W        W14410  33.311  29.670   2.537
46006W        W14411  43.475   7.968   2.381
46007W        W14412  22.456  27.705   0.320
46008W        W14413  34.554  23.667  12.816
46009W        W14414  13.025  21.126   1.159
46010W        W14415   6.207  24.166   4.331
46011W        W14416  17.726  34.776   3.193
46012W        W14417  42.906  19.265   0.761
46013W        W14418  38.593  23.186  13.496
46014W        W14419   0.949  41.402   2.863
46015W        W14420  19.564   7.192  12.136
46016W        W14421   7.706   3.833   4.661
46017W        W14422   8.743   3.009   1.243
46018W        W14423  16.572   0.424  14.444
46019W        W14424  33.095  39.934  13.948
46020W        W14425  29.355  12.971  12.967
46021W        W14426   6.798  22.634   0.927
46022W        W14427  34.389  22.619  13.352
46023W        W14428  43.923  42.880  14.467
46024W        W14429  42.387  30.198   1.495
46025W        W14430  28.735  16.307  12.550
46026W        W14431  36.325  26.146  13.440
46027W        W14432  20.158  23.956  12.262
46028W        W14433  41.045  32.329   3.408
46029W        W14434  40.527  31.898   0.820
46030W        W14435  31.619  20.452   1.842
46031W        W14436  40.803   1.810   1.271
46032W        W14437  44.489  28.361   2.909
46033W        W14438   7.218  36.379  13.827
46034W        W14439  29.613  35.046   4.685
46035W        W14440  24.183  29.449   4.534
46036W        W14441   8.195  13.701  13.560
46037W        W14442  32.925  37.980   3.362
46038W        W14443  33.533   8.857  10.010
46039W        W14444  40.023  14.878   2.649
46040W        W14445  23.336  26.950  11.469
46041W        W14446   4.155   2.680   1.405
46042W        W14447   1.879  32.163  11.205
46043W        W14448  11.156  35.528  13.527
46044W        W14449  15.366  30.051   4.123
46045W        W14450  19.573  11.024  14.809
46046W        W14451  23.628  38.812   2.430
46047W        W14452  31.040   9.861   4.873
46048W        W14453  44.578   7.681   0.504
46049W        W14454  15.698  35.950   3.961
46050W        W14455   3.368  43.893   0.452
46051W        W14456  24.980   4.880   1.662
46052W        W14457  22.967  18.903  14.371
46053W        W14458  17.986   1.126   1.764
46054W        W14459  16.371  30.073  13.991
46055W        W14460  39.567  39.858  11.227
46056W        W14461  24.222  14.819   3.605
46057W        W14462  29.533  41.706   4.092
46058W        W14463  37.863   4.385   1.300
46059W        W14464  10.677  17.190  14.792
46060W        W14465   6.488   3.325  11.217
46061W        W14466  15.694  18.615   0.246
46062W        W14467  40.296   7.217   0.076
46063W        W14468  12.760  39.435   3.752
46064W        W14469  36.466  12.094  13.856
46065W        W14470   7.219   5.460   0.395
46066W        W14471  14.894  19.768   1.311
46067W        W14472  12.634  34.760   1.707
46068W        W14473  44.032  20.353   1.956
46069W        W14474  23.664  23.667   2.989
46070W        W14475  22.278  30.031  14.379
46071W        W14476  22.755  15.306  13.364
46072W        W14477  31.439  33.618  12.195
46073W        W14478  21.855  22.099  10.657
46074W        W14479  10.600   5.073   0.767
46075W        W14480  44.900  13.701   1.909
46076W        W14481  32.476  35.126  11.704
46077W        W14482  41.734  15.073  13.717
46078W        W14483  16.451  38.290  11.870
46079W        W14484  31.289  33.421   0.954
46080W        W14485   6.718  33.122  11.880
46081W        W14486  32.549  41.043  14.434
46082W        W14487  23.354   2.940   4.753
46083W        W14488   1.947  12.923   3.710
46084W        W14489  19.507   6.448  13.896
46085W        W14490  11.161  38.840  14.453
46086W        W14491   1.725  20.733  13.857
46087W        W14492  25.596  15.546   0.348
46088W        W14493   4.704  22.630  12.367
46089W        W14494  25.112  23.195   3.249
46090W        W14495   8.912  31.460  10.496
46091W        W14496  36.000  32.566   4.603
46092W        W14497  22.600  13.555  14.767
46093W        W14498   9.074  31.107  12.016
46094W        W14499   4.089  14.006   0.930
46095W        W14500  18.622   8.633  14.544
46096W        W14501   3.389  43.385   0.791
46097W        W14502  27.148  27.438   4.127
46098W        W14503  27.650   2.881  14.961
46099W        W14504   0.519  19.250  10.938
46100W        W14505  10.216  39.603  12.071
46101W        W14506  42.865  31.650   3.127
46102W        W14507  30.214  29.534   0.430
46103W        W14508  39.307   5.746  14.120
46104W        W14509   2.902  40.788   0.915
46105W        W14510  25.127  21.252   0.098
46106W        W14511  27.730   0.040  14.401
46107W        W14512  33.775   3.442   5.094
46108W        W14513  43.963   2.212   0.284
46109W        W14514  25.203  36.131  14.885
46110W        W14515  40.442   7.670   4.428
46111W        W14516  18.057  33.353   0.186
46112W        W14517  26.965  39.329  10.107
46113W        W14518  31.329  11.635   3.328
46114W        W14519  22.454  30.237   4.040
46115W        W14520  21.154  10.122   4.038
46116W        W14521   8.773  43.448   2.353
46117W        W14522  42.042  10.715   0.052
46118W        W14523  15.203  28.020   0.663
46119W        W14524  11.907  22.168   3.205
46120W        W14525  21.084  20.628   0.448
46121W        W14526  25.533  15.924  10.725
46122W        W14527  26.554   8.102  11.973
46123W        W14528  18.607  41.376  10.462
46124W        W14529  36.636  23.108  11.620
46125W        W14530  36.043  41.325   3.622
46126W        W14531  16.583  33.515   1.825
46127W        W14532  31.104  34.226   3.813
46128W        W14533  15.310   1.351  13.879
46129W        W14534  41.823   3.544  11.924
46130W        W14535  29.474  42.345   0.021
46131W        W14536  25.669  21.507   1.745
46132W        W14537   4.721   2.575  14.282
46133W        W14538  13.204  23.662  11.484
46134W        W14539   5.047   4.233  12.734
46135W        W14540   5.266  27.207   1.743
46136W        W14541   9.352  31.517   1.284
46137W        W14542  28.074  15.074  10.241
46138W        W14543  26.669   5.728  14.501
46139W        W14544  44.976   9.325   4.674
46140W        W14545  12.359  27.491   3.635
46141W        W14546  18.405  19.634   1.783
46142W        W14547  35.580  23.049   4.238
46143W        W14548   7.326   0.782   3.708
46144W        W14549  32.404  10.820   0.028
46145W        W14550  30.121  10.894  12.407
46146W        W14551  26.379  15.026  11.549
46147W        W14552  21.774  18.626   1.632
46148W        W14553  22.790  25.061  14.108
46149W        W14554  27.168  26.388   4.140
46150W        W14555  40.851  20.191   4.518
46151W        W14556  40.175  26.408   2.888
46152W        W14557  38.497  31.650  11.635
46153W        W14558   2.578  11.959  10.063
46154W        W14559  11.808  32.864   3.498
46155W        W14560   3.304   3.282   4.157
46156W        W14561  32.579  20.009  10.553
46157W        W14562  20.037  19.955  14.039
46158W        W14563  41.572  14.788  13.147
46159W        W14564  29.844  15.095   2.182
46160W        W14565  29.914  43.357  10.768
46161W        W14566   3.806   4.210   3.256
46162W        W14567  20.888  19.777  14.452
46163W        W14568  17.756  42.444   4.901
46164W        W14569   2.208   3.815   4.922
46165W        W14570   6.181  27.248   3.126
46166W        W14571  35.084   3.831   2.424
46167W        W14572   2.066  37.117  12.021
46168W        W14573   7.584  28.973   3.497
46169W        W14574   0.486  18.853   1.358
46170W        W14575  10.888  35.571   3.270
46171W        W14576  36.945  25.316  13.354
46172W        W14577  37.574  39.139   3.563
46173W        W14578   7.635  33.873   1.201
46174W        W14579  36.315   4.760  10.231
46175W        W14580  19.882   3.193   0.771
46176W        W14581  25.761  32.976  14.848
46177W        W14582  19.157  27.560   1.561
46178W        W14583  16.720  12.260  11.568
46179W        W14584  36.907   2.258  13.939
46180W        W14585  20.225  16.056  11.980
46181W        W14586   9.125   7.729   2.329
46182W        W14587   6.357  32.238  12.943
46183W        W14588  40.169  25.302   1.170
46184W        W14589  35.821  12.654  14.811
46185W        W14590  23.684  36.925  11.529
46186W        W14591  41.642  22.212  10.653
46187W        W14592  16.313  35.829   0.323
46188W        W14593  27.599  23.780  13.405
46189W        W14594   8.626  15.907  12.947
46190W        W14595  27.180   5.304   4.824
46191W        W14596   7.516  11.315   4.007
46192W        W14597  37.077   8.175  13.347
46193W        W14598  28.497  16.298   3.706
46194W        W14599   2.395   7.319  14.837
46195W        W14600  33.883  36.932  11.604
46196W        W14601  12.129  28.460  12.958
46197W        W14602  21.500  41.760   2.450
46198W        W14603   5.505  15.653   2.248
46199W        W14604  19.257   0.853  14.442
46200W        W14605   1.397   5.154   3.774
46201W        W14606  28.237   1.824  10.658
46202W        W14607  12.743  39.331   1.377
46203W        W14608   8.574   3.637   2.281
46204W        W14609  38.287  10.219  14.348
46205W        W14610  31.521  40.783   0.396
46206W        W14611  38.434  22.186  12.082
46207W        W14612  22.176  10.362  12.419
46208W        W14613  43.597  43.275   3.262
46209W        W14614  15.781  20.611  11.687
46210W        W14615  35.876  36.189   4.637
46211W        W14616  37.364  16.797  10.613
46212W        W14617  23.829   2.918   1.789
46213W        W14618  26.880  42.910   0.619
46214W        W14619  23.080  28.116   4.098
46215W        W14620   8.215   2.721   2.465
46216W        W14621  16.646   3.155   3.745
46217W        W14622   2.466  26.223  12.605
46218W        W14623   8.668  26.721  12.080
46219W        W14624  36.077  10.163   0.067
46220W        W14625  27.651  16.583  13.855
46221W        W14626  21.135   1.694  13.092
46222W        W14627  14.209  41.282   3.831
46223W        W14628  29.752  29.765   0.241
46224W        W14629  31.507  33.980   3.595
46225W        W14630  22.966  25.108  10.422
46226W        W14631  14.968  30.529  13.024
46227W        W14632  43.801  22.364  13.302
46228W        W14633  35.389  21.765   3.619
46229W        W14634  25.046  26.596  10.314
46230W        W14635  31.509  32.593   3.107
46231W        W14636   1.524  30.717  13.009
46232W        W14637  11.314  28.394   5.501
46233W        W14638  12.129  23.916  10.923
46234W        W14639  25.255   7.220  13.971
46235W        W14640  32.752  33.395  12.448
46236W        W14641  17.380  29.483  13.138
46237W        W14642  22.874   1.634   0.261
46238W        W14643  22.068  30.089   2.227
46239W        W14644  19.621  14.793   1.194
46240W        W14645   3.179  31.550   2.627
46241W        W14646   7.320  14.143   1.538
46242W        W14647   3.566  27.413  10.432
46243W        W14648  24.812  23.043   0.966
46244W        W14649  11.716  24.103   4.471
46245W        W14650  24.524  26.733  14.083
46246W        W14651  10.590  42.898  12.472
46247W        W14652  18.143  33.980   1.388
46248W        W14653  26.118  16.022   3.713
46249W        W14654  21.841   2.249  12.530
46250W        W14655  20.680  14.156   1.706
46251W        W14656   6.761  33.199  12.921
46252W        W14657  40.345  10.677  11.855
46253W        W14658  14.144   2.555   4.981
46254W        W14659  13.661   9.409   0.641
46255W        W14660  27.453   0.240   4.141
46256W        W14661  44.924  33.595   2.836
46257W        W14662  43.977  17.208   4.041
46258W        W14663   4.912  35.326   1.287
46259W        W14664  39.332  40.425   1.673
46260W        W14665  25.492  17.223   4.599
46261W        W14666  22.428   4.193  11.512
46262W        W14667  11.038   7.773  14.495
46263W        W14668  34.023  25.581   1.192
46264W        W14669  24.687  41.714   3.342
46265W        W14670  26.541  24.735  11.511
46266W        W14671  30.874  35.583   2.755
46267W        W14672  39.722  12.138  11.744
46268W        W14673  41.414   4.760  12.517
46269W        W14674  42.416  26.118   1.930
46270W        W14675  16.336  25.406   4.238
46271W        W14676  12.755  31.565  10.704
46272W        W14677   5.148  22.486  12.869
46273W        W14678  15.032  40.365  11.940
46274W        W14679  13.655  26.390   4.155
46275W        W14680  12.356  42.765   4.761
46276W        W14681  23.633  14.119   1.301
46277W        W14682   6.909  31.427  13.899
46278W        W14683  30.344  30.012   2.295
46279W        W14684  43.432  14.673  13.307
46280W        W14685  35.655   3.361  11.526
46281W        W14686  30.716  27.492   3.938
46282W        W14687  38.390  34.048   4.547
46283W        W14688  16.107  13.851  14.434
46284W        W14689   6.317  11.686  11.191
46285W        W14690  31.471   7.592  11.098
46286W        W14691   6.836  15.658  13.813
46287W        W14692  10.799  35.489  12.663
46288W        W14693   6.680  24.887   0.308
46289W        W14694  37.304  10.340  13.332
46290W        W14695   9.295   6.481   4.687
46291W        W14696  19.608  30.607   2.797
46292W        W14697   1.643  43.601  11.662
46293W        W14698  32.574  21.689   3.155
46294W        W14699   0.028  37.115  13.392
46295W        W14700  31.571  36.805   0.441
46296W        W14701  32.930  17.777   1.922
46297W        W14702  26.973  28.084   2.776
46298W        W14703  22.288  11.635  11.123
46299W        W14704   1.028  36.299  11.157
46300W        W14705  42.601  35.814   1.030
46301W        W14706  17.264  29.349  11.348
46302W        W14707  38.472  32.137   0.944
46303W        W14708  30.002  11.669   4.674
46304W        W14709  26.852  32.251   3.347
46305W        W14710  35.917   9.277  14.011
46306W        W14711  13.668  41.404   3.676
46307W        W14712  36.447  34.328   0.364
46308W        W14713  27.324  41.796  12.385
46309W        W14714  26.481   3.217  14.358
46310W        W14715  34.619  28.597  14.923
46311W        W14716  36.697   2.337   1.007
46312W        W14717   7.542  36.331   4.182
46313W        W14718  13.688  26.172   0.317
46314W        W14719  21.693  10.765   4.300
46315W        W14720   5.635   6.246  12.023
46316W        W14721  16.172   9.030   5.447
46317W        W14722  11.226  24.164   4.351
46318W        W14723   5.296  16.952   0.921
46319W        W14724  15.653  25.303   3.292
46320W        W14725   4.289   2.703   3.687
46321W        W14726  26.042  19.317   4.136
46322W        W14727  23.726   3.952  13.037
46323W        W14728  25.102   4.255   4.405
46324W        W14729  14.529   3.699  11.955
46325W        W14730   3.895   3.884  11.371
46326W        W14731  12.690   4.046   3.757
46327W        W14732   9.886  40.575  12.446
46328W        W14733  34.518  41.413   3.216
46329W        W14734  18.592  30.542   4.591
46330W        W14735   6.196  29.681   3.634
46331W        W14736  43.484   8.874   0.172
46332W        W14737  33.404  15.641   2.754
46333W        W14738   7.947  14.104  11.135
46334W        W14739  30.096  30.716   3.777
46335W        W14740  36.896  34.484   3.200
46336W        W14741  15.587  17.615  13.185
46337W        W14742  35.968  26.613  13.523
46338W        W14743  22.713   4.985  11.683
46339W        W14744  29.428   0.075   2.183
46340W        W14745  37.817  20.675   0.004
46341W        W14746   3.012  13.291  12.902
46342W        W14747   1.421  37.036   0.047
46343W        W14748  28.994   1.462   1.837
46344W        W14749  29.069   1.928  14.324
46345W        W14750   9.228  12.355  12.016
46346W        W14751  29.510   4.208   2.798
46347W        W14752   4.902  24.267   0.675
46348W        W14753  39.033  16.085  14.798
46349W        W14754  21.172  44.862  11.637
46350W        W14755   6.042   4.136   0.759
46351W        W14756  24.235  43.351   0.479
46352W        W14757  15.869  23.523   2.070
46353W        W14758  21.582  32.466  11.382
46354W        W14759  20.210  18.118   3.178
46355W        W14760   1.492  30.120  12.493
46356W        W14761  10.446  41.113  11.163
46357W        W14762  15.812  19.465   1.342
46358W        W14763  23.144  39.841   4.177
46359W        W14764  39.951  27.693  12.974
46360W        W14765  36.738  34.612   4.651
46361W        W14766  20.635  27.713  12.583
46362W        W14767  25.672  38.397   0.188
46363W        W14768  19.503   8.372  12.344
46364W        W14769   8.429  30.040  12.617
46365W        W14770  15.651  26.345   3.719
46366W        W14771  39.431  21.731  10.892
46367W        W14772  44.873  30.695  13.367
46368W        W14773  32.994   4.791  10.682
46369W        W14774  29.604  19.072   4.705
46370W        W14775   7.751  30.176  10.777
46371W        W14776  18.306  37.611   1.858
46372W        W14777  29.056  15.175  13.587
46373W        W14778  32.660   7.614  10.630
46374W        W14779  24.808  24.326  14.618
46375W        W14780  17.225  12.715   4.596
46376W        W14781  30.993   3.673  12.262
46377W        W14782  11.830  39.426   1.825
46378W        W14783   4.045  21.131  13.354
46379W        W14784  37.887  22.732   1.611
46380W        W14785  11.248   1.449  13.788
46381W        W14786  22.071  30.870   2.631
46382W        W14787  21.690  23.590  11.210
46383W        W14788  21.514  20.264  13.920
46384W        W14789  25.252  25.934   0.127
46385W        W14790  22.576   1.077   1.663
46386W        W14791   3.024  32.242  13.951
46387W        W14792   8.326   5.389   4.283
46388W        W14793  40.882   4.677   2.755
46389W        W14794   5.809  15.568  10.155
46390W        W14795   4.278  36.836   4.164
46391W        W14796  42.146  35.335  11.618
46392W        W14797  30.185   5.255  11.990
46393W        W14798  17.663  21.215   1.205
46394W        W14799  20.345  32.694   3.819
46395W        W14800  29.131  13.526   4.740
46396W        W14801  44.935   2.344  13.901
46397W        W14802  32.628   8.199   2.192
46398W        W14803  34.583  25.122   2.795
46399W        W14804  21.123  32.863  10.304
46400W        W14805  13.712   0.501  13.639
46401W        W14806  26.168   9.112   3.747
46402W        W14807  27.004  41.057  12.125
46403W        W14808  13.242  13.300   1.911
46404W        W14809  25.429  11.263  13.962
46405W        W14810  22.113  25.464   0.353
46406W        W14811  40.452  22.090   2.343
46407W        W14812  38.388   1.902  10.663
46408W        W14813  14.070   7.897  13.535
46409W        W14814   2.824  18.273   3.581
46410W        W14815  16.829  23.122  12.496
46411W        W14816  16.522  42.878   1.867
46412W        W14817   0.231  31.728   0.278
46413W        W14818  42.786   9.269   2.637
46414W        W14819  12.280  23.767   2.788
46415W        W14820  10.717  23.485  12.175
46416W        W14821   5.279  24.257   1.382
46417W        W14822  16.907   5.784   4.241
46418W        W14823  44.506  36.965  12.196
46419W        W14824  13.625  12.411  13.928
46420W        W14825  26.650  43.752   0.670
46421W        W14826   1.767  18.081   0.696
46422W        W14827  26.025   5.436  13.613
46423W        W14828  39.913  37.523  11.177
46424W        W14829  22.545   7.164  12.886
46425W        W14830  41.961  15.086  11.109
46426W        W14831  29.730  42.837   0.274
46427W        W14832  36.470  21.242  11.553
46428W        W14833  39.319  23.571   2.778
46429W        W14834  10.803  43.371  12.471
46430W        W14835  13.788  22.614  12.605
46431W        W14836  39.982  23.186  12.868
46432W        W14837  32.197  11.766   0.452
46433W        W14838  41.716  39.901  14.695
46434W        W14839  16.128  44.530  14.767
46435W        W14840  29.242  38.894   4.037
46436W        W14841  15.427   6.663   2.687
46437W        W14842  40.730   3.785   2.254
46438W        W14843  25.447  24.074  13.403
46439W        W14844  20.687  42.020   0.006
46440W        W14845  14.683   0.809  12.114
46441W        W14846  34.115   2.380  11.092
46442W        W14847  11.145  37.536  10.742
46443W        W14848   4.162  29.588  10.759
46444W        W14849   7.940  11.429   4.994
46445W        W14850  31.046  18.313  14.040
46446W        W14851  32.494  25.261  14.353
46447W        W14852  17.304   6.252  13.453
46448W        W14853  27.761   7.400   0.871
46449W        W14854   6.181  37.858   2.785
46450W        W14855  13.806  24.416   3.205
46451W        W14856  28.110  12.299   2.279
46452W        W14857  26.458  28.300  14.793
46453W        W14858  22.633   3.418   0.403
46454W        W14859  14.138  35.124  12.270
46455W        W14860  37.703  28.020  12.936
46456W        W14861   1.258  25.321  14.094
46457W        W14862  21.912  40.917  10.658
46458W        W14863   0.925  34.349  14.435
46459W        W14864  41.433   8.207   1.709
46460W        W14865  16.490  18.587   3.429
46461W        W14866   1.855   0.835   3.261
46462W        W14867  31.954  11.315  10.787
46463W        W14868  11.159  34.558  13.904
46464W        W14869  44.385  37.304   2.838
46465W        W14870   3.044  33.386   1.031
46466W        W14871   5.754  19.579   4.656
46467W        W14872  22.138  41.519  14.229
46468W        W14873  39.658   6.488   3.340
46469W        W14874   2.887  22.885   1.982
46470W        W14875  40.730  22.538  14.875
46471W        W14876  37.938  29.215  10.759
46472W        W14877  39.487  14.309  12.322
46473W        W14878   4.287  42.033   0.309
46474W        W14879   1.459  14.161   2.719
46475W        W14880  37.806  35.816   5.044
46476W        W14881  23.594  27.535  12.584
46477W        W14882  10.390   5.773  10.648
46478W        W14883  36.567  19.261  12.544
46479W        W14884   4.488  24.734   3.350
46480W        W14885   6.584  29.381  12.579
46481W        W14886  24.650   1.340  13.808
46482W        W14887   5.749   4.351   4.378
46483W        W14888  28.102  16.955  11.698
46484W        W14889  15.621  16.022  13.617
46485W        W14890  22.313   0.212  14.790
46486W        W14891  42.723  33.137   0.850
46487W        W14892   2.361  31.135   3.905
46488W        W14893  10.233  36.406   3.694
46489W        W14894  30.204   1.923  13.389
46490W        W14895  11.537  40.952   3.413
46491W        W14896  30.272   3.437  13.101
46492W        W14897  19.120  42.071  11.353
46493W        W14898   6.904  16.821  12.971
46494W        W14899  22.265  43.771  13.500
46495W        W14900   2.194   6.213   3.521
46496W        W14901  27.448  13.543  10.957
46497W        W14902  26.023   2.720  10.462
46498W        W14903  37.874   2.450  13.469
46499W        W14904  37.079  23.489   4.556
46500W        W14905  29.555  28.474  13.026
46501W        W14906  16.563  13.060  11.160
46502W        W14907  25.138  42.303   0.836
46503W        W14908  16.592  35.390  10.103
46504W        W14909  32.484  23.996   3.264
46505W        W14910  15.209  43.412   4.606
46506W        W14911  37.944   2.312   2.682
46507W        W14912  27.012  34.616  13.966
46508W        W14913  22.164  10.566   0.392
46509W        W14914  30.656  38.608  11.145
46510W        W14915  16.567  12.785   2.084
46511W        W14916   7.269  25.484  13.909
46512W        W14917  40.672  20.118  13.441
46513W        W14918  25.063  41.163  13.394
46514W        W14919  38.713   1.768   4.193
46515W        W14920  29.919  24.772  10.682
46516W        W14921  16.684   2.996   2.397
46517W        W14922  22.493  39.309   1.892
46518W        W14923   5.714  24.490   0.336
46519W        W14924   3.963  32.190  13.851
46520W        W14925   5.188  10.343  11.404
46521W        W14926  10.060   1.807   1.133
46522W        W14927  10.714  19.322  13.588
46523W        W14928  43.861  39.753  11.597
46524W        W14929  36.571  13.832  14.385
46525W        W14930  35.144  21.504  12.453
46526W        W14931  35.457  15.669   3.685
46527W        W14932  37.591  16.113   2.344
46528W        W14933   8.129  16.689   0.866
46529W        W14934  33.912  23.503  14.892
46530W        W14935  10.842  38.409  13.983
46531W        W14936  11.209  22.298   1.725
46532W        W14937   1.742   5.393  13.822
46533W        W14938  22.246   6.668   3.924
46534W        W14939  43.027   6.218  10.703
46535W        W14940   1.283  31.749   2.317
46536W        W14941  12.169   7.197  12.526
46537W        W14942   6.804   0.214   1.893
46538W        W14943  23.165  38.070   0.840
46539W        W14944  25.813   2.731   0.346
46540W        W14945  40.572  44.022  11.615
46541W        W14946  29.830   1.924  12.395
46542W        W14947  40.775   6.841  13.429
46543W        W14948   6.604  16.942  11.397
46544W        W14949  25.022  34.813   1.396
46545W        W14950  42.815   7.729  12.973
46546W        W14951  20.216  20.828   0.060
46547W        W14952  30.378  29.159  11.046
46548W        W14953  37.547   6.758   1.307
46549W        W14954  31.041   6.105  11.210
46550W        W14955  30.591   4.160   1.727
46551W        W14956  12.273  29.632   0.830
46552W        W14957   6.157   7.631   4.611
46553W        W14958  43.988  19.638  11.570
46554W        W14959  37.440  32.452   0.923
46555W        W14960  30.970  35.113   3.876
46556W        W14961   1.471  29.525   1.421
46557W        W14962  32.225   8.377  14.404
46558W        W14963  15.474  28.306  14.994
46559W        W14964  27.436   3.743  11.534
46560W        W14965  20.187  26.229  13.318
46561W        W14966  14.231  27.179   0.774
46562W        W14967  11.760  11.210   2.260
46563W        W14968  16.645  42.246  13.719
46564W        W14969  38.895  13.623   3.116
46565W        W14970  21.499  21.477  14.493
46566W        W14971   0.234   0.855  12.353
46567W        W14972  40.665  34.580  13.644
46568W        W14973  36.460  35.003   4.881
46569W        W14974  36.823   3.436  14.739
46570W        W14975   0.686  41.816   2.682
46571W        W14976  43.162  43.454  14.318
46572W        W14977   4.836   3.928   4.919
46573W        W14978  27.396  17.152   0.978
46574W        W14979  31.623  29.141   2.393
46575W        W14980  20.751  32.933  14.183
46576W        W14981  11.097  23.526  12.518
46577W        W14982  27.021  13.619   0.514
46578W        W14983  30.041  33.389   4.219
46579W        W14984  21.374   7.608  11.611
46580W        W14985  27.978   1.961  12.492
46581W        W14986  30.498   3.573  11.510
46582W        W14987  31.028  18.818  13.949
46583W        W14988  20.888  26.022   3.002
46584W        W14989   0.654  22.670  14.470
46585W        W14990  18.144  15.581   0.260
46586W        W14991  34.887  17.326   0.226
46587W        W14992  43.290  27.928   0.338
46588W        W14993  20.781  33.501   4.642
46589W        W14994  24.959  15.850  11.610
46590W        W14995  18.607  23.475   2.712
46591W        W14996  33.826   5.172   2.944
46592W        W14997  43.582  21.995   3.870
46593W        W14998  36.942  19.399   0.893
46594W        W14999  35.106  32.634  11.866
46595W        W15000  36.445  42.294   2.122
46596W        W15001  21.804   3.528   3.198
46597W        W15002  44.856   5.195   4.189
46598W        W15003   9.908  44.996   2.746
46599W        W15004   1.381   5.302  13.454
46600W        W15005  22.976  22.643  14.071
46601W        W15006  11.113  44.827   4.541
46602W        W15007  23.016  17.750  12.486
46603W        W15008  15.233  18.373  14.006
46604W        W15009  19.547  24.106  11.155
46605W        W15010   8.741  12.322  11.449
46606W        W15011  23.657  21.241   1.248
46607W        W15012  13.427  44.424  14.022
46608W        W15013  25.395  36.063   2.775
46609W        W15014  37.714  23.937   0.884
46610W        W15015  33.652  16.426   1.900
46611W        W15016   3.749  16.892   4.654
46612W        W15017  18.850   4.440   2.645
46613W        W15018  44.375  35.412   2.728
46614W        W15019  17.291  28.735   2.402
46615W        W15020  38.476  31.790  14.460
46616W        W15021  25.673   7.693  14.408
46617W        W15022  41.029  24.386  14.426
46618W        W15023   2.330   2.356   4.114
46619W        W15024   6.040  21.291  13.970
46620W        W15025  24.972  44.050   3.745
46621W        W15026  32.021  32.567   2.686
46622W        W15027  14.171  36.002  10.666
46623W        W15028  25.245  43.935  13.298
46624W        W15029  13.685   7.269   2.440
46625W        W15030  43.332  34.446  13.963
46626W        W15031  12.280  43.070  10.610
46627W        W15032  31.343  15.223  13.024
46628W        W15033  16.608  43.822  11.055
46629W        W15034  35.034   2.783  11.142
46630W        W15035  16.522  24.544  10.762
46631W        W15036  12.337  23.025   3.215
46632W        W15037   7.963  44.290   0.773
46633W        W15038  12.644  20.059   3.226
46634W        W15039  35.597  21.266  12.089
46635W        W15040  25.674  18.197  11.122
46636W        W15041  16.033   4.310   2.825
46637W        W15042   7.687  29.464   3.302
46638W        W15043  36.074  34.734   3.467
46639W        W15044  26.993   6.288   3.638
46640W        W15045  34.310  17.181  12.396
46641W        W15046  12.577  30.136   0.471
46642W        W15047  37.417  37.508  13.104
46643W        W15048  31.892   0.975   1.318
46644W        W15049   8.281   1.832   1.478
46645W        W15050  23.447  16.917   0.628
46646W        W15051  36.174  29.645  12.931
46647W        W15052  23.064  28.283  13.049
46648W        W15053  17.121  26.625   1.984
46649W        W15054  29.927  34.515  11.977
46650W        W15055  44.955   5.159  10.659
46651W        W15056  24.136  37.252  13.934
46652W        W15057   6.860   7.393  11.008
46653W        W15058  44.356   4.841   4.787
46654W        W15059  27.274   8.167  14.014
46655W        W15060  13.441  12.570   2.312
46656W        W15061  24.395  19.559   2.263
46657W        W15062  34.625  39.433   3.201
46658W        W15063   2.541   9.712   4.519
46659W        W15064  11.450   1.749   4.007
46660W        W15065  27.788  22.447  11.162
46661W        W15066  31.398  26.582   4.239
46662W        W15067  15.826  44.933  11.382
46663W        W15068   2.479  14.137  14.393
46664W        W15069  39.423  18.816   0.708
46665W        W15070  38.155  11.708   0.302
46666W        W15071  16.070  11.178  10.259
46667W        W15072  44.005  28.491   2.691
46668W        W15073  22.727  18.300   0.180
46669W        W15074  15.812  39.104  14.711
46670W        W15075   9.173  28.570   3.206
46671W        W15076  21.702  35.162  12.490
46672W        W15077  16.055  41.994  13.647
46673W        W15078  31.609  11.859  11.511
46674W        W15079   7.108  12.838  11.119
46675W        W15080  40.834  22.155   0.207
46676W        W15081   1.521  29.208  11.649
46677W        W15082  11.142   4.662  14.948
46678W        W15083  30.452  43.403   1.679
46679W        W15084   4.382  21.443  12.438
46680W        W15085  36.596  16.417  14.453
46681W        W15086   1.934  13.840  13.577
46682W        W15087  39.847  22.887  10.977
46683W        W15088  41.813   5.909  14.476
46684W        W15089  33.960  21.269   3.304
46685W        W15090  34.858  44.607   4.986
46686W        W15091  37.453  41.428   3.094
46687W        W15092   7.400  40.392   4.532
46688W        W15093   8.315  15.181   1.760
46689W        W15094  18.164  38.493   0.106
46690W        W15095  38.413  34.323   0.334
46691W        W15096  43.317  12.996  11.794
46692W        W15097  27.440  43.544  12.061
46693W        W15098  28.949   0.911  11.741
46694W        W15099  34.456   5.640  14.496
46695W        W15100  26.129  26.158  11.518
46696W        W15101  41.007  37.542   1.162
46697W        W15102   3.374  42.219   1.783
46698W        W15103  29.775  34.688  11.240
46699W        W15104  13.001   6.904   1.429
46700W        W15105   4.365  36.993  13.485
46701W        W15106  31.121  35.257  11.232
46702W        W15107  32.460  25.410  12.933
46703W        W15108  17.589  33.469  14.541
46704W        W15109  22.161  34.912  12.453
46705W        W15110  25.266  16.754   4.555
46706W        W15111  14.271  32.087   3.696
46707W        W15112   8.395   0.511   3.751
46708W        W15113  26.651   8.314   1.681
46709W        W15114  40.902  43.086   0.806
46710W        W15115  18.669  25.269   0.216
46711W        W15116   4.940  40.799  11.559
46712W        W15117  27.657  28.481   4.524
46713W        W15118  16.323  24.899  13.467
46714W        W15119  25.616  20.190   0.479
46715W        W15120  37.833  41.398  13.614
46716W        W15121  36.406   0.975   4.959
46717W        W15122   0.376  34.283  12.570
46718W        W15123   0.291   1.928   0.237
46719W        W15124   3.441  43.895  13.083
46720W        W15125  22.065  31.720  10.994
46721W        W15126   3.367   2.242   4.193
46722W        W15127   5.039  28.188  11.117
46723W        W15128   9.838   1.898  12.998
46724W        W15129   7.425   1.481  14.542
46725W        W15130  40.659  22.028  13.411
46726W        W15131  34.567  40.478  12.474
46727W        W15132  15.589  34.547  13.371
46728W        W15133  43.110  12.442   1.194
46729W        W15134  30.940  14.094  12.549
46730W        W15135  39.386  31.379   0.387
46731W        W15136  12.249  23.030  14.494
46732W        W15137  39.027   1.987  14.997
46733W        W15138   2.383   1.124   0.435
46734W        W15139   2.804  20.536  11.152
46735W        W15140  43.502   9.168  13.230
46736W        W15141  32.097  20.767   4.412
46737W        W15142   5.961  29.090  13.738
46738W        W15143   5.600  16.191   0.452
46739W        W15144  33.411  19.201   2.454
46740W        W15145  31.196   8.117   2.664
46741W        W15146  16.464  17.721  12.773
46742W        W15147  37.111   1.865   3.588
46743W        W15148  36.429  21.670   1.529
46744W        W15149  30.968   1.661  12.914
46745W        W15150   5.517  23.704   4.071
46746W        W15151  31.533  31.157  11.959
46747W        W15152  26.628  15.810   3.656
46748W        W15153  15.183  38.513  14.972
46749W        W15154  12.560   4.259  12.096
46750W        W15155  28.645  37.528   0.359
46751W        W15156  28.243  32.582  11.625
46752W        W15157  31.678  20.597  14.553
46753W        W15158  32.496  40.217  11.014
46754W        W15159  22.836   3.724  13.843
46755W        W15160  24.956  19.952   2.834
46756W        W15161   3.297  27.397  12.179
46757W        W15162   5.737   2.249   3.348
46758W        W15163  38.481  20.288   0.446
46759W        W15164   3.340  37.564   2.181
46760W        W15165   6.218  40.302   0.970
46761W        W15166  30.374  28.536  13.861
46762W        W15167   7.908  38.311  12.524
46763W        W15168   5.841  22.379   1.462
46764W        W15169  20.514  31.123   0.766
46765W        W15170  28.348   5.890   1.962
46766W        W15171  12.671  18.739   1.961
46767W        W15172  19.668  39.157   1.052
46768W        W15173  21.806  25.979  12.439
46769W        W15174  44.429  34.208  12.048
46770W        W15175  39.987   9.950  12.073
46771W        W15176  12.269  19.569   1.401
46772W        W15177  12.115   7.012  12.055
46773W        W15178   9.238  14.206  13.555
46774W        W15179  14.360  38.223  11.027
46775W        W15180   9.445  40.802  14.558
46776W        W15181   9.276  42.300   3.325
46777W        W15182  43.924  33.526  11.673
46778W        W15183   5.710  27.157   0.518
46779W        W15184  28.772  19.293   4.571
46780W        W15185  44.881  43.418   3.621
46781W        W15186  21.677  38.080   0.962
46782W        W15187  22.154  41.144  13.395
46783W        W15188   6.962   7.668  10.567
46784W        W15189   5.967   6.474  13.359
46785W        W15190  30.438  23.060  11.598
46786W        W15191  36.411  30.651  12.103
46787W        W15192  19.108  42.365   4.256
46788W        W15193  25.437  13.166  13.955
46789W        W15194   4.016  10.899   4.750
46790W        W15195  19.077  40.517   4.129
46791W        W15196  12.317  38.421  12.087
46792W        W15197  33.073  13.776   3.362
46793W        W15198   4.785   3.990   0.312
46794W        W15199   9.839  40.745  14.909
46795W        W15200  42.290  36.398   3.662
46796W        W15201  14.684  18.251  12.911
46797W        W15202   1.573  24.673   2.830
46798W        W15203  11.403   5.260   2.191
46799W        W15204  26.568  30.250   2.375
46800W        W15205   6.483   6.122   3.182
46801W        W15206  36.733  29.441   4.697
46802W        W15207  34.427  12.187   0.832
46803W        W15208  19.215  34.030  13.912
46804W        W15209  30.490  23.924   2.376
46805W        W15210   0.306  17.311  14.961
46806W        W15211  14.874  38.882  12.088
46807W        W15212  12.268  22.176   4.116
46808W        W15213  17.796  40.903   3.246
46809W        W15214  12.854  38.340  14.895
46810W        W15215  19.200  34.143   0.253
46811W        W15216  33.679   2.966   9.968
46812W        W15217  17.759  19.704   1.262
46813W        W15218  39.072  39.975   1.749
46814W        W15219  43.903  43.842  11.989
46815W        W15220  29.543  22.546  11.386
46816W        W15221  17.454  26.517   4.662
46817W        W15222  10.135  30.625   3.265
46818W        W15223  36.110  33.198  10.447
46819W        W15224   8.640  13.935  12.479
46820W        W15225  26.315  29.631   3.164
46821W        W15226  37.897  41.857  13.297
46822W        W15227  34.341  37.721   4.784
46823W        W15228  25.624   4.155  14.359
46824W        W15229  36.312  10.666   0.846
46825W        W15230  36.425  25.680   2.717
46826W        W15231  44.812  25.570   2.305
46827W        W15232   8.114  10.326  10.690
46828W        W15233  31.978  10.322  12.146
46829W        W15234  30.507  26.936  12.401
46830W        W15235  29.210   8.184  13.550
46831W        W15236  12.239  10.597   1.046
46832W        W15237  33.518  39.890  12.992
46833W        W15238  23.091   8.183  12.673
46834W        W15239  33.898   3.513   0.485
46835W        W15240  41.932  32.218  12.082
46836W        W15241  23.110  14.549   2.247
46837W        W15242  44.686  23.693   4.856
46838W        W15243  29.454   8.331  10.598
46839W        W15244   4.252  17.743   4.575
46840W        W15245  23.312  25.490   1.662
46841W        W15246  43.162   0.592   4.197
46842W        W15247  10.860   4.681   0.412
46843W        W15248  33.166   1.782  10.769
46844W        W15249  23.035  29.826   2.219
46845W        W15250   4.325  13.455  12.013
46846W        W15251   4.665  44.426  11.610
46847W        W15252  21.766  24.573   4.552
46848W        W15253  27.644  31.202  13.978
46849W        W15254   7.606  26.512  11.240
46850W        W15255   8.306  29.367   2.826
46851W        W15256  30.439  11.765   3.752
46852W        W15257  24.583  44.541  11.685
46853W        W15258  28.022  13.916   0.915
46854W        W15259  28.140  26.301  11.344
46855W        W15260  30.171  33.512  14.688
46856W        W15261  35.502   1.580   2.239
46857W        W15262   4.513  22.971  13.342
46858W        W15263   2.570  24.542   1.800
46859W        W15264   8.599  22.402  13.571
46860W        W15265  33.955  42.035   3.113
46861W        W15266   4.842  44.165  14.397
46862W        W15267  26.617  17.535   3.359
46863W        W15268   1.648  11.316   4.560
46864W        W15269   4.476  10.362  14.039
46865W        W15270  11.277  40.350  12.140
46866W        W15271  28.140  25.002   0.759
46867W        W15272  27.159   2.229  14.131
46868W        W15273  12.774  22.102   4.260
46869W        W15274  20.282  27.615  11.052
46870W        W15275  27.435  44.003   3.650
46871W        W15276  18.100  10.401   0.421
46872W        W15277   7.381  33.536  14.195
46873W        W15278   3.504  27.612  13.134
46874W        W15279  29.259  15.186   1.454
46875W        W15280  20.340  12.058  11.051
46876W        W15281  11.410   6.192   3.529
46877W        W15282  31.543  43.538   3.689
46878W        W15283  35.809   5.791  13.842
46879W        W15284   7.379  26.996   3.743
46880W        W15285  20.735   7.736   3.719
46881W        W15286   0.254   5.358  14.811
46882W        W15287   6.889   4.289   4.627
46883W        W15288  35.204  19.778   0.445
46884W        W15289   8.908  28.714  14.806
46885W        W15290  29.242  35.806  12.501
46886W        W15291   8.469  22.121   4.485
46887W        W15292  11.748  43.943   1.178
46888W        W15293  24.038  36.841  14.265
46889W        W15294  37.313  23.610   1.212
46890W        W15295  22.046   7.810  14.444
46891W        W15296  22.615   3.232  13.490
46892W        W15297  40.760  43.133  13.015
46893W        W15298  30.867  14.550   4.644
46894W        W15299  19.827  33.844  14.422
46895W        W15300  32.683  41.537  10.715
46896W        W15301  30.873  13.640  13.941
46897W        W15302  26.433  30.727   2.215
46898W        W15303  27.521  39.879   2.325
46899W        W15304  11.262  30.565  10.293
46900W        W15305  13.798  19.754  14.555
46901W        W15306  32.965   0.961   1.335
46902W        W15307  41.869  11.160  13.426
46903W        W15308  33.879  21.496  11.335
46904W        W15309   1.821  30.554   1.070
46905W        W15310  24.939  39.268   2.338
46906W        W15311   8.937  35.980   2.369
46907W        W15312  13.147  32.801   3.134
46908W        W15313  12.801   3.197   2.413
46909W        W15314  30.473  11.213  14.056
46910W        W15315  17.393  17.699   2.463
46911W        W15316  11.962  24.620   0.846
46912W        W15317  34.869   0.024   4.610
46913W        W15318   9.471  36.583   1.854
46914W        W15319  44.213   0.056  12.186
46915W        W15320   9.183  34.585   1.005
46916W        W15321  24.191  24.472   4.174
46917W        W15322  43.300   2.836   4.195
46918W        W15323  11.095   1.460   2.326
46919W        W15324  39.368   2.918   3.637
46920W        W15325   8.085  37.567   0.433
46921W        W15326  23.284  28.973   1.623
46922W        W15327  42.823  21.031   3.839
46923W        W15328  25.631  41.394  14.944
46924W        W15329  27.829  23.981   0.795
46925W        W15330  15.044   3.031  14.465
46926W        W15331  40.474   8.636  11.084
46927W        W15332  18.643   9.314   1.693
46928W        W15333  38.827   7.838  11.775
46929W        W15334   5.921  16.227   1.773
46930W        W15335   6.196  38.438   0.316
46931W        W15336  28.794  31.066  13.070
46932W        W15337  20.544   8.114  11.459
46933W        W15338  14.585  19.715   2.626
46934W        W15339  20.230  15.684   2.385
46935W        W15340   9.283   3.198  11.584
46936W        W15341  34.920  17.174  11.516
46937W        W15342  13.385  25.689  13.757
46938W        W15343  11.281  23.516  13.553
46939W        W15344   9.794   0.281   4.615
46940W        W15345  21.283  40.541   0.873
46941W        W15346  31.733   4.937  12.612
46942W        W15347  34.793  20.665   3.418
46943W        W15348  17.231  18.240  13.945
46944W        W15349  34.380  35.884   3.631
46945W        W15350  25.899  36.035   2.710
46946W        W15351  24.556  19.363   3.626
46947W        W15352  21.155  25.704   1.770
46948W        W15353  20.683  19.747   1.469
46949W        W15354  26.617  19.739  13.024
46950W        W15355  32.568   9.273  12.882
46951W        W15356   6.513  35.993   3.140
46952W        W15357  40.046   2.775   3.219
46953W        W15358   9.245  14.902   0.856
46954W        W15359   1.381  21.637   4.593
46955W        W15360  13.317  16.742   3.831
46956W        W15361  32.965   4.296  12.480
46957W        W15362  14.285  11.532   1.171
46958W        W15363  36.014  10.799   1.238
46959W        W15364  19.420  23.112   1.211
46960W        W15365  29.148  36.658  14.598
46961W        W15366  25.537   0.875   2.168
46962W        W15367  21.696  41.940  13.485
46963W        W15368   3.025  13.859  13.566
46964W        W15369  14.540  42.497  11.579
46965W        W15370   3.410  32.125   0.725
46966W        W15371  44.858  30.861  14.843
46967W        W15372   3.029   1.654   1.731
46968W        W15373  16.668  31.474  11.965
46969W        W15374  13.564  16.068  13.506
46970W        W15375   2.102  20.765   0.751
46971W        W15376   6.302  32.958   0.511
46972W        W15377  32.424  10.032  12.169
46973W        W15378  24.627  20.486  13.444
46974W        W15379  11.788  28.506  10.763
46975W        W15380  28.323  43.367  13.427
46976W        W15381  43.958  33.539  10.785
46977W        W15382  37.173  14.536  12.420
46978W        W15383  35.321  28.070   3.136
46979W        W15384  19.631   8.671   4.493
46980W        W15385  24.058  39.764   2.751
46981W        W15386  32.074  39.283   3.077
46982W        W15387  42.423  37.525  14.206
46983W        W15388  20.066  36.896  13.931
46984W        W15389  38.658  22.307   2.742
46985W        W15390  40.466  22.214   3.323
46986W        W15391  37.494  11.598   4.589
46987W        W15392  27.458  11.578  13.084
46988W        W15393  30.914  15.440   4.090
46989W        W15394  18.224   3.729   0.071
46990W        W15395   5.935  43.455  10.736
46991W        W15396  20.040   4.677   3.320
46992W        W15397  33.603  32.458  12.527
46993W        W15398   5.731  33.647   1.009
46994W        W15399  38.002  26.107   2.187
46995W        W15400  43.951  33.233  12.126
46996W        W15401   6.684  37.130   0.002
46997W        W15402  22.007  26.003  11.165
46998W        W15403  14.560  20.542  12.358
46999W        W15404  34.821  42.043  11.218
47000W        W15405  17.057  31.432   1.882
47001W        W15406  11.775  22.327  12.491
47002W        W15407  24.707  10.851   3.613
47003W        W15408  28.225  35.995  10.311
47004W        W15409   8.901  19.620   5.003
47005W        W15410  12.847   4.785   1.784
47006W        W15411  14.935  14.067   4.169
47007W        W15412   3.513  30.549   2.306
47008W        W15413  17.023  40.848  10.713
47009W        W15414  17.320  32.284   5.479
47010W        W15415  29.222  16.351   2.566
47011W        W15416  12.775  10.379   3.731
47012W        W15417  39.808  35.366   5.098
47013W        W15418   2.889  17.036   4.877
47014W        W15419   1.632  11.846   1.593
47015W        W15420  39.592  34.868  12.616
47016W        W15421   1.414  14.785  14.819
47017W        W15422  29.038  40.445  14.105
47018W        W15423   9.580   2.917  12.946
47019W        W15424  21.689  35.650  12.605
47020W        W15425  38.778  34.384   1.737
47021W        W15426   5.831  41.243   1.696
47022W        W15427   2.165  16.719  13.765
47023W        W15428  29.900  37.620  12.001
47024W        W15429  21.140   2.375   4.438
47025W        W15430  17.010   3.475   1.400
47026W        W15431  26.255  22.695   3.659
47027W        W15432   5.333   1.748   2.654
47028W        W15433  10.423  41.418   4.646
47029W        W15434  41.089  11.768  10.922
47030W        W15435   2.674  38.418   0.315
47031W        W15436   8.714  22.785  10.817
47032W        W15437  29.024  43.006   5.118
47033W        W15438  42.003   1.120  11.650
47034W        W15439   7.822   1.304  11.113
47035W        W15440   8.773  20.671  12.960
47036W        W15441  16.562  27.797   2.486
47037W        W15442  18.428  22.076  13.301
47038W        W15443  31.348  33.486   2.326
47039W        W15444   4.202  39.079  10.922
47040W        W15445  31.156  25.116  12.991
47041W        W15446   7.263  18.136  10.713
47042W        W15447  35.421   1.405  13.777
47043W        W15448   0.495   3.200  13.143
47044W        W15449   8.221  29.891   2.727
47045W        W15450  44.470   6.909  13.811
47046W        W15451  43.722  18.243  11.697
47047W        W15452  23.766  44.464   4.118
47048W        W15453   1.848  30.882   3.119
47049W        W15454  30.132  10.650   4.100
47050W        W15455  25.046  29.581  13.877
47051W        W15456   9.184  33.366   1.828
47052W        W15457  30.470  31.867   2.835
47053W        W15458  18.277  18.387   4.280
47054W        W15459  30.983  38.346  10.710
47055W        W15460  38.674   4.820  11.806
47056W        W15461  27.708   0.428   3.698
47057W        W15462  30.873  23.418   2.467
47058W        W15463  34.471  34.518   2.651
47059W        W15464   4.204  27.967   4.636
47060W        W15465  26.711  11.849   0.985
47061W        W15466   3.779  32.708   1.160
47062W        W15467  26.642  41.196  11.480
47063W        W15468  37.956  32.565   0.205
47064W        W15469   4.060   2.262   3.434
47065W        W15470  40.929  12.707  10.515
47066W        W15471  12.895  21.316   2.938
47067W        W15472   7.571  25.123   4.982
47068W        W15473  36.934  38.516  14.820
47069W        W15474  42.085  25.142  10.785
47070W        W15475  29.623  33.092   4.108
47071W        W15476  34.012  18.483  11.118
47072W        W15477  23.818   1.038  11.067
47073W        W15478  42.577  32.075   1.685
47074W        W15479  22.094  20.612  13.815
47075W        W15480  41.877  40.353  13.880
47076W        W15481  41.396  17.115  10.686
47077W        W15482  44.789   6.282   9.779
47078W        W15483  27.592   0.734   4.094
47079W        W15484  35.136  20.460  12.587
47080W        W15485   2.838   4.233  13.097
47081W        W15486   8.471   7.392  11.522
47082W        W15487  21.515  20.637  11.555
47083W        W15488  22.048  16.832   1.336
47084W        W15489   9.422  12.787   1.774
47085W        W15490  27.261  38.969   0.007
47086W        W15491   4.734  14.827   4.474
47087W        W15492  14.054   4.301  12.108
47088W        W15493  11.547  31.115  13.509
47089W        W15494  23.135  14.126   3.069
47090W        W15495   0.199  39.509  11.276
47091W        W15496  41.252   4.698   4.656
47092W        W15497  10.691  13.586  14.238
47093W        W15498  23.733  35.467   0.276
47094W        W15499  44.199  16.188  12.410
47095W        W15500  43.849  28.700  11.097
47096W        W15501  37.134  40.902  13.932
47097W        W15502  34.282   4.645  11.201
47098W        W15503  13.018  30.857   3.312
47099W        W15504  15.103   5.296   4.630
47100W        W15505  21.175   1.258  12.812
47101W        W15506   8.325  36.914   3.121
47102W        W15507  25.440   6.038  14.954
47103W        W15508  20.486  35.997  12.401
47104W        W15509  26.055  36.118  10.413
47105W        W15510   7.664  43.431   2.712
47106W        W15511  15.346  23.300   3.236
47107W        W15512  44.566  31.508   3.699
47108W        W15513  27.111  13.264   1.296
47109W        W15514   3.434  38.318  12.577
47110W        W15515  36.345  37.645  12.637
47111W        W15516   1.860   8.863   1.270
47112W        W15517  28.042  40.258  12.500
47113W        W15518  26.695   4.858   2.177
47114W        W15519  32.706  29.830  13.217
47115W        W15520  36.314  13.528   0.853
47116W        W15521  43.452  20.218   4.768
47117W        W15522  19.511   7.296  14.330
47118W        W15523   5.954  32.049   2.347
47119W        W15524  25.451  39.823   1.888
47120W        W15525  24.153  21.087   2.117
47121W        W15526  15.604  21.220  14.874
47122W        W15527  44.166  26.267  12.435
47123W        W15528  29.389  11.707   1.217
47124W        W15529  24.108  33.083  12.801
47125W        W15530  30.976  10.771   3.418
47126W        W15531  39.599  44.302  15.000
47127W        W15532  38.422   7.511   9.678
47128W        W15533  23.072  39.623  11.543
47129W        W15534   7.910  31.139   4.127
47130W        W15535  12.895   1.202   1.405
47131W        W15536  10.725   9.956  12.833
47132W        W15537  37.011  21.044  10.248
47133W        W15538  19.086  19.028   2.393
47134W        W15539  41.291  39.592  13.805
47135W        W15540  42.296  29.840   3.145
47136W        W15541  39.117  39.355  11.666
47137W        W15542  37.053   1.471  13.467
47138W        W15543  34.157  38.268  13.151
47139W        W15544  14.659   9.402   5.058
47140W        W15545  33.519  26.729  14.782
47141W        W15546  33.828   9.800  13.493
47142W        W15547  23.822  10.867  12.580
47143W        W15548  42.487   1.398  11.798
47144W        W15549  41.900   2.712   3.804
47145W        W15550   8.347  33.935  11.609
47146W        W15551  26.438  41.627   3.183
47147W        W15552  31.518  18.964   1.893
47148W        W15553  32.972  40.828   0.434
47149W        W15554  38.266  31.007  12.451
47150W        W15555   1.001   8.454   3.679
47151W        W15556  41.363  27.012   0.977
47152W        W15557  38.272  39.284   1.886
47153W        W15558   4.147  23.966   4.485
47154W        W15559  24.118  37.783  14.018
47155W        W15560  39.008  28.336   4.123
47156W        W15561  39.943  18.459   2.664
47157W        W15562  23.191  18.469  11.775
47158W        W15563  43.781   6.968   0.432
47159W        W15564  16.163  12.724   1.753
47160W        W15565  44.329  15.617  11.979
47161W        W15566   0.060  15.934  13.919
47162W        W15567  31.170  19.731  13.041
47163W        W15568  35.422  29.202   2.769
47164W        W15569  14.400  42.595  12.339
47165W        W15570  19.042  21.990  11.385
47166W        W15571  19.934  39.259  13.812
47167W        W15572  40.841   6.021  14.626
47168W        W15573  26.478   2.760   2.722
47169W        W15574  31.404  10.702  14.753
47170W        W15575  36.628   8.277  14.395
47171W        W15576  10.181  35.809  13.860
47172W        W15577  28.015   1.010  14.082
47173W        W15578  44.774  37.860   1.427
47174W        W15579  23.448  34.918  13.905
47175W        W15580  28.120  10.632  14.903
47176W        W15581   3.236   8.371  12.948
47177W        W15582  26.316  16.388   0.824
47178W        W15583  41.968  12.253   1.043
47179W        W15584  38.810  18.976  11.686
47180W        W15585  20.539   2.583  14.392
47181W        W15586   2.000  25.718   1.670
47182W        W15587  23.861  32.282  10.541
47183W        W15588  31.430   8.141   4.379
47184W        W15589   5.711  15.801  13.789
47185W        W15590   2.699  17.182  14.916
47186W        W15591   6.279   1.346   0.237
47187W        W15592  12.008  16.600   9.968
47188W        W15593  32.580  37.559   1.569
47189W        W15594   9.737  24.601  12.900
47190W        W15595  16.780  22.703   4.507
47191W        W15596   0.221  41.292  11.665
47192W        W15597  42.981  41.353   4.251
47193W        W15598  37.882  27.310  14.557
47194W        W15599   7.542  12.103   1.942
47195W        W15600  14.143   3.809  10.656
47196W        W15601  44.240   7.404   3.839
47197W        W15602  27.185   9.080  14.025
47198W        W15603  21.330   5.330  12.176
47199W        W15604  23.018  33.165   0.831
47200W        W15605  21.733  29.424  14.759
47201W        W15606  41.447   2.459   3.895
47202W        W15607   6.500   3.095   0.715
47203W        W15608   7.406  19.683   0.637
47204W        W15609  21.042   6.444  12.954
47205W        W15610   0.332  21.576   2.224
47206W        W15611  14.029  37.252  11.101
47207W        W15612  20.268   2.020   4.477
47208W        W15613  18.602   5.182   1.296
47209W        W15614   9.651  36.459   2.363
47210W        W15615  33.383   0.135   2.006
47211W        W15616  20.719  14.128  12.837
47212W        W15617  23.074   5.196   4.869
47213W        W15618   9.165  42.050  14.865
47214W        W15619  18.740  22.149  13.689
47215W        W15620  40.565  28.193   5.081
47216W        W15621  37.117  24.141  11.321
47217W        W15622  41.588  27.403   1.238
47218W        W15623  42.847   9.067   4.987
47219W        W15624   2.193   4.327   0.893
47220W        W15625   5.744   4.821   2.193
47221W        W15626  22.291  10.629  14.079
47222W        W15627  37.514   2.866  13.786
47223W        W15628   1.706  12.728   2.220
47224W        W15629  18.203  11.146   2.884
47225W        W15630  17.223   6.888   3.795
47226W        W15631  17.729  40.407  12.106
47227W        W15632  44.985  12.715   4.750
47228W        W15633   2.473   5.932   3.860
47229W        W15634  43.820   9.156  14.301
47230W        W15635   7.932  11.615   1.495
47231W        W15636  17.590  14.636   4.794
47232W        W15637  26.019  17.020   2.288
47233W        W15638   4.369  23.202   3.998
47234W        W15639  40.384  14.573   0.903
47235W        W15640  13.113  33.583  11.047
47236W        W15641  26.307  44.455  10.755
47237W        W15642  17.711  19.467   3.758
47238W        W15643   7.920  23.504   2.723
47239W        W15644  25.008   8.307   3.689
47240W        W15645  17.019   2.299  13.488
47241W        W15646  27.872   0.213  10.189
47242W        W15647  22.430  41.513   4.116
47243W        W15648  31.678   4.773  11.191
47244W        W15649   1.999   2.814  13.371
47245W        W15650  42.290  10.133   2.655
47246W        W15651  34.943  29.236   3.695
47247W        W15652  13.803   9.153  11.019
47248W        W15653   8.732  42.060  12.668
47249W        W15654  18.004  28.576   0.969
47250W        W15655   6.501  29.634  10.097
47251W        W15656  13.788  18.775  12.066
47252W        W15657  26.415   4.711   0.363
47253W        W15658   1.487  25.605   0.470
47254W        W15659  39.943  29.261  12.191
47255W        W15660  24.457  19.759  11.292
47256W        W15661  13.350  13.083   0.453
47257W        W15662  26.063  13.452   0.374
47258W        W15663  23.745  10.672  11.214
47259W        W15664  38.335   6.307  13.380
47260W        W15665   4.510  26.617   2.270
47261W        W15666   3.138  12.930   3.583
47262W        W15667   2.687  24.489  14.950
47263W        W15668  18.816  26.021  11.584
47264W        W15669  14.174   9.715   4.363
47265W        W15670   1.326  13.596   3.565
47266W        W15671   9.650  15.807  14.942
47267W        W15672   2.246   8.325  13.720
47268W        W15673  17.839   1.496   3.273
47269W        W15674  15.870   4.531  10.743
47270W        W15675  37.017   6.184  11.195
47271W        W15676  43.285  27.930   2.789
47272W        W15677  28.571  34.000  11.212
47273W        W15678  18.646  11.079   4.147
47274W        W15679  11.650  23.514   0.522
47275W        W15680   6.310   2.806   3.359
47276W        W15681  23.170  30.443   1.797
47277W        W15682  32.399  39.986   1.137
47278W        W15683   3.467  25.034   0.730
47279W        W15684  34.032  41.732   0.447
47280W        W15685  37.172  18.928   0.960
47281W        W15686  34.814  20.090  13.508
47282W        W15687  41.970  34.454  14.298
47283W        W15688  21.763   8.791  14.005
47284W        W15689  14.650  19.717   0.829
47285W        W15690  27.288  36.675  13.326
47286W        W15691  17.864  21.618   2.844
47287W        W15692  10.879  35.347   2.792
47288W        W15693   9.750  31.799  10.956
47289W        W15694  11.349  22.260   4.528
47290W        W15695   9.388  17.008  12.104
47291W        W15696  38.385  41.872  14.709
47292W        W15697  40.901  31.754   0.460
47293W        W15698   5.125  17.389   2.805
47294W        W15699  10.813   8.300   2.664
47295W        W15700  23.211  31.933  10.686
47296W        W15701  15.349  40.043  12.177
47297W        W15702  39.150   8.007   4.107
47298W        W15703  30.597  38.098   3.306
47299W        W15704  29.519  15.723   0.469
47300W        W15705  10.674  43.887   1.217
47301W        W15706  29.702   5.656  10.354
47302W        W15707  21.102   2.332   4.965
47303W        W15708  12.197  39.795   0.792
47304W        W15709   4.971   3.233   1.427
47305W        W15710   1.826  11.555   4.094
47306W        W15711  43.138  26.614  14.686
47307W        W15712   9.916  31.583   2.677
47308W        W15713  22.989  33.273  10.789
47309W        W15714  13.663  34.265  14.900
47310W        W15715   7.717  29.893   2.661
47311W        W15716  27.699  36.433   3.241
47312W        W15717  22.485   3.396   1.300
47313W        W15718   9.807  43.274  13.702
47314W        W15719  24.650  35.922  11.552
47315W        W15720  33.770  43.378  12.553
47316W        W15721  42.786   2.736   2.823
47317W        W15722  43.318  36.293   1.696
47318W        W15723  24.634   8.610  12.014
47319W        W15724  19.431  15.254   2.455
47320W        W15725  38.632  27.581   0.204
47321W        W15726  44.231  21.053  13.000
47322W        W15727  26.889  11.497  11.152
47323W        W15728  44.812   5.080   1.598
47324W        W15729  21.077   5.301  11.310
47325W        W15730   0.315  28.976  13.130
47326W        W15731  34.358  32.130   4.521
47327W        W15732  20.376   3.706   0.745
47328W        W15733   1.158  33.082   1.792
47329W        W15734  15.787  21.143   3.177
47330W        W15735  29.977  31.937  10.665
47331W        W15736  42.451   0.230   4.409
47332W        W15737   4.032  41.119  13.704
47333W        W15738   1.820  35.565   1.159
47334W        W15739  16.769  15.503  12.028
47335W        W15740  17.627  24.292   0.827
47336W        W15741  14.610  23.644  11.370
47337W        W15742  10.876   3.564   1.339
47338W        W15743  27.724  19.107  12.874
47339W        W15744  17.518  36.994  14.804
47340W        W15745  34.909  31.926  12.388
47341W        W15746  30.032  38.262   1.557
47342W        W15747  36.911   6.686   4.575
47343W        W15748   3.421  18.222  11.569
47344W        W15749  39.716  31.402  12.940
47345W        W15750   7.387  44.395   1.635
47346W        W15751   6.231  21.519  12.912
47347W        W15752  23.002  41.130  11.385
47348W        W15753   4.728  13.517   0.312
47349W        W15754  32.939  16.341   3.730
47350W        W15755  28.102  39.078   1.345
47351W        W15756  18.738  25.747  14.095
47352W        W15757  36.521   0.802   0.957
47353W        W15758  16.370  29.347   4.038
47354W        W15759  43.519   0.501  14.526
47355W        W15760  13.419  20.551   2.232
47356W        W15761  44.775   5.622  10.551
47357W        W15762  24.189  15.332  14.466
47358W        W15763  36.479  33.633   2.237
47359W        W15764  24.259  21.636  13.443
47360W        W15765   9.374  18.032  12.530
47361W        W15766   5.981  34.978   0.913
47362W        W15767  38.340  30.554  14.935
47363W        W15768  43.045  26.283  10.614
47364W        W15769  44.975  38.815  10.777
47365W        W15770  29.943   7.378   3.759
47366W        W15771  17.340  37.525  12.920
47367W        W15772  38.371   1.466   2.494
47368W        W15773  12.927  30.320   4.125
47369W        W15774  14.118   4.454   2.367
47370W        W15775  20.776  43.577   0.709
47371W        W15776  30.212  24.663   1.871
47372W        W15777  16.549  43.924  14.768
47373W        W15778  19.309   9.194   2.453
47374W        W15779  31.811  16.631  12.430
47375W        W15780  15.203  21.010  11.087
47376W        W15781  37.313  23.565  10.020
47377W        W15782  37.984  36.655   1.768
47378W        W15783   4.780  30.975  10.592
47379W        W15784  22.764  27.351  11.060
47380W        W15785   4.548  17.242  10.617
47381W        W15786  18.693  20.573  10.282
47382W        W15787  40.438  11.370  14.916
47383W        W15788  28.192  39.383   0.897
47384W        W15789  26.915  25.211   0.005
47385W        W15790  39.150   6.853   2.595
47386W        W15791   9.251  42.957  14.422
47387W        W15792  43.151  32.165  14.938
47388W        W15793   6.337   2.851   2.845
47389W        W15794  28.483   3.134   2.648
47390W        W15795  32.920  18.104  12.820
47391W        W15796  25.091  28.185  11.255
47392W        W15797  38.327  36.173  11.191
47393W        W15798  44.987  39.469   2.184
47394W        W15799  11.609  14.743   1.680
47395W        W15800  39.336  17.212   0.722
47396W        W15801  39.832  10.693   3.186
47397W        W15802  17.698  43.981   3.357
47398W        W15803  31.208  36.004   2.851
47399W        W15804  31.576  14.597  12.026
47400W        W15805  27.931  38.455  10.259
47401W        W15806  15.742  43.433  14.929
47402W        W15807   7.626  23.053   0.824
47403W        W15808  19.168   6.571  14.272
47404W        W15809  13.728  21.588  13.045
47405W        W15810  41.506  40.804  12.574
47406W        W15811  42.778  19.113   4.256
47407W        W15812  27.023  41.064  14.357
47408W        W15813  21.999  19.633   4.628
47409W        W15814  44.418   3.437   0.516
47410W        W15815   6.015  21.875   0.865
47411W        W15816   7.119  44.537  14.762
47412W        W15817  40.985  19.077   4.034
47413W        W15818   0.660  23.024   0.187
47414W        W15819  34.442  20.343   4.811
47415W        W15820  44.952  30.171  13.434
47416W        W15821  39.610   7.244   3.670
47417W        W15822  28.740   4.940  14.711
47418W        W15823   4.225  12.668  14.365
47419W        W15824  41.047  17.281  11.514
47420W        W15825   7.708  20.066   0.455
47421W        W15826  17.631   0.317  13.841
47422W        W15827  23.420   9.950  11.779
47423W        W15828  39.941  10.088  12.609
47424W        W15829  19.574  43.375   1.849
47425W        W15830  39.912  35.087   4.625
47426W        W15831  33.128  16.869  14.579
47427W        W15832  13.112   6.042   0.529
47428W        W15833  37.756  24.097   4.728
47429W        W15834  25.564  43.984  11.914
47430W        W15835  38.911  43.724   1.737
47431W        W15836  38.029  35.794   4.538
47432W        W15837  33.027   8.190   0.805
47433W        W15838  34.674   3.800   2.105
47434W        W15839   9.782   3.678   2.672
47435W        W15840  43.297  15.739   1.521
47436W        W15841  35.325  12.185  11.176
47437W        W15842   0.390  13.666   0.274
47438W        W15843   8.093   6.066   1.438
47439W        W15844  34.131   9.778   3.732
47440W        W15845   4.183  29.073  14.043
47441W        W15846  41.888  40.280   1.849
47442W        W15847   8.767  39.055  14.410
47443W        W15848   7.693  21.677   3.581
47444W        W15849   6.255  31.525   3.786
47445W        W15850  32.852  44.935  14.432
47446W        W15851  42.085   5.495  10.739
47447W        W15852  34.058  17.499  13.827
47448W        W15853  11.735  26.215  10.607
47449W        W15854  43.611  36.489   3.390
47450W        W15855  42.012   8.253  13.861
47451W        W15856  42.091  40.561  11.591
47452W        W15857  42.161   6.764   1.342
47453W        W15858  36.865  24.926   4.545
47454W        W15859  11.249  11.959   0.866
47455W        W15860  34.846  40.544  12.030
47456W        W15861  18.550   4.035  11.925
47457W        W15862   6.613  37.419   3.774
47458W        W15863  37.287  12.900   4.133
47459W        W15864  24.681  25.542  14.532
47460W        W15865  22.774   2.385  14.065
47461W        W15866  10.725  32.174  12.661
47462W        W15867  40.295  15.341  11.556
47463W        W15868  14.704   6.927   4.214
47464W        W15869   7.755  19.122  12.962
47465W        W15870  23.976  22.370  10.432
47466W        W15871  18.613  34.572  12.618
47467W        W15872  24.179  39.742   0.940
47468W        W15873  14.194  15.320  10.442
47469W        W15874  27.193   0.362   0.937
47470W        W15875  40.034  35.728  11.975
47471W        W15876  44.260  11.779  14.157
47472W        W15877  26.351   7.629  13.549
47473W        W15878  19.097  18.715   0.184
47474W        W15879  14.085   3.845  14.770
47475W        W15880  33.620  23.124   2.949
47476W        W15881  25.129  31.004  14.767
47477W        W15882  35.146  34.469   2.299
47478W        W15883   3.719  24.644  11.268
47479W        W15884  22.567  39.368   2.773
47480W        W15885  24.219  42.375  10.802
47481W        W15886  11.306  36.930  12.526
47482W        W15887  28.375  20.051   3.143
47483W        W15888  21.626  10.344   4.017
47484W        W15889  29.798  12.023   4.266
47485W        W15890   5.465  17.029  13.091
47486W        W15891   1.887   6.456   1.313
47487W        W15892  10.713   0.586   1.021
47488W        W15893  13.904   2.566  13.180
47489W        W15894  25.181  25.695   0.940
47490W        W15895  15.890  25.634   2.985
47491W        W15896  39.632  20.137   0.866
47492W        W15897  43.408  37.737  10.794
47493W        W15898  27.301  36.964  12.042
47494W        W15899   4.597  34.637   0.014
47495W        W15900  14.882   0.506  10.590
47496W        W15901  15.167   9.897   0.534
47497W        W15902  40.125  32.225  14.575
47498W        W15903  10.450  23.573  10.752
47499W        W15904  18.774  18.581  12.058
47500W        W15905  41.315   4.556   3.580
47501W        W15906  21.378  29.701  14.018
47502W        W15907  17.943  21.989  13.449
47503W        W15908  31.508  17.197   1.629
47504W        W15909  38.512  35.307   4.122
47505W        W15910  18.005   0.752  13.752
47506W        W15911  37.833  27.062  11.381
47507W        W15912   5.240  17.874   2.619
47508W        W15913  11.686  30.480   0.962
47509W        W15914  15.723  38.177  10.931
47510W        W15915  11.802  41.805  11.895
47511W        W15916  28.655   7.276   0.636
47512W        W15917  32.430   2.864   0.291
47513W        W15918  31.667  41.625   3.253
47514W        W15919  15.706  30.693   1.085
47515W        W15920  18.588  23.751  14.451
47516W        W15921  29.198  34.875  12.510
47517W        W15922  10.352  20.639  11.210
47518W        W15923  20.993   9.279  14.057
47519W        W15924   9.677  29.384  11.887
47520W        W15925  22.160  30.385  11.680
47521W        W15926  37.909  33.026  12.881
47522W        W15927  18.200  31.460  11.737
47523W        W15928  18.178  32.766   2.600
47524W        W15929   7.816   5.284  12.346
47525W        W15930  26.526  34.900  11.575
47526W        W15931  32.557  41.408   3.608
47527W        W15932   9.738  35.570   2.255
47528W        W15933  36.538  27.335  11.659
47529W        W15934  24.432  41.989   3.692
47530W        W15935  13.954   9.960   5.286
47531W        W15936  22.293  33.148   0.405
47532W        W15937  21.761  11.694   1.960
47533W        W15938  41.855  11.792   0.031
47534W        W15939  38.122  18.796   0.950
47535W        W15940  39.158  19.300  11.470
47536W        W15941  39.465   5.884  11.058
47537W        W15942  11.686  35.506   3.618
47538W        W15943  42.966  28.531  12.468
47539W        W15944  13.731  40.023  10.917
47540W        W15945  35.292  29.051  13.535
47541W        W15946  23.790   6.460  11.286
47542W        W15947  31.951  38.839   2.849
47543W        W15948  28.674  21.609   0.328
47544W        W15949  19.247  26.954   4.790
47545W        W15950   1.915  36.286  12.475
47546W        W15951  10.251  42.687   2.904
47547W        W15952   4.218  20.116   2.420
47548W        W15953  36.880  15.343  11.998
47549W        W15954   4.167  33.559   1.925
47550W        W15955  25.824  39.268  14.980
47551W        W15956  14.703   1.934   4.233
47552W        W15957   6.620  25.194  10.339
47553W        W15958  35.302  10.782  12.515
47554W        W15959  16.407  33.987   3.141
47555W        W15960  18.159  18.312   0.191
47556W        W15961   1.129  25.046  13.633
47557W        W15962  32.035  42.487   0.537
47558W        W15963  20.141  41.543   1.789
47559W        W15964  21.362  41.251   2.400
47560W        W15965  40.310  41.776  14.236
47561W        W15966  24.265  38.617  13.410
47562W        W15967  21.763  10.752   2.341
47563W        W15968  40.263  43.271  12.939
47564W        W15969   0.679  21.270   2.852
47565W        W15970  19.596  44.972   2.554
47566W        W15971  28.342  37.982   0.758
47567W        W15972  18.781  20.182   0.354
47568W        W15973  10.010  37.911   3.953
47569W        W15974  17.870   7.466   1.854
47570W        W15975   9.799  10.014   1.255
47571W        W15976   7.905  26.129  11.407
47572W        W15977  20.226   7.689  13.938
47573W        W15978  35.604  29.390   1.704
47574W        W15979  37.264  21.294   0.005
47575W        W15980  28.104  42.409   2.450
47576W        W15981  30.263  40.281  11.683
47577W        W15982  15.178   8.991   0.295
47578W        W15983   5.357  24.205   3.178
47579W        W15984   6.715   2.338  10.936
47580W        W15985  28.225  39.453  12.827
47581W        W15986   6.812  16.121   4.178
47582W        W15987  21.538  27.443   1.281
47583W        W15988  29.979   3.835   3.369
47584W        W15989  20.735   5.681   2.716
47585W        W15990  28.928  23.768  14.039
47586W        W15991   1.416  16.366   0.035
47587W        W15992  19.809  19.642   1.314
47588W        W15993  13.372  20.827  11.096
47589W        W15994  33.069  25.668   2.572
47590W        W15995   4.835  38.980   3.287
47591W        W15996  37.968  15.826   4.937
47592W        W15997  10.181  37.562   1.811
47593W        W15998   9.395  21.643  10.890
47594W        W15999  40.344  42.992  10.183
47595W        W16000  37.575  19.635  14.277
47596W        W16001  42.481   1.246   3.208
47597W        W16002  29.901  16.324   4.040
47598W        W16003  16.181  23.998  14.930
47599W        W16004  42.507  21.299  12.063
47600W        W16005   6.329  38.372  11.681
47601W        W16006  33.280  32.995   3.816
47602W        W16007  29.160  36.970  12.328
47603W        W16008  11.301  36.553  13.459
47604W        W16009   7.424   4.501  10.677
47605W        W16010  10.643   4.298   3.387
47606W        W16011  35.576  27.633   1.197
47607W        W16012  19.586  28.835   1.929
47608W        W16013   0.817   1.596   2.873
47609W        W16014  40.984   8.901   1.598
47610W        W16015  13.109  41.913   2.097
47611W        W16016  11.283  33.409  12.500
47612W        W16017  35.957  26.910  14.441
47613W        W16018  36.927  39.095  13.464
47614W        W16019   5.951  37.177  11.671
47615W        W16020  14.251  10.088   4.736
47616W        W16021  18.362  36.339  13.464
47617W        W16022   5.398  20.603  12.451
47618W        W16023   5.485  15.949   2.982
47619W        W16024   4.881  16.051  14.401
47620W        W16025   5.496  23.832  13.830
47621W        W16026  27.524   2.920   3.997
47622W        W16027   2.278  35.046   4.511
47623W        W16028  20.157  21.973   1.018
47624W        W16029  12.369  26.988  11.556
47625W        W16030  44.001  20.960   0.458
47626W        W16031  22.590   2.999  12.501
47627W        W16032  33.621  27.902   3.255
47628W        W16033  25.257  30.638  13.946
47629W        W16034   5.945  20.993   0.942
47630W        W16035  34.057  28.702   3.093
47631W        W16036  18.028  18.513   2.806
47632W        W16037  44.691   0.360  11.485
47633W        W16038   7.427  13.353  12.059
47634W        W16039   5.733  36.871   3.175
47635W        W16040   6.006  39.293   2.749
47636W        W16041   3.373  21.177   1.668
47637W        W16042  17.781   6.302   5.305
47638W        W16043  11.626  27.762  14.824
47639W        W16044  19.016  35.844   3.803
47640W        W16045  31.039  27.656  12.053
47641W        W16046   6.795  12.651   3.821
47642W        W16047   3.856  38.090  12.369
47643W        W16048  19.665  26.057   1.775
47644W        W16049   7.860  15.639  14.219
47645W        W16050  11.270  43.683  14.256
47646W        W16051  19.305  40.591  10.662
47647W        W16052  32.315  33.829   1.042
47648W        W16053  25.285   7.379  12.072
47649W        W16054   2.711  29.460   2.743
47650W        W16055  11.432  26.113   4.551
47651W        W16056  12.549  39.290   0.905
47652W        W16057  10.209  22.494   1.996
47653W        W16058  18.627  38.901   2.223
47654W        W16059  15.068  41.914  14.053
47655W        W16060  30.154   2.992   0.012
47656W        W16061  31.637  32.913   2.639
47657W        W16062  10.675  10.155  10.103
47658W        W16063  39.050  42.459  14.020
47659W        W16064   4.639  39.070  10.638
47660W        W16065  39.198  31.512  11.186
47661W        W16066  39.933   1.074   2.060
47662W        W16067  25.129  12.614  14.522
47663W        W16068  31.539  27.981   2.955
47664W        W16069   2.553  16.297  12.965
47665W        W16070  32.152   2.776  13.983
47666W        W16071  18.553  27.217  14.999
47667W        W16072   2.643  19.405  11.421
47668W        W16073  29.577   9.291  13.045
47669W        W16074  35.444  14.610  11.547
47670W        W16075  17.285  14.069  12.332
47671W        W16076   9.199  35.108   2.733
47672W        W16077  27.719   1.990  11.529
47673W        W16078   4.851  27.508  12.761
47674W        W16079  29.004  25.693   3.831
47675W        W16080  44.297  43.753  14.937
47676W        W16081  38.850  17.375   2.329
47677W        W16082  38.349  36.073  12.407
47678W        W16083  10.640  33.816   3.086
47679W        W16084  11.187  38.828  12.125
47680W        W16085   4.881   3.964   1.778
47681W        W16086  29.586  30.196   1.531
47682W        W16087  14.869   4.835   4.155
47683W        W16088  32.860  36.279  12.072
47684W        W16089  21.206  30.863   2.196
47685W        W16090  27.910  35.081  14.943
47686W        W16091  19.753   9.876  14.317
47687W        W16092   3.775   2.727   3.782
47688W        W16093   4.765  14.802  14.910
47689W        W16094   1.722   9.045   5.033
47690W        W16095  21.132   9.412   4.603
47691W        W16096  22.126   7.153   3.783
47692W        W16097   0.333  15.728   1.649
47693W        W16098  27.154  32.449  13.291
47694W        W16099  36.626  17.163  12.836
47695W        W16100  37.014   3.009  13.499
47696W        W16101  42.833   6.295   2.798
47697W        W16102  10.340  16.965  11.664
47698W        W16103  29.633  43.545   4.518
47699W        W16104  43.214   4.707   0.418
47700W        W16105  34.834  34.064   2.467
47701W        W16106   9.820  17.036   0.396
47702W        W16107  40.995   0.852   0.869
47703W        W16108   1.280  35.552  10.710
47704W        W16109  36.425  21.717  14.475
47705W        W16110  27.034  20.750   4.110
47706W        W16111   0.460  34.091  14.401
47707W        W16112   8.353  12.538  14.087
47708W        W16113  23.082  31.418   1.673
47709W        W16114   7.664   7.646   0.026
47710W        W16115  19.352   2.990   1.367
47711W        W16116  34.610  19.342  11.616
47712W        W16117   2.389  30.678   3.644
47713W        W16118  26.930  14.135  12.829
47714W        W16119  24.314  41.774  11.683
47715W        W16120  13.198   9.337  14.480
47716W        W16121  34.482  40.366   1.197
47717W        W16122  17.204  20.404   4.347
47718W        W16123  28.547  14.428   1.402
47719W        W16124  34.354  30.479  12.749
47720W        W16125  30.991  41.660  14.031
47721W        W16126  41.892  35.452  14.418
47722W        W16127  40.902  36.095   1.010
47723W        W16128  31.896  42.235  14.960
47724W        W16129  26.877   7.924  12.441
47725W        W16130   1.717   3.233   3.237
47726W        W16131  27.916  20.257   3.221
47727W        W16132   8.399  20.731   2.874
47728W        W16133   1.146  32.126  11.975
47729W        W16134  37.829  40.032  10.738
47730W        W16135  27.598  25.754  11.993
47731W        W16136  29.100   2.474   0.927
47732W        W16137  13.207  25.598  12.899
47733W        W16138  26.510  31.871   3.540
47734W        W16139  28.402  16.745  14.260
47735W        W16140   5.737   7.777   0.861
47736W        W16141   7.132  32.617  12.538
47737W        W16142   2.358   0.866  12.196
47738W        W16143  29.117   5.790   4.117
47739W        W16144   5.776  38.130  13.068
47740W        W16145  37.598   6.769   0.413
47741W        W16146  40.872  25.051  13.320
47742W        W16147   0.289  23.665   4.154
47743W        W16148  37.087   2.064   9.660
47744W        W16149  14.308   6.330  13.761
47745W        W16150  15.737   5.332   4.003
47746W        W16151  42.894  12.295   2.617
47747W        W16152  11.892  18.940  11.158
47748W        W16153  26.947  30.529  12.171
47749W        W16154  22.608  43.976   1.400
47750W        W16155   9.612  37.348  11.935
47751W        W16156   8.007   8.427  12.978
47752W        W16157  37.409   3.421   0.963
47753W        W16158   4.753   4.880  10.688
47754W        W16159   3.411  28.074  14.410
47755W        W16160  23.538   6.531   2.725
47756W        W16161  31.911  31.883   0.889
47757W        W16162  19.010  21.592   3.586
47758W        W16163   8.839  41.257   0.799
47759W        W16164  17.425  44.797   3.367
47760W        W16165  28.074   7.819   0.770
47761W        W16166  30.026  31.205  12.413
47762W        W16167   4.722  35.120  14.825
47763W        W16168  29.973  13.073   4.355
47764W        W16169   0.270  16.453   3.175
47765W        W16170  24.603  37.505   0.989
47766W        W16171  17.238  15.722   3.710
47767W        W16172   6.118  40.765   1.736
47768W        W16173  21.113  40.504   1.381
47769W        W16174  30.572  37.516   3.761
47770W        W16175  19.620  36.421   1.201
47771W        W16176   3.524  13.264   3.669
47772W        W16177  42.945  18.065   9.931
47773W        W16178  31.457  10.021  10.734
47774W        W16179  35.975  26.961   4.081
47775W        W16180  17.554  21.825   0.016
47776W        W16181  25.248  20.689  12.648
47777W        W16182  20.863  30.901   4.646
47778W        W16183   3.295  38.415  11.406
47779W        W16184  25.290  37.652   4.821
47780W        W16185  21.203  19.507   3.715
47781W        W16186  35.051  33.150   2.260
47782W        W16187  40.906  26.732   1.880
47783W        W16188  10.178  15.425   1.110
47784W        W16189  43.990   8.881   2.691
47785W        W16190  12.087  31.171   3.306
47786W        W16191  35.484   0.223   2.113
47787W        W16192  41.901  31.206   2.681
47788W        W16193  17.636  24.096   2.447
47789W        W16194  30.001  22.008  10.583
47790W        W16195  17.174   4.873  10.681
47791W        W16196   1.987  42.929  10.640
47792W        W16197  37.854  41.366   4.122
47793W        W16198   8.392  20.636  10.354
47794W        W16199  28.894   8.534   3.234
47795W        W16200  19.174  22.301  14.362
47796W        W16201  18.484  43.897  14.550
47797W        W16202  30.724  44.482   4.955
47798W        W16203  21.252   2.220   0.545
47799W        W16204  37.371   6.256  10.542
47800W        W16205  42.448  14.179  11.256
47801W        W16206  37.781   9.875   0.366
47802W        W16207  23.296   2.431   1.351
47803W        W16208  36.905  27.995  12.435
47804W        W16209  11.675   7.225  10.725
47805W        W16210  25.729  25.621  11.024
47806W        W16211  14.704  19.526  14.896
47807W        W16212  26.762   2.467   3.628
47808W        W16213  36.420  16.254   4.250
47809W        W16214  33.992  32.282   1.508
47810W        W16215  13.162  12.617   0.637
47811W        W16216  15.711  34.651   4.512
47812W        W16217  43.886  31.557  11.983
47813W        W16218  33.246  28.222  11.690
47814W        W16219  40.089  36.719   1.961
47815W        W16220  20.975   1.765   0.515
47816W        W16221  23.021  44.704   0.781
47817W        W16222   7.141  44.882  12.180
47818W        W16223   1.795  26.102  11.513
47819W        W16224  20.078  35.045  13.461
47820W        W16225  42.571  21.509   2.098
47821W        W16226  37.163  16.399   4.885
47822W        W16227  26.303  40.795  14.797
47823W        W16228  23.004   9.256   3.291
47824W        W16229  19.765   5.209  11.657
47825W        W16230   1.875   5.531  10.700
47826W        W16231  10.939  24.206   0.410
47827W        W16232  26.908  19.616  14.000
47828W        W16233  32.901  24.540  14.922
47829W        W16234  16.856  36.920  13.975
47830W        W16235   5.826  35.365  11.235
47831W        W16236  25.130  18.569   4.566
47832W        W16237   3.496  17.222  10.769
47833W        W16238  22.716   1.402   4.725
47834W        W16239   4.350  38.734  13.443
47835W        W16240  12.335  38.371   2.642
47836W        W16241  19.487  22.179  11.508
47837W        W16242  34.149  25.062  11.506
47838W        W16243  12.403  34.670  12.457
47839W        W16244  38.116  13.782  14.611
47840W        W16245  17.766  44.314  14.898
47841W        W16246   0.902  26.370   2.077
47842W        W16247  25.928  43.543  12.730
47843W        W16248   9.867   3.205  13.344
47844W        W16249  21.623  32.889   4.783
47845W        W16250  11.545   4.353  10.479
47846W        W16251  42.917  41.935   4.867
47847W        W16252  21.222   1.245  14.796
47848W        W16253  33.581   7.502   0.765
47849W        W16254  39.228   4.753  13.277
47850W        W16255   5.893  33.612  14.055
47851W        W16256  35.871  26.008   3.782
47852W        W16257   9.957   6.425  10.993
47853W        W16258   7.762  15.088  14.113
47854W        W16259   3.238  28.591   2.799
47855W        W16260  23.043   2.632  14.441
47856W        W16261  40.620  30.437  11.988
47857W        W16262  36.372  44.467  14.388
47858W        W16263  15.582  10.043   1.950
47859W        W16264  33.202  44.570  11.530
47860W        W16265  24.645  42.466   1.257
47861W        W16266   7.759  21.416  12.928
47862W        W16267   7.857  18.292  10.842
47863W        W16268  19.668  25.002   4.057
47864W        W16269   3.117  10.718  14.831
47865W        W16270   4.331  19.970   2.915
47866W        W16271  13.287  41.123   2.715
47867W        W16272   0.903  20.520   4.073
47868W        W16273  40.564   3.534  11.592
47869W        W16274   3.905  27.891  14.528
47870W        W16275   2.262  18.516   2.617
47871W        W16276  28.471  33.557   0.810
47872W        W16277  12.534  20.363  13.929
47873W        W16278  29.953  32.184  14.607
47874W        W16279  40.082  44.469  14.898
47875W        W16280   7.208   2.478   1.344
47876W        W16281  34.789  19.202  14.927
47877W        W16282  32.566  20.738  13.082
47878W        W16283   6.060  43.573   1.530
47879W        W16284  19.105  20.818  12.650
47880W        W16285  16.283  12.940   2.794
47881W        W16286  44.069   2.042   2.839
47882W        W16287  17.549  13.727   0.536
47883W        W16288  18.639  40.221   4.054
47884W        W16289   5.712  43.948   0.758
47885W        W16290  41.671  10.673   3.776
47886W        W16291   7.156  12.617  13.879
47887W        W16292  18.723  13.797   4.584
47888W        W16293  10.141  42.808   3.779
47889W        W16294  16.620   4.814   4.868
47890W        W16295  35.069  43.466   1.903
47891W        W16296  15.878   6.892  12.002
47892W        W16297  33.584  31.434   1.450
47893W        W16298  33.346  38.860   0.716
47894W        W16299  37.505  22.149  14.977
47895W        W16300   7.866  19.440   3.670
47896W        W16301  16.214   9.704   1.989
47897W        W16302   8.901  19.395   2.762
47898W        W16303   1.167   8.921  10.599
47899W        W16304   1.028   6.209   1.384
47900W        W16305  24.065   7.067  12.652
47901W        W16306  19.499  37.053  13.825
47902W        W16307  21.727  23.329   1.379
47903W        W16308   3.724  44.600  10.286
47904W        W16309  39.345  17.272  12.591
47905W        W16310  20.864  43.982   1.625
47906W        W16311  32.366  10.181  10.611
47907W        W16312  14.823  36.571   4.483
47908W        W16313  38.560  18.734  13.650
47909W        W16314  32.872  31.967  12.645
47910W        W16315  27.551  16.238  13.508
47911W        W16316   1.828  19.316  14.406
47912W        W16317  29.486  10.419  13.691
47913W        W16318  42.840  18.543  13.611
47914W        W16319  42.516   5.752  10.028
47915W        W16320  23.223  40.410   1.409
47916W        W16321  38.781  43.195   0.757
47917W        W16322   7.874   3.398  11.165
47918W        W16323  14.412   0.300   1.050
47919W        W16324  29.423  16.505  14.799
47920W        W16325   3.477   2.141   0.872
47921W        W16326  15.103  34.912   2.413
47922W        W16327  12.022  34.709  14.174
47923W        W16328  34.720   6.901  11.305
47924W        W16329   0.356   1.368   2.716
47925W        W16330  37.827  17.327  14.872
47926W        W16331  16.982  23.297   1.237
47927W        W16332  13.520   1.023   0.648
47928W        W16333  13.192  38.619   1.493
47929W        W16334  19.486  42.846  12.875
47930W        W16335  13.817  41.626   1.914
47931W        W16336  15.348  39.456   3.772
47932W        W16337  42.531   9.591  11.966
47933W        W16338  35.426  13.617  14.313
47934W        W16339  20.278  15.676   3.288
47935W        W16340  44.720   2.272   1.811
47936W        W16341  28.040  27.498   4.077
47937W        W16342  17.282   7.877  12.968
47938W        W16343  19.599  30.755   3.616
47939W        W16344   2.316  10.048   1.286
47940W        W16345  35.393  35.093  13.717
47941W        W16346  13.202  11.739  12.516
47942W        W16347   7.954  19.170  13.465
47943W        W16348   0.820  28.398   2.373
47944W        W16349  42.915  22.438  11.163
47945W        W16350   7.206  17.586   0.501
47946W        W16351  43.417  23.475   4.086
47947W        W16352  23.687  44.607  11.536
47948W        W16353  14.130   9.462   2.587
47949W        W16354  17.309  12.950  14.380
47950W        W16355   2.886  30.831  14.109
47951W        W16356  11.180   6.837  13.634
47952W        W16357  23.541   6.916   1.220
47953W        W16358  10.084   1.372   4.164
47954W        W16359  42.377   0.282   0.269
47955W        W16360  34.990  20.573  13.493
47956W        W16361  17.810  19.149  13.115
47957W        W16362  42.454  44.325   4.236
47958W        W16363  13.136  31.694   2.895
47959W        W16364  15.043  22.833  12.090
47960W        W16365  37.363  44.509  11.101
47961W        W16366  32.675  40.600  13.490
47962W        W16367   9.660  28.142  12.474
47963W        W16368  17.798  36.377   4.305
47964W        W16369   0.475  24.496  14.373
47965W        W16370  13.926   6.889  13.016
47966W        W16371  36.588   6.388  12.790
47967W        W16372  11.960  22.057  14.228
47968W        W16373   0.977  21.367  13.887
47969W        W16374  11.283  10.683  13.123
47970W        W16375  20.252   9.711   2.194
47971W        W16376  42.823   5.099   3.169
47972W        W16377  34.535  31.092   0.258
47973W        W16378  23.618  35.135   3.189
47974W        W16379  39.754  21.523   1.948
47975W        W16380   3.327  13.735  13.119
47976W        W16381  36.748  36.211   1.387
47977W        W16382  25.609   5.341   0.030
47978W        W16383   1.455   2.214   1.351
47979W        W16384  34.902   5.329   0.991
47980W        W16385  36.514  43.070  11.963
47981W        W16386   4.802  30.567   2.019
47982W        W16387   0.008   7.657   4.167
47983W        W16388  42.373  26.143  14.936
47984W        W16389  41.878  31.908  13.221
47985W        W16390   9.684   4.289   3.926
47986W        W16391  32.994   5.871  14.293
47987W        W16392  18.172  23.550  14.255
47988W        W16393   7.340  28.072   0.498
47989W        W16394  34.980   3.000   3.627
47990W        W16395  28.396  43.744  12.131
47991W        W16396  32.936  27.959  14.555
47992W        W16397  27.897  30.449   0.494
47993W        W16398  29.925  22.636  12.490
47994W        W16399  11.813  15.345   5.451
47995W        W16400  25.177  20.566  14.729
47996W        W16401  41.496   5.937  11.292
47997W        W16402  25.579  13.229   1.492
47998W        W16403  33.019   9.122   4.097
47999W        W16404  29.565   5.861  12.573
48000W        W16405  11.236  32.359   0.922
48001W        W16406  19.120  13.745   1.552
48002W        W16407  34.231   1.460  12.263
48003W        W16408  29.466   2.085  11.134
48004W        W16409  37.195  12.509  11.219
48005W        W16410  25.539   4.320   0.693
48006W        W16411  37.032   6.352   0.006
48007W        W16412   8.883   2.248   1.620
48008W        W16413  44.042  39.745  13.383
48009W        W16414  20.222  13.267   4.095
48010W        W16415  38.062  26.062  12.042
48011W        W16416   9.885  15.061  13.967
48012W        W16417   8.160  20.172  13.835
48013W        W16418  23.176   4.574  10.220
48014W        W16419  28.432  20.574   4.860
48015W        W16420  42.628  27.451  14.889
48016W        W16421  25.712  44.883  12.368
48017W        W16422   1.603  26.518  11.195
48018W        W16423  32.073  15.960  14.816
48019W        W16424  17.174  42.799   1.284
48020W        W16425  38.299   1.855  12.214
48021W        W16426  30.469  14.523   2.368
48022W        W16427  43.245  19.590  13.468
48023W        W16428  38.264  18.638   4.642
48024W        W16429   3.910  31.617  14.988
48025W        W16430  18.142  28.628  11.671
48026W        W16431  17.567  38.203  11.126
48027W        W16432   0.508  17.342   1.323
48028W        W16433  36.417  10.320   2.271
48029W        W16434   5.932   9.762   4.617
48030W        W16435  42.619  10.160  12.815
48031W        W16436   7.522  37.631   4.874
48032W        W16437  25.740  39.055  13.404
48033W        W16438  18.817  25.346  11.067
48034W        W16439  24.111  27.001   1.867
48035W        W16440  22.813  36.176  10.996
48036W        W16441  29.532  10.002  10.533
48037W        W16442  22.152  33.648  12.884
48038W        W16443   3.790  34.268   0.040
48039W        W16444  10.794  38.073   1.297
48040W        W16445  20.023  10.812  14.686
48041W        W16446  39.108  34.800   0.516
48042W        W16447  42.868  17.544   4.107
48043W        W16448  31.205  28.180   3.320
48044W        W16449   7.466  20.128   2.169
48045W        W16450   2.845  12.995  11.186
48046W        W16451  39.557  20.249  13.497
48047W        W16452  26.086  11.765  10.607
48048W        W16453   8.666  44.425   3.635
48049W        W16454  29.788  39.907  14.317
48050W        W16455   4.835  32.358  14.390
48051W        W16456  18.289  32.187   0.933
48052W        W16457  18.287  39.576  12.368
48053W        W16458  41.843  21.714  12.848
48054W        W16459  21.830  19.758  12.887
48055W        W16460  26.000   5.339  14.676
48056W        W16461   7.105   4.522  11.068
48057W        W16462  34.955  17.506  13.760
48058W        W16463  39.285   5.375   4.114
48059W        W16464  43.972  44.936  14.975
48060W        W16465  16.748   3.654   2.635
48061W        W16466  23.998  14.633  12.833
48062W        W16467   4.197   3.789  14.023
48063W        W16468  10.861  19.036   0.473
48064W        W16469  10.749  29.004  14.767
48065W        W16470   6.627  41.513   2.291
48066W        W16471  20.236  33.279   1.878
48067W        W16472   4.431  39.504  13.071
48068W        W16473  35.682  16.524   3.076
48069W        W16474   8.238   1.012  10.635
48070W        W16475  21.208  14.890  14.055
48071W        W16476  44.100   3.518  13.545
48072W        W16477  40.050  34.517   2.318
48073W        W16478  21.278  24.539   4.689
48074W        W16479  36.221  32.351   3.229
48075W        W16480  38.169   2.333  13.028
48076W        W16481  29.823  42.001   1.954
48077W        W16482  24.646   3.002  12.102
48078W        W16483   1.919  27.909  11.147
48079W        W16484  33.088  35.404   1.471
48080W        W16485  25.847  25.673  11.516
48081W        W16486  10.140  28.589  12.025
48082W        W16487  10.489  41.372  10.715
48083W        W16488  30.163  34.179  12.486
48084W        W16489  14.919  39.577  13.456
48085W        W16490  15.799  34.595   4.012
48086W        W16491  29.630   1.671  12.811
48087W        W16492  26.162   2.446  11.381
48088W        W16493  24.805   2.959   0.271
48089W        W16494  28.941   0.758  11.208
48090W        W16495  19.797  19.247  13.612
48091W        W16496   6.202   9.679   3.220
48092W        W16497  12.883  37.954   0.776
48093W        W16498  34.854  23.042   2.186
48094W        W16499  26.314  43.496  10.703
48095W        W16500  31.364   2.401   2.725
48096W        W16501  30.827  16.738   3.797
48097W        W16502   1.747  37.357  11.179
48098W        W16503  21.856  12.609   1.024
48099W        W16504  22.966  33.456  12.487
48100W        W16505  39.138  31.134  13.808
48101W        W16506  26.155  26.299  14.549
48102W        W16507  29.667  41.087   3.195
48103W        W16508  28.192  20.021  11.609
48104W        W16509   9.772  11.283  11.607
48105W        W16510  39.356  32.703  11.443
48106W        W16511  12.782   2.307   2.364
48107W        W16512  18.241  29.244  12.983
48108W        W16513  32.064  18.443   2.714
48109W        W16514  26.092  20.699   4.236
48110W        W16515   9.721  12.129   1.626
48111W        W16516   6.843  36.664  14.857
48112W        W16517  23.461  13.610   2.038
48113W        W16518  19.647  30.927  13.400
48114W        W16519  19.030   2.529  11.154
48115W        W16520   6.224  30.787  12.388
48116W        W16521  33.627  41.082  10.753
48117W        W16522  19.647  19.748   4.684
48118W        W16523  26.183  29.856   4.624
48119W        W16524   9.285  19.165  12.938
48120W        W16525   1.981  44.982  11.341
48121W        W16526  39.839  19.133   0.778
48122W        W16527   3.445  28.523  13.107
48123W        W16528  14.311  35.284  14.338
48124W        W16529   2.393   6.907  14.528
48125W        W16530   0.328  26.976   4.590
48126W        W16531  35.350   1.297  14.288
48127W        W16532  18.534  23.665  10.723
48128W        W16533  11.525  10.797   3.271
48129W        W16534  29.779   4.312   1.962
48130W        W16535  26.462  10.973   0.457
48131W        W16536  29.659  12.127  13.064
48132W        W16537  35.554  25.452   2.641
48133W        W16538  33.925  39.823   1.804
48134W        W16539   6.664  33.152  14.305
48135W        W16540  23.112  34.124  11.064
48136W        W16541  27.140  17.526   1.386
48137W        W16542   0.691   1.495  11.949
48138W        W16543  44.265  12.083   4.144
48139W        W16544   2.463  34.857   0.788
48140W        W16545   4.332  41.071  11.646
48141W        W16546   7.811  10.279   2.696
48142W        W16547  14.581  35.998   2.794
48143W        W16548   8.895   6.163   4.658
48144W        W16549  31.931   9.771   2.209
48145W        W16550  41.310  10.791   1.180
48146W        W16551  32.048  39.558   1.053
48147W        W16552  22.172  15.372   3.206
48148W        W16553  15.821   0.296  10.881
48149W        W16554  44.162   1.313  10.890
48150W        W16555  42.870   8.389  14.880
48151W        W16556   3.836  11.185   4.097
48152W        W16557   5.864  44.670   4.137
48153W        W16558  29.579   0.229   2.934
48154W        W16559  13.359  33.839  10.591
48155W        W16560  30.584   8.898   2.730
48156W        W16561  42.688  36.474  13.999
48157W        W16562  34.618   4.167  11.992
48158W        W16563  32.696   2.507   0.547
48159W        W16564  12.809  22.979   4.521
48160W        W16565  24.674  28.238   3.813
48161W        W16566  29.173   9.809  12.011
48162W        W16567  19.135  33.065   4.136
48163W        W16568   0.144  42.838  14.965
48164W        W16569  22.515  43.437  11.809
48165W        W16570  22.544   1.116   3.293
48166W        W16571  36.349  15.367  12.023
48167W        W16572  30.927  21.516  14.812
48168W        W16573  22.267  26.090   3.129
48169W        W16574   6.925  13.176   1.905
48170W        W16575  26.702  11.458   3.601
48171W        W16576  23.160  33.714   2.095
48172W        W16577  23.343  13.531  11.562
48173W        W16578  27.607   2.233   1.450
48174W        W16579  14.041  38.813   5.029
48175W        W16580  12.182   3.866   2.287
48176W        W16581  41.274  40.792   2.058
48177W        W16582  34.126  36.032   2.741
48178W        W16583   3.847  27.265  12.952
48179W        W16584   3.647  29.586   3.732
48180W        W16585  33.662  39.753   3.349
48181W        W16586   4.123   1.639  12.050
48182W        W16587  21.162  39.103  11.589
48183W        W16588  28.008  41.544  10.075
48184W        W16589   6.702  28.273  11.909
48185W        W16590   0.836  33.550  10.010
48186W        W16591  12.196  37.264   3.239
48187W        W16592  21.296   4.989  13.946
48188W        W16593   6.273  16.602  11.966
48189W        W16594  34.755  22.632   2.721
48190W        W16595   2.361  24.749   0.811
48191W        W16596  32.808  14.622   3.226
48192W        W16597  40.452   4.772  11.549
48193W        W16598  40.998  29.090   4.656
48194W        W16599  38.543  22.176  13.483
48195W        W16600  30.987  28.512   1.354
48196W        W16601  38.193  42.942   2.690
48197W        W16602  25.083   5.714   4.820
48198W        W16603  41.638  32.182  14.056
48199W        W16604   3.601  18.295  12.490
48200W        W16605   7.364   5.419  13.918
48201W        W16606   9.595  17.005  14.486
48202W        W16607  13.645  32.821   3.746
48203W        W16608  19.724   8.586   3.605
48204W        W16609  36.350  37.808  13.497
48205W        W16610   7.308   5.725  13.494
48206W        W16611  19.459  38.702   3.838
48207W        W16612  23.974  20.688   2.424
48208W        W16613  19.393   8.458  12.861
48209W        W16614  33.999  16.654   1.558
48210W        W16615  24.637  16.343   0.685
48211W        W16616   7.418   8.780   0.364
48212W        W16617  37.839  26.716  10.124
48213W        W16618  42.891  36.600  13.527
48214W        W16619  35.828  25.543   3.422
48215W        W16620  42.395   7.671  10.665
48216W        W16621   0.524  40.058  12.732
48217W        W16622   6.431  35.867  11.814
48218W        W16623  18.818   9.696   3.212
48219W        W16624   5.923  34.078   0.723
48220W        W16625  10.588  41.381   1.367
48221W        W16626  14.375  15.141   1.885
48222W        W16627  42.918  14.777  13.599
48223W        W16628  21.575  33.513   2.855
48224W        W16629  42.494  26.935  13.467
48225W        W16630  35.841  27.751   0.299
48226W        W16631  25.922  24.476   4.591
48227W        W16632  27.290  35.391   1.935
48228W        W16633   7.757  22.528   2.999
48229W        W16634  28.917  31.932   4.184
48230W        W16635  25.788  41.533   1.228
48231W        W16636  40.285  13.317  13.835
48232W        W16637  27.501   7.878   4.728
48233W        W16638  34.080  23.665  14.408
48234W        W16639  43.917  35.940   4.756
48235W        W16640   5.830  18.734   4.069
48236W        W16641  39.497  37.306   1.788
48237W        W16642  25.516  12.133   4.754
48238W        W16643  12.088  35.467  13.350
48239W        W16644  40.169   3.863  11.556
48240W        W16645  33.371   8.551   0.625
48241W        W16646   3.523  12.577  12.930
48242W        W16647   2.764  29.967   2.576
48243W        W16648  29.746  13.266   0.332
48244W        W16649  12.627  17.216  13.850
48245W        W16650   7.869  24.090   0.406
48246W        W16651  32.900  15.104  11.601
48247W        W16652  17.220  36.012  11.109
48248W        W16653  14.372  31.963  13.940
48249W        W16654  21.963   6.302  12.546
48250W        W16655  33.083  26.458  14.964
48251W        W16656  40.411   6.165   1.282
48252W        W16657   1.440   3.224   3.814
48253W        W16658  10.212   0.328   1.228
48254W        W16659  27.027   7.767   2.910
48255W        W16660  36.392   3.380  10.153
48256W        W16661  33.919   0.563   4.539
48257W        W16662  41.732   1.227  12.867
48258W        W16663  42.950  11.617  13.921
48259W        W16664  43.571  44.857   3.592
48260W        W16665  29.943  39.163  12.040
48261W        W16666  31.356  36.022   0.828
48262W        W16667   1.877   5.907  12.924
48263W        W16668  43.053   4.489  14.968
48264W        W16669  36.078  31.656   0.003
48265W        W16670  15.550  28.104  11.613
48266W        W16671  38.846  24.752   2.664
48267W        W16672  29.677   6.608   2.217
48268W        W16673  16.220  24.742   3.631
48269W        W16674  32.912   8.851  14.238
48270W        W16675  29.987  38.338   0.170
48271W        W16676  34.524  43.683  10.618
48272W        W16677  29.017  18.252  11.036
48273W        W16678  17.769   2.805  10.817
48274W        W16679  39.567  44.963  14.426
48275W        W16680  42.845  38.267  10.270
48276W        W16681  22.122   3.444  13.293
48277W        W16682  11.469  15.217   1.895
48278W        W16683   4.856  30.543  12.171
48279W        W16684  42.535  33.538   1.837
48280W        W16685   0.525  26.919  10.672
48281W        W16686  40.013  17.137   3.086
48282W        W16687  34.150  34.501  13.272
48283W        W16688  38.491  27.915  11.885
48284W        W16689  19.940  20.327   4.912
48285W        W16690   5.761  34.382   2.584
48286W        W16691  33.406  11.434   2.168
48287W        W16692  39.771  17.182   4.551
48288W        W16693  37.369  27.991   5.033
48289W        W16694  40.475  32.588   3.127
48290W        W16695  29.686   4.918   2.216
48291W        W16696  13.741  18.051   4.041
48292W        W16697   3.222  13.715  14.876
48293W        W16698  37.790  23.829  13.860
48294W        W16699  38.169  28.892  12.663
48295W        W16700  16.109  26.575   4.698
48296W        W16701  32.858  16.159   4.499
48297W        W16702  32.410  31.876  13.545
48298W        W16703  38.539  34.868  13.804
48299W        W16704  42.085  10.299   3.338
48300W        W16705  35.252  16.646   3.291
48301W        W16706  33.916  44.464   9.951
48302W        W16707  13.734  22.645  11.149
48303W        W16708  36.584  26.084  14.452
48304W        W16709  44.629  44.896  11.229
48305W        W16710  16.317  16.504  14.243
48306W        W16711  44.077  15.269  13.185
48307W        W16712   8.412  16.843   2.752
48308W        W16713  16.128  15.115  13.656
48309W        W16714  41.797  20.762   4.138
48310W        W16715  18.070  32.030  10.578
48311W        W16716  30.750  26.731  11.309
48312W        W16717  27.059   8.151   4.728
48313W        W16718  39.461  44.581  10.702
48314W        W16719  40.310  15.940   4.249
48315W        W16720  26.700   8.505   3.937
48316W        W16721   1.728  27.708   3.650
48317W        W16722   4.809  35.643   2.222
48318W        W16723  41.692  19.138   2.688
48319W        W16724  22.195  36.415  14.773
48320W        W16725  24.975  25.821  10.494
48321W        W16726  20.713  30.095  11.611
48322W        W16727  18.747  16.188   3.839
48323W        W16728  24.812   8.221  13.134
48324W        W16729   0.538  34.747  13.829
48325W        W16730  29.417   5.497   4.740
48326W        W16731  43.785  43.027  10.973
48327W        W16732  14.377   6.165  11.338
48328W        W16733   0.884  32.646   2.494
48329W        W16734  22.016  35.945   3.651
48330W        W16735   6.786   5.470  11.140
48331W        W16736  42.047  22.668  10.725
48332W        W16737  26.902  38.806   4.049
48333W        W16738  22.988  18.030  14.001
48334W        W16739  25.136  12.561  10.724
48335W        W16740   6.930  33.534  11.597
48336W        W16741  15.933   4.730   0.197
48337W        W16742  39.276  26.697   1.837
48338W        W16743  23.174  26.942   0.379
48339W        W16744   6.313  35.991  14.331
48340W        W16745   3.347   8.114  11.606
48341W        W16746  36.512  30.993   0.486
48342W        W16747  34.091  11.552   3.235
48343W        W16748  36.561  33.008   2.817
48344W        W16749  14.093   4.691  13.831
48345W        W16750  42.551  10.717  12.817
48346W        W16751  14.861  18.994  12.010
48347W        W16752  35.524  41.339   3.666
48348W        W16753  31.028  35.382   1.142
48349W        W16754  27.140  19.689  12.129
48350W        W16755  27.837   3.673  11.201
48351W        W16756  11.493  37.504  14.722
48352W        W16757  25.090  23.700   0.799
48353W        W16758  32.540  14.487   3.729
48354W        W16759  15.967  15.191   4.958
48355W        W16760   8.144  37.915   3.270
48356W        W16761   2.598   2.808   4.416
48357W        W16762   3.897  43.409  11.092
48358W        W16763  27.723   6.102  11.081
48359W        W16764  39.038  25.098   1.771
48360W        W16765  16.333  17.671   1.227
48361W        W16766   5.401   2.471  10.386
48362W        W16767  40.837  21.165  11.721
48363W        W16768  31.292  32.547   3.598
48364W        W16769  35.872   1.992  12.052
48365W        W16770  17.854  35.788   3.170
48366W        W16771  38.434  39.624   2.250
48367W        W16772  25.569  16.699  10.123
48368W        W16773   6.588  35.907  11.227
48369W        W16774   6.786  28.983   3.307
48370W        W16775  22.677  12.009  13.972
48371W        W16776   7.880  28.438  14.335
48372W        W16777  44.966  24.943  14.989
48373W        W16778   7.867  18.061   2.826
48374W        W16779  36.091  13.632  12.451
48375W        W16780  26.029  39.842  12.438
48376W        W16781  42.254  39.266   0.413
48377W        W16782  38.539  11.329  11.953
48378W        W16783  31.461  19.649   0.486
48379W        W16784  13.947  42.301  11.454
48380W        W16785   6.937  37.402   2.709
48381W        W16786  30.924  12.578   3.412
48382W        W16787   6.787  19.361   2.394
48383W        W16788  32.370  36.286   4.077
48384W        W16789   1.385   6.976  12.712
48385W        W16790  11.521  25.615   2.695
48386W        W16791  38.806   7.932   4.984
48387W        W16792  21.781  19.238   0.261
48388W        W16793  31.375  26.700   1.739
48389W        W16794  25.913  20.255  11.132
48390W        W16795  17.826   1.910  13.363
48391W        W16796  41.397  30.730   4.630
48392W        W16797   6.447  20.800  11.615
48393W        W16798  44.502  30.137   0.855
48394W        W16799   2.005  14.200   2.720
48395W        W16800   0.397  24.574   4.333
48396W        W16801   7.437  11.226   1.671
48397W        W16802  37.074   7.690   3.229
48398W        W16803  43.592  39.016  14.714
48399W        W16804  12.299  36.408   2.974
48400W        W16805  13.639  41.664   4.132
48401W        W16806  26.866   3.265  10.508
48402W        W16807  18.676   2.668   0.932
48403W        W16808   4.007  29.558   2.392
48404W        W16809  21.692  21.178  11.638
48405W        W16810   8.416  40.315  13.236
48406W        W16811  16.919   6.240   0.336
48407W        W16812  14.357  26.655   4.180
48408W        W16813   6.113   7.881   3.713
48409W        W16814  31.459   4.130  11.651
48410W        W16815  30.496  43.323   2.981
48411W        W16816  18.632   7.338  13.896
48412W        W16817   3.405  30.133   1.954
48413W        W16818   6.299  30.657  10.206
48414W        W16819  21.152  25.315   0.846
48415W        W16820   9.070  21.096  13.523
48416W        W16821  11.886   1.402  14.987
48417W        W16822  29.181   5.092  14.492
48418W        W16823  24.585  21.622  10.610
48419W        W16824  33.518  23.393  11.011
48420W        W16825   7.905  14.229   0.235
48421W        W16826  14.635   6.676   4.844
48422W        W16827  32.036  43.341  10.553
48423W        W16828   2.241   7.830   3.599
48424W        W16829  10.822  10.928   0.938
48425W        W16830  42.365  14.853   1.695
48426W        W16831  19.184   7.419  14.728
48427W        W16832  24.470  10.346  14.081
48428W        W16833  19.541  39.480  11.528
48429W        W16834   5.461   1.247   2.720
48430W        W16835  18.160  17.652  11.656
48431W        W16836  20.836   8.824  12.059
48432W        W16837   2.860   5.113   5.560
48433W        W16838   5.271  37.880  13.929
48434W        W16839  24.686  44.355   4.373
48435W        W16840   9.617  24.235   1.837
48436W        W16841  23.237  15.668   3.619
48437W        W16842   7.419  44.792  11.060
48438W        W16843  13.100  10.915  13.429
48439W        W16844  42.315  27.674  14.518
48440W        W16845  13.356  38.510  11.809
48441W        W16846  13.160   0.180   3.730
48442W        W16847  13.423   1.665  13.540
48443W        W16848  26.512  16.132   4.036
48444W        W16849   1.839  33.317  14.002
48445W        W16850  22.667  21.153   0.907
48446W        W16851  26.117  22.536   2.727
48447W        W16852  11.816  25.867  12.069
48448W        W16853  41.768  24.027  11.233
48449W        W16854  38.644  33.340   3.199
48450W        W16855  36.661  22.032   1.195
48451W        W16856   5.754  38.390   1.080
48452W        W16857  39.399  10.775  12.103
48453W        W16858   3.761  37.550  10.146
48454W        W16859  22.210   9.658  11.054
48455W        W16860  44.068  44.771  13.552
48456W        W16861  26.415   4.445   4.177
48457W        W16862  40.868   3.452   1.840
48458W        W16863  28.221  23.240  13.965
48459W        W16864  14.571  44.743  10.203
48460W        W16865  24.128  15.283   1.603
48461W        W16866  16.133  17.321  12.634
48462W        W16867  24.649  13.355   4.174
48463W        W16868  44.001  24.836   1.770
48464W        W16869  34.539   0.775   2.942
48465W        W16870   4.676  40.653   0.948
48466W        W16871   0.777  26.248  12.139
48467W        W16872   8.304   3.175  14.800
48468W        W16873  28.225  32.532   4.538
48469W        W16874  11.712  21.128   3.619
48470W        W16875  38.822  39.804   1.342
48471W        W16876   9.219   5.794  10.943
48472W        W16877  11.723  33.507  14.428
48473W        W16878  34.299  44.096  13.279
48474W        W16879  20.262   4.424  14.457
48475W        W16880  28.006   8.552  14.911
48476W        W16881  14.053  11.058   4.631
48477W        W16882  18.118   8.258  12.160
48478W        W16883  43.222   7.859   4.251
48479W        W16884  26.212  30.598  14.867
48480W        W16885  39.478  17.314  11.709
48481W        W16886  31.211   3.643  13.338
48482W        W16887  21.953  20.729  11.790
48483W        W16888  35.025  31.524  13.384
48484W        W16889   3.404  21.791   0.250
48485W        W16890  32.044   7.814  14.441
48486W        W16891  41.803   7.501  14.917
48487W        W16892   7.324  24.737   1.959
48488W        W16893  41.957  37.536  14.975
48489W        W16894  22.031   8.833  11.489
48490W        W16895  31.136  35.505  13.000
48491W        W16896  11.308  38.062   3.642
48492W        W16897  35.073   1.689  14.092
48493W        W16898  26.256  13.394  14.012
48494W        W16899  11.151   3.666  13.976
48495W        W16900  40.947   4.193  12.630
48496W        W16901  42.595  36.496   3.258
48497W        W16902   6.150  19.621   3.404
48498W        W16903  27.247  23.116   3.673
48499W        W16904   5.011  10.837   4.462
48500W        W16905  36.433  10.509   3.281
48501W        W16906   3.676   1.233  12.499
48502W        W16907  36.429  33.079  11.689
48503W        W16908  39.890   0.218   1.758
48504W        W16909  44.322  34.052   0.345
48505W        W16910  40.931   4.736  12.774
48506W        W16911  41.496  14.389  14.458
48507W        W16912  31.954   4.039  13.750
48508W        W16913  41.241  25.292  12.022
48509W        W16914   6.271  15.254  11.686
48510W        W16915  13.251   0.653   2.890
48511W        W16916   4.274  21.574  11.119
48512W        W16917   4.330  31.497   2.623
48513W        W16918  10.416   5.290  13.456
48514W        W16919  21.707  24.357   4.084
48515W        W16920  24.471  24.020   1.851
48516W        W16921  38.065  28.130   0.443
48517W        W16922  39.548  37.640   0.922
48518W        W16923  32.803  20.339   4.128
48519W        W16924  23.815   8.823   2.255
48520W        W16925   5.233  33.575   0.886
48521W        W16926  18.816  24.666   0.771
48522W        W16927  32.017   4.256  13.216
48523W        W16928  12.242  31.621  13.946
48524W        W16929  24.195  18.728   4.186
48525W        W16930  39.392  37.550  13.990
48526W        W16931  44.636  35.041   4.629
48527W        W16932  24.199  34.908  14.473
48528W        W16933  40.568  28.137   1.326
48529W        W16934  38.927  44.746   0.752
48530W        W16935   4.125  35.657  12.138
48531W        W16936  33.546  13.402   2.428
48532W        W16937  33.713  29.091  10.355
48533W        W16938  32.364  41.824   1.474
48534W        W16939   1.453  15.676  12.913
48535W        W16940  22.529  20.543   4.138
48536W        W16941  26.569  11.407   4.732
48537W        W16942  27.425  36.330   3.687
48538W        W16943  10.956   8.750   3.218
48539W        W16944  11.368  19.633  13.434
48540W        W16945  38.089   7.893   1.349
48541W        W16946  22.400  42.354  14.552
48542W        W16947   8.863  38.076   0.477
48543W        W16948  40.080   8.311   3.866
48544W        W16949  20.098  29.648   4.506
48545W        W16950   2.203  32.072   1.347
48546W        W16951   9.598  29.526   3.066
48547W        W16952  42.826  41.442  14.914
48548W        W16953  26.001  27.439  12.047
48549W        W16954  14.147  21.729  12.086
48550W        W16955   4.784   2.877   2.387
48551W        W16956   9.767   9.233   3.078
48552W        W16957  42.777  17.759   3.645
48553W        W16958   0.795   6.670  13.439
48554W        W16959  24.803  40.812  10.895
48555W        W16960  26.616  31.197   2.304
48556W        W16961  27.918  29.924  14.202
48557W        W16962  38.836  44.350  14.472
48558W        W16963  36.871   4.372   5.213
48559W        W16964  15.197  26.094  13.648
48560W        W16965  31.402  16.519   2.304
48561W        W16966  15.239  16.557  14.217
48562W        W16967  33.015  27.962  13.296
48563W        W16968   8.435  12.795  11.228
48564W        W16969  10.055  42.959  14.243
48565W        W16970   4.264   9.986   3.648
48566W        W16971  41.503  39.397   4.694
48567W        W16972  41.518  19.147  12.961
48568W        W16973  26.523  42.405  12.404
48569W        W16974   1.916  34.402   1.702
48570W        W16975  16.923  11.202   0.346
48571W        W16976  30.397  16.671  14.892
48572W        W16977  42.933  14.049  11.101
48573W        W16978   6.177  22.659  11.556
48574W        W16979  12.762  30.503   2.272
48575W        W16980  16.815  13.369   4.144
48576W        W16981  14.097  44.678  11.139
48577W        W16982  34.529  10.810   0.913
48578W        W16983   9.281  31.152  12.951
48579W        W16984  16.065  35.253   2.218
48580W        W16985  41.904  41.018  10.727
48581W        W16986  28.686  24.978  11.119
48582W        W16987   1.267  38.029  10.812
48583W        W16988  29.103  10.728   2.747
48584W        W16989  39.382  13.809   3.134
48585W        W16990   6.350  40.451   4.603
48586W        W16991   9.575  42.294   0.115
48587W        W16992  20.495   9.724   2.679
48588W        W16993  19.296   7.475  10.212
48589W        W16994  28.321  35.849  11.150
48590W        W16995  36.456  26.178   0.904
48591W        W16996  13.255  40.599   2.647
48592W        W16997  19.818  28.689   3.815
48593W        W16998   3.697  44.831  13.160
48594W        W16999  17.099   3.542  11.564
48595W        W17000  31.555  40.913   5.021
48596W        W17001   8.399  42.047   1.017
48597W        W17002  42.997  25.528  11.717
48598W        W17003   2.074  23.636  11.915
48599W        W17004  33.886  35.839  12.569
48600W        W17005  27.717   8.851   0.239
48601W        W17006  24.223  41.626  13.347
48602W        W17007  31.597  12.583  12.036
48603W        W17008   9.709  17.724   2.874
48604W        W17009  26.741  40.079   0.475
48605W        W17010   6.894  30.725  10.698
48606W        W17011   1.336  26.775  11.621
48607W        W17012   8.421  35.378   4.691
48608W        W17013   9.325  36.919  11.866
48609W        W17014  25.773  26.970   0.798
48610W        W17015   4.446  23.624  13.985
48611W        W17016  16.413  32.899  13.889
48612W        W17017  17.308  19.808   2.668
48613W        W17018  21.147  26.496  13.099
48614W        W17019   0.438   0.744  10.309
48615W        W17020   8.854  40.477  13.425
48616W        W17021  27.237  27.055  13.839
48617W        W17022   9.174  32.995   3.186
48618W        W17023  14.556  36.856  14.029
48619W        W17024  10.665  14.293  12.215
48620W        W17025   1.129  44.902   1.397
48621W        W17026   9.904  44.341   2.317
48622W        W17027  17.028  40.905   2.461
48623W        W17028  13.062   5.600  11.569
48624W        W17029  41.002  17.167  14.947
48625W        W17030   4.811  12.581   0.037
48626W        W17031   6.713  11.692   3.781
48627W        W17032  21.992   4.110   2.752
48628W        W17033  39.415   7.529   4.186
48629W        W17034  13.601  17.068   2.333
48630W        W17035  34.720  35.127   1.053
48631W        W17036  12.701  29.913  13.153
48632W        W17037  34.074  43.507  14.927
48633W        W17038  18.688   6.882   0.418
48634W        W17039  16.730  43.948   0.773
48635W        W17040  24.014  32.955   4.635
48636W        W17041  23.365  27.279   4.321
48637W        W17042   1.313  17.153   0.717
48638W        W17043  26.985   7.171  10.724
48639W        W17044  18.112  25.442   3.536
48640W        W17045  41.237  38.995   3.810
48641W        W17046  38.480  26.291   2.099
48642W        W17047   9.834  21.695  12.823
48643W        W17048  10.424   4.173  11.941
48644W        W17049  25.546  31.713   4.059
48645W        W17050  14.299  39.497   3.681
48646W        W17051  16.122  35.980  11.144
48647W        W17052  18.802  44.988  13.994
48648W        W17053  10.849  19.742  13.344
48649W        W17054   0.309  32.501   2.682
48650W        W17055  25.186   7.404  12.900
48651W        W17056   0.425  21.652  14.336
48652W        W17057   9.442  28.029   1.290
48653W        W17058   7.712  28.164  11.485
48654W        W17059   5.377  39.007   3.744
48655W        W17060  14.151  43.041   4.957
48656W        W17061  37.047   8.327  14.726
48657W        W17062  23.732  19.447   2.233
48658W        W17063  42.962  43.088  14.000
48659W        W17064   4.162   4.297  11.060
48660W        W17065  30.027   7.648  13.196
48661W        W17066  36.907  37.120   2.983
48662W        W17067  31.611  31.608   4.085
48663W        W17068  10.556  23.293   2.379
48664W        W17069  11.794  31.853  13.756
48665W        W17070  43.038  10.299   3.312
48666W        W17071  11.193  25.949  12.488
48667W        W17072  33.193  24.524   3.748
48668W        W17073  42.305   2.250  12.263
48669W        W17074  13.293  28.046  14.436
48670W        W17075  40.243  31.483   4.205
48671W        W17076   8.195   6.986  13.332
48672W        W17077  18.846   2.681  13.485
48673W        W17078  42.770  17.307  12.086
48674W        W17079  22.703  32.005  10.395
48675W        W17080  22.292  21.524   4.337
48676W        W17081  24.505  31.941   0.336
48677W        W17082  37.806  31.598   1.719
48678W        W17083  37.589   0.776  14.992
48679W        W17084  40.976  30.076   0.571
48680W        W17085   6.473  26.425   2.306
48681W        W17086  10.592  28.397  11.140
48682W        W17087  36.237  19.767  11.171
48683W        W17088  20.799  44.562   0.412
48684W        W17089  29.091  19.810  11.161
48685W        W17090   9.558  27.651  12.713
48686W        W17091  14.776   7.792   2.115
48687W        W17092  37.598  24.378  12.966
48688W        W17093  37.314  40.992   2.817
48689W        W17094  43.523   8.854  12.435
48690W        W17095  14.740  18.723   1.207
48691W        W17096  17.885  43.797   1.517
48692W        W17097  40.980  32.025  14.801
48693W        W17098  35.876   1.169  11.084
48694W        W17099  17.984  18.189  13.459
48695W        W17100   8.840   1.203   1.224
48696W        W17101  35.531  39.615  14.714
48697W        W17102  28.449  17.658   1.068
48698W        W17103  30.929   5.357  13.579
48699W        W17104   3.525  10.265  10.203
48700W        W17105  38.960   1.273  12.012
48701W        W17106  30.831  29.448  13.404
48702W        W17107   7.133  43.762  13.845
48703W        W17108  44.840   9.217   1.757
48704W        W17109  19.795  43.793   3.362
48705W        W17110  30.434  30.081  10.888
48706W        W17111   6.051  29.151   1.342
48707W        W17112  18.037  22.558  12.154
48708W        W17113  18.421   0.494  11.652
48709W        W17114  38.077   7.681  14.991
48710W        W17115  18.273   0.423  12.588
48711W        W17116  23.492  38.769   0.232
48712W        W17117  25.018  43.225  14.419
48713W        W17118  20.072   0.692   0.005
48714W        W17119  34.030  31.751   4.156
48715W        W17120  30.578  40.507   2.716
48716W        W17121  36.512   0.683   1.823
48717W        W17122   0.797  16.660  14.078
48718W        W17123  31.492  29.991  12.191
48719W        W17124  16.854  36.365   1.298
48720W        W17125   3.716  14.403  14.347
48721W        W17126   2.742   5.513  13.589
48722W        W17127  42.791  43.569   2.954
48723W        W17128  38.061  19.865  11.145
48724W        W17129  42.424  32.643  10.957
48725W        W17130  37.940  27.103  13.035
48726W        W17131  15.855  40.663   5.048
48727W        W17132  31.785  37.948  10.922
48728W        W17133  18.621  12.664   3.250
48729W        W17134  32.434  19.521   0.905
48730W        W17135  10.473  41.882   2.596
48731W        W17136  24.897  36.611   1.735
48732W        W17137  13.408  42.303  14.902
48733W        W17138   0.662  40.893   3.595
48734W        W17139  39.540  39.453   3.205
48735W        W17140  34.399  14.179   0.748
48736W        W17141   5.209  30.183  12.176
48737W        W17142  36.791  38.385  13.084
48738W        W17143  20.872  40.512   3.701
48739W        W17144  14.232  34.099  11.925
48740W        W17145   8.423  20.520  12.582
48741W        W17146   0.506  17.283   0.424
48742W        W17147  25.893  37.097   0.745
48743W        W17148  34.051  27.932  12.880
48744W        W17149  27.388   0.333  13.301
48745W        W17150  25.964  22.466  13.397
48746W        W17151  19.826  38.833  10.601
48747W        W17152  16.195  37.448   0.035
48748W        W17153  24.544  38.304   4.727
48749W        W17154  19.904  14.130   9.984
48750W        W17155  29.610  25.579  11.902
48751W        W17156  42.525  31.035   2.324
48752W        W17157  40.901  17.054   1.704
48753W        W17158  33.691  34.525   0.805
48754W        W17159  44.933  14.151   1.653
48755W        W17160  44.002  33.962   3.311
48756W        W17161   6.865  14.807   2.390
48757W        W17162  18.726  14.290   1.275
48758W        W17163  26.991  24.403   1.821
48759W        W17164  24.237  24.122  14.370
48760W        W17165  36.084  39.490   3.884
48761W        W17166   0.923  39.908   4.462
48762W        W17167   2.851  19.224   2.646
48763W        W17168  19.347  36.563  10.763
48764W        W17169  17.080  31.701  11.749
48765W        W17170  33.155   5.900   1.419
48766W        W17171  12.316  23.206  12.459
48767W        W17172   1.317   4.801   2.697
48768W        W17173  40.739  26.960   3.221
48769W        W17174  28.529  17.550  12.994
48770W        W17175  12.786  44.556   5.010
48771W        W17176  35.861  41.313   1.149
48772W        W17177   3.469  24.596   4.656
48773W        W17178  39.962  23.059   0.874
48774W        W17179  41.003  43.931  14.859
48775W        W17180  11.715  11.269   3.148
48776W        W17181   6.652  34.920   1.719
48777W        W17182  22.529  20.760   2.632
48778W        W17183  42.046  23.506   0.359
48779W        W17184   8.156   2.389   0.348
48780W        W17185  19.303   9.323  14.544
48781W        W17186  27.045   9.283  11.835
48782W        W17187  20.711  12.019  14.824
48783W        W17188  24.195   3.025  11.618
48784W        W17189  16.679  24.791  12.932
48785W        W17190   6.758  12.973   0.912
48786W        W17191  27.039   3.137   4.742
48787W        W17192  17.285  29.602  12.645
48788W        W17193  33.543  43.038  10.779
48789W        W17194   5.275  21.293  13.820
48790W        W17195  34.119   0.755   0.838
48791W        W17196  18.097  41.072  11.591
48792W        W17197  41.796   1.011  14.173
48793W        W17198  31.276  36.521   0.984
48794W        W17199  18.499   0.978  11.471
48795W        W17200  34.324  21.491  11.627
48796W        W17201   9.721  43.608   0.522
48797W        W17202  33.428   2.733  14.278
48798W        W17203  40.095   4.422   4.099
48799W        W17204   8.365  15.920  12.122
48800W        W17205   9.205   3.298  12.992
48801W        W17206  13.572   1.200   9.641
48802W        W17207  18.647  42.498  11.508
48803W        W17208   8.654  11.730  11.185
48804W        W17209  41.843   4.910  12.846
48805W        W17210  26.304  29.725  14.792
48806W        W17211  42.367  35.188   4.128
48807W        W17212   9.229  14.246  10.412
48808W        W17213   3.406  36.782  11.069
48809W        W17214  17.692  20.642  14.058
48810W        W17215  40.281  30.075   1.773
48811W        W17216  43.137  10.060   0.675
48812W        W17217  11.840  25.742   3.645
48813W        W17218  28.634   0.245  12.039
48814W        W17219   8.716  43.075  14.396
48815W        W17220   6.947   0.357  12.053
48816W        W17221   0.001  16.934   1.835
48817W        W17222  43.609  44.840   4.097
48818W        W17223   3.773  20.485  14.173
48819W        W17224  27.743  41.521  11.390
48820W        W17225   3.862  22.503   0.630
48821W        W17226   6.728  39.480   0.020
48822W        W17227   9.186  37.848  12.937
48823W        W17228  11.947   9.836   3.845
48824W        W17229   9.374  16.136  13.042
48825W        W17230   9.922  25.514   0.493
48826W        W17231  38.480   3.549  11.958
48827W        W17232  40.801   6.285  13.976
48828W        W17233  29.973  42.723   4.702
48829W        W17234  12.593  18.679  14.288
48830W        W17235  31.386   5.981  10.719
48831W        W17236   1.812  14.611   0.873
48832W        W17237   8.639  27.931  11.572
48833W        W17238  22.428  14.813   3.239
48834W        W17239  36.408  41.780  11.917
48835W        W17240  13.564  24.647   3.649
48836W        W17241  27.250  21.793  10.771
48837W        W17242  18.597   7.703  14.944
48838W        W17243  30.293  31.895  11.070
48839W        W17244  23.668  15.467   5.013
48840W        W17245   1.620  40.819  13.475
48841W        W17246  18.288  11.759   3.311
48842W        W17247  43.393  11.024  13.385
48843W        W17248  15.054   9.802  10.198
48844W        W17249  25.146   7.608   2.283
48845W        W17250   0.814  37.967   3.295
48846W        W17251   0.922  34.459   1.846
48847W        W17252  29.857   9.210  12.069
48848W        W17253  35.568  30.163   1.892
48849W        W17254   0.699  23.234  10.750
48850W        W17255   7.400  42.430  11.114
48851W        W17256   6.183  25.428   3.704
48852W        W17257  39.205  34.900   2.352
48853W        W17258  31.022  39.449  10.348
48854W        W17259  12.622  14.370  12.631
48855W        W17260  28.595  42.251   5.406
48856W        W17261  10.136   4.997   2.813
48857W        W17262  29.050  21.208  14.309
48858W        W17263  13.161  33.955  14.285
48859W        W17264  21.671  23.758   3.535
48860W        W17265  36.367  22.514   5.047
48861W        W17266  15.094  35.413  11.617
48862W        W17267   1.356   0.782   3.740
48863W        W17268  27.963  14.587  10.220
48864W        W17269  32.121  14.678  13.555
48865W        W17270  18.750  29.964   4.262
48866W        W17271  19.866  28.305  10.714
48867W        W17272   9.377  37.476  14.162
48868W        W17273  12.121  16.600   0.349
48869W        W17274  37.184  36.410  12.903
48870W        W17275  35.925  12.327   0.746
48871W        W17276  32.594  26.186  11.407
48872W        W17277  39.966  33.956  10.702
48873W        W17278   6.186   4.024  12.131
48874W        W17279   5.803  25.500  13.420
48875W        W17280  28.370  38.746  10.134
48876W        W17281  27.366  37.427  11.498
48877W        W17282   3.991   7.359   4.265
48878W        W17283   7.387   9.882   2.826
48879W        W17284   7.329   1.718   1.794
48880W        W17285  27.157   0.853  10.689
48881W        W17286  42.929  15.061   1.953
48882W        W17287  42.700  42.410  12.418
48883W        W17288   0.035   3.880  13.905
48884W        W17289  42.935   2.041  13.858
48885W        W17290  23.083  26.408  14.426
48886W        W17291  13.386  18.654  12.774
48887W        W17292  17.457  24.046   1.282
48888W        W17293  14.324  11.372   0.691
48889W        W17294  44.952  25.077   2.406
48890W        W17295  44.639  13.299  12.403
48891W        W17296  36.807  23.549  13.839
48892W        W17297  36.755  35.448   4.953
48893W        W17298  35.510  37.009   1.422
48894W        W17299  29.631   7.113   2.315
48895W        W17300  24.624  36.897   0.366
48896W        W17301  10.319  20.707   1.834
48897W        W17302  20.495  43.640   1.819
48898W        W17303  13.193   6.296   1.906
48899W        W17304  14.668  28.457   2.163
48900W        W17305  17.109  13.705   4.632
48901W        W17306  31.597  15.021   0.457
48902W        W17307  37.408   3.695  10.507
48903W        W17308  10.284  14.344  11.380
48904W        W17309  39.562  32.050   0.268
48905W        W17310  40.412  25.576  12.166
48906W        W17311  15.699  27.616  11.154
48907W        W17312   9.822   8.347  12.918
48908W        W17313  12.736   5.829   1.421
48909W        W17314  10.470   2.754  12.573
48910W        W17315  33.482  18.611  11.203
48911W        W17316   0.702  31.218  12.941
48912W        W17317   6.649   6.923   3.386
48913W        W17318  12.160  11.735   2.127
48914W        W17319  42.904  31.583   2.262
48915W        W17320   3.299   2.736  10.598
48916W        W17321  10.267   4.356   1.775
48917W        W17322  14.666  39.096  11.675
48918W        W17323  10.276   7.279   4.835
48919W        W17324  28.893  13.600   0.740
48920W        W17325  33.489  21.801   3.644
48921W        W17326  17.971   8.733  12.456
48922W        W17327  17.268  18.883   1.008
48923W        W17328  24.556  10.310   1.394
48924W        W17329  10.373   4.676   4.086
48925W        W17330   9.331  19.902   4.926
48926W        W17331  16.077  30.071   0.987
48927W        W17332  32.532   4.662  11.132
48928W        W17333  37.134  29.999   0.376
48929W        W17334  23.965  21.585   2.233
48930W        W17335  24.620  31.831  12.879
48931W        W17336  37.406   3.166   1.400
48932W        W17337  13.544  30.421   0.446
48933W        W17338  31.942  21.744  11.629
48934W        W17339  35.123   9.822   2.788
48935W        W17340  36.811  19.468   4.172
48936W        W17341  17.860  17.319  10.764
48937W        W17342  26.530  17.312   1.268
48938W        W17343  44.812  15.045   0.535
48939W        W17344   9.873  16.137   3.188
48940W        W17345   4.575  24.635   1.309
48941W        W17346  16.807  32.330  14.887
48942W        W17347  37.094  35.101   0.213
48943W        W17348   6.789   6.211   2.748
48944W        W17349  34.099   2.430  13.332
48945W        W17350  11.098  41.802   3.737
48946W        W17351   0.015  41.604  12.094
48947W        W17352  34.545  15.573   0.398
48948W        W17353  14.130  17.684  10.387
48949W        W17354  43.751  37.309  11.606
48950W        W17355  38.151  23.541  10.700
48951W        W17356  23.701  10.646   1.805
48952W        W17357  35.060  37.523   4.185
48953W        W17358  10.156  40.433   4.026
48954W        W17359   2.982  34.557   3.589
48955W        W17360  28.016  37.274  13.805
48956W        W17361  44.877   5.537   4.572
48957W        W17362  11.745  40.871  11.642
48958W        W17363  18.582  16.304  10.767
48959W        W17364   2.029  15.556   1.798
48960W        W17365  18.218  38.490   0.654
48961W        W17366  26.168  42.459  14.724
48962W        W17367  19.047  37.626  13.452
48963W        W17368   6.401  24.360   4.777
48964W        W17369  20.216   6.180  11.103
48965W        W17370  13.351  44.958   1.968
48966W        W17371  11.230   6.628   2.288
48967W        W17372  30.583  13.618  10.718
48968W        W17373  35.156   0.209   1.215
48969W        W17374  28.389  33.351  13.032
48970W        W17375  25.677  40.136  14.370
48971W        W17376  24.005   7.689   1.339
48972W        W17377  29.554  18.781  13.439
48973W        W17378  35.653   0.894  14.992
48974W        W17379  41.583   7.277  14.498
48975W        W17380  40.278  31.384  11.857
48976W        W17381   6.286   7.186   4.939
48977W        W17382  11.711  18.645   4.491
48978W        W17383  40.910  24.562   1.138
48979W        W17384  21.589  36.638   1.169
48980W        W17385  35.068  14.728   0.819
48981W        W17386  12.399   7.205  12.971
48982W        W17387  26.957   9.205  13.549
48983W        W17388  40.905  33.207   1.844
48984W        W17389  26.093  17.227  13.710
48985W        W17390  27.672  31.766   4.534
48986W        W17391   8.685  38.592  13.151
48987W        W17392   6.981   8.668  12.518
48988W        W17393  17.796   3.938  12.458
48989W        W17394  35.898   0.293   4.050
48990W        W17395  19.792  21.974  12.401
48991W        W17396  15.976   1.952   3.272
48992W        W17397  20.532  26.406   3.010
48993W        W17398   7.619  27.500   0.252
48994W        W17399   7.818  19.415   2.680
48995W        W17400  32.261  21.081  10.028
48996W        W17401   4.401  19.443  11.769
48997W        W17402   5.668   9.206  11.017
48998W        W17403  10.913  27.690   3.905
48999W        W17404   6.454   4.275  13.904
49000W        W17405   6.863  41.061  10.773
49001W        W17406   0.259   8.848  10.149
49002W        W17407  43.841  32.870   0.644
49003W        W17408  20.116  42.875   1.767
49004W        W17409  27.683  31.684  13.779
49005W        W17410  36.100  21.759  13.661
49006W        W17411  36.428   8.222   0.313
49007W        W17412  10.756  15.119  11.649
49008W        W17413  16.551  18.163  12.515
49009W        W17414  27.545   0.950  14.441
49010W        W17415   6.764  30.602   3.678
49011W        W17416  24.344  12.619   0.202
49012W        W17417  14.625   6.919  11.110
49013W        W17418  21.519  21.234   4.681
49014W        W17419   2.552  12.221   0.128
49015W        W17420  39.057  19.753   1.932
49016W        W17421  16.258  25.857   3.307
49017W        W17422  12.759  16.470   3.755
49018W        W17423  20.791  44.120  14.558
49019W        W17424  42.361  23.985   0.187
49020W        W17425  24.439   3.477   2.394
49021W        W17426  13.100  44.058   1.854
49022W        W17427   6.336   6.837  10.639
49023W        W17428  36.254  15.266  13.749
49024W        W17429  37.095  44.351   2.570
49025W        W17430  39.077  21.482  14.043
49026W        W17431  12.295  11.873  11.504
49027W        W17432  31.528  38.665   1.456
49028W        W17433  26.286  10.062  12.627
49029W        W17434  36.280  38.951  10.429
49030W        W17435   0.306  20.379   3.665
49031W        W17436  33.165  29.946   3.014
49032W        W17437  35.101  19.326   3.128
49033W        W17438   1.824  18.815  13.338
49034W        W17439   2.339   4.750   1.636
49035W        W17440  16.055  33.388   1.186
49036W        W17441  43.769   6.679   1.309
49037W        W17442  22.789  18.227   2.825
49038W        W17443  33.638  33.338   1.799
49039W        W17444   1.955   3.973  13.894
49040W        W17445  43.024  39.103  13.846
49041W        W17446  41.894  30.900  10.687
49042W        W17447   2.930  22.098   0.713
49043W        W17448  12.831  42.908  12.017
49044W        W17449  38.122  38.308  12.042
49045W        W17450   5.079  11.466  11.098
49046W        W17451  29.226  16.857  13.031
49047W        W17452  22.181  31.114  13.476
49048W        W17453   4.362   1.991   0.026
49049W        W17454  11.276   0.439  14.751
49050W        W17455   2.589  31.339   2.169
49051W        W17456  35.776  44.779   0.451
49052W        W17457  34.288  40.453  14.895
49053W        W17458  39.360   9.315  13.099
49054W        W17459   0.001  25.625  11.840
49055W        W17460  36.604  36.844  13.382
49056W        W17461   8.593  10.947   2.482
49057W        W17462  18.632  36.676  11.546
49058W        W17463  28.671  16.241  13.441
49059W        W17464   8.749   4.928   2.414
49060W        W17465  32.628  11.716   0.743
49061W        W17466  29.192  36.380   1.274
49062W        W17467   3.256  16.700   3.358
49063W        W17468  36.532  14.179  10.789
49064W        W17469   0.455  21.631  11.853
49065W        W17470  15.618   4.864  11.522
49066W        W17471  25.198   3.471  10.160
49067W        W17472  23.088  12.651  12.026
49068W        W17473   9.345  11.882   0.808
49069W        W17474  12.200   6.020   0.510
49070W        W17475  34.910  28.961  12.072
49071W        W17476  32.460   7.181   1.260
49072W        W17477  31.563  15.694  12.873
49073W        W17478  32.940   1.956   2.693
49074W        W17479   9.382  31.216  11.623
49075W        W17480  18.347  35.990   4.565
49076W        W17481  33.146  25.548   1.176
49077W        W17482  43.347  27.931  13.304
49078W        W17483   2.228  15.620   3.212
49079W        W17484  42.940   0.035  11.224
49080W        W17485   9.765  20.727  11.845
49081W        W17486   3.820  44.995  14.071
49082W        W17487   3.648  25.744  13.006
49083W        W17488  35.892  24.489   2.831
49084W        W17489  18.202   4.075   4.576
49085W        W17490   0.257  30.874  11.627
49086W        W17491  10.681  31.656   1.603
49087W        W17492   7.092  43.016  12.637
49088W        W17493  37.809  24.598  13.394
49089W        W17494   4.938  12.188  14.226
49090W        W17495   4.246  37.355   3.414
49091W        W17496  23.690  44.764  10.508
49092W        W17497  40.885  43.342   1.930
49093W        W17498   5.816  32.905  12.351
49094W        W17499   4.646   8.165   4.648
49095W        W17500   7.336  15.423  12.071
49096W        W17501  27.346  42.154   1.127
49097W        W17502   7.510  29.148   0.400
49098W        W17503  24.343  20.245  11.151
49099W        W17504  44.919  22.118  12.432
49100W        W17505  36.365  41.903   1.232
49101W        W17506  20.470  14.534   0.913
49102W        W17507  21.706  29.378  13.191
49103W        W17508  43.239  16.738   3.600
49104W        W17509  29.187  14.174  13.503
49105W        W17510   7.205   2.749   2.762
49106W        W17511  19.078  44.571   2.882
49107W        W17512  37.293  20.228  13.107
49108W        W17513  13.330  36.066   0.171
49109W        W17514  44.852  35.606   2.868
49110W        W17515  35.470  17.556   0.015
49111W        W17516   4.819  16.760   0.855
49112W        W17517  43.492  41.445  14.391
49113W        W17518   3.711  11.353  13.820
49114W        W17519   7.144  44.269  13.838
49115W        W17520  17.659  23.519  14.258
49116W        W17521  21.036  11.381  10.721
49117W        W17522  18.215  22.464   1.239
49118W        W17523  10.442  29.082   0.821
49119W        W17524   1.453  33.614  12.609
49120W        W17525  18.633   5.759  14.047
49121W        W17526  22.678   8.283  13.809
49122W        W17527  27.867  31.434   0.461
49123W        W17528  33.732  24.560  12.171
49124W        W17529  34.549  38.601  13.392
49125W        W17530  10.732  16.643  14.974
49126W        W17531  36.443  44.875  11.038
49127W        W17532  20.164  22.266   2.354
49128W        W17533  11.856  40.860   2.615
49129W        W17534  40.819  32.042  12.526
49130W        W17535  21.599  37.110  14.252
49131W        W17536  10.755  14.738   3.425
49132W        W17537  19.667  36.011  11.109
49133W        W17538  14.080   9.214   4.247
49134W        W17539   4.246   3.258  12.925
49135W        W17540  25.696  26.944  11.169
49136W        W17541   4.856  24.154  14.218
49137W        W17542  11.194  27.617   3.075
49138W        W17543  40.301  19.551  11.018
49139W        W17544   6.754  18.273   2.671
49140W        W17545  25.089  29.024   3.320
49141W        W17546  15.202  11.152  13.325
49142W        W17547   4.427  29.086   1.557
49143W        W17548  13.135  28.918   3.255
49144W        W17549  17.929  39.909  12.888
49145W        W17550  37.481  44.725  11.570
49146W        W17551  37.503  20.187   4.429
49147W        W17552  19.840  10.436  10.268
49148W        W17553  17.181  12.367   1.097
49149W        W17554  21.483   9.876  14.765
49150W        W17555  25.996   5.816   0.880
49151W        W17556  19.306   8.624  13.351
49152W        W17557  15.572   3.295   0.874
49153W        W17558   4.646   3.501   1.782
49154W        W17559  10.349  22.954   1.717
49155W        W17560  10.320  30.039  11.917
49156W        W17561  21.698  40.100   4.946
49157W        W17562  35.310  41.910   1.221
49158W        W17563  23.540  40.505  12.897
49159W        W17564  29.508  28.237   2.810
49160W        W17565  33.849  30.937   3.882
49161W        W17566  43.948  31.893   4.132
49162W        W17567   1.842  31.233  11.498
49163W        W17568  35.512   8.953  13.843
49164W        W17569  24.456  42.868   3.029
49165W        W17570  40.367  42.283  12.861
49166W        W17571  44.865  34.131   0.343
49167W        W17572  43.255  24.539  11.936
49168W        W17573  33.847  33.307  11.694
49169W        W17574  13.221  21.751  11.418
49170W        W17575  18.531   3.417  11.215
49171W        W17576  25.913  34.704   3.714
49172W        W17577   5.397  42.853  12.694
49173W        W17578   9.918   9.160   3.689
49174W        W17579   7.324  15.033  13.838
49175W        W17580  42.968  19.604   4.277
49176W        W17581  28.570  43.976  12.976
49177W        W17582   5.222  28.067  14.870
49178W        W17583  25.138  34.997  13.316
49179W        W17584   9.871  18.155  10.330
49180W        W17585  33.985   6.873   2.497
49181W        W17586  44.330  30.866   4.858
49182W        W17587  39.362  13.398  12.181
49183W        W17588  17.625   4.356  14.619
49184W        W17589   4.345  28.693  13.137
49185W        W17590   4.327   3.787   1.350
49186W        W17591   9.213   9.328   2.004
49187W        W17592  15.648  31.144   1.354
49188W        W17593  29.953  21.295  13.073
49189W        W17594  34.341  18.573   4.309
49190W        W17595  17.830  38.052  11.567
49191W        W17596  28.498  30.386   3.790
49192W        W17597  41.351  20.154   1.439
49193W        W17598  43.339  34.544   3.679
49194W        W17599  30.813  40.928  12.009
49195W        W17600   0.962   5.773   1.680
49196W        W17601  27.786  37.730   9.782
49197W        W17602   5.777  27.597   3.136
49198W        W17603  41.347   8.683   1.878
49199W        W17604  27.010  31.060  11.120
49200W        W17605  28.135   9.774  12.858
49201W        W17606   1.938  17.121  12.407
49202W        W17607  17.085  33.374   1.854
49203W        W17608  24.127  32.701  11.541
49204W        W17609  19.816  32.152  11.438
49205W        W17610  12.167  15.144   0.275
49206W        W17611  25.749   8.691   2.378
49207W        W17612  18.776  24.246   0.339
49208W        W17613  14.311   9.680  10.718
49209W        W17614  23.732  30.446   2.560
49210W        W17615   1.180  41.678   3.779
49211W        W17616   7.182  11.656   0.364
49212W        W17617  23.054  31.107   3.414
49213W        W17618  17.223  15.568   0.314
49214W        W17619  26.074   4.403  14.461
49215W        W17620   7.556   3.138   2.844
49216W        W17621  39.320  35.407   2.325
49217W        W17622   3.446  25.472   1.029
49218W        W17623  14.192  43.517  10.327
49219W        W17624  35.545  13.100  10.759
49220W        W17625  21.007  26.701  11.706
49221W        W17626  10.915  20.006  11.115
49222W        W17627  28.874  40.332  10.910
49223W        W17628  31.994  28.198   2.188
49224W        W17629  40.571  38.457  13.698
49225W        W17630  16.287  26.095   4.702
49226W        W17631   0.735   7.511   5.238
49227W        W17632   6.418  13.591  12.113
49228W        W17633  19.203  24.871   1.875
49229W        W17634  15.273  26.089   4.708
49230W        W17635  12.070  10.196  12.585
49231W        W17636  29.670  15.703   3.391
49232W        W17637   8.905  43.394   4.148
49233W        W17638   1.697  34.323   2.863
49234W        W17639  31.422  25.654  10.647
49235W        W17640  24.002  16.796  11.515
49236W        W17641  43.957  41.689   3.324
49237W        W17642  37.142  15.095   4.709
49238W        W17643  26.073  35.670  11.615
49239W        W17644  35.850  27.074   3.099
49240W        W17645  27.916  10.336   0.869
49241W        W17646  41.867  11.162  11.657
49242W        W17647  17.204  44.552  13.751
49243W        W17648  36.834  13.138  14.381
49244W        W17649  15.066  20.491   3.603
49245W        W17650  23.607   5.758   4.579
49246W        W17651   2.847  14.759  12.882
49247W        W17652  29.147  26.661   1.371
49248W        W17653  38.948  36.430   3.656
49249W        W17654  16.694  23.708   3.700
49250W        W17655  34.313  36.877   4.600
49251W        W17656  17.529  27.935   2.373
49252W        W17657  42.062  44.347  12.011
49253W        W17658   7.205  37.448  11.159
49254W        W17659  10.736  31.423  11.890
49255W        W17660  17.772  31.593  10.528
49256W        W17661   6.155   4.802  12.485
49257W        W17662   0.873  11.659   4.485
49258W        W17663  22.762   9.234  12.116
49259W        W17664  29.062  20.592  10.777
49260W        W17665  16.140  41.010  10.812
49261W        W17666  26.936   7.118   1.312
49262W        W17667  37.726  10.386  12.457
49263W        W17668  39.599   7.127   1.404
49264W        W17669   8.082   6.657  12.875
49265W        W17670  35.364  44.345   2.227
49266W        W17671  23.990   9.334   1.855
49267W        W17672  36.793  31.812   2.845
49268W        W17673  32.973  33.687   4.448
49269W        W17674  28.951  38.242  10.969
49270W        W17675  15.228   2.193  13.869
49271W        W17676  28.906   5.346  13.624
49272W        W17677  33.218  35.448   2.473
49273W        W17678   8.012  32.691  14.427
49274W        W17679  43.370  44.673  14.165
49275W        W17680  39.755  37.209   1.340
49276W        W17681  12.770  43.712   1.638
49277W        W17682  44.394  41.878  10.905
49278W        W17683  14.098   7.137  11.239
49279W        W17684  10.717  19.721   4.320
49280W        W17685  26.500  37.355  10.984
49281W        W17686  19.108  29.029  14.032
49282W        W17687  33.514   4.644  14.278
49283W        W17688  40.441  27.502  14.778
49284W        W17689  40.044  30.131  13.509
49285W        W17690  28.117   6.290   4.618
49286W        W17691   3.807  33.638   3.157
49287W        W17692  28.436  32.929  14.430
49288W        W17693  33.664   2.279  13.573
49289W        W17694  30.520   9.430   4.123
49290W        W17695  27.929  13.600   2.386
49291W        W17696  11.402  10.619   1.928
49292W        W17697  27.584   6.449   1.451
49293W        W17698  17.624  30.904   3.033
49294W        W17699  12.236  17.626  12.274
49295W        W17700   3.764   1.906   1.254
49296W        W17701   9.733  38.314  13.954
49297W        W17702   4.793   1.247   3.163
49298W        W17703   5.419  36.797   2.056
49299W        W17704   2.214  42.120   1.393
49300W        W17705   4.436  26.253   3.888
49301W        W17706  19.205   7.124   5.244
49302W        W17707  43.489  28.855   2.800
49303W        W17708  33.600  42.451   3.733
49304W        W17709   2.947  39.625  10.876
49305W        W17710  25.133   4.692  13.870
49306W        W17711  28.095  26.292  10.051
49307W        W17712   2.482  11.009   4.411
49308W        W17713   6.453  12.647  12.076
49309W        W17714   1.509  25.219   3.522
49310W        W17715  42.442  17.678  10.703
49311W        W17716  25.139  19.099   0.709
49312W        W17717   2.385  17.257  11.073
49313W        W17718  40.417  21.975   2.862
49314W        W17719  32.371  42.258  12.649
49315W        W17720  25.704  13.183  10.766
49316W        W17721  10.309  26.514   2.158
49317W        W17722  19.842  43.510  14.999
49318W        W17723  10.144  16.675   1.773
49319W        W17724   2.350  16.340   1.905
49320W        W17725  28.083  36.557   1.910
49321W        W17726  34.893   0.830   2.117
49322W        W17727  29.677  14.063  10.788
49323W        W17728  37.712   6.430  14.224
49324W        W17729   8.478  37.382  13.970
49325W        W17730  38.606  21.134  12.468
49326W        W17731  33.544   3.167   2.872
49327W        W17732   6.487   9.562  13.468
49328W        W17733  28.969   5.351   4.434
49329W        W17734  27.951  30.029   4.399
49330W        W17735  40.252  39.905   1.393
49331W        W17736  24.463  15.639  12.917
49332W        W17737   4.330   2.984   1.828
49333W        W17738  33.051  26.745  13.957
49334W        W17739  30.519  23.787   5.006
49335W        W17740   9.552  36.625  13.374
49336W        W17741  19.022  18.125  10.387
49337W        W17742  16.034  43.456  11.673
49338W        W17743  31.798  12.680   0.437
49339W        W17744  36.920  17.104  13.277
49340W        W17745  24.927  10.223  14.835
49341W        W17746  30.063   5.974  12.486
49342W        W17747  16.977  22.562   9.923
49343W        W17748   0.942  16.168   1.171
49344W        W17749   5.396  36.279  13.913
49345W        W17750  21.242   8.168   3.779
49346W        W17751   4.256  13.058   2.570
49347W        W17752  42.059  11.068   2.851
49348W        W17753  23.605  29.247   3.351
49349W        W17754  27.945  27.599  13.996
49350W        W17755  13.605  16.634  13.526
49351W        W17756  43.878  23.597   3.862
49352W        W17757  14.351  44.523  12.970
49353W        W17758  35.363  40.499   0.713
49354W        W17759  40.164  26.673  11.593
49355W        W17760  18.607  28.949  13.274
49356W        W17761  41.645  43.016  13.396
49357W        W17762  39.629  33.542  13.839
49358W        W17763  40.033   1.887   3.180
49359W        W17764  33.340  36.445  12.968
49360W        W17765  14.857  37.291  14.057
49361W        W17766  20.756  26.989  12.046
49362W        W17767  18.001  10.135   1.849
49363W        W17768  39.933  18.980   2.749
49364W        W17769   7.149  39.395  13.517
49365W        W17770  40.661   6.683   3.431
49366W        W17771  39.432  22.253   4.177
49367W        W17772  34.324  31.055   0.746
49368W        W17773  23.578  44.915  13.556
49369W        W17774   7.945  38.436   0.682
49370W        W17775  32.004  30.471  11.229
49371W        W17776  14.598  14.105   3.791
49372W        W17777  26.580  11.285  14.747
49373W        W17778  29.449   8.977  12.357
49374W        W17779   6.412  14.859  13.375
49375W        W17780  36.127  20.342   2.002
49376W        W17781  23.768  39.035   1.965
49377W        W17782  12.839   7.229   3.216
49378W        W17783   4.236  18.051   0.968
49379W        W17784  31.928  26.522  10.286
49380W        W17785  11.760   7.546   4.038
49381W        W17786  13.260  22.956   3.337
49382W        W17787  23.624   9.714   3.643
49383W        W17788  21.205  22.129   3.270
49384W        W17789   4.013  19.563   4.525
49385W        W17790  27.081  17.554   3.129
49386W        W17791  11.831  33.906  13.533
49387W        W17792  43.592  34.119   2.351
49388W        W17793  19.415   8.236   4.273
49389W        W17794  18.588  39.620  14.091
49390W        W17795   7.909  26.009   2.745
49391W        W17796  24.350  32.338  10.666
49392W        W17797  24.139  29.656  11.121
49393W        W17798  14.691   4.012   2.270
49394W        W17799   3.692  39.451  14.267
49395W        W17800  34.567  38.276  13.824
49396W        W17801  13.913   9.628  12.985
49397W        W17802  38.938  37.041  13.346
49398W        W17803  20.020  21.265   1.671
49399W        W17804  21.674   1.406   1.303
49400W        W17805  30.185  32.317  11.913
49401W        W17806   1.614  38.660   0.325
49402W        W17807  42.262  24.743   4.046
49403W        W17808  42.424  33.313   2.837
49404W        W17809   2.672  32.565  14.377
49405W        W17810  40.966  21.241  12.590
49406W        W17811  11.662  10.695   0.388
49407W        W17812  16.492  34.154  14.281
49408W        W17813   7.635  38.577  11.704
49409W        W17814   9.273  42.496   1.349
49410W        W17815  28.036  43.975  13.105
49411W        W17816  22.621  40.894  11.637
49412W        W17817  42.939  21.667   0.781
49413W        W17818   0.115  32.087  11.930
49414W        W17819   3.000  36.152   2.294
49415W        W17820  39.869  17.291  12.918
49416W        W17821  18.182  29.588   3.580
49417W        W17822  32.962  14.074   2.582
49418W        W17823  23.225  17.614  14.211
49419W        W17824  37.263  28.757  10.919
49420W        W17825   1.349  11.898  11.493
49421W        W17826   7.824  42.535  12.501
49422W        W17827  15.301   4.950  10.222
49423W        W17828  10.432   3.211  14.930
49424W        W17829   7.183  31.131  13.103
49425W        W17830  24.856  44.866   0.784
49426W        W17831  35.731  40.279   0.307
49427W        W17832  10.391  17.711  11.978
49428W        W17833   1.803   7.175   1.834
49429W        W17834  40.935  23.576  10.682
49430W        W17835  37.301  27.520   0.130
49431W        W17836  43.803  35.156  14.461
49432W        W17837  42.802  35.626  11.093
49433W        W17838  37.383  36.517   3.689
49434W        W17839  17.806  29.906  11.153
49435W        W17840  36.875  38.317   4.477
49436W        W17841  13.139   2.830   3.188
49437W        W17842  41.252  23.140  11.593
49438W        W17843  10.397  27.889  10.242
49439W        W17844  29.874  25.339  11.358
49440W        W17845  25.013  26.935   1.679
49441W        W17846  17.735   6.270  14.314
49442W        W17847  31.127  32.872   0.916
49443W        W17848  21.718  30.767  10.517
49444W        W17849  19.166  44.002  13.839
49445W        W17850  24.108  15.098   4.343
49446W        W17851  17.690  19.251  10.863
49447W        W17852  38.572   0.292   4.182
49448W        W17853  32.936   0.863  12.404
49449W        W17854  31.496  34.061  10.877
49450W        W17855  22.658   7.774  11.619
49451W        W17856  30.125  42.412   1.201
49452W        W17857  43.230  42.470   2.364
49453W        W17858  26.757  14.837   4.939
49454W        W17859  31.989  32.949  14.422
49455W        W17860   5.216   9.734   1.716
49456W        W17861   1.500  44.780   1.058
49457W        W17862  36.770  35.590  13.162
49458W        W17863  30.440  37.853  10.767
49459W        W17864  31.609   9.361  12.454
49460W        W17865  13.855  33.201  12.873
49461W        W17866  32.065  34.414   3.726
49462W        W17867  12.379  15.774  14.231
49463W        W17868  15.718   7.799   2.119
49464W        W17869  24.950   8.801   4.975
49465W        W17870  11.830  10.295   2.191
49466W        W17871  13.048  12.058   1.298
49467W        W17872  15.361  21.236   1.318
49468W        W17873  25.582  26.418   2.141
49469W        W17874  19.634  44.152  12.585
49470W        W17875  13.069  19.164  12.916
49471W        W17876  33.341  41.107   3.807
49472W        W17877  41.098  20.598   0.187
49473W        W17878  21.615  40.433   4.529
49474W        W17879   5.204  39.396  13.373
49475W        W17880   1.703  29.673   0.976
49476W        W17881  24.849   0.225   4.192
49477W        W17882  37.554  14.468   5.118
49478W        W17883   6.826  43.536   4.729
49479W        W17884  39.999  20.796   3.387
49480W        W17885   3.863  14.074   3.063
49481W        W17886  42.110  17.317   0.803
49482W        W17887  17.131  12.730   2.878
49483W        W17888  25.052  19.173  11.019
49484W        W17889  39.990  37.671  11.682
49485W        W17890   7.589  44.273   4.739
49486W        W17891   9.188  39.961   1.090
49487W        W17892   5.596  26.175   0.348
49488W        W17893  25.007  37.758   3.205
49489W        W17894   4.369  36.885  10.772
49490W        W17895  28.781  25.842  13.737
49491W        W17896  41.852  35.076   1.769
49492W        W17897  15.903  29.524  11.301
49493W        W17898   7.365  26.677  11.664
49494W        W17899  33.001  17.360   3.196
49495W        W17900  11.096  31.159   4.144
49496W        W17901  29.503   5.406  12.816
49497W        W17902  16.331  29.180  13.859
49498W        W17903  23.333  34.482  14.159
49499W        W17904  33.982  23.189  11.191
49500W        W17905   9.982  16.536   1.280
49501W        W17906  15.613   4.473  14.226
49502W        W17907  32.508  17.037   1.224
49503W        W17908   3.188  14.907  10.565
49504W        W17909   6.796   2.409   2.858
49505W        W17910  19.965  20.352   3.589
49506W        W17911  24.595  16.626  13.035
49507W        W17912  41.260   6.819  12.144
49508W        W17913  15.014  12.990  12.551
49509W        W17914  33.464   8.322  10.782
49510W        W17915  34.391   2.354  11.527
49511W        W17916   4.219  40.659   1.484
49512W        W17917  44.640   1.900  13.914
49513W        W17918  36.520  19.039   4.154
49514W        W17919  34.253   7.001  14.014
49515W        W17920  13.232  43.428  10.721
49516W        W17921  10.718  11.637   3.772
49517W        W17922  14.794  22.034  13.857
49518W        W17923  17.776  42.688   3.412
49519W        W17924  32.790  36.576  12.924
49520W        W17925  34.153  22.483  12.908
49521W        W17926  18.266  29.691  11.121
49522W        W17927  25.998  17.254  11.172
49523W        W17928  16.179  23.551  12.539
49524W        W17929  25.011   7.933  11.425
49525W        W17930  12.678   1.357   0.439
49526W        W17931   6.810  25.764   1.201
49527W        W17932  29.447   6.381  11.475
49528W        W17933  41.032  30.391  10.765
49529W        W17934  12.249   0.517   0.221
49530W        W17935  37.024   4.308  11.594
49531W        W17936  10.729  36.309   3.731
49532W        W17937  21.782  38.848   0.243
49533W        W17938  39.478  28.631  10.517
49534W        W17939   2.504   0.739  14.380
49535W        W17940  11.047  37.538   0.624
49536W        W17941  17.140  33.771   2.730
49537W        W17942  22.333   4.087   3.647
49538W        W17943   6.886  30.216  10.766
49539W        W17944  10.730  16.004   2.962
49540W        W17945  34.524  14.406  11.648
49541W        W17946  40.407  35.428  11.699
49542W        W17947  17.142  40.822   1.498
49543W        W17948  30.842  24.037   2.991
49544W        W17949  32.479  42.690  11.472
49545W        W17950  42.028  28.179  13.318
49546W        W17951  23.216  22.336  12.782
49547W        W17952  23.052   8.911  13.537
49548W        W17953  20.289  30.212  11.871
49549W        W17954  18.929   1.021   0.298
49550W        W17955   3.336   3.226  14.950
49551W        W17956  44.981  18.700   2.192
49552W        W17957   7.364  42.556   1.378
49553W        W17958  39.075  27.862   0.491
49554W        W17959   7.041  14.721   5.126
49555W        W17960  21.230  37.463  11.583
49556W        W17961   3.131  31.080   1.229
49557W        W17962  35.506   2.890  14.073
49558W        W17963  26.178  40.847   2.301
49559W        W17964   9.783  26.525   2.608
49560W        W17965   7.719  25.094  13.426
49561W        W17966  26.009  40.344  14.738
49562W        W17967  12.598  20.063  11.918
49563W        W17968  34.134  10.364   4.070
49564W        W17969  42.395  29.388  14.985
49565W        W17970  23.178   6.174  13.974
49566W        W17971  10.181  21.827   3.563
49567W        W17972   4.013  20.602  12.411
49568W        W17973   5.492   7.986  14.507
49569W        W17974  23.934   8.945   5.043
49570W        W17975  27.144  22.669   2.683
49571W        W17976   5.287  17.715   4.691
49572W        W17977   9.252  37.760  14.713
49573W        W17978  20.677  34.622  12.449
49574W        W17979  23.011  37.855   3.737
49575W        W17980  37.274  30.242   3.408
49576W        W17981   3.493   8.210  14.877
49577W        W17982  34.435  29.012  12.990
49578W        W17983  22.584  37.491   0.936
49579W        W17984  24.028  30.317  14.283
49580W        W17985  42.664  38.493   2.281
49581W        W17986   8.907  22.773  13.842
49582W        W17987  32.193  30.705   0.188
49583W        W17988  18.264  40.453  12.400
49584W        W17989   3.073  13.337  13.408
49585W        W17990  20.968  26.554   4.154
49586W        W17991  24.879  44.077  12.927
49587W        W17992  26.993  11.867   3.718
49588W        W17993   6.804  16.808  13.948
49589W        W17994  24.608  10.786  13.799
49590W        W17995  27.976  23.092   2.095
49591W        W17996  14.232   4.699  12.941
49592W        W17997  41.971  42.041   2.726
49593W        W17998  26.971  24.352  11.179
49594W        W17999  26.468   8.769  12.662
49595W        W18000   5.863  12.076  11.268
49596W        W18001  38.531   9.897   1.027
49597W        W18002   2.229  29.501   1.860
49598W        W18003  22.786  20.991  12.422
49599W        W18004  40.846  19.513   0.328
49600W        W18005  11.250   9.820   3.083
49601W        W18006   3.336  43.560  10.334
49602W        W18007  18.789  24.113  13.589
49603W        W18008  22.942   7.608  14.862
49604W        W18009  35.539   3.282  13.369
49605W        W18010   5.116  13.963   2.633
49606W        W18011  28.471  17.306  11.647
49607W        W18012   0.674  33.016   2.783
49608W        W18013   5.787   0.789  13.834
49609W        W18014   0.823  44.137   2.917
49610W        W18015  37.342  21.203   4.850
49611W        W18016  16.628   5.368   4.104
49612W        W18017  25.353  39.510   4.666
49613W        W18018   4.557  12.953  11.942
49614W        W18019  23.196  32.929  11.557
49615W        W18020   6.801  16.640   1.229
49616W        W18021   4.709  24.322   2.749
49617W        W18022  19.719   3.704   4.680
49618W        W18023  15.853  13.666  13.974
49619W        W18024  34.045   4.838   0.325
49620W        W18025  20.256  37.945   3.649
49621W        W18026  34.487   5.437   3.709
49622W        W18027  29.480   3.326   1.740
49623W        W18028  21.100  35.304  14.739
49624W        W18029   6.568  29.037   1.201
49625W        W18030  29.431  14.252  14.971
49626W        W18031  22.976   6.214  12.479
49627W        W18032  27.183  11.716  13.522
49628W        W18033  22.135   1.857  11.170
49629W        W18034  41.337  24.630   1.740
49630W        W18035  43.932  32.000   2.701
49631W        W18036  42.744  44.111   1.752
49632W        W18037  30.088  25.235  12.946
49633W        W18038  21.159  30.357  11.651
49634W        W18039  19.066  22.581  12.070
49635W        W18040  15.686  22.557  12.011
49636W        W18041  43.810  27.146   3.315
49637W        W18042  43.793  37.882  10.448
49638W        W18043   2.549   9.199  14.266
49639W        W18044  44.852  31.023   0.902
49640W        W18045  17.996  20.057  14.943
49641W        W18046  21.700  20.541   3.585
49642W        W18047  42.776  20.207   3.783
49643W        W18048  44.867   6.201  14.818
49644W        W18049  32.230  19.942   0.227
49645W        W18050  11.039  37.167  13.062
49646W        W18051  34.278  38.936   4.015
49647W        W18052   2.625  19.697   5.057
49648W        W18053  35.423  34.606   1.815
49649W        W18054  15.612  19.008   3.908
49650W        W18055  39.446  22.663  12.867
49651W        W18056  31.131  14.109   4.739
49652W        W18057  18.780   1.851  13.597
49653W        W18058  25.681   7.226  11.778
49654W        W18059  37.822   1.988  13.772
49655W        W18060  32.098  10.482   4.106
49656W        W18061   7.851   2.632   2.858
49657W        W18062  28.661  14.112  12.655
49658W        W18063  27.657  42.814   4.603
49659W        W18064   4.146  36.515   0.035
49660W        W18065  23.606  20.125   2.698
49661W        W18066  16.840  41.825   4.154
49662W        W18067  19.972   8.954   0.201
49663W        W18068  22.970   0.811   4.162
49664W        W18069  32.609  41.775   3.206
49665W        W18070  16.846   8.877  13.741
49666W        W18071  29.452   6.402   3.213
49667W        W18072  32.461  12.201   1.641
49668W        W18073  36.250  34.281   1.485
49669W        W18074  14.306   4.761   0.233
49670W        W18075  43.412  43.747  12.611
49671W        W18076  21.998  30.018  14.805
49672W        W18077   8.908  23.625   3.843
49673W        W18078  10.241  40.953   4.078
49674W        W18079  42.750  16.066   1.845
49675W        W18080  34.049  44.289   2.392
49676W        W18081  10.156   4.196   2.262
49677W        W18082  31.483  19.293   2.789
49678W        W18083   2.194   7.802  14.817
49679W        W18084  18.543   3.328   2.139
49680W        W18085   9.506   2.670  12.496
49681W        W18086  42.239   0.290  11.573
49682W        W18087  23.008   2.857   1.149
49683W        W18088  18.108  20.340   4.004
49684W        W18089  23.582   2.413   0.895
49685W        W18090  25.914  43.167  11.337
49686W        W18091  28.214   3.716  10.838
49687W        W18092  36.129   7.721  12.017
49688W        W18093   6.899  32.371  12.969
49689W        W18094  11.769  14.105   0.375
49690W        W18095   6.221  12.183  12.116
49691W        W18096  16.135  12.117   2.412
49692W        W18097  43.403  20.104  11.146
49693W        W18098  13.950  19.514   0.055
49694W        W18099  16.075  25.858  10.637
49695W        W18100  36.290   3.196   3.279
49696W        W18101  21.690  40.602   3.874
49697W        W18102  35.888  39.554  12.452
49698W        W18103  34.147  41.813  13.965
49699W        W18104   4.593  15.910   1.234
49700W        W18105  38.649   4.260  12.582
49701W        W18106  26.606  19.301   2.373
49702W        W18107   4.946  15.530  12.313
49703W        W18108  22.862  43.250   3.834
49704W        W18109  30.865  35.406  12.569
49705W        W18110  20.551  16.299  10.653
49706W        W18111   3.638  36.507   0.159
49707W        W18112  16.114  17.543  11.333
49708W        W18113  24.784  25.883  14.914
49709W        W18114  29.558   0.233   0.014
49710W        W18115  42.559  42.975  11.584
49711W        W18116   3.145  32.822  14.020
49712W        W18117  40.917  37.018  13.595
49713W        W18118  34.816  32.613   0.295
49714W        W18119  22.326  17.801  13.042
49715W        W18120  24.982   6.249  13.744
49716W        W18121  31.909   8.162   3.350
49717W        W18122  31.522  24.408  11.150
49718W        W18123  24.580   3.134  13.501
49719W        W18124  36.675  25.749  13.394
49720W        W18125  36.345  14.226   2.803
49721W        W18126   0.525  24.289  11.377
49722W        W18127  40.491   8.813   4.905
49723W        W18128   3.947  40.071  12.685
49724W        W18129   7.964  17.877   4.229
49725W        W18130  43.876  36.028   3.312
49726W        W18131  39.407  32.182  11.430
49727W        W18132  26.648  10.781  14.583
49728W        W18133  42.774  14.536  11.131
49729W        W18134   2.654   7.961   2.345
49730W        W18135  29.463  27.964   3.772
49731W        W18136  38.338  24.130  12.473
49732W        W18137  35.294  31.067   0.747
49733W        W18138   2.663  10.417  14.549
49734W        W18139  24.845  28.123  11.715
49735W        W18140  32.597  19.540   2.322
49736W        W18141  30.542  15.283   1.814
49737W        W18142  34.473  29.619  14.883
49738W        W18143  37.628  30.148   3.763
49739W        W18144   2.895  35.918   1.844
49740W        W18145  13.242   8.440   3.719
49741W        W18146   2.867   8.217   3.189
49742W        W18147  29.095  16.835   2.370
49743W        W18148  29.651  14.407  13.570
49744W        W18149  42.637  12.297   1.312
49745W        W18150   6.478   1.896  10.249
49746W        W18151  42.281  16.725   0.437
49747W        W18152  44.921   9.628  11.058
49748W        W18153   7.209  36.151   1.304
49749W        W18154  39.637  27.788   3.601
49750W        W18155  25.930  14.149   3.567
49751W        W18156  42.788  39.826   3.635
49752W        W18157  31.979  38.078  12.488
49753W        W18158   8.372  13.320  11.151
49754W        W18159  15.051  26.541  13.373
49755W        W18160  21.971  44.756   3.268
49756W        W18161  19.645   4.249  12.507
49757W        W18162   8.631  22.128  11.978
49758W        W18163  14.191  33.348   2.390
49759W        W18164   0.537   7.742   0.447
49760W        W18165  30.144  35.493   3.938
49761W        W18166  36.623   7.259   2.748
49762W        W18167   8.708  24.735  13.462
49763W        W18168  43.896  17.738   4.233
49764W        W18169  21.389  33.847   3.805
49765W        W18170  27.218  31.094  12.990
49766W        W18171  40.337  16.204  13.053
49767W        W18172  11.838   4.789  10.331
49768W        W18173  38.010   3.705   0.261
49769W        W18174   5.868  19.560   5.148
49770W        W18175  17.322   9.723  10.310
49771W        W18176  17.382  11.621   3.781
49772W        W18177   2.536  23.580   1.654
49773W        W18178   6.044  22.692   2.758
49774W        W18179   0.354  29.440   1.712
49775W        W18180   2.004  24.041  11.606
49776W        W18181   9.792  29.581  10.922
49777W        W18182  17.308  13.858   4.189
49778W        W18183  30.619  39.117  11.068
49779W        W18184  40.909   6.995   3.102
49780W        W18185  37.589  12.671   4.483
49781W        W18186   8.698   5.779   4.371
49782W        W18187  11.854   0.392   3.423
49783W        W18188  43.950  32.015  12.533
49784W        W18189  20.030   6.700   0.970
49785W        W18190  35.998  21.124  11.347
49786W        W18191  12.524  43.303   2.417
49787W        W18192  41.698  33.460  12.511
49788W        W18193  32.306   7.301  13.539
49789W        W18194  42.907  38.835  11.637
49790W        W18195  44.161   8.732  11.160
49791W        W18196  33.823  10.724   1.984
49792W        W18197  26.827   8.574  12.982
49793W        W18198  30.640  42.973  12.373
49794W        W18199  36.682   7.113  10.271
49795W        W18200   3.952   3.014   4.243
49796W        W18201  19.453  24.273  14.719
49797W        W18202   5.143  31.567  13.334
49798W        W18203   6.199  23.161   2.586
49799W        W18204  30.465  35.105  12.370
49800W        W18205  23.807  24.686  12.010
49801W        W18206   7.381  38.035  14.354
49802W        W18207  39.552  30.511  12.524
49803W        W18208  26.043  43.324   2.307
49804W        W18209  34.936  23.757  14.226
49805W        W18210  12.262  24.093  13.769
49806W        W18211  10.948  29.020   0.886
49807W        W18212  11.868  43.350   4.128
49808W        W18213  10.708   7.644   1.350
49809W        W18214  42.962  25.934   1.255
49810W        W18215  16.544  31.302  14.855
49811W        W18216  43.511  20.765  10.407
49812W        W18217  25.688  28.988  14.982
49813W        W18218  23.430   4.880   4.639
49814W        W18219   0.352  17.133  11.275
49815W        W18220  29.904  37.703  14.998
49816W        W18221  28.955  22.971  11.838
49817W        W18222  23.477  24.979   1.416
49818W        W18223  24.978  39.373  13.105
49819W        W18224   2.503  33.458   1.139
49820W        W18225  40.591  28.160   4.564
49821W        W18226  14.345  43.915   0.918
49822W        W18227   4.674  23.542   3.734
49823W        W18228  38.978   3.863   3.594
49824W        W18229  38.321  15.564   2.654
49825W        W18230  24.603  43.905   2.863
49826W        W18231  20.671  33.897   0.552
49827W        W18232  25.172  18.169   1.019
49828W        W18233  30.082  10.746  11.587
49829W        W18234  35.827   8.171  12.075
49830W        W18235  10.290   9.975  11.142
49831W        W18236  28.469   8.151  12.100
49832W        W18237  28.410  35.963  13.431
49833W        W18238   8.624  31.820  11.154
49834W        W18239  14.261  32.557   0.709
49835W        W18240  42.963  22.129  12.170
49836W        W18241   0.513   6.237   1.357
49837W        W18242  14.660   5.196   1.865
49838W        W18243  30.843  13.215  12.900
49839W        W18244  16.527   2.016  14.503
49840W        W18245  39.943  22.559   3.402
49841W        W18246   3.846  13.285  14.308
49842W        W18247  24.253  42.175  11.999
49843W        W18248  23.020   3.151  14.446
49844W        W18249  44.644  20.120   4.539
49845W        W18250  37.951  12.900  12.801
49846W        W18251  32.041   8.184  12.155
49847W        W18252   8.741  44.819   4.269
49848W        W18253   1.255   6.930  13.496
49849W        W18254  14.841  13.683  14.940
49850W        W18255  29.545  33.395   1.421
49851W        W18256  44.290   0.523  12.431
49852W        W18257  22.683  22.138   3.791
49853W        W18258  31.769  23.428  11.125
49854W        W18259   8.053  21.679  14.588
49855W        W18260  33.599  35.453   4.981
49856W        W18261   4.128  20.356  12.925
49857W        W18262  23.680  28.205   0.326
49858W        W18263  17.602  23.537  11.384
49859W        W18264  18.054   9.232  14.211
49860W        W18265  30.005  14.881  14.492
49861W        W18266   3.509  30.071   1.026
49862W        W18267  14.272  19.015   3.279
49863W        W18268  37.955  35.096  14.561
49864W        W18269  11.284  24.708  14.263
49865W        W18270  25.118  31.387   0.898
49866W        W18271  33.431  11.975   4.841
49867W        W18272   0.465  37.463  13.423
49868W        W18273  27.711  41.764  13.496
49869W        W18274  19.642  22.316  13.695
49870W        W18275  26.001  23.717   0.975
49871W        W18276   3.145  18.475  10.740
49872W        W18277   1.006  30.887  11.129
49873W        W18278  39.921   8.403   0.887
49874W        W18279  11.592  17.143  11.086
49875W        W18280  25.242  30.098  13.991
49876W        W18281   0.404  39.478   1.889
49877W        W18282  43.338   1.897   0.295
49878W        W18283  13.742  18.495   2.686
49879W        W18284   4.281  19.204   2.440
49880W        W18285  15.123   4.514  14.006
49881W        W18286  30.820  41.746  14.955
49882W        W18287   9.840  28.033  12.939
49883W        W18288  10.579  23.014   3.239
49884W        W18289   2.415  36.127  13.980
49885W        W18290  28.669  34.723  11.757
49886W        W18291  38.317  37.606   3.601
49887W        W18292  22.946  36.987   4.737
49888W        W18293  37.085   4.200   0.377
49889W        W18294  28.048   0.969  14.581
49890W        W18295  43.769  36.455   0.334
49891W        W18296  27.411  11.316  11.079
49892W        W18297  13.720  15.389  11.669
49893W        W18298  34.543  13.286   1.683
49894W        W18299  22.668   1.744   4.343
49895W        W18300  33.090   0.049  12.812
49896W        W18301  19.140  19.307  12.431
49897W        W18302   6.788  23.641   3.927
49898W        W18303   4.206  43.482  13.535
49899W        W18304   9.641  23.001   2.342
49900W        W18305  21.262  28.357   2.198
49901W        W18306  12.540  15.075   1.230
49902W        W18307  44.389  11.082  12.288
49903W        W18308  17.822   5.189  10.200
49904W        W18309  35.018  44.182   0.345
49905W        W18310   1.585  35.289   0.746
49906W        W18311  34.550  15.895  12.974
49907W        W18312  19.773  14.365   0.418
49908W        W18313  17.476  10.842  13.590
49909W        W18314  37.877  20.479  13.817
49910W        W18315   5.266  37.772  10.308
49911W        W18316  12.507  26.878  14.950
49912W        W18317  26.057  31.988   1.904
49913W        W18318   5.487  18.975  14.070
49914W        W18319  36.700  36.485  13.008
49915W        W18320   6.155  43.419  14.774
49916W        W18321  32.826  21.016  14.872
49917W        W18322  42.702  28.020  14.507
49918W        W18323  39.427  18.830   0.200
49919W        W18324   7.673  14.436   2.288
49920W        W18325   8.625  33.060  12.863
49921W        W18326  27.216  27.500  13.071
49922W        W18327  26.031  13.017   3.778
49923W        W18328   7.460   8.407  12.986
49924W        W18329  43.923  10.799  10.351
49925W        W18330   2.168  44.284   0.211
49926W        W18331  18.048   6.366  13.907
49927W        W18332  24.002  34.130  14.130
49928W        W18333  29.216  27.916   1.453
49929W        W18334  29.197  22.681  14.930
49930W        W18335  30.604  32.420  12.538
49931W        W18336   7.149   5.831  11.004
49932W        W18337  19.807  18.627  12.042
49933W        W18338  39.127  43.029  13.335
49934W        W18339  18.465  27.626   2.154
49935W        W18340  44.477  24.172   3.554
49936W        W18341  37.356  29.527   0.291
49937W        W18342  44.400  13.775  12.450
49938W        W18343  10.395  43.535  11.173
49939W        W18344  27.805  29.919  13.680
49940W        W18345   2.379   2.782   1.397
49941W        W18346   3.185  38.915   2.421
49942W        W18347  23.447  26.748  11.919
49943W        W18348   5.676  23.460   2.336
49944W        W18349  23.824  25.029   2.318
49945W        W18350  32.848  32.000   5.003
49946W        W18351  41.914  35.081   2.299
49947W        W18352  30.048   7.431   0.459
49948W        W18353  21.866  41.009  13.800
49949W        W18354  22.261  10.782  13.549
49950W        W18355   6.897  21.265   3.174
49951W        W18356   7.826  22.644  10.429
49952W        W18357  33.248  24.088  13.525
49953W        W18358  37.107  15.223   2.189
49954W        W18359   1.509  44.965  11.530
49955W        W18360  26.628  39.002   1.599
49956W        W18361  33.942  13.053  10.776
49957W        W18362   9.804  33.386   3.392
49958W        W18363   8.954  18.476   4.879
49959W        W18364  29.442  13.432  13.270
49960W        W18365  27.013   7.760   3.911
49961W        W18366  41.864  10.401  14.679
49962W        W18367  32.493  39.784  14.797
49963W        W18368  34.663   6.335  14.387
49964W        W18369  12.832  11.131  14.265
49965W        W18370  22.100  20.902  14.943
49966W        W18371   4.726  43.512   3.989
49967W        W18372  27.174  33.939   2.902
49968W        W18373  27.955  36.509  12.516
49969W        W18374  43.776  37.766  13.109
49970W        W18375  27.590  24.752  14.397
49971W        W18376  41.656  27.454  11.709
49972W        W18377  17.793  34.148  10.526
49973W        W18378  40.882   6.154   2.716
49974W        W18379  10.062  22.004   0.838
49975W        W18380   8.812  11.889  12.530
49976W        W18381   5.642   8.926  12.004
49977W        W18382   2.776   2.851  10.521
49978W        W18383  38.541  10.734  13.164
49979W        W18384  11.287  28.832   2.687
49980W        W18385  22.518  39.831  12.696
49981W        W18386  10.479   5.277  12.599
49982W        W18387  24.166  14.946  11.143
49983W        W18388  24.287  17.976   3.702
49984W        W18389  13.253  19.017  12.430
49985W        W18390   8.346  37.371  14.523
49986W        W18391  29.566  29.759   1.229
49987W        W18392   4.168   7.993   4.527
49988W        W18393  35.123  17.319  11.990
49989W        W18394  36.013   3.523  13.446
49990W        W18395   5.110  24.684   5.100
49991W        W18396   5.907  28.550   4.606
49992W        W18397   4.429  36.347  14.055
49993W        W18398  22.118  36.899   3.695
49994W        W18399  28.450  41.602  10.791
49995W        W18400  12.198  40.442  13.461
49996W        W18401  36.867   2.455   2.032
49997W        W18402  34.224  15.717  11.232
49998W        W18403  26.471  13.367   1.928
49999W        W18404  35.589   2.263  13.366
50000W        W18405  32.943  10.837   3.994
50001W        W18406   6.138  18.777  10.940
50002W        W18407  36.987  24.196   3.877
50003W        W18408  14.048  35.513   2.251
50004W        W18409  35.043  39.108  10.445
50005W        W18410  41.467  10.058  14.920
50006W        W18411  36.026   8.899   4.869
50007W        W18412  30.262   8.731   1.291
50008W        W18413   6.993  33.358   2.728
50009W        W18414  29.386  13.998   0.962
50010W        W18415   5.034  26.245  14.761
50011W        W18416   8.366   2.691   2.947
50012W        W18417   8.957  13.209   3.486
50013W        W18418  36.781  12.622  10.931
50014W        W18419  20.184  36.261  13.114
50015W        W18420   4.187   7.272   2.747
50016W        W18421  24.197   6.115   3.814
50017W        W18422  44.986   0.539   1.261
50018W        W18423  27.033  20.330   0.746
50019W        W18424  19.690  10.384   0.734
50020W        W18425  35.564  12.906   0.858
50021W        W18426  34.182  27.438  13.065
50022W        W18427   6.738  31.476  14.365
50023W        W18428  43.984   3.094   1.878
50024W        W18429  11.169   4.943  11.115
50025W        W18430  25.616  23.019  10.495
50026W        W18431  30.319  43.240  13.930
50027W        W18432  24.221  43.339  12.977
50028W        W18433  42.439  15.431  12.014
50029W        W18434  15.202   8.738   4.970
50030W        W18435  14.363  10.574   0.525
50031W        W18436   7.396   1.270  11.931
50032W        W18437   7.936  33.486   4.003
50033W        W18438  22.414  40.397  11.038
50034W        W18439  13.703  36.827   4.624
50035W        W18440   7.396  44.872   0.443
50036W        W18441  19.065  41.945   0.800
50037W        W18442  36.899  21.314  12.140
50038W        W18443  42.783  24.493   3.257
50039W        W18444   6.706  42.883   1.274
50040W        W18445  19.078  24.717   4.666
50041W        W18446  29.657  17.003  11.022
50042W        W18447  42.528  33.260  12.236
50043W        W18448  39.927  41.234  14.851
50044W        W18449  26.828  34.427  11.655
50045W        W18450  30.994  30.546   3.131
50046W        W18451  32.960   8.664   3.866
50047W        W18452  25.089  43.014  12.362
50048W        W18453  14.130  22.614  14.460
50049W        W18454  26.246  34.097  13.430
50050W        W18455  39.508  17.094  11.265
50051W        W18456  23.714  13.794   0.858
50052W        W18457  36.606  11.108   0.857
50053W        W18458   8.587  28.502  12.916
50054W        W18459  25.249  25.157   4.658
50055W        W18460  24.173  37.793  11.660
50056W        W18461  39.430  38.463   4.857
50057W        W18462   0.443  18.209  12.457
50058W        W18463  29.683   9.992   2.835
50059W        W18464  32.096  41.220   4.565
50060W        W18465  15.154   9.425   1.816
50061W        W18466  13.394   5.415  14.372
50062W        W18467  16.403   0.422   1.430
50063W        W18468  44.793  27.129  14.999
50064W        W18469  35.852  14.135  12.368
50065W        W18470  13.801  12.359  12.192
50066W        W18471   3.178  24.583  11.059
50067W        W18472  24.634  25.697   1.772
50068W        W18473   2.908  17.723  13.089
50069W        W18474  15.220  20.665  12.877
50070W        W18475   7.312  28.002   3.768
50071W        W18476  33.006  23.473  14.733
50072W        W18477  12.801  25.291   3.269
50073W        W18478  30.580  29.616   3.265
50074W        W18479  44.477   3.934  11.935
50075W        W18480  23.032   0.905   3.322
50076W        W18481  20.040  44.452   1.307
50077W        W18482  17.774  18.948  12.248
50078W        W18483  11.884  16.875   5.230
50079W        W18484  38.062  32.083   3.375
50080W        W18485  33.882  32.685  13.067
50081W        W18486  40.172  43.153  11.657
50082W        W18487  32.496  19.532   0.397
50083W        W18488  25.123  27.669   2.177
50084W        W18489  12.820  43.935  14.232
50085W        W18490  22.697  31.664  11.609
50086W        W18491   8.637   1.340   2.925
50087W        W18492  12.929  44.472   3.657
50088W        W18493  38.055  32.845   4.861
50089W        W18494   0.001  41.949  14.814
50090W        W18495  12.396  20.987   4.706
50091W        W18496   1.985   1.486  14.410
50092W        W18497   5.312  21.230  13.254
50093W        W18498   6.596  25.947  12.540
50094W        W18499   5.689  28.656  14.951
50095W        W18500  28.752  33.108   0.881
50096W        W18501   8.116  21.220  11.155
50097W        W18502  22.613  18.486  10.659
50098W        W18503   6.167  30.299   5.063
50099W        W18504  37.344  14.193  14.601
50100W        W18505  35.912  37.581  11.891
50101W        W18506  18.275   0.211  11.238
50102W        W18507  11.187  26.963  12.681
50103W        W18508  41.719   6.653   2.326
50104W        W18509   3.417   2.759  13.918
50105W        W18510   8.678   8.563  10.599
50106W        W18511  35.301   6.854  13.242
50107W        W18512  13.559  36.885   1.678
50108W        W18513  25.516  29.047   3.007
50109W        W18514  41.351  16.245   1.426
50110W        W18515  17.389  41.549  11.925
50111W        W18516   1.370   3.950   1.176
50112W        W18517  34.827   8.915   3.073
50113W        W18518  13.302  44.067   0.362
50114W        W18519  41.824  37.159  13.414
50115W        W18520   0.243  14.857  12.090
50116W        W18521  42.071  11.333  10.743
50117W        W18522  39.124  23.119   1.196
50118W        W18523  36.710  33.447   4.938
50119W        W18524  30.560   6.007   2.479
50120W        W18525   3.864  37.364  13.931
50121W        W18526  10.345   2.408  11.109
50122W        W18527  11.437  21.651   2.894
50123W        W18528  17.285  39.024  12.905
50124W        W18529  39.027  39.792   0.847
50125W        W18530  11.417   2.196   1.227
50126W        W18531  10.714  27.142  12.516
50127W        W18532  19.058   3.186  12.070
50128W        W18533  20.975   8.676   4.342
50129W        W18534  11.040  24.538   4.657
50130W        W18535  40.442  17.330   0.573
50131W        W18536   7.332   6.338  13.841
50132W        W18537   4.361  19.761  10.796
50133W        W18538  16.545  28.705  14.641
50134W        W18539  24.595  31.347  11.521
50135W        W18540  16.814  24.023   0.372
50136W        W18541  21.814  10.730  13.927
50137W        W18542  35.402  15.740   2.199
50138W        W18543  40.495  28.006  14.873
50139W        W18544   4.436  20.920  12.425
50140W        W18545  38.313   1.971   2.366
50141W        W18546  11.845  26.580   0.742
50142W        W18547  32.356  13.650  14.244
50143W        W18548  13.666   9.670   4.461
50144W        W18549  28.244   3.189   3.766
50145W        W18550  21.213   2.950  13.874
50146W        W18551  32.295  42.615   4.991
50147W        W18552  34.549  31.341  12.040
50148W        W18553  30.178  22.811  14.502
50149W        W18554   2.458  21.578  14.048
50150W        W18555   1.695  31.895  12.020
50151W        W18556  26.418   7.324   3.693
50152W        W18557  10.120  42.892  14.883
50153W        W18558  12.544  11.980   1.194
50154W        W18559  26.904  35.631  12.626
50155W        W18560  27.019   0.332   0.459
50156W        W18561  34.388  12.318  14.050
50157W        W18562  21.504  44.606   3.994
50158W        W18563   9.155   7.995  13.584
50159W        W18564  20.481  29.918   0.260
50160W        W18565  25.299   1.331  11.485
50161W        W18566  25.090   8.447   4.578
50162W        W18567  38.572  26.120  11.978
50163W        W18568  17.183  40.359  14.855
50164W        W18569  14.753  42.306   2.170
50165W        W18570  17.719   2.226   2.836
50166W        W18571  24.503  34.050  13.685
50167W        W18572  14.867  14.079   0.303
50168W        W18573  20.700  24.790  10.631
50169W        W18574  44.436  22.609   0.813
50170W        W18575  11.344  42.946  11.852
50171W        W18576  11.150  40.925  14.735
50172W        W18577   6.617  10.146   0.974
50173W        W18578  12.538  29.427  12.924
50174W        W18579  37.624  16.633  12.457
50175W        W18580  38.868  31.514  14.674
50176W        W18581  26.912  25.636  11.592
50177W        W18582  41.448  28.412  12.487
50178W        W18583  36.959   1.973   1.867
50179W        W18584  24.575   2.215  11.669
50180W        W18585  40.881  43.185  12.118
50181W        W18586   3.978   6.820  11.886
50182W        W18587   7.813  37.574  12.850
50183W        W18588   3.873   4.500   2.402
50184W        W18589   6.699  30.831  11.538
50185W        W18590  15.203  26.964  12.479
50186W        W18591  36.320  42.422  12.460
50187W        W18592  28.090   2.106   1.399
50188W        W18593   5.964  12.164  12.765
50189W        W18594  30.784  38.526   9.807
50190W        W18595  38.862   6.481   3.629
50191W        W18596  35.291  44.744   4.701
50192W        W18597  42.585  36.038  10.932
50193W        W18598  35.585  39.450  11.707
50194W        W18599  16.904   0.552  13.119
50195W        W18600  10.710  26.216   2.999
50196W        W18601  31.638  36.275   3.404
50197W        W18602  10.110  33.208   2.927
50198W        W18603  44.373  21.538  11.337
50199W        W18604  39.639  12.578  10.978
50200W        W18605  32.353  32.061   1.818
50201W        W18606  34.829  29.434   1.507
50202W        W18607  31.183  34.435  12.481
50203W        W18608  22.682  21.705   4.071
50204W        W18609  11.700   4.603   2.058
50205W        W18610  40.613  34.469  11.196
50206W        W18611  11.667  42.754   4.725
50207W        W18612  34.176   5.619   4.110
50208W        W18613  25.997  21.204  12.924
50209W        W18614  17.317  18.895  13.224
50210W        W18615  44.821   1.002   4.410
50211W        W18616   5.316   4.395  12.332
50212W        W18617  34.590  42.367  13.235
50213W        W18618  14.574  15.225  11.256
50214W        W18619  36.843   5.696   3.297
50215W        W18620  11.643  28.758   0.113
50216W        W18621  26.109  31.735  14.758
50217W        W18622  27.457   6.988   1.458
50218W        W18623  18.285  42.892   1.466
50219W        W18624  25.773  15.713  14.857
50220W        W18625   6.364   3.801  11.083
50221W        W18626  18.051  18.424  12.014
50222W        W18627   5.988  44.991   2.830
50223W        W18628  41.846  26.292   0.925
50224W        W18629   1.665  34.673  14.883
50225W        W18630  19.572  34.352   2.357
50226W        W18631  11.987  37.214   4.062
50227W        W18632  22.675   0.757  13.940
50228W        W18633  14.701  36.601  14.494
50229W        W18634  28.892  28.110   1.796
50230W        W18635  41.257  41.757  12.137
50231W        W18636  38.997  42.641  11.135
50232W        W18637   8.588  41.704   3.633
50233W        W18638  28.133  12.203   1.282
50234W        W18639  19.268  11.926  14.828
50235W        W18640  35.110  15.756  13.399
50236W        W18641  41.881  42.063  12.646
50237W        W18642  11.175   4.264   4.186
50238W        W18643   6.622   5.128   1.615
50239W        W18644  34.697  19.723   0.338
50240W        W18645  35.808  10.114  13.387
50241W        W18646  18.492  24.756   5.451
50242W        W18647  10.899  36.117   1.795
50243W        W18648  36.617  15.078  14.069
50244W        W18649  39.815  15.524  13.562
50245W        W18650  10.888  14.049  14.394
50246W        W18651  22.567  38.827  10.727
50247W        W18652   2.937   4.058   9.758
50248W        W18653  18.656  39.326  12.623
50249W        W18654  38.204  37.075   0.017
50250W        W18655  30.894   4.452   0.429
50251W        W18656  30.971  30.700   2.194
50252W        W18657  34.880  14.751  14.439
50253W        W18658  15.771   5.479   3.088
50254W        W18659  44.416  23.042  12.594
50255W        W18660   3.390  24.897   3.594
50256W        W18661  40.951   2.961  13.577
50257W        W18662  35.292  32.595  12.632
50258W        W18663   6.989  23.095   1.815
50259W        W18664  24.662  38.534  10.755
50260W        W18665  26.180   1.015   1.348
50261W        W18666  31.176  22.566  14.356
50262W        W18667  35.563  36.232   3.819
50263W        W18668  25.612   7.746   5.038
50264W        W18669  20.148   4.494   4.487
50265W        W18670  18.627  30.642   0.120
50266W        W18671  19.496  34.923   4.767
50267W        W18672  30.628  19.652   4.760
50268W        W18673   7.835  35.364  13.339
50269W        W18674   6.804  41.982   2.785
50270W        W18675  24.942  41.400  12.402
50271W        W18676  24.686  41.510  14.103
50272W        W18677  30.831  13.848   3.620
50273W        W18678  15.695   0.517   4.751
50274W        W18679   6.163  43.500   4.308
50275W        W18680   3.674  35.531   4.258
50276W        W18681  28.664   1.942  11.683
50277W        W18682  14.098  29.115  12.460
50278W        W18683  16.078  19.720  14.012
50279W        W18684  19.099  44.100   4.654
50280W        W18685  10.146  11.339  10.469
50281W        W18686  32.541  12.875  13.677
50282W        W18687  13.715   9.173  14.263
50283W        W18688   5.712  35.472  13.946
50284W        W18689  21.823   3.414   2.334
50285W        W18690  11.220  22.330  11.127
50286W        W18691   6.172   4.267  14.350
50287W        W18692  24.757  18.713   3.214
50288W        W18693  31.650  44.508  12.583
50289W        W18694  17.422  13.444  14.338
50290W        W18695   6.040  43.962   0.349
50291W        W18696  34.280  29.708   0.353
50292W        W18697  34.998   5.329   3.855
50293W        W18698  44.918   5.628   3.267
50294W        W18699  42.933  44.941   2.231
50295W        W18700  18.092  43.259   4.187
50296W        W18701   7.616  13.208   4.729
50297W        W18702   5.185  41.371   0.770
50298W        W18703  25.129  35.836   2.311
50299W        W18704  43.801   7.393   0.121
50300W        W18705  27.615  41.617  10.906
50301W        W18706  43.059   0.845   0.763
50302W        W18707  17.220  21.509  10.875
50303W        W18708  21.914  19.535  12.412
50304W        W18709  41.428   6.234   0.780
50305W        W18710  37.096  18.181   4.048
50306W        W18711  21.205  41.326   3.703
50307W        W18712  34.066  16.743   2.057
50308W        W18713   7.464  18.788   0.769
50309W        W18714   8.492   5.859   3.076
50310W        W18715   7.159   7.293  14.745
50311W        W18716  38.481   8.773  11.657
50312W        W18717  17.002   7.199  11.822
50313W        W18718   5.514  23.958   3.609
50314W        W18719  20.320  15.709  11.090
50315W        W18720  23.729  39.987   0.819
50316W        W18721  15.495   9.434  11.153
50317W        W18722   2.226  28.481   0.291
50318W        W18723  37.998  27.708  11.136
50319W        W18724   3.341  38.936   2.926
50320W        W18725   2.586  42.776  11.625
50321W        W18726   6.611  37.181  12.002
50322W        W18727  15.801  26.661  14.954
50323W        W18728  34.509  22.148   2.774
50324W        W18729  41.876   9.760  11.248
50325W        W18730  10.232  33.907   4.838
50326W        W18731  32.750  28.347  10.278
50327W        W18732  44.555  32.678   1.625
50328W        W18733  37.066  12.716   3.691
50329W        W18734  37.368  31.651  13.954
50330W        W18735  18.164  41.463  10.734
50331W        W18736  43.416  32.109   3.818
50332W        W18737  23.254  22.977  14.788
50333W        W18738  41.750  22.212   0.988
50334W        W18739  12.791  13.041   2.181
50335W        W18740  44.447  14.605   3.766
50336W        W18741  39.946  37.990  10.921
50337W        W18742  17.990  30.587   1.776
50338W        W18743  20.335  30.679   5.086
50339W        W18744  34.117  23.991  14.789
50340W        W18745  17.614  10.834   5.326
50341W        W18746  30.973  40.284   0.893
50342W        W18747  20.106   1.553  10.983
50343W        W18748  28.971  44.845   0.762
50344W        W18749  31.248  27.953  13.097
50345W        W18750   3.813  31.842   0.898
50346W        W18751  32.132  13.571  13.356
50347W        W18752  33.886  29.903   0.052
50348W        W18753  32.885  40.831  11.601
50349W        W18754  27.626   4.800   4.333
50350W        W18755  13.194  20.496  12.305
50351W        W18756  18.583   2.029   2.812
50352W        W18757   0.745  21.187  12.539
50353W        W18758  29.523  26.420   5.155
50354W        W18759  18.235  22.132   5.514
50355W        W18760  22.027  34.163  12.922
50356W        W18761  28.422  30.533  10.696
50357W        W18762  11.964   4.223   2.679
50358W        W18763  13.677  22.161   4.249
50359W        W18764  42.430   7.311   4.583
50360W        W18765  32.905  39.794   1.753
50361W        W18766  11.330  38.707  11.380
50362W        W18767  19.173   4.868   2.436
50363W        W18768   0.191  41.844   2.779
50364W        W18769  42.341  40.908  10.965
50365W        W18770  35.083   1.259  11.173
50366W        W18771   3.315  16.663   4.869
50367W        W18772  41.028   6.912  10.123
50368W        W18773  26.608   8.019   4.154
50369W        W18774  19.351  44.162  13.031
50370W        W18775   7.301  37.856  12.824
50371W        W18776   8.893  12.285   2.013
50372W        W18777  16.055  10.248  10.337
50373W        W18778  16.213   1.846   2.830
50374W        W18779  38.770   4.397   2.228
50375W        W18780  16.130  38.397  10.632
50376W        W18781  13.596  13.826   4.181
50377W        W18782  42.888  13.320   1.190
50378W        W18783   5.240  32.241  11.210
50379W        W18784  15.536  31.291   5.506
50380W        W18785  30.675  34.052  13.955
50381W        W18786  24.196  41.968  13.747
50382W        W18787  31.357   0.902  10.578
50383W        W18788  36.013  35.318   0.812
50384W        W18789   3.886  16.108  14.340
50385W        W18790  37.319  44.885   3.918
50386W        W18791   0.892  34.451  11.074
50387W        W18792  13.965  30.216  13.562
50388W        W18793  33.416  30.530   4.579
50389W        W18794  37.166  34.343  13.412
50390W        W18795  42.517  20.792   1.456
50391W        W18796  34.113  11.137  14.547
50392W        W18797  23.257  40.321  13.333
50393W        W18798   4.360  23.143   2.183
50394W        W18799  17.095   1.442   0.229
50395W        W18800  27.611  44.488  11.246
50396W        W18801  35.056   9.004  12.037
50397W        W18802   6.294  31.652   9.906
50398W        W18803  36.418  20.026  12.133
50399W        W18804  10.155   7.969  14.456
50400W        W18805  19.816  18.978   4.562
50401W        W18806  36.382   1.773  13.958
50402W        W18807  43.984  10.862   3.700
50403W        W18808  43.519  42.175   0.766
50404W        W18809  34.853  42.699  14.828
50405W        W18810  27.509  38.555  14.773
50406W        W18811   2.001  27.419  12.890
50407W        W18812  27.530  18.215  13.826
50408W        W18813   2.532  13.207  11.566
50409W        W18814  44.364   9.409   1.946
50410W        W18815  16.253   7.121  13.321
50411W        W18816   5.678  19.694  12.087
50412W        W18817  42.755  23.527   2.253
50413W        W18818   9.168  38.782   3.638
50414W        W18819  23.094  17.060  13.974
50415W        W18820  28.143  38.278   0.312
50416W        W18821  10.822  40.815  11.564
50417W        W18822  12.325  32.631   2.060
50418W        W18823  43.337  21.237   2.613
50419W        W18824  34.918  44.003  10.742
50420W        W18825  32.050  21.081   1.280
50421W        W18826   1.316  27.742  12.941
50422W        W18827   9.238  29.700  13.157
50423W        W18828  11.133  44.268  11.080
50424W        W18829   3.145   1.430   2.411
50425W        W18830  30.962  10.661   4.427
50426W        W18831  21.970  23.566   3.165
50427W        W18832  34.852  32.436  12.851
50428W        W18833  39.798  28.402   2.329
50429W        W18834  33.041  13.394   2.576
50430W        W18835  44.811  42.777   2.844
50431W        W18836  12.379  38.875  12.996
50432W        W18837  34.555  17.119   1.934
50433W        W18838  37.317  20.592  10.303
50434W        W18839   4.415   8.167  14.459
50435W        W18840  41.371  42.526  11.000
50436W        W18841   8.336  35.795   0.492
50437W        W18842  35.345   7.304  10.640
50438W        W18843  35.470  18.998   0.344
50439W        W18844   6.389  22.774  10.606
50440W        W18845   4.701  14.016   0.246
50441W        W18846   6.031  42.464   3.792
50442W        W18847  30.492  21.998  10.764
50443W        W18848  14.805  35.517   2.732
50444W        W18849  30.807   6.570  12.979
50445W        W18850  22.028  42.955   4.029
50446W        W18851  32.918  15.426  12.010
50447W        W18852  20.104  25.138   4.311
50448W        W18853  42.867  17.468   3.229
50449W        W18854  30.554   5.710   0.022
50450W        W18855  28.126  12.601  10.441
50451W        W18856  14.686  22.042  12.587
50452W        W18857  26.484  32.597  13.443
50453W        W18858  41.289   0.237   0.912
50454W        W18859  20.155   7.485  11.512
50455W        W18860  31.639  38.823  14.019
50456W        W18861  16.684   7.689  11.213
50457W        W18862  30.813  41.923  14.484
50458W        W18863  44.951   3.515   3.742
50459W        W18864  38.387  18.612  12.231
50460W        W18865   1.514  13.647   1.750
50461W        W18866  26.985  17.348  11.397
50462W        W18867  14.470  22.666  11.949
50463W        W18868  21.043  42.056  11.675
50464W        W18869  27.580   9.020  14.736
50465W        W18870  16.399  35.903  10.204
50466W        W18871  42.876  30.568   3.264
50467W        W18872  28.578  22.852  13.848
50468W        W18873  16.282  16.568  12.096
50469W        W18874  25.726  11.360  11.403
50470W        W18875  43.736   4.203   0.788
50471W        W18876  25.017  28.035   4.158
50472W        W18877  33.788  39.237  12.910
50473W        W18878  33.669  13.103  14.445
50474W        W18879  20.403  26.073  14.414
50475W        W18880  43.195   3.099   2.942
50476W        W18881  17.570  28.940  11.212
50477W        W18882  32.169  33.491   1.947
50478W        W18883  22.392  15.305  10.027
50479W        W18884  17.269  42.523  14.321
50480W        W18885   6.860  44.254  11.457
50481W        W18886  42.320  14.795   2.669
50482W        W18887  41.432   2.879  10.717
50483W        W18888  44.368  11.736   1.451
50484W        W18889  34.921  40.925   3.343
50485W        W18890   5.130  27.043   4.169
50486W        W18891  44.907  20.536  12.494
50487W        W18892  15.600  41.323  12.489
50488W        W18893  16.534   4.985  13.863
50489W        W18894  37.681  40.961  13.974
50490W        W18895  36.847  31.993  13.346
50491W        W18896  20.211  14.189  12.566
50492W        W18897  22.139   6.693   2.395
50493W        W18898  31.696  17.513   1.224
50494W        W18899  33.832  33.444  10.683
50495W        W18900  15.615  33.147  11.027
50496W        W18901  11.986  12.759  13.245
50497W        W18902  23.039  15.765  11.722
50498W        W18903  41.798  32.968   3.349
50499W        W18904   3.246  30.024   4.899
50500W        W18905  16.477  42.317  11.029
50501W        W18906  12.079   2.267  13.490
50502W        W18907  42.824  41.788  11.557
50503W        W18908  19.996  15.329   0.340
50504W        W18909  36.077  12.605   2.867
50505W        W18910   5.039  17.193  13.970
50506W        W18911  25.641  15.245  13.502
50507W        W18912  35.496  35.140  12.816
50508W        W18913  30.630   9.809   1.965
50509W        W18914   5.210   5.342   1.779
50510W        W18915  31.239   3.345  11.920
50511W        W18916  17.059  40.402  12.930
50512W        W18917  40.679   1.246   2.836
50513W        W18918  29.446   6.155   2.286
50514W        W18919  19.213  36.473   0.895
50515W        W18920  25.261  40.488   3.121
50516W        W18921  24.021  16.570  11.973
50517W        W18922  31.636  18.802   4.612
50518W        W18923  13.801  20.038   3.769
50519W        W18924  40.005  18.784  14.490
50520W        W18925   2.980  42.448   3.079
50521W        W18926  40.425  31.373   3.744
50522W        W18927  18.157  39.428  13.357
50523W        W18928  33.146  35.149  14.903
50524W        W18929   5.124  42.340   0.886
50525W        W18930  34.434   5.928   1.650
50526W        W18931  41.940  37.176  14.286
50527W        W18932  32.984  32.209   4.393
50528W        W18933  25.408  17.960  13.056
50529W        W18934  28.546  15.540  14.781
50530W        W18935  14.134  15.839   2.435
50531W        W18936  16.813  17.039  12.150
50532W        W18937  21.056  35.923  10.715
50533W        W18938   0.458   2.454   4.144
50534W        W18939  22.073  32.615   3.224
50535W        W18940  31.883  35.550  12.606
50536W        W18941  24.623  24.154   4.093
50537W        W18942   8.809  39.796  14.872
50538W        W18943   3.744  30.768   2.856
50539W        W18944   9.436   8.430   4.655
50540W        W18945  32.640  19.051   3.707
50541W        W18946  10.219  22.781  11.114
50542W        W18947  16.606  37.779  10.692
50543W        W18948  23.195  19.077  10.642
50544W        W18949  17.602  11.774   4.738
50545W        W18950   9.475  18.758  14.804
50546W        W18951  20.800  29.672  10.708
50547W        W18952   7.627   8.445  11.285
50548W        W18953   7.345  41.811   2.717
50549W        W18954  41.154  23.190   4.585
50550W        W18955  24.314  18.023  10.157
50551W        W18956  39.551  10.651  13.095
50552W        W18957  41.735  38.628  14.235
50553W        W18958   0.301  33.036  14.822
50554W        W18959  32.444   9.205   4.623
50555W        W18960  42.359  41.086   3.896
50556W        W18961  11.417  37.279   3.217
50557W        W18962  30.904   6.769  13.469
50558W        W18963   8.862   3.554  12.083
50559W        W18964  42.339  33.801  13.487
50560W        W18965  10.981  12.851   1.865
50561W        W18966  33.044   7.337  12.517
50562W        W18967  13.531  13.925   5.040
50563W        W18968  19.511  43.259  12.575
50564W        W18969   4.333  14.210   1.622
50565W        W18970  20.528  22.468   0.344
50566W        W18971  33.435   4.078  12.379
50567W        W18972  17.220  14.382   5.064
50568W        W18973  20.269  28.706  12.097
50569W        W18974  16.043  31.075   4.670
50570W        W18975  39.915  36.956   0.518
50571W        W18976  41.555   4.499  11.076
50572W        W18977  16.461  31.375   4.827
50573W        W18978   8.644  24.423  11.648
50574W        W18979   3.149  18.296   3.136
50575W        W18980   2.424   7.197   0.352
50576W        W18981  30.478  26.758   1.769
50577W        W18982  27.644  31.932  12.779
50578W        W18983  12.742   0.386   3.952
50579W        W18984  39.065  34.973   1.478
50580W        W18985   1.657  23.421   1.532
50581W        W18986  22.466   9.633  12.931
50582W        W18987  18.695  32.540   0.949
50583W        W18988  19.739  38.691   3.413
50584W        W18989  34.648   0.452  14.759
50585W        W18990  20.216  35.020  11.083
50586W        W18991  42.948   5.310   2.721
50587W        W18992  17.840  21.227   4.122
50588W        W18993  39.391   3.301  14.997
50589W        W18994  28.473  11.136  12.839
50590W        W18995  37.964  24.911   1.177
50591W        W18996  42.921  15.208   0.971
50592W        W18997  30.653  42.429   2.969
50593W        W18998  30.459  42.306  13.358
50594W        W18999   1.898  23.178  11.138
50595W        W19000  40.359  43.741   0.185
50596W        W19001  35.899   4.251  13.134
50597W        W19002  37.356   3.267  14.747
50598W        W19003  20.285   1.096  14.759
50599W        W19004  15.095  29.678  14.977
50600W        W19005  39.538  33.436  10.087
50601W        W19006  24.014  23.499  10.299
50602W        W19007   4.397   7.754  13.515
50603W        W19008  23.225  39.827  13.280
50604W        W19009  20.058  21.021  13.287
50605W        W19010  24.238   2.467   3.799
50606W        W19011  37.347  36.113  12.515
50607W        W19012  22.655  43.140   2.299
50608W        W19013  11.206  39.886   3.356
50609W        W19014  22.650  41.408   3.102
50610W        W19015   8.895  38.063   1.832
50611W        W19016  15.133  38.030   0.263
50612W        W19017   6.688  27.949  11.480
50613W        W19018   2.271   2.486   4.669
50614W        W19019  37.703  37.405   3.380
50615W        W19020  22.624  21.613   3.083
50616W        W19021  26.129  40.308  10.070
50617W        W19022  30.648  36.936   0.987
50618W        W19023  21.279  18.302   0.433
50619W        W19024   8.784   1.709  13.566
50620W        W19025   5.857  17.615   0.284
50621W        W19026  41.293  41.874  11.647
50622W        W19027   1.428   4.682  12.626
50623W        W19028  17.521  16.291   2.232
50624W        W19029  25.266  44.411  13.054
50625W        W19030  20.955   5.195  10.835
50626W        W19031   3.822  12.680  13.551
50627W        W19032  39.738  18.703  12.577
50628W        W19033  38.343  31.929  11.239
50629W        W19034  16.292   5.228  11.188
50630W        W19035  15.796  28.503   0.375
50631W        W19036  32.416  34.912   4.737
50632W        W19037   3.368  13.337   3.193
50633W        W19038  12.266  32.341   1.644
50634W        W19039   7.462  26.389   0.829
50635W        W19040   0.653  32.533   4.587
50636W        W19041  35.911  40.952  11.698
50637W        W19042  31.661  41.800   0.087
50638W        W19043  14.526  41.887  13.970
50639W        W19044   8.271  28.516   0.839
50640W        W19045   8.609   4.399   0.306
50641W        W19046  42.521  11.383   1.249
50642W        W19047  37.564  43.925  12.870
50643W        W19048  19.743  42.943   0.887
50644W        W19049  30.167  35.872   1.340
50645W        W19050  21.524   4.018  11.330
50646W        W19051  32.612  31.486   4.853
50647W        W19052   4.361  17.774  14.238
50648W        W19053  18.158  26.357  13.935
50649W        W19054  23.791   0.930   0.808
50650W        W19055  31.586  12.212   4.597
50651W        W19056  19.109  32.830  10.515
50652W        W19057  12.611  15.861  11.092
50653W        W19058  36.888  12.486   2.308
50654W        W19059  28.265   9.406   0.708
50655W        W19060  10.955  18.950  12.151
50656W        W19061  42.820  22.748   4.553
50657W        W19062   7.041   9.398  11.969
50658W        W19063  15.089  22.712  10.347
50659W        W19064   7.195   1.266   3.798
50660W        W19065  33.979  39.959  11.814
50661W        W19066  37.316  14.248   3.747
50662W        W19067  34.786  37.114  14.399
50663W        W19068   3.443  14.019   4.683
50664W        W19069  27.271  18.844  11.543
50665W        W19070  44.984  42.284   3.641
50666W        W19071  11.122  39.605  11.618
50667W        W19072  12.136  35.496  12.818
50668W        W19073  40.857  11.511  11.879
50669W        W19074  40.638  43.345   2.396
50670W        W19075  17.196   7.666  13.917
50671W        W19076  10.313   5.441   1.995
50672W        W19077  19.214  27.488   3.499
50673W        W19078   9.676  42.013  12.369
50674W        W19079  32.653  28.446   2.058
50675W        W19080  44.344  39.044  14.181
50676W        W19081  35.562  19.269   3.887
50677W        W19082   0.532  35.110   4.928
50678W        W19083  11.457  15.412   3.279
50679W        W19084  34.456  21.225  13.249
50680W        W19085   9.351  28.925   1.829
50681W        W19086  27.677   7.839   1.141
50682W        W19087   0.988  27.321  11.048
50683W        W19088  20.136  34.119  13.820
50684W        W19089   8.321  13.677   1.954
50685W        W19090   7.358  37.845  10.569
50686W        W19091  36.424  33.371   3.198
50687W        W19092  14.098  28.590   4.397
50688W        W19093  41.557  39.450   2.437
50689W        W19094   3.381  38.521   3.279
50690W        W19095  14.487  19.839   5.102
50691W        W19096  24.026   4.743   0.671
50692W        W19097  36.070  25.077   1.355
50693W        W19098  29.836  31.641   0.737
50694W        W19099   1.896  39.246  10.836
50695W        W19100   1.195  28.056   0.903
50696W        W19101  40.688   2.750  12.134
50697W        W19102  42.260  10.729   4.181
50698W        W19103  19.178  15.721   3.355
50699W        W19104  23.923  21.957   1.818
50700W        W19105  12.291  25.422   4.396
50701W        W19106  25.636  16.667   2.852
50702W        W19107  38.659  14.224  10.728
50703W        W19108  27.229  36.334   1.446
50704W        W19109  21.737  30.859  13.488
50705W        W19110   4.148  34.266  12.371
50706W        W19111  13.650  12.784  10.666
50707W        W19112  29.028  20.654   2.326
50708W        W19113  15.650  10.831  10.747
50709W        W19114  21.178  20.196  14.296
50710W        W19115  14.802  17.260   3.749
50711W        W19116   3.016  28.557   3.263
50712W        W19117  33.216  12.490  14.359
50713W        W19118  23.541  13.405  12.093
50714W        W19119  13.456  16.576   2.268
50715W        W19120  11.661  15.101  10.627
50716W        W19121  13.166  12.551   1.161
50717W        W19122  26.126  18.557   1.894
50718W        W19123   8.211   6.682   2.282
50719W        W19124  41.184   0.876  12.043
50720W        W19125  34.301  31.475  14.973
50721W        W19126  30.637  28.254  14.298
50722W        W19127  35.511  35.441  10.934
50723W        W19128  30.478  28.498   1.178
50724W        W19129  19.010   5.016   3.426
50725W        W19130  21.334  39.741   3.659
50726W        W19131  13.828   0.233  11.684
50727W        W19132  37.760  32.798   1.217
50728W        W19133  33.485   1.168   2.166
50729W        W19134  19.799   6.833   3.068
50730W        W19135  43.744  34.145  14.509
50731W        W19136   9.208  12.653   4.177
50732W        W19137   1.016  17.680   2.875
50733W        W19138  18.611  31.903   3.760
50734W        W19139  10.767  31.763   3.741
50735W        W19140  27.050   8.424   2.236
50736W        W19141  36.726   0.123   0.440
50737W        W19142  32.292   1.537   1.800
50738W        W19143   5.911  40.894   0.695
50739W        W19144   5.009  35.023   2.834
50740W        W19145  30.540  42.759   2.291
50741W        W19146  37.532   0.299   0.182
50742W        W19147  15.782  22.528   3.101
50743W        W19148  11.800  37.148  12.539
50744W        W19149  22.652  41.068   3.975
50745W        W19150   9.793  41.421  11.610
50746W        W19151  19.780   1.441  12.086
50747W        W19152  13.770   0.849   3.035
50748W        W19153  17.598   1.948   3.280
50749W        W19154   5.437  39.440  11.537
50750W        W19155  36.389  40.971  12.600
50751W        W19156  17.071  33.701  12.386
50752W        W19157  38.049  21.041   2.118
50753W        W19158  11.242  39.758   2.430
50754W        W19159   9.466   3.279   4.994
50755W        W19160  42.424   4.149   0.159
50756W        W19161  38.201  30.108  10.597
50757W        W19162  44.445  12.843   3.598
50758W        W19163  23.427  12.013  11.171
50759W        W19164   4.251   1.712  13.312
50760W        W19165  38.368  24.236  11.649
50761W        W19166  16.175  34.859   4.551
50762W        W19167  21.188   6.773  14.146
50763W        W19168   9.919  12.616   1.783
50764W        W19169  11.422  14.562   4.188
50765W        W19170  14.031   3.734  11.927
50766W        W19171   3.666  33.659  13.331
50767W        W19172  41.233  27.206  11.573
50768W        W19173  28.135   3.688  12.515
50769W        W19174   6.699   4.315  14.403
50770W        W19175  24.471  23.404   1.053
50771W        W19176  10.137  23.183  14.825
50772W        W19177   8.455   0.227  14.191
50773W        W19178  39.882  10.851  11.939
50774W        W19179  20.314  26.708  13.502
50775W        W19180  37.747   4.222  13.875
50776W        W19181  17.759  25.480   3.109
50777W        W19182  20.385  15.190   3.513
50778W        W19183  27.196  22.823  11.836
50779W        W19184  31.141  17.973   0.039
50780W        W19185  30.144   2.356   3.443
50781W        W19186  40.534  14.348   1.899
50782W        W19187  33.647  33.837  12.818
50783W        W19188  15.102  20.526   0.884
50784W        W19189  39.599  32.983   4.639
50785W        W19190   8.968  18.604  11.528
50786W        W19191  39.663  38.690   1.367
50787W        W19192  26.896  11.843  14.004
50788W        W19193  22.578  32.076   1.640
50789W        W19194  44.012  28.643   0.159
50790W        W19195   1.990  41.810   4.331
50791W        W19196  34.405  35.880  11.596
50792W        W19197  16.643  32.977   2.732
50793W        W19198  43.273  27.711   1.699
50794W        W19199  41.462  18.714   1.228
50795W        W19200  15.802   3.798  10.198
50796W        W19201  12.355  34.512  13.810
50797W        W19202  22.081  14.343  13.921
50798W        W19203  11.768  33.452  11.261
50799W        W19204  29.631  19.474  12.068
50800W        W19205   6.719  38.341   1.037
50801W        W19206  16.630  16.301  11.591
50802W        W19207  35.870  40.546   0.726
50803W        W19208  32.947  25.226  11.118
50804W        W19209  23.687  16.739   3.729
50805W        W19210  15.113   8.695   2.602
50806W        W19211   2.714   6.297   1.762
50807W        W19212  30.526  39.582   1.543
50808W        W19213  40.097  25.409  14.337
50809W        W19214   8.309   4.195   0.662
50810W        W19215  24.263  36.435   5.250
50811W        W19216  26.571   3.806   0.494
50812W        W19217  18.817  41.482   0.748
50813W        W19218   2.944  36.956   0.674
50814W        W19219   4.416   9.077  11.532
50815W        W19220  34.868  23.433  12.402
50816W        W19221  44.434  33.625  13.902
50817W        W19222  28.597  29.700   2.493
50818W        W19223  38.024  38.587   0.661
50819W        W19224  40.834   9.586  12.445
50820W        W19225  26.602  39.132  12.404
50821W        W19226   6.929  31.285   4.141
50822W        W19227  14.794  27.727   0.433
50823W        W19228  34.536   4.643   0.453
50824W        W19229   2.476  22.957  13.756
50825W        W19230  14.610  15.525   3.643
50826W        W19231   2.024  32.655  11.123
50827W        W19232  15.171  11.913   3.368
50828W        W19233  32.023  24.224  11.167
50829W        W19234  12.899  44.376  13.967
50830W        W19235  16.315   9.648   2.488
50831W        W19236  21.247  25.439  13.880
50832W        W19237  24.167  41.113  13.502
50833W        W19238  38.710  14.711   1.696
50834W        W19239  35.898   7.179   1.031
50835W        W19240  11.414  27.633  12.628
50836W        W19241  10.374   8.696   0.754
50837W        W19242  24.596  35.723   2.849
50838W        W19243  24.129   1.806   3.099
50839W        W19244  31.561  21.171  12.550
50840W        W19245  44.593  35.063  13.079
50841W        W19246  28.185  16.331  10.605
50842W        W19247  37.146  21.285   2.389
50843W        W19248  16.056  18.796   4.602
50844W        W19249   6.312  16.014   4.149
50845W        W19250   3.445  10.672  12.416
50846W        W19251  19.029  28.034   0.247
50847W        W19252  18.266  10.176   4.206
50848W        W19253  30.154  11.242  14.455
50849W        W19254  23.067  34.878   1.323
50850W        W19255  43.390  22.549   0.909
50851W        W19256  10.891  17.059   0.266
50852W        W19257  13.880  23.654   0.829
50853W        W19258   3.064   7.045   2.171
50854W        W19259  16.835   0.456  11.137
50855W        W19260  37.668   6.535   0.860
50856W        W19261  27.896   0.912  11.062
50857W        W19262  11.262  13.055   1.266
50858W        W19263  29.660   4.442  11.178
50859W        W19264   2.359  11.489   4.207
50860W        W19265   4.693  23.612  12.632
50861W        W19266  29.797  13.888  14.825
50862W        W19267   8.695  11.649  12.076
50863W        W19268  20.328   0.384   1.527
50864W        W19269  13.587   1.523  11.620
50865W        W19270  13.014   3.321  13.557
50866W        W19271  19.018   2.904   4.656
50867W        W19272   5.668   9.659   2.636
50868W        W19273  35.844  17.616   4.113
50869W        W19274  19.748  31.971  12.810
50870W        W19275  29.750  21.137   4.276
50871W        W19276  24.317   6.254  12.954
50872W        W19277  19.808  18.842   2.717
50873W        W19278  39.811  32.787   4.209
50874W        W19279  11.861   7.653  14.506
50875W        W19280  41.751  23.147  11.419
50876W        W19281  33.147  14.770  11.287
50877W        W19282  19.548   4.998  12.940
50878W        W19283  41.941  10.374   4.342
50879W        W19284  44.436   0.873   3.310
50880W        W19285   5.508  42.408   3.913
50881W        W19286   7.755  38.050  10.282
50882W        W19287   2.492  39.964   1.793
50883W        W19288  23.716   3.449  12.924
50884W        W19289  22.106  36.750   1.393
50885W        W19290  32.970  11.910   2.774
50886W        W19291  29.561  37.793   4.710
50887W        W19292  14.670  28.398   3.843
50888W        W19293   3.398  43.340  13.003
50889W        W19294  43.457  22.024  14.430
50890W        W19295   4.062  19.289   1.275
50891W        W19296  14.345   1.585   4.068
50892W        W19297   0.952   2.995  13.480
50893W        W19298   2.364  33.041   3.364
50894W        W19299  31.197  18.272  13.162
50895W        W19300   0.468  38.869  10.519
50896W        W19301  18.229  36.500  12.330
50897W        W19302  19.043   6.812   3.704
50898W        W19303  44.140  15.187   3.684
50899W        W19304  18.540  36.487   0.387
50900W        W19305  24.717  25.639  11.165
50901W        W19306  42.081   9.995  14.245
50902W        W19307  31.953  29.082  11.079
50903W        W19308  17.170  12.039  11.672
50904W        W19309  42.427  23.519   2.662
50905W        W19310   3.966  13.069  12.778
50906W        W19311   6.269  27.450  13.054
50907W        W19312  19.952  12.072   2.703
50908W        W19313  44.515  22.298   5.061
50909W        W19314  14.179  32.167  14.768
50910W        W19315  10.357  36.424   2.850
50911W        W19316  17.880  38.085  14.975
50912W        W19317  27.953  34.044   1.956
50913W        W19318   3.531  35.114   2.766
50914W        W19319   8.675  35.826  12.564
50915W        W19320  40.972  13.997  13.894
50916W        W19321  33.387  30.520   2.774
50917W        W19322  16.656  24.976  13.871
50918W        W19323  18.925  21.689  12.650
50919W        W19324  33.411  43.325  12.982
50920W        W19325  30.345   1.056  12.548
50921W        W19326  35.013  12.863   2.220
50922W        W19327  17.278   2.245  12.536
50923W        W19328  15.117  17.372   2.669
50924W        W19329  28.532  15.611   5.545
50925W        W19330  15.396  31.997   2.836
50926W        W19331  27.476  19.201  13.327
50927W        W19332  18.914   1.588  11.102
50928W        W19333  29.727  39.269   3.254
50929W        W19334  38.570  35.074  10.558
50930W        W19335  31.973  38.763   0.752
50931W        W19336  35.938  28.133  10.754
50932W        W19337  32.852   4.302   1.005
50933W        W19338  41.795  16.891  12.461
50934W        W19339   0.381  32.163  11.080
50935W        W19340  13.809  30.936  12.569
50936W        W19341   4.951  37.107  10.640
50937W        W19342  25.038   1.281   5.376
50938W        W19343  42.422  40.450  11.229
50939W        W19344   9.201  12.411  12.889
50940W        W19345  39.867  20.545   2.923
50941W        W19346  39.660  42.459  14.061
50942W        W19347  11.739  26.100  13.898
50943W        W19348  33.135  26.702   2.869
50944W        W19349  30.527   0.878   4.949
50945W        W19350   3.034  16.652   2.899
50946W        W19351  17.484  19.774   0.802
50947W        W19352  26.089  32.354   3.994
50948W        W19353  31.398   3.592   3.882
50949W        W19354  39.943   3.860   1.769
50950W        W19355  34.041  36.021  14.461
50951W        W19356   8.370  21.721  14.974
50952W        W19357  41.452  34.243  13.412
50953W        W19358  41.461  18.667  13.367
50954W        W19359  39.774  42.529   0.324
50955W        W19360  28.620  29.674  14.058
50956W        W19361  14.600  21.694  11.137
50957W        W19362  28.563  27.726   1.724
50958W        W19363  30.173  31.991   4.568
50959W        W19364  23.148  34.323   3.212
50960W        W19365   8.395   8.871   2.224
50961W        W19366  24.732   5.005  14.882
50962W        W19367  11.894  41.275  10.238
50963W        W19368  42.509   0.542  12.941
50964W        W19369  18.226  24.162   2.594
50965W        W19370  44.756  21.149  10.693
50966W        W19371  10.868  24.053   4.711
50967W        W19372   3.234  23.861   3.581
50968W        W19373  18.760  37.934   0.166
50969W        W19374   5.134  34.661  14.873
50970W        W19375   0.975   7.376   2.278
50971W        W19376  35.082  16.376   0.033
50972W        W19377  19.082  28.239  14.366
50973W        W19378   3.740  17.909   4.543
50974W        W19379  26.207  16.863   1.110
50975W        W19380  27.915  38.129   2.811
50976W        W19381   8.872  29.353   0.525
50977W        W19382  27.397  28.066  11.625
50978W        W19383  26.917  19.443   1.243
50979W        W19384  44.875  29.482   1.910
50980W        W19385  14.142  16.721   1.639
50981W        W19386  39.321  13.711   3.676
50982W        W19387  31.138  34.925   1.488
50983W        W19388   1.878  30.479   4.423
50984W        W19389  17.520   1.760  10.692
50985W        W19390  28.124   4.626  11.929
50986W        W19391  21.726  10.868  10.706
50987W        W19392  18.288  16.186   2.868
50988W        W19393  33.761  35.049   4.273
50989W        W19394  34.167  34.055  11.665
50990W        W19395  43.540  11.322  10.382
50991W        W19396  32.138  14.285  10.757
50992W        W19397  37.780  12.661  10.619
50993W        W19398  26.721  43.654  10.412
50994W        W19399   5.946   6.337   4.378
50995W        W19400  12.879  33.446  12.478
50996W        W19401   7.955  23.779  11.554
50997W        W19402   2.996  38.302  12.834
50998W        W19403  39.001   0.965   0.469
50999W        W19404  19.648  28.205  13.111
51000W        W19405  40.003  34.989  13.879
51001W        W19406  44.272  43.535  14.145
51002W        W19407  33.623  43.017  12.149
51003W        W19408  31.856  18.567   1.778
51004W        W19409  22.166  37.481  13.895
51005W        W19410  14.191   4.711  11.741
51006W        W19411  39.419  30.658   1.892
51007W        W19412   8.178  13.105   0.712
51008W        W19413  39.314   6.334  14.970
51009W        W19414  20.797  41.146  14.341
51010W        W19415  33.174  40.021   0.534
51011W        W19416   3.621  39.606   2.805
51012W        W19417   3.801  34.102  10.694
51013W        W19418  27.416  25.227  10.509
51014W        W19419   6.630  29.541   0.332
51015W        W19420  17.724   1.880  14.760
51016W        W19421  14.992  29.556  11.127
51017W        W19422  44.350  37.523   3.313
51018W        W19423  18.232  19.262  12.230
51019W        W19424  15.135  19.522   0.929
51020W        W19425  33.545  14.908   4.693
51021W        W19426  39.677   1.924  11.145
51022W        W19427  14.110  12.865   2.002
51023W        W19428  17.099  33.051  14.480
51024W        W19429   0.557  41.444  14.461
51025W        W19430  17.123  33.532  14.263
51026W        W19431  43.858  39.786   3.313
51027W        W19432  36.843  20.044   0.006
51028W        W19433  41.303  43.035   2.269
51029W        W19434  28.138  22.124   2.318
51030W        W19435  30.459  37.250   4.184
51031W        W19436  43.315  34.555  13.428
51032W        W19437  16.564  16.415  12.965
51033W        W19438   7.281  23.821   0.077
51034W        W19439  42.258  42.947   3.250
51035W        W19440  18.920  34.476  10.033
51036W        W19441  18.919   5.274   2.652
51037W        W19442  14.809  16.897   1.017
51038W        W19443   5.339  33.896  11.417
51039W        W19444  39.562  15.095  12.076
51040W        W19445  23.991  15.172   2.852
51041W        W19446  37.818  36.798  12.014
51042W        W19447  42.230  13.333   4.141
51043W        W19448   2.762  13.786  11.603
51044W        W19449  26.226  42.835   0.518
51045W        W19450  23.451  16.635  13.157
51046W        W19451  32.318  21.620  13.316
51047W        W19452  31.103  12.769  12.003
51048W        W19453  11.108  23.184   4.627
51049W        W19454  12.611  12.248  10.967
51050W        W19455   3.515  25.561   0.534
51051W        W19456  29.117  33.398  10.607
51052W        W19457  22.817   1.251  14.014
51053W        W19458  11.737  29.731   4.924
51054W        W19459   4.703  29.051  13.821
51055W        W19460   9.930  35.755   4.218
51056W        W19461  29.420  34.026  10.646
51057W        W19462  27.267   5.979   0.748
51058W        W19463   4.157   9.078  10.422
51059W        W19464  22.737  40.797  11.115
51060W        W19465  25.387  37.523  12.747
51061W        W19466   7.308  17.880   0.913
51062W        W19467   7.683  29.656   1.820
51063W        W19468  37.357  15.443  14.326
51064W        W19469  21.189  27.774   4.873
51065W        W19470   6.219  28.608  13.663
51066W        W19471  27.951   6.055  14.718
51067W        W19472  37.246  44.750  14.007
51068W        W19473  22.366  33.927   2.676
51069W        W19474  14.879  35.669  13.167
51070W        W19475  41.210   6.428   2.398
51071W        W19476  37.832  22.542   0.623
51072W        W19477  31.181  41.587  11.555
51073W        W19478  28.132   2.767   2.858
51074W        W19479  12.133   7.462  14.902
51075W        W19480  39.473  11.448   0.424
51076W        W19481  18.493  25.003   2.614
51077W        W19482   9.014   1.290  14.874
51078W        W19483  26.281  40.326   9.563
51079W        W19484  42.998  33.682  11.396
51080W        W19485  39.610  16.259   2.232
51081W        W19486  38.310  36.045  10.676
51082W        W19487  26.948   4.215  10.744
51083W        W19488  22.193  16.666   0.346
51084W        W19489  29.003   0.008   3.922
51085W        W19490  23.661  25.294  11.097
51086W        W19491  25.757  15.196  12.990
51087W        W19492  31.367   6.115   3.588
51088W        W19493  31.512  26.671  10.585
51089W        W19494  15.219  19.322  14.143
51090W        W19495  41.096  38.428   1.675
51091W        W19496  35.930  31.587   0.477
51092W        W19497  29.189  35.560   4.714
51093W        W19498  13.326   4.279  12.573
51094W        W19499  39.362  11.219  12.355
51095W        W19500  31.089   6.599  11.061
51096W        W19501  44.648  15.853   0.802
51097W        W19502  35.505   9.321  14.850
51098W        W19503   2.525  28.621   4.087
51099W        W19504   3.515  20.077   3.264
51100W        W19505  39.057   3.601   3.162
51101W        W19506  21.580  37.217  11.861
51102W        W19507  21.661  41.325   1.768
51103W        W19508   6.979  37.069   3.750
51104W        W19509  15.335  43.739   2.836
51105W        W19510  18.316  18.639   1.840
51106W        W19511   9.442  36.081  11.679
51107W        W19512  20.258  19.348   5.226
51108W        W19513  14.016  14.228  14.021
51109W        W19514  29.193  26.147  13.533
51110W        W19515  33.781  13.367   0.950
51111W        W19516  35.322  10.353  13.441
51112W        W19517  39.206   2.477   4.557
51113W        W19518  24.562  38.820   4.805
51114W        W19519  42.772  44.961  14.407
51115W        W19520  15.338  25.577  13.749
51116W        W19521  11.985  24.176  14.768
51117W        W19522  16.696  25.251  13.358
51118W        W19523  17.664   8.864  14.250
51119W        W19524   8.768   6.789  12.427
51120W        W19525  38.407  23.017   1.788
51121W        W19526  23.106  16.903   3.228
51122W        W19527  33.816  19.979  13.126
51123W        W19528  14.263  38.654   1.877
51124W        W19529  20.664  26.978   4.125
51125W        W19530  30.227   9.387  13.915
51126W        W19531   6.438  38.848  12.539
51127W        W19532  35.530   6.994   0.696
51128W        W19533  26.362  15.427  11.894
51129W        W19534  39.897  19.619  11.343
51130W        W19535  35.676  28.449  12.031
51131W        W19536  33.740  15.744  11.042
51132W        W19537  20.735   6.602   4.009
51133W        W19538  12.454  27.583  12.417
51134W        W19539  40.768  37.911   4.529
51135W        W19540  20.522  28.390   4.883
51136W        W19541  16.702  36.126   0.469
51137W        W19542   5.235  43.690   0.801
51138W        W19543  10.939   1.841   2.872
51139W        W19544   4.238  24.728  14.367
51140W        W19545  37.960   1.264  11.085
51141W        W19546  28.690   9.766  10.467
51142W        W19547   0.890  39.865  13.046
51143W        W19548  31.574   1.171   2.405
51144W        W19549   7.913  17.581   4.696
51145W        W19550  12.094   9.127  14.206
51146W        W19551  26.501  16.387  10.713
51147W        W19552  11.346  13.862   4.767
51148W        W19553  21.438  22.199   1.908
51149W        W19554  19.519   5.738   0.633
51150W        W19555  14.622  15.779   0.749
51151W        W19556  39.807  23.702   2.717
51152W        W19557   0.388  44.672   4.662
51153W        W19558  20.269  24.858  10.216
51154W        W19559   8.623   2.714  13.467
51155W        W19560  18.832  29.849  12.949
51156W        W19561  36.323   8.158  14.782
51157W        W19562  29.970  23.658   0.586
51158W        W19563  13.017  43.521  13.709
51159W        W19564  40.825   4.118   2.707
51160W        W19565   6.956  35.437  13.413
51161W        W19566  16.515   3.557   1.328
51162W        W19567  41.801  12.425  13.083
51163W        W19568  31.817  27.424  12.626
51164W        W19569  24.012  31.937   1.878
51165W        W19570   0.736   4.302   3.641
51166W        W19571  35.614  29.089   1.000
51167W        W19572  41.531  23.776  12.127
51168W        W19573  24.596  31.108  13.495
51169W        W19574  33.969   2.865   4.320
51170W        W19575  41.858   9.348  10.903
51171W        W19576  24.603  20.299   3.082
51172W        W19577  15.483  36.969   0.949
51173W        W19578   0.786  29.873   0.332
51174W        W19579  34.437  31.125  13.714
51175W        W19580  39.329  11.809   4.126
51176W        W19581  33.823   5.929   0.238
51177W        W19582  14.136  20.295   0.346
51178W        W19583  16.559  22.609   0.414
51179W        W19584  21.301  41.240  14.491
51180W        W19585  11.871  17.123  13.133
51181W        W19586  36.380  34.701   1.221
51182W        W19587  14.809   0.441   0.719
51183W        W19588  36.059  42.865   0.952
51184W        W19589  32.464  26.134  13.851
51185W        W19590  21.171  25.067   4.846
51186W        W19591  44.931   1.312   3.116
51187W        W19592   7.328  16.165   4.240
51188W        W19593  34.939  13.888   2.053
51189W        W19594  15.285  30.959   1.771
51190W        W19595  10.350  32.521  12.774
51191W        W19596  34.793  16.621  10.679
51192W        W19597  23.023  23.745   0.003
51193W        W19598  10.741  28.674   3.775
51194W        W19599  36.106  13.385  11.150
51195W        W19600  36.590   4.945   4.111
51196W        W19601  35.967   1.842   4.288
51197W        W19602  29.434  31.593   0.234
51198W        W19603  25.085   7.879   0.738
51199W        W19604  40.981  41.309   3.600
51200W        W19605  20.057   2.340  14.821
51201W        W19606  14.232  41.729  14.699
51202W        W19607  27.620  37.853  12.683
51203W        W19608  20.657  36.086  10.421
51204W        W19609   4.363  30.123   2.058
51205W        W19610  10.668  25.702   2.940
51206W        W19611   4.943  44.688   3.318
51207W        W19612   3.087  37.645   1.711
51208W        W19613  19.153  34.382   1.161
51209W        W19614  42.277  17.856  11.912
51210W        W19615   9.064  39.062   4.088
51211W        W19616  44.424   2.454  14.539
51212W        W19617  22.314  10.165  11.061
51213W        W19618  40.509  40.290  14.241
51214W        W19619  15.102  18.157  12.133
51215W        W19620  38.360  38.068   0.700
51216W        W19621  21.466  43.145  10.623
51217W        W19622   4.736  35.143   1.987
51218W        W19623  40.121  24.511   0.254
51219W        W19624  36.794   9.680  13.451
51220W        W19625  32.911  32.581   1.265
51221W        W19626  28.000  30.649   0.965
51222W        W19627  38.994  37.086   2.617
51223W        W19628  40.956  29.640   3.862
51224W        W19629  12.825  17.288   2.661
51225W        W19630  27.386  35.831  14.448
51226W        W19631  17.619  38.549  14.917
51227W        W19632   6.447  28.559   5.283
51228W        W19633  25.807   3.712   0.989
51229W        W19634  35.398  34.654  13.980
51230W        W19635  23.590  31.643  11.635
51231W        W19636   8.325  33.414   1.472
51232W        W19637  25.183  10.258  12.603
51233W        W19638  17.536  10.436   4.627
51234W        W19639   6.969   2.865  12.810
51235W        W19640  12.870  34.411   3.646
51236W        W19641  25.028  35.388  12.534
51237W        W19642  24.133   8.733   4.553
51238W        W19643  13.531   2.783  12.890
51239W        W19644  35.600  24.726   2.219
51240W        W19645  10.772  32.359  14.901
51241W        W19646   0.394  29.396  11.471
51242W        W19647  18.625  35.080   0.191
51243W        W19648   4.228   2.672  12.172
51244W        W19649  33.983   1.873  13.486
51245W        W19650  26.521  24.078  11.172
51246W        W19651  34.228  13.515   0.745
51247W        W19652   9.080  24.101   3.664
51248W        W19653  43.223  29.687  13.112
51249W        W19654   5.491  41.089   3.609
51250W        W19655  30.155  39.367   4.078
51251W        W19656   3.999  22.505  10.759
51252W        W19657  18.044  42.185  13.243
51253W        W19658  23.271  25.229  13.949
51254W        W19659  25.528  37.045   4.234
51255W        W19660  23.557   4.659   3.735
51256W        W19661  17.197  24.660   4.544
51257W        W19662  19.670   1.530  14.058
51258W        W19663   4.465  25.118  11.551
51259W        W19664  30.165  25.785  14.694
51260W        W19665  19.530  30.151   2.290
51261W        W19666  25.415  38.449   2.685
51262W        W19667  38.055  36.383  10.360
51263W        W19668  38.267  26.091  11.554
51264W        W19669   8.112  33.993   3.104
51265W        W19670   5.432  16.001   0.928
51266W        W19671  23.300  44.436  12.135
51267W        W19672  25.190  28.149  13.380
51268W        W19673   0.427  18.251  14.566
51269W        W19674  10.008  43.966   1.885
51270W        W19675  44.362  11.227  14.312
51271W        W19676  13.798  18.129   4.556
51272W        W19677  40.004   6.073   3.359
51273W        W19678  34.025  31.435   1.732
51274W        W19679  39.090   6.306   1.871
51275W        W19680   8.957   1.645  14.445
51276W        W19681  44.486   2.917  14.756
51277W        W19682  13.709  25.504  10.659
51278W        W19683  15.858  14.806   1.474
51279W        W19684  17.096  19.159  14.364
51280W        W19685  20.579  25.011   0.344
51281W        W19686  17.826   5.751   0.278
51282W        W19687  23.275  19.052   0.434
51283W        W19688  12.261  11.335  13.499
51284W        W19689   0.799  43.951   4.756
51285W        W19690  11.629  35.298  13.562
51286W        W19691  39.488  10.065   0.792
51287W        W19692  20.065   2.933   0.356
51288W        W19693  26.998  21.956   0.411
51289W        W19694  10.571  31.998   4.205
51290W        W19695   7.708  43.517   4.713
51291W        W19696   2.952  24.138   0.266
51292W        W19697  16.569  33.066  14.583
51293W        W19698   7.254   1.400   0.532
51294W        W19699  33.454   6.660  11.996
51295W        W19700  42.348   9.172   1.377
51296W        W19701  17.855  27.983  13.747
51297W        W19702   2.307   0.543  12.612
51298W        W19703   4.391  21.611   3.157
51299W        W19704  22.601  23.000   3.734
51300W        W19705  23.403   8.816   3.895
51301W        W19706  17.231  43.973   0.917
51302W        W19707  15.887  23.212  13.439
51303W        W19708  16.918   5.784  10.847
51304W        W19709   1.642  25.273  11.271
51305W        W19710  19.718  43.148   1.389
51306W        W19711   3.762   4.058  13.110
51307W        W19712  21.671  18.515  10.681
51308W        W19713   6.214  20.537   0.881
51309W        W19714  33.110  19.651  14.934
51310W        W19715   9.282   9.980   1.078
51311W        W19716  34.121  39.120   3.067
51312W        W19717  40.999  37.382  11.564
51313W        W19718  34.584  17.350   2.422
51314W        W19719  21.253  39.672  13.789
51315W        W19720   5.666  31.091  14.885
51316W        W19721  23.168  37.533  13.066
51317W        W19722  36.515  36.397  12.131
51318W        W19723  19.180  20.050  12.921
51319W        W19724   5.206   0.370   2.304
51320W        W19725  21.619  36.528   4.264
51321W        W19726  38.458  29.212  10.931
51322W        W19727  23.092  30.558   5.043
51323W        W19728   9.901   4.308  11.885
51324W        W19729  24.206   2.223  11.190
51325W        W19730   5.004  38.041  13.473
51326W        W19731  40.323  10.310  10.987
51327W        W19732  38.064  38.298  11.028
51328W        W19733   3.393  41.216   1.846
51329W        W19734  28.861  41.088  14.509
51330W        W19735  39.638  34.002   2.248
51331W        W19736  21.266   4.486  13.912
51332W        W19737  22.367   1.045  13.629
51333W        W19738  13.043  11.819  13.021
51334W        W19739   7.566  20.594   1.238
51335W        W19740  15.614  38.013   1.508
51336W        W19741  10.275  22.627   2.499
51337W        W19742  35.372  19.727   2.810
51338W        W19743   2.677  31.545   2.623
51339W        W19744  31.968  17.952   1.269
51340W        W19745  30.652  38.006   4.771
51341W        W19746  15.809  20.998   1.441
51342W        W19747  31.082  37.055  13.405
51343W        W19748  18.741  37.318  11.000
51344W        W19749  26.883  32.878  11.649
51345W        W19750  13.126  41.519  12.414
51346W        W19751  24.432  19.096   3.171
51347W        W19752  33.583  15.210  13.616
51348W        W19753   5.110  13.377  14.933
51349W        W19754  15.813   9.183  11.529
51350W        W19755  34.955  37.872   3.252
51351W        W19756  38.819  16.289  11.947
51352W        W19757  30.111  42.956   4.243
51353W        W19758  27.491  34.251   3.261
51354W        W19759   2.402  20.519  12.549
51355W        W19760  43.454  30.003   4.473
51356W        W19761  30.164  18.857   3.949
51357W        W19762  15.401  40.139  11.621
51358W        W19763  31.047   5.957  14.402
51359W        W19764   2.314  42.538   2.724
51360W        W19765  18.122  12.214   0.768
51361W        W19766  37.937  11.751   0.787
51362W        W19767  31.991  19.676   0.629
51363W        W19768  19.808   8.139   0.214
51364W        W19769   6.714  44.940   2.318
51365W        W19770   7.359  36.455   1.731
51366W        W19771  16.797  28.602   3.365
51367W        W19772  35.137  42.286  10.820
51368W        W19773  38.172  16.999  11.475
51369W        W19774  15.874  17.169  13.812
51370W        W19775  11.484  41.754   2.138
51371W        W19776  30.960  40.606  13.410
51372W        W19777  42.039  30.671   0.704
51373W        W19778  29.018  10.596  10.668
51374W        W19779  24.139  37.849   1.522
51375W        W19780  31.449  18.717  10.188
51376W        W19781  23.095  40.589   4.671
51377W        W19782  18.901  41.473   1.246
51378W        W19783  22.024  25.634   4.704
51379W        W19784  43.090  41.674  13.436
51380W        W19785  41.348  16.289  12.388
51381W        W19786   5.089  14.581  11.964
51382W        W19787  33.783   0.909  12.077
51383W        W19788  43.505  27.486   2.601
51384W        W19789  43.684  16.160   0.922
51385W        W19790  28.034  19.223   3.178
51386W        W19791  18.622  26.403   4.191
51387W        W19792  44.323  14.802  12.417
51388W        W19793   3.938  29.174   0.080
51389W        W19794  35.377  16.215  11.414
51390W        W19795   0.288  16.857   1.350
51391W        W19796  17.768  21.082  11.009
51392W        W19797  22.498   8.602  11.456
51393W        W19798  26.136  27.021  11.412
51394W        W19799   5.843  30.254   2.263
51395W        W19800   2.778  13.469   4.600
51396W        W19801  37.165  40.416  12.422
51397W        W19802   4.815  16.368  13.987
51398W        W19803  33.938   8.202  13.338
51399W        W19804   3.200  41.402   4.726
51400W        W19805  37.910  31.622  10.682
51401W        W19806   5.597   3.312   4.189
51402W        W19807  38.020  10.522   3.300
51403W        W19808  37.410  35.037   2.771
51404W        W19809  24.908  10.076   4.540
51405W        W19810  39.485  36.013   1.406
51406W        W19811  28.895  40.860  12.423
51407W        W19812  36.051   7.230   4.552
51408W        W19813   1.747  33.120   4.132
51409W        W19814  30.565  44.891   0.298
51410W        W19815   9.874  26.117   4.662
51411W        W19816  42.474  16.663  12.438
51412W        W19817  21.059   4.469  10.563
51413W        W19818  10.226  42.383   2.489
51414W        W19819   9.855   6.189   0.270
51415W        W19820  11.110  34.600  11.885
51416W        W19821   8.312   5.386  12.639
51417W        W19822   0.111  17.993  11.511
51418W        W19823  11.286   7.169   3.273
51419W        W19824   9.873  19.719   0.280
51420W        W19825   4.643   1.229   0.025
51421W        W19826  24.206  15.870   0.416
51422W        W19827  34.421  23.153   1.243
51423W        W19828  15.087   7.001   0.507
51424W        W19829   3.880   4.729   3.923
51425W        W19830  30.621  26.615  10.325
51426W        W19831  28.190  15.506   4.726
51427W        W19832   5.209  16.646   2.331
51428W        W19833   6.193  33.141  14.517
51429W        W19834  30.210   7.339  14.521
51430W        W19835   9.585  31.202   2.693
51431W        W19836  17.624   9.374   1.993
51432W        W19837  44.365  37.379   3.816
51433W        W19838  32.917  14.042   1.780
51434W        W19839  27.438  22.366  13.596
51435W        W19840  28.085   3.826  13.734
51436W        W19841  33.916  23.507  13.928
51437W        W19842  19.780   9.997   4.061
51438W        W19843  19.479   2.358  12.990
51439W        W19844   5.219   4.722  12.713
51440W        W19845  40.358  30.094  13.958
51441W        W19846  23.069  14.065  11.655
51442W        W19847  21.089  34.168  10.493
51443W        W19848  42.964  13.065  14.356
51444W        W19849  42.394  35.868  13.504
51445W        W19850  31.920   0.433   3.101
51446W        W19851  28.208  39.767   1.801
51447W        W19852  14.420  12.840  13.356
51448W        W19853  23.968  40.800  13.099
51449W        W19854  35.487   6.474   0.655
51450W        W19855  25.087  25.185   0.955
51451W        W19856  15.704  44.879  14.809
51452W        W19857  31.628  11.647  10.574
51453W        W19858  16.282  18.686   1.270
51454W        W19859  18.198  33.952   4.991
51455W        W19860  19.269  43.469   2.817
51456W        W19861  24.190  13.563  11.652
51457W        W19862  13.793  34.408  12.581
51458W        W19863  23.682  14.286  11.098
51459W        W19864  39.045  37.578   2.827
51460W        W19865  32.236  14.209   0.521
51461W        W19866  15.741  23.947  10.462
51462W        W19867  14.394  12.310  11.091
51463W        W19868  19.328  23.710   3.759
51464W        W19869  40.896  37.395  14.803
51465W        W19870   1.214  23.191   0.001
51466W        W19871  44.385  42.926   0.462
51467W        W19872   1.727   5.932  13.819
51468W        W19873  28.632  36.448   3.539
51469W        W19874  17.917   8.512   0.493
51470W        W19875  19.577  21.295  14.766
51471W        W19876  27.690  27.916  14.337
51472W        W19877  24.185   8.018   2.146
51473W        W19878  41.447  44.470  13.857
51474W        W19879  20.819  43.281   3.670
51475W        W19880   0.445   2.857  14.308
51476W        W19881  35.661  16.100   2.492
51477W        W19882  36.545   6.722   1.504
51478W        W19883  18.866   7.445   3.655
51479W        W19884  21.552   2.687  12.426
51480W        W19885  34.631   5.277   1.611
51481W        W19886   3.890  39.760  10.736
51482W        W19887   6.927   4.263   1.177
51483W        W19888   3.473  36.229   3.766
51484W        W19889  25.181  37.439   0.338
51485W        W19890  12.138  19.583  10.978
51486W        W19891  11.142  21.088  11.528
51487W        W19892  42.986  10.738   1.141
51488W        W19893  37.287  43.137  13.285
51489W        W19894   8.774  31.097  10.156
51490W        W19895  18.728  35.421  12.012
51491W        W19896  42.764  40.637  12.600
51492W        W19897  35.072   4.775   4.139
51493W        W19898   2.743   5.119   9.730
51494W        W19899  30.875  25.467  11.573
51495W        W19900  38.843  44.749  13.856
51496W        W19901  12.924  40.816   3.501
51497W        W19902   1.372  18.263  12.268
51498W        W19903  19.302  27.992  13.924
51499W        W19904  25.664  22.798  11.660
51500W        W19905  34.911  10.731  13.818
51501W        W19906  19.336  34.767  10.121
51502W        W19907  24.564   9.270   3.299
51503W        W19908  24.512   6.896  11.083
51504W        W19909  11.739   3.870  10.600
51505W        W19910  19.846   6.194   4.021
51506W        W19911   6.777  35.855  13.663
51507W        W19912  36.439  29.043  14.855
51508W        W19913  26.560  18.684  12.103
51509W        W19914  17.316  34.363   1.637
51510W        W19915   4.711  37.693   1.850
51511W        W19916   0.559  20.047   0.735
51512W        W19917  20.565  21.823  10.919
51513W        W19918  34.829   3.272  11.891
51514W        W19919  19.111  31.661   0.271
51515W        W19920  31.773  21.685  14.226
51516W        W19921  32.345  30.636  14.090
51517W        W19922  24.449  11.766  14.599
51518W        W19923   6.365   9.889   2.775
51519W        W19924  29.191  21.477   2.639
51520W        W19925  43.972  42.877  12.435
51521W        W19926  32.969  10.688  14.937
51522W        W19927  10.801  44.275  11.504
51523W        W19928  30.912   7.178  13.894
51524W        W19929  10.208  37.448  13.128
51525W        W19930  11.261   4.926   2.898
51526W        W19931  28.948  25.643   0.453
51527W        W19932  35.451  28.123   1.035
51528W        W19933  34.251  17.538   2.850
51529W        W19934  15.033  39.045   3.710
51530W        W19935  13.194  11.900   4.696
51531W        W19936  29.023  41.790   2.484
51532W        W19937  22.719  42.832  11.175
51533W        W19938  13.905  40.242   3.335
51534W        W19939  23.281   2.322  11.693
51535W        W19940   9.713   7.853   2.952
51536W        W19941   9.648  27.209   0.845
51537W        W19942  27.526  23.341   4.614
51538W        W19943  23.491  26.537   0.153
51539W        W19944  15.320   8.820   1.173
51540W        W19945  25.798  32.539  14.141
51541W        W19946  36.975  21.612   0.901
51542W        W19947  23.124  11.068  10.589
51543W        W19948  24.557   0.357   1.362
51544W        W19949  35.505  21.831   2.297
51545W        W19950  20.540  15.784  12.361
51546W        W19951  21.266  13.795   1.891
51547W        W19952  36.622  26.858  13.085
51548W        W19953  34.915   1.284  14.971
51549W        W19954   2.259  34.964  14.361
51550W        W19955   9.905   1.821   2.437
51551W        W19956  35.755   5.498  12.472
51552W        W19957  21.824  41.698   2.852
51553W        W19958  42.529   7.977   0.254
51554W        W19959  35.918  37.087   4.637
51555W        W19960  24.538  25.818   3.191
51556W        W19961  19.369   8.711  10.375
51557W        W19962  16.485   2.205   2.596
51558W        W19963  44.693  40.721  13.837
51559W        W19964  17.834  34.599   0.368
51560W        W19965  10.855  24.260  12.976
51561W        W19966  32.546  29.566  14.493
51562W        W19967  27.999  25.511   4.378
51563W        W19968  15.745  27.188  11.465
51564W        W19969  36.908  17.015  10.600
51565W        W19970  42.939  20.316  12.483
51566W        W19971  13.830  21.543  10.722
51567W        W19972   0.872  29.073   0.779
51568W        W19973  41.976  24.116  12.092
51569W        W19974  42.889   3.002   3.677
51570W        W19975  44.912  18.007  14.588
51571W        W19976  14.373  42.964   1.711
51572W        W19977   9.822  33.672  13.351
51573W        W19978  16.817  44.852  11.982
51574W        W19979  13.937  44.079  14.971
51575W        W19980  36.323  34.880  13.961
51576W        W19981  37.153  31.414  12.554
51577W        W19982  18.474  11.344  10.353
51578W        W19983   7.688  26.007  13.301
51579W        W19984  35.385  37.319  11.058
51580W        W19985  42.947  42.892   2.263
51581W        W19986  16.057  19.665  11.990
51582W        W19987  22.164  26.132   4.772
51583W        W19988  32.513  23.851   2.745
51584W        W19989  33.919  37.849  10.704
51585W        W19990  31.207   7.126  11.076
51586W        W19991  38.854   1.275   4.215
51587W        W19992   0.696  26.146  11.215
51588W        W19993   1.849  28.553  13.962
51589W        W19994  19.540  15.821   1.926
51590W        W19995  18.257  23.505  12.989
51591W        W19996  22.571   1.473  14.716
51592W        W19997   5.139  34.340  11.559
51593W        W19998   1.408  17.587  12.987
51594W        W19999  21.388  40.982  10.561
51595W        W20000  10.678  32.024   1.235
51596W        W20001   3.221  22.226  12.937
51597W        W20002  38.152  11.183  14.852
51598W        W20003   7.174  20.128   0.397
51599W        W20004  22.678  43.586   2.012
51600W        W20005   5.573  29.129  13.407
51601W        W20006  24.924  20.558  13.029
51602W        W20007  22.630  40.983   2.205
51603W        W20008  21.817  27.969  10.896
51604W        W20009   3.433  40.587  12.225
51605W        W20010  44.756  21.002   2.681
51606W        W20011   7.353  27.617   0.754
51607W        W20012  17.065  21.608  14.615
51608W        W20013  25.455  17.737   1.152
51609W        W20014  19.635  24.953  14.161
51610W        W20015  20.244  32.332  13.528
51611W        W20016   1.515  34.133  12.533
51612W        W20017   9.241  20.613   1.834
51613W        W20018  23.998  19.850   2.454
51614W        W20019  42.026  25.085  12.433
51615W        W20020  17.469  12.532  12.512
51616W        W20021  21.930  22.206   2.765
51617W        W20022  18.656  34.030   0.273
51618W        W20023   2.418  23.777   4.695
51619W        W20024  35.636  36.341  11.295
51620W        W20025   8.617  21.120  10.447
51621W        W20026  43.942  20.071  12.551
51622W        W20027  27.722  44.218   2.353
51623W        W20028  40.492   6.766  13.870
51624W        W20029   8.858  37.123   4.088
51625W        W20030  14.652  34.898   3.819
51626W        W20031  11.632  35.703  13.201
51627W        W20032  12.826  19.239   3.772
51628W        W20033  13.246  41.681   4.794
51629W        W20034  31.625  40.384  11.217
51630W        W20035  16.082  17.120   4.157
51631W        W20036  23.675  15.157  14.453
51632W        W20037   7.232  29.613  12.776
51633W        W20038   5.233   6.464  10.952
51634W        W20039  25.253  11.256  11.581
51635W        W20040  36.955  38.431   0.327
51636W        W20041  26.010   6.346  13.845
51637W        W20042  28.191  33.170  10.604
51638W        W20043  34.608  34.542  10.668
51639W        W20044   3.971  40.784   3.609
51640W        W20045   9.394  27.640   1.694
51641W        W20046  36.602  37.045   4.037
51642W        W20047  32.871  21.178   1.684
51643W        W20048  23.264   0.388   4.063
51644W        W20049  10.283  39.071  13.518
51645W        W20050  19.628  22.681  10.780
51646W        W20051   8.924  19.628  10.684
51647W        W20052  17.325  16.161  13.417
51648W        W20053  32.943   7.416  13.016
51649W        W20054  41.369  13.150   3.304
51650W        W20055  17.148   3.080  14.701
51651W        W20056  10.403  37.917   0.986
51652W        W20057  37.427   9.567   4.783
51653W        W20058  12.605   5.381   1.158
51654W        W20059  23.871  24.160  11.973
51655W        W20060   9.330  32.460   0.414
51656W        W20061  11.359  27.414  13.540
51657W        W20062  13.531  19.790   1.777
51658W        W20063  37.720  25.931   1.796
51659W        W20064  33.775   8.867   2.730
51660W        W20065  14.821   7.169  13.991
51661W        W20066   3.780   1.345  13.061
51662W        W20067   6.676  19.225  11.645
51663W        W20068   9.240   3.434   3.738
51664W        W20069  15.534   6.679  11.182
51665W        W20070  10.804  17.559   0.741
51666W        W20071   5.357  20.345  10.249
51667W        W20072   8.756  24.949  11.622
51668W        W20073  28.214  11.175   3.615
51669W        W20074  43.812   2.900   4.260
51670W        W20075  16.989   5.172   4.888
51671W        W20076  18.815   8.801  14.104
51672W        W20077   2.750  23.533  14.452
51673W        W20078  44.644   7.333  10.713
51674W        W20079   8.215  34.789   2.739
51675W        W20080  27.195  12.255  11.035
51676W        W20081  41.675   1.677   5.092
51677W        W20082   2.337   1.022  13.958
51678W        W20083  27.204  24.595   3.902
51679W        W20084  39.805   0.912  11.450
51680W        W20085  19.177  26.190   3.288
51681W        W20086  34.836   7.412  11.262
51682W        W20087  38.378  10.270  12.982
51683W        W20088   8.476  21.140  11.636
51684W        W20089  33.652   8.729  14.469
51685W        W20090  29.178  14.237  10.689
51686W        W20091  15.526  32.053  14.405
51687W        W20092  39.437  21.919   4.590
51688W        W20093  26.386  31.529  13.446
51689W        W20094   0.477  17.112   1.786
51690W        W20095  32.541  13.447   1.444
51691W        W20096   7.936  36.408   4.514
51692W        W20097  15.250  26.632   0.282
51693W        W20098  11.869  31.104   2.845
51694W        W20099   5.907   3.659  12.395
51695W        W20100  25.432  18.791   2.479
51696W        W20101  40.486  12.167   2.225
51697W        W20102  14.838   6.384   0.746
51698W        W20103  37.379   4.239  14.824
51699W        W20104  31.355  32.644  10.833
51700W        W20105  23.469  33.483  10.745
51701W        W20106  23.473  28.675  11.607
51702W        W20107  36.626  27.097   4.572
51703W        W20108  16.324   8.932   3.175
51704W        W20109   5.657  41.863   1.375
51705W        W20110  27.553   2.680   1.690
51706W        W20111  23.198   6.690  12.497
51707W        W20112  29.540  41.094  13.788
51708W        W20113  11.211  33.338  14.414
51709W        W20114  42.973  12.239   2.105
51710W        W20115  44.019  38.830   4.073
51711W        W20116  34.573  26.779   0.870
51712W        W20117  11.911  23.951   2.164
51713W        W20118  23.070  41.329  13.330
51714W        W20119  19.508  16.774  11.398
51715W        W20120  29.873  38.407   3.632
51716W        W20121  22.372  44.088  14.347
51717W        W20122   8.692  37.616   4.103
51718W        W20123  10.055  10.406   4.162
51719W        W20124   5.913  18.565   3.151
51720W        W20125  38.479  19.463   0.089
51721W        W20126  18.489   1.850  11.282
51722W        W20127  19.196  28.367  14.873
51723W        W20128  28.613   6.334  14.597
51724W        W20129  33.044   0.229  10.572
51725W        W20130  19.788  23.192  13.996
51726W        W20131  10.773  42.163   0.803
51727W        W20132  14.077  42.160  13.772
51728W        W20133  20.999  10.339  13.372
51729W        W20134   1.843   2.350   4.367
51730W        W20135   1.360  36.873  14.105
51731W        W20136  25.567   1.741  12.802
51732W        W20137  28.024  27.934  13.551
51733W        W20138  16.139  19.507  11.494
51734W        W20139  42.926   4.904   2.230
51735W        W20140  16.212   4.016  11.591
51736W        W20141  33.538  34.473  10.605
51737W        W20142   2.039  37.294   3.120
51738W        W20143  24.524  26.775   4.171
51739W        W20144  31.650  35.533  13.882
51740W        W20145   5.295   4.813  14.104
51741W        W20146   9.136  11.817   3.628
51742W        W20147  32.595  21.144   1.228
51743W        W20148  29.294   6.736   0.258
51744W        W20149  40.939   5.284   1.337
51745W        W20150  44.596  16.081  13.720
51746W        W20151   2.933  33.500   1.515
51747W        W20152  36.948   7.107   2.369
51748W        W20153  30.013   1.666  10.637
51749W        W20154   2.169   8.800  10.787
51750W        W20155  26.472  43.971  10.769
51751W        W20156  39.376  31.475   3.083
51752W        W20157  44.738  12.122   3.892
51753W        W20158  41.760  31.931  10.801
51754W        W20159  41.444  35.267   5.028
51755W        W20160  44.505  32.612  10.657
51756W        W20161  40.195  40.441   1.228
51757W        W20162  39.197  11.852   1.372
51758W        W20163  42.539  11.341  11.568
51759W        W20164   2.469   4.189   0.469
51760W        W20165   3.762   7.315   1.805
51761W        W20166  37.912   9.794   1.261
51762W        W20167  37.601   2.400  13.975
51763W        W20168  13.145   3.955  10.558
51764W        W20169  36.192  30.017  11.682
51765W        W20170   1.756   3.806  14.344
51766W        W20171  37.917  13.453  13.800
51767W        W20172  43.218  41.465   4.860
51768W        W20173  43.980  14.306  12.473
51769W        W20174  24.921  43.518  10.595
51770W        W20175  41.235  24.515  13.952
51771W        W20176  26.963  17.070  12.737
51772W        W20177  14.415   6.533  12.677
51773W        W20178  41.855  33.608   2.729
51774W        W20179  14.193  22.242   0.059
51775W        W20180  43.839  25.468  11.168
51776W        W20181  23.150  11.879   0.008
51777W        W20182  20.208  35.415  14.320
51778W        W20183  16.312   1.312  12.879
51779W        W20184   3.954  20.924   2.830
51780W        W20185  26.777  13.399  13.054
51781W        W20186   6.910  14.378   3.262
51782W        W20187  41.796  29.212   1.775
51783W        W20188  11.627  43.515   1.979
51784W        W20189   2.865  43.040   1.925
51785W        W20190   7.781  37.559  10.476
51786W        W20191   0.002  41.865  13.434
51787W        W20192  33.143  11.291   4.135
51788W        W20193  11.100  13.684   0.123
51789W        W20194  42.851  28.649   4.455
51790W        W20195   5.777  39.999  14.122
51791W        W20196   0.334   6.902  12.532
51792W        W20197  42.251   9.850  13.743
51793W        W20198  40.831  17.936  13.805
51794W        W20199  15.112  24.641   0.403
51795W        W20200  28.795  34.962  14.005
51796W        W20201  16.090  28.463  14.593
51797W        W20202   1.071   8.449   1.299
51798W        W20203  12.750  15.092   0.364
51799W        W20204   5.339  12.333   1.352
51800W        W20205  16.642  42.325   0.736
51801W        W20206   0.777   0.301  12.847
51802W        W20207  37.355  15.660   2.222
51803W        W20208  36.123  41.827  13.863
51804W        W20209  20.252  22.666   1.374
51805W        W20210  42.723   0.123  13.505
51806W        W20211  42.262  23.951  11.363
51807W        W20212   1.036  21.816  10.590
51808W        W20213  41.965  19.478  13.833
51809W        W20214  19.833   7.689   2.867
51810W        W20215  37.375  36.977  11.260
51811W        W20216  29.154  17.990   1.439
51812W        W20217  43.503  20.065  14.455
51813W        W20218  12.569  25.737   4.053
51814W        W20219  37.799   1.221   4.159
51815W        W20220  11.595  28.262  14.963
51816W        W20221   0.516   1.413   4.043
51817W        W20222  28.632   8.250   0.521
51818W        W20223  43.943  18.589  14.250
51819W        W20224   9.267  18.235  14.881
51820W        W20225  10.275   2.772   4.634
51821W        W20226  24.896  10.267  12.171
51822W        W20227  13.859   7.891   0.387
51823W        W20228  11.380   4.713  13.929
51824W        W20229  19.596  16.818   1.528
51825W        W20230   1.471  41.763   4.194
51826W        W20231  40.938   2.902   3.679
51827W        W20232  16.646  10.041   2.646
51828W        W20233  13.625  36.413   1.904
51829W        W20234   5.269  34.936  11.950
51830W        W20235  21.248  27.086   2.120
51831W        W20236   1.875  34.908   1.738
51832W        W20237  37.851   2.006  11.363
51833W        W20238   1.627  10.716  11.128
51834W        W20239  33.013  30.181  11.632
51835W        W20240  18.891  25.446   4.196
51836W        W20241  34.828  39.939  11.512
51837W        W20242  29.537  39.194  12.638
51838W        W20243   4.380  43.958  11.603
51839W        W20244  18.069  13.915  11.138
51840W        W20245   7.579  34.441  13.650
51841W        W20246   0.821  44.243   2.424
51842W        W20247  24.132  21.876   0.917
51843W        W20248   2.971   3.589  13.839
51844W        W20249  10.224  21.960   0.298
51845W        W20250  22.487   5.927  10.561
51846W        W20251  10.747  21.690  11.606
51847W        W20252  36.347  44.784  13.619
51848W        W20253   8.854   9.804   1.347
51849W        W20254  38.255  32.035  14.032
51850W        W20255  24.723  19.066   0.359
51851W        W20256  14.822  15.607  10.980
51852W        W20257  33.074   1.993   2.198
51853W        W20258  29.192  38.652  11.205
51854W        W20259  39.004  14.337   0.939
51855W        W20260  12.666  20.030   1.908
51856W        W20261  16.285  22.934  14.451
51857W        W20262  11.882  33.323   4.638
51858W        W20263   4.839  24.884  11.835
51859W        W20264  19.981  42.929  10.406
51860W        W20265  11.842  27.660  10.238
51861W        W20266  12.577   1.418   2.984
51862W        W20267  25.748  33.652  14.385
51863W        W20268  29.387  10.647  12.122
51864W        W20269  17.250  31.114  11.091
51865W        W20270   4.747  19.177   2.176
51866W        W20271  34.410  33.081   1.484
51867W        W20272  19.581  18.266   0.901
51868W        W20273   1.846   3.701   4.127
51869W        W20274  15.546  22.525   0.296
51870W        W20275  25.472  13.196  12.079
51871W        W20276  39.057  31.628   1.278
51872W        W20277  17.103  14.065   2.848
51873W        W20278  29.193  14.248   3.162
51874W        W20279  11.373  28.918  11.419
51875W        W20280  38.876  38.085  12.414
51876W        W20281   2.046  43.301  14.514
51877W        W20282   5.351  19.753  13.419
51878W        W20283  28.149  35.539  14.965
51879W        W20284  17.574  36.059  12.689
51880W        W20285  37.607  39.982   4.066
51881W        W20286  42.627  28.768   1.339
51882W        W20287   8.273  14.174   3.804
51883W        W20288  13.851  40.580   1.865
51884W        W20289  33.896  27.501   2.792
51885W        W20290  25.533  19.123   4.136
51886W        W20291   6.446  25.994  14.961
51887W        W20292  39.430  27.213   0.170
51888W        W20293  15.597  11.285   5.010
51889W        W20294  43.429  11.685   4.420
51890W        W20295   8.124  27.493  10.493
51891W        W20296  36.785  18.069  13.902
51892W        W20297  28.169   8.035  13.057
51893W        W20298  33.155  28.586   3.075
51894W        W20299  22.307  37.786  14.662
51895W        W20300  37.384  22.447  12.618
51896W        W20301  37.318  44.053   0.426
51897W        W20302  40.846  17.023   0.440
51898W        W20303  26.392  35.424  14.806
51899W        W20304  25.065   4.490  10.518
51900W        W20305  34.507  25.230  13.524
51901W        W20306  17.866   6.517  10.150
51902W        W20307  44.611   9.181  13.682
51903W        W20308  24.732  20.702   0.018
51904W        W20309   0.290   1.864   1.171
51905W        W20310   6.662  30.992  14.506
51906W        W20311  12.003  15.854  13.250
51907W        W20312  43.409  26.110   0.472
51908W        W20313  15.359   2.473  10.255
51909W        W20314  13.647  29.612  12.115
51910W        W20315   9.288   6.146   4.299
51911W        W20316  16.542  26.098  11.411
51912W        W20317   8.476  37.407   4.521
51913W        W20318  20.133  30.573   0.951
51914W        W20319  13.712  17.850  12.599
51915W        W20320  23.103  37.483   0.800
51916W        W20321  29.723  30.579   1.860
51917W        W20322   1.879  20.735   0.281
51918W        W20323  12.344  35.922  13.569
51919W        W20324  40.932  37.040   0.437
51920W        W20325  20.999   4.679  11.032
51921W        W20326  43.766  36.911  14.814
51922W        W20327   7.457   1.947   4.127
51923W        W20328  40.940  17.524  11.985
51924W        W20329  39.928  27.583   4.776
51925W        W20330  41.628  23.939   1.247
51926W        W20331  32.097  32.540  14.727
51927W        W20332  40.800   4.453   3.653
51928W        W20333   3.990  28.550   2.228
51929W        W20334  26.082  36.607   0.046
51930W        W20335   8.043  26.459   1.840
51931W        W20336  16.805  11.050  11.123
51932W        W20337  40.763   1.694   0.386
51933W        W20338   3.267   2.506   4.624
51934W        W20339  26.367  22.141   0.597
51935W        W20340  31.222  24.162  13.704
51936W        W20341  12.919  18.447   3.302
51937W        W20342  22.713   4.884   2.229
51938W        W20343  14.180  22.971   3.246
51939W        W20344  40.099  15.257   1.851
51940W        W20345  12.838  13.060   0.433
51941W        W20346  33.886  35.946   4.872
51942W        W20347  10.171   8.917  14.506
51943W        W20348  13.346   3.966   1.314
51944W        W20349   3.568   4.749   0.929
51945W        W20350  31.124  17.140   5.053
51946W        W20351  39.520  23.032   3.696
51947W        W20352  36.079  32.568   0.231
51948W        W20353  11.624  20.852  11.543
51949W        W20354  17.085  14.314  11.080
51950W        W20355  43.467   5.630  12.206
51951W        W20356  15.275  35.481  10.365
51952W        W20357  24.812  44.805  13.970
51953W        W20358  22.500  38.983   1.480
51954W        W20359  26.999   6.845   4.238
51955W        W20360  26.187  19.688   3.130
51956W        W20361   8.710  34.374   0.529
51957W        W20362  34.535  11.327   1.002
51958W        W20363  20.479  26.979  13.935
51959W        W20364  22.042  22.449   3.237
51960W        W20365  43.794  12.298   1.122
51961W        W20366  37.490  33.376   0.419
51962W        W20367  37.517   0.930  10.530
51963W        W20368   1.361  15.402   4.112
51964W        W20369  29.380  26.593   4.067
51965W        W20370   7.680  17.340   1.009
51966W        W20371  24.223  27.053  11.898
51967W        W20372  18.718  25.272  14.295
51968W        W20373  12.925  31.333   4.095
51969W        W20374   8.348  33.064   0.838
51970W        W20375   4.766   5.377   4.739
51971W        W20376  25.104  43.333  12.879
51972W        W20377  13.623  17.048   4.327
51973W        W20378  39.135  33.592   1.193
51974W        W20379  20.174   3.893   2.834
51975W        W20380  18.498   1.749  10.786
51976W        W20381   6.667  12.734  13.914
51977W        W20382  10.177  24.054   2.742
51978W        W20383   3.815  42.885  12.837
51979W        W20384   4.832  18.289  14.695
51980W        W20385   8.634  28.083   4.080
51981W        W20386  16.094  41.485  13.551
51982W        W20387  43.690  42.517   2.610
51983W        W20388  10.651  30.878  13.375
51984W        W20389  16.573  14.691  13.478
51985W        W20390  11.434   3.779   4.171
51986W        W20391  34.848  39.587   0.890
51987W        W20392  32.098  20.055  11.958
51988W        W20393  22.901  41.217   4.858
51989W        W20394   4.795   1.200  12.827
51990W        W20395  34.724  32.917  13.056
51991W        W20396  27.039   3.971   0.371
51992W        W20397  12.868  43.747  14.708
51993W        W20398   6.382   9.053   0.294
51994W        W20399   5.973  28.624   3.326
51995W        W20400  20.627  23.108  11.205
51996W        W20401  22.699  22.104  14.320
51997W        W20402  20.291  29.024  11.294
51998W        W20403  33.725  21.640   2.198
51999W        W20404   3.725  20.782   3.541
52000W        W20405  20.489  12.773  12.149
52001W        W20406   0.514   9.257  14.981
52002W        W20407   5.305  42.252  12.903
52003W        W20408  26.124  26.537  12.853
52004W        W20409  37.368  29.953  11.990
52005W        W20410  32.427   2.828   3.632
52006W        W20411  11.892  16.538  10.490
52007W        W20412  27.919  10.380  14.442
52008W        W20413   7.744   2.384   1.368
52009W        W20414   9.388  43.184  12.986
52010W        W20415   0.870   7.680  13.678
52011W        W20416  20.233  14.688  12.369
52012W        W20417  15.571   8.463   4.739
52013W        W20418  29.643  34.087  11.104
52014W        W20419  24.414  43.415  14.024
52015W        W20420  15.924   0.243   5.149
52016W        W20421  42.965  33.545  12.021
52017W        W20422  30.988  34.599  12.040
52018W        W20423  14.849  43.551   2.737
52019W        W20424  25.691  17.166   2.666
52020W        W20425  30.873  33.193  14.436
52021W        W20426  14.255  19.595  13.645
52022W        W20427  39.781   1.325   3.354
52023W        W20428  17.539   4.866  14.883
52024W        W20429  30.472  14.291   1.883
52025W        W20430   4.211  13.671   0.271
52026W        W20431  19.075   4.766  11.985
52027W        W20432  42.556   8.812   4.601
52028W        W20433  10.847  28.202   3.544
52029W        W20434  34.565   9.909   1.048
52030W        W20435  20.406  43.105  11.351
52031W        W20436  31.422  27.913   0.477
52032W        W20437   4.153  20.465   0.819
52033W        W20438  18.245  24.529  14.632
52034W        W20439  19.823   3.015  13.997
52035W        W20440   7.283  43.828   4.597
52036W        W20441  16.425  12.314   3.202
52037W        W20442  13.329   9.337  13.964
52038W        W20443  39.272  13.140   2.982
52039W        W20444  16.113   8.375  11.495
52040W        W20445  34.076  29.120   0.754
52041W        W20446  21.622   4.732   0.892
52042W        W20447  27.077  23.250   3.201
52043W        W20448  36.357  17.605  13.906
52044W        W20449   9.347   6.370   0.235
52045W        W20450   7.616  15.322  14.546
52046W        W20451  31.381   3.117  11.291
52047W        W20452  26.745  31.572   3.865
52048W        W20453  34.384  23.593   1.887
52049W        W20454  34.138  31.856   2.717
52050W        W20455  21.522  21.240   1.947
52051W        W20456   6.974  24.931   4.202
52052W        W20457   0.148  35.332  14.020
52053W        W20458   0.035  39.708  14.980
52054W        W20459  20.444  16.498  14.866
52055W        W20460  38.156  25.203  14.228
52056W        W20461  39.546  17.587  11.119
52057W        W20462   3.271  22.744  12.937
52058W        W20463  39.339  32.780   2.988
52059W        W20464  38.918  29.098   4.612
52060W        W20465  11.249   2.959  10.976
52061W        W20466  40.857  15.170   2.656
52062W        W20467  20.499  43.021  13.103
52063W        W20468  29.359   9.393  11.210
52064W        W20469  19.926  17.155  14.224
52065W        W20470  44.820  36.557   1.663
52066W        W20471  13.185  13.170  14.932
52067W        W20472   5.187  13.560  10.668
52068W        W20473  32.680  23.169   3.382
52069W        W20474  30.048  29.013   0.416
52070W        W20475  16.483  29.575  14.810
52071W        W20476  31.742  17.652  12.020
52072W        W20477   7.722  11.770  12.438
52073W        W20478   8.341  32.536   3.677
52074W        W20479  23.708   0.637   1.238
52075W        W20480  30.230  24.672   2.409
52076W        W20481   4.780  22.658   1.636
52077W        W20482  29.536  18.048   2.905
52078W        W20483   1.464  18.030   1.110
52079W        W20484  42.251  14.030   2.447
52080W        W20485   2.611   5.577   5.561
52081W        W20486   8.662   7.758  12.858
52082W        W20487  43.711  11.632  12.805
52083W        W20488   7.058   9.960   1.465
52084W        W20489  27.068   0.551   4.288
52085W        W20490  39.407  20.444  11.253
52086W        W20491  22.193  20.421   2.862
52087W        W20492  20.663  31.375   2.864
52088W        W20493  23.197  32.047   0.797
52089W        W20494  10.968  44.288   1.316
52090W        W20495  44.299   1.120  13.753
52091W        W20496  44.857  32.046   3.624
52092W        W20497   0.009  21.487  13.689
52093W        W20498  30.188  38.837   4.132
52094W        W20499   8.205  28.589  11.982
52095W        W20500  25.942  44.400  12.470
52096W        W20501  32.439  29.938   3.564
52097W        W20502  32.069  14.529   0.063
52098W        W20503   9.510   4.482  11.536
52099W        W20504  11.347  18.563  14.371
52100W        W20505  28.945  19.099   1.337
52101W        W20506  13.393  27.543   3.872
52102W        W20507  28.920  26.665  12.984
52103W        W20508  41.328   0.022   3.397
52104W        W20509  19.304  16.668   2.417
52105W        W20510  22.215  21.177  11.848
52106W        W20511   4.336   1.215  11.862
52107W        W20512  11.164   0.563  12.348
52108W        W20513  21.679  30.439   3.333
52109W        W20514   6.888   7.361  11.519
52110W        W20515  15.108  24.985  10.199
52111W        W20516  32.115  18.022   3.071
52112W        W20517   4.754  38.357  11.886
52113W        W20518  38.517  44.291  10.642
52114W        W20519  10.264   5.538   3.697
52115W        W20520  32.610   7.784   0.464
52116W        W20521  23.952   2.709   3.183
52117W        W20522   6.252  28.742   9.830
52118W        W20523  20.597  29.184   1.445
52119W        W20524  40.130  25.244  14.810
52120W        W20525  32.481  12.298  11.591
52121W        W20526   2.796   1.409   4.189
52122W        W20527   4.916  24.196  10.667
52123W        W20528  14.033  16.159  11.146
52124W        W20529  26.595   9.976   0.450
52125W        W20530  24.598  43.620   2.410
52126W        W20531  22.433  35.398  11.130
52127W        W20532   0.422  26.635  13.507
52128W        W20533  39.835  28.672   2.819
52129W        W20534   1.049  13.829   1.889
52130W        W20535  44.446   6.164  13.124
52131W        W20536  19.839  37.366  14.056
52132W        W20537  21.903  29.610   2.296
52133W        W20538  25.082  44.582   3.786
52134W        W20539   3.934  42.767   3.276
52135W        W20540   1.905  20.578  12.797
52136W        W20541  24.013   9.832  12.220
52137W        W20542   4.332  42.096  11.441
52138W        W20543  28.345  17.591   0.580
52139W        W20544  23.130  30.462   1.237
52140W        W20545  44.004  20.712   2.359
52141W        W20546  28.604  36.021   0.321
52142W        W20547   3.774  34.956   2.298
52143W        W20548  28.348  36.075   3.793
52144W        W20549  24.153  17.219   4.141
52145W        W20550  25.176  22.568  14.117
52146W        W20551   5.701  23.979   2.629
52147W        W20552  38.882  32.711   3.201
52148W        W20553  12.476  42.319  14.719
52149W        W20554  22.713   9.151  13.123
52150W        W20555  36.527  39.038   2.291
52151W        W20556  12.776  26.165   4.229
52152W        W20557   4.630  17.601  13.395
52153W        W20558  10.212  22.245  14.807
52154W        W20559   9.660   2.278   2.692
52155W        W20560  35.079  22.005  11.895
52156W        W20561  12.872  10.442  13.481
52157W        W20562  41.294  16.904  11.155
52158W        W20563  42.094  19.299   3.615
52159W        W20564   3.761  35.708   3.367
52160W        W20565  39.796  28.981  14.931
52161W        W20566  44.353  28.743   3.290
52162W        W20567  42.508  39.288  11.790
52163W        W20568   4.062  42.361   2.188
52164W        W20569  34.829   4.689   3.193
52165W        W20570   7.677  21.033  12.015
52166W        W20571  21.660  27.525  12.553
52167W        W20572  38.128  31.471   3.718
52168W        W20573  32.039  27.356  13.371
52169W        W20574  42.036  39.024  14.328
52170W        W20575  29.118  21.067  11.658
52171W        W20576  15.320   1.972   2.688
52172W        W20577  15.580  18.090  14.974
52173W        W20578  28.352  18.519   0.107
52174W        W20579  29.035  44.040  14.867
52175W        W20580  31.954  22.462   0.362
52176W        W20581   5.943  15.727  13.330
52177W        W20582  34.572  22.197   4.709
52178W        W20583  29.456   0.092   4.485
52179W        W20584   6.146  41.182  11.068
52180W        W20585  36.158  35.104  14.428
52181W        W20586  11.171  38.002   4.542
52182W        W20587  18.708  34.459  14.479
52183W        W20588  41.789   2.275   3.532
52184W        W20589   2.737  23.970  14.797
52185W        W20590  41.482  32.922   3.784
52186W        W20591  44.495   4.881   3.679
52187W        W20592  44.025  38.322  13.741
52188W        W20593  18.444  41.283   1.289
52189W        W20594  32.109  18.797  13.938
52190W        W20595  35.118  14.003  14.882
52191W        W20596   5.099  31.426  11.745
52192W        W20597  32.377  22.682   3.032
52193W        W20598  37.107  41.453   4.855
52194W        W20599  10.271  44.676   2.482
52195W        W20600  17.059  28.666  14.584
52196W        W20601  11.719   4.110   2.218
52197W        W20602  26.617  42.020   3.909
52198W        W20603  24.594  39.891   3.375
52199W        W20604  38.593  10.647  12.601
52200W        W20605   5.349  17.679  13.008
52201W        W20606  30.605  44.062   4.679
52202W        W20607   8.115  11.009  11.920
52203W        W20608   3.481  10.487   3.281
52204W        W20609  15.812   4.942  11.049
52205W        W20610  30.758   3.896   0.381
52206W        W20611  38.688   2.010  11.482
52207W        W20612  11.444   9.583   3.900
52208W        W20613  16.701  30.191  12.548
52209W        W20614   4.009  42.846   2.367
52210W        W20615  20.206  24.938  10.707
52211W        W20616  27.417  24.643   4.859
52212W        W20617  19.874  44.427   0.316
52213W        W20618  24.967   3.320   0.604
52214W        W20619  29.442  32.599  10.456
52215W        W20620  25.458  42.953  10.624
52216W        W20621  10.422  24.097   1.288
52217W        W20622  29.558  20.846  13.650
52218W        W20623  20.514  32.361  10.582
52219W        W20624  22.937  16.536  13.198
52220W        W20625  35.948  44.485  12.381
52221W        W20626  20.487   0.002   3.644
52222W        W20627  14.106  24.438   1.328
52223W        W20628  32.603   1.381  11.203
52224W        W20629  24.636  16.611  14.561
52225W        W20630  15.281  22.783  14.933
52226W        W20631   5.255  22.911   0.732
52227W        W20632   6.173   5.190  14.402
52228W        W20633  29.763  21.941   3.272
52229W        W20634  27.173   5.478  11.506
52230W        W20635  16.743  19.995   0.319
52231W        W20636   4.407  27.183   3.117
52232W        W20637  29.805   2.412   3.849
52233W        W20638  11.104   7.846  13.996
52234W        W20639  43.008  18.328   0.894
52235W        W20640   6.263  10.697   1.678
52236W        W20641  13.442  31.210  13.346
52237W        W20642  21.751  17.093  14.055
52238W        W20643  24.699  25.091   3.908
52239W        W20644  23.717  27.147  10.744
52240W        W20645   2.883  38.298  13.336
52241W        W20646   2.437   0.228   4.505
52242W        W20647  25.618  12.152   1.498
52243W        W20648  33.045  37.525  11.636
52244W        W20649   7.369  44.520  13.438
52245W        W20650  43.574  35.462  10.601
52246W        W20651  22.421  26.512   1.899
52247W        W20652  23.955  26.166   0.914
52248W        W20653  43.019  35.626   0.828
52249W        W20654  22.046  30.404  12.721
52250W        W20655   0.959  26.033   3.014
52251W        W20656  26.679  40.560   3.107
52252W        W20657  14.364  33.348  12.968
52253W        W20658  33.938  12.591   2.690
52254W        W20659  13.852   7.682  14.482
52255W        W20660  38.995  37.894  14.017
52256W        W20661  19.003  37.308   1.155
52257W        W20662  16.202  31.505   1.026
52258W        W20663  44.967  31.525   4.523
52259W        W20664  38.328  10.642  14.021
52260W        W20665   3.898  16.556  13.003
52261W        W20666  17.235  38.337  13.472
52262W        W20667  24.981  29.189   9.818
52263W        W20668  18.679   7.147   4.469
52264W        W20669  19.225  36.872   1.733
52265W        W20670  23.188   6.249   1.323
52266W        W20671  32.968  22.065   1.431
52267W        W20672  19.078  21.266  12.401
52268W        W20673   9.262   2.228  14.845
52269W        W20674  33.104  24.610   4.924
52270W        W20675  24.269   9.187  13.901
52271W        W20676  30.924  30.262  13.062
52272W        W20677  29.443  21.807   0.792
52273W        W20678  21.128   7.394   9.869
52274W        W20679  43.058  28.500   1.371
52275W        W20680  44.640  16.972  12.462
52276W        W20681   4.344  33.938   3.645
52277W        W20682  16.853  24.163  11.705
52278W        W20683  37.136  26.706   0.701
52279W        W20684   4.543  14.688  14.428
52280W        W20685   9.875  37.967   3.465
52281W        W20686  35.860  42.515   3.204
52282W        W20687  36.905   4.032  13.560
52283W        W20688  43.064  16.306   0.218
52284W        W20689  12.742  14.959  12.635
52285W        W20690  10.224   2.442   1.848
52286W        W20691   0.828  19.004  14.374
52287W        W20692  40.863  42.377  13.483
52288W        W20693  43.909  38.679  13.357
52289W        W20694  35.034  43.288   4.091
52290W        W20695  20.996  37.905  14.338
52291W        W20696  25.671  29.135   4.024
52292W        W20697  37.418  29.115   4.592
52293W        W20698   0.490  13.318   1.899
52294W        W20699   4.069  14.522   0.802
52295W        W20700  12.689  35.003   4.313
52296W        W20701  27.176  38.397   1.390
52297W        W20702   0.280   5.337  10.224
52298W        W20703  24.090  13.372  14.271
52299W        W20704  43.734  31.450  14.829
52300W        W20705  17.575   1.354   1.456
52301W        W20706  29.226  35.410   3.248
52302W        W20707  23.769  14.344  12.035
52303W        W20708   9.902   5.652  11.536
52304W        W20709   3.378  12.746   4.384
52305W        W20710   0.997  12.707   0.673
52306W        W20711  34.167  17.337   1.698
52307W        W20712  41.075  40.062   3.935
52308W        W20713   3.204  39.639  14.296
52309W        W20714  39.389   1.772  12.520
52310W        W20715  18.558   6.462   2.805
52311W        W20716  23.118   1.427  11.515
52312W        W20717  35.599  13.052   1.357
52313W        W20718  30.971  26.479  12.380
52314W        W20719   3.214  28.043  13.073
52315W        W20720  22.100  30.888  11.536
52316W        W20721  36.198  23.728   3.131
52317W        W20722  18.324   9.615  12.018
52318W        W20723  42.025  22.490   0.327
52319W        W20724  16.288  41.402  14.897
52320W        W20725  10.869   4.100  11.168
52321W        W20726  33.454   8.330   4.358
52322W        W20727   9.919  32.875   0.850
52323W        W20728  13.264  10.708  14.844
52324W        W20729  34.156   8.604  11.178
52325W        W20730  21.591  16.628  12.640
52326W        W20731  17.104  42.568   3.224
52327W        W20732  35.421   8.288  12.360
52328W        W20733   6.716  29.945   4.422
52329W        W20734  33.984  30.149  14.129
52330W        W20735   7.561  18.632   1.694
52331W        W20736  30.391   9.674   1.513
52332W        W20737  39.952  28.926  13.125
52333W        W20738  38.051  37.357  14.595
52334W        W20739  12.018  44.416  10.379
52335W        W20740  18.426  11.450   5.369
52336W        W20741   5.869   0.476   3.725
52337W        W20742  14.614  23.444   4.598
52338W        W20743   3.094  41.039   3.789
52339W        W20744  17.779  22.085  13.942
52340W        W20745   9.725  42.281  13.908
52341W        W20746   0.243  15.722   0.744
52342W        W20747  30.894  24.110  14.104
52343W        W20748   8.638  43.559  10.775
52344W        W20749  14.263  15.364   4.591
52345W        W20750  21.364  20.196   3.364
52346W        W20751  37.001  25.640  11.172
52347W        W20752  20.159   7.380   1.780
52348W        W20753  42.296  39.774   1.309
52349W        W20754  44.874   0.794   4.920
52350W        W20755  14.212   8.336  10.592
52351W        W20756  33.106   0.514  13.115
52352W        W20757  40.018  36.374  13.435
52353W        W20758   1.837  15.543  14.994
52354W        W20759  41.880  32.355   2.330
52355W        W20760  16.105  14.136  13.893
52356W        W20761   9.723  13.366  13.380
52357W        W20762   3.265  18.713  11.724
52358W        W20763  14.279  22.941   1.339
52359W        W20764  40.993   4.381   3.174
52360W        W20765   5.090  11.519   4.541
52361W        W20766  25.945   5.001  11.545
52362W        W20767  24.454  23.621  13.432
52363W        W20768   2.585  10.392   5.093
52364W        W20769  25.308  17.442  13.111
52365W        W20770  23.006  42.759   3.094
52366W        W20771  14.889  38.082  14.808
52367W        W20772  44.781  39.652   2.614
52368W        W20773  30.760   3.449   3.369
52369W        W20774  16.335  33.489   3.119
52370W        W20775  32.707  34.571   3.490
52371W        W20776  19.320  25.525  13.005
52372W        W20777  26.226  16.896   4.071
52373W        W20778  13.875  20.771   0.403
52374W        W20779  37.000  35.989   4.833
52375W        W20780  30.642   9.591   1.027
52376W        W20781  37.630   5.405  13.633
52377W        W20782  26.109  19.810   4.066
52378W        W20783  31.061   8.809   3.756
52379W        W20784   6.747  19.508  11.181
52380W        W20785  14.892  11.099  11.100
52381W        W20786  29.866  11.767  13.777
52382W        W20787  12.688  27.136  13.979
52383W        W20788  11.784  26.963   1.425
52384W        W20789  18.364   1.958  13.938
52385W        W20790  28.569  43.807  14.948
52386W        W20791  12.567  11.130   1.465
52387W        W20792  26.179  16.825   0.564
52388W        W20793  28.482  44.875  14.005
52389W        W20794  43.952  35.582  14.733
52390W        W20795   6.721  39.014   0.279
52391W        W20796   7.750  20.375   2.526
52392W        W20797   3.277   3.915  13.070
52393W        W20798  24.243   7.356  13.077
52394W        W20799  21.919   5.399  12.883
52395W        W20800  11.190   0.692  14.274
52396W        W20801   6.081   7.215   1.433
52397W        W20802  10.270   7.861   2.127
52398W        W20803   6.216  25.955  12.119
52399W        W20804   0.596  41.280   3.260
52400W        W20805   7.425  20.148  14.947
52401W        W20806  15.897  40.349  12.992
52402W        W20807  14.064  42.610   4.125
52403W        W20808  26.667  44.447   1.353
52404W        W20809  31.426  23.604   3.727
52405W        W20810  22.326  38.655   3.345
52406W        W20811   4.142   5.910   9.820
52407W        W20812  39.803  13.028  14.733
52408W        W20813  26.225   6.248  13.368
52409W        W20814  12.768  12.277  13.027
52410W        W20815   8.403  41.893  11.702
52411W        W20816   8.781  37.582   1.455
52412W        W20817  38.928  24.692  10.753
52413W        W20818  32.892  31.329   0.702
52414W        W20819  29.685   7.439   5.241
52415W        W20820  43.903   6.465   0.406
52416W        W20821  19.288  39.374   1.326
52417W        W20822  14.209   8.993  14.364
52418W        W20823  27.962  19.018   5.043
52419W        W20824  26.753  36.843  13.434
52420W        W20825  12.793   3.954  10.963
52421W        W20826  23.539   7.770  12.466
52422W        W20827  16.620  16.767   2.839
52423W        W20828  32.965  38.069   4.308
52424W        W20829  42.670  12.949  11.132
52425W        W20830  14.628  22.843  11.151
52426W        W20831  42.277  44.783  14.364
52427W        W20832  44.785  32.627   2.780
52428W        W20833  34.633  23.747  10.739
52429W        W20834   7.139  20.993  13.401
52430W        W20835  16.044  34.315   0.345
52431W        W20836  33.819  35.531  14.329
52432W        W20837  17.624  13.567  12.509
52433W        W20838   5.074  32.363   4.413
52434W        W20839   1.284  13.326  14.821
52435W        W20840  42.071  22.542  14.009
52436W        W20841  24.810  41.002   0.341
52437W        W20842  18.391   9.521  14.535
52438W        W20843  29.912   6.963   0.764
52439W        W20844  15.851  43.737   2.782
52440W        W20845  24.143  39.990   4.686
52441W        W20846  32.854   0.727  10.559
52442W        W20847  33.898  31.404  13.430
52443W        W20848  28.191  22.460   4.924
52444W        W20849  36.097  25.268   2.639
52445W        W20850  36.059  43.028   3.682
52446W        W20851  37.825  15.731   3.449
52447W        W20852  24.424  20.689  12.995
52448W        W20853   6.638  31.528  11.116
52449W        W20854   7.219  12.138   0.563
52450W        W20855   8.347  14.730   4.648
52451W        W20856  27.236  39.866   1.385
52452W        W20857  13.253  38.660   9.867
52453W        W20858   5.720   7.552   3.606
52454W        W20859  42.553  36.575   2.236
52455W        W20860  43.389  22.060   4.347
52456W        W20861   0.047   4.380   0.376
52457W        W20862  30.698  40.593  13.862
52458W        W20863  20.985  17.561  13.473
52459W        W20864   1.413  37.438  12.518
52460W        W20865  25.054  43.482   0.752
52461W        W20866  41.515  20.326  11.985
52462W        W20867  19.337  17.273   0.850
52463W        W20868  26.671   3.432  13.923
52464W        W20869  32.057  25.616   3.172
52465W        W20870  25.563  19.159   1.515
52466W        W20871  43.166  30.839  11.978
52467W        W20872   4.351   8.185   0.472
52468W        W20873  26.588  10.775   4.165
52469W        W20874  13.318  16.465   1.399
52470W        W20875  21.162   4.839  14.429
52471W        W20876  11.042  33.423  13.948
52472W        W20877   1.824  22.506   0.284
52473W        W20878  38.441  36.617  14.270
52474W        W20879  30.302  15.806  10.546
52475W        W20880  14.605  34.297  13.469
52476W        W20881  24.331  33.657  11.164
52477W        W20882   0.775   6.132  14.746
52478W        W20883   8.770  25.471  11.645
52479W        W20884  37.990  26.640  13.757
52480W        W20885  37.853  33.801  12.519
52481W        W20886  29.539  40.253   2.219
52482W        W20887  32.537  24.897  13.377
52483W        W20888   7.449   8.205   4.536
52484W        W20889  41.761  11.850   3.209
52485W        W20890  37.280  19.712   1.813
52486W        W20891  34.175  11.704   0.502
52487W        W20892  27.631   9.123   2.333
52488W        W20893  34.635  20.759   0.341
52489W        W20894  34.254  40.492   2.774
52490W        W20895  24.575  13.111   2.858
52491W        W20896  14.082  36.798  11.935
52492W        W20897  28.115  14.122  10.466
52493W        W20898  34.210  14.132  10.760
52494W        W20899  22.757  42.726  14.367
52495W        W20900  19.849  20.766   1.687
52496W        W20901  22.443  32.174   3.202
52497W        W20902   5.984  22.067  12.599
52498W        W20903  15.147  12.913  11.255
52499W        W20904   6.125   7.298  13.437
52500W        W20905   5.889  40.102   0.023
52501W        W20906  44.147   5.952  11.250
52502W        W20907   0.988  13.655  11.179
52503W        W20908   5.184   8.422  13.732
52504W        W20909  18.458  40.378  11.131
52505W        W20910   8.462  15.163   4.953
52506W        W20911   1.779  26.704   0.039
52507W        W20912   9.523  40.399  10.623
52508W        W20913  25.802  13.758  12.553
52509W        W20914  18.163  18.207  14.346
52510W        W20915   8.449  16.387   3.996
52511W        W20916   4.849  13.189  12.812
52512W        W20917  35.349  20.629  14.450
52513W        W20918  22.746  34.150   0.759
52514W        W20919  12.154  20.268  11.684
52515W        W20920   2.754  16.881   3.281
52516W        W20921  27.197  41.026  14.847
52517W        W20922  25.688  22.318   1.292
52518W        W20923  26.565  26.383  13.077
52519W        W20924  39.877  23.175  13.887
52520W        W20925  23.210  31.514   3.170
52521W        W20926  28.395  31.743  11.050
52522W        W20927  10.790  16.732  10.979
52523W        W20928   9.235  27.870  12.352
52524W        W20929  21.667   3.165   0.804
52525W        W20930  27.762  39.074   2.939
52526W        W20931   0.961  42.752   5.153
52527W        W20932  14.351  23.255  13.615
52528W        W20933  44.358  15.131   0.770
52529W        W20934   2.855  29.504   3.253
52530W        W20935  15.320   0.758  14.230
52531W        W20936   0.357  10.770   3.108
52532W        W20937  17.865   1.945   4.602
52533W        W20938  11.926  38.907   5.231
52534W        W20939  28.613  19.177   2.700
52535W        W20940  42.334  18.719   1.346
52536W        W20941  44.530  23.848   1.291
52537W        W20942  34.348  25.091  11.990
52538W        W20943   7.827  35.286   1.140
52539W        W20944   5.367  22.711  10.503
52540W        W20945  32.382  18.367  14.070
52541W        W20946  26.141  35.949   2.227
52542W        W20947  17.629   9.672  14.880
52543W        W20948  22.839   8.767  11.906
52544W        W20949   0.975  17.554   1.402
52545W        W20950  13.680  39.920  13.243
52546W        W20951   0.839  21.288  11.654
52547W        W20952   8.135  23.543   1.362
52548W        W20953  26.425  19.118  10.849
52549W        W20954  33.576  20.702   4.341
52550W        W20955  17.782   4.224   2.867
52551W        W20956  12.697  18.961   4.206
52552W        W20957  38.975  38.648   0.281
52553W        W20958  30.837  39.177   1.793
52554W        W20959   2.908  23.427   3.055
52555W        W20960  43.341   3.426  13.079
52556W        W20961  33.149  20.586  14.732
52557W        W20962  32.173  29.998  11.387
52558W        W20963  40.417   5.758   3.356
52559W        W20964  42.734  24.970  12.978
52560W        W20965  26.977   8.602  14.018
52561W        W20966  29.047  21.033  14.780
52562W        W20967   0.224  30.105   1.184
52563W        W20968  20.285  42.951   4.193
52564W        W20969  43.317  14.161  13.043
52565W        W20970  39.850  15.292   3.572
52566W        W20971  36.621  13.904  11.207
52567W        W20972  19.577  20.707   3.586
52568W        W20973  17.290  33.270  12.185
52569W        W20974   1.158   7.449  12.870
52570W        W20975   3.948  42.302  10.643
52571W        W20976  28.067   1.870   0.543
52572W        W20977  15.554   7.210  12.358
52573W        W20978   1.717  21.191  13.536
52574W        W20979  37.051  17.761   2.606
52575W        W20980   4.489   8.807   1.243
52576W        W20981  44.219  31.337   1.933
52577W        W20982  15.581  33.633   4.594
52578W        W20983  16.213   3.896  13.272
52579W        W20984  40.205   5.917   2.899
52580W        W20985  13.848   8.521  12.357
52581W        W20986  29.127   2.798   2.789
52582W        W20987   6.979  38.686   3.224
52583W        W20988  44.402   2.405  12.897
52584W        W20989   4.054  40.261  14.864
52585W        W20990  36.149  12.800   0.733
52586W        W20991   3.910   3.760   4.740
52587W        W20992  15.276  34.568   0.856
52588W        W20993  38.098  36.168   0.033
52589W        W20994   1.807   3.411   0.142
52590W        W20995  39.459   4.389  14.605
52591W        W20996   4.727  15.400  10.953
52592W        W20997  33.922   9.220   1.751
52593W        W20998  28.643   6.656   3.817
52594W        W20999  21.810  35.522  13.901
52595W        W21000   2.810  35.847  11.318
52596W        W21001  39.809  33.463   4.778
52597W        W21002  24.098   0.526   0.913
52598W        W21003   9.237  40.579   3.312
52599W        W21004   0.786  31.071   4.647
52600W        W21005  30.373  37.899   0.699
52601W        W21006  41.955  31.506  14.554
52602W        W21007  26.403  21.024  14.665
52603W        W21008   3.477  12.256   3.124
52604W        W21009  13.724  28.586  12.098
52605W        W21010  37.509   6.049   2.739
52606W        W21011  15.720  24.981   0.258
52607W        W21012  21.134  18.997   2.160
52608W        W21013  40.373   5.701   4.348
52609W        W21014   5.154  24.671  10.731
52610W        W21015  24.661  37.634   1.511
52611W        W21016  29.087  17.208   0.817
52612W        W21017   2.634  12.833   3.759
52613W        W21018  40.766  23.940  11.010
52614W        W21019  42.079   4.839   3.193
52615W        W21020  17.618  26.657   2.679
52616W        W21021  36.508  37.696   5.087
52617W        W21022  12.842  21.085  14.666
52618W        W21023  18.249  22.113  11.981
52619W        W21024  20.738   2.268   2.114
52620W        W21025  31.482  27.499   2.668
52621W        W21026  28.074  23.097  10.788
52622W        W21027   2.007  24.474   3.028
52623W        W21028  28.630  27.087   2.297
52624W        W21029  21.261  20.675   3.207
52625W        W21030  11.070  17.374  10.243
52626W        W21031  41.893  12.489  12.121
52627W        W21032  26.016  41.575   0.278
52628W        W21033  17.074  42.866  11.964
52629W        W21034  42.186  12.376  11.513
52630W        W21035  11.045  25.500   3.976
52631W        W21036  26.115   0.354   3.669
52632W        W21037   4.495  22.061   1.805
52633W        W21038  42.618  35.322   1.717
52634W        W21039  18.462  18.715  11.050
52635W        W21040  40.897  11.583   0.077
52636W        W21041   0.034  39.980  12.840
52637W        W21042   1.897   7.687  12.085
52638W        W21043  43.523  35.394  13.789
52639W        W21044  43.620  40.225  10.689
52640W        W21045  18.188  44.288  11.259
52641W        W21046  12.696  33.030   1.261
52642W        W21047  28.831  25.494   1.027
52643W        W21048  29.087  42.740   4.667
52644W        W21049  15.567  14.184  12.641
52645W        W21050  39.288  37.378   2.276
52646W        W21051   6.019  11.181   1.543
52647W        W21052  38.954  17.849  13.392
52648W        W21053  39.608  14.194  13.872
52649W        W21054  15.226  19.462   2.659
52650W        W21055   4.421  15.823  14.829
52651W        W21056  20.618  39.295   1.078
52652W        W21057   9.673   4.327   3.401
52653W        W21058   0.533   1.925   0.710
52654W        W21059  43.215  33.376   2.665
52655W        W21060  44.172  42.612   3.233
52656W        W21061   1.835  22.047   4.487
52657W        W21062  25.493   5.163   2.254
52658W        W21063  35.806  40.070  13.592
52659W        W21064  44.979  31.073  12.464
52660W        W21065   1.843  27.513   2.226
52661W        W21066   6.359  10.137   4.075
52662W        W21067   1.269  12.440   2.895
52663W        W21068  44.511  24.790   1.892
52664W        W21069  23.706  37.310   1.330
52665W        W21070  12.064   5.129   4.942
52666W        W21071  19.956  21.511   1.080
52667W        W21072   4.051  23.181  14.840
52668W        W21073   1.683  33.442   0.840
52669W        W21074  28.788  10.071   1.844
52670W        W21075  24.851  39.018  10.732
52671W        W21076  34.752   4.061  11.494
52672W        W21077  29.015  43.683   1.340
52673W        W21078  34.034  43.452  10.514
52674W        W21079  34.491  18.455   3.295
52675W        W21080  11.777   2.683   0.561
52676W        W21081  37.593   5.407  14.165
52677W        W21082  22.521  40.206   1.919
52678W        W21083  19.800  25.749   0.802
52679W        W21084  28.465  40.698   1.887
52680W        W21085  16.631  41.298   3.134
52681W        W21086  21.199   0.348  12.317
52682W        W21087  37.492   0.990  12.051
52683W        W21088   5.263   2.264  11.390
52684W        W21089  42.279  21.227  14.833
52685W        W21090  25.076  13.112   1.590
52686W        W21091  39.829  29.864   4.210
52687W        W21092   7.720  34.317  14.794
52688W        W21093  35.538   1.757  13.419
52689W        W21094  15.588  11.130   0.517
52690W        W21095  25.685  16.285  10.387
52691W        W21096  26.638  20.603  10.445
52692W        W21097  24.580  10.219  12.612
52693W        W21098  17.171  38.917   1.704
52694W        W21099  30.581  20.276   3.608
52695W        W21100  38.004  20.169   0.287
52696W        W21101  11.596   7.714  13.885
52697W        W21102  30.131  13.193   3.368
52698W        W21103  10.702  42.263  11.577
52699W        W21104  23.675  33.099   1.955
52700W        W21105  31.425  16.719   2.779
52701W        W21106  21.219  30.781  11.117
52702W        W21107   2.536  41.885   4.290
52703W        W21108  44.758  43.939  10.813
52704W        W21109  40.574  12.274  13.880
52705W        W21110  40.118  16.157   2.126
52706W        W21111   7.409  23.602  12.212
52707W        W21112  37.126   4.903   4.066
52708W        W21113  18.462  33.621  14.355
52709W        W21114  35.905  19.344   2.128
52710W        W21115  38.884  18.392  12.108
52711W        W21116  33.909  41.216  12.829
52712W        W21117   0.235  23.013   2.169
52713W        W21118   6.195  39.393  10.792
52714W        W21119  41.100  15.166   5.023
52715W        W21120   7.575   6.847   3.466
52716W        W21121  33.476  13.765  10.987
52717W        W21122  24.477  13.159  14.006
52718W        W21123  39.528  23.529  10.815
52719W        W21124  10.100  29.085  12.457
52720W        W21125  30.477  25.332   1.289
52721W        W21126  21.698  20.488  13.495
52722W        W21127  27.929  35.400  11.538
52723W        W21128  40.421  12.014  10.678
52724W        W21129  42.318   8.330  12.413
52725W        W21130  28.097  37.975  10.708
52726W        W21131  26.814   2.133   1.998
52727W        W21132  19.818  31.242   0.216
52728W        W21133  14.285  13.206   0.368
52729W        W21134  41.825  13.442  13.167
52730W        W21135  41.818  18.854   1.893
52731W        W21136  23.233  42.966   1.793
52732W        W21137  21.051   8.708  14.210
52733W        W21138   6.855  30.632   4.998
52734W        W21139  23.809   0.003   4.516
52735W        W21140  23.931  15.730  11.654
52736W        W21141  33.007   4.860  14.288
52737W        W21142  32.199  44.440  11.427
52738W        W21143   9.753  37.148  13.417
52739W        W21144   5.883  29.841   5.080
52740W        W21145  39.296   4.963   4.422
52741W        W21146   2.251  39.731  14.783
52742W        W21147  34.936   8.749  11.616
52743W        W21148  44.382   3.234   2.220
52744W        W21149  15.736  22.686   4.592
52745W        W21150   4.431   2.545   3.197
52746W        W21151  27.198   7.381  14.621
52747W        W21152  18.737  35.343   2.263
52748W        W21153  26.000   0.842  12.535
52749W        W21154   3.494  41.916   2.855
52750W        W21155  29.410  40.199  12.699
52751W        W21156  21.749  27.226  12.108
52752W        W21157   0.512   7.659  14.135
52753W        W21158  22.004  35.722   1.288
52754W        W21159  26.394  14.779  14.467
52755W        W21160  23.470  35.011   0.328
52756W        W21161  44.541  35.521  13.299
52757W        W21162  16.549   1.824  10.381
52758W        W21163   2.449   4.355   3.604
52759W        W21164   2.305  23.619   3.828
52760W        W21165  14.061  28.202  13.831
52761W        W21166  29.473  37.331   3.250
52762W        W21167  34.119  22.546  10.377
52763W        W21168  12.138  40.766   0.767
52764W        W21169   8.858  14.118   1.330
52765W        W21170   1.709  41.492   2.111
52766W        W21171  20.743  41.866   1.528
52767W        W21172  26.903  24.639   4.845
52768W        W21173  33.851  27.988  11.903
52769W        W21174   7.768  20.355  14.609
52770W        W21175  38.432  26.093  14.357
52771W        W21176  44.700  10.578  13.945
52772W        W21177  12.297   8.178   0.624
52773W        W21178  43.927   8.118   3.236
52774W        W21179  42.499   8.577   3.347
52775W        W21180   1.450   1.464   4.565
52776W        W21181  33.557  30.939  14.327
52777W        W21182   1.475   3.319  11.115
52778W        W21183  21.648   5.590   1.907
52779W        W21184  21.739   2.455  13.306
52780W        W21185  41.300  20.584  10.711
52781W        W21186  15.342  39.317   1.872
52782W        W21187  20.629  36.518   0.848
52783W        W21188  12.608  29.647  10.707
52784W        W21189  13.308  33.191   0.946
52785W        W21190  16.590  27.810  12.493
52786W        W21191  11.255  34.503  13.379
52787W        W21192  19.655  35.117   0.242
52788W        W21193  33.644  30.080   1.369
52789W        W21194  37.822  43.307  14.325
52790W        W21195  40.617  20.235  11.488
52791W        W21196  19.432  32.464   4.058
52792W        W21197  24.793  44.590  12.139
52793W        W21198   1.911   8.408   0.340
52794W        W21199  42.554  28.643  11.561
52795W        W21200   4.177  17.856  13.378
52796W        W21201  38.758  34.203   3.327
52797W        W21202   3.676  14.845   3.539
52798W        W21203  32.120  30.261   3.805
52799W        W21204   4.223  41.384   2.825
52800W        W21205  44.058  25.529   1.893
52801W        W21206  31.993  34.725  14.284
52802W        W21207   2.331  40.081   3.356
52803W        W21208  35.008  24.593  10.768
52804W        W21209   9.287  35.041   4.241
52805W        W21210  32.988  29.797   1.729
52806W        W21211  43.902  26.623  11.241
52807W        W21212   8.513  44.332   4.308
52808W        W21213  14.245  14.173   3.237
52809W        W21214  23.731  30.692   0.531
52810W        W21215   9.878  41.376  14.570
52811W        W21216  36.506  22.290   0.761
52812W        W21217  24.980   5.469   0.487
52813W        W21218  44.012   3.361   2.760
52814W        W21219  26.710  42.828  11.023
52815W        W21220  19.757  25.947   2.750
52816W        W21221   3.484   5.769  13.639
52817W        W21222  35.166  10.377   4.136
52818W        W21223  42.602  14.240   4.395
52819W        W21224  11.185  36.880  11.114
52820W        W21225   6.077  34.556  12.602
52821W        W21226  12.374  14.697   0.433
52822W        W21227  10.051  12.394   1.233
52823W        W21228  23.246  41.475  12.878
52824W        W21229  35.028  16.472  14.428
52825W        W21230   0.388  16.324   2.460
52826W        W21231  25.056  21.223  11.155
52827W        W21232  35.461   7.520   0.838
52828W        W21233  36.366  11.980  10.260
52829W        W21234  10.029   1.755  10.059
52830W        W21235  27.410  14.158   3.693
52831W        W21236   9.384  44.274   2.920
52832W        W21237  30.138  44.305  12.626
52833W        W21238  33.722  36.226   3.466
52834W        W21239  35.975   6.092  10.356
52835W        W21240  32.560  37.978  14.818
52836W        W21241  38.450  17.161  12.348
52837W        W21242   5.824  22.972   2.240
52838W        W21243  41.280  34.678  14.437
52839W        W21244   5.215  39.244   4.168
52840W        W21245  15.166  37.333  14.488
52841W        W21246  31.663  17.523   2.388
52842W        W21247   9.935  27.602   3.033
52843W        W21248  28.979  11.392   3.292
52844W        W21249  38.057   5.331   5.014
52845W        W21250  35.220   2.170  14.207
52846W        W21251   9.553  15.200  14.515
52847W        W21252   9.812  26.551  10.484
52848W        W21253  36.909  29.892   2.691
52849W        W21254   0.396  34.663  11.623
52850W        W21255  37.020  43.006  14.542
52851W        W21256   0.183   2.496   1.802
52852W        W21257  35.076  41.993   0.743
52853W        W21258   7.201  32.085  12.566
52854W        W21259  27.881   4.065  12.756
52855W        W21260  43.794  22.155   1.651
52856W        W21261  11.342   4.969   0.314
52857W        W21262  38.520  33.642   0.798
52858W        W21263  23.506  33.721  12.980
52859W        W21264  28.683   9.723   0.753
52860W        W21265  14.823  17.843  13.855
52861W        W21266  10.770   1.232  13.862
52862W        W21267  30.101   3.220   4.471
52863W        W21268   1.165  28.587  14.056
52864W        W21269   2.354  30.166   2.298
52865W        W21270  14.175  29.805  13.322
52866W        W21271  18.036  30.847  13.389
52867W        W21272   0.053   1.992  14.768
52868W        W21273  17.098  16.813  13.761
52869W        W21274   8.442  43.243  12.144
52870W        W21275  15.844  31.000   2.831
52871W        W21276   9.602  35.800   2.784
52872W        W21277  39.942   5.558   3.249
52873W        W21278  38.396  20.706  12.937
52874W        W21279  20.182  24.217   4.413
52875W        W21280   6.148   1.400  12.565
52876W        W21281  18.678  13.231  14.030
52877W        W21282  35.392  31.164  14.892
52878W        W21283   9.295  28.606   4.093
52879W        W21284  44.416   7.026  10.349
52880W        W21285  29.888  38.850  12.462
52881W        W21286  15.330   5.789  12.863
52882W        W21287  30.793  44.878   3.526
52883W        W21288  36.180  39.018  14.772
52884W        W21289  35.362  30.637   4.536
52885W        W21290  42.503  21.531  11.607
52886W        W21291  32.937   6.292  13.093
52887W        W21292  34.202  30.457  13.315
52888W        W21293  21.306  36.055  13.085
52889W        W21294  12.288  28.143  10.297
52890W        W21295  32.696  44.307  11.526
52891W        W21296  26.482  25.860  13.091
52892W        W21297  26.068   1.478  11.094
52893W        W21298  23.540  44.365   1.965
52894W        W21299  31.710  13.634  11.290
52895W        W21300   7.461  13.194  11.184
52896W        W21301  23.215  26.519   1.366
52897W        W21302  13.098   7.664   4.089
52898W        W21303  30.879  14.549   3.293
52899W        W21304  38.876   0.266  11.108
52900W        W21305  39.555  12.302  10.549
52901W        W21306  18.511  25.600   4.546
52902W        W21307   3.578  24.553   1.104
52903W        W21308  13.724  23.951  13.926
52904W        W21309  34.330  18.104   0.390
52905W        W21310  16.087  33.341  12.880
52906W        W21311   8.787  16.429   3.604
52907W        W21312  40.361   5.764  11.442
52908W        W21313  29.703  12.497   0.907
52909W        W21314  14.734   8.350   0.936
52910W        W21315  30.546  39.998   1.948
52911W        W21316  22.724  27.978   1.320
52912W        W21317  12.831  36.465  14.383
52913W        W21318   4.705  41.922  14.491
52914W        W21319  40.052   0.361   1.254
52915W        W21320  41.075  13.551  14.386
52916W        W21321  22.712   8.879  14.474
52917W        W21322  36.523  11.848  13.395
52918W        W21323   1.293  43.923  14.443
52919W        W21324  23.067  35.871   2.183
52920W        W21325  39.751  19.406   4.315
52921W        W21326  15.502  20.566   4.200
52922W        W21327  19.291  10.561   4.635
52923W        W21328   3.687  17.356  14.855
52924W        W21329   3.423  21.114  10.678
52925W        W21330  14.803   6.859   0.939
52926W        W21331   6.947  35.278  14.379
52927W        W21332   3.807  18.014  11.239
52928W        W21333  17.402  29.675  13.612
52929W        W21334  16.579  19.164   4.256
52930W        W21335  34.986  18.815   3.989
52931W        W21336  25.246   0.789   1.335
52932W        W21337  39.404  42.898   0.244
52933W        W21338  43.442  34.442   0.002
52934W        W21339  25.755   0.403  11.644
52935W        W21340  38.317   8.864   3.779
52936W        W21341  10.350   5.471   2.853
52937W        W21342  22.515  39.335  10.686
52938W        W21343  30.179  29.545   1.831
52939W        W21344  25.180   9.869   0.476
52940W        W21345  27.739  36.337   0.200
52941W        W21346  39.327  12.655  13.340
52942W        W21347  28.013   1.629  12.878
52943W        W21348  27.591  21.964  13.858
52944W        W21349  31.288  27.259  10.779
52945W        W21350   5.663  18.730   4.580
52946W        W21351  12.653  29.910  14.985
52947W        W21352  24.924  26.081   2.083
52948W        W21353   1.024   6.758   4.241
52949W        W21354  31.827  38.296  11.309
52950W        W21355  33.138  40.031   2.186
52951W        W21356  26.363  24.107  13.879
52952W        W21357   0.387   4.784  12.442
52953W        W21358  18.884  28.460   2.395
52954W        W21359  33.134  25.933   1.556
52955W        W21360  22.459  35.319   2.738
52956W        W21361  42.318  23.137  13.405
52957W        W21362   2.793   8.601  13.312
52958W        W21363  12.865  16.145  13.011
52959W        W21364  21.010  25.005  10.264
52960W        W21365  34.982  32.406  13.357
52961W        W21366  32.547  13.457   2.385
52962W        W21367  13.994  10.224  11.075
52963W        W21368   7.309  21.840   4.682
52964W        W21369  18.783  21.271   3.207
52965W        W21370  34.502  44.752   2.813
52966W        W21371  42.470  16.402  11.148
52967W        W21372  40.493  40.929  13.593
52968W        W21373  39.998  43.472   3.669
52969W        W21374  31.097  44.499  13.901
52970W        W21375  20.174  18.140   4.099
52971W        W21376  11.127  23.604   0.416
52972W        W21377  34.458   7.850  13.902
52973W        W21378  30.650  42.625   4.235
52974W        W21379  26.085   5.127  11.049
52975W        W21380  40.051  43.958   4.638
52976W        W21381   3.379  40.876   0.290
52977W        W21382  14.150  44.445  13.440
52978W        W21383  39.136   8.441  11.054
52979W        W21384  33.823  33.634  14.015
52980W        W21385  37.161  26.130   1.424
52981W        W21386  28.206  40.312   0.462
52982W        W21387  30.974  19.081  12.275
52983W        W21388  20.777  13.669  14.458
52984W        W21389  18.059  39.113  12.454
52985W        W21390  20.820   3.902  13.097
52986W        W21391   9.753  43.461   2.850
52987W        W21392  13.971  40.271  11.363
52988W        W21393  44.289  13.441  13.454
52989W        W21394   5.001  29.211  12.486
52990W        W21395  40.524  23.147   3.845
52991W        W21396  26.615  39.750   3.700
52992W        W21397  38.861  21.270   2.806
52993W        W21398  13.373  21.991   3.059
52994W        W21399  43.904  29.010   1.806
52995W        W21400  15.468   1.830   2.200
52996W        W21401   3.630  25.549  12.458
52997W        W21402  30.621  19.555  13.886
52998W        W21403  44.402  35.946  13.536
52999W        W21404   7.817   1.583   2.818
53000W        W21405  28.580   9.893   3.062
53001W        W21406  19.144  42.537   1.799
53002W        W21407  15.227   6.853  13.920
53003W        W21408  43.885  29.741  14.751
53004W        W21409   8.894   9.707   4.608
53005W        W21410   2.224  28.183  12.834
53006W        W21411  21.351  15.174   3.636
53007W        W21412  40.458  31.975  11.201
53008W        W21413  19.250  29.664  13.351
53009W        W21414  18.653  44.317   3.094
53010W        W21415  10.376  22.210   1.191
53011W        W21416  30.647   8.572  13.507
53012W        W21417  22.117  27.130   4.173
53013W        W21418  15.178  28.107  12.384
53014W        W21419  15.933  14.157   4.105
53015W        W21420  20.026  39.717  11.588
53016W        W21421  15.604  36.801   3.653
53017W        W21422  14.622  30.679  11.595
53018W        W21423  27.719   4.793  13.069
53019W        W21424   1.869  20.141  12.545
53020W        W21425  14.824  41.178   0.754
53021W        W21426   1.748  32.454   3.752
53022W        W21427  31.369  41.463   2.258
53023W        W21428  43.066  21.959  11.267
53024W        W21429   1.825  10.848   2.164
53025W        W21430   4.417  19.155   4.445
53026W        W21431   5.649  34.115   0.267
53027W        W21432  41.912  34.522   3.453
53028W        W21433  29.606   8.967  14.219
53029W        W21434  17.239  22.235   2.253
53030W        W21435   5.232  26.757  11.179
53031W        W21436  42.436  15.635  10.687
53032W        W21437  31.219  21.693   1.375
53033W        W21438  44.929  20.747  11.498
53034W        W21439  32.421  13.868   1.747
53035W        W21440  43.502  36.914   0.259
53036W        W21441  13.578  15.639   1.615
53037W        W21442  32.349  42.994   3.729
53038W        W21443  30.213   4.491  11.170
53039W        W21444  18.220  14.569  13.046
53040W        W21445   3.369   3.014   0.427
53041W        W21446  15.325  11.764   1.965
53042W        W21447   4.085  20.693  11.079
53043W        W21448   5.974  34.105  12.848
53044W        W21449  37.980  11.799  11.765
53045W        W21450  37.609  43.393   1.457
53046W        W21451   8.573  26.727  11.176
53047W        W21452  16.273   6.892  12.347
53048W        W21453  11.770  27.078   2.864
53049W        W21454  38.301   3.809   2.870
53050W        W21455  31.746  21.043  12.088
53051W        W21456   9.845  35.757  12.966
53052W        W21457   5.243  27.204   4.646
53053W        W21458  30.506  21.909  13.920
53054W        W21459  39.573  27.875   4.498
53055W        W21460  30.933  17.565  11.471
53056W        W21461  37.609   7.211  12.975
53057W        W21462   4.737  22.398  13.550
53058W        W21463   3.745  12.435   1.431
53059W        W21464  25.295   6.242   1.419
53060W        W21465  20.394  17.643   4.060
53061W        W21466  10.231   7.267   3.357
53062W        W21467  28.404  27.110   0.027
53063W        W21468  23.461  32.534   4.539
53064W        W21469  22.725  39.051   4.856
53065W        W21470  13.804  40.363   0.125
53066W        W21471  41.248  12.168  11.464
53067W        W21472   7.861   7.842   1.359
53068W        W21473   8.805  32.794   1.778
53069W        W21474  23.711   3.197  11.084
53070W        W21475  44.053   6.888   1.964
53071W        W21476  37.482  21.973  11.140
53072W        W21477  19.897  36.949   0.009
53073W        W21478  11.646   0.765  12.364
53074W        W21479  29.874  38.792   3.261
53075W        W21480  30.859  35.617  13.412
53076W        W21481   2.510  12.595   0.513
53077W        W21482  30.608   2.941  10.650
53078W        W21483  40.476  24.969   1.442
53079W        W21484  19.783  15.064   0.736
53080W        W21485  28.881  26.782   0.919
53081W        W21486  28.313  34.579   3.114
53082W        W21487   9.711   7.815   4.806
53083W        W21488  31.979  15.731   3.651
53084W        W21489  39.928  39.940  12.542
53085W        W21490  38.179  17.285  11.907
53086W        W21491  43.692   8.876   3.528
53087W        W21492  43.532  19.100  11.020
53088W        W21493   2.382  32.085   2.339
53089W        W21494  44.820  17.323  12.973
53090W        W21495  13.829  18.055  14.536
53091W        W21496  21.220  41.314   3.193
53092W        W21497   7.832  32.547   3.072
53093W        W21498  21.292  29.489  14.481
53094W        W21499  39.946  43.471  13.445
53095W        W21500   7.906  19.736  14.018
53096W        W21501  41.441  17.736   3.505
53097W        W21502  36.922  40.404  12.908
53098W        W21503  44.846  14.606  14.017
53099W        W21504  10.754   3.370   5.120
53100W        W21505  44.460  34.102  14.831
53101W        W21506  27.939   2.794   4.703
53102W        W21507  26.201  32.157   2.375
53103W        W21508  28.392  23.696  11.581
53104W        W21509  34.953  25.832  11.981
53105W        W21510  34.824  12.095   4.062
53106W        W21511   4.173  25.521  11.661
53107W        W21512  39.612  41.862   3.099
53108W        W21513   8.195  25.739  11.558
53109W        W21514  43.397  41.887   4.598
53110W        W21515   3.353  12.394   0.837
53111W        W21516  41.544   8.702  14.888
53112W        W21517   3.257  18.590  11.227
53113W        W21518  16.626   5.253   1.740
53114W        W21519  15.141  30.642   4.295
53115W        W21520  44.157   4.228  11.612
53116W        W21521  35.543  40.402   1.221
53117W        W21522  30.544  36.332   3.779
53118W        W21523  40.915  42.564  14.742
53119W        W21524  39.383  44.545   0.874
53120W        W21525  29.114  11.928  13.019
53121W        W21526  44.490  36.064   1.280
53122W        W21527  32.602  10.416   3.222
53123W        W21528  30.884  30.816   5.077
53124W        W21529  37.295  22.241  13.078
53125W        W21530  25.042  34.825   0.487
53126W        W21531  37.866  30.988   2.154
53127W        W21532  28.600  15.365  11.576
53128W        W21533  31.954  42.576  12.521
53129W        W21534  40.195  19.218  13.307
53130W        W21535   4.791  18.549   0.260
53131W        W21536  14.765  31.514   3.242
53132W        W21537  24.949   8.658  14.967
53133W        W21538  12.188  35.180  12.401
53134W        W21539  24.366  38.928  10.556
53135W        W21540   7.301   4.176  14.827
53136W        W21541  36.556  42.578  11.817
53137W        W21542  30.576  14.701   3.694
53138W        W21543   4.418  25.491   1.834
53139W        W21544  21.238  10.273   3.090
53140W        W21545  11.119  27.105   3.714
53141W        W21546  43.878  41.752  14.577
53142W        W21547  31.629  11.771   0.897
53143W        W21548  32.468  30.547   4.496
53144W        W21549  22.785   1.963   1.899
53145W        W21550  23.561  14.988   0.322
53146W        W21551  32.683  27.924  10.980
53147W        W21552  33.003  18.184   3.606
53148W        W21553  39.346  38.378  12.893
53149W        W21554  15.111  37.902   1.277
53150W        W21555   5.638  38.640  13.013
53151W        W21556  41.958  37.391   1.480
53152W        W21557  10.771  17.399   2.129
53153W        W21558  27.026   6.491  14.870
53154W        W21559  41.036  44.526  13.039
53155W        W21560  38.073  15.823  11.943
53156W        W21561  39.158   2.719   1.946
53157W        W21562  18.624  41.475   4.145
53158W        W21563  41.743   6.751  12.463
53159W        W21564  33.384  19.494   0.972
53160W        W21565  37.992  44.317   3.031
53161W        W21566  11.573   2.938   3.294
53162W        W21567  32.892  39.239  10.471
53163W        W21568  39.377  10.136  11.007
53164W        W21569  38.387  10.873   1.958
53165W        W21570  13.100  18.770  11.436
53166W        W21571  42.512  18.288  11.979
53167W        W21572   5.896  29.636   1.457
53168W        W21573  24.678   7.270   2.047
53169W        W21574   0.413  25.754  11.068
53170W        W21575  18.728  16.825   3.343
53171W        W21576  15.097  18.754   4.537
53172W        W21577  28.030  25.966  14.274
53173W        W21578  10.845  42.883  10.151
53174W        W21579  27.152  32.596  11.993
53175W        W21580  35.815   1.247  14.083
53176W        W21581   0.911  26.321  14.784
53177W        W21582   9.203  25.364  14.975
53178W        W21583  38.835   6.670  12.898
53179W        W21584  25.449  18.095   5.042
53180W        W21585  16.983  43.314  11.630
53181W        W21586  21.780  37.946   1.876
53182W        W21587  16.831  17.730  12.384
53183W        W21588   0.772   8.167   4.634
53184W        W21589   9.665  43.922   1.399
53185W        W21590  37.259  10.903   0.832
53186W        W21591  14.112   8.794   3.463
53187W        W21592  20.616  24.206   2.196
53188W        W21593  22.604   8.705   9.878
53189W        W21594  44.075   7.833  11.103
53190W        W21595  19.819  28.464   3.298
53191W        W21596  39.287  15.618   2.740
53192W        W21597   2.789  25.654  11.361
53193W        W21598  30.965   3.216   1.218
53194W        W21599  18.534  19.319   0.021
53195W        W21600  40.629  13.261  14.307
53196W        W21601   0.617  44.996   1.374
53197W        W21602  32.175  25.548   4.555
53198W        W21603   8.652  14.368   3.496
53199W        W21604  37.846  35.084  12.972
53200W        W21605   1.359  33.536  14.512
53201W        W21606  40.414  41.422   0.834
53202W        W21607  29.883  44.462  14.791
53203W        W21608  19.244   2.372  11.576
53204W        W21609   3.375  39.796   0.477
53205W        W21610  38.811  17.863   4.075
53206W        W21611  39.363   0.313  13.523
53207W        W21612  23.766  26.058   3.307
53208W        W21613   4.156  38.549  10.994
53209W        W21614  17.353  29.994   0.978
53210W        W21615  25.242  21.542   0.960
53211W        W21616   4.430  12.691   2.879
53212W        W21617  31.591   7.478  12.397
53213W        W21618  26.961  21.263  13.395
53214W        W21619  35.794  38.098  12.029
53215W        W21620  16.972  25.261   1.695
53216W        W21621  19.942   4.749  11.827
53217W        W21622  39.363  24.711  11.141
53218W        W21623  42.375  23.840   0.694
53219W        W21624  31.553  40.295   0.561
53220W        W21625  42.005  35.574   4.161
53221W        W21626  14.779  36.510   1.496
53222W        W21627  28.211  26.338   0.249
53223W        W21628   3.332  16.984  14.787
53224W        W21629  23.081  23.109   3.647
53225W        W21630  43.963  15.974  14.317
53226W        W21631  11.820  37.465  12.963
53227W        W21632  36.631  28.243  14.320
53228W        W21633   7.738  13.608   2.830
53229W        W21634  27.796  10.987  11.047
53230W        W21635  36.074  36.546  13.470
53231W        W21636  26.740  29.881   2.065
53232W        W21637   9.860  26.225   3.342
53233W        W21638  23.432   5.661   3.717
53234W        W21639  19.165  11.947   3.132
53235W        W21640  14.507   1.921  11.958
53236W        W21641  37.396   9.497   2.991
53237W        W21642  18.321   6.524   0.506
53238W        W21643  27.077   2.445  13.667
53239W        W21644   0.250   3.537   3.284
53240W        W21645   1.242  26.453  13.214
53241W        W21646  11.866   4.720   2.532
53242W        W21647   1.504  15.831   0.307
53243W        W21648  26.470   9.826   2.819
53244W        W21649  22.408  28.460   4.558
53245W        W21650  39.830  43.268  14.409
53246W        W21651  35.453   2.243  12.462
53247W        W21652  43.268  18.810   0.963
53248W        W21653  39.881  44.249  10.684
53249W        W21654   8.735  25.679   5.078
53250W        W21655  18.101  40.524   1.740
53251W        W21656  18.989  33.974   0.717
53252W        W21657  41.862   3.527   4.163
53253W        W21658   1.813  18.923   0.234
53254W        W21659  15.379   4.971  12.118
53255W        W21660  21.267   5.399   0.541
53256W        W21661  23.927  11.233  11.189
53257W        W21662  44.893  27.071  14.026
53258W        W21663  19.500  33.471   1.310
53259W        W21664  22.217  44.707   4.578
53260W        W21665   1.937  21.196  14.945
53261W        W21666   6.439   7.327  13.859
53262W        W21667  12.259  12.101  10.620
53263W        W21668  41.489   9.845   4.135
53264W        W21669  37.973  19.492  13.981
53265W        W21670  19.784  40.654  10.980
53266W        W21671  33.363  16.729  12.097
53267W        W21672  18.128  40.003   1.465
53268W        W21673  13.713  22.513   1.322
53269W        W21674  29.244  27.584  10.645
53270W        W21675   3.078  27.719   2.940
53271W        W21676  35.058  12.349   2.276
53272W        W21677   2.709  15.258  12.705
53273W        W21678  43.923   0.676   3.312
53274W        W21679  10.578   9.946   1.845
53275W        W21680  42.802   6.411  12.484
53276W        W21681  28.462  24.992  11.581
53277W        W21682  25.021  18.008   2.809
53278W        W21683  18.405   2.396   2.352
53279W        W21684  17.361  20.310   2.555
53280W        W21685  27.538  44.910   2.815
53281W        W21686  15.031  21.409  12.493
53282W        W21687  31.093  12.187   1.792
53283W        W21688  24.730  20.173  13.861
53284W        W21689   4.708  17.692   1.993
53285W        W21690  17.257  38.482  10.728
53286W        W21691   6.886  39.973  11.331
53287W        W21692  41.750  41.247  12.546
53288W        W21693   6.188  39.494   4.590
53289W        W21694  13.899  26.866   1.962
53290W        W21695  25.679  24.561   2.402
53291W        W21696  39.251  21.272   9.894
53292W        W21697  10.368  16.148   1.005
53293W        W21698  44.972  25.566  13.881
53294W        W21699  23.262  28.620  12.126
53295W        W21700  44.766  11.255   2.286
53296W        W21701  16.678  12.792   3.128
53297W        W21702   1.955   4.710  11.141
53298W        W21703  27.803  31.642   1.708
53299W        W21704  24.105  22.773  12.412
53300W        W21705   6.189  15.776   3.685
53301W        W21706  43.741  31.646  11.475
53302W        W21707  29.145  20.610   1.239
53303W        W21708  40.562  25.529  13.989
53304W        W21709   0.982   4.829  12.837
53305W        W21710   2.484   4.885   4.987
53306W        W21711  21.298  10.656  13.960
53307W        W21712  11.441  39.913  14.464
53308W        W21713   2.454  29.472   0.299
53309W        W21714  35.536   0.860  14.491
53310W        W21715   6.855   7.418   4.042
53311W        W21716  14.824  17.326  12.584
53312W        W21717  28.124   4.911   4.234
53313W        W21718  38.658  40.339   3.727
53314W        W21719  10.169  35.430   0.735
53315W        W21720  24.662  44.987   2.873
53316W        W21721  32.831  28.495  12.735
53317W        W21722  12.800   9.200   0.351
53318W        W21723  15.911  38.086   1.952
53319W        W21724  23.788  19.839  14.905
53320W        W21725  29.971  32.003   1.111
53321W        W21726  19.639  33.167  12.057
53322W        W21727  22.494  25.608  13.539
53323W        W21728   1.152   9.615  12.954
53324W        W21729  14.797  39.028  13.872
53325W        W21730  26.178  25.175   1.321
53326W        W21731  29.048   3.452  12.385
53327W        W21732  29.544  26.616   0.402
53328W        W21733  21.536  19.706  10.952
53329W        W21734   4.461  38.843   4.582
53330W        W21735  25.445   6.866  12.061
53331W        W21736  28.652   5.139   0.572
53332W        W21737   7.382  31.293  11.285
53333W        W21738  41.533  37.500   1.191
53334W        W21739   3.907  36.905   0.970
53335W        W21740  36.950   6.697  11.154
53336W        W21741  15.171   8.147  14.290
53337W        W21742  44.376  38.404  12.532
53338W        W21743  17.258  35.327   2.857
53339W        W21744  19.322  27.864  14.820
53340W        W21745  30.514  32.451   4.077
53341W        W21746   4.541   5.697   5.174
53342W        W21747  15.254   9.159  13.020
53343W        W21748  34.880  17.061   4.090
53344W        W21749  44.053  26.096   1.207
53345W        W21750  43.538  18.663   3.241
53346W        W21751  16.839  13.500  11.232
53347W        W21752   4.082  13.309   1.292
53348W        W21753  33.096  19.539   1.434
53349W        W21754  31.082  32.832  11.262
53350W        W21755  15.166  39.947  12.695
53351W        W21756   7.950  24.424   0.814
53352W        W21757  19.193   8.675   4.100
53353W        W21758  38.671  42.308   4.512
53354W        W21759  44.736  44.604   0.318
53355W        W21760  20.110  37.909  12.004
53356W        W21761  42.537  26.792  12.335
53357W        W21762  23.520   1.699   1.902
53358W        W21763  25.142  10.824  13.905
53359W        W21764  10.700  19.471  14.893
53360W        W21765  37.018  41.811  14.805
53361W        W21766   3.931   6.796  12.399
53362W        W21767  16.566  18.400  11.397
53363W        W21768  29.786   2.765   4.652
53364W        W21769   7.741  17.156   2.007
53365W        W21770  41.280  10.334  10.684
53366W        W21771  12.283   7.338  10.796
53367W        W21772  11.971   0.538  12.033
53368W        W21773  36.901  20.432   3.197
53369W        W21774  39.756  36.143  12.063
53370W        W21775  22.149  16.266   0.665
53371W        W21776   9.831  14.619   3.768
53372W        W21777  23.863  21.278  13.451
53373W        W21778  17.774   3.360   4.219
53374W        W21779   4.666  13.237   2.859
53375W        W21780  19.467  20.345  13.924
53376W        W21781  31.056  10.140  14.578
53377W        W21782  24.327  32.241  12.962
53378W        W21783  20.243  18.377   3.632
53379W        W21784  11.101  29.261   1.331
53380W        W21785   9.774  37.038  11.017
53381W        W21786  44.233  16.131   2.209
53382W        W21787  12.684  27.512   4.548
53383W        W21788  14.043  44.438   1.753
53384W        W21789  32.954  35.073   1.877
53385W        W21790  17.067  35.858  12.629
53386W        W21791  16.399  18.835  12.972
53387W        W21792  29.125  20.144   0.292
53388W        W21793   0.269   6.720  13.474
53389W        W21794   3.953  43.989  11.251
53390W        W21795  19.653  29.712   3.818
53391W        W21796   5.361  34.210  10.927
53392W        W21797   9.801  28.607   2.854
53393W        W21798  14.720   8.644   1.404
53394W        W21799   2.759  37.878  11.500
53395W        W21800  34.684   9.862   3.712
53396W        W21801  36.151  13.615   2.699
53397W        W21802   2.916  41.987  14.948
53398W        W21803  30.650  19.231  10.153
53399W        W21804  29.982  33.334  12.059
53400W        W21805  44.183  24.816   2.301
53401W        W21806  18.310  11.870   5.049
53402W        W21807  39.164  20.293   1.970
53403W        W21808  22.402  10.117   0.405
53404W        W21809   5.107  44.545  13.635
53405W        W21810  36.296  28.658   0.424
53406W        W21811  14.001  39.485  11.832
53407W        W21812  37.878   7.179  10.683
53408W        W21813  15.573  37.979   4.233
53409W        W21814  36.962  29.782   1.286
53410W        W21815  29.602  38.368  10.364
53411W        W21816  42.464  25.474   2.540
53412W        W21817  39.248  36.944  11.989
53413W        W21818  44.712  22.428  10.940
53414W        W21819   9.360  21.752   4.841
53415W        W21820  12.208  13.639  12.903
53416W        W21821   3.913   9.368   1.695
53417W        W21822  39.247  15.354   4.562
53418W        W21823  14.107  42.790  11.452
53419W        W21824  26.753  10.641   2.406
53420W        W21825  10.709   7.243   4.583
53421W        W21826   5.269   1.483   3.261
53422W        W21827  15.136  40.408  13.547
53423W        W21828  35.830   9.810  12.947
53424W        W21829   7.850  10.994   2.426
53425W        W21830  29.719  31.330   2.343
53426W        W21831  12.174  28.024  12.335
53427W        W21832  10.347   6.702  10.707
53428W        W21833  16.672  29.181  14.499
53429W        W21834  17.261   3.642  13.282
53430W        W21835   3.440  27.399   1.268
53431W        W21836  34.980  44.790   0.841
53432W        W21837   4.676  37.357   0.948
53433W        W21838   2.495  39.801  11.121
53434W        W21839  44.317   2.856  11.135
53435W        W21840  40.278  22.586   4.594
53436W        W21841  33.564  38.514  14.497
53437W        W21842  39.520   3.492   1.926
53438W        W21843  36.380  18.520   0.307
53439W        W21844  22.419  13.100   3.590
53440W        W21845  34.582  14.672   3.733
53441W        W21846  36.867   2.869  10.551
53442W        W21847   5.260  40.098   1.350
53443W        W21848  37.891  26.821  14.735
53444W        W21849  19.007   0.939  11.567
53445W        W21850  19.150  26.631   3.592
53446W        W21851  44.470  26.242  14.045
53447W        W21852  37.137  41.857   0.818
53448W        W21853  35.096  14.391   0.416
53449W        W21854  39.031   7.626   0.370
53450W        W21855  24.058  24.207   4.607
53451W        W21856  33.518  14.781  13.326
53452W        W21857  19.750  11.610  14.883
53453W        W21858  12.828  35.142   0.490
53454W        W21859  41.928  26.027   3.674
53455W        W21860   8.725  16.408  13.676
53456W        W21861  37.867  16.384   0.317
53457W        W21862  14.302  16.332   0.533
53458W        W21863   6.494   3.930  13.473
53459W        W21864  16.963  30.558  14.855
53460W        W21865  17.520  29.562  12.046
53461W        W21866   4.642  38.830  12.999
53462W        W21867  28.193   8.217   2.948
53463W        W21868  19.829  18.234  14.852
53464W        W21869  12.274   2.416   1.858
53465W        W21870  33.569  42.192  11.523
53466W        W21871  29.365  20.361   3.275
53467W        W21872  38.848   2.929   9.744
53468W        W21873  10.606  13.046   3.975
53469W        W21874  22.002   8.384   4.391
53470W        W21875  31.671   3.497  11.096
53471W        W21876  27.005   8.565  11.118
53472W        W21877  28.242  40.077   1.384
53473W        W21878  33.817  20.239   4.208
53474W        W21879  30.466  18.583   3.100
53475W        W21880  17.729  42.819  14.456
53476W        W21881   9.379  42.590  11.207
53477W        W21882  33.304  35.433  14.353
53478W        W21883  39.033  42.256   1.607
53479W        W21884   7.297   9.702   0.652
53480W        W21885  41.492   2.451   1.423
53481W        W21886   8.690  18.672   2.731
53482W        W21887  17.318  42.408  12.077
53483W        W21888  37.456  40.556  14.181
53484W        W21889   4.377  27.408  13.026
53485W        W21890   2.715  33.790   1.908
53486W        W21891  16.928  34.394   4.126
53487W        W21892  25.236   3.119  13.094
53488W        W21893   3.914  41.585   2.402
53489W        W21894   6.396   7.632   4.141
53490W        W21895   7.223   5.207   3.667
53491W        W21896  25.081  24.298  11.588
53492W        W21897   6.336  19.208   0.280
53493W        W21898  26.563   6.709   0.780
53494W        W21899  20.615  13.595   2.668
53495W        W21900   9.190  44.818  10.695
53496W        W21901  27.543  19.813  11.466
53497W        W21902  31.307  20.945  10.183
53498W        W21903  11.467  25.388   3.695
53499W        W21904  32.912  35.136  10.926
53500W        W21905  18.140  36.941   0.700
53501W        W21906  41.412  44.387   2.006
53502W        W21907  34.197   0.524   0.081
53503W        W21908  13.869   5.244   4.163
53504W        W21909  28.012  23.613   3.371
53505W        W21910   9.337  23.571   1.835
53506W        W21911  23.628  17.394  12.417
53507W        W21912  23.429  23.362   0.098
53508W        W21913  18.575  34.105  12.877
53509W        W21914  19.065  24.090  12.104
53510W        W21915  11.853  19.998   2.189
53511W        W21916   0.556  23.062  13.380
53512W        W21917  33.887  37.626   4.186
53513W        W21918  36.001   0.007  10.736
53514W        W21919  33.930  30.048  13.047
53515W        W21920  10.896  32.604  12.410
53516W        W21921  10.112  26.207   4.211
53517W        W21922  43.886  33.908   4.221
53518W        W21923   6.749  36.533   2.501
53519W        W21924   3.421  42.584  11.450
53520W        W21925  35.836  43.982  13.547
53521W        W21926  28.224  44.964  11.905
53522W        W21927  41.372  39.314   3.376
53523W        W21928  20.442  17.741  12.152
53524W        W21929  14.207  26.960  13.438
53525W        W21930  22.328  32.738  14.084
53526W        W21931  20.281   8.902   9.904
53527W        W21932  10.691  19.199  14.426
53528W        W21933  18.623  16.261  13.920
53529W        W21934  11.286   3.998   2.805
53530W        W21935  10.099  29.249   2.302
53531W        W21936  38.417  26.425   1.319
53532W        W21937  22.004  37.892  14.255
53533W        W21938  43.310  15.141  13.544
53534W        W21939  22.530  35.829  14.254
53535W        W21940  14.153  35.064   2.843
53536W        W21941  14.702  10.133  12.532
53537W        W21942  12.997  10.322  14.630
53538W        W21943  36.128   9.968   1.915
53539W        W21944  37.021   6.886   2.832
53540W        W21945   6.396  24.784   0.729
53541W        W21946   6.591   4.631  11.000
53542W        W21947  35.019  41.895  11.668
53543W        W21948  24.103  44.812  11.774
53544W        W21949  32.596  26.570  14.781
53545W        W21950  29.587  21.075   4.783
53546W        W21951   8.391  38.524  10.784
53547W        W21952   0.790  12.704   0.207
53548W        W21953  33.322   9.903   4.159
53549W        W21954   8.424  25.279  12.952
53550W        W21955   5.935   8.214  14.186
53551W        W21956   9.125   2.855   3.638
53552W        W21957  22.214  40.075   2.307
53553W        W21958  20.146   7.794   1.446
53554W        W21959   2.460  35.491   3.601
53555W        W21960  33.041  30.671   1.428
53556W        W21961  19.294  36.969   2.691
53557W        W21962   4.418  15.749  11.161
53558W        W21963  34.857   2.900  12.255
53559W        W21964  36.930  26.005  14.041
53560W        W21965  13.253  15.976   5.260
53561W        W21966  32.806  11.086  12.259
53562W        W21967  34.555  37.612  14.476
53563W        W21968  32.332  17.180   2.786
53564W        W21969  21.294  43.993  14.008
53565W        W21970  29.645   5.318  14.343
53566W        W21971   2.877  15.644  13.001
53567W        W21972  32.017  19.424  12.782
53568W        W21973   6.918  39.924  14.862
53569W        W21974  27.668  21.221   2.093
53570W        W21975  29.971   7.089   4.268
53571W        W21976  15.193  14.573   2.155
53572W        W21977  13.264  19.298   0.846
53573W        W21978  34.575  11.990   0.286
53574W        W21979  23.127  26.306   2.729
53575W        W21980  29.532  25.470  12.869
53576W        W21981  32.464  22.166  13.033
53577W        W21982  13.183  23.832   0.302
53578W        W21983  29.964  20.966   2.203
53579W        W21984  29.679  15.734  11.045
53580W        W21985  15.580   7.207   4.747
53581W        W21986  31.012  40.206  13.748
53582W        W21987  18.084   7.001   4.439
53583W        W21988  24.120  26.454  12.947
53584W        W21989  16.783   8.181   2.748
53585W        W21990   7.074  20.344  13.081
53586W        W21991  32.471  37.286  14.831
53587W        W21992  29.538  16.670  13.423
53588W        W21993  27.406  43.163   1.318
53589W        W21994   6.825   3.257  10.424
53590W        W21995   0.056  27.031   3.804
53591W        W21996  30.621  34.542  11.097
53592W        W21997  18.539  27.923  10.221
53593W        W21998  36.980  29.452   1.692
53594W        W21999  44.265   9.787   4.138
53595W        W22000  31.619   4.623  11.677
53596W        W22001  37.597   9.335   1.976
53597W        W22002  35.297  32.592   4.083
53598W        W22003   0.512  41.923  14.720
53599W        W22004  18.755   6.277   4.434
53600W        W22005  34.433   9.218   1.770
53601W        W22006  41.926  27.860  11.581
53602W        W22007  11.590  10.165   0.907
53603W        W22008   5.530   1.898   0.703
53604W        W22009  32.318  36.807  12.943
53605W        W22010  15.580  34.841   2.279
53606W        W22011  22.791  24.065  11.625
53607W        W22012  36.030  44.475  13.970
53608W        W22013  22.319   3.003   2.465
53609W        W22014  23.656  23.664  12.996
53610W        W22015  31.627  29.162   0.027
53611W        W22016   9.236   4.277  14.034
53612W        W22017  20.770   2.062   4.644
53613W        W22018  44.349   3.962   3.416
53614W        W22019  22.140   0.800  14.050
53615W        W22020  35.142  42.735   5.177
53616W        W22021  40.916  34.483   3.532
53617W        W22022  29.219  16.186  11.573
53618W        W22023  44.236  11.465   0.035
53619W        W22024  21.793  24.894   4.167
53620W        W22025  31.477  23.148   0.901
53621W        W22026  43.304  36.895   4.558
53622W        W22027  15.570  24.360   0.833
53623W        W22028  41.600  19.187   0.033
53624W        W22029   4.900  37.900   3.228
53625W        W22030   7.200   8.684   2.622
53626W        W22031  43.040   6.252  12.906
53627W        W22032   1.210   9.931  13.356
53628W        W22033  17.580  18.692  11.227
53629W        W22034  38.322  23.543   1.069
53630W        W22035  19.053  38.411   0.606
53631W        W22036   9.057  16.648  11.294
53632W        W22037  26.431   0.484   1.360
53633W        W22038  35.413  34.077   4.243
53634W        W22039  29.524  14.611  14.456
53635W        W22040  38.333  33.864  12.694
53636W        W22041  34.324  13.204  11.069
53637W        W22042  31.976  40.594  12.539
53638W        W22043  42.385  35.505   3.175
53639W        W22044  12.606  12.301  14.913
53640W        W22045  12.667  18.252  11.126
53641W        W22046  29.718   2.845  13.970
53642W        W22047  31.639  39.518  14.528
53643W        W22048  29.357   2.329   0.112
53644W        W22049   5.444  37.239   2.918
53645W        W22050  24.675  44.811   0.258
53646W        W22051  13.599  17.654   3.275
53647W        W22052  16.813  11.126   1.849
53648W        W22053  39.265  41.065  14.509
53649W        W22054  23.776  25.289  12.045
53650W        W22055  40.812  36.381   3.826
53651W        W22056  23.283  23.246  12.850
53652W        W22057  35.726  20.094   4.344
53653W        W22058  30.865  20.456   3.181
53654W        W22059  39.326  20.779   2.187
53655W        W22060  18.570  18.156   0.745
53656W        W22061   6.878  44.044   1.323
53657W        W22062  24.174  21.561   2.990
53658W        W22063   6.479  44.693  14.356
53659W        W22064   1.101  29.109   1.367
53660W        W22065   5.770   5.619   2.997
53661W        W22066  38.895  37.330  10.751
53662W        W22067  36.373  21.544   3.762
53663W        W22068  15.222  22.602   4.549
53664W        W22069  19.034   4.152   3.845
53665W        W22070  11.155  30.535   0.970
53666W        W22071  24.398   5.801   3.408
53667W        W22072  29.860  19.976  11.966
53668W        W22073  11.841  28.131  13.320
53669W        W22074   8.768   8.648  13.117
53670W        W22075  29.497   1.337  10.661
53671W        W22076  16.215  20.469  14.420
53672W        W22077  41.104  21.500  12.132
53673W        W22078  26.640  40.308   2.054
53674W        W22079  43.517   9.131  14.721
53675W        W22080  21.156  30.037   2.667
53676W        W22081   2.615   9.322   2.401
53677W        W22082  36.798  37.514   3.316
53678W        W22083  21.185   2.465   2.446
53679W        W22084   1.059  10.179  11.859
53680W        W22085  25.248  31.615  11.119
53681W        W22086  18.492   5.672   3.663
53682W        W22087  28.370  24.685  14.955
53683W        W22088   0.927  22.550  12.166
53684W        W22089   6.358   3.441   4.557
53685W        W22090  23.523  32.168  12.528
53686W        W22091  14.372  34.709  12.559
53687W        W22092   0.196  33.037   0.905
53688W        W22093  22.003  22.727  11.015
53689W        W22094  29.587  20.655   4.086
53690W        W22095  37.315  17.696  12.706
53691W        W22096   6.620  10.539  12.355
53692W        W22097  44.696  11.200   4.556
53693W        W22098  15.870  30.019   3.310
53694W        W22099  16.598  41.427  13.389
53695W        W22100  44.575  42.120   4.016
53696W        W22101  33.684  20.504  12.528
53697W        W22102  42.340  44.183   4.745
53698W        W22103  10.435  40.161   2.398
53699W        W22104  30.853  28.523   0.808
53700W        W22105  42.270  25.261   1.936
53701W        W22106  20.686  44.999  11.469
53702W        W22107  15.040   5.788  10.480
53703W        W22108   7.422  10.002   4.612
53704W        W22109  21.011  13.878   4.662
53705W        W22110  18.249  11.441  12.997
53706W        W22111  30.570   9.149  12.837
53707W        W22112  34.894   5.856   0.480
53708W        W22113  28.439  20.547  12.095
53709W        W22114  44.486  33.877  14.357
53710W        W22115   4.945  29.490  11.017
53711W        W22116   7.599  22.635  13.462
53712W        W22117  25.717   6.098   2.318
53713W        W22118  32.830  42.701  14.854
53714W        W22119  44.789  42.640  11.987
53715W        W22120  30.972   9.705  10.870
53716W        W22121   1.885  18.469  10.582
53717W        W22122  32.625   9.825   1.938
53718W        W22123   9.301  26.530   0.331
53719W        W22124   8.739  42.324  14.774
53720W        W22125  38.421   0.758  14.018
53721W        W22126  32.884  40.347  10.675
53722W        W22127  40.412  39.592  11.113
53723W        W22128  42.285  12.531  14.817
53724W        W22129  12.336  27.503  11.632
53725W        W22130   0.585  29.089   1.360
53726W        W22131   6.181   1.410   4.219
53727W        W22132  42.966   9.888   1.932
53728W        W22133  42.810   4.945  12.550
53729W        W22134  41.973  43.859  11.799
53730W        W22135   1.035  31.397  11.167
53731W        W22136  24.807  34.677  10.749
53732W        W22137  27.187  26.542  12.587
53733W        W22138  34.333   4.285  13.417
53734W        W22139  41.543  38.212  13.433
53735W        W22140  43.540  35.078  12.617
53736W        W22141  15.707  44.971   2.415
53737W        W22142   1.202   7.198  11.362
53738W        W22143  38.851  38.434   4.120
53739W        W22144  13.395   5.764   3.167
53740W        W22145  21.120  24.657   1.718
53741W        W22146  19.310  19.895  11.845
53742W        W22147   8.922   8.773   0.460
53743W        W22148   5.960  30.200  14.881
53744W        W22149  15.073  25.507   4.714
53745W        W22150  28.671  40.591   2.367
53746W        W22151   0.017  30.418  12.951
53747W        W22152  28.531  37.871  12.870
53748W        W22153  42.828  41.501   5.193
53749W        W22154  15.660   7.579  11.419
53750W        W22155  12.169  28.082   2.893
53751W        W22156  34.485  31.411  14.516
53752W        W22157   3.453  20.230   4.160
53753W        W22158  21.606  33.037  12.028
53754W        W22159  33.380   7.815  14.871
53755W        W22160  27.324  22.676  11.113
53756W        W22161  18.676  39.008  11.318
53757W        W22162  19.686  12.965  10.763
53758W        W22163  25.237   9.086   1.351
53759W        W22164  18.257  13.820   0.978
53760W        W22165   8.783   9.222   2.242
53761W        W22166   7.302  19.183  10.719
53762W        W22167   8.857  37.248  10.466
53763W        W22168  23.391  35.880  14.036
53764W        W22169   2.293  37.048  13.972
53765W        W22170  31.436  16.089  11.933
53766W        W22171  28.022  21.460   4.642
53767W        W22172  44.097  28.184   4.436
53768W        W22173  38.890   9.986  10.263
53769W        W22174  16.615  38.444   0.709
53770W        W22175  33.157  41.742   0.925
53771W        W22176   9.836   0.164  12.117
53772W        W22177  15.276   1.518  11.995
53773W        W22178  40.343   9.998  10.571
53774W        W22179  33.123  38.752   1.643
53775W        W22180   1.389  17.991   3.925
53776W        W22181  19.615  22.842  14.908
53777W        W22182   3.771  36.866  12.266
53778W        W22183  36.761  42.749   0.018
53779W        W22184   4.046  39.448   3.062
53780W        W22185  38.581   0.775   1.909
53781W        W22186  35.071  29.252  14.936
53782W        W22187  30.361  17.790   0.918
53783W        W22188  25.638   9.389  13.565
53784W        W22189  34.604  37.840   1.294
53785W        W22190   8.641  40.786   0.887
53786W        W22191  30.600  23.971   1.432
53787W        W22192  20.714   2.545   3.759
53788W        W22193  35.081   6.406  13.067
53789W        W22194  36.621  12.567   0.792
53790W        W22195  44.497  35.142  11.624
53791W        W22196  10.624   6.781   4.800
53792W        W22197  34.133  34.204   3.197
53793W        W22198   3.971   6.427   3.177
53794W        W22199  17.245  21.153   5.195
53795W        W22200  31.834   1.046   3.744
53796W        W22201  42.407   3.277   0.228
53797W        W22202  22.633  28.235  11.446
53798W        W22203  30.423   0.216   1.303
53799W        W22204   1.276  28.983  12.053
53800W        W22205  20.012   0.490   2.391
53801W        W22206  26.977  13.058  14.427
53802W        W22207  44.797  32.247   4.104
53803W        W22208   6.353  25.484  12.507
53804W        W22209   9.242  20.084   1.757
53805W        W22210  26.264  41.518   4.594
53806W        W22211  41.001  16.568   2.287
53807W        W22212  36.099  30.031   0.336
53808W        W22213  15.708  40.829   2.350
53809W        W22214  40.386   9.301  12.275
53810W        W22215  19.096   6.600   1.269
53811W        W22216  25.766  27.359  12.996
53812W        W22217  25.203   5.574   4.276
53813W        W22218  33.892  16.085  11.419
53814W        W22219  12.858  37.222   2.440
53815W        W22220  34.543  38.282  11.888
53816W        W22221  34.933  42.322   0.240
53817W        W22222   1.930  30.616  14.606
53818W        W22223  16.480  42.900   0.445
53819W        W22224  43.772  40.907   3.783
53820W        W22225  27.549   6.395  13.304
53821W        W22226  43.546   3.925   3.271
53822W        W22227   6.900  29.051   1.630
53823W        W22228  26.439  30.503  14.391
53824W        W22229   0.519  20.142  12.942
53825W        W22230  25.653  29.650  10.701
53826W        W22231   9.042  14.426   0.934
53827W        W22232  17.787  31.071   1.642
53828W        W22233  35.076  21.347  11.121
53829W        W22234  12.369   1.189   1.303
53830W        W22235  37.495  21.025  11.585
53831W        W22236  21.565   7.862   4.605
53832W        W22237  40.972   0.216   3.078
53833W        W22238  25.615  42.287  11.583
53834W        W22239  25.631  35.482  14.506
53835W        W22240   5.047  11.129  12.993
53836W        W22241  29.011  10.308  13.901
53837W        W22242  39.854  28.516   3.605
53838W        W22243  20.125   4.458   1.963
53839W        W22244  10.289  27.567   1.964
53840W        W22245  42.133   3.807  10.044
53841W        W22246   3.511   3.843   4.378
53842W        W22247  38.388  37.949  12.491
53843W        W22248  21.134  19.082   3.285
53844W        W22249  12.111  12.898  11.614
53845W        W22250   9.406  29.888   2.232
53846W        W22251   1.436  13.741  12.399
53847W        W22252   3.538  34.851   3.589
53848W        W22253  18.135  15.514  12.602
53849W        W22254   6.339  16.017   5.395
53850W        W22255  19.067   4.249  11.990
53851W        W22256  43.806   4.250  10.590
53852W        W22257  36.905  35.112   2.950
53853W        W22258   5.599  14.137   2.435
53854W        W22259   6.939  43.826  10.739
53855W        W22260  44.959  42.453   2.402
53856W        W22261  34.817  17.911  11.004
53857W        W22262  43.222  21.756  10.641
53858W        W22263   6.254  37.399  13.596
53859W        W22264  33.299   1.925  10.266
53860W        W22265  41.989   5.341   3.294
53861W        W22266  27.693   6.492   2.751
53862W        W22267   8.500  31.135   0.540
53863W        W22268  31.519   6.922   4.743
53864W        W22269  41.297  37.792   4.514
53865W        W22270  11.047  34.827   0.839
53866W        W22271  37.972  29.930  13.436
53867W        W22272  18.112  42.230  12.423
53868W        W22273  35.591  38.946  13.438
53869W        W22274  37.932   5.607  10.710
53870W        W22275   2.773  14.776   0.978
53871W        W22276   6.706  24.833   1.223
53872W        W22277  15.485  39.951   2.344
53873W        W22278  44.936  30.659   2.691
53874W        W22279  21.998   3.678   3.649
53875W        W22280   7.604   7.807   3.732
53876W        W22281  15.348  21.744  14.043
53877W        W22282  37.976  12.211  13.561
53878W        W22283   9.881  10.304   0.400
53879W        W22284  25.814  28.463   3.138
53880W        W22285   8.349  34.879   3.692
53881W        W22286  20.289  25.125  12.987
53882W        W22287  16.354  43.983  12.860
53883W        W22288  33.465   4.202  10.682
53884W        W22289  15.228  40.941   4.187
53885W        W22290  42.079  41.209   3.083
53886W        W22291   1.861  40.585  12.056
53887W        W22292  23.125  31.031  10.680
53888W        W22293   8.320   9.417   4.141
53889W        W22294   2.872  25.881  13.448
53890W        W22295  24.701  11.769  13.053
53891W        W22296  16.603  37.509  13.340
53892W        W22297  38.183  23.740  11.169
53893W        W22298   5.679  36.344  11.957
53894W        W22299   8.166  19.713   2.912
53895W        W22300  14.673  39.984  14.301
53896W        W22301  34.423  31.602   1.391
53897W        W22302  36.167   2.044  14.657
53898W        W22303  34.519  18.415   0.884
53899W        W22304  15.996  22.269  10.039
53900W        W22305  37.299  39.933   3.679
53901W        W22306  43.200   0.315  11.573
53902W        W22307  30.950  20.981   3.118
53903W        W22308   8.698  42.569  12.894
53904W        W22309  31.412  18.562  11.060
53905W        W22310   4.763  19.116  11.942
53906W        W22311  17.207   7.745  11.105
53907W        W22312  10.496  44.054  11.165
53908W        W22313  25.930  26.685   4.520
53909W        W22314  19.062  30.691  11.629
53910W        W22315  38.962   4.816  10.688
53911W        W22316  13.428  32.317   2.768
53912W        W22317  20.989  42.531  12.517
53913W        W22318   5.614  37.083  14.317
53914W        W22319  19.203  40.300  13.410
53915W        W22320  43.291   5.687   2.669
53916W        W22321  15.375   5.123  13.441
53917W        W22322  13.142   8.724  13.026
53918W        W22323  36.594  36.988  10.636
53919W        W22324  24.423   2.746  14.283
53920W        W22325  37.402  26.688   1.179
53921W        W22326  36.298   1.318  14.237
53922W        W22327  22.271  19.541  14.834
53923W        W22328  44.210   1.954   4.511
53924W        W22329  14.099  32.576  11.105
53925W        W22330  18.229  30.070  14.084
53926W        W22331  40.895  37.916  12.426
53927W        W22332  34.050   0.962   1.331
53928W        W22333  15.290  24.096  11.607
53929W        W22334  37.630  26.950   2.293
53930W        W22335  31.242  36.832  13.850
53931W        W22336  33.127  13.090  12.506
53932W        W22337  17.365  34.710   2.017
53933W        W22338  31.361  34.933  12.271
53934W        W22339  31.092   8.364  11.844
53935W        W22340  21.839  15.007  12.589
53936W        W22341  10.158  42.115  11.066
53937W        W22342  39.955   9.830   0.771
53938W        W22343  18.270  21.518   1.894
53939W        W22344  29.395   6.177   0.289
53940W        W22345  38.944  33.732   3.232
53941W        W22346  27.521  28.400  14.091
53942W        W22347  25.913  12.252   1.909
53943W        W22348   6.445  11.145   2.389
53944W        W22349  34.472  19.633   3.656
53945W        W22350  14.919  19.177  11.164
53946W        W22351   1.130  41.891  13.408
53947W        W22352  16.503  28.072   4.193
53948W        W22353  36.760   5.930   1.969
53949W        W22354  37.264   4.996  10.281
53950W        W22355  28.911  31.616  13.386
53951W        W22356  15.253  40.357  10.631
53952W        W22357   5.683  42.638   3.428
53953W        W22358  14.908  26.104  12.029
53954W        W22359   2.571   3.276   2.881
53955W        W22360   1.310   1.474   2.995
53956W        W22361   3.228   0.928   0.436
53957W        W22362   3.519   5.677  11.231
53958W        W22363  23.062   3.719   4.128
53959W        W22364  42.500  19.506  14.449
53960W        W22365   5.927  13.963   1.551
53961W        W22366   6.219   1.497   3.229
53962W        W22367  26.685  12.192  11.129
53963W        W22368  34.965  41.506   1.210
53964W        W22369   4.389  35.957   2.204
53965W        W22370  20.635  24.173  12.316
53966W        W22371  25.124  41.303   2.700
53967W        W22372  27.970  39.596   3.829
53968W        W22373  37.981  25.217  11.006
53969W        W22374   4.191   8.872   1.761
53970W        W22375  29.167  36.478  11.137
53971W        W22376  40.525  17.810  11.155
53972W        W22377  17.276   6.887   1.657
53973W        W22378   7.414  18.250   1.372
53974W        W22379  27.563  25.544   1.692
53975W        W22380   4.643  13.730   2.683
53976W        W22381  10.944   3.852  14.535
53977W        W22382   8.369  39.010   2.965
53978W        W22383  37.388   5.347   4.100
53979W        W22384  11.337  11.120   0.949
53980W        W22385  28.966  17.463   1.703
53981W        W22386   4.772  29.750  11.464
53982W        W22387   6.107  20.799   2.835
53983W        W22388   9.262  15.763   1.487
53984W        W22389   2.649  21.733   4.429
53985W        W22390   0.038  20.083  12.215
53986W        W22391  35.770  23.544  13.936
53987W        W22392  31.602  17.027   9.990
53988W        W22393  29.932  16.111  10.777
53989W        W22394  12.708   1.307  11.108
53990W        W22395  32.102  25.774  13.737
53991W        W22396  43.511  16.259   3.762
53992W        W22397   5.073  10.012  10.033
53993W        W22398  26.555   0.980   1.770
53994W        W22399  23.893   9.365  11.375
53995W        W22400  11.698  32.143   0.221
53996W        W22401  13.820  40.815   1.418
53997W        W22402  19.545  11.563   4.773
53998W        W22403  20.523   1.505  14.369
53999W        W22404  29.148   9.206   1.808
54000W        W22405  34.937  37.341   2.007
54001W        W22406  16.155   7.672   3.870
54002W        W22407  23.681  17.525   1.196
54003W        W22408  40.927   0.228  14.445
54004W        W22409   1.713  44.555   1.533
54005W        W22410   9.966   4.502   4.803
54006W        W22411  39.749   7.205  14.977
54007W        W22412   9.794   3.382  12.872
54008W        W22413  40.626   9.720  14.817
54009W        W22414  22.477  18.166   1.993
54010W        W22415  27.611  44.708  10.741
54011W        W22416   4.329   4.210  13.306
54012W        W22417  23.946  27.886  11.494
54013W        W22418  20.549   0.410  11.180
54014W        W22419  26.381  13.381   3.779
54015W        W22420   8.846  27.030   0.336
54016W        W22421  13.127  26.176  13.593
54017W        W22422  44.304  43.013  11.993
54018W        W22423  32.449  44.409  10.955
54019W        W22424  44.464  14.615   2.780
54020W        W22425  32.594  43.449   3.716
54021W        W22426   4.489  31.886  10.776
54022W        W22427  42.925  28.134   2.271
54023W        W22428  23.521   4.169  10.913
54024W        W22429  12.218  40.006  14.792
54025W        W22430  20.134  19.762  11.546
54026W        W22431  21.437   1.658  14.510
54027W        W22432  36.038  24.788   2.442
54028W        W22433  17.031  35.772   0.724
54029W        W22434  25.165  33.545   4.100
54030W        W22435  18.306  27.670  11.079
54031W        W22436  14.367  32.450  12.059
54032W        W22437  25.218  29.608  10.388
54033W        W22438  25.253   9.601   1.362
54034W        W22439  30.523   9.618  11.151
54035W        W22440  44.962  36.336   1.197
54036W        W22441  27.588  31.883  11.874
54037W        W22442   2.459   8.564  11.143
54038W        W22443   9.315  15.314  11.547
54039W        W22444  33.468  40.246   3.266
54040W        W22445  17.703  20.726  13.525
54041W        W22446  20.640  17.395  11.231
54042W        W22447  22.558  11.823  14.451
54043W        W22448  35.812  20.807   2.369
54044W        W22449  14.901   6.701   2.743
54045W        W22450  15.064  13.425  13.077
54046W        W22451  24.744  32.999  12.836
54047W        W22452  30.173  18.265   0.892
54048W        W22453  41.867  35.083   1.235
54049W        W22454   1.820   0.787   2.332
54050W        W22455  31.558  43.428  10.336
54051W        W22456   2.752  34.521   2.725
54052W        W22457  36.292  43.543  11.986
54053W        W22458  11.340  33.113  14.868
54054W        W22459  25.751   8.263   4.150
54055W        W22460  12.507  40.854   3.809
54056W        W22461  16.268   8.636   3.601
54057W        W22462  42.399  43.061   1.192
54058W        W22463  15.071   3.294  13.443
54059W        W22464   9.968   5.816   2.862
54060W        W22465  34.429   1.809   1.578
54061W        W22466  28.338  38.933  14.988
54062W        W22467  25.093  31.978  12.727
54063W        W22468  34.672  18.922  14.520
54064W        W22469   8.890  41.189   2.769
54065W        W22470   9.348  20.810   4.678
54066W        W22471  41.412  40.499   0.733
54067W        W22472  35.897  27.611  10.727
54068W        W22473  14.758  34.744   4.606
54069W        W22474   7.794   0.271  13.332
54070W        W22475  27.629  15.506  12.110
54071W        W22476  44.781  21.250   4.038
54072W        W22477  22.037  41.342   4.866
54073W        W22478  36.927  14.207  14.275
54074W        W22479  10.397  33.930   1.762
54075W        W22480  39.596   9.552   2.186
54076W        W22481  28.928  12.141   1.723
54077W        W22482  41.832  33.001  12.928
54078W        W22483  32.214   8.412   2.404
54079W        W22484  36.181   2.713  11.189
54080W        W22485  40.973  13.234  10.675
54081W        W22486  19.558   9.849  10.676
54082W        W22487  41.906  24.618  14.906
54083W        W22488  30.067  43.510   2.089
54084W        W22489   4.268   6.687   4.005
54085W        W22490  25.469  24.757  11.032
54086W        W22491  10.862  44.422  14.189
54087W        W22492  12.498   4.911   1.376
54088W        W22493   5.417  16.929   2.889
54089W        W22494  33.070  41.576   3.409
54090W        W22495  16.688  25.209   0.473
54091W        W22496  15.922   5.857  14.489
54092W        W22497   0.978   4.642  11.339
54093W        W22498  35.589  36.460  14.281
54094W        W22499  23.733  22.435  11.565
54095W        W22500   0.746  10.404   1.954
54096W        W22501  29.554   1.265  11.550
54097W        W22502  42.049   8.325   3.360
54098W        W22503   6.348  42.022   3.718
54099W        W22504  44.771   4.891  11.533
54100W        W22505   6.664  32.287   3.984
54101W        W22506  13.741  20.128   0.883
54102W        W22507   8.113  22.179  14.771
54103W        W22508  44.974  37.646  13.371
54104W        W22509  23.499  12.204   0.322
54105W        W22510  39.992  34.978  13.335
54106W        W22511  29.616  18.688   0.065
54107W        W22512  43.299  25.650  14.316
54108W        W22513  39.064  22.535   0.614
54109W        W22514  35.100   0.319  11.603
54110W        W22515  38.781  21.746   0.924
54111W        W22516  39.021  41.822  10.857
54112W        W22517   5.185  23.258  11.062
54113W        W22518  36.824  40.479  14.804
54114W        W22519  44.805   8.338   2.403
54115W        W22520  18.570  28.207  14.267
54116W        W22521   6.450  31.112   0.048
54117W        W22522  22.108   1.799  10.281
54118W        W22523   0.929   7.139  14.896
54119W        W22524  42.446  40.264   1.402
54120W        W22525  16.591   7.192  11.032
54121W        W22526   0.364   2.842  11.120
54122W        W22527  36.308  37.426   4.626
54123W        W22528  16.692  10.872   2.318
54124W        W22529  18.591   7.143  12.953
54125W        W22530   5.739  26.082  14.224
54126W        W22531  25.741  26.232   2.991
54127W        W22532  15.615  37.513   0.894
54128W        W22533   3.037  44.896   1.669
54129W        W22534  10.948  37.507   3.163
54130W        W22535  41.368  38.862   0.056
54131W        W22536   5.380  22.988  11.470
54132W        W22537   7.277  40.773  10.649
54133W        W22538  38.568  41.460  13.905
54134W        W22539  38.916  13.180  10.503
54135W        W22540   1.785  43.880   4.611
54136W        W22541   8.853   4.128   4.969
54137W        W22542   9.898  15.098   4.160
54138W        W22543  12.782  11.363   3.195
54139W        W22544  43.994  22.739  14.100
54140W        W22545  36.005  41.036   0.532
54141W        W22546  14.385  34.936  11.436
54142W        W22547   8.827  38.361   0.933
54143W        W22548  33.577  33.531   3.213
54144W        W22549   0.326  28.995   2.645
54145W        W22550   5.202   9.962   4.341
54146W        W22551  30.595   2.206  12.520
54147W        W22552  10.570  22.676   1.300
54148W        W22553  23.987  27.514   2.689
54149W        W22554  10.766   5.162   2.867
54150W        W22555  43.840   0.938  11.655
54151W        W22556  10.239  36.996  11.816
54152W        W22557   0.968  26.107  12.955
54153W        W22558  41.580   2.436   2.378
54154W        W22559  15.649   5.366  13.946
54155W        W22560  20.002   7.221  14.121
54156W        W22561   6.211  16.203   4.918
54157W        W22562  17.570  41.979  10.563
54158W        W22563  12.766  33.401   3.630
54159W        W22564  22.716  34.928   4.625
54160W        W22565  15.901  43.239  13.647
54161W        W22566  31.397  10.594  11.976
54162W        W22567  38.468  43.954   4.135
54163W        W22568   0.806  25.328   5.265
54164W        W22569  29.718  41.342   3.686
54165W        W22570  31.155  29.401   0.345
54166W        W22571  13.607  34.050   1.036
54167W        W22572   6.262  39.856  12.682
54168W        W22573  38.087  17.217   2.943
54169W        W22574  15.315  41.384   5.041
54170W        W22575   0.745  28.861  14.243
54171W        W22576  40.925   1.215  10.425
54172W        W22577  18.307  43.461  10.678
54173W        W22578  20.088  21.971  11.018
54174W        W22579  23.451   6.616   1.628
54175W        W22580  43.425  42.766  10.675
54176W        W22581  21.659   0.497   1.486
54177W        W22582   3.972  14.372   1.288
54178W        W22583   8.807  12.085   1.497
54179W        W22584  10.220  43.710   2.879
54180W        W22585  22.574  24.639  13.160
54181W        W22586  29.093  23.544   3.643
54182W        W22587   4.888   0.534  13.560
54183W        W22588  16.982  43.921   4.632
54184W        W22589  44.325  43.217   1.023
54185W        W22590   8.533   4.225  12.075
54186W        W22591  18.484  13.822  13.587
54187W        W22592  22.501  26.725  12.125
54188W        W22593   9.859  44.888  13.878
54189W        W22594  10.207  26.080  12.627
54190W        W22595  40.423  27.666   4.573
54191W        W22596  33.334  30.715  10.408
54192W        W22597  42.616   8.639  12.132
54193W        W22598  43.418  40.562  11.029
54194W        W22599   8.922  22.690  13.299
54195W        W22600   5.334  16.079   3.940
54196W        W22601  22.006  23.680  14.648
54197W        W22602   4.890   0.482  11.478
54198W        W22603  17.199  23.973  12.092
54199W        W22604  20.792  31.027   3.830
54200W        W22605  29.215  24.655   0.176
54201W        W22606   5.117  33.748   1.672
54202W        W22607  30.651  14.098   3.209
54203W        W22608   8.300  24.925   4.630
54204W        W22609  42.996  34.404  13.043
54205W        W22610  44.135  31.929  11.658
54206W        W22611  15.625  44.095   4.824
54207W        W22612  39.958  29.068  14.395
54208W        W22613  14.707   7.627   3.032
54209W        W22614  22.200  39.926  12.174
54210W        W22615   2.537  28.221   4.680
54211W        W22616  27.028  35.835   1.243
54212W        W22617  44.805  14.249   4.181
54213W        W22618  15.955  25.011  11.980
54214W        W22619   0.832  26.188   0.757
54215W        W22620  10.129  29.679  13.167
54216W        W22621  32.045   1.024  11.524
54217W        W22622  14.895  17.492  12.115
54218W        W22623  35.177  10.016   3.704
54219W        W22624  36.469  31.013   4.273
54220W        W22625  15.623  27.364  13.923
54221W        W22626  33.473  12.464  10.346
54222W        W22627  22.104  32.458  11.622
54223W        W22628  13.352  21.499  10.517
54224W        W22629   8.108  38.885  14.849
54225W        W22630  41.156  43.728   4.186
54226W        W22631  18.067  17.195  14.630
54227W        W22632  20.975  13.638  12.138
54228W        W22633   7.214   2.967   2.270
54229W        W22634  20.278  29.670  13.656
54230W        W22635   3.792  33.533   0.136
54231W        W22636  37.741  22.674   2.587
54232W        W22637  22.809   4.646  10.874
54233W        W22638  11.911  31.025  13.172
54234W        W22639  38.999  27.963  11.964
54235W        W22640  41.392  13.843  13.543
54236W        W22641  29.193  27.050  12.062
54237W        W22642   1.953   5.823   1.382
54238W        W22643  12.847  31.062  10.876
54239W        W22644  31.977  11.225   3.404
54240W        W22645  11.450  15.175  12.942
54241W        W22646  34.964  38.325  12.546
54242W        W22647  39.370  13.869   2.242
54243W        W22648  41.476  30.728   2.208
54244W        W22649  19.541  33.081   2.989
54245W        W22650  21.487   3.215   4.979
54246W        W22651  16.697  15.121   3.839
54247W        W22652   7.071  37.320   0.314
54248W        W22653   1.816  26.125   2.220
54249W        W22654  35.962  32.351  13.812
54250W        W22655   6.724  30.121   4.922
54251W        W22656  35.402  31.806  12.160
54252W        W22657   8.368   0.928   2.726
54253W        W22658  41.462  40.796  10.577
54254W        W22659  29.530  26.333  14.960
54255W        W22660  43.360  27.025   2.349
54256W        W22661   1.409  38.979   2.023
54257W        W22662  13.907   9.843   3.532
54258W        W22663  13.843   9.076  12.245
54259W        W22664  10.883  44.756  12.934
54260W        W22665  26.642   4.415  11.126
54261W        W22666  32.166  36.005  12.596
54262W        W22667  22.197  22.570   4.401
54263W        W22668  30.092  28.067  10.527
54264W        W22669  21.608   1.117  14.481
54265W        W22670  12.007  35.044   2.907
54266W        W22671  37.019  27.521   2.741
54267W        W22672  29.557  44.416   5.035
54268W        W22673  16.857  42.600  12.456
54269W        W22674  40.081  26.538  10.104
54270W        W22675  31.855  12.067  12.594
54271W        W22676  12.626  12.714  11.644
54272W        W22677  15.336  27.711  13.164
54273W        W22678   0.861  44.719  14.580
54274W        W22679  31.176  15.873  14.466
54275W        W22680  43.089  25.728   2.969
54276W        W22681  26.381  33.377  13.917
54277W        W22682  33.565  42.174  14.714
54278W        W22683  41.456   8.672   1.378
54279W        W22684  40.011  11.842   1.868
54280W        W22685   8.226  29.383  11.388
54281W        W22686  29.460  39.030  12.156
54282W        W22687  32.486   0.245   2.078
54283W        W22688  30.134  17.531   0.115
54284W        W22689  18.312  35.178  14.279
54285W        W22690  34.271   8.763  12.997
54286W        W22691   8.196  38.309   2.842
54287W        W22692  20.176  11.053   1.053
54288W        W22693  17.344  26.689  13.344
54289W        W22694  17.306  41.178  14.090
54290W        W22695  18.828  19.727  10.172
54291W        W22696  21.151  27.716  14.869
54292W        W22697  16.700   1.522  12.163
54293W        W22698   7.638  36.374  13.503
54294W        W22699  29.340  17.692   0.905
54295W        W22700  40.616   8.648  11.984
54296W        W22701  38.320  33.710  11.093
54297W        W22702  11.915  41.127   3.082
54298W        W22703  32.737  35.829  12.327
54299W        W22704   9.176   3.611  14.408
54300W        W22705   1.482  31.095  11.156
54301W        W22706   4.388  38.906  11.361
54302W        W22707  37.463  12.116   1.224
54303W        W22708   5.359   4.251  14.766
54304W        W22709  39.983  35.215  11.913
54305W        W22710  35.057  22.663  11.446
54306W        W22711  43.094  23.981   3.132
54307W        W22712  25.451  28.114   2.936
54308W        W22713  20.031  20.953  12.345
54309W        W22714  41.492  11.773  11.236
54310W        W22715  15.769  29.754   1.961
54311W        W22716  11.319  27.182   1.276
54312W        W22717  40.116  28.450  11.953
54313W        W22718  37.569  37.343  14.429
54314W        W22719  10.154  20.574   2.313
54315W        W22720   0.320  13.655  13.329
54316W        W22721  25.488   0.859  11.613
54317W        W22722  20.697  28.448   3.375
54318W        W22723  36.904   6.407  10.741
54319W        W22724   5.728  37.377  11.094
54320W        W22725  37.827  42.325   0.410
54321W        W22726   3.903   3.160   2.124
54322W        W22727  19.593  41.025  10.654
54323W        W22728  23.256  20.342  14.514
54324W        W22729  26.709  41.369   2.826
54325W        W22730  41.482  43.347   4.375
54326W        W22731  29.622  17.520  14.891
54327W        W22732  43.239  17.750  13.977
54328W        W22733  19.898  27.117   2.647
54329W        W22734  40.458  19.471   2.347
54330W        W22735  21.916   0.474   3.673
54331W        W22736  35.856  38.802   1.315
54332W        W22737   8.902  16.731   0.382
54333W        W22738   2.759  15.815  14.006
54334W        W22739  23.279  32.018   2.339
54335W        W22740   0.754  14.553   2.856
54336W        W22741  10.217   6.391  14.313
54337W        W22742  29.205  35.845   1.146
54338W        W22743  42.877   1.190  11.510
54339W        W22744  38.326  28.751   1.918
54340W        W22745  33.505  20.708   1.944
54341W        W22746  16.685  20.165  14.544
54342W        W22747  38.755  26.446  13.031
54343W        W22748  21.789  16.380   1.237
54344W        W22749  21.124  18.067   3.724
54345W        W22750  10.855  19.756  12.527
54346W        W22751  36.047  40.323   4.890
54347W        W22752   0.415  34.566   3.137
54348W        W22753  13.209  18.263   1.821
54349W        W22754  24.702  29.097  13.419
54350W        W22755  33.841  26.811   1.793
54351W        W22756  32.940   2.544  13.837
54352W        W22757  26.101  43.314   0.312
54353W        W22758  10.935   1.377  14.769
54354W        W22759  44.874  14.227   0.745
54355W        W22760   7.768  30.534  11.148
54356W        W22761  25.990  35.162  11.585
54357W        W22762  40.425  24.099   5.010
54358W        W22763  18.836  12.047  13.475
54359W        W22764  33.496  18.174   1.246
54360W        W22765   1.784  34.218  12.063
54361W        W22766  14.316   1.263  13.282
54362W        W22767  39.971   2.965  13.943
54363W        W22768  35.645  12.183  12.538
54364W        W22769   1.283  35.923   1.803
54365W        W22770   6.230  11.452   3.719
54366W        W22771  42.488  35.993   3.341
54367W        W22772   1.973  20.290  14.105
54368W        W22773  20.652  14.674   1.707
54369W        W22774  31.709  13.211   4.976
54370W        W22775  25.690  37.831  11.981
54371W        W22776   5.357  23.121  13.382
54372W        W22777  35.492  13.543   4.801
54373W        W22778   3.859  39.016   2.227
54374W        W22779  17.041  28.100  13.418
54375W        W22780   0.557  44.331  12.551
54376W        W22781   8.191  29.848  12.177
54377W        W22782  18.298  40.382   2.732
54378W        W22783  40.045   4.714   2.650
54379W        W22784  30.222   3.583  11.084
54380W        W22785  30.892   0.014  12.385
54381W        W22786  40.949   3.495   0.894
54382W        W22787  38.038  30.562   0.376
54383W        W22788  11.220  25.938   3.148
54384W        W22789   0.683  12.375   3.864
54385W        W22790  37.562  21.687  10.334
54386W        W22791  24.430  18.985  13.483
54387W        W22792   4.913  35.553   2.785
54388W        W22793  11.640  10.036  11.214
54389W        W22794  40.486   2.517  10.612
54390W        W22795  41.504  29.252   4.634
54391W        W22796  32.004   3.298   1.308
54392W        W22797  18.727  36.324  11.194
54393W        W22798  39.560  21.172   0.718
54394W        W22799   2.133  32.176   4.144
54395W        W22800  34.609  29.840  11.103
54396W        W22801   0.407  16.821  13.763
54397W        W22802  20.241  28.893   1.161
54398W        W22803  41.795   5.516  11.156
54399W        W22804   3.782  17.584  13.539
54400W        W22805  23.707   8.843  12.276
54401W        W22806  29.222  25.629  13.613
54402W        W22807  10.325  34.012   3.861
54403W        W22808  23.713  21.208  10.883
54404W        W22809  32.671  24.609   3.717
54405W        W22810  26.371  34.524  12.736
54406W        W22811  39.465  13.209   1.284
54407W        W22812  16.493  35.052   3.181
54408W        W22813  28.390  18.709   2.644
54409W        W22814  40.586   3.166   2.546
54410W        W22815  28.582  32.083  13.299
54411W        W22816  34.499   9.298   4.688
54412W        W22817   8.245  37.259   2.766
54413W        W22818  37.711  37.138  14.908
54414W        W22819  17.810  27.534  12.537
54415W        W22820  33.517  27.973   4.837
54416W        W22821  39.029  33.471   0.223
54417W        W22822  21.764  23.531  10.702
54418W        W22823  24.219   3.411   1.349
54419W        W22824  28.614   6.823   0.908
54420W        W22825   3.290  29.161  13.838
54421W        W22826  16.212   3.051  11.606
54422W        W22827  12.291   4.252  12.609
54423W        W22828   4.927  18.345   4.381
54424W        W22829  20.241   6.886   1.988
54425W        W22830   8.463   9.410  14.807
54426W        W22831  36.845   0.871  14.277
54427W        W22832  12.385  40.326   3.131
54428W        W22833  44.341  11.519   9.866
54429W        W22834   8.696  36.463  13.866
54430W        W22835   3.426  17.799  14.351
54431W        W22836   0.367  18.739  14.351
54432W        W22837   1.350   5.492  12.130
54433W        W22838  40.740  18.817  11.647
54434W        W22839   3.932  28.140  10.677
54435W        W22840  21.138  37.819   0.212
54436W        W22841  34.945  34.725  10.298
54437W        W22842   8.695  37.387  12.366
54438W        W22843  30.640  22.977   1.468
54439W        W22844   4.458   5.200   5.106
54440W        W22845  21.157  20.044  11.053
54441W        W22846  35.913  25.955  14.762
54442W        W22847   0.841  13.219  10.927
54443W        W22848  11.307  24.898  13.381
54444W        W22849  40.322   0.093   2.026
54445W        W22850   5.970  38.995  12.823
54446W        W22851  42.089   2.428   3.138
54447W        W22852  41.082  36.634   1.505
54448W        W22853  17.188  28.043   4.966
54449W        W22854  41.107  15.808   3.774
54450W        W22855  19.776   3.358   9.823
54451W        W22856  44.346  24.602   3.337
54452W        W22857  38.453  13.900   3.198
54453W        W22858  37.353  28.944  13.978
54454W        W22859  29.092   1.299  12.088
54455W        W22860  33.811  28.357  10.929
54456W        W22861  41.745  37.155   2.462
54457W        W22862  27.233   3.052   2.455
54458W        W22863  14.099  20.776   0.892
54459W        W22864   9.179  18.248   3.365
54460W        W22865   5.087  42.350   2.358
54461W        W22866  21.670  18.359   2.629
54462W        W22867  29.200  31.041   3.026
54463W        W22868  24.147  29.566  14.956
54464W        W22869  37.305  29.854   2.341
54465W        W22870  17.187   6.802   9.718
54466W        W22871  38.530   8.177   4.589
54467W        W22872  24.603  27.211   1.881
54468W        W22873  35.391  36.105  13.898
54469W        W22874  28.923  39.010  11.531
54470W        W22875  33.897  19.670   2.686
54471W        W22876  37.872  37.430   1.362
54472W        W22877   1.800  23.490   3.938
54473W        W22878  13.323  40.321  12.962
54474W        W22879  36.096  38.541  12.482
54475W        W22880  43.990  44.711   0.810
54476W        W22881  17.165   6.676   5.387
54477W        W22882  21.386  33.505   0.712
54478W        W22883  43.787  43.000   2.860
54479W        W22884   6.347   2.686   0.212
54480W        W22885  43.237  43.314   2.150
54481W        W22886  10.641  36.809  11.174
54482W        W22887   4.217  23.338   0.740
54483W        W22888  17.558  20.752  12.741
54484W        W22889  15.119   9.778   3.429
54485W        W22890  40.598   4.213   4.081
54486W        W22891   7.365  39.617   0.931
54487W        W22892  32.034  42.836  11.279
54488W        W22893  18.801   5.394   1.725
54489W        W22894  15.670  32.030   2.362
54490W        W22895  23.017  42.309  14.504
54491W        W22896  42.648  11.590   3.126
54492W        W22897  18.661  26.221  13.877
54493W        W22898  44.855  39.845  11.532
54494W        W22899  15.866  31.559  11.337
54495W        W22900  18.036  26.558  10.605
54496W        W22901   2.477  37.903  10.490
54497W        W22902   4.006   6.666  13.967
54498W        W22903   7.759  28.675   2.195
54499W        W22904  10.875  12.805  10.739
54500W        W22905  18.797  32.512  10.760
54501W        W22906  37.591  44.220  10.130
54502W        W22907   6.947  15.066   1.941
54503W        W22908   1.552   7.770  13.995
54504W        W22909  38.186   8.924  12.069
54505W        W22910  11.755  27.465   0.310
54506W        W22911  15.125   4.790  11.250
54507W        W22912  20.458  19.190  13.791
54508W        W22913  41.949   7.390  10.670
54509W        W22914  14.762  27.867   2.189
54510W        W22915   1.244  14.699  10.615
54511W        W22916  10.921  32.528  11.021
54512W        W22917  22.530   2.388  13.108
54513W        W22918  14.699  16.067   0.316
54514W        W22919  27.928  26.263  12.821
54515W        W22920  21.077  30.258   3.128
54516W        W22921  10.135  36.750   4.073
54517W        W22922  33.507  17.807   0.012
54518W        W22923  29.457  44.328   3.329
54519W        W22924   9.160   4.952  14.325
54520W        W22925  19.731  32.976   1.211
54521W        W22926  18.162  14.091   2.326
54522W        W22927  18.584  44.024   0.518
54523W        W22928  13.114  10.825   0.827
54524W        W22929  26.642  42.517   3.198
54525W        W22930  14.731  30.652   0.308
54526W        W22931  19.732  24.990   1.706
54527W        W22932  29.526  21.210  10.432
54528W        W22933  35.143  18.885   1.540
54529W        W22934   4.188  24.971   4.160
54530W        W22935   2.890  23.729  13.433
54531W        W22936  43.527  40.617   0.837
54532W        W22937  39.110  24.147   2.060
54533W        W22938  31.425  32.171  13.505
54534W        W22939  25.533   2.763   4.944
54535W        W22940  37.902  28.228   4.879
54536W        W22941  39.274  21.550   0.979
54537W        W22942  30.187  37.246   3.537
54538W        W22943   9.673   4.717   2.766
54539W        W22944  21.054   9.470   9.980
54540W        W22945   8.721  24.157   4.533
54541W        W22946  39.808   2.435  11.133
54542W        W22947   7.826  37.948   2.810
54543W        W22948  20.662  32.706   3.339
54544W        W22949   5.667  33.341  12.607
54545W        W22950  38.820  43.657  12.162
54546W        W22951  33.937  12.077   0.919
54547W        W22952  40.084  42.034   2.207
54548W        W22953  30.874  33.050   4.263
54549W        W22954   2.177  29.297  14.456
54550W        W22955  17.025   4.499   0.915
54551W        W22956  44.714   1.402   1.671
54552W        W22957  14.444  28.084   1.834
54553W        W22958  14.676   8.301  13.411
54554W        W22959  12.915  11.386  13.280
54555W        W22960  24.051  12.354   0.990
54556W        W22961  24.775  43.733  13.299
54557W        W22962  42.097  20.500   2.667
54558W        W22963  28.996   1.061  14.873
54559W        W22964  36.859  39.924   2.849
54560W        W22965  30.417  22.520  12.478
54561W        W22966  22.505   6.857  11.953
54562W        W22967  20.064  37.644  14.476
54563W        W22968  10.934  12.960   4.565
54564W        W22969  32.590  21.666  10.670
54565W        W22970  33.622   5.304   3.788
54566W        W22971  21.968   9.254   3.159
54567W        W22972  37.190  21.971  11.577
54568W        W22973   1.886  17.321   3.291
54569W        W22974  19.841  28.181   0.709
54570W        W22975  43.428  41.984  14.422
54571W        W22976  36.881  37.747  12.577
54572W        W22977  18.514  12.746   2.329
54573W        W22978  37.842  36.926   1.352
54574W        W22979  16.786  44.533   4.113
54575W        W22980   1.242  12.546   2.070
54576W        W22981  34.917  41.474   0.694
54577W        W22982  24.097  44.806  11.276
54578W        W22983  10.831  25.446   1.205
54579W        W22984  13.201  30.588  13.802
54580W        W22985   6.687  18.355  11.551
54581W        W22986  35.068  31.910  10.742
54582W        W22987   1.326  15.624  11.047
54583W        W22988  41.634  40.079   0.542
54584W        W22989  39.077  15.192  14.787
54585W        W22990   9.848  12.318   3.759
54586W        W22991  33.190  26.170   2.839
54587W        W22992  43.977  16.999  14.585
54588W        W22993   4.779   0.032   0.867
54589W        W22994   6.356  16.595  12.865
54590W        W22995  37.580   2.328  12.217
54591W        W22996   5.926  34.546  11.736
54592W        W22997   8.051   2.111  11.594
54593W        W22998   0.241  26.017  14.546
54594W        W22999  26.164  23.122   1.413
54595W        W23000  11.815  37.055   0.479
54596W        W23001  24.435  21.990   1.778
54597W        W23002  33.315  19.330  13.422
54598W        W23003  18.079  33.954   1.906
54599W        W23004  36.252  10.209  14.211
54600W        W23005  33.027  19.234  10.766
54601W        W23006  39.420  35.486  11.445
54602W        W23007  10.442   0.407  10.573
54603W        W23008  16.828  10.709  11.506
54604W        W23009  21.208   4.229  14.359
54605W        W23010   4.990   2.502  12.443
54606W        W23011   2.455  33.527   0.174
54607W        W23012  11.765  27.649   4.223
54608W        W23013  43.750  24.758  10.876
54609W        W23014  34.385   3.730   1.304
54610W        W23015  18.230   3.221  11.855
54611W        W23016  25.073   1.912   2.095
54612W        W23017  10.437  24.162   3.200
54613W        W23018  28.047  44.058   3.063
54614W        W23019   5.213  26.456  13.427
54615W        W23020  42.089  11.238  12.435
54616W        W23021  36.457  33.340   0.322
54617W        W23022  29.170  20.970   2.684
54618W        W23023   4.397  11.216   1.348
54619W        W23024   8.596   3.732   0.474
54620W        W23025  44.366  17.996   3.180
54621W        W23026  19.326   3.742   5.061
54622W        W23027   4.578   3.557  14.337
54623W        W23028  37.591  34.118   0.936
54624W        W23029  34.910  13.904   4.310
54625W        W23030  30.727  25.220   3.742
54626W        W23031  28.888   2.444  14.907
54627W        W23032   3.803   5.661  14.075
54628W        W23033  22.721   4.374   4.371
54629W        W23034   0.930  37.537  10.775
54630W        W23035  41.405  11.660   0.713
54631W        W23036  29.464  21.886  12.539
54632W        W23037  12.255   7.757   3.996
54633W        W23038  11.504  14.665   0.652
54634W        W23039  25.292  23.218   0.877
54635W        W23040   3.934   9.353  12.609
54636W        W23041   2.255  42.939  11.967
54637W        W23042  27.576   9.401   3.700
54638W        W23043  28.312  44.384  10.622
54639W        W23044  43.193  38.529   3.189
54640W        W23045  43.191   8.223   2.716
54641W        W23046   2.470   9.278  13.521
54642W        W23047   9.343  11.418  10.685
54643W        W23048   8.933  38.052   2.760
54644W        W23049  28.489   3.791  13.404
54645W        W23050  26.980  20.576  11.625
54646W        W23051  21.289  26.573  14.101
54647W        W23052  28.723   4.921   2.227
54648W        W23053  21.307  21.674  13.097
54649W        W23054  19.101  17.574  11.979
54650W        W23055  44.775  26.426  10.800
54651W        W23056  17.830  21.668  10.238
54652W        W23057  36.596  28.062   4.330
54653W        W23058  20.007   9.833   2.645
54654W        W23059  39.827   0.579  14.058
54655W        W23060  20.552  10.568  11.700
54656W        W23061  14.266  30.052  10.906
54657W        W23062  44.877  10.083   1.619
54658W        W23063  30.198  42.983   3.246
54659W        W23064  24.257  17.549   3.392
54660W        W23065  28.649  35.341   4.161
54661W        W23066  22.785  26.424  12.464
54662W        W23067  35.498  21.427  14.873
54663W        W23068  40.292  22.056   0.262
54664W        W23069  34.568  41.699  11.546
54665W        W23070  41.382  30.902   5.141
54666W        W23071  20.943  23.908  11.518
54667W        W23072   7.951  26.411   4.077
54668W        W23073  29.390  24.563   1.068
54669W        W23074  24.232  15.552   2.585
54670W        W23075  28.826  16.053   4.970
54671W        W23076  42.969  10.057  12.421
54672W        W23077   2.398  10.444   3.797
54673W        W23078  19.110  44.615   4.831
54674W        W23079  29.697  26.107   0.395
54675W        W23080  44.414   9.703  11.211
54676W        W23081   7.221  12.755   1.702
54677W        W23082   9.097   2.472   0.266
54678W        W23083  33.358   8.618   2.503
54679W        W23084   1.938  44.934   1.274
54680W        W23085  21.579  15.917   1.309
54681W        W23086  24.221  12.926   4.854
54682W        W23087  24.483  23.701   2.765
54683W        W23088  34.527   9.719   0.037
54684W        W23089  10.838  14.947   2.681
54685W        W23090  28.133  41.969   1.389
54686W        W23091  15.636  20.670  10.172
54687W        W23092  42.825  13.326   4.256
54688W        W23093  22.279  29.390  10.721
54689W        W23094  25.559  14.178  12.379
54690W        W23095  10.867   8.318  12.735
54691W        W23096  31.366  22.998  14.069
54692W        W23097   9.768  10.648  14.003
54693W        W23098  31.836   9.940  14.005
54694W        W23099   5.474   4.445   4.794
54695W        W23100  26.648  23.269  13.447
54696W        W23101   5.980   0.969  12.363
54697W        W23102   2.978  24.571   1.410
54698W        W23103   8.183  23.762  12.611
54699W        W23104  43.274  29.693  14.030
54700W        W23105  29.536  33.991  12.880
54701W        W23106  14.552  25.610  13.335
54702W        W23107   2.663  44.303   0.329
54703W        W23108  18.709  34.960   3.140
54704W        W23109  24.268   1.698   4.201
54705W        W23110   9.135  12.183  14.530
54706W        W23111  26.507  41.425   0.446
54707W        W23112  30.518   4.939  13.638
54708W        W23113  33.114   6.702   3.200
54709W        W23114  30.166  23.234  14.800
54710W        W23115  10.196  40.254  13.387
54711W        W23116   5.356  44.143  11.508
54712W        W23117  40.024  30.560   1.247
54713W        W23118  28.890   7.284   4.741
54714W        W23119  41.949  21.637  14.069
54715W        W23120  23.968  29.118  14.695
54716W        W23121  20.566   8.773  14.332
54717W        W23122  13.817  15.616   0.254
54718W        W23123  16.002  39.948   0.038
54719W        W23124   6.508  21.274  12.468
54720W        W23125  18.764  44.777  14.486
54721W        W23126   9.226   6.850   4.278
54722W        W23127  11.053  31.766   4.976
54723W        W23128  23.109  13.802  12.889
54724W        W23129   4.787  19.559   3.249
54725W        W23130  36.070  10.676   2.485
54726W        W23131  43.200  42.933  12.989
54727W        W23132  41.955  28.694  10.989
54728W        W23133  31.347   3.627   0.751
54729W        W23134   4.280   7.915   2.310
54730W        W23135  38.862  23.053  14.154
54731W        W23136  33.564   0.728  12.948
54732W        W23137  29.189  23.135  14.332
54733W        W23138  32.946  33.153  11.614
54734W        W23139  43.117  36.489  11.339
54735W        W23140  14.417  15.507  13.416
54736W        W23141  18.608  25.348   5.015
54737W        W23142  12.344   2.455  10.735
54738W        W23143  26.609   3.350   0.721
54739W        W23144   4.784  40.786  12.889
54740W        W23145  18.591   2.180   1.885
54741W        W23146  29.506  28.757   1.912
54742W        W23147  20.472   9.696   0.887
54743W        W23148   6.253  40.290   1.512
54744W        W23149  37.013  30.990  14.750
54745W        W23150  20.697   1.410  11.526
54746W        W23151  31.570  23.254  14.545
54747W        W23152  26.947  23.757   3.320
54748W        W23153  39.990  30.085  14.911
54749W        W23154  26.950   9.377  12.385
54750W        W23155  20.008   3.335  12.080
54751W        W23156  30.540  27.716  14.532
54752W        W23157  33.887  12.671   0.275
54753W        W23158  28.183  34.113   3.335
54754W        W23159   5.785  40.814   4.886
54755W        W23160   4.791  21.345   4.377
54756W        W23161  20.162  41.877  14.314
54757W        W23162  11.473   1.896  13.917
54758W        W23163   5.452  16.708  14.893
54759W        W23164  26.901  29.379   4.223
54760W        W23165  15.234  23.736   0.074
54761W        W23166  40.476  34.838  14.053
54762W        W23167   1.793  27.239   3.426
54763W        W23168   7.889  36.445  14.493
54764W        W23169  38.375  24.952   0.580
54765W        W23170  31.485  14.135  11.215
54766W        W23171  41.140  36.380   4.622
54767W        W23172  37.010   6.917   3.636
54768W        W23173  23.976  38.549  14.592
54769W        W23174  28.287  39.583   9.896
54770W        W23175  21.285  11.135   2.788
54771W        W23176   5.168  13.682  11.658
54772W        W23177  39.324  17.260   4.319
54773W        W23178  44.929  21.766   4.922
54774W        W23179   4.742  41.325  13.679
54775W        W23180  40.338  21.621  13.463
54776W        W23181   2.131  44.262  11.897
54777W        W23182   1.308  26.994   1.702
54778W        W23183  17.767  27.179   3.105
54779W        W23184  36.459   2.490  13.806
54780W        W23185  16.043  17.076  11.569
54781W        W23186  37.077  44.286  13.870
54782W        W23187  29.670  38.253  12.424
54783W        W23188  28.449  42.221   4.141
54784W        W23189  21.208  22.562   4.569
54785W        W23190  35.420  34.900  11.943
54786W        W23191  35.613  28.522  10.742
54787W        W23192  13.640   9.396   1.136
54788W        W23193  29.147  15.468  11.532
54789W        W23194   7.962   9.253  14.723
54790W        W23195  15.787  33.541   2.474
54791W        W23196  43.470  17.518  12.912
54792W        W23197  36.931  22.526   1.238
54793W        W23198  28.965  14.924  12.236
54794W        W23199  24.784  44.149   2.437
54795W        W23200  28.413  38.957  11.469
54796W        W23201   2.070  35.221   2.644
54797W        W23202   3.712  39.820   3.276
54798W        W23203  36.575   4.074   0.726
54799W        W23204  11.228  18.149  10.962
54800W        W23205  20.545  42.486   4.665
54801W        W23206  15.696  37.142  10.548
54802W        W23207  18.276  28.602  14.000
54803W        W23208   7.244  24.253   3.768
54804W        W23209  31.783  31.128   1.797
54805W        W23210   4.737  32.074   4.141
54806W        W23211   2.031   1.225  10.559
54807W        W23212  36.579  37.059  14.007
54808W        W23213   4.409   3.944   3.678
54809W        W23214   5.858  11.352  11.906
54810W        W23215   1.742  26.695   0.929
54811W        W23216  22.141   1.374  11.355
54812W        W23217  38.744  17.622   1.876
54813W        W23218  27.548  42.545  10.985
54814W        W23219  24.621   3.929  13.103
54815W        W23220  37.992  37.007  12.481
54816W        W23221  44.897  20.787   3.140
54817W        W23222  40.525  10.922  14.419
54818W        W23223   2.458  26.059   2.866
54819W        W23224  31.912  20.969  14.841
54820W        W23225  24.729  17.652  11.417
54821W        W23226  11.384  41.371   3.117
54822W        W23227  28.945  40.168   3.690
54823W        W23228  12.207  18.097  13.123
54824W        W23229   5.258  29.539  11.413
54825W        W23230   6.870  33.959  14.744
54826W        W23231  22.811   8.282   2.753
54827W        W23232  16.079  30.498  11.520
54828W        W23233  27.858  11.643  10.771
54829W        W23234  16.098  27.220   3.011
54830W        W23235  22.433   0.871  12.400
54831W        W23236  38.566  30.411  14.247
54832W        W23237  21.596   5.804   0.834
54833W        W23238  40.149  36.335   5.001
54834W        W23239  24.006  16.254  11.540
54835W        W23240  26.973  32.150  12.896
54836W        W23241  32.889  37.863  10.636
54837W        W23242  15.156   9.246   5.044
54838W        W23243  27.957   8.111   3.446
54839W        W23244  17.776   8.642   4.147
54840W        W23245   9.651  12.727  14.076
54841W        W23246   4.522  32.356   4.527
54842W        W23247  27.469  26.429   3.722
54843W        W23248  16.766  40.773   1.901
54844W        W23249  41.869   9.293   3.466
54845W        W23250   1.871  38.661   3.090
54846W        W23251  44.653  19.313  14.922
54847W        W23252  16.009   9.236   2.240
54848W        W23253   6.664  43.982   3.923
54849W        W23254   0.312  13.201   3.418
54850W        W23255  28.879  20.621   3.285
54851W        W23256  33.976   4.292  11.484
54852W        W23257  16.622  15.535   0.831
54853W        W23258  42.033  19.816   3.387
54854W        W23259  25.001   9.784  10.526
54855W        W23260  34.915   0.754   4.580
54856W        W23261  21.333  10.769   3.257
54857W        W23262   7.016  21.269  14.092
54858W        W23263  25.037  31.394  13.553
54859W        W23264  16.130  11.023   3.955
54860W        W23265  41.859  30.815   0.244
54861W        W23266  34.141  11.090   1.797
54862W        W23267  21.718  38.046  13.810
54863W        W23268  35.839  32.717   3.270
54864W        W23269   3.231   5.450   1.812
54865W        W23270  10.691  33.395  12.065
54866W        W23271  17.632  38.595  10.378
54867W        W23272   4.297  31.944  14.904
54868W        W23273  16.747  41.276   4.079
54869W        W23274  19.262   2.902  13.283
54870W        W23275  32.870  37.516  11.157
54871W        W23276  29.215  39.094  14.356
54872W        W23277  10.558  12.019  10.485
54873W        W23278  44.933  26.960  11.467
54874W        W23279   5.455  23.986  12.952
54875W        W23280  35.301  26.629   4.532
54876W        W23281   1.177  42.412   4.206
54877W        W23282  39.273  38.770  13.418
54878W        W23283  14.067   2.867  11.967
54879W        W23284  15.410  34.070  11.619
54880W        W23285  39.784  18.155  13.356
54881W        W23286  42.143   3.143  12.455
54882W        W23287   9.629  12.158  14.825
54883W        W23288  23.360  28.142   3.276
54884W        W23289  11.318  25.533  13.840
54885W        W23290   4.142  41.347   0.792
54886W        W23291  24.532   4.781   0.852
54887W        W23292  23.416  42.506   3.296
54888W        W23293  33.082  28.462  13.181
54889W        W23294  22.498  19.446   0.937
54890W        W23295  30.121  28.275  14.257
54891W        W23296  43.403   7.199  13.142
54892W        W23297  15.665   4.274  13.233
54893W        W23298  28.711  38.398  11.910
54894W        W23299   3.928  39.769  10.223
54895W        W23300  26.379  12.293   2.678
54896W        W23301   1.528   1.211  14.399
54897W        W23302   7.175  12.072   0.023
54898W        W23303  23.696  42.361  10.678
54899W        W23304  27.477  42.551   1.800
54900W        W23305  29.103  37.570   4.593
54901W        W23306  33.422  20.130  13.818
54902W        W23307   9.869   7.533  12.008
54903W        W23308   9.845  12.395  12.475
54904W        W23309  19.505  39.792  14.539
54905W        W23310  30.308   0.187  10.758
54906W        W23311  25.309   5.726  12.538
54907W        W23312  12.638  34.216  12.546
54908W        W23313  17.390  34.618  10.471
54909W        W23314  37.825   2.704  12.972
54910W        W23315  26.068  21.771  14.854
54911W        W23316  26.745  41.362  11.008
54912W        W23317  37.626   0.386  14.214
54913W        W23318  40.054  44.039  13.995
54914W        W23319   0.944   4.374   4.111
54915W        W23320  44.046  35.111  12.538
54916W        W23321  21.015  34.021   3.460
54917W        W23322  34.611  37.846  12.144
54918W        W23323  34.341  29.915  11.964
54919W        W23324   7.321  31.382  11.798
54920W        W23325  15.967  11.466  12.100
54921W        W23326  39.809   2.652   3.663
54922W        W23327  15.029  44.604   2.841
54923W        W23328  39.527  34.023  13.558
54924W        W23329  16.339  20.111  14.958
54925W        W23330   3.125  13.075   4.675
54926W        W23331  21.314  20.336   0.955
54927W        W23332  11.269  39.089   3.779
54928W        W23333  33.426  29.589  14.027
54929W        W23334  38.780  32.643   4.081
54930W        W23335  23.730  31.576   2.294
54931W        W23336   8.211   7.796   4.663
54932W        W23337  33.653   7.825  13.000
54933W        W23338  32.720  36.099   2.683
54934W        W23339   5.813   0.222   3.269
54935W        W23340   2.206  22.336  10.229
54936W        W23341  10.895  27.011   0.240
54937W        W23342  17.061  29.278  11.823
54938W        W23343   3.829   9.915  14.325
54939W        W23344  28.101  32.162   0.823
54940W        W23345  20.339  19.513  10.044
54941W        W23346  11.162  35.470   0.098
54942W        W23347  12.786  24.103  13.734
54943W        W23348  15.379  16.181   1.890
54944W        W23349  16.366  11.003   4.452
54945W        W23350  20.113  34.951   0.511
54946W        W23351   3.845  44.707  12.494
54947W        W23352  29.809  17.481  11.223
54948W        W23353  21.169  35.223  13.955
54949W        W23354   4.797  33.237  14.761
54950W        W23355  29.457  27.815  12.376
54951W        W23356  27.553  23.020   1.786
54952W        W23357  30.971  39.703   1.795
54953W        W23358  38.020   0.564  11.607
54954W        W23359  32.328   2.564   3.004
54955W        W23360  18.049  22.252   4.456
54956W        W23361  39.136  30.618   2.586
54957W        W23362  44.382   3.473  11.727
54958W        W23363  31.654  22.045  11.299
54959W        W23364  42.265  15.517  14.853
54960W        W23365  25.784  28.239  14.546
54961W        W23366   4.539  42.521   1.067
54962W        W23367  12.130  17.313  12.654
54963W        W23368   7.678  31.960  12.330
54964W        W23369  24.996  41.827   2.550
54965W        W23370  18.135  40.882   3.670
54966W        W23371  29.425  18.565   2.771
54967W        W23372   6.422  33.463   2.797
54968W        W23373  26.964  12.816  14.891
54969W        W23374  19.120  20.363  11.906
54970W        W23375   2.374  27.968   0.369
54971W        W23376   4.835  16.049   0.412
54972W        W23377  21.198  33.347  14.342
54973W        W23378   2.809  13.866   2.082
54974W        W23379  21.229  44.113   1.250
54975W        W23380  32.821  11.968   1.381
54976W        W23381   0.736  39.580  13.476
54977W        W23382  22.733  23.281   0.601
54978W        W23383  29.078  41.889  11.048
54979W        W23384  13.989  27.164  11.044
54980W        W23385  43.760   4.621   1.798
54981W        W23386  34.279  24.257  12.837
54982W        W23387  23.996  13.909   1.903
54983W        W23388  39.549  22.548  10.711
54984W        W23389  35.485  24.097  13.499
54985W        W23390  37.095  27.672   3.717
54986W        W23391  20.965   9.238  11.205
54987W        W23392  17.669  42.866  10.683
54988W        W23393   7.614   2.219   0.287
54989W        W23394  11.999  36.162   0.350
54990W        W23395  27.161  31.513   1.128
54991W        W23396  15.882  34.147  13.204
54992W        W23397   1.726  34.720  12.146
54993W        W23398   1.769   0.181   0.847
54994W        W23399   0.087  16.199   0.859
54995W        W23400   3.682  23.475   2.252
54996W        W23401  42.339  32.627  12.847
54997W        W23402  23.647  30.020   4.017
54998W        W23403  16.321   6.487   3.355
54999W        W23404  17.255  32.779   2.693
55000W        W23405   4.462  42.007   4.177
55001W        W23406  23.484  21.464  11.421
55002W        W23407  16.223  35.057  14.902
55003W        W23408  40.538  44.149  12.791
55004W        W23409  10.145  14.621   1.681
55005W        W23410  13.945  20.368  11.808
55006W        W23411  18.218  21.481  11.082
55007W        W23412   1.372  10.729  10.685
55008W        W23413   6.234  18.643   1.336
55009W        W23414   0.374  11.699   2.948
55010W        W23415  37.444  41.531  12.924
55011W        W23416   1.469   0.110   4.560
55012W        W23417  10.294  13.787   3.563
55013W        W23418  16.142  32.378   3.649
55014W        W23419  30.102  40.798   3.138
55015W        W23420  30.976   4.346   2.469
55016W        W23421  32.038  36.957   0.608
55017W        W23422  37.321  30.645  13.142
55018W        W23423   1.209  44.703   4.348
55019W        W23424  18.790  18.198  13.881
55020W        W23425  23.082  26.406  13.278
55021W        W23426   6.357  13.323  14.894
55022W        W23427  16.714  25.674  13.063
55023W        W23428   8.163  21.484   5.138
55024W        W23429  32.043  31.472  14.684
55025W        W23430   8.796  22.722   4.052
55026W        W23431   6.311  27.041  12.764
55027W        W23432   6.133  15.759  11.527
55028W        W23433  15.905  29.332  13.557
55029W        W23434  16.694  32.165   3.284
55030W        W23435  29.607   1.195   3.724
55031W        W23436   8.920   6.219  11.067
55032W        W23437  12.551  13.247  10.887
55033W        W23438   2.794  21.231   3.741
55034W        W23439  40.416  42.518   3.211
55035W        W23440  17.464  39.524  10.642
55036W        W23441  34.294  10.854  10.696
55037W        W23442  23.685  37.510  13.878
55038W        W23443  19.282   4.432   1.333
55039W        W23444  38.937  14.138   3.275
55040W        W23445   2.978  32.447   0.781
55041W        W23446  28.982   0.821   2.654
55042W        W23447  16.848  38.650  11.842
55043W        W23448   6.780  42.116  11.966
55044W        W23449   9.840   9.608  11.785
55045W        W23450  30.544  43.250   2.165
55046W        W23451  27.477  35.146  11.660
55047W        W23452  16.510   6.982   3.274
55048W        W23453  40.334  43.745   2.689
55049W        W23454  16.228  29.570   0.254
55050W        W23455  26.471   7.744   4.568
55051W        W23456   7.190   6.344  12.021
55052W        W23457   5.354  20.627   1.471
55053W        W23458  24.615  35.607   3.727
55054W        W23459  17.261  28.612   1.355
55055W        W23460   9.305  17.645  11.349
55056W        W23461  19.657   4.326   3.309
55057W        W23462   8.865   9.308  10.668
55058W        W23463  19.582  30.970   4.483
55059W        W23464  33.851  37.219  14.979
55060W        W23465  10.792  15.144   1.233
55061W        W23466   8.725  14.824   0.939
55062W        W23467   3.491  34.991   0.830
55063W        W23468   7.648  35.597  14.795
55064W        W23469  31.187  17.740   4.199
55065W        W23470  34.451  43.706   1.847
55066W        W23471  15.320  20.999   0.849
55067W        W23472  35.542  24.785   3.587
55068W        W23473  41.810  30.143  12.041
55069W        W23474   5.274  14.713  12.458
55070W        W23475  11.387   0.381   3.656
55071W        W23476   4.439  23.223  12.865
55072W        W23477   5.353  18.559   4.199
55073W        W23478  44.446  11.844   2.465
55074W        W23479   1.675   7.327  12.986
55075W        W23480  16.165  14.685  10.932
55076W        W23481  18.699  19.662   0.447
55077W        W23482  27.525   3.431   2.703
55078W        W23483  20.626  41.300   2.799
55079W        W23484  20.550  10.012  12.311
55080W        W23485  23.672  21.510   1.806
55081W        W23486  31.336  39.424   3.599
55082W        W23487  30.656   9.233  12.349
55083W        W23488  38.525  38.416   9.678
55084W        W23489  29.954  40.177   3.277
55085W        W23490  16.604   9.114  13.347
55086W        W23491  24.162  27.757  13.467
55087W        W23492  33.768  38.825   2.796
55088W        W23493  28.318  36.743  14.477
55089W        W23494  32.966   8.917  13.237
55090W        W23495  33.367  31.641  14.770
55091W        W23496  21.146  39.119   0.811
55092W        W23497  15.627  12.413   0.750
55093W        W23498   6.458  43.374   1.991
55094W        W23499   4.077  42.852  14.546
55095W        W23500  37.056  10.201  10.776
55096W        W23501   2.176  43.951   3.837
55097W        W23502   9.807  41.853   2.963
55098W        W23503  14.377  40.945   1.770
55099W        W23504  36.864  25.231   2.202
55100W        W23505  11.283  21.594   2.400
55101W        W23506  26.902  26.015  14.755
55102W        W23507   5.296  26.600   0.386
55103W        W23508  15.115  10.729   3.226
55104W        W23509  30.548  44.251   1.963
55105W        W23510  18.781   0.572  11.273
55106W        W23511  13.016   6.138  11.547
55107W        W23512  34.616   5.237   2.146
55108W        W23513   7.632  24.106   1.751
55109W        W23514   1.748   6.212   3.251
55110W        W23515  30.424  16.257   0.730
55111W        W23516  39.853  18.606   1.648
55112W        W23517  31.993  26.488  10.808
55113W        W23518  13.239  40.509  12.476
55114W        W23519  41.023  35.765  11.167
55115W        W23520  10.367  35.484  12.346
55116W        W23521  41.916  12.884   0.889
55117W        W23522   6.196  18.846   1.941
55118W        W23523  33.097  38.551  14.005
55119W        W23524  13.231  21.274   4.142
55120W        W23525  37.055   8.252   0.691
55121W        W23526  11.815  23.748   0.962
55122W        W23527  26.328   6.035  10.134
55123W        W23528   9.660  13.652   1.156
55124W        W23529  17.290   5.714   1.486
55125W        W23530   9.300  42.436   3.832
55126W        W23531  25.626  32.968   1.341
55127W        W23532  37.279   0.013   1.315
55128W        W23533   6.378  27.751  11.012
55129W        W23534  35.178  16.156  14.018
55130W        W23535  25.063  35.456  13.544
55131W        W23536  37.408  16.236  12.667
55132W        W23537  18.673   4.606   1.295
55133W        W23538   3.786  23.740   4.203
55134W        W23539  22.517  42.228   2.717
55135W        W23540  26.946   8.246   3.154
55136W        W23541  19.606   1.241   3.290
55137W        W23542  36.043   3.010  13.429
55138W        W23543  37.524  31.047   1.143
55139W        W23544  27.174  14.604   0.838
55140W        W23545  27.429  26.822   2.730
55141W        W23546  40.110  36.855   1.479
55142W        W23547  31.224  16.694  11.478
55143W        W23548  25.916  44.787   0.807
55144W        W23549  18.085  11.236  13.431
55145W        W23550  27.101  44.824  10.756
55146W        W23551  16.519  30.414   4.724
55147W        W23552  27.733  43.884  12.485
55148W        W23553  43.171  26.608  14.153
55149W        W23554  40.696  35.355   4.591
55150W        W23555   5.189  38.707  10.054
55151W        W23556  23.221  40.279  12.359
55152W        W23557   8.787  11.371   0.243
55153W        W23558   9.698   6.711   1.942
55154W        W23559   6.753  11.448  13.162
55155W        W23560  11.861  44.495   3.850
55156W        W23561  15.314  24.392  12.017
55157W        W23562  40.057  26.596   3.902
55158W        W23563  12.326  39.032   0.505
55159W        W23564   1.767   8.371   4.668
55160W        W23565  15.558  25.412  11.976
55161W        W23566  26.575  39.460   4.114
55162W        W23567  21.028  32.209  10.276
55163W        W23568  31.902  39.608  10.741
55164W        W23569  16.189  18.786  11.932
55165W        W23570  39.524  29.971   2.252
55166W        W23571  40.023  33.636   0.502
55167W        W23572   6.239  33.376  12.095
55168W        W23573  13.432  38.435   4.083
55169W        W23574  39.083  10.209   4.528
55170W        W23575  36.287  29.693   4.828
55171W        W23576  13.619   5.769  13.415
55172W        W23577  12.129  41.786   3.676
55173W        W23578  15.190  42.206  14.914
55174W        W23579  41.006  38.635  12.979
55175W        W23580   7.830  31.132  14.866
55176W        W23581  42.528  26.217   0.439
55177W        W23582   4.747  40.346   4.628
55178W        W23583  26.907  18.574   0.772
55179W        W23584   4.688  23.217  14.559
55180W        W23585  29.934  44.517   4.149
55181W        W23586  25.260   0.469  12.579
55182W        W23587  28.224  24.242   1.052
55183W        W23588  33.777   5.282   4.263
55184W        W23589  30.855  42.309  14.917
55185W        W23590  26.989  16.248   4.316
55186W        W23591  29.575  24.504  11.119
55187W        W23592  14.231  17.596  11.417
55188W        W23593   3.252   9.762  12.548
55189W        W23594  39.300  25.745   0.739
55190W        W23595  41.818  23.537   1.825
55191W        W23596  40.196   8.158  10.694
55192W        W23597  44.236  27.959   0.450
55193W        W23598  12.586  39.319  11.527
55194W        W23599  13.048   8.321  14.452
55195W        W23600  14.593  43.530  11.471
55196W        W23601  21.034  41.604  14.225
55197W        W23602  16.094  13.799  10.621
55198W        W23603  21.719  43.703   4.331
55199W        W23604  10.834  44.767  10.644
55200W        W23605   4.823  42.879   1.650
55201W        W23606  24.360  24.272   5.057
55202W        W23607  37.996  22.940  12.640
55203W        W23608  30.049  20.510  12.411
55204W        W23609  38.239   5.745  11.547
55205W        W23610  40.379  17.470   3.310
55206W        W23611  42.837  29.379   3.141
55207W        W23612   9.835   1.466   1.479
55208W        W23613  42.873  20.601  14.280
55209W        W23614  34.419  22.221  10.655
55210W        W23615  41.364  38.462   0.923
55211W        W23616  15.139   3.516   1.065
55212W        W23617  15.751  24.522   1.393
55213W        W23618  41.921   2.791   0.986
55214W        W23619  33.055  25.285  12.148
55215W        W23620  33.479  16.658   3.794
55216W        W23621  35.939  35.848   2.297
55217W        W23622  37.461  34.581  10.858
55218W        W23623  15.523  35.144  13.894
55219W        W23624  17.670   5.646   1.141
55220W        W23625  18.662  33.141   4.380
55221W        W23626   5.204  30.980   4.125
55222W        W23627  33.591   0.499   2.819
55223W        W23628  16.180  29.893  10.416
55224W        W23629   8.313  13.540   0.922
55225W        W23630  15.651   0.767  14.609
55226W        W23631   7.878   2.873  11.202
55227W        W23632  34.766  26.694   4.473
55228W        W23633  23.679   7.295   3.337
55229W        W23634   7.014  18.349  13.039
55230W        W23635  41.623   5.587   0.332
55231W        W23636   4.478   7.376   3.166
55232W        W23637  33.330  32.237   3.137
55233W        W23638  31.658  29.130  12.743
55234W        W23639   6.991  39.961   0.866
55235W        W23640  13.174  28.647  12.840
55236W        W23641  33.498  23.197  14.786
55237W        W23642  19.668  22.608   1.417
55238W        W23643  18.265  41.254  12.124
55239W        W23644  18.535   1.317  13.304
55240W        W23645   9.357  25.280   1.351
55241W        W23646  28.616  39.254   4.608
55242W        W23647  32.189  20.686  14.528
55243W        W23648   8.885  20.002   0.311
55244W        W23649  22.520  31.397  12.033
55245W        W23650  18.874   1.962   3.689
55246W        W23651  22.146   4.363  13.807
55247W        W23652  28.528  20.773  10.393
55248W        W23653  30.391  25.859   1.217
55249W        W23654  39.499   2.596   2.339
55250W        W23655  26.827  44.574   5.086
55251W        W23656  10.752  21.734   2.410
55252W        W23657  17.567  42.518   2.993
55253W        W23658  19.034   4.330  13.144
55254W        W23659  28.028  25.983   2.731
55255W        W23660  42.247  15.804   4.418
55256W        W23661  35.104   9.123   2.238
55257W        W23662   3.773   1.495   1.554
55258W        W23663  19.605  42.178  12.331
55259W        W23664  43.201  36.378  13.898
55260W        W23665  40.930   9.202   2.901
55261W        W23666  26.828  29.553  14.307
55262W        W23667  29.447  30.436   0.778
55263W        W23668  35.608  27.414   2.397
55264W        W23669  43.787   6.330   2.876
55265W        W23670  31.461  11.031   3.912
55266W        W23671  11.696  44.047   3.704
55267W        W23672   1.905  22.959   4.130
55268W        W23673   7.230  32.511   2.341
55269W        W23674  19.596  34.729   3.288
55270W        W23675   2.602  31.877   4.920
55271W        W23676  43.607   1.754  11.170
55272W        W23677   0.990   0.102  12.425
55273W        W23678   0.440   1.240  10.453
55274W        W23679  37.911  42.118   1.739
55275W        W23680  17.139   2.994   0.189
55276W        W23681   6.269  38.199   0.826
55277W        W23682  16.074  15.786   2.707
55278W        W23683  12.121  44.487  14.841
55279W        W23684  12.671  39.086   4.127
55280W        W23685  21.709  24.655   2.767
55281W        W23686  35.457  16.924   2.252
55282W        W23687  32.372   3.756  13.886
55283W        W23688  41.287   3.326  10.205
55284W        W23689  14.429  34.761  14.370
55285W        W23690  24.126  30.628  13.341
55286W        W23691  37.633  35.950   1.356
55287W        W23692  11.730  15.390  13.347
55288W        W23693  36.102  38.813   3.968
55289W        W23694  20.466  28.083   2.304
55290W        W23695   5.576  15.217  10.516
55291W        W23696  39.318   4.267  12.201
55292W        W23697  37.049  13.587  12.521
55293W        W23698  24.518   2.270   0.841
55294W        W23699  38.486  36.346   4.242
55295W        W23700  43.883  37.036   3.885
55296W        W23701  42.907  25.750   2.469
55297W        W23702  32.479  33.081   1.810
55298W        W23703  31.188  14.896  13.399
55299W        W23704  21.581   8.298  12.893
55300W        W23705   8.302   0.015  12.136
55301W        W23706   7.725  13.357  11.605
55302W        W23707  38.465  36.561   4.731
55303W        W23708  41.553  34.811  13.788
55304W        W23709  36.130  42.521  10.776
55305W        W23710   6.570  19.991  11.173
55306W        W23711  37.050   9.683   0.835
55307W        W23712  35.516  32.418  11.309
55308W        W23713  29.687   6.266  12.281
55309W        W23714  43.305  25.759   4.554
55310W        W23715  32.055  20.170   3.600
55311W        W23716  42.816  27.369   4.157
55312W        W23717  29.424  29.878   4.299
55313W        W23718   6.302   7.799  14.065
55314W        W23719  32.011  32.333  12.918
55315W        W23720  44.499   1.430   1.220
55316W        W23721  26.890  44.812   1.691
55317W        W23722  37.463   6.863  10.636
55318W        W23723   6.555  23.628  10.074
55319W        W23724  28.003  31.195   1.837
55320W        W23725  14.671   1.707  14.904
55321W        W23726  26.544  23.008   2.362
55322W        W23727  17.981  31.310   1.221
55323W        W23728   2.401   9.924   3.766
55324W        W23729  26.490  27.572  14.460
55325W        W23730   3.945   9.288   0.856
55326W        W23731  21.745  29.839   1.855
55327W        W23732   8.815  15.793   1.875
55328W        W23733  37.556  44.294   1.269
55329W        W23734  22.494  38.563   2.234
55330W        W23735  14.691   0.004   2.238
55331W        W23736  16.982  30.465   2.813
55332W        W23737  13.649  42.229  10.668
55333W        W23738  32.939   8.902  13.734
55334W        W23739  28.107   8.427   1.874
55335W        W23740  17.783  24.011  11.223
55336W        W23741  17.566  38.217  12.576
55337W        W23742  35.618  16.342  13.815
55338W        W23743  20.141  15.883   5.145
55339W        W23744  11.846   0.830   2.628
55340W        W23745  35.308   3.333  13.834
55341W        W23746  40.106   8.344  14.481
55342W        W23747  34.046  24.643  11.227
55343W        W23748  33.346   3.330  12.974
55344W        W23749  44.782  40.999   2.357
55345W        W23750   3.738   5.753  12.195
55346W        W23751  14.579  12.233   2.869
55347W        W23752  27.184   7.296   2.697
55348W        W23753  42.688  24.492   4.214
55349W        W23754   3.729   8.645   3.530
55350W        W23755  13.083  23.300   4.191
55351W        W23756  20.596  16.983  14.835
55352W        W23757  31.971  29.635   4.645
55353W        W23758  17.825   3.479  12.024
55354W        W23759  33.218   7.348   3.655
55355W        W23760  21.598  43.203   4.152
55356W        W23761  40.800  22.740   2.271
55357W        W23762   6.329  13.699  10.673
55358W        W23763  27.598  15.901  14.918
55359W        W23764  30.658  15.638  10.890
55360W        W23765  16.774  30.229   3.929
55361W        W23766  44.749  39.535   3.120
55362W        W23767  29.289  39.159  11.197
55363W        W23768  31.069  41.493   3.990
55364W        W23769  31.179  11.360  10.793
55365W        W23770   6.929  28.895  14.410
55366W        W23771  25.016   0.019  12.622
55367W        W23772  14.181  34.212  10.313
55368W        W23773  34.004  18.506  12.994
55369W        W23774  43.426  12.100   3.385
55370W        W23775  26.506  17.139  11.384
55371W        W23776  16.408  37.829   4.743
55372W        W23777  14.267  42.098  12.400
55373W        W23778  15.388   7.277  13.062
55374W        W23779  12.132  31.488  11.935
55375W        W23780  29.906   2.815   0.439
55376W        W23781  34.474  11.690  11.127
55377W        W23782  30.492   6.367   0.917
55378W        W23783  11.095  17.073   1.858
55379W        W23784   0.896  13.646   0.461
55380W        W23785  12.762  20.095  11.439
55381W        W23786  31.527  19.804  13.419
55382W        W23787  30.545  13.057   4.706
55383W        W23788  42.883  39.771  13.084
55384W        W23789   4.921  10.300  10.450
55385W        W23790  28.639  37.330  11.004
55386W        W23791   8.584   6.166  10.676
55387W        W23792  13.051  28.014   3.405
55388W        W23793  30.847  12.905   4.127
55389W        W23794  30.042  29.839  10.616
55390W        W23795  12.695  41.959  13.380
55391W        W23796  33.577  22.237   0.393
55392W        W23797  21.037  20.450   2.796
55393W        W23798  36.050  30.916   2.288
55394W        W23799  26.991  31.832   4.234
55395W        W23800   1.459  22.049  10.748
55396W        W23801  13.798  29.145  14.282
55397W        W23802  15.229   3.139  13.970
55398W        W23803  31.104  26.937  11.598
55399W        W23804  18.982   5.521   3.615
55400W        W23805  22.751  19.112   2.339
55401W        W23806   1.901  19.456   0.232
55402W        W23807  19.688  33.810  13.765
55403W        W23808  14.249  35.126  10.453
55404W        W23809   3.067  39.335  13.876
55405W        W23810  33.701  12.117  12.408
55406W        W23811  32.819  33.987   2.226
55407W        W23812  21.945  41.584   0.051
55408W        W23813  13.158   2.318   0.759
55409W        W23814   5.885  40.263  12.371
55410W        W23815  36.176  34.414   1.969
55411W        W23816   5.740   3.581  13.112
55412W        W23817  26.682   7.893  10.704
55413W        W23818   6.902  21.979  10.726
55414W        W23819  25.193  26.194  10.803
55415W        W23820   1.508  28.742  12.850
55416W        W23821   2.931  26.717  14.444
55417W        W23822  42.600  44.850   1.773
55418W        W23823  18.722  12.092   2.013
55419W        W23824  40.298  35.423   0.492
55420W        W23825  34.776  24.882  13.238
55421W        W23826  38.653  41.452  12.624
55422W        W23827  42.948   0.983  13.807
55423W        W23828  12.850  44.889   4.167
55424W        W23829   3.286  18.316  13.533
55425W        W23830  13.268  26.548  13.911
55426W        W23831  13.318  39.544  14.514
55427W        W23832  25.616  10.606   4.414
55428W        W23833  39.365  43.056  11.591
55429W        W23834  24.275  21.269  14.469
55430W        W23835  19.060  11.585  13.432
55431W        W23836  42.489  13.333  11.447
55432W        W23837   6.215  41.493   0.599
55433W        W23838  32.137  13.828   4.100
55434W        W23839  22.239  14.270  12.930
55435W        W23840   9.644  32.928  14.461
55436W        W23841  19.060   2.444  14.398
55437W        W23842  29.971  32.542   1.826
55438W        W23843  20.167  24.154  11.777
55439W        W23844  32.591  36.411   4.538
55440W        W23845  43.809  40.814  11.590
55441W        W23846  24.401  43.964   4.578
55442W        W23847  39.787  17.127  14.830
55443W        W23848  24.971  29.985   1.946
55444W        W23849  14.369  36.361   4.401
55445W        W23850  43.567  12.994   2.336
55446W        W23851   8.314  15.492   1.321
55447W        W23852  27.106  40.574   1.959
55448W        W23853  20.823  15.229  14.021
55449W        W23854   3.201  16.136   2.729
55450W        W23855  41.841  33.354   4.628
55451W        W23856  10.930   2.090   0.820
55452W        W23857  10.776  32.126   4.705
55453W        W23858  36.587  41.637  10.992
55454W        W23859  12.328  13.049  12.046
55455W        W23860  16.264  26.899   4.058
55456W        W23861  13.063  23.726   2.209
55457W        W23862  27.401  12.676  11.219
55458W        W23863   2.835  23.478  14.972
55459W        W23864   8.015  26.459  13.101
55460W        W23865   4.361  25.936   2.927
55461W        W23866   7.736  23.219   3.341
55462W        W23867  18.747  42.748   5.014
55463W        W23868  21.358  15.114  14.916
55464W        W23869  32.182  31.466   4.540
55465W        W23870  11.064  12.453   3.286
55466W        W23871  21.710  24.658  12.115
55467W        W23872  23.447  39.154  10.677
55468W        W23873  25.275  17.665   1.857
55469W        W23874  17.153  35.900  10.113
55470W        W23875  29.182  15.328   0.590
55471W        W23876  26.391  36.896   3.135
55472W        W23877  20.633  35.578  10.532
55473W        W23878  38.138  26.685   3.619
55474W        W23879  42.524   0.220   3.143
55475W        W23880   1.203  44.164  14.868
55476W        W23881   4.299  13.341  11.082
55477W        W23882  11.241  11.643  10.637
55478W        W23883  31.911  44.254  14.314
55479W        W23884  34.563  40.478  13.346
55480W        W23885   7.873   1.309  12.163
55481W        W23886   6.383   0.903  14.319
55482W        W23887  44.816  22.698   2.174
55483W        W23888  39.137  14.879  11.164
55484W        W23889   6.623  23.183   4.242
55485W        W23890  39.366  21.948  14.095
55486W        W23891  26.952  16.299   2.165
55487W        W23892  34.595   4.337   1.803
55488W        W23893  16.243  34.345   2.832
55489W        W23894   2.370  33.522  14.092
55490W        W23895  44.744  22.697  13.025
55491W        W23896  25.526  25.645  10.550
55492W        W23897  33.152  30.149   2.491
55493W        W23898  40.824  17.810   0.832
55494W        W23899  23.658   4.401  12.752
55495W        W23900  39.306  10.210  13.363
55496W        W23901  28.995  17.185  11.610
55497W        W23902  37.950  14.558   1.254
55498W        W23903  42.454  36.426   2.754
55499W        W23904  21.465  41.561  12.465
55500W        W23905  31.646  14.105   4.792
55501W        W23906   7.155  44.379  12.476
55502W        W23907   2.729  12.290  14.218
55503W        W23908  35.830  39.959   2.917
55504W        W23909   7.633  16.514   3.056
55505W        W23910   1.312  41.037   2.834
55506W        W23911   3.188  10.388  14.442
55507W        W23912   1.284  18.771   3.460
55508W        W23913  16.210  19.162   1.430
55509W        W23914  31.132   1.130   0.415
55510W        W23915  35.261  14.792   2.737
55511W        W23916  14.860  34.557   2.743
55512W        W23917  14.784  43.889  12.430
55513W        W23918  22.016   2.358  11.044
55514W        W23919   9.759  32.049   2.840
55515W        W23920  28.514   2.019  11.186
55516W        W23921  44.924  26.147   4.701
55517W        W23922  44.025  29.381  11.446
55518W        W23923   7.022  20.568  12.573
55519W        W23924  32.002  18.512   3.224
55520W        W23925  29.655  29.094  14.426
55521W        W23926  43.461  26.470  10.993
55522W        W23927  17.089  44.515   3.651
55523W        W23928   6.349  37.808  14.436
55524W        W23929  22.890  35.467   1.256
55525W        W23930  34.616   1.434  11.187
55526W        W23931  33.344  39.921  11.512
55527W        W23932  25.403  29.397   4.569
55528W        W23933  28.019   7.852  12.071
55529W        W23934  10.101   3.199   0.794
55530W        W23935   7.170  12.286   4.300
55531W        W23936  18.470  18.016  13.444
55532W        W23937  23.722  12.567  13.606
55533W        W23938  25.990  26.160   4.682
55534W        W23939   6.299   3.042  13.429
55535W        W23940  37.122  27.027   4.427
55536W        W23941   6.874  13.252   2.811
55537W        W23942  13.889   8.021  10.235
55538W        W23943  15.263   7.793  12.969
55539W        W23944  14.108  19.531  11.576
55540W        W23945  18.663  33.095   4.938
55541W        W23946  20.122  11.880  11.484
55542W        W23947  14.322  36.523   2.279
55543W        W23948   6.484  33.977   1.622
55544W        W23949  11.713  17.229  12.373
55545W        W23950  25.419  23.241   1.421
55546W        W23951  34.793   3.870  12.587
55547W        W23952  43.748  17.481   2.198
55548W        W23953  39.850   4.392  14.950
55549W        W23954  18.074  16.547   1.211
55550W        W23955  28.704  21.598  14.402
55551W        W23956  30.021  13.309  11.633
55552W        W23957  38.847   2.328   2.839
55553W        W23958  23.831  25.446  14.904
55554W        W23959   9.703   0.284   1.418
55555W        W23960  28.510  42.321  14.740
55556W        W23961  13.230   4.379   3.026
55557W        W23962  38.070  37.914   2.237
55558W        W23963   3.704  28.790  11.076
55559W        W23964  22.180   8.262   3.846
55560W        W23965  37.002   7.740  12.057
55561W        W23966  12.364  18.316  12.467
55562W        W23967  19.038  28.049   4.127
55563W        W23968   2.929   5.762  12.892
55564W        W23969  25.361  28.099  12.656
55565W        W23970  12.676  28.853   0.940
55566W        W23971   6.760  24.820  14.406
55567W        W23972  36.009  34.852  14.863
55568W        W23973  15.157  17.048  12.096
55569W        W23974  17.228   4.311   3.388
55570W        W23975  13.192  29.126  12.512
55571W        W23976   7.269   7.672   2.381
55572W        W23977  21.035  44.125   4.591
55573W        W23978  26.370  11.200   3.237
55574W        W23979  24.049  34.697  11.672
55575W        W23980  15.042   4.249   0.418
55576W        W23981  33.396   3.834  12.845
55577W        W23982  11.122   7.267  10.896
55578W        W23983  35.087   2.029   3.350
55579W        W23984  35.135  39.455   3.205
55580W        W23985  19.069   2.879   0.407
55581W        W23986   3.031  27.687   1.448
55582W        W23987   8.400  28.900  11.190
55583W        W23988   4.033  36.159  12.004
55584W        W23989  19.509  23.566   2.893
55585W        W23990  26.500   7.448   0.382
55586W        W23991  33.465  18.898   3.216
55587W        W23992  42.496  37.568   4.435
55588W        W23993  31.635  18.663  14.681
55589W        W23994  33.718  43.576   1.320
55590W        W23995  44.229  28.381  14.738
55591W        W23996  42.742  16.464   4.245
55592W        W23997  25.805  18.140  11.984
55593W        W23998  41.528  19.319  11.903
55594W        W23999  22.251  17.679   1.270
55595W        W24000  28.214  32.466  13.342
55596W        W24001  37.538  33.660   1.429
55597W        W24002   4.997  24.714  14.006
55598W        W24003  35.020  28.410   3.977
55599W        W24004  24.015  33.850   0.132
55600W        W24005  27.742  23.310   3.764
55601W        W24006  41.422  19.615  13.259
55602W        W24007  13.655  24.908   3.224
55603W        W24008  17.593  44.320  11.933
55604W        W24009  23.241  29.710  10.981
55605W        W24010   1.922   1.447   4.366
55606W        W24011  32.385  42.962  10.478
55607W        W24012  38.936  32.502   4.558
55608W        W24013  36.390  17.175  13.294
55609W        W24014  36.109  38.931   4.775
55610W        W24015   3.263  18.004  10.560
55611W        W24016  33.153  29.909  11.169
55612W        W24017  32.461  40.577   4.650
55613W        W24018  15.837  25.488   4.222
55614W        W24019   0.558  17.303  14.484
55615W        W24020   5.211  20.995   3.113
55616W        W24021  26.434   0.692   2.763
55617W        W24022   2.515   3.854  13.844
55618W        W24023  19.655   5.035   5.022
55619W        W24024  41.740  10.089  12.932
55620W        W24025  25.113  11.613  14.367
55621W        W24026  29.411  20.256   2.342
55622W        W24027  35.808  26.046  13.437
55623W        W24028  40.253  44.405  11.682
55624W        W24029   0.868  26.558  11.703
55625W        W24030  42.252  28.417  10.266
55626W        W24031  40.903  15.703   4.987
55627W        W24032  25.937  10.734  11.755
55628W        W24033  19.514  22.121   2.213
55629W        W24034  35.753  20.203  13.380
55630W        W24035  28.522   2.372   1.280
55631W        W24036  42.504  20.771  14.937
55632W        W24037   8.695   8.387   1.878
55633W        W24038  39.984  15.427   2.708
55634W        W24039  34.016  43.356  14.431
55635W        W24040  37.550  19.691  13.757
55636W        W24041  36.469  17.214   0.616
55637W        W24042   6.737  34.425   1.821
55638W        W24043  13.311   3.282  12.150
55639W        W24044   2.024  10.821   4.705
55640W        W24045  23.198  43.290   0.454
55641W        W24046  25.965   7.642   4.659
55642W        W24047  41.950   2.222  12.992
55643W        W24048  14.234  28.014  10.568
55644W        W24049  25.465  35.786  13.687
55645W        W24050  41.224   3.947   2.321
55646W        W24051  22.466   5.398  10.634
55647W        W24052  32.467  38.152  13.784
55648W        W24053  21.074  37.588   2.375
55649W        W24054  28.448  33.813   4.188
55650W        W24055   3.966   4.871  11.402
55651W        W24056  20.080  31.146  14.759
55652W        W24057  42.989   8.320   3.374
55653W        W24058  12.668  38.169   2.301
55654W        W24059   1.310  29.112  13.380
55655W        W24060  35.970  13.701   4.633
55656W        W24061   7.137  39.952   4.751
55657W        W24062  15.485  35.943   4.935
55658W        W24063  29.057   5.823   4.624
55659W        W24064  20.785   3.692  14.025
55660W        W24065  10.377  27.193   1.594
55661W        W24066  34.855  36.063  10.778
55662W        W24067   8.837  35.114   0.233
55663W        W24068  34.338  33.036   3.869
55664W        W24069  32.957  33.427  13.871
55665W        W24070  35.785  26.926   2.606
55666W        W24071  27.294  34.944   0.773
55667W        W24072  36.043  31.056  11.985
55668W        W24073   0.100   8.397   3.698
55669W        W24074   5.978  42.260   1.232
55670W        W24075  32.620  40.918  12.063
55671W        W24076  19.739   5.540  12.068
55672W        W24077  22.178  14.393   1.259
55673W        W24078  44.884  39.499  13.659
55674W        W24079  10.243  17.316   5.532
55675W        W24080  22.056  27.623   4.687
55676W        W24081  21.845  41.365   2.339
55677W        W24082   8.827  10.165  14.419
55678W        W24083  11.102  42.379   3.933
55679W        W24084  37.068  14.170  10.803
55680W        W24085  42.478  42.385   1.737
55681W        W24086  10.376   3.672  10.552
55682W        W24087  35.978   2.915   1.385
55683W        W24088  23.182  36.409   2.202
55684W        W24089  23.334  23.244   4.145
55685W        W24090   2.908  32.095  11.465
55686W        W24091  12.675  32.718  13.363
55687W        W24092  33.143   4.972   0.573
55688W        W24093   7.980   5.850   0.509
55689W        W24094  37.128  13.749   2.912
55690W        W24095  38.357  38.753   1.962
55691W        W24096  30.566  25.541   2.185
55692W        W24097  11.417   9.358  10.725
55693W        W24098  30.496  30.713   3.191
55694W        W24099  24.874  24.213   4.965
55695W        W24100  20.275  17.306   0.187
55696W        W24101  44.556  12.561  10.737
55697W        W24102  33.529  44.675  12.938
55698W        W24103  24.501   2.822   0.712
55699W        W24104   4.956  35.906  13.049
55700W        W24105  33.399  18.097  14.014
55701W        W24106  12.903   7.184  12.911
55702W        W24107   1.418  25.863   0.996
55703W        W24108  19.013  14.929  12.390
55704W        W24109  27.590  42.327  14.079
55705W        W24110  27.035   3.604   2.626
55706W        W24111   1.463   8.777   4.693
55707W        W24112   8.222  41.038  11.362
55708W        W24113  32.911  41.331   4.844
55709W        W24114  18.439  25.380  13.841
55710W        W24115  27.914  42.867   2.648
55711W        W24116   1.150  28.632  10.571
55712W        W24117   5.223  31.381   2.594
55713W        W24118  10.367  19.801   0.127
55714W        W24119   7.797  40.560  10.714
55715W        W24120  25.017  33.126   2.518
55716W        W24121  23.165  14.306   1.215
55717W        W24122  38.317  32.284  14.481
55718W        W24123  29.991  44.741  13.248
55719W        W24124  42.539  14.224   4.911
55720W        W24125  11.316  41.848  13.519
55721W        W24126  42.413  30.793   3.271
55722W        W24127  26.104  31.930  12.441
55723W        W24128  27.911  27.055  14.884
55724W        W24129  20.276  31.467  13.576
55725W        W24130  23.373  11.715   0.450
55726W        W24131  15.862   4.271   2.324
55727W        W24132  23.152  27.210   2.911
55728W        W24133  25.533   7.716   3.177
55729W        W24134  22.591  20.002  12.981
55730W        W24135  44.757  11.688   4.782
55731W        W24136   9.858  28.635   3.885
55732W        W24137   1.262  22.467   2.223
55733W        W24138  24.526  14.354  10.767
55734W        W24139  34.395  10.330  10.657
55735W        W24140  21.516  27.973   4.100
55736W        W24141  26.506  24.955   3.579
55737W        W24142  11.946  30.631   1.910
55738W        W24143  30.397  25.184  13.439
55739W        W24144  26.988  15.635  10.444
55740W        W24145  26.055  15.637   0.954
55741W        W24146  20.056  22.628   3.677
55742W        W24147  37.200  22.076   1.328
55743W        W24148  26.608   2.805  13.060
55744W        W24149  28.550  25.913   2.617
55745W        W24150  28.459   3.852  14.466
55746W        W24151  24.287  10.892   0.890
55747W        W24152  22.196   5.792   2.176
55748W        W24153  33.266  42.803   3.521
55749W        W24154   6.759  33.614   0.500
55750W        W24155  35.403  41.496   0.925
55751W        W24156  38.618  13.797   2.715
55752W        W24157  34.165  40.698   2.255
55753W        W24158  36.523  33.019  13.640
55754W        W24159  21.426  28.607   4.764
55755W        W24160  20.118  11.629   3.699
55756W        W24161  29.075  43.701  13.843
55757W        W24162  29.063  38.194   1.476
55758W        W24163  36.330  23.111   0.083
55759W        W24164  31.843  33.698   2.372
55760W        W24165  26.071  17.272  11.673
55761W        W24166  33.519  33.438   3.721
55762W        W24167  13.541  22.846   0.354
55763W        W24168   6.894  23.533  13.494
55764W        W24169  31.159  28.002   1.476
55765W        W24170  21.871   5.507  13.440
55766W        W24171   3.859   0.746   4.730
55767W        W24172  39.056  12.745   2.708
55768W        W24173  21.339  34.870  11.549
55769W        W24174  37.012  12.385   0.020
55770W        W24175  26.950   7.903   1.880
55771W        W24176  37.354  43.391   2.388
55772W        W24177   9.625  11.859   3.864
55773W        W24178   7.710   6.866   0.917
55774W        W24179  20.476   8.240  14.415
55775W        W24180   6.973  37.982   1.317
55776W        W24181  38.547  39.885  11.216
55777W        W24182   1.180  24.120  10.580
55778W        W24183  37.828  28.737   2.843
55779W        W24184  29.873   6.576  13.149
55780W        W24185   4.838  16.080   4.999
55781W        W24186  23.378  32.965   3.335
55782W        W24187   6.447  14.335  14.780
55783W        W24188  33.086  16.356   2.360
55784W        W24189  42.393  14.592   0.044
55785W        W24190  22.368   6.521   0.970
55786W        W24191  44.362  26.118   2.906
55787W        W24192  21.933  36.884  12.895
55788W        W24193  42.857  24.663   3.748
55789W        W24194   7.836  15.678  11.116
55790W        W24195   5.857   8.521   2.189
55791W        W24196  20.415  18.879  11.222
55792W        W24197  25.028  29.194   1.189
55793W        W24198   3.822  38.947   1.176
55794W        W24199  33.122  32.553   4.041
55795W        W24200  11.550   0.951  11.331
55796W        W24201  12.348  36.099  11.986
55797W        W24202   3.911  19.979   0.854
55798W        W24203  14.317  18.630  12.457
55799W        W24204  20.583  17.640  12.623
55800W        W24205  40.357   8.231  14.927
55801W        W24206  22.072  32.241   1.778
55802W        W24207  31.432  38.585  11.431
55803W        W24208  24.448   2.874  12.557
55804W        W24209  29.920  35.444  13.533
55805W        W24210  17.607   8.148   4.045
55806W        W24211   1.699  37.007  11.662
55807W        W24212   5.295  35.385  13.661
55808W        W24213   4.669   0.838  14.709
55809W        W24214  26.564  44.466  14.534
55810W        W24215  12.736  10.708   1.168
55811W        W24216  16.080   6.190  12.692
55812W        W24217  13.249  18.268   0.931
55813W        W24218  40.000   4.892  12.258
55814W        W24219  42.826  32.160   2.200
55815W        W24220  36.176  43.320   1.695
55816W        W24221   1.490   5.793  14.315
55817W        W24222  14.821  24.504  11.885
55818W        W24223   9.462  26.586  10.115
55819W        W24224  18.246  37.776  12.908
55820W        W24225  35.332  38.790  14.280
55821W        W24226   7.310   7.240  10.784
55822W        W24227  23.698  27.351   3.100
55823W        W24228  10.855  38.030   3.210
55824W        W24229   2.905  22.228  12.534
55825W        W24230  20.567  34.436   0.445
55826W        W24231  38.507  30.778   0.448
55827W        W24232   4.361  31.359   4.519
55828W        W24233   4.612  42.577   4.130
55829W        W24234  29.968  23.172  11.831
55830W        W24235  26.243   1.750   3.330
55831W        W24236  24.515  18.583  13.849
55832W        W24237  33.089  38.861  12.050
55833W        W24238  29.848  41.323   0.826
55834W        W24239  37.914  38.912   3.194
55835W        W24240  37.922  23.214   1.749
55836W        W24241  39.468  22.485   0.276
55837W        W24242  21.422  16.595   0.767
55838W        W24243  42.551  36.476   1.330
55839W        W24244  20.847  37.124  14.900
55840W        W24245  40.931  36.486  13.560
55841W        W24246  29.669  22.455   3.291
55842W        W24247  30.172  38.420  12.434
55843W        W24248   3.878  19.860   2.106
55844W        W24249  18.076  24.762  12.472
55845W        W24250   8.854  19.891  11.585
55846W        W24251  31.975   6.249  14.622
55847W        W24252  29.977  30.401   2.334
55848W        W24253  36.492  34.867   3.182
55849W        W24254  16.232  32.085  13.518
55850W        W24255  39.312  37.696  14.500
55851W        W24256  12.729  13.556  12.177
55852W        W24257  28.503  39.156   2.219
55853W        W24258   3.284  20.623   3.845
55854W        W24259  19.287  21.264  11.905
55855W        W24260  21.790  32.045  11.555
55856W        W24261   4.933  44.189   3.210
55857W        W24262   4.817  26.030   3.589
55858W        W24263   6.847  26.462  12.462
55859W        W24264  20.273  36.404  10.633
55860W        W24265  27.429  33.683  11.318
55861W        W24266  21.134  30.283  12.940
55862W        W24267  15.297   9.370  13.996
55863W        W24268  16.043  41.637  12.615
55864W        W24269  41.378  10.710   1.718
55865W        W24270  24.001  24.954   4.089
55866W        W24271  27.505   9.453  11.935
55867W        W24272  37.780  32.657   4.418
55868W        W24273  16.655  21.995   4.962
55869W        W24274  13.169  17.297   4.114
55870W        W24275  16.345  26.677   1.189
55871W        W24276   3.867  44.404   1.773
55872W        W24277  36.582  40.408   2.636
55873W        W24278  17.470  18.598   2.850
55874W        W24279  31.244  38.743   9.758
55875W        W24280  41.804  14.268   4.200
55876W        W24281  24.069  42.795   4.054
55877W        W24282  28.845  20.188  14.840
55878W        W24283  24.184  12.827  13.374
55879W        W24284   4.408   4.923   1.690
55880W        W24285  23.271  32.119   3.747
55881W        W24286  37.960  33.086   3.500
55882W        W24287   0.332   2.834  12.422
55883W        W24288  10.853   4.807   2.258
55884W        W24289  19.571   8.431   4.943
55885W        W24290  12.187  34.879   0.184
55886W        W24291  37.414   1.333  11.119
55887W        W24292   1.259  37.778   3.068
55888W        W24293  42.424  29.928   0.021
55889W        W24294   4.828  12.688   1.975
55890W        W24295  26.649  31.343  14.936
55891W        W24296  29.178   1.764   0.856
55892W        W24297   7.263  34.347  12.020
55893W        W24298  34.912  19.558  12.610
55894W        W24299  16.811  16.329  14.264
55895W        W24300  25.073   5.403  14.947
55896W        W24301  14.697  11.811   3.189
55897W        W24302  35.599  42.411   4.837
55898W        W24303  33.620  17.615   3.683
55899W        W24304  19.309   4.661  12.457
55900W        W24305  33.896  41.719   4.201
55901W        W24306  39.481  18.997  12.912
55902W        W24307  11.862  15.744  14.166
55903W        W24308  31.847  35.831   0.850
55904W        W24309  20.485   9.266   5.196
55905W        W24310  17.159  22.005  10.716
55906W        W24311  40.143  40.836  11.706
55907W        W24312  28.149  11.283   2.287
55908W        W24313  38.677  28.398  12.055
55909W        W24314   5.861  12.930   1.765
55910W        W24315  13.828  43.009   4.532
55911W        W24316   3.271  18.829   2.721
55912W        W24317   9.083  29.592   3.151
55913W        W24318  42.286   4.649  14.968
55914W        W24319  15.297   2.913   1.836
55915W        W24320  12.151  41.830  10.957
55916W        W24321  37.901  36.376  12.305
55917W        W24322   5.432  16.343  11.839
55918W        W24323  22.776  38.865   1.912
55919W        W24324  35.866   4.044  12.113
55920W        W24325  36.089  21.354  12.837
55921W        W24326   1.314  31.975  10.554
55922W        W24327  11.698  33.664   5.009
55923W        W24328  13.673  24.611   0.976
55924W        W24329  44.505  14.886   3.229
55925W        W24330  26.968  40.221  14.790
55926W        W24331   4.144  37.015  14.257
55927W        W24332   9.584  30.735   4.609
55928W        W24333   8.486  12.439   1.736
55929W        W24334  34.292  10.197   2.642
55930W        W24335  28.185  28.984   3.239
55931W        W24336  19.644   7.731  11.526
55932W        W24337   6.351  25.081  14.079
55933W        W24338  11.773   5.401   0.928
55934W        W24339  16.635  35.053   4.645
55935W        W24340   5.019   4.749   1.004
55936W        W24341  26.587  38.090  10.733
55937W        W24342  27.191  20.025   4.631
55938W        W24343  24.766  35.431   3.257
55939W        W24344  21.290   8.876   5.324
55940W        W24345   0.812   7.136   1.639
55941W        W24346  33.419  37.826   4.235
55942W        W24347  22.578   8.432  10.606
55943W        W24348  39.417  32.538  12.328
55944W        W24349  24.804  44.688   2.435
55945W        W24350  12.760  19.708  12.691
55946W        W24351  15.021  10.702   2.475
55947W        W24352  11.755  27.016   4.921
55948W        W24353  20.611  36.692  11.594
55949W        W24354   7.126   8.261  11.475
55950W        W24355  38.247  20.990  14.991
55951W        W24356   8.649  44.486  11.106
55952W        W24357  32.124  15.057   0.320
55953W        W24358  14.243  32.398   5.045
55954W        W24359  35.067  14.904   0.333
55955W        W24360  36.329   8.649   1.758
55956W        W24361  26.665  20.839   1.396
55957W        W24362  43.628  25.210   1.826
55958W        W24363  44.189  36.551   2.160
55959W        W24364  33.196  44.579   0.761
55960W        W24365  37.957  25.129  12.095
55961W        W24366   8.976  23.558  10.620
55962W        W24367  12.414  43.825  11.159
55963W        W24368  14.065  27.105  14.892
55964W        W24369  28.060  39.903   0.926
55965W        W24370   0.575   2.754  11.591
55966W        W24371  15.307   1.929  11.194
55967W        W24372   4.997  40.998   1.205
55968W        W24373   2.537  24.463   3.119
55969W        W24374  38.517  35.102  13.334
55970W        W24375  24.102  43.296   4.043
55971W        W24376  19.575  29.139   0.267
55972W        W24377   9.708   1.964  13.885
55973W        W24378  10.775  13.331  10.631
55974W        W24379   8.428   8.275   2.901
55975W        W24380  16.755  24.284  12.970
55976W        W24381  33.653  11.887   2.202
55977W        W24382  18.559   2.828  12.597
55978W        W24383   9.350   2.020   4.257
55979W        W24384  25.538  39.979  12.404
55980W        W24385  42.381  19.583   3.077
55981W        W24386  13.609  12.315  11.377
55982W        W24387  33.803  20.006  12.598
55983W        W24388  38.002  43.405  13.860
55984W        W24389  34.553  12.686  12.144
55985W        W24390  35.813  19.262  13.808
55986W        W24391  10.603  34.594  14.433
55987W        W24392  30.431   8.975   2.196
55988W        W24393  29.152  38.080   2.759
55989W        W24394  19.155  21.765   2.912
55990W        W24395  39.013  11.729   0.649
55991W        W24396  35.026  40.360  10.257
55992W        W24397  41.432   1.706   0.934
55993W        W24398  16.634  39.045   4.567
55994W        W24399  40.836   8.105  13.298
55995W        W24400  12.597  27.958   3.675
55996W        W24401   1.437  22.637  12.362
55997W        W24402  16.287  35.935   4.586
55998W        W24403   7.798  26.944   0.308
55999W        W24404  42.760  12.820   1.196
56000W        W24405   0.864  12.602  13.886
56001W        W24406  12.135  20.741  11.466
56002W        W24407  29.271  27.042   0.124
56003W        W24408   8.330  26.864   4.689
56004W        W24409   8.209  18.626  12.071
56005W        W24410  42.528  26.970   1.940
56006W        W24411  35.197   7.803  13.095
56007W        W24412   4.847  34.086  14.074
56008W        W24413   2.865   5.652   1.490
56009W        W24414  29.382  15.676  12.426
56010W        W24415  40.726  18.545  13.874
56011W        W24416  32.376  24.454  13.632
56012W        W24417  20.560  24.260  11.447
56013W        W24418   8.131  38.836   4.976
56014W        W24419   8.559  19.514  14.948
56015W        W24420   8.257   5.875   4.070
56016W        W24421   3.892  32.683  11.595
56017W        W24422  10.171  11.397   1.348
56018W        W24423   6.667  16.640   4.128
56019W        W24424   3.593   0.729  11.727
56020W        W24425  41.303  31.581  11.766
56021W        W24426   4.580  23.020   4.501
56022W        W24427  43.822  25.818   2.491
56023W        W24428  19.365  13.024   0.367
56024W        W24429  23.232  22.818   2.257
56025W        W24430  44.702  21.758   3.917
56026W        W24431  13.394  20.496  14.339
56027W        W24432  19.589  11.777   2.427
56028W        W24433   4.177  34.901   0.294
56029W        W24434  27.653  21.997   3.160
56030W        W24435   7.409   6.874  13.976
56031W        W24436  15.298   6.656   0.867
56032W        W24437  18.149  31.056   0.760
56033W        W24438  40.887  30.880  10.671
56034W        W24439  38.916  10.500   4.113
56035W        W24440  12.625  10.745   0.654
56036W        W24441   7.391  42.103   3.646
56037W        W24442  39.691  40.384  13.445
56038W        W24443   5.134  21.983  11.150
56039W        W24444  31.565  38.904   3.774
56040W        W24445   9.804   7.598   4.343
56041W        W24446  30.977   4.718  13.750
56042W        W24447  29.422  36.406  11.599
56043W        W24448  21.091  28.571  14.400
56044W        W24449  15.681  36.616  10.537
56045W        W24450   7.697   0.164  12.517
56046W        W24451  30.383  23.441  10.640
56047W        W24452  31.085  38.070   3.536
56048W        W24453   5.439  10.741  11.169
56049W        W24454   0.789  26.980   1.680
56050W        W24455  24.585   6.225   3.103
56051W        W24456   6.255  14.099  13.064
56052W        W24457  37.307  33.704  13.409
56053W        W24458  18.725  22.466  14.076
56054W        W24459  15.742   9.393   0.894
56055W        W24460  31.882  32.191  12.458
56056W        W24461  16.238  10.288   3.686
56057W        W24462  10.746  36.838   3.837
56058W        W24463  10.910  22.552   3.135
56059W        W24464   6.668  42.229   0.054
56060W        W24465  17.943  21.539  14.206
56061W        W24466  24.145  44.727  10.778
56062W        W24467  24.747  21.581   0.435
56063W        W24468  44.366  19.285  10.693
56064W        W24469  36.158  11.161   2.699
56065W        W24470  42.964   3.710   1.199
56066W        W24471  37.435  24.553  10.759
56067W        W24472  33.175  12.318  10.841
56068W        W24473  41.469  30.513  11.891
56069W        W24474  42.178  28.595  14.072
56070W        W24475   7.311  42.752  13.109
56071W        W24476   9.772  30.691  14.774
56072W        W24477  22.886  37.539  12.616
56073W        W24478   7.651  24.968   3.524
56074W        W24479  19.066  18.388  11.575
56075W        W24480   4.431  27.527   0.052
56076W        W24481   4.205   5.367   1.844
56077W        W24482  37.395   4.189   1.413
56078W        W24483  23.710  15.168   1.942
56079W        W24484   4.832  29.523  13.591
56080W        W24485  18.320  31.922   4.191
56081W        W24486  27.970  11.202  12.814
56082W        W24487  16.906   0.554   1.406
56083W        W24488   8.601  13.333   5.011
56084W        W24489  14.127  30.974   2.158
56085W        W24490  31.184  40.662  11.401
56086W        W24491  41.426  12.226  12.084
56087W        W24492  10.461  38.914  10.576
56088W        W24493   3.786  20.500   3.110
56089W        W24494  35.280  40.239   2.286
56090W        W24495  42.521  23.272  12.064
56091W        W24496   0.016   9.591  12.616
56092W        W24497   0.497  11.892   3.982
56093W        W24498  36.829  35.104   4.445
56094W        W24499  32.812  11.579  12.550
56095W        W24500  19.599  42.860   1.852
56096W        W24501  39.104  15.051   1.749
56097W        W24502  27.975  25.534   0.807
56098W        W24503  34.422  20.438   1.243
56099W        W24504  13.237   0.469   4.185
56100W        W24505   3.503  18.546   3.992
56101W        W24506  41.044  15.592   1.852
56102W        W24507  18.133  43.378  11.152
56103W        W24508  18.291  28.653   0.410
56104W        W24509  14.502   9.124   3.334
56105W        W24510  10.461  12.278   4.392
56106W        W24511  14.167  21.217  14.688
56107W        W24512   0.046  13.816  11.786
56108W        W24513  35.988   3.198  11.171
56109W        W24514  22.245   5.416  11.081
56110W        W24515  13.668   6.709  11.160
56111W        W24516  32.457  28.289  10.703
56112W        W24517  38.796  32.524   0.282
56113W        W24518   0.752  44.324   3.382
56114W        W24519  15.940  40.966   0.751
56115W        W24520  42.481  16.633   4.656
56116W        W24521  10.603  35.584   0.484
56117W        W24522  31.143  18.706  10.593
56118W        W24523  22.788  29.990  10.948
56119W        W24524  18.509  39.163   4.055
56120W        W24525  29.483  22.053  10.654
56121W        W24526  26.630  20.835   2.319
56122W        W24527   6.351  22.157  11.912
56123W        W24528  35.077   3.640  11.582
56124W        W24529  14.523  35.218  12.575
56125W        W24530  33.834  22.125   2.461
56126W        W24531   6.012  30.233  12.930
56127W        W24532  34.019  22.938   4.784
56128W        W24533  28.403  25.618   1.577
56129W        W24534  16.819  34.958  11.080
56130W        W24535  43.925  28.153  13.976
56131W        W24536   6.197  36.496  11.233
56132W        W24537  29.122   0.454  11.927
56133W        W24538  12.159  14.626  13.454
56134W        W24539  23.486  33.111   4.761
56135W        W24540  27.117   4.953  12.367
56136W        W24541  12.658   5.784   0.504
56137W        W24542  31.744  36.366   0.817
56138W        W24543  22.082  32.997  14.478
56139W        W24544   1.608  20.698   0.916
56140W        W24545  17.182  10.391   0.686
56141W        W24546  23.230  41.345   1.817
56142W        W24547  39.998  18.753   0.425
56143W        W24548  21.834  42.956  10.238
56144W        W24549  34.644  28.055   3.899
56145W        W24550  18.469  19.979   3.911
56146W        W24551  31.305   4.664  13.358
56147W        W24552  30.686  32.867  12.172
56148W        W24553   1.331  36.926   0.910
56149W        W24554  21.156   0.512   4.117
56150W        W24555  21.246  11.400   4.631
56151W        W24556  29.027   1.447   3.249
56152W        W24557  18.533  26.206   0.806
56153W        W24558   0.310  42.283   4.133
56154W        W24559  22.100  18.028  12.612
56155W        W24560   0.843  36.105   3.294
56156W        W24561   4.410  35.851  13.943
56157W        W24562  16.654  32.513   0.362
56158W        W24563  34.602  33.424  12.963
56159W        W24564   9.255  43.310   1.730
56160W        W24565   0.030  21.872   1.310
56161W        W24566   4.705  26.475   0.808
56162W        W24567  39.009  13.668  10.955
56163W        W24568  15.238  38.630   2.482
56164W        W24569   5.414  38.498   2.844
56165W        W24570  16.243  34.690  12.590
56166W        W24571  33.656   3.404   2.403
56167W        W24572  14.613  25.496  12.817
56168W        W24573  37.806  17.027  13.697
56169W        W24574  10.168   5.857  11.130
56170W        W24575  42.487   8.088  11.093
56171W        W24576  11.780  10.706   3.766
56172W        W24577  13.723  15.234   4.548
56173W        W24578  13.802  34.902   0.756
56174W        W24579  32.086  37.037   0.096
56175W        W24580  40.950  11.184  11.482
56176W        W24581  12.633  18.209   3.728
56177W        W24582  34.648  27.909   2.626
56178W        W24583  31.482  16.856  10.994
56179W        W24584  29.128  30.667   0.450
56180W        W24585   7.307  11.338  14.342
56181W        W24586  44.005  21.523   1.390
56182W        W24587  41.853  30.931  11.531
56183W        W24588  27.896   4.418   4.120
56184W        W24589  31.594  13.778   1.203
56185W        W24590  22.103  28.644  12.909
56186W        W24591  13.204   7.892  11.004
56187W        W24592  30.153  38.551  13.310
56188W        W24593   2.802  14.737  14.979
56189W        W24594  35.302   2.944   2.758
56190W        W24595  38.307  23.948  13.843
56191W        W24596  44.656  23.290   0.961
56192W        W24597  23.699  37.570  14.809
56193W        W24598   4.866  25.513   0.468
56194W        W24599  42.476   2.718   2.382
56195W        W24600  43.588  19.282   2.278
56196W        W24601  29.742   3.223  10.057
56197W        W24602  25.055  44.977  10.854
56198W        W24603  25.202  32.018  13.621
56199W        W24604  18.593   4.590  12.781
56200W        W24605  27.079  37.245  11.079
56201W        W24606  39.250   2.419   3.605
56202W        W24607   2.000   4.488   3.772
56203W        W24608   8.099  22.310  11.805
56204W        W24609  19.726   8.913  14.606
56205W        W24610  19.749  43.038  13.885
56206W        W24611   0.776   3.696  14.358
56207W        W24612   3.452   0.491   4.583
56208W        W24613   2.186  23.736  12.845
56209W        W24614  12.108  36.135  12.542
56210W        W24615  37.761  13.442   1.962
56211W        W24616   8.284  40.415  10.618
56212W        W24617  20.720  24.676  12.390
56213W        W24618  40.043  33.089  11.267
56214W        W24619  35.544  16.637   0.240
56215W        W24620  27.114  44.605   4.650
56216W        W24621  15.181  26.891  11.970
56217W        W24622  12.074  16.213   2.186
56218W        W24623  39.954  18.820  10.695
56219W        W24624   6.897   0.366   2.838
56220W        W24625  10.723  24.131   4.198
56221W        W24626  18.090  10.401  10.289
56222W        W24627  38.423  21.682  14.423
56223W        W24628   9.444  24.715   1.790
56224W        W24629   6.898  15.197  14.072
56225W        W24630  25.587  42.128  13.544
56226W        W24631  43.030  38.861  14.497
56227W        W24632  39.276  43.634  12.943
56228W        W24633  41.299  40.913   3.731
56229W        W24634  38.118   7.113   3.865
56230W        W24635  38.207  25.765   2.511
56231W        W24636  33.945   5.220   2.292
56232W        W24637   6.624  19.236   0.760
56233W        W24638  14.793  14.512  13.910
56234W        W24639  21.017  34.044   2.364
56235W        W24640  12.176  15.185  10.564
56236W        W24641  27.496  42.377  11.525
56237W        W24642   9.521  36.166   5.059
56238W        W24643  19.032  33.536   4.295
56239W        W24644  11.818  12.124   1.840
56240W        W24645  29.092  22.054   4.107
56241W        W24646   4.338  34.752  12.467
56242W        W24647  11.121  23.752   2.608
56243W        W24648  16.604   8.213  11.391
56244W        W24649  33.521  25.490   3.236
56245W        W24650   9.864  18.843   1.849
56246W        W24651  24.762  29.156  13.937
56247W        W24652  43.737  16.905  13.795
56248W        W24653  10.521  28.577  14.170
56249W        W24654   0.053  22.237  13.307
56250W        W24655   8.364   1.246   4.693
56251W        W24656  39.039  39.273   0.929
56252W        W24657  15.814   0.972  11.605
56253W        W24658  21.677   1.006  12.163
56254W        W24659  21.767  10.262   3.028
56255W        W24660   8.019  19.445  11.648
56256W        W24661  37.527   9.932  12.445
56257W        W24662  28.547  41.328   5.295
56258W        W24663  42.451  26.213  12.656
56259W        W24664  29.534  23.708   2.870
56260W        W24665   5.280   8.874  11.159
56261W        W24666  28.386   6.801  14.461
56262W        W24667  27.729  25.268  14.511
56263W        W24668  38.415  42.695   3.327
56264W        W24669  37.521  31.032  12.868
56265W        W24670  25.609  22.919  14.191
56266W        W24671  34.808   7.023   2.330
56267W        W24672   5.956   8.618  11.652
56268W        W24673  19.016   7.006   2.233
56269W        W24674  40.538  42.198   4.588
56270W        W24675  31.832  25.179   4.700
56271W        W24676  40.153  43.005  13.386
56272W        W24677  10.875  17.722   4.514
56273W        W24678  39.099  21.080  12.458
56274W        W24679  35.345  16.026   1.345
56275W        W24680  43.564  34.085   4.570
56276W        W24681  41.020  29.161  13.284
56277W        W24682  32.970   9.406  12.588
56278W        W24683  15.026  24.896   2.832
56279W        W24684  15.216  17.562  10.974
56280W        W24685   5.384   6.973  13.991
56281W        W24686  28.155  10.941  13.614
56282W        W24687  19.371   2.732  10.584
56283W        W24688  43.732  16.096   2.129
56284W        W24689   6.403  15.012   1.863
56285W        W24690  43.551  32.477  13.274
56286W        W24691  12.605   8.137  10.728
56287W        W24692  43.543   5.402  13.909
56288W        W24693  30.379  16.616   5.099
56289W        W24694  43.529  36.447  11.663
56290W        W24695  41.816  20.165   0.244
56291W        W24696  20.120  18.562   4.932
56292W        W24697   2.288   0.626   0.389
56293W        W24698  38.947  36.647   4.118
56294W        W24699  33.583  19.036  12.541
56295W        W24700  29.767  12.983   1.892
56296W        W24701  36.525   9.761   0.893
56297W        W24702   1.013  19.136  12.556
56298W        W24703  12.693  26.070   1.415
56299W        W24704  30.545  39.545   2.844
56300W        W24705  33.583  24.403  11.173
56301W        W24706  39.711  18.149   2.281
56302W        W24707  20.662  26.600   3.740
56303W        W24708  27.993  11.863   5.110
56304W        W24709  29.691  12.826  12.078
56305W        W24710  40.488  12.756   0.037
56306W        W24711  16.858  42.825   0.843
56307W        W24712  36.653   4.263   1.571
56308W        W24713  42.284  39.285  12.786
56309W        W24714  10.981   6.852  11.167
56310W        W24715  17.277  25.208  14.589
56311W        W24716   4.844  18.822  14.796
56312W        W24717  32.027   2.655  12.563
56313W        W24718  12.706  36.658   2.824
56314W        W24719  37.900  11.837  12.606
56315W        W24720  15.640   7.062   3.702
56316W        W24721  41.166   8.232  14.278
56317W        W24722  10.323  40.609   4.927
56318W        W24723   7.756  44.750   0.860
56319W        W24724   3.758  25.909  14.329
56320W        W24725   9.131   0.077  14.928
56321W        W24726  26.809  35.010   0.941
56322W        W24727  13.982  24.905  11.048
56323W        W24728  43.781  15.746   1.252
56324W        W24729   9.337  14.407  11.397
56325W        W24730  16.319   7.821  12.167
56326W        W24731  29.992  43.446   3.343
56327W        W24732  44.721   9.244   0.602
56328W        W24733   7.143  19.262   1.529
56329W        W24734  20.084  20.784  14.554
56330W        W24735  36.287  39.715  10.895
56331W        W24736  29.113  19.542  11.590
56332W        W24737  41.795  36.748  10.884
56333W        W24738  16.596  37.319   1.184
56334W        W24739  21.010  37.345   2.843
56335W        W24740  14.027   5.936  11.647
56336W        W24741  25.998  36.513  10.753
56337W        W24742   1.186  39.224   2.895
56338W        W24743   7.363  38.347   3.220
56339W        W24744  26.584  23.250  11.375
56340W        W24745  34.939  25.139  12.822
56341W        W24746  30.385  40.789   3.572
56342W        W24747  27.163   1.291   4.780
56343W        W24748  18.407  41.077  13.038
56344W        W24749  23.930  33.077   1.128
56345W        W24750  31.557  26.976   0.922
56346W        W24751  28.710   6.423   2.776
56347W        W24752  17.690  15.765  12.566
56348W        W24753   3.108   1.816  11.195
56349W        W24754  38.826   9.426   2.669
56350W        W24755   7.164   5.639   1.297
56351W        W24756  34.976  34.636  14.350
56352W        W24757  21.822  24.793  13.857
56353W        W24758  33.572  10.400   3.283
56354W        W24759  32.273   7.280  10.634
56355W        W24760  12.346   1.840  14.451
56356W        W24761   0.301  31.439   4.104
56357W        W24762  32.892  28.958  12.007
56358W        W24763  35.772  36.110  14.788
56359W        W24764  22.270  16.569  14.431
56360W        W24765  26.695  31.504  11.157
56361W        W24766  19.337  36.074   3.276
56362W        W24767  15.055  20.236  13.870
56363W        W24768   4.434   2.367   2.657
56364W        W24769  16.803  24.476  12.112
56365W        W24770   4.423   9.328   1.833
56366W        W24771  34.950  43.504  13.432
56367W        W24772  12.653  41.847   2.475
56368W        W24773  29.788  40.442  11.913
56369W        W24774  16.735  15.742  10.320
56370W        W24775  25.742  14.747   1.783
56371W        W24776  29.628  32.577   2.623
56372W        W24777  35.064   8.649  12.391
56373W        W24778  20.569  24.947  11.954
56374W        W24779   3.617  33.998  11.650
56375W        W24780  38.974  11.348   4.785
56376W        W24781  41.032  16.569  12.048
56377W        W24782  31.397  36.281  12.098
56378W        W24783   5.133  40.982   1.899
56379W        W24784   6.241  39.137  11.229
56380W        W24785  43.347  15.126  12.555
56381W        W24786  31.051  37.326   1.825
56382W        W24787   8.214  27.331   4.896
56383W        W24788   8.576  42.017   4.050
56384W        W24789  39.427  30.859   0.370
56385W        W24790  11.345  18.461   3.257
56386W        W24791  10.268  20.058  12.416
56387W        W24792  15.412  11.216   1.290
56388W        W24793  35.384   8.613  11.954
56389W        W24794  21.277  44.423  14.811
56390W        W24795   0.624  43.906   3.712
56391W        W24796  33.086  43.649  14.828
56392W        W24797  33.141  37.397  10.721
56393W        W24798  29.073  13.830   2.691
56394W        W24799   1.421   6.250  14.567
56395W        W24800   6.639   5.655  14.113
56396W        W24801  44.608  33.095  14.592
56397W        W24802  18.878  10.164   1.345
56398W        W24803  44.497  40.011  14.977
56399W        W24804  25.030  35.985  10.370
56400W        W24805   0.166  30.734   0.615
56401W        W24806  27.959  18.672   0.423
56402W        W24807  29.588  39.561  12.085
56403W        W24808  14.367  33.652   1.460
56404W        W24809   6.324  28.080   0.853
56405W        W24810  42.886  11.048  13.036
56406W        W24811  19.816  22.306   3.184
56407W        W24812   6.020  17.069  12.070
56408W        W24813   4.723   9.741  11.836
56409W        W24814   8.649   7.544  11.982
56410W        W24815  32.855  33.959  13.586
56411W        W24816  28.266  22.270  11.206
56412W        W24817  15.141  15.350  11.427
56413W        W24818  33.114  12.815  12.971
56414W        W24819  35.095  35.148   0.240
56415W        W24820  15.585  28.963   0.528
56416W        W24821  41.579  25.219  10.828
56417W        W24822  24.854  21.188   2.636
56418W        W24823  13.185  12.351   4.437
56419W        W24824  32.116  25.159   0.362
56420W        W24825   9.550  29.570   4.028
56421W        W24826  10.236  42.550   1.259
56422W        W24827  36.605  44.849   4.701
56423W        W24828  17.261  36.878  14.325
56424W        W24829  34.861  33.438  12.468
56425W        W24830  14.521  38.628  14.141
56426W        W24831  25.217  34.110   0.979
56427W        W24832   3.437  40.949   2.695
56428W        W24833  42.844   1.798  13.316
56429W        W24834  14.772  39.195   4.141
56430W        W24835  31.597  32.089   3.822
56431W        W24836  43.029   4.804   2.746
56432W        W24837   0.094   2.737   1.187
56433W        W24838  37.369   5.263  10.709
56434W        W24839  30.177  39.272  14.836
56435W        W24840  17.104  20.174   1.703
56436W        W24841  17.403  12.255   4.726
56437W        W24842  25.179   2.651  12.883
56438W        W24843   5.463  11.128  14.882
56439W        W24844  18.745   7.152   4.985
56440W        W24845  39.075  22.942  12.006
56441W        W24846  35.845  20.742  14.922
56442W        W24847   9.667   8.573   1.431
56443W        W24848  27.381  17.852  13.359
56444W        W24849  19.224  36.028   0.617
56445W        W24850  22.230  39.113   0.116
56446W        W24851  42.464  26.651  14.696
56447W        W24852  40.302  28.562  12.961
56448W        W24853  43.762  38.033   0.548
56449W        W24854  34.068  17.783   0.706
56450W        W24855  21.588  25.617   3.566
56451W        W24856  23.551  30.211   3.012
56452W        W24857  32.187  35.930  13.562
56453W        W24858  42.502  13.786   4.138
56454W        W24859  31.158  10.954   1.220
56455W        W24860  21.815  33.974  14.983
56456W        W24861   7.847  20.989   0.293
56457W        W24862   0.337  32.631  14.477
56458W        W24863   3.354  42.840   4.516
56459W        W24864  19.092  10.423  11.141
56460W        W24865  19.710  24.493  11.456
56461W        W24866   4.803  28.161   2.731
56462W        W24867   0.219   9.814   3.800
56463W        W24868  11.731  22.796  10.241
56464W        W24869  27.529  17.096   2.455
56465W        W24870  10.249  33.366   4.717
56466W        W24871  19.629  35.946   1.420
56467W        W24872  26.678  44.205   0.908
56468W        W24873  19.225  23.657  14.951
56469W        W24874   4.997  12.761   1.477
56470W        W24875  28.956  41.873  10.202
56471W        W24876  27.516   7.159   1.938
56472W        W24877  39.837  14.441   4.972
56473W        W24878   2.915  31.959  13.082
56474W        W24879  11.323   6.415  14.038
56475W        W24880  43.885  15.299   0.389
56476W        W24881  41.907  33.245  11.319
56477W        W24882  36.511  10.245  13.777
56478W        W24883  17.442   9.570  11.688
56479W        W24884   5.658   6.657   2.169
56480W        W24885  17.351  38.353   1.013
56481W        W24886   3.352  24.385   3.710
56482W        W24887   9.696  39.561   1.659
56483W        W24888  22.668  44.820   1.148
56484W        W24889  17.003  21.772  13.726
56485W        W24890  26.103  21.944  14.271
56486W        W24891  13.935  17.639   1.378
56487W        W24892   7.891  37.027   3.390
56488W        W24893  32.863  34.866  13.626
56489W        W24894  18.762  31.462   0.832
56490W        W24895  15.058  24.486   0.894
56491W        W24896  43.005   1.129  13.318
56492W        W24897   4.696   9.657   9.900
56493W        W24898   8.605  14.579   1.384
56494W        W24899  23.063  41.811  14.302
56495W        W24900  27.260   2.321   0.508
56496W        W24901   8.379  21.927  11.572
56497W        W24902  24.686  41.500  13.107
56498W        W24903  38.305  35.796  12.834
56499W        W24904  25.098  30.458  11.485
56500W        W24905   8.766  22.778   2.122
56501W        W24906  28.670  36.872  12.016
56502W        W24907   1.557  11.197  13.172
56503W        W24908  32.499   8.019  11.923
56504W        W24909   8.340   7.148  14.119
56505W        W24910   5.399  29.076   1.983
56506W        W24911  27.017  31.123   3.242
56507W        W24912  37.331  44.407   3.661
56508W        W24913   2.583  36.881  12.845
56509W        W24914   0.679  32.516   3.743
56510W        W24915  39.450  31.209  11.540
56511W        W24916  44.799  15.000   1.800
56512W        W24917  30.971   0.717  12.782
56513W        W24918  25.716   3.262   4.185
56514W        W24919  25.568  17.495   0.670
56515W        W24920   6.177  21.636   1.960
56516W        W24921   4.883   5.984  10.296
56517W        W24922  34.869  33.597   0.344
56518W        W24923  28.290   8.356  13.950
56519W        W24924   9.137  12.709   2.195
56520W        W24925  38.118   9.737   0.773
56521W        W24926  22.555  25.005   1.445
56522W        W24927  38.094  19.646   0.442
56523W        W24928   5.381  35.852   1.617
56524W        W24929   8.757  19.014   3.621
56525W        W24930   5.186  29.842  11.807
56526W        W24931  27.519  37.338  13.542
56527W        W24932  28.520  44.795  14.868
56528W        W24933  15.279  15.761   3.378
56529W        W24934  18.249  28.898   1.323
56530W        W24935   3.071  44.506   2.169
56531W        W24936   3.450  37.606   1.345
56532W        W24937  22.056  29.696   4.490
56533W        W24938  24.711   6.053   4.927
56534W        W24939  14.137  15.273  10.975
56535W        W24940   5.852  24.827   2.615
56536W        W24941  21.830  20.167  12.138
56537W        W24942  16.764  29.924  11.057
56538W        W24943   4.455  33.654  14.874
56539W        W24944   6.444  42.310  12.486
56540W        W24945  14.567  30.491  13.961
56541W        W24946  17.456  33.983   4.477
56542W        W24947  14.124   8.480   3.044
56543W        W24948  31.875  41.817   1.275
56544W        W24949  18.179  19.748   0.400
56545W        W24950   9.859  31.389  14.458
56546W        W24951  14.183  23.993  11.587
56547W        W24952  19.261  35.342   0.004
56548W        W24953  32.493  22.440  11.149
56549W        W24954  11.887   4.350  11.473
56550W        W24955  35.226  37.431  10.576
56551W        W24956  35.823  30.159  13.982
56552W        W24957  29.999  41.539  14.423
56553W        W24958  26.212  19.045   2.128
56554W        W24959  10.680  40.982   4.826
56555W        W24960   0.921   6.400   3.797
56556W        W24961  28.889  35.803  14.234
56557W        W24962   7.780  31.281  11.975
56558W        W24963  12.394  12.626  12.822
56559W        W24964  44.412  17.578  12.793
56560W        W24965   2.366  17.569  11.860
56561W        W24966  37.337   4.444  12.975
56562W        W24967   8.957  31.357   0.425
56563W        W24968  37.533  34.145  10.618
56564W        W24969   7.699   6.666   2.460
56565W        W24970   7.716  39.026  11.502
56566W        W24971  34.491  13.335  14.218
56567W        W24972  15.644  41.278  13.386
56568W        W24973  18.207  18.042   2.656
56569W        W24974  19.452  34.391  13.014
56570W        W24975  18.645   7.612   0.860
56571W        W24976  35.888  42.940   1.907
56572W        W24977  39.030   4.154   4.042
56573W        W24978  17.120  25.458   2.202
56574W        W24979  15.730  35.497   5.114
56575W        W24980   1.774  42.532  14.891
56576W        W24981   0.811  33.388  10.541
56577W        W24982  31.988  24.637  14.488
56578W        W24983  26.742  29.433  14.809
56579W        W24984  22.823   5.481  11.033
56580W        W24985   4.314   2.251   0.474
56581W        W24986  36.069  12.010   0.370
56582W        W24987  22.536  19.244   4.555
56583W        W24988   7.408  26.128   2.831
56584W        W24989   6.849  24.629   2.718
56585W        W24990  15.461   1.500   1.739
56586W        W24991   3.343   3.587  10.312
56587W        W24992  42.312  41.527   1.706
56588W        W24993  22.308  30.725  13.768
56589W        W24994   2.256  25.469  13.902
56590W        W24995  25.373  19.865   4.493
56591W        W24996   0.243  43.460  13.966
56592W        W24997  25.743  20.211   4.592
56593W        W24998   6.414  38.601   4.448
56594W        W24999  23.533  10.923   4.102
56595W        W25000  22.084  26.900  12.367
56596W        W25001  44.914  27.157   4.837
56597W        W25002  30.985  26.328   2.422
56598W        W25003  35.590   7.283   3.606
56599W        W25004  24.229  32.158   4.096
56600W        W25005  22.007  31.303  10.638
56601W        W25006   2.963  33.258   5.044
56602W        W25007  19.735   8.943   4.978
56603W        W25008   9.091  32.040  12.043
56604W        W25009  27.643  10.594  10.357
56605W        W25010  19.985  10.033   3.579
56606W        W25011  24.308  36.144   1.328
56607W        W25012  21.081  28.731   3.163
56608W        W25013  29.682  31.573  11.610
56609W        W25014   9.368  27.039   0.414
56610W        W25015  36.158  37.353  11.471
56611W        W25016  11.142  42.005   1.217
56612W        W25017   0.887   2.479  13.444
56613W        W25018  30.379  28.806   2.150
56614W        W25019  19.797  15.851   4.652
56615W        W25020   0.975  17.123   4.594
56616W        W25021  11.354  23.924  13.886
56617W        W25022  34.035  23.460   0.454
56618W        W25023  18.583  44.716  14.963
56619W        W25024  37.637  33.449   0.938
56620W        W25025   7.273  22.596   0.681
56621W        W25026  35.247   8.758   3.866
56622W        W25027  16.679  19.746  14.851
56623W        W25028  11.837   0.278   1.957
56624W        W25029   8.348  14.332  10.237
56625W        W25030  35.153  12.384   3.161
56626W        W25031  11.724  39.154   4.112
56627W        W25032  18.231  41.936   1.902
56628W        W25033   3.466  14.058  14.025
56629W        W25034   7.428  15.835  14.495
56630W        W25035  33.506   4.331   4.643
56631W        W25036   4.707  30.540   2.920
56632W        W25037   1.234  40.085   2.567
56633W        W25038  43.044  29.980   1.761
56634W        W25039  16.876  42.545   0.350
56635W        W25040   1.844  44.691   0.216
56636W        W25041   1.748  13.705   1.262
56637W        W25042  18.031  36.782   4.059
56638W        W25043  11.130  15.862  14.079
56639W        W25044   9.589   4.458   1.361
56640W        W25045  14.690  30.498   4.516
56641W        W25046   7.136  27.477   5.163
56642W        W25047   5.188  23.666   2.319
56643W        W25048  38.343  32.972  14.035
56644W        W25049  38.929  20.179   4.932
56645W        W25050  41.050  29.957   3.061
56646W        W25051  19.300  10.614  12.470
56647W        W25052   7.744  37.057   4.765
56648W        W25053  13.841   4.258  12.600
56649W        W25054  44.429  27.264  13.842
56650W        W25055   1.792  36.003  14.823
56651W        W25056   4.772  44.866  13.932
56652W        W25057  42.255  16.215   0.635
56653W        W25058  41.550  22.020  13.202
56654W        W25059  14.325  22.089  14.056
56655W        W25060   9.838   4.525   0.918
56656W        W25061   6.354  36.137   1.674
56657W        W25062  23.744  24.235   0.979
56658W        W25063  42.808  43.968   3.286
56659W        W25064   8.650  18.621   4.502
56660W        W25065  41.969  34.947  14.439
56661W        W25066   6.604  18.223  14.935
56662W        W25067  32.468   2.892  12.390
56663W        W25068   5.691  23.970  11.166
56664W        W25069  28.407  35.142   0.854
56665W        W25070  26.577  12.015   5.049
56666W        W25071  41.725  21.797   4.065
56667W        W25072   3.278  24.671  12.154
56668W        W25073  14.292  16.843   2.602
56669W        W25074   4.668   8.628  14.418
56670W        W25075  38.596  25.718  14.995
56671W        W25076   7.710   2.456  12.608
56672W        W25077  21.032  29.485   1.499
56673W        W25078  17.207   5.388  10.654
56674W        W25079  15.013  40.860   3.714
56675W        W25080  15.234  34.443  14.905
56676W        W25081  35.813  43.021   3.216
56677W        W25082  36.976   6.605  12.471
56678W        W25083   9.730  42.465   3.564
56679W        W25084  22.490  40.997  14.458
56680W        W25085   3.388  30.688   3.232
56681W        W25086   0.914  31.565  12.590
56682W        W25087  12.663  20.281   1.474
56683W        W25088  24.045  35.868  10.783
56684W        W25089  13.860  44.582   3.668
56685W        W25090  34.485  16.280   0.884
56686W        W25091  22.795  31.388  14.508
56687W        W25092  40.852  19.774   3.372
56688W        W25093   5.329  24.051  14.820
56689W        W25094  24.768   1.783   4.249
56690W        W25095  26.712  21.472   0.384
56691W        W25096   8.727  37.460  10.940
56692W        W25097   0.917  25.889   4.019
56693W        W25098  14.207  24.696   3.331
56694W        W25099  28.572  35.468  14.658
56695W        W25100   2.763  19.710   3.520
56696W        W25101  28.603  33.609  12.644
56697W        W25102   9.243  32.425  13.677
56698W        W25103  14.349  35.132   0.278
56699W        W25104   2.223  39.338   0.814
56700W        W25105  15.097   3.875  14.684
56701W        W25106  11.794  37.552   2.296
56702W        W25107  18.029  18.147  11.576
56703W        W25108   5.250   0.308   4.494
56704W        W25109  10.931  15.233   1.751
56705W        W25110   4.035  11.178  13.019
56706W        W25111  15.059   0.702   0.329
56707W        W25112  38.839  34.380  11.105
56708W        W25113  38.130  16.618  11.104
56709W        W25114  16.641  24.741   2.272
56710W        W25115  38.970  13.842  10.495
56711W        W25116  26.489  28.983   1.956
56712W        W25117  24.212  31.430  14.023
56713W        W25118  33.805  21.593   0.813
56714W        W25119  37.876  32.926  13.805
56715W        W25120  20.650   4.393  13.146
56716W        W25121  29.713  11.104  11.655
56717W        W25122  13.846  43.523  11.058
56718W        W25123  32.701  34.572  10.898
56719W        W25124  33.921  41.206   0.425
56720W        W25125  39.987  20.296   3.343
56721W        W25126  34.350  23.219  14.447
56722W        W25127  23.720  38.522   2.862
56723W        W25128   5.995  24.697  14.022
56724W        W25129  31.941  26.849  13.466
56725W        W25130  20.008  31.440  14.034
56726W        W25131  11.538  12.162   3.218
56727W        W25132  33.096  31.537   3.657
56728W        W25133   0.987   2.838   0.840
56729W        W25134  33.574  18.132   3.623
56730W        W25135   7.724  13.881  13.330
56731W        W25136  38.889  35.752   0.840
56732W        W25137  17.322  26.439  11.686
56733W        W25138  13.888  37.387   1.337
56734W        W25139   9.619   3.969  12.170
56735W        W25140  21.068  31.351  14.856
56736W        W25141  14.796  35.419   0.837
56737W        W25142  35.339   3.321  11.941
56738W        W25143  28.115  29.165   2.745
56739W        W25144  44.330  41.425   2.599
56740W        W25145  15.749   7.533   3.569
56741W        W25146  37.709   3.841  11.748
56742W        W25147  24.248   1.759  12.017
56743W        W25148  29.757  26.953   2.266
56744W        W25149  28.937  11.759   2.380
56745W        W25150   8.652  22.955  11.476
56746W        W25151  37.110  39.051  14.779
56747W        W25152  37.959  18.853  11.091
56748W        W25153  15.476  36.550  11.400
56749W        W25154  18.697   4.929  14.713
56750W        W25155  23.273  36.076   4.154
56751W        W25156  11.438  12.570  13.130
56752W        W25157  43.488   1.008  14.447
56753W        W25158  40.910  29.655  12.346
56754W        W25159  10.242  15.634  13.814
56755W        W25160  29.532  13.581  14.315
56756W        W25161  21.918  31.517   4.509
56757W        W25162  23.053  11.171  11.511
56758W        W25163  16.068  10.199   0.477
56759W        W25164  30.016  40.803  11.613
56760W        W25165   3.286  22.844   5.164
56761W        W25166  27.932  16.015  11.383
56762W        W25167  16.856  21.282  12.559
56763W        W25168  31.714  23.649  14.232
56764W        W25169   1.337  24.607  14.860
56765W        W25170  32.010  15.198   2.244
56766W        W25171   3.975   2.224  13.970
56767W        W25172  23.437  14.948   2.333
56768W        W25173  19.097  18.142  11.033
56769W        W25174  23.072  39.074   0.372
56770W        W25175  10.374  44.825   2.952
56771W        W25176  44.833   0.371   2.256
56772W        W25177  35.578   2.917  12.107
56773W        W25178  41.150  24.182  11.561
56774W        W25179  35.911  15.647   2.438
56775W        W25180  25.758  28.675   1.285
56776W        W25181  23.044  19.689  10.855
56777W        W25182  16.792   4.615   2.866
56778W        W25183   9.488   6.023   2.791
56779W        W25184  16.644   2.709  10.920
56780W        W25185  21.492  35.308   1.041
56781W        W25186  21.638  41.857  13.991
56782W        W25187  18.597  30.575   3.669
56783W        W25188  30.130  37.455  14.322
56784W        W25189   0.492  12.795   2.745
56785W        W25190  41.358   6.391  10.836
56786W        W25191   2.324  16.100  11.080
56787W        W25192  27.137   7.433   1.687
56788W        W25193  14.048  21.161  12.735
56789W        W25194  39.930  13.518  14.705
56790W        W25195  43.648  25.235  10.662
56791W        W25196  19.586   4.033   3.783
56792W        W25197  21.864   5.130   2.763
56793W        W25198  22.219  37.966  10.673
56794W        W25199  33.978  11.538  13.545
56795W        W25200  42.763  21.713   3.240
56796W        W25201  11.798  38.908   4.625
56797W        W25202   6.154  19.050   3.150
56798W        W25203  20.791  27.583  13.433
56799W        W25204  38.848   7.659  10.817
56800W        W25205  14.114  41.498  11.603
56801W        W25206   9.954  40.478   4.534
56802W        W25207  13.297  22.754  14.826
56803W        W25208  10.847  38.568   3.191
56804W        W25209  17.724   8.606  10.974
56805W        W25210  29.981  20.626  13.416
56806W        W25211   4.233   1.438  11.392
56807W        W25212  20.219   5.385   4.348
56808W        W25213  26.879  16.795   1.939
56809W        W25214  30.078  11.091  13.340
56810W        W25215  36.605  32.444  13.356
56811W        W25216   8.111  23.127  14.872
56812W        W25217   5.892  29.133  14.987
56813W        W25218  21.319  40.845   4.595
56814W        W25219  12.068   6.425  11.644
56815W        W25220  28.953  24.330   1.756
56816W        W25221   2.293  27.879  12.396
56817W        W25222  42.198  20.079   4.530
56818W        W25223  17.210  23.202   4.103
56819W        W25224  12.786  44.849   2.781
56820W        W25225  38.959  43.840   3.855
56821W        W25226  27.463  20.154  10.553
56822W        W25227   3.598   7.475  13.603
56823W        W25228  44.305  29.279   4.607
56824W        W25229  17.627  41.472   1.553
56825W        W25230  22.067  13.839  10.751
56826W        W25231   7.342   4.363   3.307
56827W        W25232  27.807  12.639   1.344
56828W        W25233  38.547   2.795  13.764
56829W        W25234  10.276   2.483  12.046
56830W        W25235   3.342  37.571  12.028
56831W        W25236  30.036  22.628  13.025
56832W        W25237  42.763  11.410  12.042
56833W        W25238  17.035  27.525   2.733
56834W        W25239  35.587  21.639   4.517
56835W        W25240  32.029  36.022   0.399
56836W        W25241  12.795  38.336   0.440
56837W        W25242  10.709  39.535  12.834
56838W        W25243  36.854  12.818   1.396
56839W        W25244  18.811  36.580   2.826
56840W        W25245  26.414  40.237  13.865
56841W        W25246   4.925  40.140   0.051
56842W        W25247   9.319  44.794  12.010
56843W        W25248  19.169  33.718   2.819
56844W        W25249  32.100  39.708  11.627
56845W        W25250  31.240  39.895  10.188
56846W        W25251  34.680  25.618  12.972
56847W        W25252  25.480   8.693  12.501
56848W        W25253  38.381  36.584  14.930
56849W        W25254  22.786  10.595  14.003
56850W        W25255  42.260  39.907   2.315
56851W        W25256  36.869   4.328  14.691
56852W        W25257  32.111  14.317  14.573
56853W        W25258  11.396  34.091   1.981
56854W        W25259   1.664   5.217  10.356
56855W        W25260  14.786   9.290  11.515
56856W        W25261  32.618  35.836  12.827
56857W        W25262  27.647  42.621  10.484
56858W        W25263   7.297  21.762  13.948
56859W        W25264   4.204  12.054   0.247
56860W        W25265  24.747  14.213  14.337
56861W        W25266  20.080  24.209  11.245
56862W        W25267  13.125   5.388   2.442
56863W        W25268  36.990  25.457  12.522
56864W        W25269  44.933  10.182   3.512
56865W        W25270  18.382  35.082  11.204
56866W        W25271  36.395  43.487  11.110
56867W        W25272  43.651  41.165  12.932
56868W        W25273  11.488  17.004   3.616
56869W        W25274  23.465  31.181  11.254
56870W        W25275   9.561  10.627   3.216
56871W        W25276   2.871   6.760  14.337
56872W        W25277  32.141  21.233   2.581
56873W        W25278  10.254   3.466   2.843
56874W        W25279   5.681  28.036  12.910
56875W        W25280  15.381  34.569   2.740
56876W        W25281  34.377  31.036  11.529
56877W        W25282  10.004   0.699  13.532
56878W        W25283  44.747  39.433  10.606
56879W        W25284  41.496  40.622   3.338
56880W        W25285  13.148  23.545  11.985
56881W        W25286  24.197  33.346  10.791
56882W        W25287  25.423  14.549   0.416
56883W        W25288   2.258  44.948   4.092
56884W        W25289  17.078  27.996  12.085
56885W        W25290   3.953  32.192   4.006
56886W        W25291  35.818   7.850  11.629
56887W        W25292  16.774  39.410   4.199
56888W        W25293  11.610  14.172  10.030
56889W        W25294   7.208   7.765  11.645
56890W        W25295  16.297  27.365   0.594
56891W        W25296  14.306  11.144   2.135
56892W        W25297  23.614  18.515   3.270
56893W        W25298  34.905  18.012  13.909
56894W        W25299  44.860   3.109  12.381
56895W        W25300  28.454   6.661  13.967
56896W        W25301   9.136  31.203   4.901
56897W        W25302  15.095  24.571  11.454
56898W        W25303  27.649  10.793  13.645
56899W        W25304  12.812  20.806  13.923
56900W        W25305  40.507  17.589  10.669
56901W        W25306  20.315  22.636  14.201
56902W        W25307  42.574   7.869  13.413
56903W        W25308  16.611  10.657   1.822
56904W        W25309  42.068   5.426  14.429
56905W        W25310  13.619  30.909  13.992
56906W        W25311   6.204   2.739  10.678
56907W        W25312   3.890  14.336   3.516
56908W        W25313   3.510  17.780   1.434
56909W        W25314  41.576   7.218   2.784
56910W        W25315  27.251  44.305  11.628
56911W        W25316  30.930  21.028  13.390
56912W        W25317  25.696  11.326  14.417
56913W        W25318   5.277  32.139   0.885
56914W        W25319  12.641  19.710   3.633
56915W        W25320  41.999  28.161   1.231
56916W        W25321  32.896  30.376  12.088
56917W        W25322  16.815  39.398  13.104
56918W        W25323  15.378  35.586  13.080
56919W        W25324  23.250  35.594  12.111
56920W        W25325   5.932  44.699  14.675
56921W        W25326   9.204  16.818  10.365
56922W        W25327  39.771   3.465  13.797
56923W        W25328  32.090  28.339   1.445
56924W        W25329  24.916  14.132   2.865
56925W        W25330  39.468  28.133  10.680
56926W        W25331  11.447   8.555   2.193
56927W        W25332  18.686   4.394   3.133
56928W        W25333  17.657  43.986  10.676
56929W        W25334  25.613   2.239   0.402
56930W        W25335  41.964   2.311   1.202
56931W        W25336  39.809  31.899   3.405
56932W        W25337  42.511  11.724  14.197
56933W        W25338  36.675  30.002  11.561
56934W        W25339  13.292   1.280  13.885
56935W        W25340  10.649  35.887  10.324
56936W        W25341  27.789   8.294  13.967
56937W        W25342  27.550  41.593   4.992
56938W        W25343  24.159  28.891   1.640
56939W        W25344  16.145  37.929  14.309
56940W        W25345  42.546   3.147   2.109
56941W        W25346  18.625   8.984   5.744
56942W        W25347  21.654   0.879   3.858
56943W        W25348   7.572   9.601  14.783
56944W        W25349  32.998  26.441  11.671
56945W        W25350  41.434   0.076   3.919
56946W        W25351  39.228  41.393   1.769
56947W        W25352   9.075   0.242   4.205
56948W        W25353  22.064  27.833  12.615
56949W        W25354  23.441  17.951  12.257
56950W        W25355  44.909  12.862  14.227
56951W        W25356  34.813  16.313   0.493
56952W        W25357   2.496  10.016   0.758
56953W        W25358  39.352  10.771  12.632
56954W        W25359  37.665   2.847  14.733
56955W        W25360  20.177  26.641   3.327
56956W        W25361  34.014   3.358   3.153
56957W        W25362   4.906  31.599   1.393
56958W        W25363  28.865  34.564   2.865
56959W        W25364   4.508  10.894  14.808
56960W        W25365   2.323  27.951   3.714
56961W        W25366  37.889   0.991   1.901
56962W        W25367   7.097   3.875   3.261
56963W        W25368  23.071  44.745   3.266
56964W        W25369  22.389  22.967  11.275
56965W        W25370  23.012  13.895  14.756
56966W        W25371  17.991  44.494   0.944
56967W        W25372  38.469  16.499   2.816
56968W        W25373  42.164  16.292  14.779
56969W        W25374   5.939  37.238  10.648
56970W        W25375  13.571  38.815   2.375
56971W        W25376  29.912  27.177   3.663
56972W        W25377  39.831  29.163   1.783
56973W        W25378   6.196   7.338  14.320
56974W        W25379  21.953   2.277  11.569
56975W        W25380   5.414   0.772   1.221
56976W        W25381  42.481  20.186   0.376
56977W        W25382  25.947  42.017   1.025
56978W        W25383   2.210  35.556  13.483
56979W        W25384  40.497  26.917  11.212
56980W        W25385  33.418  19.260  14.793
56981W        W25386  24.829  29.847   0.697
56982W        W25387  36.115  35.603  12.938
56983W        W25388   3.230  13.237   1.193
56984W        W25389  13.557  26.991   3.293
56985W        W25390  20.254  31.356  12.574
56986W        W25391  26.498  40.715   3.573
56987W        W25392  43.213  19.166  11.484
56988W        W25393   7.867  30.510   4.951
56989W        W25394  18.699  10.196   0.462
56990W        W25395  12.823  19.044   0.854
56991W        W25396   9.799   6.755   1.425
56992W        W25397  38.714  43.205  14.791
56993W        W25398   0.762   2.852   0.294
56994W        W25399  14.131  39.428  10.837
56995W        W25400  11.105   9.399  14.369
56996W        W25401  32.860  29.736   3.776
56997W        W25402  27.620   4.928  14.632
56998W        W25403  33.888   6.843   1.980
56999W        W25404  32.825   8.635   0.581
57000W        W25405  33.504  16.812   4.883
57001W        W25406  32.486  28.694  11.716
57002W        W25407   2.944  29.574   0.491
57003W        W25408  37.137  44.795   3.403
57004W        W25409  32.946   3.744   1.909
57005W        W25410   6.277  28.240  11.620
57006W        W25411  31.164  42.365   1.235
57007W        W25412  26.401  35.281  11.894
57008W        W25413  32.200  31.179   4.964
57009W        W25414   1.174   5.811  14.730
57010W        W25415  19.832  42.502  12.007
57011W        W25416  39.886   7.713  14.889
57012W        W25417  34.951  28.674  11.514
57013W        W25418  19.547   8.130   2.829
57014W        W25419  16.700  27.936   1.272
57015W        W25420  27.425  20.265  14.778
57016W        W25421  41.543  15.748  11.710
57017W        W25422  16.410   4.727  12.542
57018W        W25423  42.780  29.860  10.697
57019W        W25424  22.532  31.496  11.141
57020W        W25425  15.058  43.168  14.535
57021W        W25426   4.794  38.402   9.844
57022W        W25427   3.685  41.361   1.029
57023W        W25428  31.450  24.072  11.587
57024W        W25429  20.960  38.388   0.702
57025W        W25430  40.341   1.348   3.935
57026W        W25431   0.862  43.754   2.015
57027W        W25432  16.552  22.479  14.295
57028W        W25433  22.085   2.728  12.392
57029W        W25434  32.167  41.474  10.655
57030W        W25435  10.789  20.486   1.755
57031W        W25436   3.727   7.793   0.944
57032W        W25437  40.039   0.430   4.144
57033W        W25438  39.550  30.622  11.658
57034W        W25439  37.888  18.939  14.034
57035W        W25440  29.896  42.945  11.560
57036W        W25441  14.335  14.143   0.305
57037W        W25442   6.978  12.121  13.763
57038W        W25443  23.017  33.997  13.377
57039W        W25444  22.530  41.716   1.671
57040W        W25445  36.087  25.560  12.815
57041W        W25446  20.933  25.722   3.611
57042W        W25447  16.663  20.811  12.663
57043W        W25448  11.647  39.665   4.072
57044W        W25449  11.479   8.241  12.006
57045W        W25450  11.840   1.486  11.684
57046W        W25451  36.448  34.867  11.171
57047W        W25452  43.059   6.742   1.818
57048W        W25453  21.684  37.729  12.068
57049W        W25454  18.313  41.878   4.269
57050W        W25455   0.993  22.800  13.556
57051W        W25456  18.142  29.028   2.749
57052W        W25457  18.170  11.815   4.083
57053W        W25458  30.501  31.108   0.846
57054W        W25459  37.470  16.351  14.526
57055W        W25460   1.029  10.145   3.418
57056W        W25461  34.383  12.852  13.830
57057W        W25462  44.357  18.161  10.186
57058W        W25463  22.396  27.360   0.768
57059W        W25464  21.105  20.300   1.894
57060W        W25465  25.868  12.129   4.370
57061W        W25466  29.588  29.257   0.297
57062W        W25467  14.928  35.657  11.175
57063W        W25468  18.518  37.525   0.447
57064W        W25469   0.345  30.500  13.336
57065W        W25470   4.938  14.297  14.006
57066W        W25471  31.195  18.724  14.420
57067W        W25472  38.262  12.017  14.045
57068W        W25473  40.232  14.615  11.796
57069W        W25474  24.070  35.881   2.967
57070W        W25475  26.461  29.437   4.499
57071W        W25476  28.203  14.610  13.930
57072W        W25477  10.224  32.683  10.380
57073W        W25478  44.534  18.538   4.508
57074W        W25479   7.788  16.806  14.886
57075W        W25480  21.015   5.971   2.240
57076W        W25481  39.066  11.360  14.146
57077W        W25482  11.732   3.734   2.632
57078W        W25483  23.275  31.803  13.853
57079W        W25484  30.746  35.928  11.541
57080W        W25485   5.850  17.315   4.599
57081W        W25486  29.816  19.150   3.705
57082W        W25487   0.848  28.354   3.762
57083W        W25488   6.813  17.523   2.324
57084W        W25489  30.501  29.877   1.218
57085W        W25490  15.231  22.843   2.400
57086W        W25491  18.696   0.084  11.475
57087W        W25492  21.627  31.985   0.827
57088W        W25493  42.749  24.046   3.526
57089W        W25494  27.183   7.454   2.207
57090W        W25495   4.084  38.564   2.099
57091W        W25496   2.355  16.353   2.799
57092W        W25497   9.223  34.590  14.415
57093W        W25498  42.406  43.281  14.830
57094W        W25499  29.489  43.296  12.599
57095W        W25500  29.391   0.036   0.459
57096W        W25501  15.072  37.149   1.971
57097W        W25502  36.350  29.351   4.336
57098W        W25503  39.872  24.648  10.796
57099W        W25504  25.261  16.783   3.756
57100W        W25505   5.097   5.282  10.601
57101W        W25506   3.430  15.658  11.134
57102W        W25507  22.759  32.161   3.642
57103W        W25508  18.496  22.624   3.601
57104W        W25509  10.062  29.446   3.831
57105W        W25510  30.979  41.263  10.198
57106W        W25511  44.872  24.031   0.471
57107W        W25512  21.942  21.966  13.450
57108W        W25513  32.201  39.399  13.031
57109W        W25514  23.929  15.431   0.336
57110W        W25515   3.897  32.387  11.163
57111W        W25516  27.192  42.579  12.142
57112W        W25517   2.139  14.299  11.944
57113W        W25518   2.321  10.680  12.232
57114W        W25519   4.304  11.362  13.443
57115W        W25520  40.064  35.837   0.738
57116W        W25521  22.667  18.879  13.887
57117W        W25522   8.854  13.701  12.891
57118W        W25523  12.040  14.179  14.918
57119W        W25524  42.526  26.701  12.837
57120W        W25525  38.796   7.964  14.308
57121W        W25526  37.998   1.786  10.354
57122W        W25527   9.367  13.164  12.422
57123W        W25528  30.261  22.176  13.075
57124W        W25529   5.840  19.265  12.945
57125W        W25530  41.831  17.532   1.783
57126W        W25531  10.138  24.813   4.719
57127W        W25532  21.579  36.924   1.831
57128W        W25533  33.347  14.301  13.405
57129W        W25534  11.255   5.128   4.177
57130W        W25535   5.842  42.669   4.290
57131W        W25536  17.904  19.111   4.543
57132W        W25537  15.791  44.459  10.641
57133W        W25538  32.063  23.512  11.896
57134W        W25539   2.530  16.724  14.723
57135W        W25540  27.657  34.620  14.833
57136W        W25541  35.830  42.002   3.375
57137W        W25542   3.819  35.929   1.932
57138W        W25543  16.641  20.709  14.609
57139W        W25544  32.664  32.038  14.013
57140W        W25545  31.616  11.649  14.344
57141W        W25546  15.703  35.095   0.442
57142W        W25547  27.369   0.895   4.531
57143W        W25548  23.550  36.332  11.015
57144W        W25549  44.508  12.113  14.478
57145W        W25550  43.316  12.608   3.696
57146W        W25551  15.226   2.683   4.483
57147W        W25552  21.095  26.459  12.129
57148W        W25553  31.169   4.192   3.926
57149W        W25554  17.681  31.426  11.032
57150W        W25555  36.284  36.236  14.894
57151W        W25556   2.356  22.320   1.439
57152W        W25557  14.163  26.705  12.068
57153W        W25558  38.086  11.425   4.541
57154W        W25559  37.120  33.621  14.789
57155W        W25560  32.339  34.551  14.840
57156W        W25561   6.671  35.603  13.003
57157W        W25562  18.042  44.802   1.914
57158W        W25563   8.929  20.746   2.826
57159W        W25564   8.669   3.964   1.418
57160W        W25565  17.691   6.759   3.573
57161W        W25566  26.049  41.889  10.394
57162W        W25567  16.661  13.342   3.286
57163W        W25568  34.958  37.015   4.318
57164W        W25569  19.297  25.949  13.325
57165W        W25570  17.820  32.362   1.056
57166W        W25571  30.562  13.761   1.303
57167W        W25572   0.863  36.832  14.318
57168W        W25573  34.176   1.282   0.935
57169W        W25574  10.136  33.039   0.373
57170W        W25575  31.602  35.796   2.503
57171W        W25576  10.878  39.086   2.942
57172W        W25577  34.974  22.725   5.110
57173W        W25578  11.893   4.735   3.581
57174W        W25579  33.443  37.130   2.549
57175W        W25580  35.522   5.448  11.992
57176W        W25581  39.964  35.994   1.230
57177W        W25582  31.605  27.525  13.616
57178W        W25583  30.466   1.313  12.129
57179W        W25584  43.305  35.362  12.973
57180W        W25585  32.309  28.625  10.324
57181W        W25586  39.770  22.072   0.383
57182W        W25587   0.827  44.391   3.888
57183W        W25588   0.214  27.960  14.474
57184W        W25589  11.892  14.309  14.377
57185W        W25590  32.983  43.738  10.474
57186W        W25591  12.299  21.363   2.199
57187W        W25592  16.706  32.653  11.526
57188W        W25593  30.904   7.573   1.747
57189W        W25594  13.710  31.682   0.762
57190W        W25595   3.788   4.106  14.032
57191W        W25596  21.554  37.079  11.367
57192W        W25597  18.587  30.066   3.293
57193W        W25598  34.636  14.696   1.947
57194W        W25599   0.768  39.468   0.617
57195W        W25600  42.107   9.485  14.576
57196W        W25601  21.536  29.679  12.821
57197W        W25602  35.921  25.461  11.911
57198W        W25603  44.038  15.705  11.546
57199W        W25604   2.839  17.470  14.509
57200W        W25605  21.233  40.395  12.682
57201W        W25606  27.458  21.288   2.620
57202W        W25607  30.176   0.491   2.144
57203W        W25608  16.783  44.237   5.053
57204W        W25609   9.248  21.748   0.227
57205W        W25610   3.270  32.518   1.219
57206W        W25611  29.455   4.939  12.532
57207W        W25612  37.263  10.069  14.402
57208W        W25613   9.150  19.323   1.251
57209W        W25614  41.977  34.350  11.685
57210W        W25615   7.409   6.101  11.571
57211W        W25616  14.020  17.505  12.381
57212W        W25617   6.420  11.415  14.219
57213W        W25618  18.486  16.637  12.897
57214W        W25619   3.494   4.421   3.693
57215W        W25620  30.380  22.149   2.368
57216W        W25621   4.224  38.598   0.252
57217W        W25622  28.115  20.769  10.736
57218W        W25623  32.989   9.049   3.076
57219W        W25624  36.605  13.773  12.103
57220W        W25625   0.668   1.796   4.414
57221W        W25626  13.441  27.115   1.917
57222W        W25627  12.663  37.648   2.723
57223W        W25628  36.573  40.887   2.372
57224W        W25629   6.772   9.872   4.224
57225W        W25630  40.881  12.802  11.006
57226W        W25631  38.037  24.176  12.049
57227W        W25632  17.029  34.667   2.425
57228W        W25633   3.936  23.723   1.863
57229W        W25634  26.108  21.110   0.453
57230W        W25635  26.095  24.441   2.709
57231W        W25636  26.081  23.489   4.329
57232W        W25637   3.398  26.619  14.243
57233W        W25638   5.690  20.768  12.845
57234W        W25639  41.460  29.991  13.460
57235W        W25640   9.444   6.282  11.056
57236W        W25641  30.208  19.356   0.332
57237W        W25642   7.743  35.351  13.878
57238W        W25643  11.836   1.902   3.065
57239W        W25644  10.209  38.305   2.740
57240W        W25645  34.508  24.041  12.432
57241W        W25646  15.202  12.800   3.940
57242W        W25647  14.317  42.290   2.518
57243W        W25648  28.073  32.525  13.831
57244W        W25649  30.494  38.312  12.041
57245W        W25650  38.789  31.971  14.076
57246W        W25651  11.294  38.280   4.119
57247W        W25652  21.493   1.170   0.280
57248W        W25653  12.961   2.353  11.592
57249W        W25654  17.872  29.873   0.940
57250W        W25655  16.248  28.234  12.981
57251W        W25656  26.913  14.199   3.679
57252W        W25657  24.008  41.926  10.644
57253W        W25658  38.044  30.088  11.091
57254W        W25659   6.765   5.641   1.648
57255W        W25660  37.483  24.012  11.640
57256W        W25661  13.513  39.344   3.165
57257W        W25662  26.869   1.699   0.640
57258W        W25663  19.962  43.939  14.383
57259W        W25664   5.033  38.868  13.951
57260W        W25665  29.446  35.924   0.680
57261W        W25666  12.682  23.321  10.846
57262W        W25667  18.238  19.506   3.648
57263W        W25668  43.284  20.226   2.286
57264W        W25669  43.918  40.615  13.414
57265W        W25670  43.172  40.874   3.996
57266W        W25671  28.684  39.880   1.683
57267W        W25672  43.822  22.428  12.037
57268W        W25673  32.837  33.617   1.191
57269W        W25674  36.994  15.015   0.855
57270W        W25675  40.862   1.798   2.174
57271W        W25676  18.122  36.659  13.135
57272W        W25677  13.518  22.475  12.157
57273W        W25678   6.698  34.432  14.905
57274W        W25679   5.778  13.687   0.289
57275W        W25680  40.376  35.350   2.188
57276W        W25681  36.795  27.676  12.819
57277W        W25682  30.898   7.139   0.900
57278W        W25683   6.791  44.147  14.597
57279W        W25684  24.788   4.979   0.452
57280W        W25685  15.742  11.606   2.702
57281W        W25686  26.541  20.996   4.160
57282W        W25687  21.298   4.193   4.087
57283W        W25688  44.872  32.573   0.465
57284W        W25689   3.336  27.105  13.007
57285W        W25690  23.284   5.062   3.353
57286W        W25691  42.520   9.779  12.443
57287W        W25692  44.221  22.648   2.031
57288W        W25693   0.994   4.913   0.215
57289W        W25694  28.889  34.035   4.367
57290W        W25695   6.284  42.241   2.836
57291W        W25696  42.711  38.958   1.880
57292W        W25697  11.719  29.444   3.694
57293W        W25698  20.136  12.844   3.773
57294W        W25699   0.073  21.858   2.550
57295W        W25700  34.652  21.932   3.245
57296W        W25701   7.434  16.762  11.032
57297W        W25702  21.765  22.815   1.274
57298W        W25703  27.193  15.541   2.630
57299W        W25704  18.781  36.873   1.357
57300W        W25705   6.290  10.610  14.121
57301W        W25706  34.865  26.781  11.576
57302W        W25707  12.857  13.181  14.024
57303W        W25708  34.963  24.085   4.299
57304W        W25709   0.402  18.388   2.256
57305W        W25710  17.012  12.791  12.603
57306W        W25711  31.233   2.506  13.063
57307W        W25712  11.120  42.463   0.471
57308W        W25713  40.958   9.908   1.956
57309W        W25714  23.744  20.686  12.626
57310W        W25715  18.872  19.124   4.909
57311W        W25716  28.112  21.509   3.757
57312W        W25717  43.183  26.030  11.556
57313W        W25718  41.094   2.221  11.352
57314W        W25719  11.629   7.227   3.656
57315W        W25720  21.149   9.386  11.681
57316W        W25721  36.445  16.686  14.882
57317W        W25722  28.966  18.525  11.571
57318W        W25723  42.616   5.852   1.239
57319W        W25724   1.560  42.347  14.457
57320W        W25725  28.210  25.483  14.377
57321W        W25726  40.863  17.256   3.275
57322W        W25727  29.017  41.599   5.173
57323W        W25728  14.055  29.603  10.705
57324W        W25729  31.012  41.819  12.318
57325W        W25730  33.823  42.049  13.335
57326W        W25731  42.728  28.691  12.908
57327W        W25732  27.660  20.065  13.286
57328W        W25733  11.155  23.735  12.052
57329W        W25734  25.876   3.283   3.111
57330W        W25735  17.752  27.350  13.123
57331W        W25736  17.701  41.118  11.987
57332W        W25737   7.661  43.548  10.505
57333W        W25738   8.237  19.240   4.516
57334W        W25739  32.990  24.636   1.922
57335W        W25740   2.518   6.462   3.830
57336W        W25741  20.968  42.779  14.422
57337W        W25742  11.705  40.074  12.633
57338W        W25743  24.629   9.772   3.408
57339W        W25744   1.225  31.464  10.371
57340W        W25745  20.462  22.257  11.199
57341W        W25746  28.064  22.778  12.167
57342W        W25747  31.611  41.118   3.215
57343W        W25748  33.049  25.052   4.190
57344W        W25749  26.776   5.162   3.433
57345W        W25750  44.582  34.576  14.114
57346W        W25751  33.576  31.025   1.142
57347W        W25752   8.396  21.260  13.775
57348W        W25753  36.156  35.502   1.291
57349W        W25754  23.931  29.573   0.472
57350W        W25755  35.056  23.657   4.563
57351W        W25756  31.182  35.840  12.546
57352W        W25757  41.179  37.323   4.090
57353W        W25758   9.994  37.920  13.075
57354W        W25759  41.338  24.914  11.155
57355W        W25760  28.927  13.325   2.636
57356W        W25761  21.634   8.770   0.772
57357W        W25762  24.982   8.426  11.679
57358W        W25763  41.010   1.584   4.450
57359W        W25764   4.406  38.336   3.855
57360W        W25765   9.805  26.556   0.343
57361W        W25766  12.710  39.926  12.321
57362W        W25767  23.130  36.262  14.802
57363W        W25768  37.301  27.541  12.621
57364W        W25769  43.337  31.022  13.431
57365W        W25770  39.095  20.050   1.522
57366W        W25771  39.895  41.737   0.040
57367W        W25772  30.896  15.514  13.098
57368W        W25773  34.220   8.204   2.091
57369W        W25774  18.637  10.185  13.023
57370W        W25775  30.015  40.962   0.437
57371W        W25776   8.932  36.771  10.671
57372W        W25777   6.966  42.492   3.457
57373W        W25778  16.269  38.317   4.889
57374W        W25779  14.745  13.004  12.981
57375W        W25780   1.919  24.446   2.485
57376W        W25781  23.994  34.521  12.649
57377W        W25782  29.056  40.790  13.601
57378W        W25783  40.312   3.385  10.002
57379W        W25784  28.870  33.715   1.661
57380W        W25785  10.270  32.502  13.732
57381W        W25786  26.628  18.569   1.974
57382W        W25787   5.268  34.639   3.603
57383W        W25788  37.884  29.074   4.340
57384W        W25789   0.251  35.969  13.043
57385W        W25790  20.235  23.002  13.820
57386W        W25791   0.214  18.609   1.725
57387W        W25792   4.857   4.256  14.857
57388W        W25793  12.601  35.515  13.328
57389W        W25794   0.563  15.823  13.982
57390W        W25795  27.789  23.098   2.843
57391W        W25796  11.815  36.601  14.195
57392W        W25797  37.001  37.920   0.315
57393W        W25798  41.707  44.261  11.621
57394W        W25799  38.071  43.997  11.120
57395W        W25800  26.547   3.740   2.738
57396W        W25801  44.254  27.055   1.977
57397W        W25802  24.708   9.170  10.904
57398W        W25803  29.418  10.355  10.891
57399W        W25804  27.142  33.438   1.185
57400W        W25805  39.257   5.650   2.857
57401W        W25806  19.910  27.690   1.882
57402W        W25807   7.098  23.911  11.856
57403W        W25808  41.893  33.632  10.587
57404W        W25809  27.966  23.635  13.746
57405W        W25810  29.048  39.768   0.485
57406W        W25811  13.925  27.676   3.774
57407W        W25812  27.196  18.328  11.580
57408W        W25813  33.177  33.656   4.958
57409W        W25814   6.251  35.939   0.376
57410W        W25815  30.340  15.804  14.938
57411W        W25816  10.464  29.451  14.117
57412W        W25817  20.926  15.354   1.300
57413W        W25818  42.460  44.252  12.330
57414W        W25819  31.361  26.518   0.364
57415W        W25820  29.651  26.383  12.560
57416W        W25821  24.087   0.557   3.676
57417W        W25822  12.167  37.736   4.136
57418W        W25823  14.691  14.025  12.574
57419W        W25824  19.941  41.402   4.120
57420W        W25825  38.841   1.745   0.977
57421W        W25826  40.946   6.343   4.641
57422W        W25827  29.105  25.203  10.781
57423W        W25828  26.281  14.870  12.449
57424W        W25829  23.742   2.886   4.407
57425W        W25830  10.367  30.541  12.006
57426W        W25831  33.317  43.306   2.738
57427W        W25832  33.913  19.569   3.689
57428W        W25833  11.858  16.721   4.747
57429W        W25834  22.480   3.920   2.631
57430W        W25835   9.615  14.013   4.533
57431W        W25836  11.592  30.247   2.782
57432W        W25837  18.530  23.068   3.950
57433W        W25838  37.852  28.711  10.910
57434W        W25839  12.773  10.733  11.996
57435W        W25840  22.054  34.142  13.792
57436W        W25841  43.923  40.435   3.624
57437W        W25842  38.365  39.479   4.117
57438W        W25843  30.724  19.772   4.288
57439W        W25844  31.889   8.194  13.039
57440W        W25845  39.745   6.269  11.245
57441W        W25846   0.343   2.031   3.217
57442W        W25847  27.598   5.683   1.009
57443W        W25848  42.483  13.413  14.398
57444W        W25849  37.830  43.952  11.562
57445W        W25850   6.729   7.867  11.426
57446W        W25851  13.637   5.228  12.895
57447W        W25852  42.886  23.353   2.848
57448W        W25853  33.507  35.534   3.972
57449W        W25854  16.673  10.851  10.646
57450W        W25855  25.136  34.554  13.579
57451W        W25856  40.753  11.243  11.017
57452W        W25857  14.266  15.485  11.615
57453W        W25858  20.916  41.479  14.747
57454W        W25859  31.482   4.853  13.829
57455W        W25860  15.606   1.916  14.428
57456W        W25861  30.347  23.529   0.961
57457W        W25862  39.483  32.468   4.637
57458W        W25863  17.334   3.898   1.386
57459W        W25864  33.558   0.319  10.376
57460W        W25865   3.756  12.779  14.125
57461W        W25866   1.849  38.743  10.975
57462W        W25867   2.482  38.528   3.836
57463W        W25868  39.003   8.241  10.155
57464W        W25869   4.524  18.528  11.018
57465W        W25870  36.961  40.652  10.809
57466W        W25871  31.155  31.849   0.534
57467W        W25872  34.440  36.876  12.494
57468W        W25873   0.260  11.238  12.959
57469W        W25874  13.889  11.600   3.031
57470W        W25875  38.380  25.664   1.517
57471W        W25876  40.884  19.144   2.194
57472W        W25877  16.376   1.253  13.796
57473W        W25878  24.800  24.545   3.641
57474W        W25879  28.031  40.772  12.474
57475W        W25880  36.304  10.696  13.980
57476W        W25881   6.404  23.471  14.688
57477W        W25882  41.082  22.557  11.244
57478W        W25883  28.386  23.624   4.697
57479W        W25884  30.053  13.671   1.171
57480W        W25885  27.559  27.442   0.548
57481W        W25886  16.827   3.992   1.268
57482W        W25887  33.060  34.149   3.602
57483W        W25888  37.757  44.304   0.776
57484W        W25889  16.373   6.884  11.843
57485W        W25890   6.663  20.121   0.294
57486W        W25891  30.658  29.720   1.704
57487W        W25892  42.595  20.361  10.700
57488W        W25893  22.638  23.711  13.360
57489W        W25894  22.655  10.604  11.596
57490W        W25895  31.199   5.436  11.532
57491W        W25896  44.868  17.678   2.329
57492W        W25897  32.741  41.292   3.116
57493W        W25898  38.793  24.522  14.522
57494W        W25899   4.814  36.801  11.943
57495W        W25900  43.702  41.250   1.888
57496W        W25901   8.187  23.909   2.562
57497W        W25902  13.564  13.619  14.457
57498W        W25903  19.362  25.907   0.504
57499W        W25904  19.625   8.772   2.362
57500W        W25905  22.957  31.143  12.046
57501W        W25906  28.770  22.175  13.104
57502W        W25907   5.388  18.500   1.907
57503W        W25908  41.043  38.396  12.492
57504W        W25909  24.220  24.979  12.940
57505W        W25910   2.812   6.669   1.223
57506W        W25911  18.236   9.603   0.042
57507W        W25912  30.843  14.741  10.963
57508W        W25913  35.172   4.937   2.301
57509W        W25914  12.611  22.833  12.137
57510W        W25915  44.424  44.481  14.496
57511W        W25916   3.688  23.216   1.364
57512W        W25917  39.950  27.394  14.429
57513W        W25918  17.741   4.981   3.225
57514W        W25919  22.202  32.167  11.213
57515W        W25920   6.458  26.126  11.630
57516W        W25921  28.573   3.493   2.269
57517W        W25922  25.997  13.386   4.142
57518W        W25923   3.950  41.865  13.106
57519W        W25924  11.264  20.041   4.521
57520W        W25925   5.828  26.693   1.436
57521W        W25926  33.147   2.462   3.338
57522W        W25927  43.409  13.381   1.239
57523W        W25928  40.771  44.543   2.811
57524W        W25929  26.134  35.770   4.561
57525W        W25930  29.118  39.077  10.706
57526W        W25931  42.865  39.613  12.587
57527W        W25932  32.995  35.714   0.265
57528W        W25933  36.207  28.479  12.029
57529W        W25934  15.759  32.847  11.458
57530W        W25935  18.585  26.718   0.953
57531W        W25936  14.187  38.540  10.639
57532W        W25937  13.375  16.225   4.029
57533W        W25938  14.996  36.408  11.594
57534W        W25939  30.553  15.748  11.388
57535W        W25940  30.743  20.520  14.845
57536W        W25941  28.953   0.386  12.469
57537W        W25942  38.523   2.940   1.259
57538W        W25943  25.737  29.834  13.930
57539W        W25944   7.029  22.272   1.728
57540W        W25945  43.364  24.268   0.851
57541W        W25946  14.717  21.905  14.764
57542W        W25947   6.246  38.545  12.151
57543W        W25948  31.911  13.920   0.828
57544W        W25949  29.642  42.763  12.511
57545W        W25950  32.925  28.554  14.450
57546W        W25951  28.930  37.588  11.677
57547W        W25952  44.681   3.245   9.990
57548W        W25953  37.753  26.490  10.623
57549W        W25954   7.743  22.254   1.228
57550W        W25955  11.847  21.536   4.984
57551W        W25956  25.035   2.858  11.380
57552W        W25957  32.460  42.789   4.170
57553W        W25958  14.709  23.710   0.285
57554W        W25959   2.366  19.582   1.788
57555W        W25960  37.590  38.886   0.611
57556W        W25961  17.018  22.206   4.527
57557W        W25962  15.157  16.995  12.819
57558W        W25963  39.218   5.125  11.127
57559W        W25964  38.820   7.752   1.847
57560W        W25965  10.544  24.474   4.759
57561W        W25966  19.613  38.069  12.053
57562W        W25967  33.339  36.899  14.447
57563W        W25968  39.035   7.651   2.315
57564W        W25969  13.780  23.532   4.084
57565W        W25970  29.928  13.147   2.889
57566W        W25971  11.314  24.937   1.833
57567W        W25972  37.557  22.052  14.435
57568W        W25973  13.186  37.893  11.229
57569W        W25974  39.463  22.926  14.966
57570W        W25975  26.044  26.229  10.477
57571W        W25976   0.244  37.939   3.297
57572W        W25977  32.730  11.791   3.497
57573W        W25978   0.828  12.187  10.293
57574W        W25979   1.284  37.613  11.148
57575W        W25980   6.683  25.703   1.717
57576W        W25981  42.260  41.033   0.964
57577W        W25982  22.112  19.694  14.324
57578W        W25983   4.258  37.192   1.188
57579W        W25984  28.969  28.924  11.483
57580W        W25985  19.620  17.637  12.116
57581W        W25986  14.957  28.447   0.856
57582W        W25987  29.022  29.927   3.499
57583W        W25988  17.540  27.100  12.413
57584W        W25989  44.105   0.347  13.359
57585W        W25990  33.089  44.184  14.950
57586W        W25991  24.285   8.951  11.111
57587W        W25992  36.591   5.829  13.425
57588W        W25993  35.090  32.613   4.845
57589W        W25994  21.202  33.527   2.213
57590W        W25995  16.734  39.375   3.595
57591W        W25996   9.737   0.209  13.486
57592W        W25997  23.511  38.971   1.234
57593W        W25998  25.496  31.208   4.187
57594W        W25999  29.022  19.458   2.618
57595W        W26000   6.656  27.670   1.530
57596W        W26001  17.567  19.525  13.356
57597W        W26002   4.649  38.000  14.523
57598W        W26003  24.720  11.673   4.644
57599W        W26004  44.046  41.308  14.371
57600W        W26005  25.035  14.004   0.975
57601W        W26006   0.404  39.657  13.065
57602W        W26007  22.277   6.180   1.364
57603W        W26008   3.643  11.822  11.937
57604W        W26009  35.529  43.991  11.420
57605W        W26010  28.094  21.093  10.330
57606W        W26011  30.420  35.299   2.736
57607W        W26012  12.819  17.158   4.873
57608W        W26013   4.240   4.492   3.216
57609W        W26014   9.863  21.204   1.926
57610W        W26015   2.443  29.981  10.849
57611W        W26016  12.802  16.527   1.379
57612W        W26017   5.032  36.554   2.304
57613W        W26018  34.413  13.773   1.523
57614W        W26019  23.638   7.272  11.295
57615W        W26020  40.809  12.235  14.350
57616W        W26021  36.427  27.408   1.883
57617W        W26022  27.622  14.780   3.605
57618W        W26023  17.712  18.041  11.139
57619W        W26024  11.761   2.763  11.669
57620W        W26025  23.998  43.828   1.345
57621W        W26026  19.715  10.916   0.855
57622W        W26027  15.832  24.117  11.468
57623W        W26028  29.221  21.321  11.215
57624W        W26029   0.519  27.566  11.968
57625W        W26030  29.470  33.123  10.354
57626W        W26031  44.374  10.766  11.219
57627W        W26032   0.183   8.675   5.309
57628W        W26033   9.451  31.063   1.855
57629W        W26034  25.623  25.201  12.626
57630W        W26035   4.930  13.008   4.659
57631W        W26036  32.859  44.462   0.359
57632W        W26037  29.544   2.366  12.254
57633W        W26038  41.299  33.977  11.087
57634W        W26039  24.134  12.560   1.461
57635W        W26040  41.300  32.868   2.755
57636W        W26041  39.784  10.649   0.106
57637W        W26042   5.501  37.526  14.802
57638W        W26043   2.172  37.599  12.127
57639W        W26044  42.191  36.832  14.895
57640W        W26045  11.232  19.121  13.487
57641W        W26046  10.792  35.011   2.381
57642W        W26047  10.050  30.582   2.206
57643W        W26048  13.733   4.715  12.004
57644W        W26049  15.121   3.962   4.056
57645W        W26050  15.322   4.232  14.979
57646W        W26051  29.138  10.239   1.504
57647W        W26052   8.013  19.259  10.490
57648W        W26053  20.687   8.381  13.945
57649W        W26054  32.413  40.879  12.579
57650W        W26055  38.403  21.696   4.015
57651W        W26056  33.191  17.799   0.823
57652W        W26057  15.224  26.546   5.060
57653W        W26058  30.063  18.158  13.982
57654W        W26059  19.105  26.480   0.228
57655W        W26060  28.045  33.452   4.011
57656W        W26061   1.447  41.991  11.724
57657W        W26062  43.785   5.541   2.279
57658W        W26063   5.777  26.933   2.936
57659W        W26064  10.713  33.254   3.654
57660W        W26065   2.687  28.666  11.116
57661W        W26066   6.327  21.744  13.996
57662W        W26067   1.385  12.444   4.179
57663W        W26068  36.582  25.034   0.447
57664W        W26069   7.151   6.847  14.457
57665W        W26070   6.180   0.871   0.769
57666W        W26071  26.074  41.276  12.114
57667W        W26072  29.943   3.773  13.386
57668W        W26073  36.023  27.238   0.400
57669W        W26074  34.824  13.822  11.632
57670W        W26075  19.628  30.825   0.961
57671W        W26076  34.027  28.493   2.612
57672W        W26077  29.999   1.487   3.601
57673W        W26078  44.029   8.150  11.772
57674W        W26079  13.892   3.685  11.090
57675W        W26080   2.989  41.797  13.527
57676W        W26081  29.920  29.934  12.012
57677W        W26082   7.398  33.550  13.671
57678W        W26083  23.993  25.961  12.872
57679W        W26084   2.741  19.033   4.301
57680W        W26085  34.932  29.074   5.410
57681W        W26086  39.048   2.731   4.104
57682W        W26087  20.180  17.035  11.911
57683W        W26088  19.190   2.370   3.733
57684W        W26089  26.416  28.295  14.038
57685W        W26090   6.194  23.303   4.560
57686W        W26091  28.505  40.287  11.285
57687W        W26092  20.994  40.207  13.107
57688W        W26093  37.680  36.164  10.679
57689W        W26094  30.858  39.957   1.330
57690W        W26095  31.003  30.571   3.631
57691W        W26096  30.086  17.445   4.026
57692W        W26097   8.933  16.206  12.666
57693W        W26098   1.311  31.643  11.800
57694W        W26099  12.239  42.022   2.217
57695W        W26100  42.986  43.108   3.682
57696W        W26101  31.052  35.961   1.249
57697W        W26102  32.419   1.393   4.053
57698W        W26103  19.672  41.292   1.705
57699W        W26104  10.934  41.391   4.620
57700W        W26105  13.647  34.559  11.240
57701W        W26106   6.576  29.162   9.869
57702W        W26107  39.495  10.157   4.897
57703W        W26108  37.165  39.716  14.419
57704W        W26109  39.055  16.752  11.996
57705W        W26110  35.468  14.559   3.570
57706W        W26111  24.135  25.676  13.315
57707W        W26112   9.613  23.328   4.146
57708W        W26113  26.181  39.871  14.927
57709W        W26114  25.612  12.331  10.599
57710W        W26115   4.428  25.194  10.618
57711W        W26116  34.710  34.092  12.352
57712W        W26117   6.320  13.862  13.544
57713W        W26118  41.948  30.060  14.440
57714W        W26119  28.464  23.953   2.408
57715W        W26120   2.821   2.491   1.422
57716W        W26121   1.928  34.916  12.583
57717W        W26122  44.862  12.594   3.796
57718W        W26123  23.729  42.883  12.015
57719W        W26124   0.873  44.230  10.353
57720W        W26125   5.438  40.248   4.245
57721W        W26126  43.413   2.227  13.925
57722W        W26127  38.167  43.337  10.905
57723W        W26128   3.715  27.029   3.794
57724W        W26129  40.422  41.725   1.894
57725W        W26130   6.284  24.389   3.807
57726W        W26131  21.210  27.467  10.973
57727W        W26132  25.001  12.736  11.988
57728W        W26133   1.637  33.381  11.647
57729W        W26134  40.821  33.025  10.599
57730W        W26135  17.338  34.434   1.091
57731W        W26136  42.779  44.790   3.158
57732W        W26137  25.070  21.019  13.833
57733W        W26138  15.131  25.230   3.228
57734W        W26139  44.408  44.436  11.521
57735W        W26140  43.543  19.044  12.071
57736W        W26141  18.691  22.113  12.856
57737W        W26142   8.932   0.741  10.778
57738W        W26143  10.248  36.550  12.823
57739W        W26144  32.646  15.385   4.363
57740W        W26145  32.316  34.320  11.721
57741W        W26146   7.838  19.025  11.411
57742W        W26147   0.326  38.987  14.876
57743W        W26148  36.990  33.096  12.928
57744W        W26149  42.010   9.885   4.252
57745W        W26150  26.172  40.521  14.279
57746W        W26151  15.800   7.780  12.199
57747W        W26152  21.611  41.235   2.852
57748W        W26153  23.260  40.797  11.080
57749W        W26154  35.248  33.280  13.972
57750W        W26155  11.836  31.080   5.377
57751W        W26156  14.567  35.410  10.901
57752W        W26157  32.088   1.386  13.515
57753W        W26158   9.452  24.399  11.125
57754W        W26159  37.796  14.174  13.340
57755W        W26160  39.471   8.837  11.426
57756W        W26161  37.977  10.153   1.647
57757W        W26162  16.762  18.771  11.064
57758W        W26163  13.924  20.504   2.257
57759W        W26164   2.906  30.502  13.712
57760W        W26165  24.209  19.258   1.383
57761W        W26166   3.470   2.779   4.197
57762W        W26167  43.805  23.719   4.908
57763W        W26168  19.094   5.962  11.593
57764W        W26169  29.431  32.499   1.768
57765W        W26170  35.501   6.010   3.295
57766W        W26171   1.729  12.333   4.536
57767W        W26172  26.482  40.127   0.921
57768W        W26173  23.328  13.091   2.209
57769W        W26174  27.259  28.446   4.140
57770W        W26175  15.640   5.247   4.514
57771W        W26176  34.343  41.838   3.944
57772W        W26177  42.509  15.338   1.799
57773W        W26178  30.586  44.645  13.905
57774W        W26179  37.383  44.216  11.576
57775W        W26180  35.163   6.144  11.246
57776W        W26181  44.360  14.191   3.444
57777W        W26182   5.941  21.180   4.593
57778W        W26183  41.877   3.132   4.936
57779W        W26184  43.214  44.238  13.928
57780W        W26185  32.048  44.840   4.761
57781W        W26186  39.855  27.647   1.825
57782W        W26187  21.801  34.038  12.019
57783W        W26188  16.390   3.454  14.564
57784W        W26189  40.456  18.836  13.553
57785W        W26190  33.425  11.136   1.284
57786W        W26191   5.766   1.510  11.196
57787W        W26192  39.690  32.765  11.082
57788W        W26193  10.570  33.483  12.950
57789W        W26194  40.744   2.006   4.328
57790W        W26195   2.549   9.182  12.689
57791W        W26196  12.398  38.350   1.904
57792W        W26197  36.436   8.801   4.570
57793W        W26198  39.241  26.659  12.160
57794W        W26199  34.395  35.010   4.816
57795W        W26200  36.420  34.139   3.761
57796W        W26201  29.647  40.554   3.128
57797W        W26202  21.038  34.794  12.121
57798W        W26203  33.484  14.884  14.561
57799W        W26204  41.451  41.470   1.314
57800W        W26205  12.581  32.995  11.961
57801W        W26206  13.366   0.753   3.364
57802W        W26207   5.332   2.819   3.711
57803W        W26208  12.676  29.700   1.164
57804W        W26209   2.386  23.992  11.293
57805W        W26210  30.876   2.984   3.218
57806W        W26211  11.237  23.561  14.549
57807W        W26212  36.676  29.963  10.746
57808W        W26213  19.560  36.294  12.535
57809W        W26214  14.035  37.967   2.768
57810W        W26215  12.270  32.238   3.758
57811W        W26216  30.622  39.426  14.608
57812W        W26217  29.867   6.840   1.698
57813W        W26218  43.282   8.985   4.673
57814W        W26219  37.849   8.772   4.605
57815W        W26220  38.846  28.035   0.009
57816W        W26221  33.906  28.690  11.292
57817W        W26222  20.184   8.235   1.189
57818W        W26223   9.550  10.347  14.976
57819W        W26224  29.210  44.539   3.733
57820W        W26225  24.731  33.436   0.448
57821W        W26226   9.659  16.883   2.366
57822W        W26227  17.017   7.341  12.296
57823W        W26228   4.950  31.888  12.020
57824W        W26229  10.339  34.019   0.474
57825W        W26230   9.799   3.724  10.807
57826W        W26231  24.112   4.677  13.849
57827W        W26232  37.317  12.686  12.036
57828W        W26233  17.297   2.605   4.075
57829W        W26234  30.714  27.992   3.320
57830W        W26235  35.305  41.317   4.135
57831W        W26236  26.598  13.571   2.395
57832W        W26237  16.776   6.249   3.639
57833W        W26238  17.193  19.970  11.114
57834W        W26239  12.909  11.040   0.334
57835W        W26240  41.750   8.230  11.683
57836W        W26241  44.152   3.424   5.175
57837W        W26242  22.142  30.832  10.813
57838W        W26243  36.637   7.331  14.357
57839W        W26244  39.813   1.240   0.429
57840W        W26245  42.108  11.820  13.786
57841W        W26246  20.712  28.179   3.811
57842W        W26247   8.652   9.182   0.651
57843W        W26248  38.035  20.240  14.770
57844W        W26249  22.016  22.726   2.775
57845W        W26250  10.407  32.081   1.693
57846W        W26251  16.225  33.531   3.991
57847W        W26252  44.624  39.050   3.283
57848W        W26253  18.551  39.583   2.711
57849W        W26254  20.586  25.997  13.919
57850W        W26255  44.927  31.050  13.772
57851W        W26256   9.506   1.273  14.013
57852W        W26257  10.729   6.343  14.445
57853W        W26258  21.185  36.573   5.135
57854W        W26259  10.771   3.548   0.802
57855W        W26260  32.565  15.474   3.783
57856W        W26261  31.525  24.831  14.621
57857W        W26262   0.900  44.973   0.504
57858W        W26263  36.112   3.023   1.880
57859W        W26264  10.382  24.019   4.594
57860W        W26265  33.281  35.144  12.721
57861W        W26266   0.420  32.356   1.734
57862W        W26267  41.841  11.613   3.732
57863W        W26268   7.094  39.909   1.837
57864W        W26269  18.076   3.616   0.897
57865W        W26270  17.497  26.085   3.769
57866W        W26271   9.766  26.322  14.394
57867W        W26272  13.947  32.141   0.651
57868W        W26273   4.001   2.867  13.186
57869W        W26274  27.022  16.349   0.244
57870W        W26275   9.203  12.723   0.352
57871W        W26276   0.483  25.646   4.171
57872W        W26277   8.201  11.248   2.749
57873W        W26278  42.003   6.785   1.897
57874W        W26279   1.163  10.292   0.511
57875W        W26280  32.027   5.687   2.461
57876W        W26281  27.102   4.907   3.134
57877W        W26282  23.307  13.913  11.226
57878W        W26283  14.633   3.202   1.181
57879W        W26284  44.233   6.382   0.880
57880W        W26285  23.442   5.258  12.465
57881W        W26286  28.768  24.804   3.623
57882W        W26287  15.069  31.300   2.447
57883W        W26288  10.095   4.710   0.496
57884W        W26289  24.575  41.340   4.282
57885W        W26290  10.939  38.925  10.708
57886W        W26291  11.502   7.974  14.344
57887W        W26292  11.226   0.647   4.495
57888W        W26293  11.759  24.805   4.183
57889W        W26294  17.328  41.650  10.960
57890W        W26295  41.461  30.655  11.407
57891W        W26296  11.811  44.379  12.653
57892W        W26297   2.775   3.383  12.582
57893W        W26298   6.831  44.982  13.039
57894W        W26299   2.329  18.282  14.381
57895W        W26300   8.666  36.047  12.086
57896W        W26301  43.050   3.584   3.110
57897W        W26302   4.957   2.019   1.850
57898W        W26303  13.652  36.337  13.947
57899W        W26304   9.607  27.012  10.404
57900W        W26305  39.344  40.323  14.940
57901W        W26306  28.100  26.198   1.128
57902W        W26307   1.110  16.270  11.996
57903W        W26308  33.677  11.592   1.347
57904W        W26309  23.896  43.827  12.768
57905W        W26310  30.443  23.596   3.396
57906W        W26311  36.288   5.337   4.029
57907W        W26312  11.351  25.216   0.911
57908W        W26313  34.698  43.281   3.678
57909W        W26314  42.892  39.371  12.135
57910W        W26315  31.685  14.813  13.866
57911W        W26316  14.696  22.517  10.756
57912W        W26317   4.489  15.032  11.534
57913W        W26318  16.174  29.201  10.458
57914W        W26319  16.675  40.283   4.120
57915W        W26320   4.490   6.450   0.877
57916W        W26321  39.499  27.154  14.320
57917W        W26322  17.786   9.312   1.484
57918W        W26323  24.135  37.618  11.131
57919W        W26324  21.098  19.733  11.743
57920W        W26325  16.299   3.125   4.325
57921W        W26326   8.952  30.932   1.882
57922W        W26327  13.791  29.668  14.388
57923W        W26328  17.095  38.963  11.489
57924W        W26329  43.736  25.739   0.599
57925W        W26330   5.337   3.349  10.660
57926W        W26331  21.195  24.614   9.966
57927W        W26332  22.645  10.393  12.101
57928W        W26333  33.895  24.563  12.660
57929W        W26334  21.261   6.298  11.172
57930W        W26335  34.895  25.913   4.201
57931W        W26336   0.241  25.503   3.699
57932W        W26337  40.756  13.722  10.591
57933W        W26338  30.582   9.419  11.881
57934W        W26339  43.869  10.893   4.655
57935W        W26340   4.966  25.658  12.163
57936W        W26341  14.225  21.465   4.722
57937W        W26342   3.151  31.511  12.032
57938W        W26343   9.396   9.890   4.663
57939W        W26344  37.780  15.071   1.187
57940W        W26345   9.416  44.855   0.308
57941W        W26346  33.692   8.354   2.859
57942W        W26347   1.287  42.479  10.937
57943W        W26348  33.388  21.622   4.591
57944W        W26349  19.972  35.456  12.437
57945W        W26350  15.173  43.476  10.654
57946W        W26351  32.808  32.804   3.689
57947W        W26352   3.408  27.862   1.732
57948W        W26353  26.378  19.701  14.038
57949W        W26354   4.684  31.015   4.104
57950W        W26355  18.642  13.639  11.615
57951W        W26356  40.322  12.860  11.668
57952W        W26357  30.905  26.443   4.118
57953W        W26358  41.493   6.254   3.851
57954W        W26359   1.766   9.803   2.399
57955W        W26360  44.105   0.884   0.014
57956W        W26361  40.918  33.495   0.514
57957W        W26362  29.902  22.514  10.582
57958W        W26363  24.599   0.473   3.729
57959W        W26364  41.458  25.860   4.737
57960W        W26365  40.808   5.894   3.656
57961W        W26366  25.657  33.081   4.194
57962W        W26367  38.823  27.999   0.938
57963W        W26368  26.661  34.281   0.667
57964W        W26369  43.223  20.282   2.799
57965W        W26370  15.667  31.547   3.522
57966W        W26371  38.804  26.956  11.640
57967W        W26372   7.303  17.643  10.916
57968W        W26373  19.672  36.273   0.718
57969W        W26374  13.280  40.428   3.707
57970W        W26375  12.615   4.185  13.989
57971W        W26376  25.602   3.328  11.912
57972W        W26377  39.409  32.818   2.465
57973W        W26378  27.722  24.255   1.228
57974W        W26379  44.392  17.614   1.716
57975W        W26380   2.338  23.653  14.791
57976W        W26381  10.163  31.057  10.726
57977W        W26382  35.600   9.114  11.979
57978W        W26383  20.123  26.643  13.019
57979W        W26384  22.863  36.528  11.389
57980W        W26385  40.423   4.987  13.938
57981W        W26386   8.882  14.654   2.272
57982W        W26387  39.693   8.843  13.876
57983W        W26388  20.980  10.204   2.106
57984W        W26389  27.661  28.375   3.277
57985W        W26390   8.132  43.993   2.069
57986W        W26391  39.324  11.835  11.933
57987W        W26392  34.552  31.099   4.607
57988W        W26393  32.990  11.767  12.088
57989W        W26394  41.261  11.892   0.270
57990W        W26395  22.255  38.345  14.275
57991W        W26396  21.177  22.471  13.403
57992W        W26397  28.536  21.531  11.099
57993W        W26398  35.418  28.606  14.470
57994W        W26399  23.471  29.719   0.243
57995W        W26400  16.196  37.604   1.411
57996W        W26401  37.451   1.946   1.673
57997W        W26402  32.613  35.356  13.029
57998W        W26403  37.425  10.916  11.198
57999W        W26404   8.433  10.161   1.335
58000W        W26405  10.334  24.758  14.915
58001W        W26406  14.129   2.909  14.290
58002W        W26407   8.893  34.904   2.338
58003W        W26408   3.898  31.117   4.441
58004W        W26409  41.192   3.721   5.332
58005W        W26410  24.642  39.835   1.265
58006W        W26411  19.980   7.248   0.353
58007W        W26412  15.779  41.241  13.887
58008W        W26413  12.824   0.324   4.461
58009W        W26414  38.332  42.043  12.028
58010W        W26415   2.352  26.148  13.091
58011W        W26416  36.340  37.694   3.177
58012W        W26417  33.726  28.702  12.531
58013W        W26418  17.155  21.721  12.496
58014W        W26419   7.400   3.443   3.245
58015W        W26420   8.933  34.849  12.628
58016W        W26421   0.156   1.880  13.899
58017W        W26422  39.523  27.338   4.451
58018W        W26423  32.120  30.731  12.412
58019W        W26424  19.499   3.456  12.109
58020W        W26425   9.556  33.874  14.803
58021W        W26426  33.626  15.817   5.127
58022W        W26427  22.296  11.186  12.798
58023W        W26428   5.503  21.836  12.439
58024W        W26429  34.281  10.719  13.327
58025W        W26430  35.806  25.328  11.101
58026W        W26431  23.008  13.314   4.140
58027W        W26432  21.210  43.437  13.022
58028W        W26433  17.076  39.930   9.955
58029W        W26434  41.667  16.612   1.240
58030W        W26435  14.033  26.603  12.560
58031W        W26436   5.844  35.143   1.366
58032W        W26437  31.114   2.917   4.189
58033W        W26438   2.741  28.078  13.557
58034W        W26439  26.091   6.390  11.528
58035W        W26440   1.710  15.101   1.836
58036W        W26441  23.566  28.665   2.518
58037W        W26442   4.720   9.985   4.579
58038W        W26443  31.737  21.799   1.372
58039W        W26444   0.018  40.290   4.221
58040W        W26445  42.546   2.275   4.086
58041W        W26446  10.113  33.733   3.155
58042W        W26447  33.574  26.144  10.283
58043W        W26448  32.897  20.293  11.557
58044W        W26449   6.795  14.884   3.322
58045W        W26450  12.205   5.266  14.849
58046W        W26451   1.503   0.856   2.854
58047W        W26452  26.143  25.736   2.401
58048W        W26453  14.360  31.069   1.683
58049W        W26454  41.811  17.607  11.445
58050W        W26455  36.738  32.479   3.321
58051W        W26456   4.517  10.352  14.951
58052W        W26457  32.411  38.361  12.512
58053W        W26458   8.341  22.622   4.303
58054W        W26459  16.141  21.933   5.059
58055W        W26460  22.530  10.350  13.604
58056W        W26461   6.741  10.929   1.448
58057W        W26462   4.600   3.785  14.882
58058W        W26463   3.298  19.946   1.881
58059W        W26464   5.337   9.272   3.733
58060W        W26465  42.113  20.393  10.888
58061W        W26466   3.934  14.788  13.062
58062W        W26467  20.864  20.104   3.231
58063W        W26468  14.049  37.159   1.803
58064W        W26469  42.459   2.446   1.312
58065W        W26470   3.017  36.389   4.508
58066W        W26471  13.779  43.715  11.549
58067W        W26472   2.073  36.728   0.732
58068W        W26473  25.600  18.294   4.593
58069W        W26474  43.438   2.714  12.399
58070W        W26475  39.904  16.523   3.881
58071W        W26476  25.615  33.001   0.349
58072W        W26477  23.666  33.060   0.127
58073W        W26478  31.551   4.235  12.952
58074W        W26479   8.126  38.844  11.725
58075W        W26480  15.637  21.771   1.933
58076W        W26481   1.000  39.352   0.186
58077W        W26482  25.145  30.320   2.611
58078W        W26483  43.909   2.050  13.913
58079W        W26484  10.371  22.727  14.817
58080W        W26485  41.273  43.493  14.920
58081W        W26486  38.833   8.238  14.766
58082W        W26487  24.685   3.920   4.982
58083W        W26488  43.600  19.044   3.819
58084W        W26489  22.434   9.811   4.794
58085W        W26490  19.125  43.276  14.537
58086W        W26491  13.408   7.168   0.632
58087W        W26492  37.432  28.366   2.543
58088W        W26493  42.656  26.697   4.578
58089W        W26494  30.732  35.537  14.760
58090W        W26495  41.244   0.377  12.387
58091W        W26496  36.812  24.797  14.976
58092W        W26497  34.406  40.961   3.464
58093W        W26498  29.851  42.534  11.139
58094W        W26499  21.589  18.581   2.130
58095W        W26500  19.022  22.809  14.341
58096W        W26501  19.074  42.251   2.237
58097W        W26502  12.600  38.013  12.125
58098W        W26503  11.652   9.100  13.927
58099W        W26504  28.466  35.938  14.832
58100W        W26505  13.075  39.400   4.178
58101W        W26506  34.921  27.675   3.276
58102W        W26507  34.357   8.309   0.346
58103W        W26508  39.788   6.361   0.238
58104W        W26509   6.396   7.739  13.519
58105W        W26510  43.271  31.147   4.721
58106W        W26511   0.902  12.277  14.293
58107W        W26512  13.259  26.955  11.641
58108W        W26513  32.634  38.960  14.771
58109W        W26514   5.585  42.167  14.013
58110W        W26515  40.380  23.934   3.261
58111W        W26516   5.729  38.166  10.602
58112W        W26517  19.788  37.880  11.604
58113W        W26518  27.910  33.592  11.668
58114W        W26519  36.494  35.367   0.399
58115W        W26520  32.642   7.663   1.483
58116W        W26521   7.952   8.715  13.418
58117W        W26522  25.380  32.243  14.359
58118W        W26523  40.830  28.248   1.802
58119W        W26524  24.681  39.305  11.459
58120W        W26525  35.601   6.904  11.743
58121W        W26526  24.622  37.959   4.328
58122W        W26527  43.408  18.542   3.726
58123W        W26528  18.411  34.573  10.047
58124W        W26529  31.049  16.972   4.583
58125W        W26530  41.820   8.417  12.499
58126W        W26531  17.760  28.589   0.348
58127W        W26532  29.447  38.382   0.174
58128W        W26533  14.643  42.495  10.734
58129W        W26534  40.780  19.664   4.767
58130W        W26535  27.615  35.604  11.920
58131W        W26536  11.993  40.104  13.071
58132W        W26537  31.395  37.080  10.709
58133W        W26538   3.336  18.305  14.527
58134W        W26539  42.986  42.980  10.861
58135W        W26540  38.292  17.085  14.885
58136W        W26541  17.086   0.807  13.529
58137W        W26542  10.263  14.301  11.886
58138W        W26543  32.892  12.693   4.873
58139W        W26544  31.583  37.554   2.445
58140W        W26545  25.506   6.764   4.206
58141W        W26546  14.840  17.879   0.230
58142W        W26547  41.585  42.765   5.105
58143W        W26548  18.094  19.997  10.913
58144W        W26549   5.395  22.653  14.733
58145W        W26550  37.990  11.023   3.206
58146W        W26551  40.361  37.016   1.072
58147W        W26552  23.146   1.759   4.115
58148W        W26553  37.813  27.685  14.935
58149W        W26554   1.927  34.495  14.407
58150W        W26555  26.543  24.772  13.275
58151W        W26556  13.470  42.444  12.119
58152W        W26557  31.302  13.909   3.826
58153W        W26558  19.414   3.990  12.930
58154W        W26559   6.649  26.623   1.857
58155W        W26560   8.378   8.154  13.933
58156W        W26561  27.109  15.098   2.864
58157W        W26562  30.914  37.800  11.005
58158W        W26563  24.504  24.483   4.591
58159W        W26564  11.205  23.240   0.758
58160W        W26565  39.675  43.896  13.204
58161W        W26566   5.367  18.311   4.665
58162W        W26567   1.840  42.006   2.166
58163W        W26568  28.964   6.434   0.498
58164W        W26569  24.693  30.672  12.610
58165W        W26570  32.805  28.840   3.914
58166W        W26571  14.605  41.397   4.117
58167W        W26572   9.875  32.683  14.032
58168W        W26573  35.497  30.341  12.140
58169W        W26574  12.308  43.468   9.380
58170W        W26575   7.286  17.572   2.581
58171W        W26576  13.702  31.589  11.123
58172W        W26577  32.152  33.546   0.005
58173W        W26578   9.876  22.033   3.214
58174W        W26579   5.408  17.172   2.446
58175W        W26580  40.025  39.648   0.969
58176W        W26581  34.390  28.156   2.257
58177W        W26582  17.609  32.638   1.441
58178W        W26583  23.465  10.228   0.435
58179W        W26584   7.709  34.405   1.940
58180W        W26585  42.847  21.531   0.291
58181W        W26586  18.759   7.597  14.439
58182W        W26587  15.219  37.275   2.621
58183W        W26588  12.771  17.813   2.186
58184W        W26589  18.137  38.997   1.424
58185W        W26590  38.434  33.180   4.687
58186W        W26591  30.168  28.703   4.501
58187W        W26592  10.372  28.965   2.654
58188W        W26593  22.715   2.186  13.569
58189W        W26594  37.392  35.066   0.947
58190W        W26595  14.623  39.221  12.901
58191W        W26596  10.783   0.708   1.926
58192W        W26597  27.055  29.836   4.084
58193W        W26598  31.962  22.932   0.864
58194W        W26599  13.660   1.964  11.841
58195W        W26600  27.964   5.118  10.983
58196W        W26601  18.357  40.589   9.972
58197W        W26602   0.559   0.741   5.041
58198W        W26603  13.368   1.158   2.761
58199W        W26604  10.753   1.901   2.382
58200W        W26605  32.743  11.343   3.099
58201W        W26606   2.886  14.369   2.189
58202W        W26607  41.523  29.405  14.338
58203W        W26608  40.004  34.051   2.655
58204W        W26609  18.576  27.476   4.041
58205W        W26610  23.094  12.069  13.587
58206W        W26611  41.459  43.926   0.132
58207W        W26612  17.531   9.231   1.044
58208W        W26613   6.690  33.001   3.485
58209W        W26614   6.976   5.836  11.977
58210W        W26615  37.366  17.259  10.830
58211W        W26616  24.306  32.056   0.836
58212W        W26617  43.107  34.110  12.630
58213W        W26618  14.334  41.570  10.441
58214W        W26619   8.778  22.099  12.574
58215W        W26620   0.199  27.017   1.651
58216W        W26621  22.542  18.266   1.475
58217W        W26622  35.486  21.673  14.426
58218W        W26623  14.640  33.064  13.296
58219W        W26624  22.545  14.036  14.970
58220W        W26625  26.480   9.318  14.458
58221W        W26626   4.492  11.985   1.678
58222W        W26627  34.990  34.723   3.230
58223W        W26628  12.099   3.327   2.678
58224W        W26629  28.023   8.396  13.493
58225W        W26630   6.822  23.140   3.714
58226W        W26631  32.406  41.521   5.063
58227W        W26632  39.752  43.863   2.380
58228W        W26633  20.739  41.547   3.705
58229W        W26634  43.656  12.994   4.081
58230W        W26635  43.744  27.004  13.037
58231W        W26636  11.504  38.392   2.470
58232W        W26637  12.329   1.870   2.848
58233W        W26638   0.237  34.137  11.630
58234W        W26639  24.086  36.441   3.751
58235W        W26640  42.291  11.168   3.304
58236W        W26641  26.650  39.884   2.349
58237W        W26642  44.054  17.635  14.393
58238W        W26643  23.277  42.855   3.729
58239W        W26644  19.920  29.120   0.780
58240W        W26645  44.446  21.072  12.184
58241W        W26646  29.919  17.232   1.250
58242W        W26647  19.793  15.341   2.091
58243W        W26648  27.926   0.076   4.245
58244W        W26649   3.510  33.954   4.548
58245W        W26650   7.046  42.569  11.875
58246W        W26651   4.156  12.779   1.295
58247W        W26652   2.824   1.122   1.682
58248W        W26653  27.433  34.931  12.444
58249W        W26654  37.398  42.014  13.114
58250W        W26655  38.459  44.272  13.053
58251W        W26656  42.313  24.024   3.822
58252W        W26657  37.466   0.792  14.482
58253W        W26658  41.092  36.018   4.098
58254W        W26659  10.160  18.993  14.773
58255W        W26660   7.568  30.907   3.716
58256W        W26661  11.937  31.585   2.183
58257W        W26662  12.827  14.497   0.316
58258W        W26663  17.246  39.816  11.021
58259W        W26664  36.345  19.710   1.392
58260W        W26665  42.989  28.381   4.026
58261W        W26666  20.645  28.631   2.906
58262W        W26667  39.715  35.103  14.544
58263W        W26668  24.783   9.376  11.702
58264W        W26669  11.351  35.569   4.200
58265W        W26670  12.300  37.558   4.631
58266W        W26671  43.266   3.433  13.920
58267W        W26672  29.111  42.202   4.579
58268W        W26673   1.291  43.959  11.505
58269W        W26674  18.838   1.339  13.719
58270W        W26675   9.822  21.112   3.311
58271W        W26676   4.371   0.283  13.996
58272W        W26677  17.584   0.936  13.515
58273W        W26678  27.318  44.252   0.286
58274W        W26679  14.265   2.964   1.706
58275W        W26680   8.859  42.054  14.338
58276W        W26681  32.863   0.225  14.854
58277W        W26682  32.733   0.725   0.884
58278W        W26683   5.131  38.762  12.877
58279W        W26684  40.531  42.790   2.767
58280W        W26685  15.748  11.984   1.166
58281W        W26686  37.841   3.400   1.238
58282W        W26687  12.575  37.913  13.005
58283W        W26688  11.663  40.429  13.333
58284W        W26689  29.484  27.674  11.082
58285W        W26690   0.184  24.049  12.224
58286W        W26691  37.818  15.930  10.640
58287W        W26692  27.517  28.217  13.370
58288W        W26693  35.044  18.783  12.126
58289W        W26694  38.534  10.290  14.844
58290W        W26695  29.877  10.451   2.670
58291W        W26696  21.757  40.540   0.679
58292W        W26697  44.975  38.821   1.366
58293W        W26698  31.360  13.347  12.448
58294W        W26699  31.090  26.597  12.948
58295W        W26700  30.706  27.056   3.213
58296W        W26701  27.527  36.355   2.758
58297W        W26702  44.706   2.799   0.238
58298W        W26703  22.835  29.072   1.915
58299W        W26704  38.905  12.357   4.588
58300W        W26705  35.400  20.465   3.256
58301W        W26706   1.690  41.470   4.577
58302W        W26707  42.663  35.076   5.030
58303W        W26708  19.904  24.731   2.161
58304W        W26709  16.549  26.692   4.457
58305W        W26710  38.287  17.941   4.883
58306W        W26711   0.819  15.322   3.328
58307W        W26712   2.964   0.652   3.726
58308W        W26713   9.125   0.983  11.573
58309W        W26714   2.720  26.723  13.605
58310W        W26715  27.157  19.169  12.004
58311W        W26716  11.009  26.593   3.888
58312W        W26717  28.996  14.513   4.611
58313W        W26718  21.307   7.314  12.070
58314W        W26719  32.913  26.958  11.686
58315W        W26720  24.766  13.243  13.007
58316W        W26721  13.213  14.237  11.685
58317W        W26722  21.666  13.953  14.637
58318W        W26723  23.088  10.782  11.861
58319W        W26724   7.385  11.239   2.211
58320W        W26725  12.811   3.034   1.797
58321W        W26726  34.468   6.802   0.288
58322W        W26727   6.438  38.330  12.619
58323W        W26728  14.733   1.260   1.812
58324W        W26729  35.431  39.454  12.203
58325W        W26730  18.817  28.515   3.254
58326W        W26731  42.994   3.892   2.254
58327W        W26732  37.883   9.105  12.503
58328W        W26733  25.683  16.857  14.343
58329W        W26734  18.327  40.410   3.683
58330W        W26735  24.277  29.852   2.850
58331W        W26736  33.722  36.019  12.095
58332W        W26737  32.068   6.798  12.894
58333W        W26738   7.827  20.732   2.153
58334W        W26739   9.951  42.023   3.429
58335W        W26740  13.197  15.285  10.928
58336W        W26741  13.591  12.372   0.443
58337W        W26742  35.316  16.678  13.101
58338W        W26743  38.958  34.465   2.534
58339W        W26744   7.676   0.342  11.183
58340W        W26745  26.556  29.946   1.594
58341W        W26746  19.642  34.497   0.956
58342W        W26747  11.083  38.671  12.702
58343W        W26748  39.843  34.656   3.851
58344W        W26749  25.608  33.991   1.301
58345W        W26750  23.637   4.663  11.135
58346W        W26751  37.914  22.242  11.135
58347W        W26752  18.064  14.049  11.944
58348W        W26753  17.285  20.392  13.471
58349W        W26754   2.958   0.392  14.048
58350W        W26755  14.782  31.148   0.213
58351W        W26756  44.314  15.701  14.021
58352W        W26757  40.402  17.175  12.610
58353W        W26758   2.940  23.214  13.134
58354W        W26759  24.646  17.167  12.104
58355W        W26760  33.378  31.546   0.711
58356W        W26761  36.575  30.158  14.419
58357W        W26762  41.249   4.026   3.591
58358W        W26763  43.529   7.580   4.994
58359W        W26764  31.020   3.965  11.193
58360W        W26765  24.017   4.754  12.942
58361W        W26766   8.251   0.262   4.632
58362W        W26767  28.947  26.936  11.171
58363W        W26768   6.296  36.638   1.637
58364W        W26769  36.583   7.674  11.790
58365W        W26770  40.136  26.733   0.674
58366W        W26771  28.127  25.793  11.467
58367W        W26772  19.709  21.039  14.298
58368W        W26773  30.645  21.087   4.616
58369W        W26774  15.402  19.574  14.547
58370W        W26775  34.076  23.107   2.687
58371W        W26776  12.395  30.118   2.374
58372W        W26777  34.504   6.768   3.361
58373W        W26778  20.453   7.226  14.415
58374W        W26779  34.438  20.693  13.101
58375W        W26780  34.030  26.046  13.703
58376W        W26781  41.964   8.802   3.582
58377W        W26782  35.675  32.812   2.784
58378W        W26783   6.214  17.849   1.006
58379W        W26784   9.077  43.565  11.088
58380W        W26785  16.592  26.588  10.732
58381W        W26786  32.669  32.414   2.298
58382W        W26787  13.091  33.775  11.523
58383W        W26788  15.983  40.758  13.843
58384W        W26789  34.947  26.061  12.931
58385W        W26790  25.401  31.150   0.177
58386W        W26791  44.990  23.538  12.112
58387W        W26792  14.414  10.440   1.037
58388W        W26793  29.701  11.401   2.817
58389W        W26794  29.001  39.157   3.658
58390W        W26795   0.726  43.375  14.809
58391W        W26796  11.177  40.128   3.841
58392W        W26797  42.394  37.536   1.215
58393W        W26798  20.908  27.448  12.945
58394W        W26799  27.480  19.598   2.774
58395W        W26800  19.050  33.070   2.237
58396W        W26801  37.305   8.684   0.466
58397W        W26802  11.129  28.425   1.779
58398W        W26803  27.808  33.050   0.421
58399W        W26804  43.639   8.468   2.662
58400W        W26805   6.710  36.025   1.294
58401W        W26806  20.666  15.764  11.480
58402W        W26807   4.837  42.395  14.275
58403W        W26808   7.228  29.975   2.836
58404W        W26809  15.784   7.603  13.881
58405W        W26810   1.703  25.015   1.467
58406W        W26811  33.299  16.817   1.883
58407W        W26812   4.880  29.052   4.682
58408W        W26813  39.422  36.592   3.478
58409W        W26814  18.176   1.638  14.818
58410W        W26815   3.687  21.570   1.903
58411W        W26816  44.304   6.791   3.252
58412W        W26817  17.882   1.861   3.704
58413W        W26818  10.872  12.677  14.336
58414W        W26819  11.175  14.647  14.796
58415W        W26820  12.646  29.588   4.704
58416W        W26821  35.064  38.833   4.580
58417W        W26822  40.893  35.488  10.385
58418W        W26823   7.691  29.190   2.123
58419W        W26824  17.392  24.140  13.740
58420W        W26825  44.754  18.771  13.996
58421W        W26826  21.042  37.945   1.205
58422W        W26827  31.435   7.146   4.286
58423W        W26828  11.672  36.378   2.092
58424W        W26829   2.825  28.557   0.274
58425W        W26830  24.895  33.026  13.357
58426W        W26831  27.708  13.743  12.667
58427W        W26832  31.404  13.040  14.532
58428W        W26833   1.936  32.766  13.582
58429W        W26834   4.831   8.246  14.074
58430W        W26835  21.433  23.884  11.722
58431W        W26836   6.391   4.783   1.130
58432W        W26837  11.965  18.303  13.535
58433W        W26838  36.615   1.341  10.089
58434W        W26839  14.619  12.648  12.473
58435W        W26840  41.382  35.420  13.107
58436W        W26841  41.598  40.472  11.546
58437W        W26842  41.412  16.220   3.894
58438W        W26843  38.186  27.181  11.051
58439W        W26844  31.507  43.985  12.645
58440W        W26845  11.856  17.570   0.769
58441W        W26846  12.844  33.086   5.214
58442W        W26847  29.437  12.295   0.471
58443W        W26848   0.184  34.984   2.240
58444W        W26849  39.985  29.162   4.290
58445W        W26850  42.093   4.398   2.287
58446W        W26851  21.799  12.718   0.516
58447W        W26852  19.466  27.429   1.950
58448W        W26853  17.849  35.472   0.541
58449W        W26854  38.292   0.244  10.811
58450W        W26855  12.737  11.818  10.698
58451W        W26856  29.857  10.899   0.252
58452W        W26857  41.979  17.656   4.256
58453W        W26858   9.750  26.635   4.732
58454W        W26859  44.465  14.256   0.449
58455W        W26860  14.354   3.900  14.347
58456W        W26861   0.403  26.085   0.466
58457W        W26862  22.942  36.470   0.786
58458W        W26863  10.867  35.566  11.627
58459W        W26864  24.464  26.275   2.253
58460W        W26865  24.517   4.766   3.735
58461W        W26866  12.780  41.688  12.944
58462W        W26867  26.483  33.622  14.834
58463W        W26868   8.734  13.625   1.218
58464W        W26869  28.476  31.656  14.814
58465W        W26870   1.248  25.847  14.050
58466W        W26871  23.023  35.578  11.645
58467W        W26872  26.386   0.482   3.241
58468W        W26873   5.623   0.256  11.021
58469W        W26874  42.971  32.838  12.797
58470W        W26875  18.475   7.440  12.554
58471W        W26876  19.995  29.509  11.130
58472W        W26877  42.561  11.006  12.358
58473W        W26878  12.774  44.810   0.381
58474W        W26879  37.043  29.448   2.994
58475W        W26880   7.321   3.041   4.720
58476W        W26881  28.550   5.141  12.458
58477W        W26882  38.285  42.975   3.767
58478W        W26883  25.728  26.129  14.338
58479W        W26884  39.529  23.366  11.713
58480W        W26885  12.467  27.479  11.120
58481W        W26886  18.089  43.652   3.293
58482W        W26887   1.878  31.985  14.195
58483W        W26888   9.397  41.397   4.586
58484W        W26889  27.686  27.356   1.848
58485W        W26890  14.878  31.983   2.871
58486W        W26891   9.294  14.070  14.045
58487W        W26892  14.437  29.493  11.593
58488W        W26893  18.306  20.344   1.233
58489W        W26894  32.261  20.722   3.206
58490W        W26895   4.471  33.555  11.646
58491W        W26896  29.708  15.218  12.469
58492W        W26897  13.617  34.116   2.317
58493W        W26898   8.609  11.156  11.969
58494W        W26899  35.054  16.289   0.953
58495W        W26900  27.103  40.595   2.514
58496W        W26901  39.524  29.192   0.333
58497W        W26902  19.556   9.444   4.914
58498W        W26903  40.907  41.991   0.401
58499W        W26904  33.587   4.670  11.935
58500W        W26905   9.156  18.855   0.331
58501W        W26906  36.837  35.993  10.446
58502W        W26907  14.276  21.453   3.325
58503W        W26908  23.986   6.728   1.437
58504W        W26909  39.328  21.039   2.676
58505W        W26910  28.464  31.720  13.634
58506W        W26911  23.953   7.260   0.275
58507W        W26912  16.622  17.303  14.426
58508W        W26913   0.084  16.351  12.953
58509W        W26914   8.259  16.348  11.194
58510W        W26915  16.603  30.701  12.566
58511W        W26916  32.053  30.816   0.964
58512W        W26917  40.549  15.151  11.977
58513W        W26918  39.105  44.174  14.882
58514W        W26919  21.317  32.164  13.005
58515W        W26920   2.699  42.490   0.736
58516W        W26921  40.885   6.040   0.138
58517W        W26922  31.344  11.700   1.849
58518W        W26923  27.033  25.033   2.888
58519W        W26924  44.729   6.375   1.749
58520W        W26925  41.074  20.972  12.139
58521W        W26926  32.625  12.674   0.874
58522W        W26927   3.716  28.061  13.354
58523W        W26928  22.733  44.488   4.123
58524W        W26929   1.900  11.660   3.599
58525W        W26930  29.388  34.614   3.784
58526W        W26931  34.363  37.844  10.445
58527W        W26932  28.110  10.243   3.576
58528W        W26933  40.631   2.420   3.701
58529W        W26934  19.609  41.056  12.431
58530W        W26935   6.421  44.378   0.402
58531W        W26936  16.154  34.396  13.959
58532W        W26937  39.811  24.577   2.972
58533W        W26938  24.149  21.075  12.735
58534W        W26939  38.528  37.903  10.598
58535W        W26940  34.603   9.779   2.844
58536W        W26941  11.533  33.204  12.937
58537W        W26942  27.199  11.361   2.801
58538W        W26943  17.134   6.424   2.740
58539W        W26944  36.850  44.839  10.244
58540W        W26945  27.850  33.593  13.877
58541W        W26946  16.701  25.492   0.921
58542W        W26947  26.671  16.239  13.014
58543W        W26948  34.816  28.121   3.050
58544W        W26949  18.158  40.861  14.532
58545W        W26950  15.795  20.590  12.200
58546W        W26951  12.033   4.234  13.078
58547W        W26952  24.689  26.185  11.685
58548W        W26953  20.668  27.607   3.771
58549W        W26954  35.887  29.646  12.443
58550W        W26955  25.133  17.226  13.539
58551W        W26956  18.516  32.644   0.020
58552W        W26957  27.477  39.412   1.241
58553W        W26958  39.087   1.041   4.596
58554W        W26959  32.131  23.587  14.535
58555W        W26960  11.555  22.587   1.967
58556W        W26961  19.772   6.259  13.503
58557W        W26962  28.717  17.078  11.200
58558W        W26963   0.886   3.646   1.347
58559W        W26964  10.642  43.944   0.477
58560W        W26965  42.388  42.368   0.838
58561W        W26966  15.123   1.484   2.642
58562W        W26967  29.074   4.706   3.661
58563W        W26968  37.175  26.750   2.138
58564W        W26969   4.005  33.725   1.424
58565W        W26970  26.498  26.475   1.025
58566W        W26971  17.810  43.421  14.957
58567W        W26972  19.894  26.982   4.578
58568W        W26973  23.396  33.816   2.870
58569W        W26974  39.353  20.179  14.879
58570W        W26975  23.180   3.341   0.965
58571W        W26976  25.642  43.776   0.851
58572W        W26977  12.612   1.951  13.412
58573W        W26978  13.227   4.674   2.594
58574W        W26979  36.793  36.601  13.946
58575W        W26980  37.916  26.740   1.387
58576W        W26981   8.322  30.986   1.948
58577W        W26982  42.389  31.983   1.191
58578W        W26983   8.007  21.464  13.405
58579W        W26984  27.154  34.679   3.376
58580W        W26985  13.833  12.249   0.878
58581W        W26986   5.314  16.391  12.338
58582W        W26987  11.211   5.720   2.329
58583W        W26988  25.869  32.116  14.493
58584W        W26989  20.549   5.654  13.764
58585W        W26990  20.150  33.759   2.845
58586W        W26991  20.269   6.429   3.804
58587W        W26992  16.050  16.652   2.269
58588W        W26993  22.240  33.667  12.030
58589W        W26994   9.895  43.913   0.907
58590W        W26995   5.157  10.767   3.925
58591W        W26996   1.705  16.812   3.302
58592W        W26997  35.040  43.393  11.578
58593W        W26998  36.861  23.457   1.431
58594W        W26999  10.140  40.016  14.032
58595W        W27000  20.250  24.038   0.546
58596W        W27001   7.881  38.561   4.607
58597W        W27002  25.576  26.491  12.065
58598W        W27003  43.852   8.728   0.913
58599W        W27004  27.944  43.710  13.554
58600W        W27005   3.365  44.488   1.723
58601W        W27006   6.969  19.744   4.068
58602W        W27007  42.688  43.015   4.518
58603W        W27008  18.861  41.011   4.222
58604W        W27009   7.748  13.053   2.361
58605W        W27010  31.966   8.939   3.594
58606W        W27011  20.085  43.745   4.732
58607W        W27012  21.032  31.290   4.346
58608W        W27013  34.701  33.423  10.789
58609W        W27014  15.646  35.967  12.777
58610W        W27015   6.964  17.668  14.342
58611W        W27016  11.541  22.139   2.222
58612W        W27017   1.331  18.874  10.610
58613W        W27018  39.389  27.014   0.649
58614W        W27019  44.045  41.965  14.120
58615W        W27020  17.782   2.218  14.039
58616W        W27021   7.933  43.923   4.936
58617W        W27022   4.476  42.472  11.745
58618W        W27023  41.590   5.043  11.054
58619W        W27024  20.791  19.756  13.008
58620W        W27025  37.354  19.545  12.833
58621W        W27026  27.561  17.539   1.874
58622W        W27027  22.183  42.503  13.866
58623W        W27028  34.475  21.277  13.767
58624W        W27029  15.540   8.349  13.233
58625W        W27030   6.234  31.899   0.503
58626W        W27031  23.564  40.785   0.385
58627W        W27032  12.617  42.712   1.283
58628W        W27033   2.811   1.890  11.612
58629W        W27034   2.236  44.808  11.991
58630W        W27035  14.247  43.375   4.547
58631W        W27036  16.058  13.693  11.906
58632W        W27037   8.736   1.370   0.744
58633W        W27038  11.095  39.488   2.009
58634W        W27039  33.788  10.023   2.610
58635W        W27040  19.844  36.166   3.384
58636W        W27041  11.899  11.610  11.778
58637W        W27042  26.564  12.249  11.662
58638W        W27043  15.772   2.834   0.686
58639W        W27044  22.329  20.814   1.672
58640W        W27045   2.591  44.278   2.290
58641W        W27046  31.704   2.947  14.154
58642W        W27047  42.836  16.965   3.353
58643W        W27048  16.056  18.998   0.879
58644W        W27049  33.804  17.230   4.861
58645W        W27050  32.952  40.029  11.178
58646W        W27051  43.476  43.403  11.190
58647W        W27052  29.899  14.149   3.677
58648W        W27053  42.760  21.018  12.970
58649W        W27054  34.975   6.244   4.525
58650W        W27055  28.482  38.300  14.872
58651W        W27056   0.780   4.791  11.801
58652W        W27057  28.474  34.609  13.774
58653W        W27058   7.162  21.783  11.151
58654W        W27059  36.445  26.749   4.249
58655W        W27060  36.147  22.155  14.364
58656W        W27061  22.014   5.232  11.513
58657W        W27062  33.862  24.031   2.376
58658W        W27063  24.308  41.511  10.632
58659W        W27064  18.090   4.911   2.796
58660W        W27065   5.922   6.666  12.046
58661W        W27066  28.519  39.280  10.264
58662W        W27067  32.506   0.711   1.380
58663W        W27068  13.555   7.844  12.872
58664W        W27069   9.307  17.786   2.550
58665W        W27070  24.385  23.092   0.623
58666W        W27071  25.128  41.452   3.576
58667W        W27072  40.286  17.234  14.047
58668W        W27073  20.689   7.147  11.183
58669W        W27074  32.022   7.833   4.691
58670W        W27075   0.431  41.362   2.768
58671W        W27076  31.601  14.912   3.675
58672W        W27077   8.133  14.234  12.428
58673W        W27078  19.186  27.528   0.744
58674W        W27079  36.713  28.714  11.002
58675W        W27080  17.209   4.872   1.261
58676W        W27081  30.354  23.105  13.142
58677W        W27082  22.727  27.771   3.949
58678W        W27083  25.183  16.508   2.701
58679W        W27084  26.961   3.811   1.793
58680W        W27085  37.035  42.323  14.105
58681W        W27086  26.080   4.573   3.784
58682W        W27087  14.578  20.771   1.746
58683W        W27088  27.252  34.412  12.566
58684W        W27089  20.103  42.973  12.219
58685W        W27090  26.941   8.989  11.414
58686W        W27091  41.993  41.848   2.237
58687W        W27092  27.884  34.501  10.697
58688W        W27093  19.880   4.577  13.970
58689W        W27094   8.844  13.192  13.027
58690W        W27095   1.057   9.265  13.390
58691W        W27096  37.003  42.374  11.485
58692W        W27097  10.463  37.954   0.382
58693W        W27098  43.775  20.485   0.472
58694W        W27099  13.760  28.716   0.434
58695W        W27100  19.694   2.482  13.995
58696W        W27101  39.066  22.746   3.633
58697W        W27102  15.948  32.842   3.835
58698W        W27103  14.700   4.533  11.754
58699W        W27104  31.972   1.705  12.840
58700W        W27105  19.253  21.861   0.440
58701W        W27106  26.690  38.181   1.237
58702W        W27107   6.965   2.362   0.068
58703W        W27108   4.378  20.700   1.210
58704W        W27109  31.545  17.805   3.785
58705W        W27110  18.866  28.121  10.674
58706W        W27111  21.950  39.399   0.968
58707W        W27112  21.772  14.067   1.194
58708W        W27113  10.228  32.558  11.427
58709W        W27114  43.243  20.478   0.370
58710W        W27115  18.074  10.006   9.925
58711W        W27116  35.785  35.988   3.281
58712W        W27117   6.646   6.428   0.395
58713W        W27118   8.875  33.552   2.538
58714W        W27119  15.256   0.132   3.087
58715W        W27120  36.863   4.297  13.111
58716W        W27121  43.381  26.094  13.462
58717W        W27122  28.234  36.143   1.304
58718W        W27123  44.956   0.107   4.014
58719W        W27124  26.052  22.981  11.229
58720W        W27125   5.737  21.539   0.580
58721W        W27126  24.951  31.613   1.366
58722W        W27127  17.325   7.646   0.530
58723W        W27128  36.877  39.582  12.081
58724W        W27129  22.102  41.998   3.608
58725W        W27130  39.394  17.153  13.119
58726W        W27131  19.785  20.828   2.706
58727W        W27132   1.340  19.505  14.430
58728W        W27133  10.350   6.521   2.687
58729W        W27134  25.798  36.562   4.245
58730W        W27135  21.951  23.033   0.477
58731W        W27136  11.743  30.154  13.188
58732W        W27137  10.222  22.454  11.544
58733W        W27138  30.193  44.183  14.488
58734W        W27139  11.758   3.071   1.994
58735W        W27140  37.542  27.545   2.805
58736W        W27141  33.853  29.577  14.328
58737W        W27142  27.627  40.065  11.832
58738W        W27143  29.419  38.889  11.621
58739W        W27144  10.163  42.288  11.596
58740W        W27145  43.948  33.463  13.153
58741W        W27146   9.121  15.743   1.009
58742W        W27147  13.253  26.226   3.902
58743W        W27148  29.965  12.097  14.392
58744W        W27149  19.688  23.883  14.940
58745W        W27150  29.138   2.117   4.837
58746W        W27151  25.017   0.665   2.680
58747W        W27152  43.267  17.763  14.869
58748W        W27153  34.679  30.269   4.958
58749W        W27154   9.483  19.814  13.936
58750W        W27155  18.710  14.768  14.413
58751W        W27156  29.532  23.142   1.061
58752W        W27157  11.319   0.175   3.176
58753W        W27158   3.324  36.137  12.559
58754W        W27159  28.589   5.226  11.559
58755W        W27160  34.440  16.385  12.829
58756W        W27161   6.026  17.730  10.290
58757W        W27162  38.122  39.407   3.279
58758W        W27163  30.101   6.998  12.587
58759W        W27164  11.700   8.661  13.507
58760W        W27165   2.032  19.726   4.945
58761W        W27166  30.493  39.375  13.050
58762W        W27167   6.449   5.673   0.337
58763W        W27168  43.908  11.253  12.477
58764W        W27169  18.006  43.319  11.634
58765W        W27170  11.065  26.685   1.431
58766W        W27171  18.306  21.203   2.417
58767W        W27172  26.409   5.953  10.825
58768W        W27173   2.242  42.453  10.510
58769W        W27174  39.516  27.526   0.708
58770W        W27175  44.319   9.196  12.993
58771W        W27176   1.531  23.252  13.993
58772W        W27177  25.608  37.442  10.796
58773W        W27178  24.505  26.490  14.532
58774W        W27179  31.475   1.475   4.431
58775W        W27180  32.664  33.549  14.874
58776W        W27181  25.101  20.156   2.369
58777W        W27182  29.498  29.782  11.748
58778W        W27183  23.625  13.717  12.772
58779W        W27184  22.586  31.618   0.287
58780W        W27185  12.248  39.487   3.675
58781W        W27186  36.355   9.316  14.508
58782W        W27187  22.624  28.708  14.537
58783W        W27188  18.099  11.388  11.186
58784W        W27189  12.418  17.092   2.331
58785W        W27190  25.081   4.849  11.174
58786W        W27191   6.806  24.313   1.303
58787W        W27192  37.028  44.240   1.237
58788W        W27193  25.197  40.372   1.764
58789W        W27194  22.228  30.345  12.232
58790W        W27195  20.657   9.017  12.539
58791W        W27196  11.256  13.780  14.129
58792W        W27197  14.922  15.489  13.644
58793W        W27198  21.774  20.160   2.980
58794W        W27199  28.138  27.863   2.235
58795W        W27200  17.706  12.218  12.885
58796W        W27201   3.636  15.723   3.200
58797W        W27202  34.312  13.280  12.789
58798W        W27203  28.516  43.871   4.322
58799W        W27204   6.894  26.185   2.752
58800W        W27205  13.138  15.890   4.348
58801W        W27206   7.399  19.838   4.681
58802W        W27207  10.137  10.029  12.485
58803W        W27208   6.332  17.253   3.349
58804W        W27209   0.364   8.690  10.651
58805W        W27210  33.066  24.490  11.560
58806W        W27211   1.020   6.900   2.026
58807W        W27212  43.895  18.687  11.325
58808W        W27213  37.992   0.447  13.849
58809W        W27214  32.876  35.879   2.209
58810W        W27215  15.244  17.380   4.681
58811W        W27216  37.389  22.973   3.319
58812W        W27217   4.798  28.881  12.891
58813W        W27218  17.558   5.187  11.043
58814W        W27219  21.104  28.528  12.427
58815W        W27220  44.885  32.506  13.077
58816W        W27221   4.061  10.304   4.004
58817W        W27222  42.791  43.084   2.750
58818W        W27223  31.613  26.157  10.621
58819W        W27224  36.260  36.962  14.426
58820W        W27225  13.922   8.817  10.607
58821W        W27226  17.091  26.579  10.615
58822W        W27227   5.766  31.007  12.330
58823W        W27228   9.292  11.433   0.486
58824W        W27229  14.878  24.485  14.737
58825W        W27230  36.054  16.688   0.359
58826W        W27231  38.514   4.302   2.760
58827W        W27232  29.565  40.509   1.765
58828W        W27233   9.048  13.108   4.823
58829W        W27234  22.720   0.731  11.891
58830W        W27235   0.504  38.332   3.504
58831W        W27236  31.520  42.087   3.409
58832W        W27237  29.763  35.582   1.877
58833W        W27238  44.398   0.386   3.103
58834W        W27239  30.673  11.451   4.080
58835W        W27240  41.762  44.959   1.412
58836W        W27241  40.395  10.612  13.981
58837W        W27242  26.093  34.286  11.195
58838W        W27243  10.743  17.082   3.129
58839W        W27244  36.119   2.277  13.006
58840W        W27245  29.981  33.102  12.520
58841W        W27246  27.629  18.663   1.470
58842W        W27247  30.004  18.203   2.728
58843W        W27248  19.975  17.714   4.351
58844W        W27249  36.288  14.766   2.320
58845W        W27250  20.175  33.950  10.438
58846W        W27251  31.694  31.134   0.375
58847W        W27252   3.908  17.484   0.741
58848W        W27253  16.510   1.130  12.412
58849W        W27254  33.851  32.333   2.903
58850W        W27255  21.382  36.203   0.781
58851W        W27256   7.497  37.428   3.471
58852W        W27257  22.037  21.315   3.926
58853W        W27258  22.203  37.251   1.217
58854W        W27259  39.052   4.278   1.796
58855W        W27260  16.670  40.395   0.876
58856W        W27261  37.642  31.143   3.335
58857W        W27262  15.968  36.112   4.971
58858W        W27263  41.374  38.796  14.553
58859W        W27264  25.565  38.944   2.799
58860W        W27265  25.469  12.761   5.172
58861W        W27266   3.730  18.555  12.925
58862W        W27267  27.645  10.758   0.734
58863W        W27268  31.598  33.272   4.657
58864W        W27269  16.772  10.058  13.506
58865W        W27270   2.744   4.763  11.916
58866W        W27271  35.990   7.242   0.540
58867W        W27272  27.936  25.061   3.674
58868W        W27273   6.311  16.598   1.775
58869W        W27274  42.932   6.279  14.004
58870W        W27275  32.681  17.803  11.920
58871W        W27276  11.704   3.693   3.737
58872W        W27277  40.110  28.982   3.158
58873W        W27278  21.741   9.743   3.231
58874W        W27279  15.828  14.271   0.284
58875W        W27280  41.107  33.004   2.293
58876W        W27281  22.513   2.885   0.380
58877W        W27282  38.579   2.547   2.032
58878W        W27283   2.616  18.921   1.386
58879W        W27284  28.428  19.307  11.582
58880W        W27285  19.329   9.472  13.107
58881W        W27286   2.918   8.666   3.793
58882W        W27287  17.058  22.636  12.427
58883W        W27288  25.581   4.651   2.310
58884W        W27289  38.100   6.597   5.312
58885W        W27290  25.848  26.544  13.596
58886W        W27291   2.652  26.373  12.152
58887W        W27292  13.687  30.708   3.897
58888W        W27293  35.026  11.110  14.716
58889W        W27294  20.529  39.574   4.242
58890W        W27295  25.219  43.011  13.823
58891W        W27296  33.830  16.156   1.384
58892W        W27297  11.740   8.774   5.112
58893W        W27298  38.719  38.288  14.906
58894W        W27299   2.211  21.165  11.853
58895W        W27300  30.623  23.053   4.306
58896W        W27301  33.061   2.951  14.592
58897W        W27302  12.743  27.587  11.974
58898W        W27303  34.908  44.711   0.247
58899W        W27304   2.369  13.799  10.409
58900W        W27305  11.674   3.345   2.987
58901W        W27306  17.840  14.222   4.568
58902W        W27307  40.847  17.024  11.931
58903W        W27308   5.008   3.225  11.054
58904W        W27309  30.616  19.628  11.851
58905W        W27310   0.834  38.335   1.941
58906W        W27311  16.612  25.844  13.533
58907W        W27312  34.506  38.485  12.360
58908W        W27313   6.881  16.627   1.731
58909W        W27314  19.552  19.217   0.867
58910W        W27315  18.610  15.782   0.262
58911W        W27316   7.718  41.605  10.734
58912W        W27317  25.574  31.352   2.187
58913W        W27318  25.781  38.859   0.349
58914W        W27319  18.937   5.387  14.818
58915W        W27320   7.402  32.096   4.269
58916W        W27321  18.094  30.349  13.368
58917W        W27322   2.307  38.825   1.092
58918W        W27323   5.363  44.107   2.344
58919W        W27324  18.167   5.230   2.381
58920W        W27325  20.394   3.775   1.502
58921W        W27326  19.569   4.223  13.380
58922W        W27327  18.173  25.642   4.950
58923W        W27328   7.745   4.455  14.946
58924W        W27329   3.740  25.901   3.274
58925W        W27330  39.640  19.553  14.016
58926W        W27331  11.735  42.975  11.488
58927W        W27332  23.113  13.588   0.177
58928W        W27333  21.156  20.528   3.701
58929W        W27334  42.996  37.589  13.336
58930W        W27335  40.023   9.730  12.991
58931W        W27336   3.925   9.408   4.644
58932W        W27337  33.504   6.691   2.417
58933W        W27338   5.800   9.097  11.502
58934W        W27339  13.693  24.450   2.482
58935W        W27340  15.624   0.744  12.028
58936W        W27341  16.767  17.198   1.855
58937W        W27342  24.136  32.884   0.289
58938W        W27343  29.607   7.921  13.339
58939W        W27344  16.133  38.871   2.852
58940W        W27345  17.585  16.652   1.096
58941W        W27346  16.668  30.734   3.344
58942W        W27347   1.917  16.222  14.380
58943W        W27348  38.785  18.532  12.604
58944W        W27349  18.510  43.968   3.783
58945W        W27350  28.507  24.538  13.461
58946W        W27351  21.524  11.812   0.379
58947W        W27352  11.779  17.840   3.674
58948W        W27353   0.996  44.998  11.503
58949W        W27354  44.477  35.588  11.930
58950W        W27355   9.782  33.465  12.037
58951W        W27356   4.980  35.405   4.630
58952W        W27357  12.926  26.102  12.876
58953W        W27358  12.713  15.763  13.817
58954W        W27359  11.941  42.520   2.705
58955W        W27360  33.987   9.133   3.589
58956W        W27361  14.087  31.469   3.754
58957W        W27362  27.520  37.907  11.482
58958W        W27363  38.998  13.640   1.809
58959W        W27364  36.518  34.502  10.724
58960W        W27365  39.956  21.515   0.821
58961W        W27366  37.954  37.527  13.155
58962W        W27367  15.387  12.698  11.647
58963W        W27368  35.976  26.171   2.162
58964W        W27369  22.248   8.157  12.074
58965W        W27370   2.380  28.666  14.821
58966W        W27371  13.506  30.060   2.727
58967W        W27372  37.138  17.235   1.001
58968W        W27373  19.871  42.605   4.167
58969W        W27374  31.660  18.519  11.966
58970W        W27375  11.167  39.381   1.526
58971W        W27376  16.355  36.824  13.947
58972W        W27377  30.160  39.068  13.321
58973W        W27378  38.984  16.041  11.542
58974W        W27379  40.520   8.050  12.862
58975W        W27380  17.710   6.679   1.415
58976W        W27381  20.542  44.343   1.414
58977W        W27382  31.800   1.269   3.275
58978W        W27383  16.079  39.212  10.177
58979W        W27384  39.643  21.915   0.969
58980W        W27385   3.924  26.521  13.502
58981W        W27386  28.176  44.114   2.568
58982W        W27387   1.698  13.728   2.598
58983W        W27388   8.624  10.839   0.499
58984W        W27389  19.274  42.378   2.711
58985W        W27390  35.378  12.659  12.501
58986W        W27391  33.795  12.406   3.151
58987W        W27392  15.544  14.364   1.421
58988W        W27393  34.225  24.665  12.291
58989W        W27394  36.374  15.745   4.117
58990W        W27395  30.689   8.174   3.855
58991W        W27396  14.955  29.701   4.279
58992W        W27397  29.989   3.729  11.546
58993W        W27398  33.444  25.882   4.676
58994W        W27399   6.590   9.674  12.613
58995W        W27400  24.000  34.017  13.628
58996W        W27401  22.070  11.379  11.507
58997W        W27402  38.999  15.794  10.227
58998W        W27403  12.234  37.886   2.319
58999W        W27404  11.424  32.130   4.991
59000W        W27405  41.756  16.192  11.614
59001W        W27406   1.471  19.232   3.302
59002W        W27407  43.895  24.276  10.749
59003W        W27408  26.974   4.947   0.609
59004W        W27409  25.516   3.474  12.384
59005W        W27410   6.951  38.977  13.274
59006W        W27411   4.884   2.396  10.595
59007W        W27412  44.526  12.594  13.001
59008W        W27413  17.238  39.545  11.447
59009W        W27414   7.328   4.105  12.625
59010W        W27415   0.385   6.425  14.908
59011W        W27416   2.209  12.291  14.111
59012W        W27417  11.588  32.827  12.118
59013W        W27418  36.411  38.170  12.668
59014W        W27419  13.575  20.770   0.830
59015W        W27420  12.962  12.403   2.175
59016W        W27421   5.014   8.165  14.531
59017W        W27422   6.671   8.319   0.836
59018W        W27423  35.803  10.769  14.935
59019W        W27424  33.426  31.581  10.745
59020W        W27425   6.683   2.047   0.338
59021W        W27426  37.541  19.267   1.724
59022W        W27427  13.677  18.812   3.087
59023W        W27428  39.053   6.995  11.378
59024W        W27429  12.166  22.530   1.342
59025W        W27430  21.796  40.881   4.818
59026W        W27431  25.252  22.620   0.277
59027W        W27432  18.755  31.990   0.768
59028W        W27433  17.661  11.112   2.887
59029W        W27434  24.679  23.652   4.175
59030W        W27435  33.065  38.029  11.613
59031W        W27436  36.997  23.742  11.005
59032W        W27437   5.237  34.723  12.397
59033W        W27438  28.852  14.485   9.383
59034W        W27439  14.247  33.559  13.837
59035W        W27440  28.609  42.837   4.167
59036W        W27441  34.453   4.916  10.808
59037W        W27442  11.319  36.272   3.179
59038W        W27443  27.667  13.645  13.918
59039W        W27444   5.148  14.071   2.133
59040W        W27445  23.019  17.666  11.645
59041W        W27446  13.944   8.434   0.408
59042W        W27447  17.548  12.625   1.934
59043W        W27448  20.978  30.459   1.157
59044W        W27449  43.514  12.503   4.206
59045W        W27450  22.636  41.539  10.099
59046W        W27451  11.813  36.825   4.897
59047W        W27452   1.608  39.868  11.663
59048W        W27453  31.922  43.143   2.569
59049W        W27454  26.622  42.555  11.449
59050W        W27455  39.399  20.483  13.053
59051W        W27456  31.747   8.743   0.796
59052W        W27457   4.391  41.497   0.318
59053W        W27458  35.851   8.354   2.460
59054W        W27459  20.185  11.160   3.456
59055W        W27460  15.219  30.086  11.858
59056W        W27461  42.029  14.071  10.984
59057W        W27462  40.096  26.790   2.176
59058W        W27463  15.703  29.111  10.695
59059W        W27464  26.578   0.348  12.029
59060W        W27465  25.787  17.663   1.767
59061W        W27466  30.424  28.050  11.407
59062W        W27467  34.872  11.787   3.652
59063W        W27468  18.732  42.461  12.863
59064W        W27469  30.442  31.923  13.571
59065W        W27470  33.680   7.649  12.072
59066W        W27471  15.487  39.898  14.913
59067W        W27472  27.350  16.310   0.708
59068W        W27473  28.478  19.883  12.901
59069W        W27474  40.781   5.901  11.703
59070W        W27475  35.003  27.508   1.286
59071W        W27476  41.746   5.881  10.446
59072W        W27477  18.257  10.888   2.105
59073W        W27478  40.948  16.436  12.660
59074W        W27479  31.553  40.971   2.706
59075W        W27480  11.301  43.405  12.632
59076W        W27481  33.525   8.738   1.494
59077W        W27482  40.772   9.193  14.810
59078W        W27483  15.901  22.078   1.620
59079W        W27484  18.326  31.995  11.019
59080W        W27485  11.608  44.661  13.632
59081W        W27486  34.076  20.791   2.613
59082W        W27487  29.252  34.414  13.558
59083W        W27488  16.771   8.767   2.183
59084W        W27489  34.074  40.586   3.339
59085W        W27490  32.556   6.217   1.957
59086W        W27491  10.868  14.658  12.514
59087W        W27492  30.189  26.235  11.611
59088W        W27493  18.655  35.552  11.531
59089W        W27494  25.778  13.237  13.077
59090W        W27495  32.511  17.764  11.245
59091W        W27496  23.497  39.540  14.790
59092W        W27497   9.765  15.882   2.197
59093W        W27498   9.637  27.614   2.632
59094W        W27499   4.925  17.249   1.782
59095W        W27500  35.903   9.100  13.530
59096W        W27501   1.353  11.450   3.739
59097W        W27502  13.840  23.672   3.590
59098W        W27503   4.635  13.771  11.676
59099W        W27504   1.359  37.735   4.517
59100W        W27505  19.423  21.653  11.578
59101W        W27506   3.836  12.280  12.102
59102W        W27507  30.502  36.648   3.276
59103W        W27508  31.201  16.895   9.675
59104W        W27509   0.335  35.908  11.706
59105W        W27510   2.762   5.351   3.792
59106W        W27511   2.940  28.541  13.287
59107W        W27512  20.851  32.358   4.663
59108W        W27513  43.938  23.541  14.441
59109W        W27514  44.669  28.905   4.628
59110W        W27515  38.795  42.623   2.594
59111W        W27516  39.796  17.657   4.134
59112W        W27517  40.292   2.716   4.564
59113W        W27518  16.188  16.110   2.287
59114W        W27519  24.670  12.729  14.278
59115W        W27520  32.641  29.485   1.522
59116W        W27521  29.649  37.131   0.880
59117W        W27522  16.847  36.129  13.530
59118W        W27523  22.525  26.207  10.291
59119W        W27524   2.463  34.298  10.704
59120W        W27525  44.851  21.623  12.584
59121W        W27526  38.506  13.965   0.964
59122W        W27527  22.103  15.408  14.078
59123W        W27528  22.338  38.536   0.880
59124W        W27529   1.521  28.117  10.885
59125W        W27530  29.122  34.995   3.559
59126W        W27531  22.517  20.736  11.133
59127W        W27532  18.362   7.514   3.603
59128W        W27533  39.287  17.693   4.048
59129W        W27534  38.816  42.548   0.356
59130W        W27535  16.854  10.792   3.902
59131W        W27536  24.400  25.077  13.451
59132W        W27537  25.500  12.119   3.875
59133W        W27538  41.532  23.984   1.754
59134W        W27539   6.246  15.517  14.448
59135W        W27540  44.045  29.411  11.950
59136W        W27541   5.186   3.849  10.562
59137W        W27542  12.324  17.607   4.364
59138W        W27543  28.163  11.211  10.675
59139W        W27544   4.708  13.147   4.177
59140W        W27545  10.173  40.970   4.585
59141W        W27546  27.612  40.521  12.716
59142W        W27547  24.445  22.211  12.547
59143W        W27548  28.613  20.273   0.386
59144W        W27549  13.826  25.262  14.753
59145W        W27550  40.883  24.990   0.246
59146W        W27551   7.326   5.592  11.646
59147W        W27552  24.630  34.640   3.701
59148W        W27553  14.184   9.991  13.256
59149W        W27554  38.053  17.066   1.366
59150W        W27555   3.562  38.530   2.178
59151W        W27556  12.233   5.077   3.343
59152W        W27557  13.153  17.774  13.464
59153W        W27558  35.217  14.121   3.889
59154W        W27559  12.332   5.989   1.708
59155W        W27560  29.903  12.279   1.381
59156W        W27561   6.817  33.993  12.467
59157W        W27562  35.049  37.554  14.387
59158W        W27563  33.440  32.573  14.425
59159W        W27564  34.794   9.546  12.764
59160W        W27565  19.461   6.371   1.711
59161W        W27566  15.968  29.133   0.205
59162W        W27567  18.318  36.162  14.009
59163W        W27568  11.860  40.562  14.823
59164W        W27569  44.785  26.158  13.620
59165W        W27570  30.956   1.888   1.353
59166W        W27571   7.236  22.072   2.217
59167W        W27572  14.094  22.488  13.150
59168W        W27573  19.242  25.602  11.143
59169W        W27574  34.469  20.900  14.100
59170W        W27575  19.147  25.281   2.857
59171W        W27576  41.506   1.335   2.632
59172W        W27577   4.749  35.568  10.591
59173W        W27578  21.106  28.960  10.579
59174W        W27579  44.607  44.211   2.214
59175W        W27580  28.666  39.973  13.455
59176W        W27581   8.612  26.623  14.875
59177W        W27582  32.556  38.062   1.726
59178W        W27583  20.700  24.704   0.749
59179W        W27584   0.295  15.839  12.098
59180W        W27585  42.632   0.123  12.198
59181W        W27586  28.262  33.432  11.991
59182W        W27587  20.053  10.868   2.124
59183W        W27588  43.768   6.821  11.666
59184W        W27589  44.436   5.674  10.926
59185W        W27590  12.829  26.203   0.914
59186W        W27591  11.612  26.233  12.425
59187W        W27592  35.143  16.110   1.866
59188W        W27593  20.030   4.916   0.244
59189W        W27594  12.426  42.765   3.551
59190W        W27595   7.213  22.011   0.359
59191W        W27596  23.458  38.528   4.236
59192W        W27597  22.067  35.121  11.983
59193W        W27598  37.331  38.036   0.858
59194W        W27599  15.641  43.671   4.549
59195W        W27600  30.936   1.578  11.437
59196W        W27601  20.823  36.280   1.999
59197W        W27602  21.325  15.030  12.404
59198W        W27603  11.153  14.227  10.347
59199W        W27604  33.622  21.648   4.127
59200W        W27605  13.527  10.675   2.198
59201W        W27606  41.819  43.097  14.305
59202W        W27607  39.523  19.441   1.965
59203W        W27608   3.732  42.472   0.812
59204W        W27609  30.883  35.519  10.785
59205W        W27610   7.765  17.610  11.516
59206W        W27611  12.098  30.511  13.124
59207W        W27612   7.955  44.467  13.942
59208W        W27613  38.862  32.128   1.268
59209W        W27614  11.404  16.783   4.496
59210W        W27615   4.332  18.819   0.370
59211W        W27616  25.419  34.495   1.272
59212W        W27617  26.378   4.208   0.265
59213W        W27618  33.580  28.557   2.339
59214W        W27619  44.385  26.103  10.675
59215W        W27620  17.435  36.454  12.087
59216W        W27621  37.963  25.096   0.292
59217W        W27622   5.249  33.522  12.339
59218W        W27623  17.019  38.746  12.543
59219W        W27624  32.053  23.576  13.350
59220W        W27625  28.319  11.665   4.194
59221W        W27626   1.589  31.545   2.687
59222W        W27627  21.732  24.081   3.148
59223W        W27628  37.833  35.316  11.554
59224W        W27629  42.421   6.322  10.657
59225W        W27630  15.113  43.827  13.548
59226W        W27631   3.373  23.994   4.055
59227W        W27632  37.972  23.203   3.271
59228W        W27633  12.869  14.046  12.063
59229W        W27634  21.539  19.459  10.475
59230W        W27635  34.680  15.170   1.655
59231W        W27636  26.322   1.771  11.678
59232W        W27637  41.031  18.658   2.336
59233W        W27638  30.961   5.811   1.390
59234W        W27639   8.930  32.184   0.775
59235W        W27640  25.597  21.050  12.464
59236W        W27641  39.398  40.960   4.008
59237W        W27642  24.552   3.648  13.546
59238W        W27643  42.595  34.100   2.224
59239W        W27644  16.549  24.219  10.353
59240W        W27645   8.372   7.655  14.075
59241W        W27646   4.832  41.298   1.602
59242W        W27647  31.446  12.113  14.553
59243W        W27648  18.281  22.579   2.714
59244W        W27649  25.410   9.483   3.510
59245W        W27650  25.542  13.131   3.950
59246W        W27651  28.452   2.788  13.698
59247W        W27652  43.156  28.413   0.553
59248W        W27653   9.387  14.708   2.393
59249W        W27654  21.679  40.479  10.529
59250W        W27655  43.335  19.182  14.326
59251W        W27656  33.526  39.779  14.487
59252W        W27657  10.558  11.478  11.984
59253W        W27658   8.726  15.680   2.764
59254W        W27659  41.803  11.336   3.278
59255W        W27660  34.662   8.902   2.576
59256W        W27661  19.044  26.268   2.785
59257W        W27662  43.308  30.871  12.934
59258W        W27663  14.663  22.754   3.145
59259W        W27664  31.571   2.551   3.679
59260W        W27665  15.596   0.008   0.869
59261W        W27666   4.955  13.053   0.339
59262W        W27667  35.575   2.791  13.535
59263W        W27668  13.835  39.093   0.936
59264W        W27669  16.641  44.426  12.845
59265W        W27670  12.192  22.533  14.227
59266W        W27671   2.295   5.688   4.808
59267W        W27672  10.784   5.875  14.750
59268W        W27673  17.064  27.139   2.278
59269W        W27674  20.679   5.227   1.866
59270W        W27675  35.081  19.068  12.580
59271W        W27676  44.672  15.612   2.466
59272W        W27677  41.995  14.825   3.346
59273W        W27678   6.159  21.154  13.345
59274W        W27679  36.381  41.900   4.748
59275W        W27680  43.432  41.364  12.025
59276W        W27681  27.795  32.371  13.007
59277W        W27682   3.108  30.091  12.607
59278W        W27683  23.762  31.809   4.512
59279W        W27684  42.464  20.301  12.033
59280W        W27685  10.692   3.019   3.160
59281W        W27686  23.996   4.395  12.344
59282W        W27687  19.984  11.790   4.892
59283W        W27688   0.423   0.633  11.885
59284W        W27689   7.798   1.004   3.780
59285W        W27690  31.509  32.459  12.687
59286W        W27691   5.238   7.118  12.615
59287W        W27692  28.522  28.730  11.667
59288W        W27693  23.262  28.533   4.332
59289W        W27694   3.829  26.087  12.661
59290W        W27695  14.848  21.683  14.282
59291W        W27696   0.418  42.571   2.137
59292W        W27697  20.419  39.270   3.847
59293W        W27698  24.210  13.956  11.999
59294W        W27699   9.663  42.803   0.130
59295W        W27700  27.874  25.563   2.456
59296W        W27701  27.996  20.951   0.822
59297W        W27702  15.234  44.089   2.288
59298W        W27703  17.588  20.294   0.840
59299W        W27704   1.173  12.399   3.730
59300W        W27705  32.173   8.281   3.784
59301W        W27706  12.155   2.285  11.278
59302W        W27707  13.623  35.305  14.831
59303W        W27708   7.218  30.373   0.151
59304W        W27709  11.904  23.177   3.531
59305W        W27710  31.476  29.453  10.604
59306W        W27711   1.871   9.741  14.725
59307W        W27712   4.848  24.622  13.533
59308W        W27713  20.147   3.381   2.627
59309W        W27714  43.374   2.410  13.012
59310W        W27715  30.701   3.951   2.194
59311W        W27716  15.995  20.195   2.605
59312W        W27717  11.895  17.760  14.715
59313W        W27718  20.955   9.144   5.040
59314W        W27719  38.323  42.399  14.590
59315W        W27720  44.820  20.053  13.792
59316W        W27721  36.358   7.409   1.205
59317W        W27722   6.003  27.200   3.884
59318W        W27723  29.926  38.863  11.562
59319W        W27724  14.348  12.389   1.452
59320W        W27725  37.686  44.915  13.032
59321W        W27726  19.704  20.738   2.191
59322W        W27727  26.615  10.036  12.115
59323W        W27728  26.584  13.140  12.656
59324W        W27729   5.282  30.385   1.830
59325W        W27730  19.668  10.023  14.791
59326W        W27731  27.642  23.804   2.177
59327W        W27732  28.254  29.864  11.078
59328W        W27733  17.298   8.416  10.739
59329W        W27734  28.442  43.370  12.490
59330W        W27735  39.466  32.730  10.617
59331W        W27736  13.893  43.948  10.279
59332W        W27737  39.887  19.456   1.198
59333W        W27738  21.644  20.558   2.125
59334W        W27739  10.115  43.684  14.954
59335W        W27740  12.576  33.784  11.578
59336W        W27741  12.724  33.122  14.844
59337W        W27742  33.152  26.450  10.268
59338W        W27743  40.566   0.205   1.206
59339W        W27744  13.685  28.592   3.582
59340W        W27745  27.303  31.555   1.625
59341W        W27746  35.367   1.637   1.250
59342W        W27747  25.953   0.635   2.436
59343W        W27748  28.240   5.844  12.705
59344W        W27749   5.929  40.834  13.849
59345W        W27750  19.564  11.615  13.327
59346W        W27751  21.817   1.933  12.105
59347W        W27752  35.837   9.700   2.256
59348W        W27753  12.358  16.385  10.286
59349W        W27754  38.354  21.844   1.217
59350W        W27755  39.495   7.868   2.325
59351W        W27756   0.971  33.399  12.512
59352W        W27757  16.293  35.579  14.839
59353W        W27758  16.541  21.681   2.143
59354W        W27759  14.020  16.307  13.539
59355W        W27760  28.384  32.157  11.326
59356W        W27761  42.400  24.275   1.609
59357W        W27762  16.599   1.678  12.644
59358W        W27763  34.735  40.931   3.857
59359W        W27764   9.621  41.550   2.146
59360W        W27765  25.558  12.710  10.974
59361W        W27766  12.807   1.801  14.751
59362W        W27767  30.091  34.564   0.384
59363W        W27768  31.793   9.447  14.847
59364W        W27769  27.086  15.552   3.632
59365W        W27770  42.494   8.753  12.653
59366W        W27771  13.560  41.926   3.693
59367W        W27772  20.729  24.111   9.940
59368W        W27773  13.879  22.180  14.271
59369W        W27774   6.830   4.737  10.144
59370W        W27775  32.189  14.561  12.540
59371W        W27776  35.832  20.226  14.748
59372W        W27777   0.880   8.982  13.819
59373W        W27778  24.169   3.940  14.309
59374W        W27779  16.601  43.041  12.581
59375W        W27780  18.499  20.111  13.797
59376W        W27781  44.127  17.032  13.378
59377W        W27782  31.732  39.007  14.494
59378W        W27783  36.167  35.553   3.695
59379W        W27784  31.114  23.298  12.158
59380W        W27785  14.158  37.456  11.545
59381W        W27786  39.997   6.973  13.887
59382W        W27787  42.207  38.473   3.257
59383W        W27788  28.853  16.110   9.954
59384W        W27789   3.697  36.079  10.182
59385W        W27790  23.521  16.297   3.952
59386W        W27791  19.519  38.378  14.796
59387W        W27792  38.390  21.317   0.380
59388W        W27793   7.754  25.667  10.650
59389W        W27794   0.481  34.603  14.316
59390W        W27795  19.218  44.820   0.560
59391W        W27796   5.842  22.748  12.988
59392W        W27797   6.047  41.238   4.139
59393W        W27798  10.957  26.647   0.914
59394W        W27799   8.726  18.804  14.432
59395W        W27800  26.456   6.624  10.234
59396W        W27801   5.763  42.963  10.562
59397W        W27802  18.987  10.761  12.874
59398W        W27803  33.461  16.125   0.295
59399W        W27804  20.865  19.945   2.254
59400W        W27805   2.416  24.144   3.765
59401W        W27806  21.668  41.985  12.014
59402W        W27807  28.178   0.385   2.920
59403W        W27808   8.142   8.915  13.890
59404W        W27809  22.294   5.300  14.334
59405W        W27810  26.941  11.866  10.823
59406W        W27811  20.561  33.118   4.038
59407W        W27812  14.761  26.954   1.870
59408W        W27813  11.370  40.325  12.925
59409W        W27814   8.761  43.691  11.480
59410W        W27815   0.985   4.298  11.716
59411W        W27816  15.701  39.487   3.345
59412W        W27817  38.446  20.987   2.639
59413W        W27818  43.748   8.655  14.420
59414W        W27819   5.915  19.189  11.197
59415W        W27820   4.273  32.840  10.498
59416W        W27821  32.562  22.689   2.132
59417W        W27822  36.434  30.492   4.256
59418W        W27823   3.759  27.737   3.705
59419W        W27824   0.395  21.973  13.551
59420W        W27825  12.726  13.687  14.078
59421W        W27826  23.715  36.765   2.760
59422W        W27827  42.181  29.540   1.745
59423W        W27828  27.350  30.899   4.940
59424W        W27829   6.767  30.955  13.397
59425W        W27830   5.195   6.162  13.002
59426W        W27831  10.127  19.780  13.130
59427W        W27832  44.506  21.908   4.576
59428W        W27833  44.046  15.194  12.131
59429W        W27834   5.665  14.887  13.884
59430W        W27835  10.457  40.628  10.330
59431W        W27836  37.817  31.031   4.331
59432W        W27837  30.438   3.881  12.924
59433W        W27838  12.222  43.696  11.608
59434W        W27839   2.925   7.596  11.989
59435W        W27840   8.806  18.077   4.565
59436W        W27841  41.467  20.411   2.307
59437W        W27842  24.639  22.110  11.257
59438W        W27843  11.284   3.447   0.318
59439W        W27844   7.740  16.727   1.640
59440W        W27845  36.611  23.068   1.964
59441W        W27846  13.814  33.376   4.119
59442W        W27847  22.689  15.007  14.783
59443W        W27848  23.619  24.740   0.933
59444W        W27849  25.274   1.020   3.724
59445W        W27850  24.176  26.420  13.853
59446W        W27851  18.559  20.287  11.008
59447W        W27852   6.949  13.374   1.422
59448W        W27853   7.981   0.434  12.159
59449W        W27854  36.837  28.075   1.268
59450W        W27855  15.082  17.670  13.432
59451W        W27856   8.586  29.573  14.253
59452W        W27857  17.290  39.255  13.352
59453W        W27858  33.313  24.356  11.977
59454W        W27859  40.554   7.346  12.602
59455W        W27860  10.405  31.025   4.883
59456W        W27861  29.547  37.060  11.004
59457W        W27862  14.222  31.614   1.482
59458W        W27863  22.557  32.377   5.186
59459W        W27864  26.489   0.082  13.317
59460W        W27865   0.537  25.085   4.319
59461W        W27866  16.789  27.501  12.848
59462W        W27867   2.839  15.558  13.539
59463W        W27868  35.274  20.957  14.848
59464W        W27869  41.552   6.076   9.999
59465W        W27870  24.901  11.315  13.963
59466W        W27871  43.277   4.924   0.912
59467W        W27872   0.246  18.069   0.945
59468W        W27873   6.340  27.930   3.707
59469W        W27874   6.655  16.891   0.798
59470W        W27875  28.436  39.030  13.444
59471W        W27876  26.091  31.206   2.325
59472W        W27877  10.747   0.843   3.259
59473W        W27878  24.763  35.478  11.977
59474W        W27879  29.736   8.424   2.709
59475W        W27880  14.280  24.629  13.338
59476W        W27881  41.768  41.068   1.250
59477W        W27882   6.626  24.594   4.381
59478W        W27883  35.484   1.727  12.467
59479W        W27884   6.611  18.786   4.243
59480W        W27885  41.001  43.304   1.256
59481W        W27886   1.189   1.804  13.846
59482W        W27887  39.657  24.061   4.404
59483W        W27888   1.953  43.318   0.499
59484W        W27889  27.263   0.947  12.002
59485W        W27890  21.159  43.633  11.481
59486W        W27891  40.705  11.123   3.093
59487W        W27892  10.361  39.801  13.614
59488W        W27893  21.498   2.513  14.738
59489W        W27894  20.074   3.476   0.355
59490W        W27895  19.912   4.159  13.002
59491W        W27896  11.516  42.794  11.043
59492W        W27897  43.945  12.140   3.257
59493W        W27898  43.530  34.872   1.867
59494W        W27899   8.085   0.744   0.879
59495W        W27900  20.577  27.780  10.649
59496W        W27901   1.980  25.707  10.677
59497W        W27902  38.220  35.277   1.753
59498W        W27903  37.889  25.692  12.407
59499W        W27904   0.387  19.616  14.130
59500W        W27905   0.448  31.380  14.324
59501W        W27906  40.874  20.691   3.392
59502W        W27907  40.796   3.405  11.141
59503W        W27908   2.669  21.233  13.533
59504W        W27909  28.296   7.444  11.287
59505W        W27910  32.184  30.583   3.153
59506W        W27911  21.774  10.295  12.863
59507W        W27912  27.160   2.883   1.393
59508W        W27913  29.486  28.066   1.005
59509W        W27914  29.930   2.009  14.900
59510W        W27915  22.682  17.668   4.669
59511W        W27916   6.265  10.220  11.225
59512W        W27917   7.242  38.754  12.039
59513W        W27918  39.513  10.599  13.625
59514W        W27919   8.695  20.545   2.365
59515W        W27920  31.700  22.471  12.059
59516W        W27921  32.348  27.392  10.466
59517W        W27922  27.159  31.220  13.499
59518W        W27923   3.758  18.673   1.378
59519W        W27924   7.454  35.987  12.683
59520W        W27925   9.347  33.536   2.301
59521W        W27926  18.818  24.079  11.181
59522W        W27927   8.720   3.485  14.986
59523W        W27928  27.101  25.448   1.939
59524W        W27929  31.310  25.703   4.381
59525W        W27930  32.842  35.914   4.654
59526W        W27931   3.857  16.671   4.193
59527W        W27932  15.061   7.309  12.100
59528W        W27933   4.445  19.568  12.678
59529W        W27934  15.670  13.574   1.783
59530W        W27935  31.597  12.330   4.078
59531W        W27936   5.058  41.229  11.963
59532W        W27937   4.812  14.518   0.333
59533W        W27938  42.831  29.900   4.121
59534W        W27939  21.046  22.735  14.762
59535W        W27940  13.228  28.140   4.348
59536W        W27941  37.868  12.304  14.408
59537W        W27942  16.735   7.173  13.097
59538W        W27943  18.206   5.180   3.244
59539W        W27944  31.390  10.817   2.599
59540W        W27945  20.390  25.878   3.738
59541W        W27946  14.905   3.349   3.038
59542W        W27947   8.520  33.983   2.349
59543W        W27948  29.269  39.865  14.149
59544W        W27949  31.616  43.346  13.414
59545W        W27950   3.247  41.214  14.796
59546W        W27951   4.681  19.190  14.444
59547W        W27952  32.619  26.388   3.645
59548W        W27953   6.627  44.502   2.759
59549W        W27954   8.621   7.751   3.677
59550W        W27955  16.138   1.432   3.509
59551W        W27956  33.044  33.330   2.359
59552W        W27957  42.352  16.838   4.173
59553W        W27958  12.910  13.551   2.332
59554W        W27959  18.312   2.909   1.214
59555W        W27960  13.360  18.209  13.607
59556W        W27961  11.823  44.149   0.721
59557W        W27962  22.762  26.381   4.921
59558W        W27963   1.861  16.854  11.965
59559W        W27964  40.736  27.188  12.979
59560W        W27965  16.530  29.546   1.256
59561W        W27966  29.422  37.566   4.100
59562W        W27967  23.509  20.776  14.534
59563W        W27968  15.770  29.637   3.944
59564W        W27969  10.902   4.731   3.220
59565W        W27970   5.709  41.373   0.727
59566W        W27971  43.902   0.244   3.039
59567W        W27972  29.595  30.919  12.548
59568W        W27973  43.314  31.910   2.275
59569W        W27974  26.784  10.166  11.224
59570W        W27975  11.493  38.003  11.244
59571W        W27976  15.978   2.658   1.140
59572W        W27977  22.038  42.306  11.650
59573W        W27978  35.071  10.781  14.311
59574W        W27979  10.338   3.442  11.040
59575W        W27980  13.990  38.251   4.156
59576W        W27981  20.901  10.071   3.427
59577W        W27982   6.826  23.293  11.629
59578W        W27983  35.949  13.298   4.135
59579W        W27984  12.263  29.608  14.069
59580W        W27985  22.262  26.485   0.328
59581W        W27986  17.615  35.966  10.800
59582W        W27987   6.484  30.506  13.877
59583W        W27988  10.160  14.307  14.480
59584W        W27989  13.818  22.095  11.952
59585W        W27990  28.884  20.703  14.392
59586W        W27991  21.526  22.379  12.548
59587W        W27992   7.033  38.390   3.666
59588W        W27993  31.230   2.320   0.126
59589W        W27994  16.884  34.702  10.380
59590W        W27995  40.953   2.688  10.738
59591W        W27996  41.472  19.636  14.777
59592W        W27997  27.505   3.249   0.311
59593W        W27998  34.543   5.320  11.141
59594W        W27999  19.707  16.804  13.261
59595W        W28000   7.355  43.540  11.728
59596W        W28001   4.018  20.995  10.670
59597W        W28002  39.859  29.452  11.689
59598W        W28003  36.352  39.862  13.530
59599W        W28004   4.833   3.399   2.279
59600W        W28005  41.447  11.781   2.798
59601W        W28006   0.550  30.107   0.726
59602W        W28007  41.751  16.577   2.723
59603W        W28008   2.947  25.849   2.967
59604W        W28009  25.181  10.409   4.235
59605W        W28010  12.728  29.342   0.776
59606W        W28011  23.480  44.306   3.717
59607W        W28012  12.440  15.324  13.867
59608W        W28013  36.191  41.909   2.460
59609W        W28014  14.216   6.350   4.812
59610W        W28015   7.391  37.912  11.070
59611W        W28016  13.326   3.436   9.905
59612W        W28017  38.623  16.955   2.637
59613W        W28018  10.071   4.435  13.939
59614W        W28019  19.643  23.239   0.774
59615W        W28020   0.753  37.059  10.836
59616W        W28021   1.074  37.464   4.132
59617W        W28022  13.730  13.581   3.751
59618W        W28023  32.160   0.441  11.190
59619W        W28024  35.972  24.623   3.336
59620W        W28025  10.399  36.358  14.475
59621W        W28026  44.515  12.820  11.601
59622W        W28027  12.213  23.986   4.587
59623W        W28028  21.305   1.987   3.174
59624W        W28029  32.189  10.604   1.304
59625W        W28030   5.425  27.964  12.463
59626W        W28031  40.521   0.994  11.207
59627W        W28032  34.651  14.179   0.287
59628W        W28033   1.702  23.122  10.677
59629W        W28034  42.804  16.678  11.616
59630W        W28035  28.912  35.896   1.912
59631W        W28036  42.231  17.029  14.400
59632W        W28037   4.173  20.333   0.337
59633W        W28038  25.531   7.484   3.634
59634W        W28039  22.394  19.277   1.464
59635W        W28040  22.058  27.091  11.104
59636W        W28041  32.101  34.525  13.377
59637W        W28042  19.725  42.032  14.592
59638W        W28043  42.378  31.609   4.664
59639W        W28044   6.966   7.195  13.876
59640W        W28045  29.851  21.642  11.669
59641W        W28046  15.838  15.074  12.742
59642W        W28047  27.273  36.192  11.156
59643W        W28048  16.277  20.623  14.973
59644W        W28049  41.901   6.865   4.533
59645W        W28050  25.712   6.855   0.522
59646W        W28051  39.848  10.145   0.374
59647W        W28052   0.346  22.038   1.776
59648W        W28053   8.483  35.839  10.851
59649W        W28054  44.520  42.391   1.714
59650W        W28055  10.709  15.497  11.263
59651W        W28056  34.016  12.098  10.426
59652W        W28057  33.962  25.653   0.361
59653W        W28058   1.930  41.295   3.221
59654W        W28059   5.877  19.224  12.071
59655W        W28060  26.904  25.076  11.926
59656W        W28061  15.758  20.302  10.967
59657W        W28062  32.655  28.021   0.860
59658W        W28063  36.359  34.862   1.722
59659W        W28064  17.234  32.063  14.932
59660W        W28065   0.170  20.834  10.644
59661W        W28066   0.868  44.748   0.990
59662W        W28067  39.045  24.559   1.686
59663W        W28068  29.025  21.101   3.536
59664W        W28069  22.802  30.032  13.507
59665W        W28070  25.551  27.627  10.797
59666W        W28071   8.959   8.738   2.301
59667W        W28072  43.879  21.989   1.166
59668W        W28073  21.559  36.475  11.424
59669W        W28074  29.473   0.912   1.304
59670W        W28075  16.505  16.334   3.618
59671W        W28076  41.607  15.849  11.208
59672W        W28077   2.246  35.589  14.984
59673W        W28078  12.098  43.969  13.964
59674W        W28079  44.217   3.804   0.213
59675W        W28080  15.256  11.666   4.825
59676W        W28081  21.243  37.840  13.874
59677W        W28082   8.154  32.201   3.323
59678W        W28083  28.462   4.699  11.553
59679W        W28084  21.399  37.908   4.926
59680W        W28085  14.755   6.671  14.082
59681W        W28086  11.234  37.422   1.835
59682W        W28087  19.707  41.676   4.913
59683W        W28088  39.492  28.218  12.874
59684W        W28089   8.887  17.241   4.130
59685W        W28090  10.744  34.510   2.511
59686W        W28091  29.616  18.788   1.894
59687W        W28092  40.347   6.135   4.648
59688W        W28093  41.597  20.659   2.754
59689W        W28094  29.450  35.889  11.785
59690W        W28095   1.266  32.017  14.057
59691W        W28096  44.572  40.260   5.197
59692W        W28097  31.190  44.387  11.200
59693W        W28098  36.200  18.468  12.534
59694W        W28099  42.021  32.403  14.411
59695W        W28100  29.670  24.999  11.059
59696W        W28101  28.901  34.818  13.526
59697W        W28102  24.756  33.425   1.270
59698W        W28103   5.795  11.783  13.650
59699W        W28104  43.867  41.599   2.826
59700W        W28105  11.580  19.626   4.484
59701W        W28106   2.538   5.215   1.415
59702W        W28107  40.518  29.676  11.567
59703W        W28108  26.773  25.035  12.918
59704W        W28109   1.899  43.785  12.074
59705W        W28110  24.090  18.719   3.293
59706W        W28111  21.706  17.100  12.430
59707W        W28112   2.855  36.895   4.652
59708W        W28113   4.125  20.567  14.892
59709W        W28114   2.473  22.108  14.295
59710W        W28115  24.538   9.133   0.965
59711W        W28116  36.270   6.426   3.691
59712W        W28117  10.065   8.766   1.159
59713W        W28118  23.467  43.031  12.431
59714W        W28119  44.589  43.868   0.344
59715W        W28120  34.357  27.629  12.599
59716W        W28121  22.426  26.506   4.537
59717W        W28122  10.234  44.202   2.716
59718W        W28123  18.139  33.212  11.459
59719W        W28124  44.782  25.507   1.447
59720W        W28125  32.366  19.353   3.319
59721W        W28126  22.634  34.680  12.511
59722W        W28127  35.895  41.466  11.648
59723W        W28128  42.657  31.924  12.519
59724W        W28129  11.413   6.365   0.922
59725W        W28130   7.272   2.247   2.651
59726W        W28131  41.010  39.291   2.245
59727W        W28132  33.930  12.345  14.865
59728W        W28133  19.230  42.513  12.571
59729W        W28134   9.753  15.577  11.423
59730W        W28135   6.196  30.286  12.451
59731W        W28136  39.511  27.435   2.150
59732W        W28137  30.358  14.187  11.513
59733W        W28138  40.508   6.209   0.778
59734W        W28139  12.446  26.938   4.341
59735W        W28140  20.457  23.983  10.357
59736W        W28141  25.090  21.183  12.546
59737W        W28142   8.271  28.781  14.456
59738W        W28143  32.327  10.826   1.755
59739W        W28144   2.068  43.287  11.586
59740W        W28145  26.552   4.784   3.688
59741W        W28146  30.545  44.668  11.928
59742W        W28147  29.691  41.591   2.400
59743W        W28148  27.282  23.385  11.170
59744W        W28149  41.595  34.658  11.592
59745W        W28150  18.216  37.223   4.282
59746W        W28151  35.066  32.593  14.299
59747W        W28152   4.404  18.995   3.940
59748W        W28153  22.242  25.588  10.980
59749W        W28154  13.804  21.227   3.402
59750W        W28155  19.314   9.223  10.189
59751W        W28156  40.461  13.836  12.067
59752W        W28157  21.091   3.542   5.137
59753W        W28158  31.048  14.173   0.936
59754W        W28159  24.387   0.413  13.094
59755W        W28160  21.607  21.782   2.827
59756W        W28161  12.250  10.790  11.095
59757W        W28162  13.940  37.431  12.019
59758W        W28163  42.059  17.163  11.512
59759W        W28164  40.561  28.838  12.583
59760W        W28165  32.647  24.761   0.317
59761W        W28166  35.289   3.147  14.758
59762W        W28167   6.950  35.591   1.174
59763W        W28168  28.590  12.153  14.327
59764W        W28169  13.312  39.077   1.776
59765W        W28170  11.365   8.676   4.293
59766W        W28171   0.706  34.282  11.517
59767W        W28172   2.880  21.043   0.208
59768W        W28173  18.162  33.109   4.556
59769W        W28174   1.831  39.008   0.695
59770W        W28175  41.672   3.951  13.159
59771W        W28176  20.050  25.585  14.907
59772W        W28177  39.292  42.383   0.419
59773W        W28178  18.831  10.203  13.517
59774W        W28179  32.904   3.789   2.905
59775W        W28180   7.659   7.267  12.081
59776W        W28181  13.722   4.871   3.798
59777W        W28182  20.470   9.226   3.338
59778W        W28183  38.321  37.389  12.299
59779W        W28184  11.124  16.154   2.657
59780W        W28185  19.776  12.328   3.130
59781W        W28186  32.332   0.211   1.567
59782W        W28187   7.163  42.048  12.557
59783W        W28188  19.096   7.827   0.710
59784W        W28189  41.095  22.537  14.007
59785W        W28190  33.325  10.636   3.677
59786W        W28191  15.810  10.696  12.522
59787W        W28192  21.654  15.330  14.519
59788W        W28193   9.045  44.114  10.223
59789W        W28194  42.858  40.458   5.070
59790W        W28195   8.276  17.681  13.039
59791W        W28196  17.213  32.936  12.559
59792W        W28197  28.620  40.526  13.466
59793W        W28198  26.691  36.539   2.368
59794W        W28199  41.434  41.495  11.338
59795W        W28200  13.895   7.216  14.275
59796W        W28201  33.057  12.891   2.646
59797W        W28202  26.598  12.343  12.657
59798W        W28203   2.976   7.334  11.505
59799W        W28204  25.844   8.817  11.591
59800W        W28205   1.633  43.192   4.057
59801W        W28206  25.314   4.798  12.477
59802W        W28207  32.307   5.409   3.967
59803W        W28208  13.841   3.420  13.960
59804W        W28209  39.970  37.671   4.921
59805W        W28210   2.383  30.645   3.117
59806W        W28211  12.565  33.986   4.687
59807W        W28212  44.278  16.769  10.748
59808W        W28213  39.355   3.115   2.285
59809W        W28214  30.607  17.252   0.111
59810W        W28215  34.925  33.461   3.287
59811W        W28216  19.243  18.551   1.643
59812W        W28217  17.050  25.828  12.315
59813W        W28218  13.368  39.592   2.734
59814W        W28219   0.804  22.585   2.636
59815W        W28220  22.965  28.223  13.584
59816W        W28221  42.666  39.363   1.253
59817W        W28222   2.855  39.377   3.228
59818W        W28223   6.753   1.558   0.289
59819W        W28224   9.651   4.279  13.071
59820W        W28225  18.736  22.658  11.109
59821W        W28226  19.767  11.745   1.942
59822W        W28227  29.670  31.055  13.473
59823W        W28228  43.084  29.571  10.389
59824W        W28229  36.488  28.900   4.521
59825W        W28230  24.010   0.303  14.973
59826W        W28231   7.177   0.509  11.112
59827W        W28232  31.059  19.585  12.083
59828W        W28233  35.855  22.185  10.537
59829W        W28234  24.670  37.900  11.542
59830W        W28235   9.565  16.237   3.595
59831W        W28236   5.683  27.077   4.314
59832W        W28237  25.958   6.976   1.366
59833W        W28238   2.281  43.147  12.454
59834W        W28239  43.464  28.180   4.699
59835W        W28240   2.875  27.658   2.464
59836W        W28241  25.186   7.450  11.190
59837W        W28242  38.923  32.932   2.718
59838W        W28243   5.335   2.537   4.870
59839W        W28244  30.631  17.638  13.399
59840W        W28245  33.115   9.560   3.772
59841W        W28246   6.016  11.191   0.319
59842W        W28247  27.283  20.141  12.350
59843W        W28248  27.145   9.232   2.924
59844W        W28249  26.117  22.061  11.149
59845W        W28250  40.196   4.453   1.117
59846W        W28251  30.302  41.052   5.329
59847W        W28252   2.739  23.037  10.761
59848W        W28253  13.500  13.802   0.369
59849W        W28254  29.280  14.103  11.527
59850W        W28255  38.793  15.068  13.451
59851W        W28256  36.387  19.176   3.643
59852W        W28257  18.076  40.035   3.431
59853W        W28258  42.789  31.853  14.702
59854W        W28259  19.158  24.594  13.497
59855W        W28260  28.415   3.326  14.385
59856W        W28261  19.062   4.935   1.505
59857W        W28262   3.949  43.299   3.169
59858W        W28263  28.072   3.019   2.366
59859W        W28264  42.772   0.638  13.421
59860W        W28265  25.965  17.277   1.324
59861W        W28266  27.019  16.488   5.113
59862W        W28267  41.123  23.411  12.093
59863W        W28268  34.188  42.789   2.723
59864W        W28269  34.144   3.434  14.535
59865W        W28270  24.649   7.614   0.793
59866W        W28271   9.192  35.625   0.937
59867W        W28272   0.708  21.263   5.099
59868W        W28273  35.257  18.127  11.655
59869W        W28274  33.209   0.495  12.612
59870W        W28275  22.286  15.301   2.157
59871W        W28276   6.376  14.763   1.180
59872W        W28277  27.942  36.418  11.659
59873W        W28278  38.065  44.039  14.873
59874W        W28279   7.018  41.737  11.628
59875W        W28280   6.620   9.109  12.051
59876W        W28281  24.275  22.987  12.900
59877W        W28282  17.602   7.913   1.740
59878W        W28283  20.940  31.388   1.094
59879W        W28284  26.345   5.403   0.991
59880W        W28285  35.956   6.067   3.043
59881W        W28286  42.887  11.746   1.241
59882W        W28287  22.342  37.467  10.698
59883W        W28288  14.599  13.184   1.301
59884W        W28289   0.156  17.058  11.735
59885W        W28290  38.996  18.338   3.958
59886W        W28291  15.327   3.388  12.975
59887W        W28292  30.666  24.393   2.228
59888W        W28293  22.330  21.007   4.303
59889W        W28294  32.545  38.806   4.114
59890W        W28295  41.262  28.274   0.435
59891W        W28296  24.126  20.147  14.547
59892W        W28297  11.197  14.269   3.756
59893W        W28298  16.535  14.583   4.623
59894W        W28299  14.819  36.363   2.511
59895W        W28300  39.368  11.726  12.427
59896W        W28301  29.651   2.868   3.680
59897W        W28302  33.071  42.001   3.106
59898W        W28303  18.080  43.423  13.837
59899W        W28304   7.034  34.499  13.460
59900W        W28305  20.191  23.532   3.451
59901W        W28306  18.678   2.304  11.469
59902W        W28307  32.191  31.087   0.528
59903W        W28308  25.540  27.413  13.450
59904W        W28309  34.504  14.248   4.969
59905W        W28310   3.465  33.921   4.035
59906W        W28311  11.588  18.526  11.002
59907W        W28312  31.293   7.825  10.683
59908W        W28313  30.966   0.858   2.186
59909W        W28314  16.236  35.858   3.735
59910W        W28315  37.890  18.091   2.835
59911W        W28316  36.778  20.247  13.053
59912W        W28317  25.546  25.287   3.821
59913W        W28318  36.458  23.568  11.409
59914W        W28319   3.864   3.868   1.586
59915W        W28320  40.780   2.203   0.342
59916W        W28321  37.442  21.801   0.713
59917W        W28322  10.867  13.675   4.829
59918W        W28323  17.869   2.847   3.599
59919W        W28324  16.597  13.322   4.856
59920W        W28325  43.429  38.000  14.459
59921W        W28326   3.294  12.190  12.005
59922W        W28327  20.303  31.081   0.264
59923W        W28328  13.557  39.528   0.932
59924W        W28329   4.623  16.152  12.801
59925W        W28330  16.677  29.683  14.339
59926W        W28331  20.632  13.280   4.409
59927W        W28332  14.583  39.987   1.930
59928W        W28333  28.527   5.210   3.096
59929W        W28334  19.625   3.683  13.314
59930W        W28335  20.706  30.641   4.173
59931W        W28336  13.220  26.621   5.014
59932W        W28337   6.989  12.326  11.242
59933W        W28338  33.426  42.024  11.055
59934W        W28339  14.662  29.260   4.217
59935W        W28340  34.843  22.531  12.408
59936W        W28341  28.703  13.833   1.973
59937W        W28342  25.703   4.269  13.347
59938W        W28343   1.884  33.620  13.279
59939W        W28344  42.788  19.818   2.194
59940W        W28345  37.479  28.891   1.252
59941W        W28346  17.013  43.409   3.302
59942W        W28347   4.872  43.914   4.506
59943W        W28348  25.504  44.570   2.015
59944W        W28349  39.891   8.423  13.031
59945W        W28350  25.265  29.172  14.117
59946W        W28351  21.746  33.490   1.064
59947W        W28352  33.092  37.110   3.625
59948W        W28353   5.135  18.244  12.305
59949W        W28354  30.086  37.471  11.519
59950W        W28355  26.959  21.579   2.306
59951W        W28356   1.343  39.644  12.961
59952W        W28357  12.125  41.515  12.657
59953W        W28358  36.955  36.178   0.497
59954W        W28359  44.343  15.264   2.249
59955W        W28360  41.833  29.888   3.416
59956W        W28361  23.760  14.192   5.129
59957W        W28362  15.206   4.393  14.514
59958W        W28363  10.223   5.369  10.933
59959W        W28364  12.367  33.414   4.430
59960W        W28365  39.586  44.707  11.898
59961W        W28366  19.845  25.940   0.294
59962W        W28367  19.483   0.087   2.058
59963W        W28368  29.150   1.964   1.753
59964W        W28369  17.988  37.206  14.868
59965W        W28370  36.568  42.741   1.838
59966W        W28371   8.150  35.447  14.783
59967W        W28372  41.362  20.436   3.225
59968W        W28373   6.712  14.573   1.945
59969W        W28374  29.484   4.464   2.351
59970W        W28375  42.886  27.040  12.601
59971W        W28376   3.300  21.584  12.136
59972W        W28377   0.269  27.523  13.431
59973W        W28378  15.790  20.741  12.705
59974W        W28379  25.244   1.973   4.239
59975W        W28380  30.045  30.466   1.441
59976W        W28381  11.797   6.219  13.955
59977W        W28382  34.630  36.465  12.738
59978W        W28383  23.347  18.538   4.959
59979W        W28384  40.431  17.632  12.102
59980W        W28385  19.055   5.808   0.406
59981W        W28386  11.804   7.939   4.368
59982W        W28387  34.910  43.104  12.027
59983W        W28388  29.968  19.319  14.467
59984W        W28389  28.948  28.243   5.003
59985W        W28390  30.386   0.368   0.434
59986W        W28391  23.194  19.239  12.352
59987W        W28392   1.337  35.926   2.628
59988W        W28393  33.187  26.507   3.710
59989W        W28394   6.827  34.498  10.740
59990W        W28395  38.547  30.175   2.447
59991W        W28396  10.511  31.245  11.073
59992W        W28397  19.374  15.734   4.926
59993W        W28398  32.541  41.368   1.273
59994W        W28399  10.866  32.927  14.034
59995W        W28400  34.752  11.519  10.379
59996W        W28401  23.526  40.491   0.851
59997W        W28402  28.611  28.106   1.356
59998W        W28403   9.441  12.083  11.622
59999W        W28404  18.757   9.138   1.215
60000W        W28405  34.331  38.275   4.678
60001W        W28406  19.077  11.926   1.685
60002W        W28407  19.699   8.311  13.271
60003W        W28408  33.917   6.830  11.704
60004W        W28409  22.289  24.052  11.580
60005W        W28410  20.321  12.360  11.916
60006W        W28411   7.144  36.371  12.520
60007W        W28412  21.735  43.427  12.404
60008W        W28413   7.793  31.758  14.094
60009W        W28414  26.538  21.232  13.709
60010W        W28415  29.110   5.810  13.329
60011W        W28416  15.539  42.772   2.735
60012W        W28417  28.090  43.117   4.661
60013W        W28418  23.575  38.602  10.744
60014W        W28419  13.816  15.605  14.375
60015W        W28420  26.565  12.495  10.282
60016W        W28421  13.700  28.789   3.099
60017W        W28422  27.026  22.989  11.396
60018W        W28423  15.774  38.581  14.262
60019W        W28424  15.967  26.367  10.606
60020W        W28425  36.726  30.453   2.665
60021W        W28426  34.275  33.543  11.045
60022W        W28427  25.765   3.264   3.628
60023W        W28428   8.145  22.973  13.096
60024W        W28429   7.549   6.642  11.084
60025W        W28430  15.182  39.495  13.896
60026W        W28431   4.342  32.970   3.282
60027W        W28432  42.380  15.773   2.046
60028W        W28433  25.098  34.422  12.556
60029W        W28434  18.117  17.059   1.203
60030W        W28435  13.806   9.852   2.729
60031W        W28436   9.885  19.853   2.689
60032W        W28437   1.142  42.405  10.457
60033W        W28438  34.596  29.170   4.131
60034W        W28439   9.846   8.616   1.922
60035W        W28440  27.891  36.399  13.862
60036W        W28441  11.355  37.302  12.065
60037W        W28442  19.741   6.063  10.602
60038W        W28443   8.861  37.397   2.326
60039W        W28444  31.528  16.600  11.880
60040W        W28445   1.434  12.395  11.625
60041W        W28446  26.167  16.832  10.966
60042W        W28447  19.039  10.199   3.503
60043W        W28448  39.972   4.849  12.769
60044W        W28449  16.197  15.139   1.201
60045W        W28450  23.681  23.672   2.473
60046W        W28451  27.459  32.838   3.398
60047W        W28452   8.707  18.266   4.101
60048W        W28453  28.452   0.846  11.898
60049W        W28454  24.145   7.261   2.096
60050W        W28455  11.958  17.100   0.470
60051W        W28456  20.817  15.773   0.370
60052W        W28457  24.807  38.986   1.910
60053W        W28458  22.293  15.762   9.761
60054W        W28459  21.926  17.888   4.115
60055W        W28460   0.911  30.791   9.557
60056W        W28461  18.625  38.707   3.823
60057W        W28462  19.337  10.742  10.265
60058W        W28463   1.849  22.410   4.093
60059W        W28464  25.629  21.638  10.675
60060W        W28465  20.912  39.212  12.983
60061W        W28466  38.985  35.055  10.922
60062W        W28467  29.976   9.646   0.290
60063W        W28468  41.372   4.411  14.452
60064W        W28469  19.780  28.203  13.955
60065W        W28470  28.612   2.528  11.062
60066W        W28471  26.624   7.560  12.135
60067W        W28472  29.505  12.104  11.413
60068W        W28473   2.473  15.316   1.850
60069W        W28474  34.923  28.690  13.372
60070W        W28475   8.939  40.840   2.399
60071W        W28476   9.437  16.792  11.621
60072W        W28477  34.558  32.349   2.290
60073W        W28478  21.570  12.699   4.161
60074W        W28479  34.178  43.184   3.818
60075W        W28480  15.189  21.092   0.320
60076W        W28481  18.225   4.955   0.361
60077W        W28482  10.822  28.522  14.565
60078W        W28483   8.063   1.700   3.260
60079W        W28484  35.634  11.427  11.609
60080W        W28485  39.193  38.293  10.664
60081W        W28486  34.973  16.626   2.556
60082W        W28487   1.692  41.240   2.574
60083W        W28488   6.748  12.534  11.648
60084W        W28489  21.613  28.463   4.223
60085W        W28490  35.289   7.868  11.631
60086W        W28491  37.986  18.305   0.870
60087W        W28492   7.726   2.101   2.824
60088W        W28493  29.785   3.348   3.585
60089W        W28494  43.036  11.285   4.436
60090W        W28495  38.815   8.762   3.899
60091W        W28496   5.300  17.641  14.015
60092W        W28497  29.972  19.106  12.402
60093W        W28498  23.482  35.910   0.041
60094W        W28499  36.495  12.362  13.361
60095W        W28500  27.667   1.315   4.607
60096W        W28501   1.215  24.779  13.062
60097W        W28502  35.180  30.034  11.605
60098W        W28503  33.703   7.216   4.701
60099W        W28504  15.528  15.685   1.787
60100W        W28505  14.308  42.751  14.908
60101W        W28506  38.032  13.542   0.079
60102W        W28507   2.150  44.329   1.772
60103W        W28508  31.441  41.490  10.200
60104W        W28509  11.586  24.554  11.672
60105W        W28510  10.954  36.418  11.041
60106W        W28511  21.131  32.998  10.817
60107W        W28512  41.803  44.999  10.782
60108W        W28513  40.107   3.700   0.348
60109W        W28514   3.977  32.863   2.274
60110W        W28515  18.368  20.297  14.685
60111W        W28516  44.353  14.486   4.287
60112W        W28517  33.027  36.608  13.374
60113W        W28518  19.115  15.787  12.059
60114W        W28519  24.129   8.139  11.604
60115W        W28520  24.054   2.736  11.117
60116W        W28521  43.793   4.277  12.939
60117W        W28522  30.706  22.445   5.075
60118W        W28523   4.809  18.836   4.224
60119W        W28524   3.115   5.100  11.987
60120W        W28525   8.691  21.747  12.975
60121W        W28526  18.733  26.710   1.995
60122W        W28527  33.322   0.459   3.866
60123W        W28528  39.949  24.718  12.029
60124W        W28529  21.069  42.986   0.900
60125W        W28530  14.636  12.148  12.567
60126W        W28531  36.121  28.174   0.506
60127W        W28532   7.673  20.190  13.642
60128W        W28533  28.486  23.405  10.701
60129W        W28534  44.324  25.036   3.597
60130W        W28535  39.334  42.350   2.975
60131W        W28536  43.871  16.577   2.210
60132W        W28537  39.090  13.436   2.264
60133W        W28538   5.817  24.958   4.545
60134W        W28539  27.957  12.671  14.939
60135W        W28540   9.668  35.650   3.759
60136W        W28541  44.513  39.487  14.368
60137W        W28542  11.324  21.018   0.382
60138W        W28543  33.012  30.696  11.650
60139W        W28544  11.621  20.802   2.324
60140W        W28545  27.731  14.992  11.899
60141W        W28546  27.210  33.332  14.349
60142W        W28547  31.540  20.019   0.838
60143W        W28548  22.805  15.717   3.323
60144W        W28549  23.168  11.404  12.839
60145W        W28550   8.736  11.199  13.789
60146W        W28551  32.578  19.053   0.697
60147W        W28552  23.644  37.011  12.435
60148W        W28553  42.091  44.818   1.789
60149W        W28554   0.756  16.838   3.303
60150W        W28555  35.329   5.702  11.074
60151W        W28556   0.001  30.139   1.729
60152W        W28557   4.879  17.003   4.528
60153W        W28558  14.106   8.885  12.632
60154W        W28559  38.587  38.021   2.461
60155W        W28560  27.028  42.473  14.933
60156W        W28561   1.906  23.981   3.826
60157W        W28562  24.789  32.385   0.219
60158W        W28563  11.417   7.835  11.653
60159W        W28564   3.645  18.063   3.184
60160W        W28565  10.573  29.855   0.405
60161W        W28566   0.165   9.646   1.681
60162W        W28567  23.246   5.912   0.945
60163W        W28568  33.055  41.529   2.167
60164W        W28569  20.783  19.094  13.408
60165W        W28570  24.775  38.771   0.146
60166W        W28571  32.348  11.706   3.126
60167W        W28572  42.716   9.565  13.722
60168W        W28573  18.614  14.578  12.482
60169W        W28574  26.217  36.990  10.703
60170W        W28575  28.167   1.409   0.327
60171W        W28576  18.765  40.604   2.815
60172W        W28577   9.355  12.581  11.570
60173W        W28578  26.090  36.518  12.704
60174W        W28579  35.424  37.863  11.746
60175W        W28580  17.674  38.289  13.202
60176W        W28581  13.334   9.768   0.310
60177W        W28582  31.485  17.801   0.390
60178W        W28583  29.535  19.741   3.706
60179W        W28584  20.240  22.072  12.143
60180W        W28585  10.730  15.738   3.762
60181W        W28586  21.603  24.420  14.943
60182W        W28587  20.590  44.243   4.079
60183W        W28588  15.917  10.903  11.181
60184W        W28589  12.888  33.921  12.185
60185W        W28590  18.870  21.395  13.979
60186W        W28591  15.182  23.792  12.594
60187W        W28592  18.074  22.109   0.732
60188W        W28593  18.107   2.403  12.989
60189W        W28594  20.709  38.036  13.906
60190W        W28595  14.666   4.736   4.614
60191W        W28596  38.994   3.789  10.791
60192W        W28597  37.690  30.170  10.476
60193W        W28598  12.918  40.759   1.804
60194W        W28599   8.714   7.453   2.068
60195W        W28600  17.469  31.839  13.663
60196W        W28601  40.088  19.105  12.420
60197W        W28602  10.303  13.504  14.943
60198W        W28603  31.871  15.131   4.063
60199W        W28604  19.247   4.372   2.985
60200W        W28605  14.614   3.844  14.939
60201W        W28606  20.794  11.498  14.821
60202W        W28607  43.287   0.240   0.477
60203W        W28608   2.160  15.183  11.996
60204W        W28609   1.329  30.639  12.540
60205W        W28610  15.530  25.046   2.826
60206W        W28611  41.169   5.683   2.720
60207W        W28612  25.151  24.992   4.143
60208W        W28613   5.627  43.310  13.583
60209W        W28614   7.381  38.918  13.556
60210W        W28615   4.666  14.174  14.432
60211W        W28616  21.228   3.741   0.437
60212W        W28617  42.822  25.880  14.248
60213W        W28618  44.568  20.133  12.027
60214W        W28619  33.096  38.601  12.519
60215W        W28620  17.397  30.972  10.087
60216W        W28621  15.751  43.981   2.341
60217W        W28622  32.095  13.832   3.184
60218W        W28623  21.808  44.721  12.301
60219W        W28624  39.346  44.010   1.615
60220W        W28625  23.947  17.971  13.598
60221W        W28626  20.028  34.938   3.508
60222W        W28627  31.436  23.622   1.190
60223W        W28628  10.445   0.350   3.170
60224W        W28629  16.260  26.232  11.007
60225W        W28630  12.840  20.946   4.300
60226W        W28631   8.814   6.171  13.999
60227W        W28632  44.559   7.027  14.804
60228W        W28633  33.979  11.852  12.961
60229W        W28634  23.728  14.269   4.064
60230W        W28635  32.951  20.827  10.676
60231W        W28636  30.349  40.842   1.445
60232W        W28637   7.812  10.104   3.183
60233W        W28638  24.520  42.345   2.462
60234W        W28639  30.107  34.049   0.360
60235W        W28640  40.369  25.246   4.157
60236W        W28641  34.516  16.519   3.816
60237W        W28642  14.019   4.301   4.207
60238W        W28643  17.459  33.349  11.677
60239W        W28644  15.342  44.812  14.453
60240W        W28645   3.331   9.904  14.520
60241W        W28646  34.537  29.588  13.557
60242W        W28647  37.469  11.141   1.250
60243W        W28648  40.103  38.753   3.132
60244W        W28649  16.549   7.283  11.540
60245W        W28650  10.187  44.056   4.200
60246W        W28651  34.669   7.252   3.516
60247W        W28652   4.901  18.429  13.472
60248W        W28653   2.295  38.825  11.939
60249W        W28654  10.192  25.040   2.703
60250W        W28655  17.693   4.786   4.656
60251W        W28656  20.712  11.817   0.782
60252W        W28657  41.772  32.877  13.460
60253W        W28658  28.691   1.969  13.079
60254W        W28659  23.794  29.904   2.667
60255W        W28660  42.722  29.472   2.619
60256W        W28661   4.627  20.587   0.219
60257W        W28662   0.413  28.136   2.214
60258W        W28663  32.397  26.900   4.532
60259W        W28664  36.463  30.092   3.945
60260W        W28665  38.911  23.742  14.945
60261W        W28666  25.447  31.210  14.419
60262W        W28667  19.284  19.115  14.358
60263W        W28668  37.024  21.588   4.569
60264W        W28669  31.082   5.426  13.061
60265W        W28670  28.806   0.958   1.854
60266W        W28671  34.838   3.288  11.136
60267W        W28672   7.885   8.282   1.073
60268W        W28673  21.959   9.115   1.027
60269W        W28674  11.653  19.273   3.370
60270W        W28675   4.342   0.980   3.126
60271W        W28676  33.529  33.921   3.548
60272W        W28677  11.676  12.322   0.309
60273W        W28678  41.368  42.878   0.587
60274W        W28679   7.333  15.719  13.067
60275W        W28680  24.145   4.446  14.322
60276W        W28681  40.768   0.249  12.040
60277W        W28682   2.862   7.859  11.560
60278W        W28683  28.865  13.657   4.292
60279W        W28684  40.809  28.951  14.640
60280W        W28685  38.108  40.580  11.526
60281W        W28686  36.627  11.085   1.685
60282W        W28687  17.557   4.672  11.055
60283W        W28688  40.273  35.973   3.624
60284W        W28689  34.415   7.975  13.413
60285W        W28690  12.428  22.036   1.266
60286W        W28691   0.292  35.846   1.923
60287W        W28692  37.437   7.783  11.363
60288W        W28693   7.896  43.494  11.644
60289W        W28694  27.986  16.985   1.285
60290W        W28695   3.861  34.046  11.194
60291W        W28696  22.177  30.250  13.928
60292W        W28697  25.229  38.488  11.588
60293W        W28698  17.658  42.502   1.918
60294W        W28699  38.611  28.489   0.975
60295W        W28700  41.911  24.922  14.486
60296W        W28701  18.301  15.722  11.259
60297W        W28702  28.660  11.374  12.375
60298W        W28703  29.171   3.314  14.810
60299W        W28704  44.727  36.531   2.358
60300W        W28705   7.713  27.004   1.336
60301W        W28706  39.352   4.639  10.988
60302W        W28707   1.255  15.321   2.714
60303W        W28708  14.070  12.095  11.559
60304W        W28709   5.580  43.408  11.668
60305W        W28710   0.439   4.436   1.296
60306W        W28711  17.579  16.778  12.432
60307W        W28712   1.831  12.609   3.235
60308W        W28713  36.596  11.117   4.785
60309W        W28714   7.178  24.204   2.828
60310W        W28715  13.733   2.901  10.711
60311W        W28716   9.510  37.999  13.320
60312W        W28717  42.221  37.565  12.484
60313W        W28718  34.503  26.234   4.350
60314W        W28719  25.220  37.812  10.683
60315W        W28720   3.947  28.591   4.152
60316W        W28721  36.623  25.196   1.433
60317W        W28722  40.183  42.424  14.347
60318W        W28723  17.762  20.214   2.235
60319W        W28724  10.884  44.990   4.983
60320W        W28725  24.214  31.265  11.952
60321W        W28726   0.454  38.675   1.186
60322W        W28727   0.998  13.961  11.615
60323W        W28728  15.271  15.690  12.350
60324W        W28729   8.891   6.659  11.728
60325W        W28730  33.445   2.731  12.394
60326W        W28731  28.521  25.178  14.108
60327W        W28732  22.176  19.179  14.485
60328W        W28733  37.409  11.153   2.349
60329W        W28734  38.480  27.239  13.028
60330W        W28735  20.107  29.784  14.930
60331W        W28736  44.911  26.200   4.050
60332W        W28737  35.975  33.097  11.446
60333W        W28738   2.825  41.320  13.640
60334W        W28739   5.818   0.468   1.438
60335W        W28740  18.410  21.936  11.512
60336W        W28741  16.058  32.992  14.869
60337W        W28742   7.961  23.693  10.462
60338W        W28743  30.836  39.847   5.425
60339W        W28744  36.392  15.429  13.081
60340W        W28745  39.776  15.901   1.856
60341W        W28746  30.660  41.461   2.818
60342W        W28747  25.281  18.591   1.984
60343W        W28748  27.493  23.786  10.747
60344W        W28749  37.413   0.300  14.685
60345W        W28750  11.563  24.946  11.239
60346W        W28751  44.421  29.951   2.806
60347W        W28752  17.799  31.970   1.858
60348W        W28753  11.954  12.616  14.948
60349W        W28754  31.883  12.852   4.145
60350W        W28755  42.996  20.714   1.670
60351W        W28756  29.107  20.105   3.666
60352W        W28757  31.061  21.019  12.487
60353W        W28758   6.107  12.691  11.197
60354W        W28759  41.482  19.601  13.753
60355W        W28760  15.290   6.264  14.574
60356W        W28761  35.974  34.046   4.052
60357W        W28762  43.441  28.424  14.221
60358W        W28763  35.131  33.297  14.993
60359W        W28764  32.908   9.361  14.408
60360W        W28765  20.772  37.927   3.641
60361W        W28766  34.995   1.762   0.911
60362W        W28767  32.963  23.508  12.864
60363W        W28768   2.796  38.105   4.898
60364W        W28769  44.552  37.893  11.537
60365W        W28770  33.167   9.772  10.953
60366W        W28771  31.916  16.687  12.957
60367W        W28772  34.346  14.417  11.166
60368W        W28773  41.420  43.513   3.355
60369W        W28774  44.033  15.311   1.381
60370W        W28775   5.293  31.417   1.117
60371W        W28776  21.414  41.473   4.145
60372W        W28777   1.730  34.136   1.291
60373W        W28778  27.076  42.310   1.551
60374W        W28779  11.375  34.500   3.704
60375W        W28780   8.898  26.948   3.725
60376W        W28781  31.989  17.157  14.496
60377W        W28782   7.203  23.338  11.264
60378W        W28783  44.194  31.563   3.373
60379W        W28784   0.531  17.230  10.814
60380W        W28785  25.190  15.434   1.229
60381W        W28786  42.147  32.130   1.951
60382W        W28787   4.490   7.713   0.290
60383W        W28788   8.151  27.641  14.431
60384W        W28789  27.280  25.715  11.198
60385W        W28790  33.224  24.696  14.305
60386W        W28791  44.271  39.103   5.082
60387W        W28792  44.035  10.465  12.006
60388W        W28793  44.771   5.355  10.127
60389W        W28794  43.929  44.052  12.922
60390W        W28795  26.065  21.220   4.075
60391W        W28796  40.811  16.828  11.468
60392W        W28797  26.649  33.831  14.391
60393W        W28798  33.135  40.801   4.181
60394W        W28799   2.932  18.511   0.396
60395W        W28800  23.999   8.051  12.443
60396W        W28801   1.711  13.705  14.029
60397W        W28802  29.034  25.148   4.727
60398W        W28803  13.829   4.768  13.287
60399W        W28804  12.963  19.163   4.616
60400W        W28805  28.163   2.684  11.789
60401W        W28806  32.937  10.126   0.911
60402W        W28807  14.209   0.705   1.330
60403W        W28808  10.261  20.254   4.835
60404W        W28809   8.117   9.115  10.252
60405W        W28810  15.451   9.191   3.229
60406W        W28811  10.600  17.416  12.934
60407W        W28812  23.277  21.632  14.897
60408W        W28813   4.725  15.030   0.402
60409W        W28814  21.110  15.251  14.471
60410W        W28815   9.287  16.794  14.880
60411W        W28816  41.458  44.537   1.486
60412W        W28817  38.896   7.183  14.802
60413W        W28818  37.897  35.356  12.445
60414W        W28819  29.426  19.149  13.787
60415W        W28820  39.309   8.362   3.143
60416W        W28821  42.354  30.447  13.290
60417W        W28822  43.317  13.151   0.799
60418W        W28823  28.061  43.446  11.366
60419W        W28824  24.317   5.861   4.282
60420W        W28825   6.924  17.058   3.333
60421W        W28826  14.721  42.880  14.054
60422W        W28827  19.021  43.945   3.700
60423W        W28828   7.362   8.281  14.317
60424W        W28829   6.566  14.736  11.063
60425W        W28830   1.273  25.708  12.839
60426W        W28831  33.102  34.647   2.714
60427W        W28832   8.973   3.451  10.745
60428W        W28833  28.919  37.841  10.377
60429W        W28834  29.063  18.780   5.435
60430W        W28835  41.963   6.138   4.061
60431W        W28836  18.828  22.152   0.367
60432W        W28837  19.276   8.828  13.808
60433W        W28838  18.369  44.463   0.359
60434W        W28839  14.179  25.475   3.622
60435W        W28840  30.627   2.537   3.613
60436W        W28841   7.618  42.990  12.591
60437W        W28842  33.408   5.247   2.293
60438W        W28843   9.286  17.504   4.893
60439W        W28844  16.828  41.363   2.675
60440W        W28845  13.187   6.938  11.128
60441W        W28846  36.662  17.625  13.455
60442W        W28847  31.112  24.450  14.507
60443W        W28848  40.227  14.180   5.201
60444W        W28849  24.759  44.498   1.320
60445W        W28850  23.167  40.888   3.092
60446W        W28851   3.862  10.764  12.116
60447W        W28852  18.040  11.691  12.551
60448W        W28853  43.565  44.908  13.680
60449W        W28854  27.665  44.253  14.830
60450W        W28855  30.228  41.932   1.021
60451W        W28856  34.341  23.576   2.840
60452W        W28857  26.934  40.167  13.806
60453W        W28858  20.105   7.835   2.429
60454W        W28859  30.473  24.029  14.991
60455W        W28860  24.607  27.398   0.919
60456W        W28861  27.519  18.752  14.613
60457W        W28862  32.637  22.278  12.137
60458W        W28863   0.182  33.117  13.567
60459W        W28864  19.504  18.008  14.481
60460W        W28865  12.942  37.413  14.791
60461W        W28866  21.946   0.910   0.419
60462W        W28867  38.403  16.865  14.439
60463W        W28868  33.610   9.701   3.750
60464W        W28869  11.453  40.892   2.915
60465W        W28870   9.238  12.401  14.068
60466W        W28871  36.113  15.797  13.762
60467W        W28872  41.325  18.265   0.975
60468W        W28873  35.685  30.061  11.634
60469W        W28874  11.729   6.227   0.516
60470W        W28875  39.357   6.462   4.577
60471W        W28876  19.706  24.465   1.761
60472W        W28877  27.927  16.677   1.724
60473W        W28878   0.627  33.057  14.381
60474W        W28879  25.289  28.104   3.734
60475W        W28880   3.320  19.529  12.054
60476W        W28881  14.748   3.743   2.712
60477W        W28882   6.380  25.032   1.764
60478W        W28883   4.701  26.523  12.218
60479W        W28884   3.080   0.707  11.705
60480W        W28885  10.081  44.411   1.658
60481W        W28886  10.514  10.542   3.251
60482W        W28887  36.026  17.179   4.334
60483W        W28888  34.102   7.293   1.756
60484W        W28889  29.460  16.378  13.861
60485W        W28890  38.281  44.736  12.475
60486W        W28891   8.112   9.255   4.586
60487W        W28892  37.750  43.362   2.062
60488W        W28893   7.639  24.798  11.713
60489W        W28894  33.782  40.634   0.532
60490W        W28895  16.502  25.584  11.568
60491W        W28896  21.043   8.636   3.839
60492W        W28897  19.226  44.377  11.052
60493W        W28898  28.036  41.336   0.314
60494W        W28899  13.288   1.918   0.458
60495W        W28900   3.033  37.324  14.862
60496W        W28901  41.008  30.464   2.922
60497W        W28902  34.996  18.810   0.211
60498W        W28903  35.328  24.858  12.542
60499W        W28904  32.362  27.205  11.569
60500W        W28905   6.148  40.369  12.810
60501W        W28906  43.356  10.371   4.145
60502W        W28907  44.050  31.036  11.128
60503W        W28908  37.892  44.820  13.995
60504W        W28909  30.382  20.306   3.108
60505W        W28910   9.857  22.006   2.331
60506W        W28911   4.626   7.232  13.480
60507W        W28912  25.163  44.395   1.018
60508W        W28913   0.408  25.937   4.638
60509W        W28914   3.342   3.020   3.713
60510W        W28915  14.284  25.596  11.490
60511W        W28916  43.876  25.185  13.635
60512W        W28917   9.065  27.949  11.857
60513W        W28918  26.653  11.879  12.423
60514W        W28919  26.159  29.936   2.410
60515W        W28920  33.933  24.695   3.354
60516W        W28921  14.664  33.383  11.425
60517W        W28922  17.128  39.020  12.111
60518W        W28923  25.564  20.809  13.809
60519W        W28924  37.442  42.512   1.747
60520W        W28925  18.519  26.447  10.390
60521W        W28926  33.349  39.307   3.481
60522W        W28927   5.486   4.284  10.615
60523W        W28928  22.929  39.021  10.413
60524W        W28929  39.836  27.161   2.830
60525W        W28930  22.043  26.124  14.532
60526W        W28931  25.266  32.281  11.960
60527W        W28932  35.455  25.579   2.135
60528W        W28933   3.799  28.674   3.676
60529W        W28934  22.296  14.709  14.918
60530W        W28935  30.101  34.320   4.298
60531W        W28936  43.246  43.553  11.653
60532W        W28937  24.091   1.885  13.387
60533W        W28938  21.268  37.799   1.926
60534W        W28939   5.380  18.082   3.761
60535W        W28940  34.086  42.402   3.573
60536W        W28941   5.290  20.125   3.905
60537W        W28942   0.554  10.765  14.919
60538W        W28943  32.605  33.408  11.925
60539W        W28944   3.403  29.366  12.388
60540W        W28945  33.134  15.635   3.202
60541W        W28946  27.462   6.873  13.501
60542W        W28947  20.608  16.133   3.895
60543W        W28948  39.531  34.510   2.308
60544W        W28949   4.207  44.316  12.471
60545W        W28950  44.090  15.693  12.448
60546W        W28951   4.333  32.880  12.358
60547W        W28952  43.194  38.956  12.082
60548W        W28953   6.108   3.555   2.404
60549W        W28954  24.470  37.530   4.609
60550W        W28955   4.467   8.206  10.967
60551W        W28956  24.732   8.078   4.099
60552W        W28957  41.470  14.104  11.887
60553W        W28958  11.067  43.811  12.434
60554W        W28959  28.076  38.646   2.855
60555W        W28960  15.972  27.174  11.025
60556W        W28961  22.258   8.861   0.330
60557W        W28962   8.365  25.660  13.489
60558W        W28963  42.328  13.795   3.651
60559W        W28964  12.239  33.612   4.888
60560W        W28965  16.177   7.265   1.092
60561W        W28966  13.641  25.378   4.877
60562W        W28967  42.423  38.910   1.432
60563W        W28968  43.986  12.681   2.472
60564W        W28969  26.781  23.359   3.600
60565W        W28970  28.475   9.425   1.923
60566W        W28971  36.324  14.743   3.109
60567W        W28972  29.058   8.434  14.010
60568W        W28973   1.463  33.826  13.526
60569W        W28974  28.519   3.651  13.981
60570W        W28975  32.442  43.269  13.143
60571W        W28976   9.519   4.288  10.655
60572W        W28977   5.826   3.256   3.197
60573W        W28978  43.280  21.740  12.906
60574W        W28979  29.274  37.943  13.357
60575W        W28980  43.602  37.653  14.826
60576W        W28981  25.765  39.694  14.116
60577W        W28982  31.441  25.156  13.776
60578W        W28983  40.726  44.758   1.449
60579W        W28984  27.856   5.258   0.884
60580W        W28985  14.266  19.530  14.572
60581W        W28986  11.598  40.436   2.746
60582W        W28987  35.372  31.167   3.727
60583W        W28988  34.652  40.801   0.070
60584W        W28989  37.716  37.942  12.110
60585W        W28990  17.168  30.438  14.397
60586W        W28991  21.921  14.544  11.342
60587W        W28992   4.346  13.042   0.860
60588W        W28993  27.905  30.957   1.379
60589W        W28994   1.845  44.168   4.195
60590W        W28995  39.422  33.099  12.965
60591W        W28996   1.943  12.120   3.368
60592W        W28997  39.456  37.750  11.038
60593W        W28998  26.674  38.240  14.517
60594W        W28999  37.004  41.353  11.092
60595W        W29000  17.846  33.958  14.666
60596W        W29001  44.902   4.716   3.084
60597W        W29002  23.477   3.220  12.493
60598W        W29003  19.724  41.384  12.855
60599W        W29004  26.956  35.816  13.283
60600W        W29005  42.764  14.540   1.826
60601W        W29006  27.743   4.262   1.620
60602W        W29007  14.747  15.572   4.547
60603W        W29008  43.933   9.932  14.816
60604W        W29009   4.829  13.419  11.973
60605W        W29010  18.948  11.696   1.232
60606W        W29011  15.580  37.040  14.602
60607W        W29012  39.466  10.316   3.250
60608W        W29013  19.052  16.613   2.859
60609W        W29014   4.918  18.050  11.877
60610W        W29015  31.467  34.449  13.045
60611W        W29016  27.663  22.633   2.710
60612W        W29017  10.394  35.236   2.120
60613W        W29018  36.317   7.172   4.062
60614W        W29019   2.920   8.913  10.268
60615W        W29020  39.817  44.661   0.325
60616W        W29021   6.162  19.589  10.336
60617W        W29022  37.747  17.057   3.299
60618W        W29023  20.124  26.512   1.153
60619W        W29024  17.109  22.387   3.583
60620W        W29025  12.338  16.731  10.701
60621W        W29026  22.928  11.683   1.281
60622W        W29027  22.512  30.010  14.852
60623W        W29028  24.180  13.826  14.963
60624W        W29029  16.099   0.530  11.900
60625W        W29030  33.536   2.167   2.411
60626W        W29031  29.525  26.369  13.978
60627W        W29032   9.281  38.473  14.959
60628W        W29033  13.164  34.593  11.112
60629W        W29034  44.031   6.297  14.939
60630W        W29035  32.113  15.232   3.609
60631W        W29036  41.627  19.604   3.635
60632W        W29037  24.010  27.688  14.806
60633W        W29038  41.282  29.686  13.003
60634W        W29039   1.146  17.582  12.103
60635W        W29040  44.948  27.959  12.504
60636W        W29041  13.682  34.885   2.724
60637W        W29042   9.825  34.745   3.420
60638W        W29043  40.808  19.284   1.210
60639W        W29044  19.504   9.900   0.818
60640W        W29045  16.727  13.965  10.986
60641W        W29046   9.292   6.426   3.853
60642W        W29047  44.570   4.682   1.245
60643W        W29048  22.446   9.810  14.988
60644W        W29049  14.837  38.234   0.681
60645W        W29050  18.952  34.689  13.466
60646W        W29051  40.344  31.401  13.587
60647W        W29052  16.101  12.878  12.546
60648W        W29053  15.948  20.462   3.909
60649W        W29054  13.907  28.113  13.013
60650W        W29055  25.684   1.042   1.141
60651W        W29056  14.726  18.240   1.430
60652W        W29057  29.741   5.762  12.117
60653W        W29058  31.567  17.295   3.058
60654W        W29059  35.617  39.040   2.664
60655W        W29060  19.964  37.475   2.868
60656W        W29061  34.559  38.441  14.825
60657W        W29062  13.118  34.363   3.197
60658W        W29063   9.111  41.001  14.911
60659W        W29064  19.140  15.139   4.431
60660W        W29065  37.383   2.287  13.531
60661W        W29066  37.965  32.959   2.448
60662W        W29067   0.441  38.338   0.207
60663W        W29068  30.818  11.739  13.239
60664W        W29069  23.707  37.369   0.331
60665W        W29070  34.605  24.835  10.558
60666W        W29071  43.074   8.178  12.994
60667W        W29072  41.077  20.151  11.750
60668W        W29073  25.796   9.131   2.633
60669W        W29074   8.989  10.143  12.963
60670W        W29075  27.688  20.957  13.829
60671W        W29076  43.952  10.727  11.542
60672W        W29077  32.502   9.131   0.673
60673W        W29078  34.924  42.754  13.875
60674W        W29079  20.551   9.338  10.632
60675W        W29080  10.287  26.462  14.449
60676W        W29081  14.761  32.430   2.645
60677W        W29082  43.539  24.953  11.995
60678W        W29083   8.763  24.648   4.721
60679W        W29084  24.073  22.239   3.585
60680W        W29085  10.589  26.816   3.665
60681W        W29086  40.180  37.319  12.024
60682W        W29087  12.888   3.837   4.560
60683W        W29088  34.008  21.560   1.290
60684W        W29089  28.755  44.276   3.782
60685W        W29090  17.611  11.352   2.416
60686W        W29091  28.896  38.677  14.338
60687W        W29092  27.691  16.201   1.711
60688W        W29093  43.093  28.876   3.119
60689W        W29094  14.689  22.546   1.195
60690W        W29095  24.997   1.790  10.602
60691W        W29096  43.804  35.091   4.142
60692W        W29097  20.357  24.626   4.106
60693W        W29098  12.600  10.119  10.730
60694W        W29099  10.685  19.173   2.370
60695W        W29100  38.638   7.409   5.056
60696W        W29101   7.555  35.955   2.786
60697W        W29102  43.035  42.730  11.589
60698W        W29103  28.551   5.487  11.124
60699W        W29104  10.823   9.617  13.959
60700W        W29105  17.441   8.212   0.435
60701W        W29106  35.827  34.299   0.514
60702W        W29107  37.019  41.964  13.733
60703W        W29108  30.159   9.944  12.984
60704W        W29109  34.655  17.860   2.683
60705W        W29110  11.279  43.954  12.881
60706W        W29111  21.966   4.644  11.896
60707W        W29112  35.519  14.325  13.791
60708W        W29113  43.045  12.081   1.595
60709W        W29114  32.860   4.900   1.956
60710W        W29115  34.367  32.259  13.581
60711W        W29116  33.048   1.128   3.400
60712W        W29117  19.793  15.676   4.156
60713W        W29118   2.534  24.521  12.627
60714W        W29119   9.004  25.822  14.867
60715W        W29120  14.176   0.722  13.798
60716W        W29121   2.268  30.703   4.684
60717W        W29122   7.339  16.085   1.499
60718W        W29123  11.867  29.162   4.112
60719W        W29124  13.214  31.063   4.535
60720W        W29125  26.412  37.062  12.865
60721W        W29126  15.650  35.852  10.973
60722W        W29127  14.711  27.071  14.134
60723W        W29128   0.969  19.238   0.789
60724W        W29129  33.324  24.046   0.310
60725W        W29130  29.311  25.139  11.940
60726W        W29131  44.738  10.864  13.538
60727W        W29132   3.298  40.559   4.536
60728W        W29133  33.157   8.716  11.024
60729W        W29134   8.173  42.023  14.500
60730W        W29135   3.919  21.942   0.399
60731W        W29136  43.269  14.944   0.422
60732W        W29137  33.024  21.043  11.125
60733W        W29138   0.384  35.641   4.256
60734W        W29139   9.425   9.945  12.807
60735W        W29140   0.696  33.154   4.175
60736W        W29141   2.758  38.565   4.640
60737W        W29142  32.384  37.426  14.308
60738W        W29143   4.413   1.400  10.910
60739W        W29144  24.920  26.961  12.679
60740W        W29145  26.644  12.392   3.111
60741W        W29146  36.131  21.793   3.218
60742W        W29147   0.768  23.165  12.103
60743W        W29148  32.468  12.830   4.581
60744W        W29149  35.166  13.153  12.520
60745W        W29150   6.399  25.633   4.114
60746W        W29151   1.210   9.124   2.424
60747W        W29152  30.690  26.632   3.673
60748W        W29153  33.372  34.528   1.824
60749W        W29154  38.399   0.943   1.063
60750W        W29155  12.228   8.831   4.902
60751W        W29156  24.227  42.935   3.501
60752W        W29157  18.462  11.239   3.328
60753W        W29158  42.348  16.257   2.854
60754W        W29159  11.458  31.633  13.361
60755W        W29160  28.494   8.412  13.297
60756W        W29161  29.537  42.410   1.870
60757W        W29162  25.724  42.917  13.951
60758W        W29163  23.231  26.263  13.762
60759W        W29164  31.636  37.982  14.060
60760W        W29165   9.725  41.530   3.370
60761W        W29166  12.776  18.043   0.848
60762W        W29167  40.833  41.065   1.724
60763W        W29168  37.885  43.521  14.790
60764W        W29169   9.333  43.678  12.096
60765W        W29170  28.967   5.334   3.413
60766W        W29171  42.792  19.757  14.817
60767W        W29172  14.334  14.115  13.023
60768W        W29173  20.139  11.134  10.779
60769W        W29174  12.265  42.889  13.894
60770W        W29175  42.401  13.783   4.652
60771W        W29176  39.257  21.678   1.883
60772W        W29177  33.606  40.319  14.368
60773W        W29178  24.041  31.422   2.740
60774W        W29179  22.569  20.841   2.122
60775W        W29180  36.910  17.667   5.001
60776W        W29181  18.017  15.052   3.759
60777W        W29182  30.185  29.704   3.685
60778W        W29183  33.006   7.454  14.206
60779W        W29184  44.438  24.342   0.375
60780W        W29185  14.258   6.798   4.512
60781W        W29186  23.144  43.783   0.666
60782W        W29187   9.682  30.894  10.012
60783W        W29188  34.568  30.107  12.432
60784W        W29189   0.477  13.783  14.661
60785W        W29190  31.234  40.517  12.976
60786W        W29191  25.043  41.946  11.213
60787W        W29192  41.660   8.193  11.045
60788W        W29193   4.325  37.979   5.118
60789W        W29194  41.514  39.136   2.916
60790W        W29195  34.838  29.446  14.515
60791W        W29196  35.465  18.461  12.897
60792W        W29197  37.278  10.152   2.907
60793W        W29198  26.724   3.934   2.273
60794W        W29199  31.927  16.575   0.224
60795W        W29200   9.214  23.858  13.414
60796W        W29201  16.585  36.951  12.047
60797W        W29202  15.108  19.956   3.693
60798W        W29203  29.499   3.501  11.501
60799W        W29204  16.827  25.746   1.762
60800W        W29205  30.716   1.228   1.899
60801W        W29206  40.365  11.791   4.017
60802W        W29207  42.887   5.005   3.659
60803W        W29208   4.407  17.240   4.540
60804W        W29209  36.335  41.441  12.300
60805W        W29210   2.207  19.693  10.713
60806W        W29211   6.973  36.249  11.206
60807W        W29212  32.732  34.487  11.404
60808W        W29213  37.321   4.786   5.074
60809W        W29214  29.677   9.410  12.531
60810W        W29215  39.449  16.781  11.655
60811W        W29216  17.701  19.753  10.669
60812W        W29217  33.546  19.390   0.349
60813W        W29218   4.984  33.335  10.165
60814W        W29219  23.754  15.359   2.425
60815W        W29220   6.216  30.334   0.431
60816W        W29221  39.427  32.037  12.475
60817W        W29222  41.366  33.595  12.898
60818W        W29223   3.708  17.899   0.965
60819W        W29224  31.873  25.411  14.909
60820W        W29225   7.170  17.429   3.066
60821W        W29226  39.123  32.490  13.052
60822W        W29227  44.579  17.048   0.519
60823W        W29228  14.026  33.509  13.318
60824W        W29229  38.056  20.230  14.248
60825W        W29230  11.203   3.839  12.490
60826W        W29231   8.815  44.352  10.649
60827W        W29232  18.687  41.385  13.935
60828W        W29233  11.939   9.136  13.496
60829W        W29234  18.892  31.976  10.972
60830W        W29235  36.824  10.737  13.519
60831W        W29236   2.335  13.674  10.912
60832W        W29237  44.415  14.743  11.495
60833W        W29238  17.589  14.283  11.966
60834W        W29239  14.371  43.918  10.026
60835W        W29240  16.294  16.134   1.578
60836W        W29241  19.690  39.535  12.382
60837W        W29242  19.961  30.895  11.147
60838W        W29243  12.084  22.181  12.120
60839W        W29244   0.979  28.485  14.524
60840W        W29245  41.061  24.010   0.985
60841W        W29246  11.796  38.608   3.267
60842W        W29247   5.759  19.228  14.951
60843W        W29248  20.011  33.454   1.326
60844W        W29249  24.651  39.262  11.975
60845W        W29250  34.604  39.298  11.863
60846W        W29251  11.595  15.670  11.038
60847W        W29252  25.590  22.619   2.849
60848W        W29253   2.933  39.962   1.345
60849W        W29254  31.131   2.930  12.792
60850W        W29255   8.036  24.647   4.254
60851W        W29256  21.525  10.870   3.752
60852W        W29257   3.663  32.906   1.881
60853W        W29258  22.821  10.272  11.193
60854W        W29259  16.281   1.462   4.029
60855W        W29260  39.154   4.874  11.602
60856W        W29261  23.730  27.148  11.747
60857W        W29262  12.667  22.278   0.399
60858W        W29263  28.678  10.300  14.999
60859W        W29264  18.677  18.753  11.539
60860W        W29265  20.754  10.181  14.602
60861W        W29266  24.463  17.107   3.685
60862W        W29267  28.352   3.841   0.446
60863W        W29268  43.123  40.805   0.138
60864W        W29269  28.047  26.057  13.733
60865W        W29270  29.524   7.618   0.659
60866W        W29271  11.626  18.705  13.486
60867W        W29272  16.194  33.788   2.705
60868W        W29273  14.152  33.350   3.301
60869W        W29274  37.800  24.514   2.680
60870W        W29275  42.594  15.082  14.971
60871W        W29276  27.488   0.018  11.130
60872W        W29277  32.063  38.985   0.297
60873W        W29278  32.793  20.735   3.217
60874W        W29279   8.146   4.899   4.586
60875W        W29280  34.997  13.649   3.893
60876W        W29281  24.987  31.498   2.733
60877W        W29282  13.076   8.108  14.922
60878W        W29283  35.046   7.224   0.731
60879W        W29284  19.587  31.465   4.716
60880W        W29285  15.734  25.966   4.039
60881W        W29286   3.651  30.999   2.050
60882W        W29287  31.981  33.976   1.942
60883W        W29288  41.757  23.709   2.815
60884W        W29289   8.272   8.299  13.431
60885W        W29290  36.024   4.211   3.479
60886W        W29291  12.239  35.124   3.396
60887W        W29292  28.019  16.475   3.555
60888W        W29293  34.852  42.527  12.420
60889W        W29294  22.528  21.247   4.769
60890W        W29295  31.623  33.447   2.790
60891W        W29296  27.187  15.124   0.794
60892W        W29297  13.619  41.301  10.702
60893W        W29298  18.206  33.928  13.818
60894W        W29299  11.352  18.841  13.908
60895W        W29300   8.090  32.941   3.875
60896W        W29301   2.274   6.472  14.282
60897W        W29302  44.509  16.244  14.765
60898W        W29303  17.462  23.717  13.168
60899W        W29304   8.969   5.384   2.435
60900W        W29305  36.063   3.142  14.312
60901W        W29306  15.660  32.066   3.289
60902W        W29307   8.220  15.724   2.727
60903W        W29308  15.398  20.700   1.298
60904W        W29309  35.442  28.576  13.400
60905W        W29310  23.236   3.776  12.900
60906W        W29311  16.027  25.182   2.768
60907W        W29312   1.437   0.285   1.217
60908W        W29313  41.200  25.526   5.066
60909W        W29314  38.998  21.080   4.602
60910W        W29315  25.851  29.622  13.416
60911W        W29316   2.002  11.361  10.708
60912W        W29317  11.260  34.486   2.759
60913W        W29318  16.514   8.428   0.470
60914W        W29319   7.636  30.202   1.844
60915W        W29320  14.052   6.843   3.215
60916W        W29321  26.165  23.756  14.498
60917W        W29322  35.680  43.344   1.564
60918W        W29323   7.881  38.537  10.823
60919W        W29324  12.445  25.622   0.328
60920W        W29325  19.026  32.191   3.620
60921W        W29326   1.372  42.124  12.970
60922W        W29327  18.244  42.499   2.660
60923W        W29328  27.455  23.773  14.365
60924W        W29329   4.880  21.592  14.501
60925W        W29330   5.941  26.846  13.560
60926W        W29331  38.659  22.250   0.797
60927W        W29332   3.237  42.400  11.898
60928W        W29333  22.467  13.736   4.911
60929W        W29334  21.917  38.174   4.187
60930W        W29335   1.853  29.155  14.079
60931W        W29336  23.260  35.053   0.865
60932W        W29337  31.691  12.008   3.638
60933W        W29338  36.385  40.466  12.911
60934W        W29339  16.271  33.047   0.838
60935W        W29340   7.239  33.840   2.477
60936W        W29341  32.039  28.908  14.796
60937W        W29342  27.695  41.823   0.273
60938W        W29343  27.469  26.233  11.102
60939W        W29344  13.330  14.814  11.125
60940W        W29345  26.230  25.542  11.111
60941W        W29346  21.974  26.137  14.024
60942W        W29347  27.362  22.120  14.993
60943W        W29348  37.505  24.398   3.078
60944W        W29349  30.402  13.158  10.901
60945W        W29350  10.681  10.165  14.288
60946W        W29351  20.555  43.139   1.846
60947W        W29352  17.661   7.590   1.357
60948W        W29353   4.309  32.698  11.151
60949W        W29354   6.154  36.054  10.964
60950W        W29355  44.372  33.580   1.111
60951W        W29356  24.524  31.326  12.840
60952W        W29357   7.156  40.469  11.931
60953W        W29358  19.239  19.040  12.861
60954W        W29359  28.820   0.306  13.345
60955W        W29360  36.777   7.326  14.852
60956W        W29361  38.564  24.093  11.203
60957W        W29362   1.345   9.430  12.478
60958W        W29363  44.781  28.596  10.578
60959W        W29364   0.094   0.284  14.458
60960W        W29365   5.404  21.053  11.494
60961W        W29366  31.761  13.223   1.935
60962W        W29367  37.010   9.212   1.145
60963W        W29368  37.137  12.146  11.582
60964W        W29369  36.478  42.780  10.480
60965W        W29370  34.304  33.501   4.130
60966W        W29371   3.708   7.990  11.247
60967W        W29372   9.356  19.853   1.293
60968W        W29373  41.240  27.516   2.198
60969W        W29374  18.358  16.413   3.335
60970W        W29375  33.055  29.399  13.291
60971W        W29376   7.105  33.963  14.115
60972W        W29377  27.412  20.145   1.329
60973W        W29378  40.310  17.282   4.507
60974W        W29379  28.942  24.642   4.817
60975W        W29380   9.215  37.488  11.604
60976W        W29381  34.733  43.381   1.002
60977W        W29382   2.281  27.203  14.796
60978W        W29383  10.276  24.763  12.020
60979W        W29384   6.114  32.434  12.078
60980W        W29385  33.118  11.863  13.505
60981W        W29386  35.004  41.791   1.642
60982W        W29387  43.003  35.859   2.612
60983W        W29388  29.569  38.366   1.764
60984W        W29389  34.390  28.985   4.581
60985W        W29390  25.572  20.272  13.934
60986W        W29391  37.381   5.802  12.808
60987W        W29392   4.417  10.737   5.015
60988W        W29393  15.732  15.920   3.671
60989W        W29394   5.355  20.818   0.287
60990W        W29395  19.031  17.768   4.030
60991W        W29396  41.868  28.699  10.485
60992W        W29397  14.470   1.238   0.043
60993W        W29398   1.730  37.821  10.925
60994W        W29399  41.259   0.477   3.622
60995W        W29400  28.481  15.108   3.155
60996W        W29401   6.892  13.139  12.917
60997W        W29402  17.591  37.307   4.980
60998W        W29403  11.839  25.646  14.780
60999W        W29404  15.309  21.482  14.500
61000W        W29405   5.292  17.298   5.029
61001W        W29406  38.369  13.526   0.508
61002W        W29407  26.068  32.676   1.270
61003W        W29408  34.022  28.127   4.696
61004W        W29409  39.979  13.614   0.993
61005W        W29410  15.568  20.279  12.580
61006W        W29411  29.671  22.557  11.917
61007W        W29412  30.692  32.665   0.044
61008W        W29413   0.792  29.891  14.480
61009W        W29414   4.963  37.647   4.140
61010W        W29415  16.047  31.162  11.597
61011W        W29416  19.618  14.638  11.581
61012W        W29417  28.008  29.664  10.633
61013W        W29418  44.419  11.942  12.338
61014W        W29419  33.533  21.549   2.674
61015W        W29420  38.932  29.005   3.312
61016W        W29421   5.718  24.599  10.664
61017W        W29422  27.490   1.790  12.458
61018W        W29423   0.121  41.141   1.403
61019W        W29424   5.737  31.961   2.820
61020W        W29425  30.918  12.662  13.599
61021W        W29426  23.587  28.155   4.268
61022W        W29427  19.976  16.622  12.840
61023W        W29428  11.402  36.790   2.323
61024W        W29429   4.413  21.083  11.026
61025W        W29430  23.926   3.228   4.064
61026W        W29431   3.791  15.243  13.318
61027W        W29432  22.060  14.251  14.860
61028W        W29433  17.587   6.318  12.140
61029W        W29434   7.598  18.648   4.541
61030W        W29435  27.515  43.226  13.868
61031W        W29436  15.366  11.953  12.939
61032W        W29437   4.905  43.063   4.244
61033W        W29438  12.238  17.857   2.857
61034W        W29439  37.853  10.527  14.327
61035W        W29440  25.465  28.771  11.916
61036W        W29441  28.909  24.254  13.348
61037W        W29442   7.418  34.477   4.199
61038W        W29443  31.230  35.543   3.745
61039W        W29444  43.066  22.693   4.113
61040W        W29445   2.623  17.346   9.814
61041W        W29446  19.124  15.072  11.208
61042W        W29447   0.013   4.444  11.336
61043W        W29448  10.182  15.759  12.848
61044W        W29449   3.356  36.792   1.891
61045W        W29450  28.711  11.383  10.518
61046W        W29451  28.211  21.471  14.300
61047W        W29452   2.277   5.397   9.756
61048W        W29453  13.799   1.438   3.691
61049W        W29454  41.361  17.801  11.194
61050W        W29455  33.016  35.672   3.770
61051W        W29456   4.012   8.883  13.261
61052W        W29457  20.257  24.134  13.133
61053W        W29458  41.879   4.127  13.931
61054W        W29459  19.819   4.917   0.742
61055W        W29460  33.581  33.913   0.396
61056W        W29461  18.963  12.388   2.968
61057W        W29462  36.065  11.765  13.957
61058W        W29463   0.357  20.166  11.448
61059W        W29464  32.305  41.027  14.919
61060W        W29465  15.204  30.534  13.496
61061W        W29466  34.565  35.218  13.868
61062W        W29467  38.379  20.289  13.822
61063W        W29468  34.920  33.433   0.835
61064W        W29469  35.783  41.101   1.944
61065W        W29470  43.935  18.294   3.188
61066W        W29471   8.383  15.223   0.879
61067W        W29472  33.419   3.381  13.942
61068W        W29473  24.505   9.943  14.878
61069W        W29474  28.728  15.343   0.316
61070W        W29475  40.975  10.724   0.745
61071W        W29476  32.883   2.288  12.845
61072W        W29477   3.862  34.601  10.503
61073W        W29478   9.682  29.680  13.437
61074W        W29479   9.499   4.993  11.571
61075W        W29480   0.818  20.525  12.234
61076W        W29481   2.732   2.958   4.894
61077W        W29482  20.033  11.440   4.217
61078W        W29483  26.157  10.629  13.986
61079W        W29484   1.484  27.627   4.103
61080W        W29485  35.546   7.755  14.871
61081W        W29486  15.442  35.295   1.486
61082W        W29487  35.595  17.987   0.279
61083W        W29488  20.189   2.974   1.850
61084W        W29489  34.900   5.329  13.888
61085W        W29490  30.770  18.415   1.747
61086W        W29491   4.270  40.914   3.212
61087W        W29492  18.601  17.587   4.230
61088W        W29493  30.408   3.814   5.062
61089W        W29494   2.726  32.030  10.943
61090W        W29495  22.732  42.634   4.524
61091W        W29496  40.459  28.947   0.723
61092W        W29497  32.356   4.840   1.109
61093W        W29498  40.836   5.819   4.552
61094W        W29499  30.527   8.300  12.640
61095W        W29500  12.888  39.449   2.876
61096W        W29501  25.373  25.445  11.363
61097W        W29502   3.763  39.586  12.628
61098W        W29503  24.517   8.941  14.851
61099W        W29504  22.149   1.670   1.251
61100W        W29505  13.304  24.411   3.179
61101W        W29506  18.575  43.741   2.399
61102W        W29507  11.733  12.104  13.814
61103W        W29508  38.490  12.636  11.631
61104W        W29509  14.201  23.283   1.728
61105W        W29510   8.551  37.134   1.296
61106W        W29511  19.579  42.453   3.106
61107W        W29512  38.538  35.115   0.707
61108W        W29513   4.292  41.412  12.455
61109W        W29514  10.774  38.256   4.202
61110W        W29515  20.749   7.933   4.212
61111W        W29516  24.584  38.055  13.874
61112W        W29517  10.119  11.744   2.230
61113W        W29518  35.260  40.866   3.784
61114W        W29519  21.103  19.646  13.440
61115W        W29520  28.868   4.243  11.568
61116W        W29521  28.202  30.525   1.440
61117W        W29522  16.604  15.753   2.747
61118W        W29523  27.685   7.426   0.357
61119W        W29524  28.612  43.358   5.083
61120W        W29525  37.245  15.858  14.681
61121W        W29526  30.688  32.347  12.031
61122W        W29527  34.606  17.561   4.582
61123W        W29528  21.009   7.222   4.147
61124W        W29529  39.882   1.425  11.527
61125W        W29530  41.798  10.229   2.413
61126W        W29531   2.994   8.699   0.509
61127W        W29532   2.418  33.542  11.123
61128W        W29533   0.277  30.572  12.530
61129W        W29534  35.631   3.723  13.765
61130W        W29535  35.923  25.690   1.929
61131W        W29536  36.619  21.758  12.034
61132W        W29537  15.100  21.620  14.984
61133W        W29538  15.779  14.551  12.989
61134W        W29539  42.969  35.420   1.317
61135W        W29540  24.180  43.031   4.517
61136W        W29541  21.103  16.097   4.094
61137W        W29542  35.070  27.995   4.794
61138W        W29543  14.204  28.542   1.970
61139W        W29544  43.317  30.408  11.086
61140W        W29545  32.857  39.549  10.887
61141W        W29546  41.580   6.414  14.413
61142W        W29547  40.261  12.062  13.451
61143W        W29548  18.250  40.874   2.855
61144W        W29549  20.644  14.381  12.376
61145W        W29550   2.462   9.264  10.374
61146W        W29551  23.933   8.232   4.560
61147W        W29552  23.062  19.655   0.373
61148W        W29553  41.620  40.393  14.834
61149W        W29554   9.802  28.027   4.554
61150W        W29555  24.462  37.113  12.855
61151W        W29556  41.463   3.233   2.750
61152W        W29557  18.983  42.920  12.796
61153W        W29558  21.972  12.280   3.856
61154W        W29559   1.771  12.168  11.260
61155W        W29560   0.050   9.428   0.210
61156W        W29561  27.263  11.867  14.902
61157W        W29562  39.250  44.386  13.532
61158W        W29563  41.279  16.153  10.896
61159W        W29564   6.379  15.675   2.376
61160W        W29565  10.516   6.222   1.396
61161W        W29566  17.118   7.925  13.457
61162W        W29567   6.280  36.020  13.809
61163W        W29568  33.517  26.055   4.197
61164W        W29569  27.141   3.975  12.655
61165W        W29570  44.800  37.677   3.854
61166W        W29571  11.199   9.163   4.208
61167W        W29572  13.149  38.550  12.819
61168W        W29573   9.159  30.105   4.135
61169W        W29574  28.196  42.001  11.902
61170W        W29575  29.163  20.989  12.520
61171W        W29576  10.115  18.803  13.062
61172W        W29577  27.616  27.466  12.442
61173W        W29578  40.576  28.888  13.478
61174W        W29579  30.926  11.241   3.201
61175W        W29580  34.106  10.155   4.534
61176W        W29581   9.427  41.055  13.564
61177W        W29582  44.446  25.232   1.135
61178W        W29583  40.432  18.582  10.726
61179W        W29584  20.049  26.928   0.240
61180W        W29585   8.248  32.473  13.405
61181W        W29586  23.005   3.711   2.425
61182W        W29587  33.097   1.726   1.700
61183W        W29588  16.961   9.713   3.596
61184W        W29589  38.460  14.832   4.897
61185W        W29590  30.116   8.369   0.567
61186W        W29591  41.815   5.937   3.605
61187W        W29592  35.724   1.822  14.853
61188W        W29593   4.464   3.667   4.095
61189W        W29594  25.649  23.956  14.363
61190W        W29595  32.415  37.046   1.357
61191W        W29596  17.306   7.399  11.461
61192W        W29597  24.788  34.128  10.748
61193W        W29598   6.342   8.135   4.105
61194W        W29599  28.444  26.864  14.358
61195W        W29600  41.515   2.497  12.669
61196W        W29601  41.744   8.150  13.406
61197W        W29602  35.930  32.447  10.679
61198W        W29603  39.749  21.050   0.092
61199W        W29604  21.457  19.690   3.287
61200W        W29605  15.901   6.761   1.840
61201W        W29606  11.187  27.734  14.486
61202W        W29607   0.914  23.762   0.925
61203W        W29608  44.573  34.695  12.174
61204W        W29609  28.486   1.353   2.013
61205W        W29610  37.926   8.772   2.820
61206W        W29611  11.427  33.624   4.070
61207W        W29612  36.404   4.665   5.100
61208W        W29613  25.032  25.825  11.541
61209W        W29614   0.949  11.202   1.061
61210W        W29615  43.508  22.178   4.837
61211W        W29616  37.415   6.092   0.955
61212W        W29617  26.510   3.699  11.279
61213W        W29618  30.889   1.929  11.012
61214W        W29619  37.437  16.688   4.422
61215W        W29620   8.969  19.871  13.937
61216W        W29621   8.511   8.804   3.173
61217W        W29622  15.804   9.911  12.061
61218W        W29623  11.094   9.389   2.004
61219W        W29624  12.298   5.956   3.263
61220W        W29625  12.265  11.252   2.323
61221W        W29626   0.909   2.247  13.923
61222W        W29627   9.475  28.152   9.910
61223W        W29628  41.307  37.321   0.751
61224W        W29629   3.454  10.204   0.725
61225W        W29630  40.537  12.247   3.757
61226W        W29631   0.590   1.506   0.392
61227W        W29632  25.309  28.567   3.215
61228W        W29633   7.614  42.538   4.797
61229W        W29634  27.701  10.921  11.913
61230W        W29635  35.046  33.085  12.115
61231W        W29636  35.315  24.104  12.997
61232W        W29637   7.693  40.615   1.416
61233W        W29638  18.902  41.495   3.698
61234W        W29639  27.715  14.151  10.122
61235W        W29640  11.184   2.307  11.649
61236W        W29641  35.290   0.332   4.579
61237W        W29642   4.332  37.478   3.915
61238W        W29643   0.369  32.621   1.260
61239W        W29644  14.803  30.334   2.243
61240W        W29645   4.950  42.431   1.386
61241W        W29646   0.883  10.256   1.477
61242W        W29647  15.757  25.871   3.455
61243W        W29648  35.662   4.370  10.646
61244W        W29649  20.737  40.602  11.378
61245W        W29650  31.073  24.744   4.178
61246W        W29651  16.048  13.210  11.263
61247W        W29652  25.925  33.059  14.330
61248W        W29653  26.558  21.015   0.151
61249W        W29654   9.609  14.593   1.522
61250W        W29655  21.610   1.456  13.065
61251W        W29656  18.351  11.108  14.739
61252W        W29657  12.881   5.026   4.955
61253W        W29658  34.048  30.918  10.710
61254W        W29659  12.772  16.356  11.220
61255W        W29660   4.780  10.371   0.432
61256W        W29661  17.891   9.087  13.096
61257W        W29662   4.225  31.597  14.536
61258W        W29663  17.729  40.369  13.644
61259W        W29664  15.575  13.385   0.740
61260W        W29665  34.411  37.768  12.974
61261W        W29666   1.872  15.363  12.846
61262W        W29667   6.261  14.272   5.056
61263W        W29668  37.357  17.581  14.909
61264W        W29669  16.872  14.272  10.596
61265W        W29670   7.694  14.110   1.198
61266W        W29671  16.918  11.316  10.702
61267W        W29672  36.003  25.079   3.577
61268W        W29673  37.634  13.057  13.962
61269W        W29674  24.829   6.510  10.801
61270W        W29675  25.993   1.792  14.321
61271W        W29676   3.867   2.794   3.282
61272W        W29677  38.100  43.284  11.634
61273W        W29678  32.354  19.788  14.044
61274W        W29679  23.950   1.336  13.349
61275W        W29680  27.691   0.726  10.626
61276W        W29681   1.694  28.628   1.713
61277W        W29682  18.697  34.471   2.449
61278W        W29683  10.694   7.399  10.560
61279W        W29684  31.138  44.469   1.196
61280W        W29685  31.058   6.881   1.317
61281W        W29686  41.530  18.515  10.690
61282W        W29687  44.511  13.494   5.124
61283W        W29688   0.205  38.208   1.475
61284W        W29689  26.163   3.277  11.121
61285W        W29690  30.052   2.802   0.948
61286W        W29691  21.320  40.309  14.541
61287W        W29692  17.103   3.962  12.837
61288W        W29693  20.759  23.367   1.800
61289W        W29694  35.886  10.299   1.092
61290W        W29695  28.195  36.424  12.996
61291W        W29696  28.798  11.371  11.858
61292W        W29697   1.501  25.919   1.553
61293W        W29698   4.177   4.139  12.810
61294W        W29699   3.350  21.096   4.038
61295W        W29700   2.543  28.935  11.558
61296W        W29701   1.297  22.203  11.962
61297W        W29702  15.057  10.605  14.770
61298W        W29703  20.670  41.043  13.376
61299W        W29704   3.169  13.533   1.963
61300W        W29705  35.444  29.851   1.468
61301W        W29706  28.443   9.594  11.855
61302W        W29707   9.165  39.083   3.220
61303W        W29708  17.104   2.237  12.049
61304W        W29709  30.729   4.795  10.748
61305W        W29710  40.577  15.550  11.156
61306W        W29711  32.392  19.119   4.630
61307W        W29712   6.751   2.936   2.549
61308W        W29713  13.619   0.795  14.656
61309W        W29714  31.900  24.664  11.419
61310W        W29715  33.114  31.881  11.912
61311W        W29716  41.366   4.653  11.972
61312W        W29717   7.366  32.071   2.095
61313W        W29718   0.180   3.690   4.172
61314W        W29719  31.377  18.265   1.317
61315W        W29720   1.242  14.328  13.631
61316W        W29721   9.366  34.825   1.442
61317W        W29722  39.584  10.761   2.727
61318W        W29723  21.754   4.727  13.808
61319W        W29724  15.106  16.365   0.304
61320W        W29725  22.911  35.057   2.833
61321W        W29726  20.310  41.342   2.329
61322W        W29727  16.728  15.537  11.175
61323W        W29728  16.180  19.615  14.947
61324W        W29729   6.935  44.188   1.822
61325W        W29730  37.042  21.744  11.032
61326W        W29731  44.342  17.758   4.515
61327W        W29732  23.040  22.492   0.907
61328W        W29733  20.753   8.502  12.467
61329W        W29734  39.470  14.996   1.390
61330W        W29735   9.807  19.695  13.530
61331W        W29736  12.225  39.858   2.873
61332W        W29737  12.566  18.059  14.942
61333W        W29738  36.353  32.967   1.472
61334W        W29739   3.876  19.230   3.352
61335W        W29740  19.528  37.432   4.701
61336W        W29741  10.384  35.616  11.444
61337W        W29742  44.468   9.710  14.382
61338W        W29743  40.928  22.212   1.522
61339W        W29744  14.734  11.646  13.970
61340W        W29745  16.071  32.113  14.452
61341W        W29746  17.735   7.482  14.866
61342W        W29747  43.212  38.558   1.199
61343W        W29748  22.520  34.298   2.299
61344W        W29749   0.654   2.357   2.145
61345W        W29750   4.772  23.619   1.990
61346W        W29751  22.555  13.024   4.090
61347W        W29752  30.403   6.873   1.681
61348W        W29753  33.632  28.894   3.341
61349W        W29754  29.898  29.089   4.253
61350W        W29755  20.245  37.821   0.420
61351W        W29756  32.535  11.953   2.101
61352W        W29757  23.067  33.930   0.373
61353W        W29758  38.274  12.746   4.179
61354W        W29759  41.379   9.265   2.657
61355W        W29760  35.509  12.065   2.286
61356W        W29761   2.683   5.232  11.704
61357W        W29762   4.489  24.040   1.990
61358W        W29763   4.215  38.131   1.030
61359W        W29764  24.439  18.681   2.270
61360W        W29765   9.719  23.821   2.723
61361W        W29766  16.512   0.382  12.837
61362W        W29767   9.447  33.139   0.836
61363W        W29768   0.474  29.585   2.743
61364W        W29769  15.171   0.755   3.342
61365W        W29770   5.323  24.794   4.633
61366W        W29771  33.538   5.014  13.346
61367W        W29772  44.850  42.003   0.440
61368W        W29773  21.101  23.113   3.878
61369W        W29774  36.374  35.926  10.708
61370W        W29775  29.742  16.284   4.552
61371W        W29776   7.871  34.597   3.377
61372W        W29777  38.003   2.661   3.269
61373W        W29778  44.292  40.801   3.757
61374W        W29779   8.333  30.810   4.087
61375W        W29780  33.999  26.696   2.293
61376W        W29781  12.157  30.091   1.895
61377W        W29782  29.446  12.377   4.517
61378W        W29783  41.303   3.816  13.537
61379W        W29784   3.947  13.129  13.280
61380W        W29785  29.068  44.982  12.157
61381W        W29786  37.470  39.037   4.903
61382W        W29787  29.511  39.392   0.450
61383W        W29788   1.963  36.545  11.573
61384W        W29789  23.209  22.367  12.122
61385W        W29790  41.726  11.787  14.330
61386W        W29791   0.542   2.289   1.355
61387W        W29792  44.251  24.774  14.874
61388W        W29793  18.066   0.119  14.586
61389W        W29794  35.825   6.114   2.535
61390W        W29795  28.134  43.904  10.661
61391W        W29796  17.799  26.931  13.406
61392W        W29797  24.805   8.298   1.248
61393W        W29798  36.298   9.423  10.778
61394W        W29799  38.585  38.544   3.699
61395W        W29800   4.689  25.968   0.663
61396W        W29801  30.482  16.308   2.259
61397W        W29802  29.739  19.556  12.556
61398W        W29803  22.048   2.155   2.719
61399W        W29804  24.362  14.812  11.595
61400W        W29805  27.676  37.406  10.185
61401W        W29806   7.840   2.897  14.999
61402W        W29807  29.850  24.090  10.992
61403W        W29808  25.492  43.299  12.548
61404W        W29809   6.768  40.126   2.210
61405W        W29810   1.839  14.874  11.439
61406W        W29811  24.001  38.796  11.831
61407W        W29812  44.765  15.544  14.227
61408W        W29813  37.632  40.898   2.392
61409W        W29814  18.370  41.478   3.657
61410W        W29815  18.028   9.734  10.371
61411W        W29816   8.215  38.935   3.995
61412W        W29817  11.342  20.040  10.656
61413W        W29818  39.965   6.288   3.828
61414W        W29819  20.792  20.241   0.196
61415W        W29820  23.462  15.231   2.810
61416W        W29821  13.024  31.353  14.627
61417W        W29822   3.412  28.825   1.421
61418W        W29823   0.976  38.824  11.171
61419W        W29824   2.637  22.636   2.787
61420W        W29825  11.366  34.584   1.179
61421W        W29826  12.949  19.653   4.077
61422W        W29827  35.335  20.578   0.792
61423W        W29828  29.509  13.802   3.815
61424W        W29829   2.839  26.856  12.140
61425W        W29830   7.146   7.360   1.974
61426W        W29831   1.797  31.879  10.756
61427W        W29832  26.514  15.537   0.337
61428W        W29833  35.366   0.722  10.551
61429W        W29834  36.215  22.305  11.439
61430W        W29835  27.820   8.867  11.456
61431W        W29836  24.038  14.853  13.296
61432W        W29837  34.486  10.411   4.760
61433W        W29838  23.276  38.133  12.028
61434W        W29839  36.687  35.644   4.450
61435W        W29840  38.577  34.598  14.266
61436W        W29841  29.202  24.554  14.298
61437W        W29842  22.408   4.774   4.503
61438W        W29843  21.180  19.966   4.984
61439W        W29844   4.390   0.753   2.183
61440W        W29845  44.897   8.480  10.717
61441W        W29846  15.558  12.109   0.212
61442W        W29847  31.403   0.415   3.053
61443W        W29848  14.433  37.622  10.684
61444W        W29849  14.649   7.658  11.521
61445W        W29850  16.472  26.127   1.614
61446W        W29851  33.324  43.850   1.535
61447W        W29852  15.448  25.030   3.677
61448W        W29853  34.982   9.939   1.941
61449W        W29854  19.221  35.850  12.846
61450W        W29855  22.116  41.249   1.491
61451W        W29856  10.406   8.179   0.819
61452W        W29857  39.334   1.537   4.572
61453W        W29858  19.195  12.271  13.154
61454W        W29859  20.824  29.975   0.726
61455W        W29860  21.237  14.242  12.916
61456W        W29861  22.558   2.974  11.695
61457W        W29862  37.306  27.360   2.341
61458W        W29863  20.817  42.953   2.301
61459W        W29864  37.568  44.337  13.980
61460W        W29865  19.285  11.154  14.023
61461W        W29866  11.390   7.909  12.529
61462W        W29867  32.523   2.876  13.325
61463W        W29868  27.815  42.892   1.173
61464W        W29869  22.060  11.546   4.199
61465W        W29870  11.078  15.812   9.842
61466W        W29871  16.236  34.548  13.472
61467W        W29872   7.473   4.983  13.072
61468W        W29873  13.222  16.230   0.862
61469W        W29874  11.167  11.352  13.837
61470W        W29875  17.774  41.449   0.716
61471W        W29876  29.583  13.758   2.837
61472W        W29877   7.783   5.435   0.786
61473W        W29878  21.286   5.993  12.971
61474W        W29879  32.158  42.537  12.033
61475W        W29880   0.159   2.459  14.496
61476W        W29881   3.901   2.940  11.797
61477W        W29882  13.765   6.015   1.838
61478W        W29883  41.625  37.491   0.369
61479W        W29884   6.537   4.672   4.812
61480W        W29885  22.627   3.472  11.916
61481W        W29886  13.848   6.462  14.057
61482W        W29887   1.913  20.434   3.523
61483W        W29888  21.134  13.180  12.899
61484W        W29889  36.379  38.645  12.890
61485W        W29890  41.618  35.931   4.086
61486W        W29891   7.353  10.596   3.917
61487W        W29892  34.897  22.733   4.571
61488W        W29893   7.941  11.875  13.358
61489W        W29894  19.055  20.303   1.718
61490W        W29895  11.165  39.551  10.722
61491W        W29896  14.616  12.691   1.109
61492W        W29897  19.955  44.822  10.987
61493W        W29898   9.155  28.033   1.928
61494W        W29899  33.965  35.855  13.070
61495W        W29900  21.621   3.413  12.053
61496W        W29901  12.808  20.607  10.681
61497W        W29902  42.208  44.763   3.151
61498W        W29903   1.855  18.780   2.793
61499W        W29904  44.760  19.726  12.965
61500W        W29905  24.957  24.878   0.480
61501W        W29906  18.906  31.465   2.220
61502W        W29907  40.111  43.958  13.481
61503W        W29908  17.429  16.786   0.632
61504W        W29909  25.118  22.885  12.753
61505W        W29910  23.178   7.294  12.214
61506W        W29911  39.340   3.005   0.955
61507W        W29912   8.175   3.965  10.813
61508W        W29913  11.631  37.640  12.470
61509W        W29914  28.132  40.575  14.561
61510W        W29915   3.236   5.347  13.430
61511W        W29916  26.625   9.003  11.816
61512W        W29917  35.089  40.362  12.447
61513W        W29918  41.148  40.049  12.066
61514W        W29919  27.044   8.218   3.670
61515W        W29920  33.114  21.814  10.941
61516W        W29921  35.840  25.717   0.342
61517W        W29922  25.061  23.979   1.227
61518W        W29923  16.817  39.986   2.273
61519W        W29924  15.121   5.932  12.413
61520W        W29925  23.961  28.141  12.867
61521W        W29926   0.698   6.223  11.170
61522W        W29927  20.837   0.296  13.895
61523W        W29928  39.433  44.919   2.812
61524W        W29929  21.543  40.804  12.809
61525W        W29930   4.228  20.079  12.005
61526W        W29931   5.792  30.025  13.943
61527W        W29932   1.337  16.705   3.685
61528W        W29933  40.802  27.162  14.922
61529W        W29934  23.157  28.937   4.039
61530W        W29935  41.682   2.824  14.597
61531W        W29936  28.552  20.110   1.823
61532W        W29937   9.912  34.842  14.519
61533W        W29938  14.885   7.198  14.505
61534W        W29939  21.705  22.069   3.235
61535W        W29940  20.175  10.071   4.413
61536W        W29941  32.838  36.845   4.708
61537W        W29942  27.138  11.152  14.677
61538W        W29943  43.771  37.857  11.722
61539W        W29944  44.520  25.489  11.978
61540W        W29945   0.074   7.154   4.116
61541W        W29946  25.257  44.424   2.449
61542W        W29947  11.917  33.566   3.260
61543W        W29948  41.383   4.741   1.953
61544W        W29949  18.978  32.521  14.802
61545W        W29950  13.077   4.235  13.051
61546W        W29951  32.570   5.728  14.573
61547W        W29952   1.447  26.915  13.337
61548W        W29953  44.386  23.811   2.155
61549W        W29954  15.682  41.577  14.405
61550W        W29955  26.232  40.810   1.461
61551W        W29956  26.189  44.260  14.821
61552W        W29957   6.364  39.405   1.849
61553W        W29958  36.345  13.362   4.716
61554W        W29959  17.105  21.059  12.954
61555W        W29960   5.727  24.417   2.888
61556W        W29961   8.098  16.604  14.511
61557W        W29962   5.368  12.078   3.858
61558W        W29963  23.466  10.831  12.201
61559W        W29964   0.658  39.188   2.873
61560W        W29965  37.026  41.052  11.783
61561W        W29966  32.199  34.518   4.440
61562W        W29967   9.936  15.685  12.395
61563W        W29968  41.352  27.042  14.759
61564W        W29969  10.289  24.702  13.946
61565W        W29970  21.142  38.106   2.360
61566W        W29971   3.197  43.151  13.494
61567W        W29972  34.315  43.196   1.417
61568W        W29973  16.042  18.802   2.675
61569W        W29974  32.937  18.033  13.347
61570W        W29975  15.648  12.833   3.184
61571W        W29976   0.542  36.167   0.021
61572W        W29977  12.285   9.325  12.570
61573W        W29978  28.406  42.899   0.801
61574W        W29979   5.829   2.970   0.895
61575W        W29980  16.009  43.486   3.222
61576W        W29981  44.762  42.838   1.798
61577W        W29982  28.384   7.406  13.340
61578W        W29983  41.015  43.219   4.120
61579W        W29984   2.962   0.244   0.007
61580W        W29985  24.527  43.391   4.316
61581W        W29986  23.695   5.639   1.738
61582W        W29987  25.757  34.433   4.522
61583W        W29988  43.924  31.859   4.651
61584W        W29989  38.601  16.134  10.300
61585W        W29990   7.858  29.380  12.184
61586W        W29991  37.526  25.097   3.601
61587W        W29992  15.666  18.737  11.713
61588W        W29993  19.514   8.171  14.784
61589W        W29994  41.493  14.858  10.831
61590W        W29995   1.752  24.119  12.045
61591W        W29996  30.283  27.594  10.703
61592W        W29997   8.680  33.499   0.228
61593W        W29998  22.101   0.059  13.547
61594W        W29999  31.109  12.444  11.548
61595W        W30000  29.899  18.658  14.062
61596W        W30001   3.709  35.025   1.772
61597W        W30002  24.068   5.188  13.877
61598W        W30003  38.435  20.496  14.970
61599W        W30004  21.069  43.275   3.220
61600W        W30005  29.513   7.923  14.363
61601W        W30006  13.922   2.090   0.926
61602W        W30007  26.147  26.741  12.384
61603W        W30008  32.439  33.852  14.324
61604W        W30009  38.461   0.211  13.853
61605W        W30010  23.560  13.155  14.991
61606W        W30011  25.957  39.482  11.154
61607W        W30012  18.619  22.713   2.172
61608W        W30013  43.956   9.956  12.069
61609W        W30014   6.191   7.938  13.041
61610W        W30015  43.365  13.607   3.632
61611W        W30016  39.973   8.887  11.187
61612W        W30017  23.660   9.427  12.161
61613W        W30018   9.831  34.861  13.178
61614W        W30019  25.164  41.952   4.595
61615W        W30020  24.627  10.832   1.546
61616W        W30021  33.064  18.566  14.028
61617W        W30022  37.793  18.635   2.828
61618W        W30023  33.347  10.322  14.898
61619W        W30024  18.927  38.532  11.583
61620W        W30025  25.936  32.362   0.881
61621W        W30026  20.184  23.885   9.928
61622W        W30027  33.397  24.212  14.391
61623W        W30028  44.848  12.120  12.871
61624W        W30029  36.114   7.093   2.785
61625W        W30030  16.687   1.098   0.791
61626W        W30031  17.823  15.232  13.464
61627W        W30032  18.250  13.397   4.330
61628W        W30033   4.308  16.615   4.474
61629W        W30034  28.709  15.329   1.271
61630W        W30035  38.547  12.652   3.749
61631W        W30036   2.733  10.252  10.408
61632W        W30037   0.385   3.239   3.711
61633W        W30038  24.614  18.863   4.531
61634W        W30039   8.220   8.957  13.039
61635W        W30040   1.330  39.575   3.287
61636W        W30041  12.204   8.653  14.384
61637W        W30042  13.141  36.503  13.967
61638W        W30043  14.670  39.612  11.610
61639W        W30044  33.581  39.436   2.127
61640W        W30045  20.334  43.307  14.986
61641W        W30046  15.363  31.081   5.024
61642W        W30047  37.495  30.660   1.958
61643W        W30048  21.426  23.501  12.698
61644W        W30049  13.032  20.585   1.885
61645W        W30050   8.252  28.599  12.500
61646W        W30051  25.082  29.109  12.182
61647W        W30052  21.563  13.530   4.699
61648W        W30053  11.701   4.387   0.908
61649W        W30054   7.393  38.336   0.128
61650W        W30055   7.214  39.141   0.855
61651W        W30056   6.245  44.071  12.431
61652W        W30057  38.244  32.923   1.360
61653W        W30058  26.565   8.329  10.963
61654W        W30059  25.053  18.703  13.857
61655W        W30060  34.956  18.845   3.040
61656W        W30061  15.532  44.431   1.431
61657W        W30062  12.493  42.529  12.406
61658W        W30063  17.586  37.376   0.663
61659W        W30064  17.333   3.405  11.991
61660W        W30065  29.621  15.074  14.212
61661W        W30066  33.077  19.712  12.136
61662W        W30067  19.217  17.887   0.773
61663W        W30068  22.156   6.633   2.929
61664W        W30069  31.247  34.585  10.765
61665W        W30070  42.504   7.370  13.289
61666W        W30071  30.103  17.988   2.233
61667W        W30072  36.797  32.110  12.005
61668W        W30073  33.405  18.201   4.577
61669W        W30074   0.195  35.848  14.119
61670W        W30075  23.503  31.471   2.751
61671W        W30076  24.291  12.041   3.364
61672W        W30077   2.898  39.559  12.531
61673W        W30078  39.899  13.741  12.974
61674W        W30079  15.591  14.132  14.830
61675W        W30080  10.111   5.047   3.603
61676W        W30081  30.386  42.107   1.532
61677W        W30082  15.202   2.738   0.364
61678W        W30083   9.176  42.925   4.014
61679W        W30084  42.332  28.002   0.852
61680W        W30085  44.733   1.794  12.124
61681W        W30086  18.489  27.960  12.447
61682W        W30087  17.055  13.703   0.469
61683W        W30088  37.946  13.694   3.274
61684W        W30089   2.939  20.932  10.848
61685W        W30090  36.407   1.923   4.552
61686W        W30091  24.443  24.266   0.005
61687W        W30092  34.233  43.679   1.273
61688W        W30093  34.169   7.828  12.993
61689W        W30094   7.726   2.695   0.478
61690W        W30095  40.920  33.182  14.253
61691W        W30096  26.971  10.319   2.773
61692W        W30097   0.105  12.220   4.646
61693W        W30098   4.737  40.279  12.903
61694W        W30099  24.521  40.390  11.113
61695W        W30100  24.191  37.599  14.508
61696W        W30101  20.746  26.101   2.510
61697W        W30102  22.925  14.677   0.934
61698W        W30103  25.678  35.355  10.728
61699W        W30104   9.678  18.793   0.342
61700W        W30105  24.601  15.127  12.070
61701W        W30106  36.754  43.267  14.926
61702W        W30107  22.569  12.032   1.468
61703W        W30108   8.229  25.504   3.853
61704W        W30109  18.566  36.601   1.794
61705W        W30110   6.233  31.982   4.105
61706W        W30111  17.570  29.177   2.712
61707W        W30112  35.149  35.193  10.679
61708W        W30113  11.399  30.576   3.311
61709W        W30114  27.564  13.656   1.226
61710W        W30115  40.964   0.700   1.749
61711W        W30116  12.744   9.600   4.277
61712W        W30117   7.732   0.044  14.540
61713W        W30118  39.460  34.010   1.218
61714W        W30119   7.950  18.188  13.597
61715W        W30120   7.895  18.560   4.063
61716W        W30121   7.909  27.185   2.835
61717W        W30122  26.936   2.256  10.611
61718W        W30123  21.289   7.698   4.176
61719W        W30124  37.154   0.974  13.500
61720W        W30125  21.770  10.383   3.531
61721W        W30126   0.789   2.285   3.085
61722W        W30127  34.480  16.590   1.300
61723W        W30128  35.490  43.295  14.385
61724W        W30129  20.237  43.828  14.835
61725W        W30130  11.355  34.093  13.804
61726W        W30131  36.393  20.097   2.389
61727W        W30132  12.371   5.091   0.383
61728W        W30133  16.683   8.435  13.964
61729W        W30134  18.132  33.655  11.153
61730W        W30135  32.393  38.081   3.372
61731W        W30136  31.565  15.561  10.110
61732W        W30137  15.279   1.643  10.664
61733W        W30138  35.452  37.058   3.326
61734W        W30139  33.620  38.011  12.071
61735W        W30140  30.100   8.833   3.845
61736W        W30141  35.058  22.058   2.405
61737W        W30142  12.582   7.327   2.282
61738W        W30143  38.886  21.279   3.696
61739W        W30144  31.482  38.401  14.277
61740W        W30145  21.230  34.760   4.601
61741W        W30146  15.354   2.825  11.542
61742W        W30147  42.159  20.359   1.761
61743W        W30148  28.444  37.650  11.491
61744W        W30149   6.139  24.173   1.797
61745W        W30150  44.854   7.280   5.068
61746W        W30151  42.149   7.817  11.524
61747W        W30152  13.242  37.595   4.047
61748W        W30153   2.623  35.844  13.590
61749W        W30154  24.786  43.916  14.241
61750W        W30155   6.908  13.718  10.708
61751W        W30156  33.131  15.701   4.512
61752W        W30157   7.234  43.508   3.196
61753W        W30158   2.714  30.695  11.646
61754W        W30159  44.342  21.294   3.759
61755W        W30160  40.947  35.520  13.382
61756W        W30161  20.855  33.456   0.721
61757W        W30162   0.802  43.983   1.499
61758W        W30163  15.020  10.886  11.553
61759W        W30164  43.517  15.653   2.001
61760W        W30165  21.576  40.128  10.913
61761W        W30166  37.564  12.228  10.446
61762W        W30167  35.669   7.805   1.299
61763W        W30168  35.984  35.619  11.023
61764W        W30169  29.013   3.890  14.965
61765W        W30170  42.011  32.478   3.250
61766W        W30171   4.174  42.778   0.792
61767W        W30172   5.357  28.056   1.415
61768W        W30173  37.015  22.188   4.476
61769W        W30174  22.854  18.405  14.384
61770W        W30175  25.191  19.941  13.885
61771W        W30176   6.943  29.582  11.885
61772W        W30177   4.347   9.076  14.493
61773W        W30178  36.463   5.984   1.124
61774W        W30179  22.685  30.580   0.950
61775W        W30180   2.361  27.624  11.949
61776W        W30181   1.466  29.033  10.755
61777W        W30182  31.144  28.906  10.688
61778W        W30183   6.767  26.683  11.980
61779W        W30184   0.650   3.488   4.108
61780W        W30185  29.906   7.270   4.756
61781W        W30186  36.111  17.534   2.622
61782W        W30187  39.871  27.985   3.192
61783W        W30188  26.589  43.015   0.213
61784W        W30189  12.429  13.292   4.465
61785W        W30190   8.240  17.044  14.785
61786W        W30191  25.483  21.825   1.354
61787W        W30192  18.187  10.658  11.665
61788W        W30193  12.312  31.487  12.514
61789W        W30194  26.407  36.019   0.822
61790W        W30195  27.489  21.235  11.627
61791W        W30196  26.650  30.456  12.604
61792W        W30197  40.968  13.296  11.177
61793W        W30198  38.890  36.720  12.928
61794W        W30199  12.641  36.504   1.878
61795W        W30200  16.305  42.960  12.976
61796W        W30201  23.279  21.234  14.535
61797W        W30202  42.243  34.028  10.687
61798W        W30203  18.208  29.460   4.073
61799W        W30204  11.621  44.258   2.938
61800W        W30205  17.486  28.731  10.757
61801W        W30206  38.546   4.471   1.743
61802W        W30207  14.146  24.278  13.822
61803W        W30208  36.653  25.110  14.582
61804W        W30209  20.204  23.278  11.462
61805W        W30210  20.287  10.595   4.458
61806W        W30211  33.957  15.050  12.973
61807W        W30212  30.754  30.874   0.466
61808W        W30213  36.396  37.746  11.679
61809W        W30214   2.960  36.776  13.207
61810W        W30215  13.076  43.828  12.924
61811W        W30216  30.471  38.378   2.870
61812W        W30217  34.548  44.429  13.577
61813W        W30218  32.660  40.442   1.244
61814W        W30219  11.093  21.050   0.856
61815W        W30220  36.814  34.101  14.689
61816W        W30221  23.718   8.254  10.809
61817W        W30222  44.528  24.135   0.847
61818W        W30223  37.033  23.998  13.858
61819W        W30224   9.228  40.035  12.581
61820W        W30225  16.646  37.346   2.217
61821W        W30226   0.225  15.948   3.383
61822W        W30227  31.663  17.306   0.681
61823W        W30228  19.494  19.274  11.626
61824W        W30229   9.326   2.493   1.701
61825W        W30230  22.289  29.914  13.549
61826W        W30231  16.990   5.428  12.075
61827W        W30232   5.942  27.733  13.904
61828W        W30233  42.542  16.581  14.482
61829W        W30234  27.938  29.289   4.828
61830W        W30235   9.362  30.632   1.243
61831W        W30236  19.569  27.995  14.373
61832W        W30237  26.172  36.355   1.275
61833W        W30238  12.137  36.061  10.483
61834W        W30239   0.325  36.897  10.619
61835W        W30240  14.341  17.157  12.628
61836W        W30241   3.930   8.198  14.097
61837W        W30242  31.606  22.010   0.379
61838W        W30243  19.758  44.463   3.663
61839W        W30244  24.240  15.155  12.933
61840W        W30245  44.366   2.985   1.223
61841W        W30246  24.683  35.192  11.078
61842W        W30247  28.516  43.431   4.591
61843W        W30248  17.526  33.984   3.621
61844W        W30249  26.142  18.780   2.962
61845W        W30250  31.665  14.771   1.894
61846W        W30251   0.015   6.969   0.758
61847W        W30252   4.612  19.644   3.722
61848W        W30253  41.777  21.070  13.978
61849W        W30254  24.185  28.647  11.869
61850W        W30255  11.318  32.924  11.671
61851W        W30256  38.186   7.295  14.372
61852W        W30257  30.914   0.429   3.273
61853W        W30258   9.693  31.936   1.410
61854W        W30259   0.340  38.359   2.717
61855W        W30260  24.528  39.058  14.280
61856W        W30261   3.671  17.862  10.253
61857W        W30262  24.287  19.279   0.521
61858W        W30263  27.928  20.841   1.792
61859W        W30264   2.506   5.170  13.893
61860W        W30265  36.270   0.471   2.248
61861W        W30266  16.039  21.523  11.604
61862W        W30267  27.513  11.380   3.213
61863W        W30268  29.214  30.614   1.846
61864W        W30269  36.536   7.869  13.389
61865W        W30270  10.907   7.743  11.593
61866W        W30271   7.898  16.939   0.368
61867W        W30272  29.152   4.791  13.832
61868W        W30273  39.134  20.591  13.478
61869W        W30274  29.062  17.818   2.248
61870W        W30275  35.338   1.504  12.914
61871W        W30276  22.601  39.981  10.205
61872W        W30277  42.412  17.368  13.872
61873W        W30278  42.268  10.205   1.624
61874W        W30279   8.770  43.264  14.885
61875W        W30280  41.361  17.634  11.701
61876W        W30281  16.509  16.516  14.754
61877W        W30282  28.197  36.948  14.929
61878W        W30283   8.011   3.873  14.404
61879W        W30284  12.887   6.133   3.738
61880W        W30285  11.316  32.080  13.610
61881W        W30286   2.870   0.462  10.445
61882W        W30287  38.455  30.621  13.344
61883W        W30288  39.376  44.328  14.471
61884W        W30289   6.328  34.812   4.134
61885W        W30290  18.661   4.230  14.265
61886W        W30291  14.739  42.036  12.595
61887W        W30292   2.526   2.421  12.565
61888W        W30293  29.832  39.968   3.759
61889W        W30294  10.774  26.100  11.316
61890W        W30295  10.885  38.964   1.377
61891W        W30296  18.952  43.458   0.953
61892W        W30297   3.367   9.712  10.511
61893W        W30298  15.171  12.740   2.937
61894W        W30299  34.310  22.053   0.025
61895W        W30300  14.805  26.057   3.733
61896W        W30301  11.298   2.496   0.785
61897W        W30302  13.799  43.294  14.472
61898W        W30303  15.160  30.001   1.633
61899W        W30304  11.802  42.869  12.102
61900W        W30305  42.023  38.191   1.921
61901W        W30306  43.292  26.717   3.881
61902W        W30307  18.538   8.307  12.940
61903W        W30308  32.257   4.664  13.005
61904W        W30309  44.739  39.207  12.395
61905W        W30310  23.734   4.923  13.413
61906W        W30311  42.208  11.669   3.376
61907W        W30312  22.577  31.241  14.064
61908W        W30313  36.167  16.688  14.410
61909W        W30314  26.119  33.867   4.198
61910W        W30315   4.344   9.543  10.596
61911W        W30316  34.595  42.218  11.659
61912W        W30317   8.480   4.181   3.089
61913W        W30318  11.366  24.115  13.008
61914W        W30319  17.559  28.272   4.010
61915W        W30320  26.642  28.078   2.331
61916W        W30321  30.596   8.328   1.409
61917W        W30322  30.364  31.712   0.852
61918W        W30323  44.142  33.323   4.126
61919W        W30324  18.818   1.709  12.582
61920W        W30325  42.286   2.248   4.526
61921W        W30326  28.849  25.832   1.797
61922W        W30327  19.509   8.989  13.071
61923W        W30328  15.555  30.948  10.314
61924W        W30329  15.173   0.291   3.603
61925W        W30330  34.163   5.487   2.677
61926W        W30331  22.054  37.137   1.744
61927W        W30332  30.915   1.039  13.663
61928W        W30333  36.900   2.395   0.007
61929W        W30334  26.849  38.889   4.936
61930W        W30335  41.803  21.266  13.111
61931W        W30336  39.445  33.663   0.756
61932W        W30337  16.065   1.874  14.049
61933W        W30338  29.569  19.152   0.342
61934W        W30339  36.895   9.880  14.763
61935W        W30340  40.949  33.584   1.008
61936W        W30341  40.864  16.105  12.170
61937W        W30342  42.863   4.718  10.688
61938W        W30343  22.004  27.270   1.467
61939W        W30344  37.974  36.593   0.351
61940W        W30345  19.430  33.020  12.854
61941W        W30346  10.443  40.915  14.507
61942W        W30347  12.199   1.553   0.381
61943W        W30348  42.938   2.818   1.936
61944W        W30349  19.575  30.727  11.546
61945W        W30350  10.856   8.237   3.170
61946W        W30351  40.514  38.875  14.486
61947W        W30352  11.605  15.523   1.177
61948W        W30353  42.623  28.550   2.480
61949W        W30354  22.090  42.264  10.684
61950W        W30355   0.606  16.780   4.822
61951W        W30356  22.977  12.113   0.441
61952W        W30357  31.979  20.699   4.917
61953W        W30358   3.381  43.469  11.023
61954W        W30359  12.883  16.038   1.285
61955W        W30360  30.042  27.442   4.241
61956W        W30361  23.495  35.538   4.687
61957W        W30362  43.570  35.382   1.876
61958W        W30363  40.854  15.307   3.720
61959W        W30364  20.726   7.213   3.686
61960W        W30365  37.437  12.357  13.375
61961W        W30366  12.129  32.510   0.730
61962W        W30367  19.482   7.385   0.411
61963W        W30368  44.257  39.410  12.434
61964W        W30369  30.851   3.304   0.729
61965W        W30370   0.230  36.380   2.392
61966W        W30371  23.061  19.547   3.645
61967W        W30372  18.687   6.687   4.751
61968W        W30373  31.675  43.558  14.819
61969W        W30374  17.117   1.685  11.925
61970W        W30375  11.261  23.635   4.373
61971W        W30376  12.477  42.660  12.987
61972W        W30377  42.517  17.523  14.364
61973W        W30378  30.381  34.008   2.191
61974W        W30379  39.992  34.183   4.124
61975W        W30380  14.739  13.755   4.726
61976W        W30381   7.568  23.638   0.474
61977W        W30382  32.264  26.381   4.403
61978W        W30383  20.304  20.515  10.550
61979W        W30384  20.270  32.608   0.976
61980W        W30385  37.442   9.028   4.816
61981W        W30386  24.178  15.300  11.824
61982W        W30387   6.067  13.773  14.859
61983W        W30388  13.192  44.364  13.529
61984W        W30389  11.758  23.045   1.733
61985W        W30390  20.986   8.154  13.456
61986W        W30391  22.211  36.010  11.666
61987W        W30392  41.935  30.344  12.917
61988W        W30393  17.618  14.201  11.105
61989W        W30394  28.893  21.669   4.383
61990W        W30395   3.333  33.380   1.822
61991W        W30396  28.654  21.323   1.972
61992W        W30397  11.419  35.051   3.759
61993W        W30398  14.021   1.205  11.574
61994W        W30399   5.974   1.053  10.988
61995W        W30400  22.799  42.775  13.546
61996W        W30401  16.692  39.574   2.584
61997W        W30402   9.309  30.816   2.864
61998W        W30403  20.832  23.034   3.373
61999W        W30404  41.841  27.133   4.323
62000W        W30405  14.855  20.222  11.032
62001W        W30406  42.836  30.421  10.775
62002W        W30407  22.084  32.293   0.275
62003W        W30408  21.582  11.260   4.184
62004W        W30409   2.431  40.049   2.851
62005W        W30410  26.909  26.636  14.356
62006W        W30411  28.900  19.094  12.429
62007W        W30412  29.361  37.057  10.511
62008W        W30413  44.955  19.271   0.894
62009W        W30414  10.610  23.015   4.537
62010W        W30415  24.050   1.974   0.832
62011W        W30416   8.846   3.947   0.913
62012W        W30417  18.220   0.487   3.751
62013W        W30418  25.519   7.174   3.212
62014W        W30419  14.487  10.739   3.336
62015W        W30420  41.295   8.220   4.798
62016W        W30421  29.449  28.499   3.251
62017W        W30422  19.543  36.412   1.714
62018W        W30423   1.476  34.493   2.377
62019W        W30424  30.966  26.963  12.615
62020W        W30425  23.345  28.604   0.938
62021W        W30426   4.107  23.833   0.854
62022W        W30427   6.654  17.300   0.375
62023W        W30428  41.437   7.008   3.232
62024W        W30429   5.764  31.612   1.888
62025W        W30430  16.721   0.021   1.415
62026W        W30431  10.261  23.802   0.725
62027W        W30432  36.515   3.030   1.284
62028W        W30433  33.523   4.543  11.460
62029W        W30434  12.880  10.486  11.540
62030W        W30435  40.819   0.636  12.377
62031W        W30436  44.276  31.887  12.163
62032W        W30437  27.144   4.604   9.951
62033W        W30438  27.518  12.407   0.948
62034W        W30439  37.977   7.746   4.484
62035W        W30440  21.931  36.080   0.444
62036W        W30441  12.105  18.063  12.055
62037W        W30442  15.353   4.922  12.615
62038W        W30443   4.924   7.264   4.822
62039W        W30444  28.272  42.467  13.283
62040W        W30445   0.761  31.602   2.320
62041W        W30446  14.752  22.201  14.338
62042W        W30447   9.825  24.566   3.919
62043W        W30448  29.064   8.751  10.954
62044W        W30449   9.985  23.873   1.399
62045W        W30450  41.719  15.366   0.931
62046W        W30451   1.936   2.163  11.954
62047W        W30452  40.463   4.255   0.722
62048W        W30453  36.394  36.129  11.732
62049W        W30454  13.275  15.725  11.680
62050W        W30455  10.949  20.127   4.101
62051W        W30456  28.990  36.966  12.847
62052W        W30457  21.427  36.704  11.928
62053W        W30458  23.247  24.712  10.627
62054W        W30459  27.486  13.727  14.379
62055W        W30460  22.663  35.346  14.379
62056W        W30461  31.699  25.921  13.442
62057W        W30462  30.644  38.117  12.478
62058W        W30463  31.873  40.862  13.390
62059W        W30464   8.309  20.545   0.918
62060W        W30465  25.204   4.402  13.439
62061W        W30466  29.036  12.183  11.718
62062W        W30467  43.989  33.890   1.398
62063W        W30468  31.775  24.948   1.715
62064W        W30469  38.910   5.246   0.030
62065W        W30470   0.141  33.672   2.365
62066W        W30471   0.817  37.936  13.374
62067W        W30472  32.498  21.002   2.864
62068W        W30473  44.866  12.351  13.335
62069W        W30474   1.649  15.264  11.180
62070W        W30475  11.480  42.475   0.061
62071W        W30476  22.107   3.626  12.027
62072W        W30477  31.035  28.700   4.629
62073W        W30478  25.553  13.889  10.593
62074W        W30479   9.280  36.193   2.706
62075W        W30480  31.854  22.475   2.403
62076W        W30481  32.637  21.829   0.529
62077W        W30482  35.768  42.444   0.913
62078W        W30483   1.192  33.073   2.724
62079W        W30484   4.186  35.140   4.911
62080W        W30485  27.621   0.821   1.332
62081W        W30486  34.548  35.521   0.058
62082W        W30487  33.514  16.321  11.695
62083W        W30488  19.222  38.984  14.347
62084W        W30489  37.385  10.836  12.048
62085W        W30490   4.829   8.386   1.883
62086W        W30491  39.448  38.321   2.639
62087W        W30492  34.075  40.856  13.848
62088W        W30493  33.505  18.950  10.791
62089W        W30494  11.792  31.436  11.487
62090W        W30495  29.671  36.063   3.332
62091W        W30496  27.728  21.752   2.702
62092W        W30497  29.084  12.890  11.002
62093W        W30498  13.503  25.130   1.734
62094W        W30499  13.763   3.345  13.063
62095W        W30500  40.582   9.696   3.034
62096W        W30501   6.745  38.543  12.992
62097W        W30502  31.057  32.706  11.873
62098W        W30503  37.006  28.020   4.665
62099W        W30504  30.050  36.387   3.593
62100W        W30505  26.657   9.401   1.448
62101W        W30506  37.068   3.213   3.495
62102W        W30507  29.249  17.548  13.875
62103W        W30508  33.614  33.036  10.354
62104W        W30509  26.496  16.032  14.013
62105W        W30510   4.620  27.620  12.307
62106W        W30511  34.358   3.169  12.125
62107W        W30512   6.340  22.647  13.781
62108W        W30513  24.922  20.238   3.796
62109W        W30514  38.943  16.531   1.315
62110W        W30515  17.358  38.473  11.563
62111W        W30516  19.509  16.244   0.342
62112W        W30517   2.977   6.675  12.648
62113W        W30518   2.801  22.764  11.225
62114W        W30519  35.109  28.645  12.443
62115W        W30520  34.137  34.948   3.950
62116W        W30521  37.447  15.075  13.930
62117W        W30522  40.102  43.273   4.129
62118W        W30523  41.954  44.924  11.367
62119W        W30524   9.309   7.831   4.343
62120W        W30525   4.704  27.328   3.993
62121W        W30526   9.668  15.113  11.229
62122W        W30527  35.538  34.634   0.847
62123W        W30528  18.321  31.112  12.654
62124W        W30529  32.660  43.711   1.784
62125W        W30530  17.287  25.950  11.880
62126W        W30531  25.465  43.484  10.648
62127W        W30532   3.199   9.826   4.416
62128W        W30533  31.000   2.259   0.958
62129W        W30534  32.452   7.175  11.531
62130W        W30535  31.707  25.573   1.020
62131W        W30536   8.409  25.576   0.373
62132W        W30537  35.312   5.769  12.546
62133W        W30538   5.687  43.326  11.171
62134W        W30539  36.374  30.106  14.897
62135W        W30540   5.501   9.199   0.867
62136W        W30541  11.856   5.651  13.933
62137W        W30542  11.944  15.607  12.388
62138W        W30543  13.731   5.915   4.059
62139W        W30544  10.115  14.406  10.891
62140W        W30545  18.012  43.907   3.771
62141W        W30546  23.298  33.099  13.730
62142W        W30547   6.769  42.402   1.058
62143W        W30548   5.480  13.597  13.605
62144W        W30549  22.418  42.124   1.345
62145W        W30550  21.633  38.874  12.329
62146W        W30551  36.546  31.851  11.535
62147W        W30552   6.483   1.280   0.695
62148W        W30553  37.891  17.995   1.291
62149W        W30554  18.716  19.615   1.285
62150W        W30555   2.757  17.513   1.372
62151W        W30556  44.953  30.548   3.658
62152W        W30557   2.435  27.149   0.765
62153W        W30558  13.532  36.494   0.411
62154W        W30559   3.354  23.997   0.778
62155W        W30560  21.010  17.809   0.285
62156W        W30561  20.322  29.190   4.398
62157W        W30562   9.601  21.144  13.594
62158W        W30563  30.066   9.642  10.818
62159W        W30564  31.577   2.118  13.036
62160W        W30565  35.525  39.342   2.253
62161W        W30566  22.110  11.649  11.985
62162W        W30567  17.258  16.065  12.513
62163W        W30568  35.317  24.093  14.428
62164W        W30569  43.555   0.875   0.899
62165W        W30570   2.425   0.282  10.674
62166W        W30571  24.027   7.539  12.441
62167W        W30572   4.332  28.181  14.398
62168W        W30573  35.376   4.726   3.719
62169W        W30574  14.952  31.536  11.468
62170W        W30575  31.599   5.250   2.612
62171W        W30576  29.147  42.057  14.729
62172W        W30577  33.031  10.833  13.115
62173W        W30578  21.860  33.941   2.731
62174W        W30579  22.476  42.397  13.453
62175W        W30580  26.201  44.336   0.729
62176W        W30581  16.693  23.818   2.792
62177W        W30582  19.864  34.960  11.470
62178W        W30583  29.077  36.433   3.271
62179W        W30584   8.186  27.653  12.873
62180W        W30585   9.667  29.662   3.544
62181W        W30586  19.065  35.981   4.801
62182W        W30587  23.680  38.117   0.680
62183W        W30588  17.065  36.397  10.267
62184W        W30589  22.956  38.444  13.053
62185W        W30590  34.600   9.604   1.456
62186W        W30591  34.061  17.079   3.171
62187W        W30592  33.395   5.819   3.820
62188W        W30593   0.312  24.289   2.941
62189W        W30594  27.438   1.778  14.291
62190W        W30595   1.336  24.618  12.502
62191W        W30596  12.312  40.316  12.034
62192W        W30597   0.314  27.617   2.199
62193W        W30598  33.885  40.717   1.821
62194W        W30599  34.152  41.428  10.989
62195W        W30600  22.768  12.776   3.320
62196W        W30601  41.985  22.263  11.046
62197W        W30602  26.631   1.345  14.028
62198W        W30603  24.762  20.737   2.873
62199W        W30604   0.999  39.427  13.897
62200W        W30605   1.261  12.509   0.261
62201W        W30606  26.440  36.904  14.853
62202W        W30607   0.181  43.815   4.355
62203W        W30608  30.404   2.809   2.359
62204W        W30609  25.241  13.573   0.675
62205W        W30610   9.568   5.224   3.451
62206W        W30611  18.318  25.217  12.440
62207W        W30612  29.200  37.412  12.603
62208W        W30613  40.450  11.122  13.935
62209W        W30614   9.010  26.078   3.352
62210W        W30615   6.921  43.480  12.038
62211W        W30616  29.604   8.133   0.800
62212W        W30617   0.328  22.580   2.401
62213W        W30618   9.803  42.909   2.769
62214W        W30619   3.313  29.112  11.925
62215W        W30620  42.733   4.793   0.210
62216W        W30621   7.199  17.616  11.917
62217W        W30622   3.251   3.229   1.386
62218W        W30623  25.501  38.311  13.782
62219W        W30624  23.863  21.166   2.585
62220W        W30625  30.152   6.898  14.783
62221W        W30626  16.588  17.350  13.091
62222W        W30627   8.862  29.752  11.969
62223W        W30628   1.737  31.890  12.533
62224W        W30629  32.995  25.455   1.677
62225W        W30630  18.763   8.662   0.958
62226W        W30631  10.442  18.075  13.506
62227W        W30632  14.652  19.188   1.867
62228W        W30633  12.754  14.475  11.793
62229W        W30634  14.150  29.975  14.616
62230W        W30635  37.380  20.526  10.834
62231W        W30636  11.678  43.767  11.586
62232W        W30637  11.908  34.110   1.812
62233W        W30638  13.752  43.528   4.584
62234W        W30639  40.407  41.349  13.930
62235W        W30640  13.450  34.090  12.823
62236W        W30641  34.939  17.844   3.717
62237W        W30642   9.696  26.991   5.089
62238W        W30643  13.908  10.152   4.291
62239W        W30644  35.955  40.018   0.703
62240W        W30645   6.031   4.749  11.231
62241W        W30646  19.543  39.185   3.696
62242W        W30647  29.112  30.174  11.180
62243W        W30648   1.157  41.063   3.759
62244W        W30649  37.955  22.462  11.601
62245W        W30650  30.822   3.270   1.707
62246W        W30651  17.690   8.902   1.808
62247W        W30652  15.282   7.910  14.756
62248W        W30653   2.429  43.203  10.293
62249W        W30654  15.248  38.261  10.688
62250W        W30655   2.643   6.447  13.920
62251W        W30656  16.010  25.916  14.317
62252W        W30657  32.504  16.188   0.671
62253W        W30658  44.380  25.068  12.868
62254W        W30659  12.739  39.940   2.908
62255W        W30660  39.959  13.511   2.806
62256W        W30661  18.482   6.709   4.287
62257W        W30662  16.152  33.084  13.417
62258W        W30663  10.553   2.550  14.918
62259W        W30664  42.830   8.678   3.735
62260W        W30665   1.911  37.961  11.886
62261W        W30666  42.790  22.545  12.970
62262W        W30667   1.455  30.634  14.362
62263W        W30668  37.585   3.496   3.543
62264W        W30669  21.663  23.765   2.748
62265W        W30670  32.482  41.811  12.428
62266W        W30671  30.260  16.030  12.623
62267W        W30672   1.149  37.993  14.790
62268W        W30673   2.147  10.274   0.470
62269W        W30674  10.563   8.597   1.222
62270W        W30675  41.554  30.206  14.100
62271W        W30676  15.345   2.824  14.858
62272W        W30677  18.104  20.507   0.787
62273W        W30678   6.108   6.852  11.617
62274W        W30679  37.115   9.902  13.115
62275W        W30680   1.417  25.942   3.372
62276W        W30681   1.901  14.611  14.803
62277W        W30682   0.006  37.660  13.882
62278W        W30683  34.973  26.631   4.928
62279W        W30684  14.784  10.599   0.238
62280W        W30685  36.858  14.227   2.841
62281W        W30686  37.397  20.635   3.192
62282W        W30687  41.291  22.686  12.484
62283W        W30688  21.792  17.362   0.365
62284W        W30689   4.938  26.981  11.560
62285W        W30690   1.407  37.468   0.962
62286W        W30691  24.770   9.397   1.344
62287W        W30692  28.295  34.553  13.295
62288W        W30693   1.470  23.042  13.510
62289W        W30694  16.078   5.512  13.031
62290W        W30695  11.029  17.199  14.361
62291W        W30696  42.068  18.376   3.213
62292W        W30697  20.721   8.716   0.717
62293W        W30698  39.640  29.512   0.972
62294W        W30699  19.368  38.437   4.257
62295W        W30700  21.967  13.856   2.159
62296W        W30701  24.931   3.473   5.056
62297W        W30702  31.003  31.305   3.461
62298W        W30703  34.916   5.861  13.923
62299W        W30704  29.553  27.741   1.881
62300W        W30705  18.393  32.560  12.276
62301W        W30706  18.843  27.827   5.032
62302W        W30707  15.042  35.479   4.156
62303W        W30708  12.390  39.302  12.006
62304W        W30709   4.002   5.673   3.845
62305W        W30710  38.070   6.958   4.525
62306W        W30711  20.058   7.747   3.332
62307W        W30712  27.046  18.008  13.730
62308W        W30713  22.503  21.520  12.156
62309W        W30714  35.291   4.584  13.749
62310W        W30715   7.946  36.496   0.921
62311W        W30716  38.405   1.308   2.988
62312W        W30717  32.351  10.430   4.565
62313W        W30718   9.152  38.315  11.088
62314W        W30719  11.332   6.220  12.936
62315W        W30720  10.365   8.295   2.928
62316W        W30721  15.774   4.713   4.336
62317W        W30722   1.882  18.519   4.728
62318W        W30723  19.875  43.515  14.072
62319W        W30724  32.214   7.986  11.498
62320W        W30725   3.140  27.458  10.708
62321W        W30726  19.524  30.398   4.528
62322W        W30727  17.624  38.837   3.674
62323W        W30728  13.973  36.127   3.468
62324W        W30729  25.112  31.159   2.342
62325W        W30730  34.549   9.909  13.803
62326W        W30731  34.261  43.646  11.834
62327W        W30732  39.114  43.945  11.199
62328W        W30733  28.556  27.582   3.938
62329W        W30734  38.648  42.247  11.034
62330W        W30735   4.189  19.852  13.041
62331W        W30736  14.523   2.364  14.703
62332W        W30737  28.587  13.796   3.898
62333W        W30738  43.694  18.112   3.887
62334W        W30739  30.112  25.504  12.022
62335W        W30740  12.681   2.237  14.460
62336W        W30741  11.346  31.772  11.549
62337W        W30742   6.625  37.322   2.212
62338W        W30743  28.781  19.758  10.113
62339W        W30744   6.520  31.794  13.971
62340W        W30745  21.838  27.100  11.586
62341W        W30746  33.569  12.320   4.497
62342W        W30747   1.385  44.819   3.874
62343W        W30748  15.187  37.361  11.770
62344W        W30749  31.171  15.880  10.306
62345W        W30750  12.431  42.030  14.081
62346W        W30751   8.334  22.752   3.788
62347W        W30752  26.721  34.461   0.112
62348W        W30753  16.748  29.184   0.947
62349W        W30754   9.185  39.587   3.287
62350W        W30755   4.268  40.153  13.833
62351W        W30756  12.191  36.774   1.841
62352W        W30757  13.868  30.326   4.170
62353W        W30758  37.270  37.392  14.912
62354W        W30759  23.549  27.068  13.953
62355W        W30760  31.471  10.715   3.089
62356W        W30761  34.622  22.674   4.098
62357W        W30762  31.452  11.187  12.814
62358W        W30763  11.826  43.552   0.861
62359W        W30764  25.150   9.427  12.699
62360W        W30765  17.734  27.699   0.507
62361W        W30766  15.025  19.523  12.052
62362W        W30767  28.622   3.441  11.008
62363W        W30768  22.204   5.298  13.791
62364W        W30769  12.846  35.725  13.742
62365W        W30770  18.700  41.281   5.236
62366W        W30771   0.504  16.239  11.158
62367W        W30772   4.758  22.313   1.242
62368W        W30773  15.156   2.321   2.171
62369W        W30774  26.729  21.114  12.277
62370W        W30775  44.435  17.234  13.767
62371W        W30776  42.137  44.649  10.988
62372W        W30777  22.134  30.703  13.161
62373W        W30778  21.788  17.473   2.553
62374W        W30779  42.246  32.422   1.489
62375W        W30780  40.221  18.440  13.324
62376W        W30781   5.761  28.726  14.028
62377W        W30782  34.934  25.510  12.421
62378W        W30783  20.511  41.242  10.746
62379W        W30784  15.688  35.331  14.341
62380W        W30785  30.633  30.964   3.640
62381W        W30786  23.769   0.872  14.079
62382W        W30787  29.064  35.624  12.957
62383W        W30788  23.057  28.753  13.667
62384W        W30789  34.078   7.208   4.177
62385W        W30790   7.805   5.975  10.299
62386W        W30791   6.254  30.618   3.718
62387W        W30792  19.762  35.694  11.981
62388W        W30793  20.722  14.674  14.099
62389W        W30794  39.109   5.568  12.397
62390W        W30795  34.907  19.284  12.047
62391W        W30796  10.915  28.583  12.490
62392W        W30797  40.351   0.705  14.045
62393W        W30798   4.801  11.079  12.066
62394W        W30799  23.148   6.717   4.347
62395W        W30800  39.163  26.070   0.365
62396W        W30801  15.258   0.471   1.784
62397W        W30802   1.909   3.724  12.903
62398W        W30803  32.929   5.043  12.622
62399W        W30804  26.047  39.376  12.744
62400W        W30805   8.953  33.825   2.128
62401W        W30806  33.019  14.193  11.550
62402W        W30807  16.004  15.374  12.351
62403W        W30808   8.676  23.162  10.461
62404W        W30809  37.441  36.606  12.412
62405W        W30810  20.623  21.963  14.630
62406W        W30811  12.099   2.935  14.874
62407W        W30812  32.308  40.449  14.037
62408W        W30813  34.059  43.488   4.219
62409W        W30814   1.236  32.630  12.900
62410W        W30815   4.309  44.870   4.636
62411W        W30816  36.149  31.385  14.052
62412W        W30817  10.997  18.101  13.464
62413W        W30818   9.140  32.271   3.559
62414W        W30819  20.231   1.471  12.405
62415W        W30820   4.947   6.187   4.175
62416W        W30821  27.448  34.546  14.333
62417W        W30822  20.177  29.587   1.805
62418W        W30823   1.634  26.472   4.050
62419W        W30824   3.316  29.486  12.905
62420W        W30825  19.017   5.273  12.074
62421W        W30826  23.983  11.108   4.285
62422W        W30827  36.327  28.244  13.891
62423W        W30828  41.000  18.856  14.260
62424W        W30829   6.703   9.819  13.862
62425W        W30830  31.703  16.650   4.060
62426W        W30831   3.480  26.365  13.777
62427W        W30832  28.865  40.278  12.219
62428W        W30833   8.975   2.261   3.040
62429W        W30834  23.750  37.610  10.772
62430W        W30835  23.186  17.657   4.837
62431W        W30836   1.457  40.149  12.078
62432W        W30837   8.612  33.901  13.942
62433W        W30838  19.276  30.920   4.052
62434W        W30839  40.746  11.313   1.798
62435W        W30840   0.231  42.958  10.301
62436W        W30841  43.878  33.193   2.113
62437W        W30842  16.643  39.074   2.757
62438W        W30843  34.647  20.382  13.939
62439W        W30844  36.981  18.067   1.755
62440W        W30845  12.359  25.435  11.417
62441W        W30846   0.450  42.286   3.259
62442W        W30847  15.706  42.638   4.596
62443W        W30848  17.827  36.450   1.231
62444W        W30849  28.941   7.099   3.860
62445W        W30850  21.482  44.366  12.508
62446W        W30851  32.411  32.220   5.268
62447W        W30852  14.519  35.882   0.790
62448W        W30853  31.559  34.970  11.384
62449W        W30854  38.844  16.059   1.144
62450W        W30855  25.677  21.612   2.733
62451W        W30856  22.644  29.151   1.001
62452W        W30857   3.486   6.814   2.405
62453W        W30858  19.485  31.080  11.174
62454W        W30859  37.553  30.387  11.690
62455W        W30860  24.340  36.370  12.429
62456W        W30861  25.013  10.631  10.580
62457W        W30862  15.534  33.883   2.179
62458W        W30863  15.285  16.716  13.254
62459W        W30864   0.950  15.154  10.587
62460W        W30865  10.685   0.997   0.685
62461W        W30866  34.482  26.580   2.149
62462W        W30867  20.444  44.946  10.997
62463W        W30868  40.479  30.459  14.902
62464W        W30869  11.112  42.890   1.244
62465W        W30870  19.536  22.717   0.910
62466W        W30871  43.320   7.350  11.092
62467W        W30872   6.428  12.637   1.133
62468W        W30873  36.416  16.611  13.934
62469W        W30874  41.590  21.225  11.227
62470W        W30875  13.354  41.189   4.962
62471W        W30876  36.514  12.740  14.278
62472W        W30877  16.782  26.929  14.815
62473W        W30878  25.480  35.780  12.456
62474W        W30879  35.950  33.819   0.753
62475W        W30880  33.530  43.283   1.739
62476W        W30881  30.040  35.867   2.244
62477W        W30882   6.064  22.137   0.004
62478W        W30883  25.243   4.828   3.147
62479W        W30884   6.944  32.656   1.891
62480W        W30885  33.203  42.392  13.130
62481W        W30886  28.963   6.120   1.337
62482W        W30887  43.868  23.582  12.987
62483W        W30888  13.919   3.086  14.781
62484W        W30889  11.593  10.328  14.409
62485W        W30890   6.573   3.826   3.201
62486W        W30891  15.387  37.334   3.806
62487W        W30892  42.168  23.964  12.592
62488W        W30893   7.235  29.965  11.521
62489W        W30894   1.545  12.267  14.887
62490W        W30895  22.119  40.360   3.745
62491W        W30896  26.869  24.027  13.137
62492W        W30897  32.479  18.368  14.899
62493W        W30898  27.074   3.412  12.623
62494W        W30899  21.611  35.966   2.913
62495W        W30900  29.780  32.196   4.285
62496W        W30901  15.955  39.840   2.203
62497W        W30902  16.513  30.796  13.496
62498W        W30903  38.835  40.422  11.982
62499W        W30904  15.041  18.733  10.898
62500W        W30905   5.405  32.390  13.894
62501W        W30906  38.610  23.016  11.692
62502W        W30907  17.678  44.506   2.168
62503W        W30908   3.759  17.143   3.300
62504W        W30909  19.463  43.840  14.234
62505W        W30910  21.201  40.392  12.152
62506W        W30911  36.056  37.813   1.382
62507W        W30912  19.158  21.442  11.191
62508W        W30913  20.205   8.929   2.899
62509W        W30914  24.855  11.360   3.396
62510W        W30915  24.757  12.282   3.289
62511W        W30916  24.155   4.040   3.205
62512W        W30917  30.348  11.844  11.181
62513W        W30918  12.317  19.788   2.297
62514W        W30919   0.220  42.238  14.375
62515W        W30920  36.854  14.109  12.460
62516W        W30921  34.013  31.119   0.217
62517W        W30922  18.975  18.826  12.469
62518W        W30923  24.016  12.090  12.846
62519W        W30924   5.216  21.633   4.531
62520W        W30925   3.472  39.649  13.837
62521W        W30926  28.312   1.876  12.101
62522W        W30927   3.527  27.257   3.278
62523W        W30928   3.215  40.278  12.562
62524W        W30929  21.035  25.641  12.400
62525W        W30930  10.820  31.600  10.873
62526W        W30931   5.258  33.996  13.493
62527W        W30932  21.087  18.515   4.021
62528W        W30933  26.498   7.382  10.770
62529W        W30934  34.331  23.300  13.136
62530W        W30935  34.843  17.010  13.732
62531W        W30936   5.905  17.847   3.719
62532W        W30937  43.100  13.535   1.616
62533W        W30938   3.824  44.809  11.581
62534W        W30939  11.753  30.986   3.769
62535W        W30940  11.873   4.910   1.687
62536W        W30941  24.988  37.018  14.002
62537W        W30942  13.285  36.872  14.333
62538W        W30943  35.791  10.201  11.537
62539W        W30944  13.932  43.561   0.845
62540W        W30945  44.476  39.219  11.938
62541W        W30946  36.988  12.078  13.293
62542W        W30947  29.184  30.440   4.155
62543W        W30948  21.523  22.533   4.987
62544W        W30949  28.161  10.842  11.694
62545W        W30950  32.117  37.106  13.345
62546W        W30951   9.261  14.579   9.672
62547W        W30952  14.578  14.058   2.850
62548W        W30953  23.608  16.534   1.482
62549W        W30954  33.793   3.742  11.600
62550W        W30955  25.234  24.572  12.023
62551W        W30956   7.698  31.907   3.865
62552W        W30957  11.234  10.419   0.365
62553W        W30958  31.482   2.733   0.654
62554W        W30959   1.544  39.392  13.868
62555W        W30960   1.709  34.446  12.992
62556W        W30961   9.717   8.163   4.308
62557W        W30962  28.556  24.741   4.084
62558W        W30963  30.858  32.158   4.337
62559W        W30964  24.260  30.354   3.616
62560W        W30965  26.081  26.872  10.417
62561W        W30966   1.334  18.496  14.565
62562W        W30967   1.647  10.187  13.474
62563W        W30968  36.832   6.451   9.895
62564W        W30969  44.812  39.972   3.420
62565W        W30970  43.470  13.720  12.006
62566W        W30971  42.972  40.255  11.693
62567W        W30972  20.183   7.227  12.017
62568W        W30973  37.429  32.478   4.104
62569W        W30974   9.212  26.736   4.109
62570W        W30975  20.237  12.148   0.013
62571W        W30976  35.326  33.508  11.470
62572W        W30977  42.282  17.079   4.781
62573W        W30978  44.599  20.209   0.487
62574W        W30979  12.202  43.875   2.988
62575W        W30980  19.617  12.845   3.058
62576W        W30981  28.782  37.464  14.309
62577W        W30982  31.923  22.529  14.830
62578W        W30983  35.534  16.608  12.641
62579W        W30984   0.734  23.949   0.178
62580W        W30985  40.381  17.262  11.156
62581W        W30986  41.416  27.983  11.544
62582W        W30987  22.573  18.170   4.604
62583W        W30988  23.517  15.661   1.832
62584W        W30989  22.350  43.512   2.778
62585W        W30990  34.832  14.105  12.457
62586W        W30991   8.011  24.572   3.440
62587W        W30992  34.694   7.809  12.970
62588W        W30993  31.121  12.948   3.702
62589W        W30994  10.147  10.923   1.170
62590W        W30995  15.558  12.898   0.543
62591W        W30996  24.516  19.616   1.752
62592W        W30997  32.360  20.246  14.808
62593W        W30998   2.833  36.958   2.771
62594W        W30999  29.591  12.830   2.673
62595W        W31000   4.436  19.608  13.509
62596W        W31001   4.594  11.444  10.288
62597W        W31002  22.133  41.284   3.693
62598W        W31003  26.938  37.676   0.266
62599W        W31004  17.006  23.310  13.852
62600W        W31005  33.513   9.189   3.776
62601W        W31006  44.377  35.318  11.155
62602W        W31007   4.342  35.766  12.624
62603W        W31008  38.355  43.702  12.515
62604W        W31009  44.491   1.707  13.456
62605W        W31010  41.730  20.456  14.778
62606W        W31011  15.679  37.408  14.949
62607W        W31012  44.535  37.275  14.767
62608W        W31013  34.961  26.234   4.583
62609W        W31014  26.970  12.642   0.382
62610W        W31015  34.719  31.978  14.064
62611W        W31016   6.093   8.644  13.844
62612W        W31017   3.014  39.344   4.213
62613W        W31018  26.151  34.641   1.798
62614W        W31019  35.518   8.002  11.205
62615W        W31020  22.958  21.480  11.293
62616W        W31021  27.751   1.495  11.673
62617W        W31022  11.780  35.964   4.733
62618W        W31023   1.970  11.720  11.089
62619W        W31024   3.274   0.260  14.447
62620W        W31025  26.845  44.339  10.764
62621W        W31026   1.768  11.716   2.588
62622W        W31027  23.980  39.518   0.040
62623W        W31028  30.184  19.822   4.363
62624W        W31029  28.348  30.512   0.224
62625W        W31030  39.614   9.109   1.012
62626W        W31031   4.428  36.919   0.221
62627W        W31032  16.637  22.108  10.656
62628W        W31033  12.122  26.281  10.983
62629W        W31034  34.838  24.447  12.450
62630W        W31035  33.860   2.190  12.480
62631W        W31036  30.975   5.175   0.035
62632W        W31037  28.962   1.443   4.295
62633W        W31038  23.280  14.352  14.846
62634W        W31039  26.154  42.306  10.676
62635W        W31040  14.170   6.982  12.566
62636W        W31041  28.671  33.807   0.393
62637W        W31042  11.275  21.140   2.137
62638W        W31043  42.260  17.142  12.375
62639W        W31044   5.117  38.911   2.863
62640W        W31045  34.921  39.863  12.532
62641W        W31046  11.775  42.590   2.189
62642W        W31047   9.920  23.705  14.006
62643W        W31048  44.894  28.577   2.151
62644W        W31049  20.324  31.769   1.612
62645W        W31050  37.794   2.359   1.726
62646W        W31051  25.179  11.599  12.607
62647W        W31052  39.628  29.529  14.959
62648W        W31053  15.701   4.838   4.836
62649W        W31054  35.918   6.596  10.578
62650W        W31055   8.458  32.585  12.900
62651W        W31056   1.961  16.735  11.449
62652W        W31057  22.017  20.869   2.649
62653W        W31058  20.226  22.883  12.442
62654W        W31059  32.189  18.619  11.965
62655W        W31060  28.996  20.647   0.409
62656W        W31061  19.562  19.688  13.337
62657W        W31062  23.987  23.132  12.016
62658W        W31063  27.915  26.630  11.681
62659W        W31064   6.576  13.844   0.030
62660W        W31065   3.935  36.438   4.498
62661W        W31066  42.284  32.885   4.119
62662W        W31067  15.241  28.730   4.638
62663W        W31068  30.114   9.855   4.844
62664W        W31069  41.333  28.475   0.904
62665W        W31070  38.286  29.179   4.024
62666W        W31071  43.994  23.062   3.200
62667W        W31072  26.643  12.214   1.325
62668W        W31073  28.610   3.956  11.116
62669W        W31074  33.517  22.678  14.786
62670W        W31075  27.959   0.811   2.764
62671W        W31076   2.216   1.478   2.706
62672W        W31077  12.630  27.434  14.910
62673W        W31078  24.111   8.379   3.126
62674W        W31079   5.331  19.836  10.436
62675W        W31080  27.658  20.701   0.052
62676W        W31081  12.668  36.409   0.839
62677W        W31082  32.020   2.282  13.864
62678W        W31083  41.056  26.730   0.054
62679W        W31084   7.586  16.248   3.805
62680W        W31085  20.698  17.659  11.707
62681W        W31086  41.557   8.464   4.432
62682W        W31087  31.822  35.049  12.518
62683W        W31088  10.112  23.941  12.517
62684W        W31089  44.150  41.422   1.713
62685W        W31090  29.594  13.631  10.526
62686W        W31091  35.420  25.218  13.510
62687W        W31092  24.221   1.711  11.163
62688W        W31093  21.252  31.397  11.582
62689W        W31094   9.922  23.525   3.761
62690W        W31095  20.516   7.719   4.623
62691W        W31096  29.479  23.104  11.093
62692W        W31097  35.326  28.946   1.418
62693W        W31098  30.811  16.324  10.186
62694W        W31099  20.814  17.787   1.174
62695W        W31100  15.279   2.671   3.638
62696W        W31101  10.108  21.167  10.613
62697W        W31102  35.569  17.601  13.491
62698W        W31103  16.081  40.873   2.741
62699W        W31104   9.803   7.465  13.821
62700W        W31105   5.677  23.482   0.474
62701W        W31106  38.993  33.392   0.726
62702W        W31107  21.702  25.644   3.053
62703W        W31108  12.549  39.640   2.511
62704W        W31109  22.296  38.892   2.768
62705W        W31110  19.493  19.652   4.198
62706W        W31111  37.587  18.417   3.643
62707W        W31112   3.818  22.762   3.953
62708W        W31113   5.419  37.304  10.586
62709W        W31114  11.851  43.071  13.042
62710W        W31115  30.710  22.249   3.300
62711W        W31116  13.915  28.455   2.753
62712W        W31117  39.853  24.101  14.042
62713W        W31118  37.414  17.206  14.094
62714W        W31119  40.509  27.893   2.887
62715W        W31120  16.365  13.668  13.079
62716W        W31121  26.065  13.176  12.656
62717W        W31122  19.547  39.366   2.287
62718W        W31123  10.065  27.077  12.043
62719W        W31124  22.688  13.899  14.336
62720W        W31125  42.729   2.776  13.510
62721W        W31126   2.381  27.929  11.431
62722W        W31127  18.801  28.476  13.088
62723W        W31128  37.166  11.214   3.622
62724W        W31129  11.733   0.183  10.384
62725W        W31130  14.768  34.817  13.498
62726W        W31131  29.975  23.192   0.789
62727W        W31132  42.906  31.297  11.281
62728W        W31133   1.743  25.571  12.667
62729W        W31134  17.235  44.764  14.401
62730W        W31135   7.443  30.469  11.549
62731W        W31136  32.039  26.618  11.306
62732W        W31137  42.449  34.922   4.584
62733W        W31138  19.413  21.178  10.694
62734W        W31139  16.230  41.844  11.172
62735W        W31140  17.199  40.068  11.473
62736W        W31141  23.337  35.750   1.326
62737W        W31142  16.640  17.296   3.378
62738W        W31143  28.644   8.416  11.131
62739W        W31144  37.869  12.561   3.274
62740W        W31145  16.952  33.478   4.001
62741W        W31146  25.685  26.652   4.079
62742W        W31147   6.089  17.699  14.305
62743W        W31148   0.954  34.968  11.440
62744W        W31149   5.697  38.489  12.141
62745W        W31150  12.258  44.407   0.806
62746W        W31151  31.200  18.161   2.553
62747W        W31152  16.846  36.597   2.779
62748W        W31153   8.206  43.935  13.342
62749W        W31154  23.620  35.024  10.844
62750W        W31155  36.502  23.778   4.475
62751W        W31156  14.284  30.332   4.878
62752W        W31157   4.551   4.280   1.488
62753W        W31158  31.010  28.166  12.107
62754W        W31159  37.585  36.312   4.166
62755W        W31160  11.424  34.938  11.112
62756W        W31161  29.144  21.628   1.260
62757W        W31162  14.410  30.453  11.185
62758W        W31163  27.071   0.273   1.949
62759W        W31164  13.313  18.678  13.801
62760W        W31165  24.120  38.344   1.390
62761W        W31166  13.160  29.126   0.950
62762W        W31167  43.910  10.369   3.760
62763W        W31168  39.069  16.973  10.410
62764W        W31169  10.281   3.374  13.637
62765W        W31170   9.879  13.640   0.247
62766W        W31171  12.854  44.306   0.398
62767W        W31172  28.969  39.967  11.599
62768W        W31173   5.469  21.145   3.641
62769W        W31174  33.880  39.285   2.613
62770W        W31175   2.080  27.537   1.755
62771W        W31176  22.207   3.203   4.564
62772W        W31177   6.438   0.830   0.312
62773W        W31178  28.959  30.397  10.750
62774W        W31179  10.764   7.891  14.912
62775W        W31180  32.578  39.405  12.539
62776W        W31181  35.587  10.794   2.751
62777W        W31182  29.912  24.704   2.826
62778W        W31183  42.992  24.363  12.377
62779W        W31184   5.984  20.084  13.968
62780W        W31185  34.984  18.316   3.897
62781W        W31186  21.462  34.637  10.666
62782W        W31187  28.656  21.705  12.551
62783W        W31188   3.569  40.672  11.134
62784W        W31189  26.144  30.598  12.566
62785W        W31190  14.649   7.138  10.629
62786W        W31191   4.898  20.119  10.829
62787W        W31192  12.204  13.434   0.831
62788W        W31193  28.728   7.687   1.377
62789W        W31194  22.489   0.956  10.604
62790W        W31195  13.385  17.259   2.763
62791W        W31196  26.749  38.733  14.310
62792W        W31197   0.858  33.562  11.030
62793W        W31198   4.666  33.960  14.524
62794W        W31199   6.059   5.757   0.027
62795W        W31200   7.180   2.797   1.748
62796W        W31201  13.872   0.805  14.213
62797W        W31202  25.424  29.102  11.511
62798W        W31203  27.465  21.510   4.054
62799W        W31204   8.950  34.272  14.104
62800W        W31205   0.014  22.100   4.502
62801W        W31206  22.096  38.805  13.004
62802W        W31207   4.280  32.854   1.318
62803W        W31208  14.550  34.642   1.275
62804W        W31209   3.866  13.154  13.786
62805W        W31210   1.946  43.389  12.991
62806W        W31211  44.039  17.158   3.526
62807W        W31212  32.232   3.632  10.608
62808W        W31213  34.515  25.598   2.582
62809W        W31214  31.858  18.384  10.213
62810W        W31215   9.923  20.320   1.212
62811W        W31216  42.288  17.738   0.128
62812W        W31217  26.388  40.750  13.833
62813W        W31218  26.772   2.454  11.443
62814W        W31219  26.145  26.272   3.306
62815W        W31220   6.157  27.600   2.751
62816W        W31221  13.031  39.287   3.341
62817W        W31222  11.386  38.495  13.804
62818W        W31223   3.671   7.804   4.535
62819W        W31224  31.988   0.545   3.708
62820W        W31225   0.884   5.425  14.136
62821W        W31226  42.779  29.702  13.836
62822W        W31227  15.240  43.945  11.571
62823W        W31228   8.814  42.703   2.774
62824W        W31229  40.862  10.631   3.115
62825W        W31230  18.560  30.003   0.531
62826W        W31231  39.165  14.300  10.674
62827W        W31232  14.585  34.621  13.041
62828W        W31233  15.599  29.209  14.050
62829W        W31234   4.756  42.779  10.383
62830W        W31235  44.948  30.208  11.626
62831W        W31236   2.731  11.348   0.329
62832W        W31237  28.608   1.431   2.503
62833W        W31238  42.012  20.219  12.298
62834W        W31239  44.296  24.195  14.892
62835W        W31240  22.432   3.391  11.421
62836W        W31241  18.288  25.564  10.221
62837W        W31242  33.415  23.013   4.381
62838W        W31243   4.285   5.160  10.793
62839W        W31244   7.492  15.731   4.529
62840W        W31245  42.695  15.719  13.446
62841W        W31246  26.727   5.152   1.768
62842W        W31247  15.829  19.987   2.152
62843W        W31248  23.250  38.025  11.522
62844W        W31249  37.632  23.085   2.895
62845W        W31250  38.393  35.848  11.927
62846W        W31251  29.993  14.615   2.198
62847W        W31252  23.259  23.119  13.846
62848W        W31253  33.098  10.567   3.205
62849W        W31254   9.871  15.592   3.139
62850W        W31255  31.989  27.639  11.694
62851W        W31256  19.562  31.565  11.079
62852W        W31257  18.285  30.581  12.067
62853W        W31258  35.922  12.398  12.033
62854W        W31259   7.739  32.467  11.155
62855W        W31260  42.772  40.118  13.956
62856W        W31261  40.846  43.423  13.973
62857W        W31262  38.647  34.879  11.709
62858W        W31263  31.407  40.219   4.231
62859W        W31264  16.240  39.408   2.838
62860W        W31265  30.706  30.613   0.931
62861W        W31266  38.385   7.218   3.350
62862W        W31267  36.579  29.097   0.341
62863W        W31268   7.424   8.838  10.775
62864W        W31269   4.218  12.164  14.365
62865W        W31270  31.216   5.923  11.648
62866W        W31271  41.353  35.406  12.583
62867W        W31272  14.378   2.952   0.183
62868W        W31273  40.805  22.796   1.749
62869W        W31274  12.001   7.790   2.296
62870W        W31275  17.097   3.309   2.832
62871W        W31276  44.479   8.629  12.903
62872W        W31277   1.393  41.533  14.975
62873W        W31278   0.959   6.306  12.037
62874W        W31279  13.755  32.392  12.435
62875W        W31280  27.522  15.835   9.957
62876W        W31281  39.454  39.200  13.665
62877W        W31282  25.419  32.503  11.182
62878W        W31283  43.790   4.092   3.746
62879W        W31284  43.524  19.836   0.861
62880W        W31285  27.582  35.072   1.188
62881W        W31286   2.597  25.525   1.504
62882W        W31287  37.920  31.601  12.020
62883W        W31288  16.498  39.776   0.017
62884W        W31289  21.537  35.855   3.842
62885W        W31290  20.452  31.005   1.636
62886W        W31291   2.251   1.317  11.903
62887W        W31292  30.531   6.782   3.085
62888W        W31293  17.838  26.472   3.662
62889W        W31294   8.901   4.589  13.737
62890W        W31295  31.391  32.722  13.607
62891W        W31296  23.963  27.510   3.718
62892W        W31297   0.714   0.362   1.866
62893W        W31298  13.040  36.986  13.872
62894W        W31299  15.483  30.926   0.683
62895W        W31300  15.717  20.093  11.988
62896W        W31301  11.707  35.061  14.941
62897W        W31302  44.399  20.461   0.884
62898W        W31303   0.575  20.203   1.626
62899W        W31304  22.575  13.518   3.909
62900W        W31305  12.346  28.217   1.858
62901W        W31306  29.052  16.046   2.171
62902W        W31307  14.331  27.048   1.345
62903W        W31308  22.003  33.418   4.309
62904W        W31309   7.578   3.551   4.098
62905W        W31310  31.154  41.515  10.646
62906W        W31311  10.280  41.184   5.090
62907W        W31312   4.015  27.483   3.334
62908W        W31313   9.905   6.217   2.085
62909W        W31314  10.567  30.629   4.523
62910W        W31315  22.554  14.843  14.284
62911W        W31316  29.214   8.085   3.307
62912W        W31317   1.574  28.662  13.348
62913W        W31318  36.881  20.757   2.245
62914W        W31319  27.990  30.348   3.417
62915W        W31320  15.642  42.769  13.730
62916W        W31321  11.008  33.048  10.715
62917W        W31322   7.408  42.326  12.192
62918W        W31323  28.670  12.667   0.769
62919W        W31324  16.727  14.398  13.083
62920W        W31325  34.652   2.850  14.056
62921W        W31326  36.062  17.936  12.528
62922W        W31327  11.855  25.594  13.924
62923W        W31328   9.383  19.845  10.714
62924W        W31329   7.314  25.683   1.395
62925W        W31330  11.791  44.892  12.801
62926W        W31331   1.902  33.797  13.807
62927W        W31332  25.183  24.308   2.261
62928W        W31333   5.548  14.426   2.001
62929W        W31334  24.607   3.995  14.981
62930W        W31335  37.661  27.831   4.193
62931W        W31336  38.939  18.083   1.722
62932W        W31337  40.803   6.602  10.505
62933W        W31338  34.489  21.172   1.799
62934W        W31339  10.149   6.441   1.689
62935W        W31340  13.336  39.888   2.280
62936W        W31341   3.989  14.817  10.909
62937W        W31342  21.073   4.479   4.518
62938W        W31343  37.564   9.757  12.912
62939W        W31344  18.028  43.841  14.793
62940W        W31345   1.900  13.725   2.123
62941W        W31346  14.817   0.985   2.241
62942W        W31347   0.761  40.351   0.430
62943W        W31348  30.152  16.130  13.806
62944W        W31349  39.302  31.668  12.809
62945W        W31350  44.845  41.473   2.674
62946W        W31351  12.677  22.786   0.505
62947W        W31352  16.803  36.307  14.980
62948W        W31353  15.055  33.089  12.108
62949W        W31354  26.250  14.672   0.884
62950W        W31355   8.208   5.381   3.777
62951W        W31356  33.362  44.851  14.407
62952W        W31357   3.368  41.889  11.928
62953W        W31358   9.596  27.188   2.362
62954W        W31359  24.672   9.343  12.545
62955W        W31360  27.617  15.403   0.807
62956W        W31361   8.330  39.230  12.673
62957W        W31362  30.104  37.917  14.061
62958W        W31363  34.391  17.209   4.276
62959W        W31364  24.290  44.616  14.043
62960W        W31365  41.632  22.288  12.351
62961W        W31366  38.931  24.393   4.949
62962W        W31367  36.237   6.536   3.201
62963W        W31368   7.275  31.815   1.628
62964W        W31369  32.103   9.178  12.630
62965W        W31370   6.490   2.940  14.277
62966W        W31371   2.030  10.172   4.065
62967W        W31372  11.204  43.372  12.137
62968W        W31373  13.772  39.030  11.209
62969W        W31374  44.565  39.046   0.963
62970W        W31375  15.281   6.199  13.147
62971W        W31376  34.697  12.462   0.484
62972W        W31377  40.770  36.742  11.233
62973W        W31378  23.712  36.877  13.413
62974W        W31379  43.573  29.571  12.698
62975W        W31380   7.180  10.465  10.807
62976W        W31381  14.779  26.658   0.524
62977W        W31382  41.899  44.548   2.198
62978W        W31383  40.948  42.594   0.736
62979W        W31384  36.838   6.254  13.676
62980W        W31385   0.396  41.899   4.514
62981W        W31386  17.639  34.355  13.379
62982W        W31387  44.495  14.343  13.669
62983W        W31388  38.857  11.583  14.569
62984W        W31389   4.899  16.781   2.730
62985W        W31390   3.418  16.327  11.619
62986W        W31391  12.180  22.043  10.738
62987W        W31392  32.381  43.977  11.262
62988W        W31393  40.131  12.810  10.974
62989W        W31394   5.216  27.669  11.640
62990W        W31395  19.214   9.506   4.524
62991W        W31396  42.543  23.614  13.385
62992W        W31397  29.641  36.675  12.471
62993W        W31398  40.373   5.864  13.391
62994W        W31399  29.025  14.264   1.243
62995W        W31400  16.092   5.375  14.264
62996W        W31401  30.652   6.410  11.931
62997W        W31402   1.680   2.487  11.629
62998W        W31403  29.932  32.059  11.568
62999W        W31404   4.975  38.510   1.605
63000W        W31405  20.576  42.552  12.845
63001W        W31406  40.001   1.080  14.052
63002W        W31407  15.390   8.730   3.482
63003W        W31408  33.947  26.151  11.252
63004W        W31409  35.611  42.513  10.725
63005W        W31410  23.220   0.402  12.546
63006W        W31411   3.643  20.593  12.770
63007W        W31412   9.537  23.788  13.018
63008W        W31413  37.320  19.366   4.064
63009W        W31414   7.157   6.975  11.232
63010W        W31415  19.266  32.324  10.717
63011W        W31416  12.943  19.233  11.051
63012W        W31417   3.403  43.293   4.845
63013W        W31418  30.748   9.754  12.245
63014W        W31419   6.410  43.270  13.202
63015W        W31420  26.587  27.136   4.091
63016W        W31421  39.569  26.461   4.041
63017W        W31422  37.841  19.666   1.892
63018W        W31423  25.564   4.412  10.638
63019W        W31424  26.920  34.919   2.859
63020W        W31425   1.417  16.142  10.999
63021W        W31426  20.608  20.846   3.647
63022W        W31427  24.612  44.096  11.973
63023W        W31428  24.027   7.711   4.541
63024W        W31429  34.958  25.189  14.178
63025W        W31430  12.043  33.512  13.808
63026W        W31431  16.292  38.791  11.884
63027W        W31432  44.923  40.973  13.443
63028W        W31433  35.871  11.272  13.142
63029W        W31434  41.590  18.575   3.308
63030W        W31435  22.468  27.599   2.405
63031W        W31436   8.175  19.600  12.978
63032W        W31437   2.768  23.070   4.451
63033W        W31438   8.577  33.391  10.852
63034W        W31439  23.240   0.794  13.320
63035W        W31440  25.761  25.489  12.199
63036W        W31441  37.455  38.840   1.514
63037W        W31442   1.109  39.909   0.751
63038W        W31443  13.112  16.831  13.556
63039W        W31444   9.595  40.365   2.581
63040W        W31445  19.329   3.774   0.958
63041W        W31446  31.666  28.957  10.666
63042W        W31447  21.147  31.826   1.478
63043W        W31448   3.552   1.634   0.790
63044W        W31449  37.866   6.373  11.080
63045W        W31450  43.891  14.116  10.773
63046W        W31451   5.724  32.138  11.615
63047W        W31452  44.591  26.606   0.055
63048W        W31453   5.307  43.856   3.347
63049W        W31454   1.030   6.726   0.801
63050W        W31455  10.457  29.159  11.479
63051W        W31456  10.864  43.155   0.851
63052W        W31457  24.190  28.188   0.495
63053W        W31458  12.291  39.434  13.633
63054W        W31459  12.389   2.803  13.920
63055W        W31460   5.783   9.297   3.406
63056W        W31461   1.852  42.298   1.726
63057W        W31462   7.499  19.327  12.544
63058W        W31463  10.853   5.467   4.737
63059W        W31464  25.547   8.757   3.305
63060W        W31465  23.704  21.928  10.661
63061W        W31466   5.417  26.031   1.696
63062W        W31467  23.007  16.794  14.785
63063W        W31468  29.196  30.477   1.361
63064W        W31469   9.848  15.304  14.949
63065W        W31470  11.345  36.390  12.484
63066W        W31471  10.095  25.457  14.468
63067W        W31472   7.832  37.991  10.791
63068W        W31473  34.463  37.535   4.026
63069W        W31474  40.498  43.548   3.380
63070W        W31475  30.517  27.987  13.880
63071W        W31476   3.763  18.774  10.663
63072W        W31477  11.126  44.904   3.581
63073W        W31478  21.672  31.634   4.077
63074W        W31479  23.650  40.961   3.260
63075W        W31480  21.852  27.956   1.891
63076W        W31481   7.507  37.239  12.471
63077W        W31482   2.017  28.664   0.772
63078W        W31483  33.573  35.466  12.965
63079W        W31484   3.467   4.966   3.709
63080W        W31485  13.852  17.246  11.419
63081W        W31486  40.841   0.074   4.569
63082W        W31487  33.293   9.775   1.294
63083W        W31488   1.399   4.907   1.687
63084W        W31489  27.854  17.003  11.242
63085W        W31490  28.383  21.105   4.973
63086W        W31491  12.057   4.340   4.569
63087W        W31492  40.392  26.602   0.237
63088W        W31493  16.132   5.305   4.320
63089W        W31494   3.932  34.384  11.604
63090W        W31495  17.597  31.847  14.609
63091W        W31496   6.819  12.407   0.266
63092W        W31497  29.899   8.341   4.098
63093W        W31498  26.347  35.189   1.755
63094W        W31499  23.674   0.362   2.724
63095W        W31500  32.941  23.746   1.954
63096W        W31501  20.637  18.573  14.477
63097W        W31502   2.188  32.530  13.187
63098W        W31503   5.275  17.987   1.771
63099W        W31504  14.464  12.855  11.206
63100W        W31505  42.884  15.317  12.220
63101W        W31506   3.264  15.502  11.991
63102W        W31507  13.359  35.130   0.491
63103W        W31508  44.225  24.521   3.845
63104W        W31509  35.691  35.740   3.735
63105W        W31510  34.929  13.760   3.418
63106W        W31511  20.916  44.917  12.840
63107W        W31512   7.212  13.730   3.690
63108W        W31513  38.308  36.461  13.784
63109W        W31514  23.525  29.017  14.961
63110W        W31515   4.100  16.114  12.819
63111W        W31516  24.503   0.524  12.150
63112W        W31517  36.848   7.749   1.877
63113W        W31518  44.508  29.789   1.678
63114W        W31519   5.247  16.056   2.497
63115W        W31520  24.558  14.340  11.635
63116W        W31521   4.093  18.361   2.317
63117W        W31522  14.714  35.947   3.764
63118W        W31523  28.057  26.033   1.625
63119W        W31524  11.444  25.472   3.190
63120W        W31525   2.160  33.142  12.046
63121W        W31526  14.024  36.755   2.653
63122W        W31527  24.593  21.879  11.713
63123W        W31528  24.848  32.606  11.996
63124W        W31529   2.322  41.652   5.380
63125W        W31530   8.887  22.502  12.280
63126W        W31531  31.140   0.223   0.946
63127W        W31532  11.408  11.288  11.525
63128W        W31533  19.818  16.827   2.552
63129W        W31534  18.667   7.455   3.158
63130W        W31535  25.204  34.406   4.458
63131W        W31536  44.450  37.871   0.337
63132W        W31537  40.585   5.446   3.741
63133W        W31538  21.344   1.815  10.582
63134W        W31539  29.887  16.687  14.939
63135W        W31540   2.472  18.066   2.485
63136W        W31541  23.732  24.147   2.281
63137W        W31542  23.322  40.965  14.854
63138W        W31543   2.021  12.700  13.050
63139W        W31544  28.204  36.352   0.420
63140W        W31545  37.355   3.870   3.830
63141W        W31546   7.410  31.535   1.166
63142W        W31547  34.426  16.043   3.652
63143W        W31548   3.284   0.419  10.737
63144W        W31549  23.517  22.665   0.717
63145W        W31550  35.058  44.807  11.679
63146W        W31551   2.042  38.027   0.881
63147W        W31552  10.824  44.797  11.626
63148W        W31553  39.510  39.855  12.869
63149W        W31554  24.019  16.348   0.331
63150W        W31555  23.545   8.416   1.301
63151W        W31556   1.225   3.957   0.644
63152W        W31557  42.886  38.326  11.490
63153W        W31558   5.372  17.630  11.644
63154W        W31559  26.770  16.545   4.666
63155W        W31560  32.124  44.511  12.321
63156W        W31561  16.257  24.166  13.076
63157W        W31562  27.569  10.733  14.151
63158W        W31563  16.206  15.443   4.527
63159W        W31564  15.107  37.750  10.765
63160W        W31565  28.576  25.799  11.958
63161W        W31566  38.304  34.512   4.788
63162W        W31567  25.154  36.392   1.228
63163W        W31568  12.308  33.526  10.632
63164W        W31569  35.613  39.495  11.200
63165W        W31570  39.329  20.012  13.946
63166W        W31571  43.170  17.555  11.184
63167W        W31572  41.245   4.468  14.990
63168W        W31573  33.031   3.140   4.079
63169W        W31574  17.178  40.746   4.643
63170W        W31575  14.129  41.300  10.812
63171W        W31576   6.289  31.582   1.829
63172W        W31577  25.539  34.046   0.182
63173W        W31578  16.385  13.594  10.986
63174W        W31579   1.509  39.187   0.301
63175W        W31580  31.975  31.473   3.160
63176W        W31581  21.058  38.311  13.499
63177W        W31582   5.881  17.188  14.347
63178W        W31583  44.541  34.415   2.483
63179W        W31584  15.742  29.991  10.661
63180W        W31585  38.937  12.328   1.333
63181W        W31586   2.668  15.494   2.750
63182W        W31587  29.806  28.401  13.864
63183W        W31588   7.726   4.382  12.066
63184W        W31589  38.082   6.348   3.270
63185W        W31590   1.824   3.675  11.133
63186W        W31591  15.882  28.859  13.777
63187W        W31592   6.726  10.709   1.908
63188W        W31593  38.346  40.769  11.095
63189W        W31594   4.825  10.099   5.107
63190W        W31595  16.450  11.521  12.379
63191W        W31596   3.771   5.857  11.684
63192W        W31597  13.269   5.795   3.730
63193W        W31598  13.732  26.770   2.859
63194W        W31599  20.983  22.729  11.003
63195W        W31600  43.457  32.570   4.652
63196W        W31601   8.960  35.771   4.205
63197W        W31602   9.560   0.811   4.635
63198W        W31603  31.579   2.359  10.563
63199W        W31604  21.056   3.438  10.426
63200W        W31605  17.836  38.269   0.924
63201W        W31606  19.559  24.038   3.149
63202W        W31607  31.465   1.594  12.960
63203W        W31608  23.855  28.357  13.738
63204W        W31609  40.505   1.361   1.387
63205W        W31610  30.171  31.069   3.403
63206W        W31611  44.543  25.946   4.382
63207W        W31612  16.808   1.779  13.515
63208W        W31613  17.368  12.827   0.994
63209W        W31614  15.350  27.705  10.753
63210W        W31615  29.662  37.430  12.847
63211W        W31616  21.545   1.944  12.876
63212W        W31617  38.455  32.607  12.545
63213W        W31618  10.170  26.985  13.810
63214W        W31619  31.468  19.927   1.844
63215W        W31620  25.455  20.181   3.693
63216W        W31621   3.615  36.427   0.761
63217W        W31622  35.871   2.390   1.487
63218W        W31623  37.836   8.711  14.261
63219W        W31624  42.969  37.059   3.881
63220W        W31625  13.208  13.604  13.938
63221W        W31626   8.630  33.720   1.208
63222W        W31627  40.314  31.698   0.409
63223W        W31628  33.486   6.336   4.193
63224W        W31629  39.969   8.893   0.694
63225W        W31630  15.373   3.478  11.225
63226W        W31631  27.039   2.927  13.541
63227W        W31632  33.508  28.795   4.469
63228W        W31633  31.455   2.596  12.135
63229W        W31634  29.688  44.038   0.690
63230W        W31635   8.333  16.711   3.594
63231W        W31636   9.886  22.090  14.435
63232W        W31637  42.383  36.877  11.426
63233W        W31638   5.716  17.810   9.872
63234W        W31639  20.133  41.751   4.594
63235W        W31640  14.360  16.294   4.169
63236W        W31641  38.426  41.944   2.857
63237W        W31642  22.048   1.304  13.947
63238W        W31643  18.724  19.147  12.142
63239W        W31644  14.827  24.068   0.684
63240W        W31645  44.409  29.847   4.644
63241W        W31646  22.134  31.977   4.442
63242W        W31647   7.702  42.937  14.483
63243W        W31648  23.194  37.168   1.332
63244W        W31649  26.150  13.677  14.474
63245W        W31650   7.179  28.532  10.978
63246W        W31651   8.856  30.498   1.597
63247W        W31652   0.905  12.288  10.802
63248W        W31653  36.822  10.230   2.656
63249W        W31654  33.138  13.558   4.226
63250W        W31655  19.005  36.970   3.150
63251W        W31656  31.506  10.541   4.083
63252W        W31657  34.589  15.589   3.857
63253W        W31658  26.936   1.983  11.117
63254W        W31659  12.355  28.226   0.130
63255W        W31660  23.516  29.210   0.460
63256W        W31661  13.433  42.458  12.650
63257W        W31662   1.141  31.743   0.532
63258W        W31663  19.489   4.908  13.819
63259W        W31664  27.034  37.436   2.108
63260W        W31665   8.168  29.282  14.346
63261W        W31666  11.626  21.992  12.005
63262W        W31667  34.865  32.477  12.328
63263W        W31668  35.911  34.386  10.640
63264W        W31669  41.076  40.279   4.529
63265W        W31670  27.822  33.500   0.163
63266W        W31671  15.371  21.571   0.919
63267W        W31672  11.637  30.423  10.620
63268W        W31673  32.043  14.393   0.980
63269W        W31674   7.207  17.205  11.191
63270W        W31675   4.442  43.207  11.887
63271W        W31676  42.238  28.485  12.914
63272W        W31677  31.505  29.051  13.568
63273W        W31678  29.485  25.184   1.897
63274W        W31679  35.891  43.794  11.740
63275W        W31680  25.702  42.787  11.612
63276W        W31681  38.978  10.148   5.042
63277W        W31682  18.235  30.414   0.889
63278W        W31683  12.442  15.763   4.414
63279W        W31684  24.440  11.455   1.000
63280W        W31685  29.255   7.834  10.625
63281W        W31686  16.051  38.200   4.177
63282W        W31687   1.052  10.872  13.901
63283W        W31688  40.957  10.167  11.655
63284W        W31689  36.284  43.728  12.467
63285W        W31690  35.146   2.820  11.854
63286W        W31691  31.050   2.749  14.901
63287W        W31692  17.295  34.494   3.242
63288W        W31693   0.969   3.139  10.415
63289W        W31694  24.547   8.068   1.733
63290W        W31695   0.447   6.951  14.794
63291W        W31696  11.833  44.919   5.014
63292W        W31697  30.551  11.135  12.239
63293W        W31698   5.265  23.137   2.227
63294W        W31699  28.352   2.318   2.704
63295W        W31700   0.678  12.125   1.857
63296W        W31701  18.836   8.675  12.130
63297W        W31702  23.324  28.459  14.551
63298W        W31703  13.140  17.335  14.478
63299W        W31704   1.243   9.419   4.957
63300W        W31705   1.565  23.644  11.984
63301W        W31706  25.149   7.049   9.765
63302W        W31707  40.953   4.999   0.892
63303W        W31708  31.699   3.377  14.482
63304W        W31709  44.817  35.899   4.367
63305W        W31710  34.332  24.205  11.959
63306W        W31711   2.426  26.832   4.514
63307W        W31712  44.032   5.053   3.588
63308W        W31713  25.977  18.626  12.118
63309W        W31714   2.696  30.273  12.973
63310W        W31715  14.401  41.329   4.650
63311W        W31716   1.827  28.497   1.226
63312W        W31717  14.591   2.269   5.247
63313W        W31718  21.719  27.554   0.029
63314W        W31719   5.196  15.657  10.666
63315W        W31720   3.922  31.913   4.436
63316W        W31721  16.035   0.679   0.261
63317W        W31722  35.362  38.361  11.895
63318W        W31723  14.186  40.784   0.190
63319W        W31724   3.830  37.027  13.535
63320W        W31725  29.194  22.695   1.018
63321W        W31726  20.564  37.840   2.301
63322W        W31727   8.882  23.409  12.354
63323W        W31728   9.203  16.891   2.631
63324W        W31729  43.762  21.849   3.393
63325W        W31730  22.521   1.199  12.004
63326W        W31731  29.959  17.854  11.593
63327W        W31732  24.702   1.340   0.992
63328W        W31733  37.903  24.443  11.606
63329W        W31734  21.672   9.695  13.296
63330W        W31735  15.697   1.941   3.701
63331W        W31736   0.006   6.217   1.318
63332W        W31737  13.812  23.740   1.833
63333W        W31738   5.292  44.793   4.539
63334W        W31739   0.455  12.687  11.612
63335W        W31740   3.107  11.821   1.730
63336W        W31741  13.635  28.395   4.546
63337W        W31742  35.554  44.734   1.911
63338W        W31743  32.187  15.642  14.422
63339W        W31744   7.416  32.607   3.386
63340W        W31745  40.473  44.889  12.304
63341W        W31746  24.659  39.508  14.031
63342W        W31747  37.836  26.689  12.756
63343W        W31748  20.615  19.233  12.932
63344W        W31749  44.358  43.425   3.712
63345W        W31750   2.311  28.397  12.380
63346W        W31751   7.112  26.554   1.652
63347W        W31752  36.436  19.419  13.079
63348W        W31753  26.776  19.586   1.718
63349W        W31754  39.119  12.412  12.892
63350W        W31755  37.862  35.197   2.309
63351W        W31756  31.108  30.641   4.641
63352W        W31757  18.969  18.092  12.014
63353W        W31758  30.187  27.034   3.225
63354W        W31759   6.749  11.192   0.994
63355W        W31760  18.405  16.426   0.843
63356W        W31761  30.952  35.668  14.300
63357W        W31762  27.406   8.641   2.998
63358W        W31763  36.429   9.652  11.211
63359W        W31764  43.774  18.120  13.499
63360W        W31765  33.571  13.613   3.361
63361W        W31766  41.052  15.081   4.154
63362W        W31767  12.189  23.601  11.635
63363W        W31768   7.191  21.686   0.925
63364W        W31769  21.017  12.225   0.922
63365W        W31770   7.858   1.088   2.615
63366W        W31771  40.343  23.451  13.791
63367W        W31772  20.711  41.946   0.503
63368W        W31773  13.669  34.594   1.163
63369W        W31774  27.506   9.299   0.373
63370W        W31775  33.455  40.780  11.139
63371W        W31776  32.309  23.475  11.205
63372W        W31777  42.910  11.292   2.392
63373W        W31778  13.204  13.658  12.370
63374W        W31779  43.521  14.394   3.985
63375W        W31780   4.369   8.684  11.184
63376W        W31781   2.937  22.743  12.527
63377W        W31782  20.026  29.196  13.670
63378W        W31783  41.881  25.440  14.490
63379W        W31784  34.962  18.594   1.985
63380W        W31785   3.449  18.267   1.286
63381W        W31786   2.793   1.703  14.341
63382W        W31787  22.549  39.756   1.646
63383W        W31788  43.511  13.645  11.006
63384W        W31789  41.952  23.432   1.262
63385W        W31790  11.601  39.376  12.906
63386W        W31791   7.809  15.639  12.838
63387W        W31792  26.147  34.081  10.578
63388W        W31793  32.898   3.014  12.108
63389W        W31794  15.511  31.460  10.194
63390W        W31795  14.637  15.836  14.848
63391W        W31796   5.131  26.088   4.575
63392W        W31797   4.164  24.748  10.774
63393W        W31798  27.884  31.981   4.131
63394W        W31799   3.745   5.556  13.089
63395W        W31800  35.904   8.679  11.966
63396W        W31801  31.975   6.266  12.013
63397W        W31802  11.119   7.675   0.896
63398W        W31803  38.493  24.186  14.279
63399W        W31804   6.998  29.715   3.962
63400W        W31805  41.328  29.026   0.281
63401W        W31806  19.336  17.089  13.057
63402W        W31807   5.892  23.893   0.111
63403W        W31808  25.165  35.866   1.219
63404W        W31809   7.970   8.307   4.586
63405W        W31810  11.932  31.953   4.975
63406W        W31811   3.495  24.018   1.849
63407W        W31812  32.073  26.671   2.281
63408W        W31813  10.270   8.590   4.964
63409W        W31814   5.797   0.401   0.415
63410W        W31815  25.482  44.979   3.089
63411W        W31816  32.568   8.934   5.062
63412W        W31817   8.794  10.927  14.932
63413W        W31818  21.707  36.370   3.796
63414W        W31819  44.800   4.805  13.673
63415W        W31820  26.695  40.781   2.225
63416W        W31821  18.300  23.911  10.324
63417W        W31822  20.098  16.550  11.999
63418W        W31823   1.270   4.859   0.686
63419W        W31824  19.735   5.948   1.609
63420W        W31825  23.111  44.636   1.876
63421W        W31826   1.055   5.228   2.842
63422W        W31827  28.571   7.902  11.199
63423W        W31828  11.835  33.690  14.936
63424W        W31829   9.123  24.082  12.940
63425W        W31830  26.215  24.526  12.950
63426W        W31831  30.032  36.259  14.941
63427W        W31832  40.388  33.417  13.321
63428W        W31833  41.592  16.323  13.921
63429W        W31834  19.331  39.976  14.992
63430W        W31835   7.894   9.761   2.777
63431W        W31836   0.095  30.834   4.084
63432W        W31837  30.270  22.145   0.527
63433W        W31838   8.180  16.006   1.354
63434W        W31839  39.059   0.737  11.176
63435W        W31840  14.135  21.754  13.479
63436W        W31841  37.006  17.228   0.492
63437W        W31842   4.723  38.732   0.340
63438W        W31843  29.939  11.515  11.105
63439W        W31844  36.761  42.008   3.341
63440W        W31845   9.802  18.626   1.372
63441W        W31846  25.019  13.013   4.072
63442W        W31847  36.168  42.562   0.136
63443W        W31848  38.522   6.173  12.148
63444W        W31849  27.771  41.007  12.843
63445W        W31850  26.455  37.889   0.865
63446W        W31851  22.479  42.556  11.561
63447W        W31852   6.864  37.336   1.734
63448W        W31853  37.800  30.583  12.973
63449W        W31854  25.147   3.704  12.069
63450W        W31855   6.194  34.967  11.947
63451W        W31856   5.713  38.888   1.922
63452W        W31857  22.626  16.130  13.244
63453W        W31858  38.269  15.778   3.718
63454W        W31859  24.568  28.988  10.868
63455W        W31860  37.477  22.099  10.645
63456W        W31861  33.863  31.901  14.879
63457W        W31862  36.555  20.556  14.313
63458W        W31863  44.835  39.830   1.278
63459W        W31864  37.543  13.198  10.651
63460W        W31865   6.279  42.893   2.168
63461W        W31866  27.069  18.437   3.644
63462W        W31867   9.331  23.415  11.039
63463W        W31868   8.291  31.931  11.536
63464W        W31869  30.744   1.832  12.129
63465W        W31870  19.649  36.321  14.351
63466W        W31871  44.447  34.601  11.669
63467W        W31872   2.115   4.276   1.806
63468W        W31873  38.095  29.922  12.485
63469W        W31874  36.865  10.306  12.850
63470W        W31875   7.417  36.528  11.180
63471W        W31876  39.033  37.810  10.704
63472W        W31877  44.882   2.724   3.374
63473W        W31878   3.738  14.624  14.837
63474W        W31879  18.726  40.883  14.116
63475W        W31880  34.625  25.185   3.753
63476W        W31881  28.444   2.677   4.829
63477W        W31882  28.273  34.011  12.414
63478W        W31883  23.769  25.164   4.576
63479W        W31884  44.498  22.939  14.124
63480W        W31885  32.339  19.462  12.402
63481W        W31886   4.207   7.811  11.165
63482W        W31887  25.802   6.411  12.012
63483W        W31888  10.671  11.713   2.384
63484W        W31889  24.392  28.049   4.902
63485W        W31890   4.692  20.695  12.841
63486W        W31891  22.445  23.794   3.226
63487W        W31892  27.042   7.131   4.664
63488W        W31893  26.886   1.834   4.802
63489W        W31894  21.247   9.773   1.274
63490W        W31895  25.990  22.384  12.511
63491W        W31896   5.407  43.214  13.104
63492W        W31897  18.313  11.351   3.820
63493W        W31898   4.199  40.261   2.416
63494W        W31899  39.457   0.863   2.809
63495W        W31900  28.541  37.643   3.282
63496W        W31901  36.848   8.659   4.230
63497W        W31902   3.745  26.578   0.912
63498W        W31903  26.217  14.120   3.101
63499W        W31904  25.506  42.510  12.979
63500W        W31905  34.784  26.024  12.440
63501W        W31906   2.221  30.967  11.191
63502W        W31907   4.995   5.809  10.753
63503W        W31908  30.655  38.966  13.846
63504W        W31909  24.632  44.432   2.858
63505W        W31910  43.242  31.019   0.384
63506W        W31911  43.994  32.363   4.490
63507W        W31912  39.939  14.527  12.476
63508W        W31913   6.201  13.354  13.494
63509W        W31914  15.798   2.180   2.809
63510W        W31915  26.160  20.733  13.069
63511W        W31916  15.390  20.620   0.453
63512W        W31917  23.439  21.868   1.515
63513W        W31918  18.057  38.322  14.098
63514W        W31919   6.916  31.959  13.611
63515W        W31920  20.969   7.228  14.335
63516W        W31921   7.845  24.805  14.965
63517W        W31922  36.259  33.358   0.803
63518W        W31923  27.965  31.567   2.209
63519W        W31924  35.151  36.130  14.376
63520W        W31925  20.790   4.720   1.857
63521W        W31926  24.989  19.552   1.957
63522W        W31927  24.580  21.190   3.512
63523W        W31928  44.485  44.807   0.752
63524W        W31929  44.786   2.148  14.344
63525W        W31930  25.799  30.520   3.864
63526W        W31931  27.967   3.764   1.645
63527W        W31932  21.108  24.055   5.681
63528W        W31933  24.870  37.098  13.158
63529W        W31934  10.876   4.318  13.350
63530W        W31935   7.772  33.569  11.140
63531W        W31936  40.499  19.995   2.388
63532W        W31937   0.108  39.461  12.678
63533W        W31938  20.610   0.283  13.045
63534W        W31939  38.823  22.243  13.010
63535W        W31940  28.853   4.306  12.416
63536W        W31941  16.849  35.032   2.793
63537W        W31942  31.555  38.457  12.365
63538W        W31943  10.367  17.597  12.490
63539W        W31944   3.291  11.908   3.663
63540W        W31945   1.191   2.452  11.608
63541W        W31946  42.735  21.355  12.514
63542W        W31947  19.780  28.141   3.704
63543W        W31948  36.306  28.982  10.777
63544W        W31949  29.032   8.841  14.867
63545W        W31950  40.730  38.497  10.694
63546W        W31951  18.293  34.231   2.686
63547W        W31952  13.271  20.036  13.624
63548W        W31953  41.809  44.606  14.425
63549W        W31954  39.045  22.109  13.467
63550W        W31955  41.486  14.742   4.082
63551W        W31956  23.788  35.429  12.162
63552W        W31957  33.145   0.918   4.192
63553W        W31958  23.989  30.199  13.584
63554W        W31959  21.984  10.880   1.885
63555W        W31960  13.573  38.812   3.763
63556W        W31961   1.193  14.521  11.921
63557W        W31962  41.299  31.010  13.525
63558W        W31963  10.137  22.084  10.538
63559W        W31964  41.992  28.508   4.680
63560W        W31965  36.952   6.270  13.129
63561W        W31966  42.743  40.338   1.837
63562W        W31967  21.671   3.677   0.888
63563W        W31968  37.492  14.651  14.384
63564W        W31969  28.918  28.971  11.990
63565W        W31970  30.494  40.460   4.636
63566W        W31971  31.093   8.295  10.839
63567W        W31972  40.804  15.349  11.566
63568W        W31973  38.151  14.136  10.791
63569W        W31974  22.470  19.990  14.969
63570W        W31975  21.154  41.040   0.913
63571W        W31976  21.612  28.526  12.639
63572W        W31977  37.599  12.173   3.940
63573W        W31978  40.804  19.586  12.531
63574W        W31979   3.757  26.663   4.202
63575W        W31980  24.281  26.543   2.734
63576W        W31981  43.954  18.778  12.311
63577W        W31982  43.990  33.597   1.828
63578W        W31983  18.366   2.798  11.608
63579W        W31984  32.493   8.880  12.474
63580W        W31985  33.526  43.364   0.845
63581W        W31986  34.350  32.065   1.173
63582W        W31987  44.405   3.759  10.896
63583W        W31988  17.753  13.860   3.116
63584W        W31989  14.114  40.048  12.082
63585W        W31990  37.954   8.638  14.760
63586W        W31991  31.923  18.999  14.403
63587W        W31992  28.188  12.313   4.846
63588W        W31993  30.693  16.872  12.811
63589W        W31994  32.363  29.787   2.368
63590W        W31995   7.603  23.111  14.876
63591W        W31996  32.486  36.435  14.463
63592W        W31997  10.062  14.846   0.356
63593W        W31998   6.243   4.074   0.281
63594W        W31999  33.082  16.166   3.270
63595W        W32000  36.131  44.744  11.466
63596W        W32001  10.857  10.978  13.135
63597W        W32002   7.494   2.283   4.557
63598W        W32003  17.339  20.615  14.461
63599W        W32004  26.121   6.191   4.565
63600W        W32005  38.167  15.958  11.056
63601W        W32006  30.016  24.246   3.041
63602W        W32007  22.096   6.245   3.701
63603W        W32008   2.330  28.927  12.427
63604W        W32009   2.424  35.289  11.568
63605W        W32010   1.279  44.022   1.685
63606W        W32011  44.162  18.060   3.654
63607W        W32012  33.311  21.236   4.239
63608W        W32013   8.076  32.081  11.998
63609W        W32014  23.880  28.091   3.366
63610W        W32015  14.816  37.242  12.561
63611W        W32016  21.429  36.173  14.402
63612W        W32017  22.980  35.503   0.732
63613W        W32018   7.502  21.582   0.510
63614W        W32019   0.237   3.266  12.704
63615W        W32020  38.333  37.970  14.715
63616W        W32021  29.223  44.718   1.365
63617W        W32022   6.282  33.151  13.119
63618W        W32023  19.128  21.638  10.720
63619W        W32024  21.487  44.601   3.187
63620W        W32025   7.760  24.519   2.169
63621W        W32026  40.507  13.514  13.404
63622W        W32027  44.691   8.130  14.786
63623W        W32028  44.435   8.340  10.456
63624W        W32029  25.545  14.716  12.993
63625W        W32030  22.319   6.242   3.232
63626W        W32031  20.976   3.847   3.625
63627W        W32032   6.300  19.688   2.925
63628W        W32033  38.407  19.381   4.119
63629W        W32034  14.591   7.241  13.430
63630W        W32035  39.822  36.035   4.729
63631W        W32036  11.397  20.128   0.885
63632W        W32037  43.521  38.014  13.487
63633W        W32038  42.994  34.137  14.920
63634W        W32039  14.652  22.023   0.264
63635W        W32040  31.915  28.132  13.781
63636W        W32041  13.759  25.711  12.881
63637W        W32042  14.820  25.969  12.869
63638W        W32043  41.334  31.340   0.773
63639W        W32044  10.301   9.794  12.071
63640W        W32045  43.515  14.855  11.386
63641W        W32046  35.960   4.305   2.361
63642W        W32047  24.435  36.284   1.820
63643W        W32048  12.948  24.253  13.274
63644W        W32049   6.162  18.664  13.369
63645W        W32050  17.064  27.444  11.494
63646W        W32051  14.653   2.524   3.099
63647W        W32052  37.859  31.024  14.320
63648W        W32053   0.810  13.394  14.446
63649W        W32054   1.397  36.604  10.929
63650W        W32055  14.139   2.390  14.318
63651W        W32056  43.448  42.002  12.658
63652W        W32057  21.243  14.846   4.602
63653W        W32058   5.361  27.515   3.460
63654W        W32059   5.288  19.680   1.193
63655W        W32060  32.177  20.716  14.021
63656W        W32061   9.695   8.450  10.763
63657W        W32062  32.509   6.365   0.859
63658W        W32063   5.877  38.441   2.177
63659W        W32064   3.209  40.030  13.472
63660W        W32065   8.261  23.063  10.767
63661W        W32066   7.700  44.238  14.889
63662W        W32067  11.820  34.443   1.407
63663W        W32068  20.624  13.196   0.467
63664W        W32069  38.440  21.643  11.354
63665W        W32070  30.238  34.879  11.099
63666W        W32071  18.305  29.044  11.972
63667W        W32072  18.169  41.424   1.710
63668W        W32073  35.797  14.251   1.859
63669W        W32074  33.034  41.288   1.699
63670W        W32075  36.985  36.151  13.794
63671W        W32076  34.441  44.211   1.953
63672W        W32077   8.689  12.177  10.552
63673W        W32078   1.424  35.467  14.345
63674W        W32079  24.314  29.005   1.135
63675W        W32080  16.674   5.811   1.278
63676W        W32081  18.174   9.109   1.770
63677W        W32082   8.664  39.910  11.598
63678W        W32083   0.934   9.536   4.524
63679W        W32084   4.415  18.561  14.912
63680W        W32085  30.484  21.086  10.379
63681W        W32086  41.743  21.534   1.486
63682W        W32087  15.572  44.800  10.969
63683W        W32088  37.423  14.614  12.929
63684W        W32089  12.824   3.277  12.327
63685W        W32090  21.589  43.272   1.293
63686W        W32091  43.665  24.198   1.294
63687W        W32092   4.154  20.973   3.801
63688W        W32093  26.072  11.176   4.772
63689W        W32094  13.284  18.152  13.102
63690W        W32095  25.418  27.137   1.344
63691W        W32096  34.368  35.558  12.432
63692W        W32097  21.805  25.562  14.338
63693W        W32098  44.291  18.843   2.688
63694W        W32099  11.106  24.767  10.775
63695W        W32100  21.679  28.953  12.925
63696W        W32101  15.160   1.225   4.610
63697W        W32102  31.215   6.630   2.822
63698W        W32103  21.582  27.661   3.692
63699W        W32104  43.386   6.633   0.430
63700W        W32105  25.322  23.269  12.443
63701W        W32106  20.604  34.861  12.907
63702W        W32107  32.493  16.473  10.744
63703W        W32108  38.124  44.708   3.559
63704W        W32109   7.891  30.676  13.593
63705W        W32110   7.240  33.060   0.974
63706W        W32111   5.843  44.789  11.098
63707W        W32112  10.264  33.658   2.667
63708W        W32113  32.470  32.208   3.266
63709W        W32114  34.503   1.476   2.330
63710W        W32115  26.515  29.965  14.300
63711W        W32116   6.431  32.476   4.894
63712W        W32117   3.662  29.092   3.414
63713W        W32118  21.166   2.861   3.682
63714W        W32119   1.773   6.872   0.146
63715W        W32120  41.818  34.102  10.374
63716W        W32121  26.193  21.849   3.261
63717W        W32122  16.110  39.446   4.318
63718W        W32123  21.523  31.494   0.044
63719W        W32124  16.324  23.741  11.010
63720W        W32125  22.210  21.944   3.321
63721W        W32126  12.748  13.183   4.851
63722W        W32127   7.506   9.159   5.124
63723W        W32128  21.698  33.901  14.121
63724W        W32129  11.428   4.726   3.341
63725W        W32130  16.129  36.155   4.165
63726W        W32131  37.067  30.078  14.395
63727W        W32132  35.582  20.926  10.622
63728W        W32133  14.072  24.125   2.694
63729W        W32134  21.351   7.122   2.735
63730W        W32135  17.653  25.429  12.912
63731W        W32136  22.111   1.207   1.494
63732W        W32137  39.839  26.564   1.779
63733W        W32138  44.010  29.629   4.892
63734W        W32139  30.107  39.867   4.225
63735W        W32140  34.653  33.954  10.813
63736W        W32141  15.273  38.067  12.551
63737W        W32142  21.932  30.711  12.002
63738W        W32143  16.631   2.960   4.700
63739W        W32144  43.359  37.900   3.340
63740W        W32145  20.248   2.741   3.904
63741W        W32146  18.570   8.314   2.730
63742W        W32147  31.637  38.022   4.904
63743W        W32148   2.269   8.885   1.971
63744W        W32149  31.952  29.860  12.437
63745W        W32150  34.671  35.656   1.003
63746W        W32151   2.274  36.823   3.861
63747W        W32152  27.129  32.058  11.718
63748W        W32153   9.202  37.220  10.869
63749W        W32154  30.487  41.769  11.146
63750W        W32155  15.871  34.909  13.607
63751W        W32156  35.527  37.404  13.180
63752W        W32157   0.210  35.033  14.450
63753W        W32158  12.908  15.622  10.621
63754W        W32159  31.717   5.157  11.540
63755W        W32160  38.884  34.587  12.615
63756W        W32161   5.927  18.344   4.858
63757W        W32162  21.112  25.705   4.474
63758W        W32163  43.738  27.134  12.550
63759W        W32164  35.095  34.188  10.919
63760W        W32165  40.839   7.886   1.634
63761W        W32166  40.232  43.334  14.752
63762W        W32167   0.011  15.545  12.411
63763W        W32168  12.159  12.203   3.193
63764W        W32169   0.370   7.723  11.098
63765W        W32170  31.137  11.894  14.183
63766W        W32171  23.826   7.804  14.431
63767W        W32172  13.878  11.288   0.983
63768W        W32173  24.351   7.246  12.163
63769W        W32174  14.283  13.055   3.277
63770W        W32175  14.605   1.271  14.550
63771W        W32176  37.621  25.205  14.901
63772W        W32177  20.983  26.061  12.878
63773W        W32178  30.994  43.322   3.095
63774W        W32179  41.528  30.384  12.397
63775W        W32180  17.512  38.775  13.315
63776W        W32181  14.198  19.170   3.835
63777W        W32182  37.680  35.444   4.724
63778W        W32183  10.175  34.012  11.670
63779W        W32184   2.983  11.781  13.833
63780W        W32185  17.828  42.475  12.064
63781W        W32186   7.105   5.117   1.381
63782W        W32187   2.203  33.150  14.922
63783W        W32188  25.531  10.861   3.329
63784W        W32189  12.712  16.120   2.198
63785W        W32190  29.195  29.252  12.318
63786W        W32191  29.084  44.426  12.146
63787W        W32192  33.259  17.799   3.345
63788W        W32193  32.330  19.667  10.186
63789W        W32194   5.159  44.384  10.714
63790W        W32195  20.153  17.766  14.871
63791W        W32196  10.490  26.298  14.892
63792W        W32197  11.355  37.822   3.156
63793W        W32198  37.533  28.761   2.224
63794W        W32199  30.618   9.340  14.280
63795W        W32200  38.655  23.797   3.288
63796W        W32201  39.479  43.258  12.069
63797W        W32202  16.331  31.053   2.644
63798W        W32203  33.452   8.043  11.599
63799W        W32204  34.628   8.407   3.244
63800W        W32205  21.560  39.037   1.133
63801W        W32206  33.392  41.283  13.930
63802W        W32207  43.899  19.705   2.361
63803W        W32208  15.188  25.771   1.776
63804W        W32209  10.608   5.859   3.917
63805W        W32210  40.057  21.301   4.227
63806W        W32211   5.656  23.521  14.269
63807W        W32212  26.745  26.933   3.662
63808W        W32213  35.059  12.775  13.558
63809W        W32214  31.362  19.587  14.323
63810W        W32215  13.614  12.562   2.830
63811W        W32216  29.952  36.139   2.692
63812W        W32217  19.212  28.880   4.678
63813W        W32218   6.972  37.733   2.196
63814W        W32219  29.171   3.788  14.032
63815W        W32220  11.716   1.662   0.507
63816W        W32221  28.911  10.358  12.965
63817W        W32222  15.430  29.114  13.570
63818W        W32223  41.577  13.238   2.277
63819W        W32224   1.708  17.611   3.782
63820W        W32225  44.499  29.749  12.055
63821W        W32226  43.784   4.560   4.542
63822W        W32227   4.031  30.105   4.610
63823W        W32228  16.611   3.921  14.528
63824W        W32229  11.898  39.994  12.163
63825W        W32230  29.676  18.718  14.554
63826W        W32231  31.220   7.394  14.259
63827W        W32232  43.434  24.036  13.961
63828W        W32233   2.243   9.031  11.241
63829W        W32234  19.044  25.107  12.910
63830W        W32235  41.366  18.818  11.079
63831W        W32236  28.408  13.226   2.697
63832W        W32237   4.189  22.807  14.313
63833W        W32238  39.096   0.879   1.850
63834W        W32239  26.206  10.555   0.663
63835W        W32240  29.587  26.079   4.048
63836W        W32241  22.329  22.547   2.393
63837W        W32242  37.850  33.279  13.388
63838W        W32243  25.483  42.105  14.315
63839W        W32244  13.241  42.005   0.273
63840W        W32245  22.030  21.111  13.577
63841W        W32246  24.642  27.234  11.653
63842W        W32247  25.607   8.991  13.906
63843W        W32248   8.223  37.918  13.106
63844W        W32249  20.544   5.505  10.527
63845W        W32250  39.052   8.252   4.609
63846W        W32251  33.216  12.118   2.335
63847W        W32252  15.335  31.448   9.712
63848W        W32253  41.154  32.198   4.972
63849W        W32254  10.141  19.722   2.037
63850W        W32255  31.644  33.090  13.846
63851W        W32256   4.440  10.899  14.291
63852W        W32257  23.259   2.802   2.863
63853W        W32258  29.564  39.937  11.709
63854W        W32259  13.214   3.815   1.771
63855W        W32260  42.202  18.525   1.925
63856W        W32261   6.366   8.364   2.795
63857W        W32262  24.326  20.226  11.979
63858W        W32263  10.157   9.347   4.167
63859W        W32264  14.188   5.654  12.075
63860W        W32265   1.069   0.475   4.578
63861W        W32266  28.004   3.015  10.550
63862W        W32267   7.601  23.580   2.300
63863W        W32268  40.517   0.451   3.018
63864W        W32269  16.632  11.375   4.714
63865W        W32270  10.344  42.898   0.356
63866W        W32271  10.585  29.425  13.094
63867W        W32272  32.902   2.217  10.454
63868W        W32273  27.662  39.018   2.445
63869W        W32274  24.170  39.142  13.420
63870W        W32275  18.307  21.262  14.433
63871W        W32276  36.800  36.125  10.944
63872W        W32277   6.201  33.957   3.636
63873W        W32278  34.640  40.787   1.466
63874W        W32279  14.821  10.150  14.813
63875W        W32280  24.190  19.835  13.063
63876W        W32281  42.376  29.075   0.397
63877W        W32282  24.014  36.774  14.789
63878W        W32283  23.567  44.821   1.688
63879W        W32284  19.878   3.011   1.268
63880W        W32285  28.031  39.087   3.787
63881W        W32286  15.140  40.866  11.835
63882W        W32287  11.838  15.831  11.488
63883W        W32288   3.811  33.317   1.637
63884W        W32289  22.958  17.835  11.155
63885W        W32290  44.583  31.339  12.799
63886W        W32291  40.548   0.918   3.736
63887W        W32292  13.034  20.041   1.165
63888W        W32293  35.134  42.366   2.858
63889W        W32294  21.810  28.170  11.938
63890W        W32295  36.961   1.169   4.641
63891W        W32296   6.777  13.243  14.573
63892W        W32297  18.585  42.868  13.122
63893W        W32298  10.279   2.826  11.651
63894W        W32299  40.843  35.958   0.009
63895W        W32300  10.849  36.099   3.240
63896W        W32301  36.603  25.983  11.147
63897W        W32302  18.827   8.422  11.668
63898W        W32303   3.382  18.657  14.126
63899W        W32304  29.104  14.156   4.128
63900W        W32305  26.048  37.868  14.769
63901W        W32306  33.209   5.388  13.495
63902W        W32307  17.608  37.674  11.109
63903W        W32308  18.245  32.420  13.214
63904W        W32309  29.976   2.442  14.482
63905W        W32310  37.219  15.670   0.471
63906W        W32311  12.863  29.666  14.523
63907W        W32312  20.795   3.268  13.682
63908W        W32313  32.953  10.992  13.597
63909W        W32314  30.416   6.949   2.611
63910W        W32315   4.480  18.211   4.576
63911W        W32316  36.764  36.571  14.873
63912W        W32317   6.814  44.965  14.047
63913W        W32318  29.003   8.403   4.545
63914W        W32319  29.131  25.945   4.280
63915W        W32320   4.294  21.367   0.366
63916W        W32321   7.479  24.948  12.929
63917W        W32322  35.765  10.630  13.449
63918W        W32323  11.731  42.513   1.135
63919W        W32324  32.398  42.941   2.885
63920W        W32325   6.776   6.162   1.706
63921W        W32326  34.440  25.312  10.675
63922W        W32327  29.497  16.316   1.139
63923W        W32328  31.441  11.813   4.070
63924W        W32329  19.272  32.659   0.698
63925W        W32330   8.824   4.831  10.803
63926W        W32331  34.548  12.368  10.904
63927W        W32332  37.390  43.706  11.526
63928W        W32333   9.582  24.086  13.794
63929W        W32334   7.147  33.072  11.534
63930W        W32335  23.660  18.658   1.725
63931W        W32336  21.286  31.163   4.809
63932W        W32337  34.472   8.798   2.088
63933W        W32338  10.141  31.723  11.957
63934W        W32339   3.735  12.323   2.664
63935W        W32340  14.629  34.699   0.333
63936W        W32341   2.416  10.224   9.972
63937W        W32342  27.733  44.445   3.700
63938W        W32343  10.837   2.141   4.510
63939W        W32344   8.623   9.885   4.178
63940W        W32345  27.942  39.453   2.292
63941W        W32346  18.256  41.600  14.084
63942W        W32347  22.592  11.277   0.780
63943W        W32348   3.668   8.516  11.545
63944W        W32349  11.919  29.989   5.339
63945W        W32350  38.055  25.442   3.782
63946W        W32351   5.322   2.249  13.951
63947W        W32352  40.949  25.066   3.771
63948W        W32353  44.874  21.315   2.284
63949W        W32354  25.966  40.932   2.780
63950W        W32355  19.651  24.302  12.941
63951W        W32356  13.706   7.917  11.541
63952W        W32357  31.407  14.579   2.310
63953W        W32358  27.540   6.800  11.499
63954W        W32359  10.882  39.112  12.500
63955W        W32360  38.432  24.119   0.334
63956W        W32361   8.682  33.517   1.832
63957W        W32362  22.002   4.446  12.363
63958W        W32363  27.065  39.288   3.240
63959W        W32364  37.447   9.709  14.043
63960W        W32365   5.883  31.476  10.410
63961W        W32366  35.351  40.838   4.702
63962W        W32367  40.107   3.119   1.329
63963W        W32368  39.341  44.877   0.350
63964W        W32369   4.371  35.589   2.805
63965W        W32370  30.376  35.019   1.850
63966W        W32371  13.186  31.873  14.733
63967W        W32372  18.944  35.851  14.626
63968W        W32373  12.243  11.293   3.234
63969W        W32374   2.766  27.956  14.540
63970W        W32375  44.830  36.591  14.491
63971W        W32376  17.377   6.920  13.650
63972W        W32377  43.522  33.949  14.047
63973W        W32378  33.525  31.341   0.256
63974W        W32379  23.214  11.786  14.090
63975W        W32380  18.262   6.141   0.844
63976W        W32381  33.026  38.964  12.894
63977W        W32382  17.906  11.578  11.656
63978W        W32383  14.675  21.393  14.706
63979W        W32384  31.897  17.970   2.598
63980W        W32385  13.043   8.056  12.880
63981W        W32386   4.321  39.252  13.533
63982W        W32387   4.017   3.415  11.049
63983W        W32388  15.075  28.555   1.379
63984W        W32389  14.265  20.034  14.447
63985W        W32390  15.852   8.879   3.318
63986W        W32391  41.386  37.400   1.669
63987W        W32392  20.886  36.951   4.586
63988W        W32393  39.425  30.701  13.452
63989W        W32394  35.095  32.381   1.197
63990W        W32395  38.192  27.488  12.082
63991W        W32396  13.302   1.426   1.171
63992W        W32397  28.743  25.958   0.790
63993W        W32398  22.296  44.438   2.833
63994W        W32399  26.065  26.552  11.195
63995W        W32400  33.988  12.639   1.764
63996W        W32401  39.381  25.465  13.437
63997W        W32402   1.948  31.891   2.881
63998W        W32403  21.683  27.896  10.130
63999W        W32404  32.998  26.676  11.223
64000W        W32405  30.849  28.613   3.365
64001W        W32406  29.131  11.575   4.473
64002W        W32407  17.354   3.675  11.136
64003W        W32408   1.525  36.721   4.556
64004W        W32409   9.312   9.910  10.721
64005W        W32410  36.054   5.662  10.654
64006W        W32411  28.601  27.118   1.185
64007W        W32412  33.307   6.621  12.934
64008W        W32413  13.702  16.386   3.637
64009W        W32414  24.453  11.308   4.355
64010W        W32415  39.913   7.419  14.142
64011W        W32416  19.307  44.515  13.914
64012W        W32417  11.333  42.386   2.009
64013W        W32418  12.869  28.656  11.616
64014W        W32419  40.037   2.164  12.016
64015W        W32420   6.386  17.599   0.014
64016W        W32421  37.647  23.856  12.968
64017W        W32422  19.345  43.013  11.380
64018W        W32423  41.738  35.607   3.721
64019W        W32424  42.742  11.803   2.290
64020W        W32425  20.599   5.740   0.625
64021W        W32426  21.067  17.613   3.208
64022W        W32427  11.953  31.066  14.813
64023W        W32428  11.789  16.200  14.464
64024W        W32429  32.329   5.748   0.877
64025W        W32430  39.562   5.447   4.538
64026W        W32431  44.332  10.936   2.330
64027W        W32432   0.977  44.873  14.093
64028W        W32433  31.517  15.838   3.401
64029W        W32434   9.895  12.686  10.986
64030W        W32435   5.993  12.663   0.342
64031W        W32436   0.813   1.826   3.341
64032W        W32437  12.792  34.206   1.941
64033W        W32438   5.831  27.628   4.537
64034W        W32439   0.684  22.178  14.882
64035W        W32440  15.598   8.813  11.848
64036W        W32441  33.072  41.776   2.626
64037W        W32442  21.921  31.843   3.592
64038W        W32443  21.371  42.401   1.763
64039W        W32444  10.704  41.709   1.008
64040W        W32445   1.268  16.351   2.693
64041W        W32446  43.426  44.984  10.661
64042W        W32447  26.515  13.146  13.606
64043W        W32448  34.679  27.198  12.533
64044W        W32449  14.333  11.460   3.337
64045W        W32450  11.814  29.683  12.408
64046W        W32451   3.244  18.742   1.331
64047W        W32452  16.682  10.370   2.246
64048W        W32453   4.439  26.453  14.880
64049W        W32454  23.113  27.115  11.920
64050W        W32455  24.937  38.534   4.433
64051W        W32456   3.705  13.235  12.371
64052W        W32457  44.194   0.504  11.498
64053W        W32458  41.217  25.976  12.507
64054W        W32459  28.213  17.837   2.311
64055W        W32460  19.325  42.078  13.846
64056W        W32461  16.265  17.329   1.945
64057W        W32462  16.850  13.868  13.094
64058W        W32463  17.193  15.790  12.069
64059W        W32464  32.844  20.813  13.501
64060W        W32465   2.328   5.524   2.204
64061W        W32466   5.241  36.327  12.681
64062W        W32467  44.796  22.418   9.964
64063W        W32468  10.775  26.687   3.213
64064W        W32469   0.855   1.732  12.949
64065W        W32470  32.071  35.720  12.173
64066W        W32471   4.268   7.972  13.046
64067W        W32472  27.880   8.805  10.152
64068W        W32473  17.270  14.962  12.430
64069W        W32474  38.499   2.256  14.864
64070W        W32475  23.794  25.505  12.956
64071W        W32476   4.069   4.590   5.634
64072W        W32477   5.448   4.827  13.196
64073W        W32478  44.307  40.049  11.652
64074W        W32479   7.662  26.490  13.480
64075W        W32480  28.079  31.614   3.849
64076W        W32481  37.024   9.616  14.328
64077W        W32482  33.715   0.292   2.364
64078W        W32483  30.097  29.190  11.468
64079W        W32484  22.052  23.855   1.818
64080W        W32485  42.860  42.545   2.726
64081W        W32486  19.432  26.072  14.516
64082W        W32487  32.166   4.385   0.372
64083W        W32488   4.413   9.102  13.517
64084W        W32489   4.888  20.724   1.258
64085W        W32490  25.198  11.740   1.790
64086W        W32491  38.050   9.544  14.370
64087W        W32492  37.139   0.875  10.866
64088W        W32493  11.613  12.620  12.402
64089W        W32494  12.664  21.404  13.708
64090W        W32495  23.645  44.759  11.027
64091W        W32496  40.369  18.714   2.827
64092W        W32497  35.573   2.237  10.640
64093W        W32498   3.757  31.990   1.852
64094W        W32499  37.188  42.508  13.120
64095W        W32500  13.237   6.374  11.961
64096W        W32501   5.198  12.681  10.853
64097W        W32502   0.740  25.540   3.615
64098W        W32503  21.575  20.320   4.489
64099W        W32504  27.363  41.799  11.559
64100W        W32505   6.715  44.765   0.086
64101W        W32506   0.852  28.063   0.491
64102W        W32507  32.012  29.241   2.811
64103W        W32508  20.071  14.061   0.811
64104W        W32509  25.735  42.280   3.059
64105W        W32510  27.593  35.380   0.715
64106W        W32511  36.253  31.194  13.388
64107W        W32512  42.785  43.370  13.021
64108W        W32513  21.803  39.147   4.202
64109W        W32514  17.415  31.867   3.665
64110W        W32515   5.242  36.085  11.183
64111W        W32516  27.877   6.221   1.863
64112W        W32517  24.555  13.711  12.949
64113W        W32518   8.338  17.483  12.563
64114W        W32519  13.340  32.815   2.271
64115W        W32520  19.999   4.689  12.978
64116W        W32521   8.196  33.230  14.513
64117W        W32522  35.585  42.299  11.631
64118W        W32523  38.245   4.933   0.617
64119W        W32524  23.578   8.346  12.501
64120W        W32525  11.193  33.458   0.306
64121W        W32526  17.062  42.915   1.873
64122W        W32527  21.268  21.700   1.882
64123W        W32528   0.493   3.207  13.650
64124W        W32529   4.308   4.947   4.686
64125W        W32530  42.212  28.168   0.363
64126W        W32531  36.949  39.904  13.984
64127W        W32532  22.451  32.317  10.045
64128W        W32533  16.503  23.782   4.652
64129W        W32534   5.487  30.975   1.339
64130W        W32535  31.550  17.139  12.589
64131W        W32536  22.468   8.251  11.079
64132W        W32537  41.314  29.087  14.736
64133W        W32538   5.598  38.341   4.171
64134W        W32539  37.446  34.176  11.191
64135W        W32540   9.302  39.303  11.179
64136W        W32541  14.209  19.700  13.120
64137W        W32542  11.901  30.706   3.247
64138W        W32543  25.012  28.584  11.994
64139W        W32544  14.800   2.368  12.069
64140W        W32545  10.847  17.777  11.050
64141W        W32546  31.379  43.265  13.893
64142W        W32547  44.741  35.519   0.814
64143W        W32548  11.294  23.783   0.862
64144W        W32549  35.416  29.856  12.050
64145W        W32550  34.176  37.955   3.830
64146W        W32551  26.597  35.465   3.356
64147W        W32552  30.460   4.624  12.428
64148W        W32553   6.490   3.268   1.605
64149W        W32554  30.987  44.773   0.685
64150W        W32555  14.296   2.404  11.968
64151W        W32556  22.968  31.696   1.113
64152W        W32557  40.416  33.104  10.916
64153W        W32558  38.079  34.871  13.437
64154W        W32559  19.713  17.566  10.609
64155W        W32560  13.852  36.861   1.233
64156W        W32561  35.390  16.187  12.370
64157W        W32562  40.836  15.187   3.198
64158W        W32563  32.901  29.342  12.428
64159W        W32564  13.846  38.442   2.823
64160W        W32565  25.448  26.829   3.269
64161W        W32566  24.585  24.428   0.963
64162W        W32567  43.438  16.001  12.821
64163W        W32568  34.630  36.907  14.836
64164W        W32569  38.590  37.317   2.870
64165W        W32570  11.670  44.845   0.808
64166W        W32571  30.876   4.817   2.733
64167W        W32572  33.018  29.585   4.500
64168W        W32573  38.570  16.679  12.176
64169W        W32574   3.726  16.381   4.613
64170W        W32575  42.905  11.707  11.572
64171W        W32576  31.951  18.344  13.757
64172W        W32577  30.042  30.452   0.210
64173W        W32578  12.814   2.505   1.859
64174W        W32579  40.917  19.682   2.223
64175W        W32580  18.856   5.517  11.560
64176W        W32581  13.583  22.540  14.464
64177W        W32582  29.959  44.247   0.297
64178W        W32583  36.953  16.808   4.638
64179W        W32584   7.311  39.722  11.463
64180W        W32585  18.313  18.100   1.734
64181W        W32586  39.053   8.827  12.991
64182W        W32587  34.976  37.823   0.281
64183W        W32588  43.095  43.235   3.190
64184W        W32589   4.641  12.357  13.351
64185W        W32590  12.496  33.977   1.072
64186W        W32591  35.840  16.700  13.048
64187W        W32592  16.089  44.060  14.545
64188W        W32593  35.909  15.079  11.977
64189W        W32594  14.755  22.904  14.999
64190W        W32595  42.470   3.977   1.265
64191W        W32596  36.866  20.477  14.719
64192W        W32597  35.628  32.404   2.199
64193W        W32598  10.058   1.952  12.534
64194W        W32599   5.544  28.973  14.427
64195W        W32600  19.756  35.696   3.223
64196W        W32601  28.549   4.736  10.660
64197W        W32602  11.421  32.594   4.126
64198W        W32603  38.794   1.914  10.970
64199W        W32604  34.479  38.620   0.813
64200W        W32605  19.575   5.528  12.965
64201W        W32606  27.030   5.415   2.103
64202W        W32607  38.708  25.203  12.525
64203W        W32608   1.066  39.078   4.628
64204W        W32609  29.021  29.430  14.283
64205W        W32610  18.508  21.637   1.417
64206W        W32611   8.928  24.675   3.417
64207W        W32612  44.810  27.635   0.892
64208W        W32613   8.781  29.042  13.067
64209W        W32614  37.882  42.070   1.212
64210W        W32615  19.710   3.604   2.874
64211W        W32616  30.758  22.892   0.377
64212W        W32617   3.854  38.874  11.258
64213W        W32618  36.045  41.241  11.224
64214W        W32619  41.480  37.397   3.670
64215W        W32620  12.783  13.324   0.874
64216W        W32621   5.900  14.831   1.951
64217W        W32622   5.111  14.322  13.239
64218W        W32623  16.390   0.954  14.956
64219W        W32624   0.223  43.474   1.266
64220W        W32625  17.249  12.284  12.110
64221W        W32626   0.017  35.854  12.540
64222W        W32627   0.345  23.915  11.733
64223W        W32628  36.554  44.248   4.098
64224W        W32629   0.877  18.073  14.052
64225W        W32630  18.158  19.653  11.588
64226W        W32631  21.639  38.287   2.237
64227W        W32632  32.341  32.809   0.486
64228W        W32633  43.774  14.338  12.952
64229W        W32634   2.184   5.779   4.300
64230W        W32635  20.704  43.486  13.004
64231W        W32636  32.999  42.238   0.075
64232W        W32637   2.369   2.244   1.322
64233W        W32638  10.378  25.250  10.185
64234W        W32639  19.195   3.203  10.500
64235W        W32640  28.192   6.296  14.302
64236W        W32641  32.164   8.815  11.873
64237W        W32642  25.602  43.957  11.151
64238W        W32643   1.435  22.119   4.793
64239W        W32644   8.204  41.266  13.444
64240W        W32645   2.046  11.132  12.128
64241W        W32646   7.258  36.978   0.695
64242W        W32647  30.713  32.641   4.527
64243W        W32648   0.526   9.227  13.512
64244W        W32649  28.569  23.568   1.384
64245W        W32650  11.464  44.701   3.167
64246W        W32651   5.784   7.538   2.569
64247W        W32652  42.929  23.483   4.907
64248W        W32653  38.988  36.372  10.681
64249W        W32654   3.924  13.857  14.549
64250W        W32655   8.118  17.221   0.741
64251W        W32656  39.937  40.804  11.252
64252W        W32657  15.605   8.992   4.755
64253W        W32658   2.768  24.013   4.370
64254W        W32659  44.345  15.889  10.327
64255W        W32660  38.904   6.702  14.998
64256W        W32661   9.141  18.408   4.382
64257W        W32662  30.230  15.133   1.360
64258W        W32663  18.842  25.255  12.440
64259W        W32664   4.135  42.320  12.105
64260W        W32665  16.854  32.488   2.893
64261W        W32666  32.066  21.820  12.910
64262W        W32667  33.578  21.822  13.052
64263W        W32668  18.850  18.334   1.147
64264W        W32669  25.880  10.484  11.053
64265W        W32670  18.171  12.595  14.153
64266W        W32671  40.238  35.455   4.819
64267W        W32672  12.782  20.569   3.283
64268W        W32673  16.593   1.282   0.317
64269W        W32674  26.775  15.352  11.578
64270W        W32675  27.161   6.674  13.088
64271W        W32676  39.922   9.410  11.212
64272W        W32677  18.586  16.868   1.072
64273W        W32678   4.213  44.346   1.367
64274W        W32679  37.396   0.074   3.055
64275W        W32680   5.837  24.071  12.583
64276W        W32681  16.808  11.214  13.953
64277W        W32682   9.427   3.843   4.141
64278W        W32683  43.575  21.142  12.211
64279W        W32684  28.668  41.041   2.719
64280W        W32685  34.862  15.890   1.195
64281W        W32686  25.504  44.400  10.293
64282W        W32687  30.193   1.235  12.998
64283W        W32688  39.507  42.446   1.470
64284W        W32689  28.469  40.804   0.854
64285W        W32690   1.915  27.024  13.517
64286W        W32691  15.549  23.010   2.818
64287W        W32692  37.342  34.200   3.572
64288W        W32693   2.326  44.484  13.853
64289W        W32694  23.262  39.037   1.866
64290W        W32695  26.276  14.248  10.171
64291W        W32696  27.073  19.783  10.614
64292W        W32697  28.524  23.056  14.538
64293W        W32698  38.292   4.843  12.953
64294W        W32699  40.038  16.805   0.255
64295W        W32700   2.831  15.503  14.407
64296W        W32701  17.210  39.354   1.358
64297W        W32702  40.192  35.885  13.822
64298W        W32703  27.483   4.776  11.531
64299W        W32704   4.366  28.440   4.390
64300W        W32705  13.405  37.259  13.581
64301W        W32706  38.773  35.491  12.701
64302W        W32707   9.566   2.914   3.887
64303W        W32708   4.367  31.407   3.143
64304W        W32709  12.182  30.446   0.217
64305W        W32710  38.584  11.200   1.340
64306W        W32711   5.207   8.714   4.461
64307W        W32712   0.315   4.744   2.185
64308W        W32713   8.301  29.074  12.184
64309W        W32714  11.954   8.160  11.082
64310W        W32715  36.625  26.852  14.000
64311W        W32716  37.481   6.214  11.424
64312W        W32717  11.811   0.492   1.489
64313W        W32718  37.374   9.882   3.350
64314W        W32719   1.186  30.049   2.680
64315W        W32720  38.992  29.258   1.246
64316W        W32721   9.243  44.964  13.407
64317W        W32722  14.865  35.169   4.892
64318W        W32723   6.858  28.561  13.466
64319W        W32724   1.800   1.600   3.884
64320W        W32725  18.344  17.144  10.650
64321W        W32726   0.391  19.584   4.082
64322W        W32727  22.026  23.239  11.040
64323W        W32728   7.892  19.002  11.920
64324W        W32729  30.434   8.775   0.385
64325W        W32730  29.066  37.531   1.397
64326W        W32731  19.321  17.626   1.215
64327W        W32732  18.965  24.505   3.198
64328W        W32733  11.698  24.597  14.863
64329W        W32734  29.795  20.603   3.105
64330W        W32735  44.098  44.647   1.676
64331W        W32736  42.003  11.593   2.822
64332W        W32737  36.986  36.514   1.725
64333W        W32738  37.196  37.241  12.722
64334W        W32739   4.221  30.008  12.041
64335W        W32740  32.553  36.558   2.521
64336W        W32741  40.805   2.210   1.894
64337W        W32742   9.660  44.656  13.418
64338W        W32743  30.898   2.501   0.506
64339W        W32744   2.248  27.450   3.696
64340W        W32745  10.186  11.906   1.285
64341W        W32746   3.754  40.930   0.645
64342W        W32747   1.960  31.250   1.742
64343W        W32748  18.633  11.129  12.855
64344W        W32749  20.223   7.013  13.692
64345W        W32750  10.231  43.488  11.668
64346W        W32751  34.325  21.250  10.380
64347W        W32752  41.883  41.343   0.804
64348W        W32753   5.609  22.077   4.562
64349W        W32754  25.533  32.959  10.557
64350W        W32755  29.806  29.897   2.323
64351W        W32756   0.716  43.050  11.885
64352W        W32757  21.782   9.197  14.986
64353W        W32758  35.469  20.957  14.030
64354W        W32759   5.235  39.723   2.465
64355W        W32760  35.737   3.322   4.178
64356W        W32761  14.564  44.432   4.197
64357W        W32762   3.378   9.186  13.947
64358W        W32763  12.229  22.168   1.718
64359W        W32764  18.330  40.332  11.911
64360W        W32765  41.315   0.196   2.676
64361W        W32766  25.593  10.365  10.614
64362W        W32767   5.884  11.512  11.411
64363W        W32768  18.480  12.439   2.789
64364W        W32769  26.494  14.390  12.918
64365W        W32770  26.011  19.563   0.938
64366W        W32771   6.076  11.491   4.960
64367W        W32772  21.532  11.218  13.307
64368W        W32773  27.639   2.192   4.570
64369W        W32774  17.704   6.602  13.388
64370W        W32775   9.472  39.936   2.218
64371W        W32776   4.660  11.611   0.887
64372W        W32777  26.498  15.134   4.613
64373W        W32778  21.765  26.745   3.740
64374W        W32779  37.623  41.470  12.425
64375W        W32780   4.420  21.300  10.563
64376W        W32781  38.336  35.094   3.666
64377W        W32782   9.353  41.747   0.806
64378W        W32783  15.168  26.003  11.478
64379W        W32784  32.560  37.961   1.201
64380W        W32785  43.015   2.589  12.647
64381W        W32786  37.941  21.662   3.744
64382W        W32787  19.990   0.865   2.761
64383W        W32788  10.706  44.859   0.298
64384W        W32789   6.719  15.858   0.174
64385W        W32790   6.421  23.685   2.500
64386W        W32791   5.690   7.399  12.512
64387W        W32792  37.757   5.239  10.377
64388W        W32793   8.394  36.775  11.255
64389W        W32794  40.259  22.798   1.729
64390W        W32795   4.414   5.794  14.300
64391W        W32796  16.839   1.905   4.601
64392W        W32797   2.703  13.086   4.972
64393W        W32798  25.563  13.705  13.006
64394W        W32799   8.602   8.082   0.926
64395W        W32800  14.744  25.332   2.888
64396W        W32801  30.041  43.785  13.790
64397W        W32802  18.702  15.545   3.147
64398W        W32803  23.955  17.201   3.676
64399W        W32804  20.530  40.596   0.406
64400W        W32805  41.398  14.398   2.692
64401W        W32806  16.525  15.744   1.301
64402W        W32807  38.609  23.633  10.416
64403W        W32808   1.529  10.190   4.154
64404W        W32809   4.020  13.294  14.920
64405W        W32810   9.953  20.206  12.912
64406W        W32811   7.170  26.753  11.153
64407W        W32812  33.635  32.866  12.199
64408W        W32813  24.458  27.171   1.384
64409W        W32814  43.061  40.291  14.334
64410W        W32815  29.838   6.109  10.567
64411W        W32816  12.812  43.319   3.246
64412W        W32817  14.798   2.013   0.280
64413W        W32818  34.405   3.636   3.767
64414W        W32819   1.697  14.252  10.981
64415W        W32820   9.225  26.372   5.082
64416W        W32821  27.053  19.326   2.638
64417W        W32822   9.440  42.415  13.487
64418W        W32823  35.631  10.298  14.841
64419W        W32824  12.477   4.590   0.362
64420W        W32825  42.541  44.912  13.947
64421W        W32826  42.310  30.918   4.551
64422W        W32827  12.534  13.522  14.530
64423W        W32828  27.407  19.497   4.353
64424W        W32829   9.555  36.475   4.136
64425W        W32830  31.957  27.704   2.853
64426W        W32831  42.489  12.242   4.291
64427W        W32832  31.659  23.729  14.753
64428W        W32833  44.982   1.775  10.774
64429W        W32834  41.331  14.665  14.956
64430W        W32835   3.745   8.420  13.336
64431W        W32836   8.393   6.795   3.161
64432W        W32837  22.272   1.703   4.731
64433W        W32838  15.763  15.830  12.233
64434W        W32839   6.882  26.470   3.199
64435W        W32840  15.321  11.222   3.294
64436W        W32841  29.863  43.361  14.128
64437W        W32842  21.691  22.471  13.506
64438W        W32843  28.714  42.411   1.717
64439W        W32844  21.574  11.431  11.431
64440W        W32845  14.049  17.634   0.852
64441W        W32846  29.050   6.245  13.023
64442W        W32847  37.005   7.260  13.934
64443W        W32848  28.513  18.793  11.598
64444W        W32849  11.591   7.481   2.355
64445W        W32850  12.048   9.234   4.634
64446W        W32851  20.095  27.469   3.677
64447W        W32852  32.785  21.480  11.125
64448W        W32853  12.591  20.545  11.673
64449W        W32854  39.515  34.025  14.911
64450W        W32855  37.966  44.276  10.704
64451W        W32856   2.794   4.144   3.318
64452W        W32857  36.822  30.517  11.397
64453W        W32858   3.833  34.347  14.027
64454W        W32859  38.908   0.460  13.994
64455W        W32860  12.507   8.233   0.180
64456W        W32861  33.531  41.772   3.256
64457W        W32862  14.233  39.594   4.597
64458W        W32863  27.657  31.407   1.256
64459W        W32864  27.579  22.278   4.484
64460W        W32865  21.429   0.742  12.531
64461W        W32866  10.744  36.950  11.666
64462W        W32867  44.890  12.114   1.180
64463W        W32868  16.202  16.720  10.732
64464W        W32869  11.726  44.291  11.554
64465W        W32870  34.928  34.342   4.184
64466W        W32871  14.786  43.320  11.047
64467W        W32872  25.754   4.385   1.612
64468W        W32873  18.776  32.060   0.230
64469W        W32874   4.663  34.912   1.505
64470W        W32875  29.032  42.505   3.066
64471W        W32876   4.440  44.905  10.734
64472W        W32877  23.151  26.995  14.458
64473W        W32878   3.603  37.977  11.257
64474W        W32879   3.658  42.049   2.358
64475W        W32880  20.655  23.825   5.478
64476W        W32881  41.120  44.782   1.809
64477W        W32882   3.990  10.220   0.848
64478W        W32883  19.535  26.925  13.210
64479W        W32884  42.788  21.122   2.432
64480W        W32885   8.218   6.427  11.607
64481W        W32886  36.290   4.815  11.128
64482W        W32887  32.383  34.925   3.685
64483W        W32888  14.164  24.274   5.067
64484W        W32889  27.105  30.105   0.348
64485W        W32890  15.793  37.335   2.846
64486W        W32891  23.747  28.066   1.721
64487W        W32892   6.486  26.269   0.963
64488W        W32893  10.200  14.803   2.157
64489W        W32894  21.893  14.654  12.979
64490W        W32895  19.217  25.267  13.897
64491W        W32896   8.449  31.880  14.612
64492W        W32897  25.561  41.822  10.227
64493W        W32898  14.825  43.962   4.150
64494W        W32899  36.485   1.984   0.476
64495W        W32900  25.582  13.729  12.025
64496W        W32901  40.917  24.184   0.521
64497W        W32902  42.190  26.669   4.820
64498W        W32903  32.699  38.884   1.324
64499W        W32904  32.107   2.078  14.362
64500W        W32905  24.283  27.738   0.228
64501W        W32906  30.218  19.321   1.676
64502W        W32907  39.380  11.234   2.721
64503W        W32908  37.327  42.610   0.473
64504W        W32909   7.186  33.345  12.003
64505W        W32910  16.874   9.918  14.410
64506W        W32911  17.688   5.834   4.447
64507W        W32912  32.504  16.200   1.185
64508W        W32913  31.385   8.649  10.600
64509W        W32914  38.879  32.391   3.628
64510W        W32915  25.422  23.415  14.301
64511W        W32916  43.778  31.961  13.557
64512W        W32917  35.332  20.875   1.222
64513W        W32918  24.723  12.639  13.271
64514W        W32919  21.213  25.005  11.250
64515W        W32920  33.365   7.038  11.460
64516W        W32921  15.956  21.646   4.219
64517W        W32922   6.392   8.670  13.356
64518W        W32923  10.762   5.608   2.566
64519W        W32924  28.673   3.170  13.964
64520W        W32925  27.426   5.512  11.982
64521W        W32926   8.198  18.175   0.912
64522W        W32927  31.650  32.172   0.400
64523W        W32928  44.134   5.440   2.651
64524W        W32929   9.190  23.123   2.078
64525W        W32930  41.216  34.958  12.791
64526W        W32931  28.630   0.441  12.873
64527W        W32932   0.684  33.439   3.750
64528W        W32933  17.028  33.505  13.264
64529W        W32934   7.696  32.462  14.806
64530W        W32935  13.513  25.060   0.718
64531W        W32936  25.947  30.656  14.394
64532W        W32937  24.200  24.140   0.766
64533W        W32938  20.568  29.567  12.978
64534W        W32939  23.728  19.147  12.928
64535W        W32940  10.451  19.082  12.171
64536W        W32941   4.436  12.263   2.112
64537W        W32942   1.663   5.779  14.846
64538W        W32943  14.634   0.375  12.409
64539W        W32944  37.051  26.187   3.172
64540W        W32945  42.286   8.457   2.281
64541W        W32946  22.927  30.458   2.759
64542W        W32947  41.347  38.774  12.376
64543W        W32948   9.039  10.662   3.246
64544W        W32949  24.528   1.708  11.584
64545W        W32950  44.555   6.972   2.829
64546W        W32951  41.976  14.216  11.478
64547W        W32952  40.005  23.010  12.379
64548W        W32953   6.392  42.961  14.896
64549W        W32954   2.855  13.166   0.782
64550W        W32955  17.009  15.191  14.202
64551W        W32956   8.379  25.771   2.817
64552W        W32957  39.383  38.748   2.301
64553W        W32958  14.113   9.455   1.325
64554W        W32959  25.123   8.042  12.344
64555W        W32960  36.322  13.716   4.240
64556W        W32961  16.781  24.819   2.922
64557W        W32962  27.569  30.915  13.552
64558W        W32963  11.229  41.583   0.311
64559W        W32964  36.455  12.800  12.241
64560W        W32965   1.098  28.010   3.231
64561W        W32966  36.337  24.126   2.876
64562W        W32967  26.204  12.675  12.599
64563W        W32968  35.542   5.608  14.963
64564W        W32969   2.569  34.045  11.156
64565W        W32970  32.515  29.578   1.027
64566W        W32971  10.660   2.032  13.524
64567W        W32972  27.611  44.266  13.897
64568W        W32973  42.414   9.788   0.099
64569W        W32974  14.188  13.174   5.048
64570W        W32975  36.614  31.878   0.616
64571W        W32976  39.840  30.642   0.654
64572W        W32977  31.395  14.526   0.449
64573W        W32978   4.327  14.654  11.242
64574W        W32979  21.626   8.849   3.123
64575W        W32980  39.909   0.532  12.380
64576W        W32981   8.299  40.850  10.895
64577W        W32982  40.079  14.045  10.498
64578W        W32983  37.385  38.741  14.398
64579W        W32984  39.429  38.748   4.412
64580W        W32985   9.499  19.218   1.926
64581W        W32986  27.740  35.371  12.395
64582W        W32987  27.585  15.220  10.961
64583W        W32988  10.827  32.465   4.324
64584W        W32989   6.600  28.485  13.995
64585W        W32990  17.774   0.880  14.606
64586W        W32991   6.731   4.126   4.162
64587W        W32992  21.735   2.263   0.744
64588W        W32993  22.706  43.742   3.859
64589W        W32994  25.709  36.521   0.388
64590W        W32995  34.578  16.100  11.222
64591W        W32996   5.899  43.794  12.695
64592W        W32997   7.377   9.333  12.940
64593W        W32998  18.696  35.939  12.686
64594W        W32999  32.794  22.161  12.611
64595W        W33000   6.355  41.261  13.217
64596W        W33001   7.815  25.099   0.495
64597W        W33002   6.991  31.784   4.217
64598W        W33003  24.556   9.523  11.272
64599W        W33004  41.254   5.309  13.529
64600W        W33005  34.105   7.356   2.675
64601W        W33006   8.447  24.604   3.725
64602W        W33007  11.655  24.095  11.015
64603W        W33008  18.940  22.900   3.513
64604W        W33009  14.180  10.883  14.534
64605W        W33010   5.197   4.965  10.981
64606W        W33011  33.655   9.862   4.598
64607W        W33012  26.618  29.103  13.830
64608W        W33013  21.190   9.492  13.129
64609W        W33014  15.421  19.621  13.492
64610W        W33015  14.534   4.279   4.301
64611W        W33016  21.535  21.642  12.041
64612W        W33017  21.968  44.255  11.535
64613W        W33018  36.563   1.709  14.450
64614W        W33019   9.730  13.154  12.892
64615W        W33020  32.997  12.693  10.555
64616W        W33021  11.625   5.793   3.819
64617W        W33022  12.741  26.581  13.647
64618W        W33023  15.323  20.780  11.519
64619W        W33024  15.681   4.347  13.743
64620W        W33025   8.794  15.262  12.348
64621W        W33026  15.215  13.873   4.950
64622W        W33027  21.095  20.382  10.637
64623W        W33028   3.395  36.661   1.357
64624W        W33029  38.770  15.813   2.792
64625W        W33030  43.382  37.129   1.218
64626W        W33031  44.009  19.741   4.217
64627W        W33032  13.134  12.726  10.636
64628W        W33033  35.077  15.232   2.958
64629W        W33034  24.437  17.900  13.358
64630W        W33035  32.691  10.643   1.444
64631W        W33036  18.716  20.719  11.805
64632W        W33037  20.598  23.881  11.899
64633W        W33038   2.448  21.278   0.002
64634W        W33039  44.958   6.544  11.419
64635W        W33040  22.746  39.593   3.244
64636W        W33041  36.536  31.104   2.276
64637W        W33042  26.827  10.961   0.064
64638W        W33043  16.995  13.690  12.138
64639W        W33044  27.704  38.386   5.044
64640W        W33045  32.909  44.800   4.731
64641W        W33046   7.678  10.834  13.863
64642W        W33047   5.524  31.617  12.026
64643W        W33048   9.880  26.805   2.177
64644W        W33049   6.518  13.253   3.216
64645W        W33050   8.694  19.280  14.055
64646W        W33051  12.269  20.755  14.821
64647W        W33052   4.293  43.733   2.709
64648W        W33053  35.381  33.999   2.433
64649W        W33054  25.674  22.120   3.800
64650W        W33055  20.210  32.985  12.366
64651W        W33056  31.838  14.880   3.210
64652W        W33057  32.162   6.745  14.784
64653W        W33058  14.197  10.767  11.875
64654W        W33059  41.219  17.295  13.977
64655W        W33060   5.456   6.338   1.321
64656W        W33061  30.698  11.312   2.284
64657W        W33062  23.795  43.953  14.468
64658W        W33063  23.474   9.334   0.194
64659W        W33064  16.972   5.345   1.291
64660W        W33065  11.326  40.505   4.620
64661W        W33066  34.908  10.927   1.659
64662W        W33067  19.231   5.609  11.228
64663W        W33068   6.348  40.146  10.205
64664W        W33069  32.012  13.832  12.124
64665W        W33070  31.678  38.465   4.123
64666W        W33071  40.996   6.498   0.931
64667W        W33072  39.553  23.633  13.305
64668W        W33073  19.656  18.349   2.753
64669W        W33074  23.115   1.959   1.118
64670W        W33075  43.258  39.484   4.920
64671W        W33076  43.524   5.840  13.557
64672W        W33077  10.268  10.154   4.587
64673W        W33078  36.353  30.585   3.199
64674W        W33079  31.194  20.281  14.137
64675W        W33080  33.251   1.745   3.969
64676W        W33081  40.131  14.574  10.472
64677W        W33082  44.818  12.594  11.222
64678W        W33083  30.743   8.600   4.540
64679W        W33084  14.153  18.535   4.679
64680W        W33085  28.588  21.299   3.701
64681W        W33086  30.645  40.315   3.673
64682W        W33087  34.198   5.407   1.870
64683W        W33088  37.773  35.513  10.628
64684W        W33089   6.456  15.645  11.005
64685W        W33090  43.920   9.884  11.185
64686W        W33091  41.765  40.528   2.705
64687W        W33092  39.088  26.127  12.822
64688W        W33093   1.047  31.375   3.674
64689W        W33094   3.095  18.566   2.264
64690W        W33095   1.963   3.779   1.683
64691W        W33096  11.741  41.238   4.271
64692W        W33097  29.895  12.327  12.579
64693W        W33098   1.268  11.734   2.362
64694W        W33099  43.080  40.006   0.521
64695W        W33100  24.717  14.623   0.980
64696W        W33101  14.250  28.020   1.317
64697W        W33102  18.783  34.669   0.458
64698W        W33103  33.935  43.261  11.010
64699W        W33104  11.232   9.915   0.234
64700W        W33105   7.240  30.117  13.473
64701W        W33106  38.512  12.432  11.047
64702W        W33107   5.705  32.058  14.562
64703W        W33108  34.871  32.039  14.891
64704W        W33109  44.980   1.505  13.606
64705W        W33110  16.603   8.789   2.750
64706W        W33111  28.816  27.124   0.361
64707W        W33112  32.603  31.334   0.281
64708W        W33113  39.417  39.259  14.196
64709W        W33114  23.783  32.625   2.198
64710W        W33115  34.178  35.177   0.387
64711W        W33116  41.986  20.304   3.191
64712W        W33117  43.292  23.745   0.829
64713W        W33118  39.678  32.544   3.293
64714W        W33119   5.895   6.182   2.338
64715W        W33120   8.932  16.810  13.949
64716W        W33121  41.173   2.866   4.167
64717W        W33122  16.350  39.413   4.801
64718W        W33123  11.751  23.247  13.501
64719W        W33124  14.692  12.414  10.677
64720W        W33125  27.551  18.710   3.787
64721W        W33126   9.597   2.189  12.603
64722W        W33127   9.634  17.232  14.944
64723W        W33128  30.431  19.187   4.984
64724W        W33129  28.185   0.956  10.628
64725W        W33130   0.461  42.418  13.951
64726W        W33131  41.295  41.860  13.004
64727W        W33132  31.019  32.471  12.834
64728W        W33133  43.768  19.630  13.366
64729W        W33134  26.374  17.967   3.401
64730W        W33135  26.649  30.525  13.446
64731W        W33136  19.059   4.337  11.074
64732W        W33137   9.350  33.317  13.993
64733W        W33138   5.464   6.301   4.757
64734W        W33139  11.102   4.922   3.708
64735W        W33140  12.198  29.589   2.863
64736W        W33141  14.883  20.679   0.448
64737W        W33142  23.240  10.688  13.765
64738W        W33143  33.342   5.962   4.525
64739W        W33144   2.100  34.786  13.046
64740W        W33145   9.789   9.909  13.289
64741W        W33146  21.270  27.732  13.161
64742W        W33147  17.927  24.707   0.909
64743W        W33148  37.400   5.025  13.885
64744W        W33149  36.381  12.203   2.692
64745W        W33150  18.030  15.732   2.813
64746W        W33151  22.223  31.855   0.549
64747W        W33152  31.134  28.654  12.065
64748W        W33153  10.432  27.670   0.895
64749W        W33154  30.106  12.947  14.401
64750W        W33155  40.940  38.907   4.578
64751W        W33156  30.924  13.575   4.048
64752W        W33157  24.052  37.936   0.977
64753W        W33158  11.558  35.877   0.337
64754W        W33159  12.831  29.423   4.107
64755W        W33160  15.335  18.370  11.133
64756W        W33161  43.511  18.746  11.637
64757W        W33162  15.258  15.015  11.835
64758W        W33163  37.627  15.012   3.058
64759W        W33164  26.024  35.880   1.449
64760W        W33165   7.097  10.417  12.164
64761W        W33166  28.349  31.400  14.372
64762W        W33167   8.345  26.504  14.442
64763W        W33168   4.755  24.030   0.238
64764W        W33169  37.474  12.839  11.564
64765W        W33170  17.465  23.077   1.278
64766W        W33171  36.543  12.707   2.673
64767W        W33172   4.225   0.517   3.427
64768W        W33173  28.809  27.463   2.862
64769W        W33174  14.642   5.102  13.001
64770W        W33175  44.893  40.486   3.236
64771W        W33176  14.512  18.654  14.335
64772W        W33177  13.637   3.225  10.291
64773W        W33178  37.389  42.774   3.097
64774W        W33179  16.794  29.071  13.024
64775W        W33180   5.715  42.905  12.296
64776W        W33181  40.846  20.482   0.631
64777W        W33182   3.651   5.710   4.194
64778W        W33183  32.963  10.840  10.662
64779W        W33184  19.203  11.076  11.625
64780W        W33185   9.104  33.782  13.986
64781W        W33186  38.787  22.147   0.309
64782W        W33187  34.675  31.908   2.631
64783W        W33188  10.898  40.968   1.351
64784W        W33189  10.479  20.224  10.943
64785W        W33190  22.249   9.623   2.257
64786W        W33191  43.356  41.522   2.169
64787W        W33192  31.044   6.697  12.058
64788W        W33193  18.237  21.350   0.365
64789W        W33194  30.691  33.870   3.832
64790W        W33195  11.502  41.366  13.383
64791W        W33196  11.637   2.488   3.683
64792W        W33197  39.058  25.899  12.034
64793W        W33198  42.245  29.061  11.683
64794W        W33199  39.486   1.250  14.742
64795W        W33200  13.155  43.357  12.681
64796W        W33201  29.158  25.597   1.433
64797W        W33202   4.748  24.612  14.439
64798W        W33203  41.261  13.898  10.580
64799W        W33204  29.150  35.993   0.225
64800W        W33205  38.903  37.526  10.278
64801W        W33206  11.782  44.515  13.161
64802W        W33207  23.716  24.498  14.011
64803W        W33208  29.052  30.995  12.623
64804W        W33209  13.809   4.117   5.473
64805W        W33210   8.798  11.417   5.343
64806W        W33211  39.199  42.314   4.522
64807W        W33212  22.768  12.859  11.687
64808W        W33213  32.928  26.173   3.313
64809W        W33214  14.236  25.866  13.030
64810W        W33215   1.869   4.744  14.494
64811W        W33216  25.463  18.691  12.098
64812W        W33217  15.036  38.031   3.038
64813W        W33218  34.539  19.000   4.124
64814W        W33219  16.038   2.265   1.700
64815W        W33220   1.891  25.158   0.007
64816W        W33221  13.218  42.009  12.931
64817W        W33222  12.190  26.095   1.396
64818W        W33223  41.267   6.841  12.647
64819W        W33224  23.018  10.391   3.791
64820W        W33225  44.868  41.956   4.629
64821W        W33226  36.860  12.865  14.941
64822W        W33227   6.320  30.013   2.423
64823W        W33228  28.153   4.560   1.230
64824W        W33229  18.139  19.735  14.020
64825W        W33230  32.811  38.181  14.211
64826W        W33231   5.262  15.798   4.752
64827W        W33232  35.130  12.650  14.403
64828W        W33233  11.815  21.187  10.178
64829W        W33234  16.384  31.897   3.628
64830W        W33235  16.519  18.751  13.866
64831W        W33236  18.565  42.498   1.295
64832W        W33237  26.477   8.531  14.013
64833W        W33238   9.161  37.479  12.575
64834W        W33239  14.126  31.530  13.878
64835W        W33240  23.680   9.356   4.069
64836W        W33241  39.476  11.731   0.917
64837W        W33242  43.761   0.719  11.129
64838W        W33243  20.158   9.620  13.048
64839W        W33244  29.785  35.459  14.381
64840W        W33245  24.840   3.825  11.638
64841W        W33246   7.469  14.045   2.017
64842W        W33247  15.260  33.939   1.329
64843W        W33248  14.374   5.849   4.768
64844W        W33249  23.571  39.302   3.250
64845W        W33250  25.352  21.700  11.957
64846W        W33251  21.123  32.891  14.556
64847W        W33252  10.905  26.268  14.026
64848W        W33253  43.971  44.575  10.571
64849W        W33254  26.699  35.827  14.843
64850W        W33255  10.090  10.738  10.703
64851W        W33256  19.502  15.885  11.515
64852W        W33257  44.231  15.618   2.752
64853W        W33258  13.083  30.489  12.882
64854W        W33259   0.900  34.916   4.362
64855W        W33260  31.779  16.023  11.060
64856W        W33261  25.532  28.203   0.394
64857W        W33262  13.327  13.747  14.889
64858W        W33263  28.145  25.043   4.542
64859W        W33264   9.583  23.518   2.318
64860W        W33265  30.453  27.163   2.772
64861W        W33266  43.622  25.740  13.766
64862W        W33267   2.854  41.361   3.187
64863W        W33268  41.696  38.337  11.112
64864W        W33269   7.691   5.440   3.714
64865W        W33270  13.497  42.199  11.664
64866W        W33271  39.838   9.198   0.053
64867W        W33272  38.104  23.563  14.195
64868W        W33273  16.674  20.482  14.140
64869W        W33274   7.740  39.584   1.343
64870W        W33275  20.652  13.907  13.327
64871W        W33276  10.311  15.759  11.997
64872W        W33277  13.566  23.049  14.336
64873W        W33278   3.441  14.190   0.049
64874W        W33279  38.055   6.387   1.841
64875W        W33280  24.369  40.857   0.703
64876W        W33281  28.627  18.773   0.454
64877W        W33282  39.024  31.899   3.710
64878W        W33283  38.061  38.812  11.027
64879W        W33284  23.237  27.867  13.329
64880W        W33285  40.447  28.059  11.989
64881W        W33286  31.732  36.021   2.953
64882W        W33287  28.675  43.847   4.851
64883W        W33288  27.640   8.185   1.744
64884W        W33289   4.144  26.396  12.984
64885W        W33290  26.208   0.695  14.810
64886W        W33291  15.054  28.069  11.421
64887W        W33292  20.407  27.510   1.924
64888W        W33293   3.514  10.000   2.970
64889W        W33294  44.825  40.854  10.866
64890W        W33295  21.958  25.650  10.552
64891W        W33296   1.043  38.084   1.042
64892W        W33297  33.796  28.385  13.007
64893W        W33298  23.062   1.298   4.361
64894W        W33299   1.290  41.751  12.642
64895W        W33300   4.023   0.978  12.790
64896W        W33301  37.418  35.508  14.834
64897W        W33302  16.504  15.201   4.938
64898W        W33303  39.322  23.424  14.882
64899W        W33304   4.014   5.098   2.611
64900W        W33305  12.163  32.913   0.362
64901W        W33306  30.958  29.434  11.499
64902W        W33307   9.774  11.624   0.005
64903W        W33308  27.128  33.131  12.022
64904W        W33309  11.291  40.395  14.326
64905W        W33310   8.285  23.824   1.824
64906W        W33311   0.043  35.890  11.270
64907W        W33312  27.443  16.165   2.202
64908W        W33313  32.425  40.373  12.693
64909W        W33314  33.860  12.922  13.824
64910W        W33315   6.752   2.631  11.975
64911W        W33316  42.857  12.520   0.768
64912W        W33317  37.441  26.986   0.333
64913W        W33318  39.030  35.897  12.504
64914W        W33319  15.523  15.672   4.091
64915W        W33320  18.117  29.801   1.419
64916W        W33321   1.856   5.865   0.327
64917W        W33322  25.157  19.244  14.143
64918W        W33323  20.504   3.464  12.187
64919W        W33324  17.759   6.224  14.892
64920W        W33325  17.644  36.410  13.083
64921W        W33326  13.549  15.104   4.045
64922W        W33327   1.593  33.888   4.547
64923W        W33328  38.241  23.662  12.152
64924W        W33329  22.061  17.589   3.003
64925W        W33330  34.966  35.163  14.295
64926W        W33331  14.246  19.057  12.804
64927W        W33332  28.371  34.358  11.564
64928W        W33333  20.676  31.822   1.247
64929W        W33334   5.393  24.750   3.259
64930W        W33335  33.097  16.289  14.573
64931W        W33336  13.052  22.971   0.214
64932W        W33337  43.930  20.713   4.731
64933W        W33338  25.002   7.918  10.517
64934W        W33339  18.030   6.725  14.285
64935W        W33340  16.291  37.131  11.212
64936W        W33341  11.496  11.134  12.906
64937W        W33342  17.078  16.937   3.607
64938W        W33343  26.537  14.766  11.980
64939W        W33344  12.202  24.592   0.031
64940W        W33345  44.774  36.059   0.785
64941W        W33346  22.978  17.224  14.450
64942W        W33347  43.972  23.542   2.845
64943W        W33348  35.852  11.736   3.387
64944W        W33349   2.378  37.096  12.428
64945W        W33350  31.130  36.270  11.216
64946W        W33351   7.297  43.007   2.291
64947W        W33352  20.316  31.948  12.948
64948W        W33353  12.107  22.987   2.277
64949W        W33354  25.029  28.674   0.415
64950W        W33355   7.297  28.763  12.872
64951W        W33356  30.226   8.411   0.057
64952W        W33357  42.760  38.659   2.790
64953W        W33358   8.875  19.014   4.865
64954W        W33359  37.261  19.864  11.259
64955W        W33360  13.830  36.343   2.394
64956W        W33361  23.240  15.679   0.239
64957W        W33362  17.666  39.467   4.078
64958W        W33363  16.077   1.662  14.509
64959W        W33364  44.760   9.507  13.050
64960W        W33365  25.115  23.175   4.618
64961W        W33366   2.054  16.752   1.035
64962W        W33367  24.707  34.390   4.213
64963W        W33368  38.862   6.799   1.831
64964W        W33369  25.751   0.762  12.052
64965W        W33370  27.828  24.591  13.937
64966W        W33371   7.018  10.697  12.636
64967W        W33372  15.140  31.494   3.726
64968W        W33373  26.297  43.312   4.391
64969W        W33374  15.556  26.571   2.944
64970W        W33375  25.655  17.288  13.456
64971W        W33376   6.801  19.106  13.978
64972W        W33377   2.957  37.881   2.357
64973W        W33378   8.417  30.652  11.977
64974W        W33379   0.737  44.792   3.088
64975W        W33380   0.009   5.676  13.550
64976W        W33381  18.768  21.700   9.817
64977W        W33382   1.342  16.710  11.788
64978W        W33383   1.618   6.795  13.835
64979W        W33384  41.335   1.826  14.962
64980W        W33385   5.472  23.585  14.994
64981W        W33386  22.016  38.574   2.441
64982W        W33387  36.624  44.367   9.937
64983W        W33388  38.037  44.376   4.088
64984W        W33389  18.305  35.935  13.098
64985W        W33390   0.964  17.535  10.808
64986W        W33391  31.017  17.077   5.566
64987W        W33392  42.856   4.786   1.223
64988W        W33393  24.945  40.598   2.407
64989W        W33394  44.873  25.448  10.456
64990W        W33395  19.023  30.947   2.351
64991W        W33396  19.150  30.832   1.174
64992W        W33397  37.434  18.092  14.931
64993W        W33398  40.064  39.938  11.204
64994W        W33399  26.194  13.314  14.879
64995W        W33400   5.478   0.808  12.377
64996W        W33401  38.964  44.005   2.177
64997W        W33402  28.271  44.977   3.241
64998W        W33403   3.750  16.609   3.356
64999W        W33404  31.182  27.571   4.162
65000W        W33405  44.865  40.621   0.189
65001W        W33406   7.959  29.443   1.427
65002W        W33407  34.910   2.495   0.380
65003W        W33408   4.244  38.031  11.920
65004W        W33409   3.816  14.498  12.661
65005W        W33410  30.897  18.480   3.797
65006W        W33411   0.880  21.499  12.111
65007W        W33412   7.306  15.665  13.605
65008W        W33413  30.446  32.085  11.541
65009W        W33414  38.996   1.278   1.189
65010W        W33415   6.326   7.300  11.522
65011W        W33416  26.405  28.084  12.716
65012W        W33417  34.639  20.594  12.606
65013W        W33418  30.240   3.328  12.155
65014W        W33419  29.241  29.074   0.728
65015W        W33420  39.196   8.824  11.978
65016W        W33421  38.561  12.770   4.644
65017W        W33422   3.722  22.998  11.904
65018W        W33423   0.935  34.510   2.405
65019W        W33424  17.559   4.022   2.401
65020W        W33425   8.263  24.107  12.982
65021W        W33426  15.854   7.320  14.437
65022W        W33427  35.167   4.022   0.808
65023W        W33428  27.238  30.388   2.704
65024W        W33429  12.568  33.659  13.751
65025W        W33430  33.182  11.624   3.155
65026W        W33431  16.175  37.344  13.581
65027W        W33432  18.084  11.885  11.118
65028W        W33433   6.410  28.338   2.242
65029W        W33434  18.562  32.188  14.774
65030W        W33435  26.441  16.300  11.567
65031W        W33436  37.559  39.183   2.939
65032W        W33437  33.438  21.300   3.244
65033W        W33438  38.614  17.250   5.051
65034W        W33439   1.352  41.305   4.941
65035W        W33440   8.748  42.380  13.918
65036W        W33441  25.633  16.596  13.890
65037W        W33442   8.956   1.536  10.292
65038W        W33443  32.900  12.969   1.252
65039W        W33444   8.393  30.229   0.387
65040W        W33445  14.590   9.344  14.391
65041W        W33446  30.558  27.651  11.719
65042W        W33447   2.006  28.174  10.700
65043W        W33448  15.779  22.009  13.919
65044W        W33449   0.120  31.476  11.053
65045W        W33450  30.867  22.674  10.332
65046W        W33451  27.863  25.547  14.006
65047W        W33452   2.973  41.838   4.550
65048W        W33453  23.009  41.727  12.501
65049W        W33454  11.838  19.444  12.100
65050W        W33455   7.461  22.805  12.979
65051W        W33456  20.468   1.453   1.907
65052W        W33457  33.950  32.838   4.180
65053W        W33458  30.291   1.421   2.089
65054W        W33459  36.338   7.970  10.900
65055W        W33460  15.743  11.517   1.781
65056W        W33461  16.494  10.530  12.091
65057W        W33462  25.502  18.071  10.228
65058W        W33463  20.228  31.700   3.467
65059W        W33464  17.052  15.220  14.712
65060W        W33465  24.699  18.324  11.391
65061W        W33466  18.389  21.538   2.791
65062W        W33467   7.632   0.795  11.414
65063W        W33468   2.827  26.391  13.197
65064W        W33469  11.250  28.352   0.396
65065W        W33470  39.294  26.547  10.787
65066W        W33471   4.980  21.054   3.577
65067W        W33472  12.672  24.532  12.921
65068W        W33473   8.354  31.879  12.380
65069W        W33474  27.177  43.041  12.380
65070W        W33475   9.326  16.783   1.259
65071W        W33476   8.664  43.720   0.471
65072W        W33477  28.253  41.544  13.869
65073W        W33478  11.792  18.020   1.276
65074W        W33479  30.203  44.696  12.308
65075W        W33480  18.116   8.624  12.946
65076W        W33481  10.415  36.183   1.967
65077W        W33482  11.214  23.442   2.104
65078W        W33483  32.536  20.775   4.151
65079W        W33484  14.100  16.749   0.244
65080W        W33485  20.215  11.247   2.459
65081W        W33486  27.423  37.813   1.790
65082W        W33487   1.446   2.836   4.226
65083W        W33488  33.500  10.824  10.531
65084W        W33489   1.815  15.774   1.352
65085W        W33490  36.104  33.392   1.295
65086W        W33491  42.999  39.738   4.539
65087W        W33492  19.417   4.293  14.075
65088W        W33493  16.482  18.733   2.943
65089W        W33494   3.823  35.030   3.183
65090W        W33495  35.081  31.131  11.126
65091W        W33496  33.805  14.203  14.063
65092W        W33497   3.209  17.628  10.913
65093W        W33498  30.061   9.894  13.945
65094W        W33499  14.902   3.804   3.287
65095W        W33500   7.400  16.255   0.957
65096W        W33501  14.671  31.524   2.197
65097W        W33502  13.109  44.277  10.218
65098W        W33503  37.528  33.126   4.862
65099W        W33504  26.091  43.536   3.972
65100W        W33505  41.422  34.586   3.650
65101W        W33506  29.714  13.959  13.962
65102W        W33507  24.646  38.941   3.805
65103W        W33508   2.843  19.311   0.803
65104W        W33509  18.608   4.085  12.918
65105W        W33510  34.052  40.856   4.465
65106W        W33511  26.688   6.740   0.259
65107W        W33512  27.711  21.611   1.756
65108W        W33513  10.640  15.041   0.282
65109W        W33514   6.031   3.873   4.342
65110W        W33515  32.781  15.045  12.963
65111W        W33516  29.634  23.932  12.360
65112W        W33517  37.918   9.518   3.304
65113W        W33518   0.312   6.867   3.317
65114W        W33519  24.175  18.814   0.319
65115W        W33520  38.057   7.625   3.910
65116W        W33521  27.375   9.904  14.803
65117W        W33522  18.968  27.017  13.939
65118W        W33523   4.612  20.170  12.923
65119W        W33524  30.901   4.240  11.593
65120W        W33525  19.244  11.997  11.228
65121W        W33526  17.030  32.607  13.295
65122W        W33527   7.600  32.848  12.821
65123W        W33528  34.205  13.261   3.659
65124W        W33529   8.299   5.171   3.299
65125W        W33530  16.226  21.266  12.054
65126W        W33531  12.133  29.710  11.992
65127W        W33532  43.768  26.488  13.575
65128W        W33533  44.315  35.133  12.115
65129W        W33534   7.892  26.136   4.718
65130W        W33535  24.152  38.184   0.449
65131W        W33536  21.793  10.393  12.021
65132W        W33537   2.885  44.728   1.208
65133W        W33538  39.198  12.249   2.835
65134W        W33539   9.134   7.615  14.936
65135W        W33540  11.266  13.725  14.628
65136W        W33541  14.058   5.961   2.328
65137W        W33542   1.429  19.209   0.397
65138W        W33543  23.564   4.720   1.629
65139W        W33544  40.344   1.988   0.499
65140W        W33545  29.744  27.707  10.635
65141W        W33546  24.711   8.459  13.588
65142W        W33547  31.568   7.822  13.517
65143W        W33548  44.553   3.679  13.796
65144W        W33549  38.881  31.856   0.798
65145W        W33550  21.133  18.996   3.812
65146W        W33551   3.011  23.840   1.697
65147W        W33552  28.815  15.650  10.258
65148W        W33553  24.676  34.605  14.903
65149W        W33554  14.288   0.519   0.568
65150W        W33555  44.504  27.167  14.375
65151W        W33556  32.880  18.622   3.886
65152W        W33557  26.924  28.900  11.552
65153W        W33558  43.821  27.721   2.255
65154W        W33559  12.162   3.862   0.029
65155W        W33560  12.350  22.508  12.454
65156W        W33561  24.391   4.898  11.625
65157W        W33562  43.961  42.024   0.997
65158W        W33563   0.322  27.685   3.183
65159W        W33564   2.425  14.968  11.144
65160W        W33565  38.938   4.386  11.560
65161W        W33566  33.004  13.271   3.221
65162W        W33567  23.479  19.535  12.654
65163W        W33568  39.821  32.116   2.409
65164W        W33569  28.154   6.725   3.666
65165W        W33570  10.643  14.371  10.273
65166W        W33571  43.417   5.972   3.093
65167W        W33572  17.549  14.811  13.269
65168W        W33573  35.870  24.915   1.802
65169W        W33574  26.165  30.561   0.425
65170W        W33575   9.759  42.565   4.070
65171W        W33576   3.883   2.035  10.722
65172W        W33577  18.730   2.311  13.834
65173W        W33578  34.414  27.713   0.461
65174W        W33579  35.075   6.120  10.743
65175W        W33580   3.343   4.352  13.333
65176W        W33581   2.303  33.853  13.489
65177W        W33582  29.515   2.976  11.545
65178W        W33583  14.189  25.163   4.080
65179W        W33584  37.584  28.946  14.438
65180W        W33585  34.942   1.898   1.416
65181W        W33586  19.289  28.450   1.541
65182W        W33587   9.557  35.681   4.882
65183W        W33588   2.618   3.435   1.967
65184W        W33589  13.141  26.130   2.908
65185W        W33590  28.512  38.133   3.139
65186W        W33591  38.319  28.107   2.977
65187W        W33592  11.328   4.291  11.384
65188W        W33593  24.121  22.399   2.674
65189W        W33594   5.776  35.593   4.177
65190W        W33595  24.287  20.218   0.500
65191W        W33596  21.646  39.236  10.391
65192W        W33597  13.255   5.263   0.906
65193W        W33598  17.010   3.201  13.491
65194W        W33599  10.137  40.748   3.611
65195W        W33600   8.473  32.373   2.298
65196W        W33601  21.201   3.626  11.206
65197W        W33602  13.343   7.154   3.225
65198W        W33603  27.625  17.515   0.690
65199W        W33604  41.116  26.951   0.525
65200W        W33605  27.632   9.068   2.850
65201W        W33606   9.664   6.367  12.655
65202W        W33607  15.857   3.887   1.483
65203W        W33608  40.845  39.399  13.979
65204W        W33609  34.162   8.279  13.805
65205W        W33610  19.161  44.658  13.040
65206W        W33611  19.102  41.524   3.031
65207W        W33612  38.167  27.234   4.518
65208W        W33613  11.789   3.399   4.327
65209W        W33614  12.121   6.753  13.001
65210W        W33615  30.611   3.492   2.491
65211W        W33616  42.001  32.717  10.664
65212W        W33617  35.433  34.909   3.404
65213W        W33618  31.909  30.321  12.194
65214W        W33619  33.884  39.758   1.271
65215W        W33620  19.948  11.803   1.461
65216W        W33621  32.426  38.528   0.375
65217W        W33622  38.792  20.030   3.317
65218W        W33623   1.475  32.945   3.708
65219W        W33624  13.715  17.331  14.690
65220W        W33625  31.050  24.613  12.921
65221W        W33626  40.847  16.556   2.809
65222W        W33627  12.678   5.650   3.685
65223W        W33628  24.461  35.020  13.908
65224W        W33629  21.941  35.530  14.800
65225W        W33630  11.770   7.860  12.883
65226W        W33631   3.981  22.490  14.711
65227W        W33632  17.303  28.212   4.448
65228W        W33633  28.314  15.737  11.150
65229W        W33634  31.522  13.492  14.285
65230W        W33635   7.812  27.199  12.395
65231W        W33636  27.114  39.546   3.672
65232W        W33637  31.031  21.197   1.262
65233W        W33638  16.816  39.738   0.425
65234W        W33639  28.390  42.243  11.502
65235W        W33640  44.103  23.996   3.226
65236W        W33641  36.952   8.229   5.025
65237W        W33642  18.587  28.643  14.583
65238W        W33643  16.081  23.685  12.015
65239W        W33644   1.920   1.957   0.344
65240W        W33645  20.110  31.520   0.897
65241W        W33646  15.815  30.431   0.656
65242W        W33647  34.125  24.452   2.542
65243W        W33648  22.259  27.012   2.861
65244W        W33649   4.307  10.783  12.800
65245W        W33650  17.649   1.171  11.507
65246W        W33651  21.271  19.157   0.346
65247W        W33652  31.579  11.325  12.318
65248W        W33653   5.326  29.060   3.028
65249W        W33654  41.938   7.933  10.508
65250W        W33655  16.016   5.766   0.390
65251W        W33656  42.515   7.209  12.112
65252W        W33657  41.008   8.156  12.371
65253W        W33658   1.905  37.376  14.103
65254W        W33659   5.053  40.114  14.555
65255W        W33660  27.101  15.063   3.380
65256W        W33661  25.180  30.153   0.450
65257W        W33662  22.595  10.960   2.493
65258W        W33663  38.174  42.018  14.251
65259W        W33664  11.882  16.621  14.747
65260W        W33665  28.752  21.677   2.817
65261W        W33666  21.963  37.135   4.977
65262W        W33667   2.741   4.943  14.892
65263W        W33668  18.767  29.097  14.855
65264W        W33669  29.997  22.743  11.537
65265W        W33670  14.700  24.971   2.451
65266W        W33671  41.064  23.547   3.330
65267W        W33672  42.004  38.861  13.841
65268W        W33673  27.735  17.556  13.940
65269W        W33674  19.613   9.178   3.622
65270W        W33675  41.508  14.872   0.447
65271W        W33676  12.214   8.644  13.012
65272W        W33677   9.769   5.146  10.794
65273W        W33678  39.299   8.926  13.440
65274W        W33679  18.574  11.204   0.476
65275W        W33680  18.799  16.558   4.216
65276W        W33681   8.092   6.875   2.744
65277W        W33682  34.041  15.577   0.614
65278W        W33683  32.453   1.214   2.190
65279W        W33684  14.569   4.180  12.112
65280W        W33685  41.757  23.216  13.258
65281W        W33686  34.059  41.205   2.238
65282W        W33687   5.913  44.263  14.940
65283W        W33688  34.295  32.024   0.658
65284W        W33689  28.101  43.514  14.711
65285W        W33690  22.395   5.299  12.721
65286W        W33691   7.405   7.249   0.705
65287W        W33692   9.614  13.759  10.571
65288W        W33693   3.190   7.868  11.168
65289W        W33694  39.300   2.923  11.930
65290W        W33695  20.562   4.219   0.742
65291W        W33696   1.876  16.091  10.768
65292W        W33697  31.918  42.764   2.889
65293W        W33698  40.006  27.995  12.220
65294W        W33699  34.579  36.408   1.428
65295W        W33700   2.161  38.542   0.346
65296W        W33701   8.786  26.252  11.145
65297W        W33702  24.918   4.663   4.085
65298W        W33703  24.746  35.129  12.987
65299W        W33704  42.790  39.494   4.119
65300W        W33705  23.160   7.160  13.688
65301W        W33706   2.798  22.313   3.713
65302W        W33707  28.672  31.023   3.093
65303W        W33708  30.036  43.829  11.022
65304W        W33709  42.748   6.934   4.089
65305W        W33710  36.911  16.474   2.585
65306W        W33711  39.802  27.854  13.442
65307W        W33712  31.372  43.002   0.075
65308W        W33713  32.110   1.255  14.964
65309W        W33714   3.487  21.608  13.886
65310W        W33715  27.008   5.158   3.895
65311W        W33716  23.255  27.591   2.114
65312W        W33717  16.100  33.098  14.316
65313W        W33718  43.995  25.626  14.972
65314W        W33719  15.435  35.792  11.742
65315W        W33720  26.253   1.986   4.248
65316W        W33721  30.579   8.167  13.177
65317W        W33722   1.269   1.061  12.538
65318W        W33723   2.957  27.332   3.246
65319W        W33724   8.285   9.373   2.349
65320W        W33725  20.630   9.331   4.706
65321W        W33726  12.700  17.676  10.576
65322W        W33727  12.303  25.400  10.906
65323W        W33728  12.121  29.834  14.526
65324W        W33729  22.675  18.437   0.668
65325W        W33730  25.157  31.956  10.546
65326W        W33731  27.707  12.227  12.996
65327W        W33732  18.117  35.526   4.434
65328W        W33733   3.812  31.628  12.628
65329W        W33734  40.672   9.695   2.539
65330W        W33735  42.559  40.344   2.325
65331W        W33736  41.745  28.262  11.238
65332W        W33737   1.394  15.780  13.811
65333W        W33738  13.822  36.120  14.409
65334W        W33739   6.751  32.505  11.125
65335W        W33740   4.595   0.208  11.118
65336W        W33741  25.000  16.317   1.347
65337W        W33742   2.957  12.385  12.460
65338W        W33743   1.888  11.157   3.760
65339W        W33744  32.195  24.149   1.527
65340W        W33745  13.056  11.640   2.253
65341W        W33746  11.782  17.090   0.957
65342W        W33747   7.559  42.944  10.325
65343W        W33748  13.063   4.994   1.350
65344W        W33749  12.744  28.890   4.110
65345W        W33750  42.751   1.512  11.120
65346W        W33751  29.056  11.179   1.368
65347W        W33752  41.433   8.192   1.181
65348W        W33753   5.243  35.585  11.027
65349W        W33754  17.749  40.810  12.423
65350W        W33755  43.239  26.587  13.627
65351W        W33756  43.493   7.160   4.547
65352W        W33757   6.340  39.019   2.190
65353W        W33758  25.392   8.869  14.800
65354W        W33759  18.811  14.174   3.738
65355W        W33760  27.657  31.955   3.657
65356W        W33761  25.637   2.368   4.100
65357W        W33762  41.096  14.409  12.536
65358W        W33763  33.883  34.977  12.082
65359W        W33764   4.762  19.791  11.701
65360W        W33765  20.065   2.378  10.434
65361W        W33766  22.489   4.451   1.334
65362W        W33767  17.488  37.838   3.688
65363W        W33768  35.780   8.255  14.901
65364W        W33769   2.318  36.098  14.859
65365W        W33770  36.552  39.524   2.139
65366W        W33771   4.934   6.851  10.645
65367W        W33772   8.369  15.047  14.954
65368W        W33773  26.081  33.106   3.216
65369W        W33774  30.015  39.263   0.336
65370W        W33775   9.409  16.733   0.382
65371W        W33776  29.141  32.587   2.364
65372W        W33777  11.262   6.931  12.189
65373W        W33778  29.398  12.378   1.768
65374W        W33779  16.210   1.410  11.969
65375W        W33780  32.036  12.112  11.432
65376W        W33781  44.769   3.886   0.749
65377W        W33782   5.482  25.172   2.976
65378W        W33783  29.829  35.594  11.570
65379W        W33784   1.853  39.021   2.269
65380W        W33785  27.880   4.430   3.112
65381W        W33786  12.871  24.758  13.373
65382W        W33787   4.881  27.354  11.006
65383W        W33788  14.670  38.439   1.653
65384W        W33789  24.159  20.064   3.263
65385W        W33790  11.997  30.780   0.628
65386W        W33791  29.062   9.310  13.032
65387W        W33792  29.628   5.879   2.883
65388W        W33793  25.555  11.269   0.499
65389W        W33794  10.397  23.733   4.170
65390W        W33795  38.465  12.897  12.080
65391W        W33796  37.327  38.396  13.015
65392W        W33797  44.454  11.272   5.006
65393W        W33798   4.149  39.034  12.183
65394W        W33799  28.395  25.560   2.284
65395W        W33800  10.634   0.816  11.501
65396W        W33801   7.556  38.404   3.695
65397W        W33802   7.152  18.219  14.021
65398W        W33803  14.093  41.773   1.201
65399W        W33804  19.833  28.948  11.995
65400W        W33805  42.339  43.324  12.093
65401W        W33806  44.883  44.214   4.119
65402W        W33807  29.158  21.775   0.318
65403W        W33808  34.068  22.400   4.811
65404W        W33809  16.798  20.390  14.998
65405W        W33810  36.994  27.168  12.845
65406W        W33811  41.894   6.322   1.445
65407W        W33812   2.181  40.569  13.378
65408W        W33813  32.768   1.572  14.060
65409W        W33814  21.608  35.615   4.299
65410W        W33815  27.420  28.676  14.995
65411W        W33816  27.948  16.757  13.456
65412W        W33817  35.117   4.978  10.283
65413W        W33818  27.237  29.372  13.012
65414W        W33819  20.013  20.360  14.976
65415W        W33820  43.016  34.415  10.857
65416W        W33821  18.015  18.947  11.109
65417W        W33822   3.581  26.034   1.856
65418W        W33823  28.728  32.325   3.622
65419W        W33824   4.154   8.635  10.695
65420W        W33825  16.663   7.424   4.057
65421W        W33826  25.398  33.337  11.630
65422W        W33827  23.024  28.653   2.602
65423W        W33828  22.263  21.142  14.516
65424W        W33829  44.000  18.666   4.597
65425W        W33830   0.028  25.561  11.327
65426W        W33831  26.126  32.451  11.667
65427W        W33832  21.050   6.759   0.658
65428W        W33833  16.247   1.468   2.047
65429W        W33834   1.751  17.538  11.268
65430W        W33835  43.808   1.748  13.480
65431W        W33836  21.024  26.488   3.231
65432W        W33837  10.892  13.887   4.334
65433W        W33838   0.010  21.311  14.371
65434W        W33839   2.435  39.315  12.024
65435W        W33840  21.560   4.696  12.513
65436W        W33841  38.301  15.148  11.379
65437W        W33842  14.186  23.621  10.685
65438W        W33843   3.857  15.347   3.581
65439W        W33844  25.313  36.544  11.129
65440W        W33845  17.199  30.587  13.295
65441W        W33846  27.039  35.902  10.538
65442W        W33847  25.226  32.035   1.287
65443W        W33848   8.227  21.811   3.615
65444W        W33849  27.374   1.675  12.940
65445W        W33850  36.697  11.614  11.223
65446W        W33851  31.988   2.629  10.695
65447W        W33852  29.106  41.168  13.218
65448W        W33853  27.642  20.755   3.644
65449W        W33854  17.554   9.110   2.426
65450W        W33855  28.616  10.789  14.766
65451W        W33856  43.467  13.997   2.249
65452W        W33857  40.917   1.888   9.727
65453W        W33858  25.050  25.068  12.612
65454W        W33859  26.548  19.141   0.260
65455W        W33860  26.914  22.697   3.185
65456W        W33861   7.730  34.602  12.879
65457W        W33862  12.762   9.875   2.783
65458W        W33863  26.490  11.623  14.318
65459W        W33864  12.811  40.105   3.387
65460W        W33865  42.376  11.818   4.655
65461W        W33866  43.334   3.876   0.857
65462W        W33867   4.028  41.897  13.615
65463W        W33868  38.536  23.740  11.583
65464W        W33869   9.781  36.977  11.586
65465W        W33870  24.624  18.562   0.173
65466W        W33871  32.190  16.192   2.917
65467W        W33872  29.513  37.454  10.193
65468W        W33873  20.756   1.388  12.518
65469W        W33874  22.744   9.314   3.737
65470W        W33875  37.909  33.945  11.284
65471W        W33876  20.051   0.304   3.321
65472W        W33877  13.277   3.919   2.266
65473W        W33878  15.599   1.979   0.360
65474W        W33879   5.944  38.007   1.390
65475W        W33880   3.932   6.119   3.586
65476W        W33881  10.818   9.628  12.426
65477W        W33882  24.865  40.346  12.083
65478W        W33883  19.696  11.205  11.056
65479W        W33884  25.686  10.380   3.269
65480W        W33885  17.191  28.617  14.092
65481W        W33886   7.628   9.761   4.047
65482W        W33887   5.178  35.305  10.545
65483W        W33888  18.922  22.742   4.013
65484W        W33889  13.527  23.640   3.134
65485W        W33890  17.242  15.160  12.913
65486W        W33891  12.655  35.978   1.141
65487W        W33892  10.402   1.297   3.561
65488W        W33893   1.219  21.196   1.649
65489W        W33894  14.090  26.170   4.162
65490W        W33895  21.806  32.971   0.175
65491W        W33896  29.655  22.233   4.617
65492W        W33897  33.349   2.807   1.656
65493W        W33898   0.366  22.697   4.364
65494W        W33899  29.394  23.609   0.718
65495W        W33900  27.211  16.104  10.271
65496W        W33901  33.664  29.166   4.153
65497W        W33902   9.453   3.963  13.439
65498W        W33903  34.992  29.755  14.903
65499W        W33904   6.090  38.679   0.768
65500W        W33905  17.196   9.117  11.540
65501W        W33906  17.804  32.460   5.541
65502W        W33907  17.181  33.016   3.220
65503W        W33908  42.449   3.821  13.934
65504W        W33909  44.071  24.052  12.052
65505W        W33910  33.364   3.852   3.703
65506W        W33911  41.031  24.951   1.452
65507W        W33912   2.001  28.060   2.843
65508W        W33913  17.848   6.092   9.769
65509W        W33914  27.891  19.654  14.035
65510W        W33915   4.842  21.466   2.668
65511W        W33916   3.267  21.941   1.067
65512W        W33917  10.533   1.938  10.030
65513W        W33918  44.389  12.259  11.107
65514W        W33919   4.443  25.609  11.226
65515W        W33920  30.826  21.225   4.147
65516W        W33921  14.643  19.860  12.878
65517W        W33922  41.078  20.723   2.408
65518W        W33923   0.147  14.502  13.042
65519W        W33924  39.475  23.545   3.657
65520W        W33925  33.025  23.572   1.462
65521W        W33926  35.492  14.265  10.697
65522W        W33927   0.869  37.353   0.246
65523W        W33928  12.303  27.777   2.110
65524W        W33929  13.303  44.582   0.440
65525W        W33930  18.044  42.353   3.123
65526W        W33931   8.800  38.463  13.772
65527W        W33932   4.609  11.412  11.179
65528W        W33933  21.680  19.747  14.031
65529W        W33934  16.191  25.889   4.231
65530W        W33935  30.065   6.398   1.875
65531W        W33936  20.720  29.916   2.913
65532W        W33937   5.956  25.522   2.314
65533W        W33938   3.785  29.068   4.292
65534W        W33939  31.385   7.384   0.152
65535W        W33940   4.845  13.761   1.165
65536W        W33941  15.129   1.765  13.588
65537W        W33942  21.464  14.143   2.750
65538W        W33943  34.918  23.174  10.627
65539W        W33944  22.226  26.252   2.331
65540W        W33945  41.519  25.453  13.943
65541W        W33946   4.863  37.826  14.963
65542W        W33947  34.963  14.567   2.342
65543W        W33948  37.508   8.867  14.955
65544W        W33949   8.803  35.636   0.291
65545W        W33950   0.640  17.508  12.024
65546W        W33951  24.435  26.041   2.732
65547W        W33952  36.728  41.451  10.154
65548W        W33953  29.366  28.637  10.829
65549W        W33954  11.209  26.304  12.083
65550W        W33955  24.531  35.365  13.465
65551W        W33956  36.348  23.171   2.398
65552W        W33957  20.798  21.630   3.115
65553W        W33958  16.211  41.452   0.886
65554W        W33959  41.755  20.782   3.246
65555W        W33960  33.545  30.894   3.155
65556W        W33961  26.923  40.700  13.905
65557W        W33962   8.931  41.217  10.681
65558W        W33963  37.298  21.040   1.500
65559W        W33964  18.235  24.491  12.890
65560W        W33965  12.145  28.588   2.713
65561W        W33966   9.846  36.087   3.281
65562W        W33967   7.145  33.851  12.087
65563W        W33968  36.383   1.230  11.122
65564W        W33969  18.853  13.362   2.818
65565W        W33970   8.789   7.855   1.379
65566W        W33971  36.960  40.657   5.100
65567W        W33972  10.790  10.622  14.498
65568W        W33973  23.233  21.906  11.295
65569W        W33974  32.022  20.224  14.368
65570W        W33975  36.016   6.188   4.050
65571W        W33976  27.376  37.012   0.938
65572W        W33977  29.445  34.879  14.972
65573W        W33978  35.249  10.578   4.928
65574W        W33979  40.113  16.791  11.115
65575W        W33980  44.185   3.478   1.330
65576W        W33981   8.737   8.420   4.098
65577W        W33982   4.246  21.265  14.374
65578W        W33983  15.651  23.669  13.370
65579W        W33984  36.474   2.733  11.901
65580W        W33985  36.799   4.800   2.771
65581W        W33986   0.682   2.399  14.496
65582W        W33987  28.478   4.361  14.340
65583W        W33988  18.141   7.328  13.130
65584W        W33989   4.970   2.511   1.712
65585W        W33990  17.903  23.524  12.294
65586W        W33991  20.817  31.156  12.793
65587W        W33992   4.903  30.985   4.556
65588W        W33993  28.322  10.797   2.354
65589W        W33994  15.669  18.927  12.877
65590W        W33995  37.554   6.790  14.879
65591W        W33996  36.757  27.896  13.963
65592W        W33997  24.717  34.637  12.880
65593W        W33998  31.022   5.683  13.967
65594W        W33999  29.592   9.868  11.043
65595W        W34000  13.828  38.071   3.222
65596W        W34001  39.434  27.040   1.169
65597W        W34002  27.541  40.818  13.260
65598W        W34003  36.940  30.462   0.472
65599W        W34004  31.549   8.299   0.153
65600W        W34005  10.921  19.126  11.243
65601W        W34006  43.329  33.795   0.783
65602W        W34007  23.965  29.134   0.202
65603W        W34008  16.302  30.788   5.068
65604W        W34009  32.067  42.585   1.475
65605W        W34010  31.153  23.580  14.736
65606W        W34011  39.665  31.853   1.355
65607W        W34012   3.798   7.809  11.947
65608W        W34013  10.160  44.440  11.208
65609W        W34014   2.254  30.497  11.498
65610W        W34015  41.850  15.216  12.455
65611W        W34016  26.354  35.168   0.794
65612W        W34017  16.231  33.726   1.516
65613W        W34018  44.517  30.131  13.966
65614W        W34019  44.945  38.428  12.927
65615W        W34020  23.745   2.828   0.518
65616W        W34021   8.234  27.962   3.131
65617W        W34022   0.369   9.051   5.007
65618W        W34023   9.317  23.620  11.571
65619W        W34024   0.312  35.121   1.315
65620W        W34025   8.908  13.801  14.253
65621W        W34026  33.837   8.364   0.436
65622W        W34027  33.372  22.174  11.438
65623W        W34028   1.811  19.455   1.173
65624W        W34029  32.415  42.232  11.198
65625W        W34030  35.868  33.107  14.579
65626W        W34031  41.975  29.912   1.415
65627W        W34032  35.535   9.561   1.291
65628W        W34033  24.998   6.884  14.766
65629W        W34034  40.564  26.642  12.482
65630W        W34035  18.461  20.111   2.548
65631W        W34036  26.690  33.301  14.440
65632W        W34037  35.038   8.686   0.451
65633W        W34038  22.736  36.380  13.053
65634W        W34039   5.922   9.910  10.527
65635W        W34040  11.727  22.744   3.733
65636W        W34041  34.021  37.016   1.940
65637W        W34042  17.564  26.690  10.768
65638W        W34043  29.455   8.462  12.358
65639W        W34044  41.304  39.681   4.230
65640W        W34045   6.634  39.640   2.216
65641W        W34046  14.888   1.778   0.956
65642W        W34047  13.012  22.479  12.170
65643W        W34048  13.590  35.384  11.607
65644W        W34049  37.283  11.349   4.138
65645W        W34050  35.893   2.688  10.301
65646W        W34051  26.000  11.583   1.471
65647W        W34052   2.191   7.738  11.491
65648W        W34053   1.541  22.615   4.896
65649W        W34054  22.767  13.286  10.947
65650W        W34055   5.699  23.586   1.803
65651W        W34056  37.791   5.832   1.770
65652W        W34057  35.920   2.763   0.432
65653W        W34058  13.142   5.506   1.341
65654W        W34059  38.666   4.695   0.908
65655W        W34060  29.968  40.364   4.208
65656W        W34061   1.205  32.482   4.554
65657W        W34062  18.765  29.850  13.461
65658W        W34063   4.278  16.546  13.885
65659W        W34064   3.441  24.636  13.865
65660W        W34065  21.559   7.868   2.200
65661W        W34066  31.936  25.227   2.136
65662W        W34067  40.351  32.176  10.296
65663W        W34068  13.126  17.532   3.094
65664W        W34069   1.288  20.322  14.886
65665W        W34070  38.024  12.199  10.705
65666W        W34071  20.300  44.506  10.730
65667W        W34072  19.394  27.865   2.753
65668W        W34073  10.288  36.941   3.600
65669W        W34074  16.048  30.023  14.973
65670W        W34075   7.267  28.990   3.888
65671W        W34076  32.643  42.758  11.958
65672W        W34077  15.746  26.160   9.920
65673W        W34078  12.283  41.857  14.940
65674W        W34079   7.118   9.198  14.240
65675W        W34080   9.059  10.727   2.346
65676W        W34081  37.047   5.888  10.764
65677W        W34082  40.099  43.306   0.259
65678W        W34083  38.501  15.804   1.657
65679W        W34084  18.855   6.407  11.489
65680W        W34085  13.249  10.712  10.907
65681W        W34086  30.336  21.683  11.506
65682W        W34087  23.656   8.682  14.341
65683W        W34088  39.025   9.155   4.139
65684W        W34089   9.547  13.735   0.642
65685W        W34090  37.460  17.054  14.601
65686W        W34091  24.954   5.239   4.641
65687W        W34092  21.238  40.506   4.131
65688W        W34093  28.929  39.409   5.516
65689W        W34094  36.958   6.944  10.698
65690W        W34095   5.241   8.899   2.778
65691W        W34096  15.160   5.420  12.038
65692W        W34097  20.060  16.673   1.316
65693W        W34098  17.687  33.923   4.941
65694W        W34099  40.074   4.945  11.221
65695W        W34100  31.117  38.383   1.618
65696W        W34101  34.044  26.330   1.753
65697W        W34102   9.842   5.238   1.952
65698W        W34103  31.894  21.986   2.266
65699W        W34104  24.911  10.177  14.307
65700W        W34105  18.971  30.023  12.079
65701W        W34106  29.053  18.418   4.248
65702W        W34107  15.238  37.357  10.414
65703W        W34108  41.897  29.092   2.708
65704W        W34109   3.118   6.215  14.957
65705W        W34110  14.745  38.912   1.878
65706W        W34111   9.292  19.161  10.573
65707W        W34112  32.665  32.600  13.346
65708W        W34113  12.260  28.480   3.251
65709W        W34114  37.487   2.805  11.189
65710W        W34115  25.128  43.435   3.092
65711W        W34116  29.046   7.487   0.907
65712W        W34117  44.369  12.097  13.112
65713W        W34118  24.755   9.655   0.237
65714W        W34119  32.968  36.027  11.329
65715W        W34120  27.596  10.758  14.657
65716W        W34121  24.824  38.263  14.311
65717W        W34122  17.028  29.654  12.181
65718W        W34123  39.882   1.547  12.611
65719W        W34124  29.910  31.450  10.451
65720W        W34125  36.509  43.479   4.236
65721W        W34126  43.347   7.549  14.856
65722W        W34127  16.711   3.301   5.122
65723W        W34128   5.884   0.500   2.841
65724W        W34129  24.518  25.045  10.457
65725W        W34130   4.185  34.949   3.936
65726W        W34131  18.758  11.612   5.020
65727W        W34132  27.274  28.147   4.630
65728W        W34133  37.851  41.972  12.308
65729W        W34134  41.634   1.790  14.321
65730W        W34135  28.701  36.766  14.815
65731W        W34136  25.198  11.112   3.678
65732W        W34137  25.792  43.660  11.579
65733W        W34138  31.983   6.325  14.107
65734W        W34139  41.806   2.654  13.582
65735W        W34140   5.795  19.775   3.042
65736W        W34141   0.965  43.283   1.826
65737W        W34142  40.583  41.459   1.468
65738W        W34143  15.975  31.060  14.874
65739W        W34144  32.668  24.032   4.665
65740W        W34145  23.671  31.830   0.749
65741W        W34146   9.907   6.273   2.604
65742W        W34147   0.395  19.996   4.464
65743W        W34148  16.318   8.721   0.899
65744W        W34149  32.467  24.227   4.207
65745W        W34150  10.082  41.052  12.881
65746W        W34151  32.939  30.890   0.975
65747W        W34152  26.607  35.138   2.513
65748W        W34153  13.842  19.380   1.747
65749W        W34154  44.384  28.974   0.038
65750W        W34155  26.987   9.185  14.486
65751W        W34156   9.113  20.251   2.235
65752W        W34157  22.317  32.009  14.872
65753W        W34158  44.000  20.855  13.961
65754W        W34159   2.422  20.712   4.370
65755W        W34160  41.303  33.059  12.010
65756W        W34161   2.703   7.632  11.135
65757W        W34162  22.913  43.849  14.757
65758W        W34163  23.926  25.734   1.255
65759W        W34164  21.661  11.817   3.972
65760W        W34165  21.732  14.631  10.703
65761W        W34166  44.023  32.465  11.617
65762W        W34167  33.333  14.619   3.197
65763W        W34168  31.983   4.196   4.139
65764W        W34169  23.157   2.494  13.515
65765W        W34170   0.824  19.725  12.902
65766W        W34171  15.629   8.405   1.088
65767W        W34172  43.346  29.991   0.362
65768W        W34173  15.759  16.069  12.703
65769W        W34174   4.497  40.926  14.928
65770W        W34175  39.537  33.940   3.936
65771W        W34176  44.824  25.510   3.350
65772W        W34177  35.683   9.204   3.431
65773W        W34178  17.194   6.261   0.775
65774W        W34179  33.922  14.284   0.447
65775W        W34180   3.425   4.909   4.738
65776W        W34181  30.625  12.029   0.956
65777W        W34182  31.938  10.800  10.768
65778W        W34183  16.378  32.067   0.473
65779W        W34184  10.969  13.756  11.395
65780W        W34185  14.301  19.727   4.403
65781W        W34186   2.917  27.204  13.531
65782W        W34187   4.156  18.344  13.559
65783W        W34188  19.281  33.827   3.324
65784W        W34189  36.438   3.463  12.953
65785W        W34190  44.700  29.435  11.124
65786W        W34191  39.618  41.494   1.426
65787W        W34192   8.888  24.087   3.126
65788W        W34193  32.493  41.834  12.985
65789W        W34194  16.612  40.885   2.799
65790W        W34195  21.967  21.133  13.071
65791W        W34196  10.430  39.985  14.494
65792W        W34197  20.007  30.606  13.086
65793W        W34198  20.765  23.621  11.116
65794W        W34199  18.166  35.829  11.537
65795W        W34200  13.233  42.423  11.259
65796W        W34201  11.726  26.422   0.284
65797W        W34202  33.173  41.041   2.312
65798W        W34203  25.388  42.474   0.280
65799W        W34204  25.465   0.210  13.487
65800W        W34205  35.637  22.167  14.482
65801W        W34206  37.439  36.511   2.801
65802W        W34207   2.230  29.502  13.464
65803W        W34208  13.811  18.675   1.214
65804W        W34209   4.665  43.599   0.530
65805W        W34210  29.581  40.578   0.406
65806W        W34211   7.765  14.402  11.541
65807W        W34212  28.055   5.195   2.830
65808W        W34213  30.079   3.964   1.725
65809W        W34214   6.027  28.892  13.275
65810W        W34215  39.294  11.980  11.457
65811W        W34216  12.813  32.001  11.983
65812W        W34217  15.804  43.219   3.721
65813W        W34218   6.151  35.896   5.002
65814W        W34219  40.275   7.709  14.344
65815W        W34220  25.277  10.648  12.264
65816W        W34221  38.341  23.314  12.554
65817W        W34222  38.058  12.867  14.341
65818W        W34223  18.721  41.965   1.206
65819W        W34224  23.706  20.393   4.538
65820W        W34225   6.051  22.129   1.859
65821W        W34226  32.527  16.435  11.960
65822W        W34227  12.943  24.907  11.966
65823W        W34228  34.784  23.537  13.259
65824W        W34229   9.788   2.996  11.574
65825W        W34230  29.594  31.253   1.156
65826W        W34231  20.816  39.437  12.055
65827W        W34232  18.591  32.839   2.269
65828W        W34233  18.804   7.919   1.985
65829W        W34234  15.706  23.595   4.030
65830W        W34235  17.964  38.856   0.409
65831W        W34236  37.848  36.549  14.053
65832W        W34237  21.221  15.736   0.734
65833W        W34238   9.112  18.841  11.088
65834W        W34239  12.961   3.280   3.701
65835W        W34240  29.418  27.085   3.857
65836W        W34241  24.456  36.408  13.500
65837W        W34242  21.111  37.468   5.120
65838W        W34243  34.509  25.221   0.963
65839W        W34244  12.713  28.517   0.413
65840W        W34245  18.662  29.600  10.812
65841W        W34246  12.607   6.240   0.272
65842W        W34247  19.186  22.199  13.434
65843W        W34248  22.085   0.248   3.261
65844W        W34249  25.193   0.630   0.275
65845W        W34250  11.878   6.898  11.512
65846W        W34251  41.317  28.664  12.986
65847W        W34252  14.785   3.398  14.713
65848W        W34253  18.439   9.270   2.202
65849W        W34254   8.594  38.944  11.564
65850W        W34255  10.251  14.095   1.656
65851W        W34256  14.480  39.069  14.739
65852W        W34257  19.432  38.502  14.241
65853W        W34258  44.738  42.962   4.292
65854W        W34259  37.040  20.117   4.643
65855W        W34260  31.092   2.286   3.621
65856W        W34261  17.627  26.082  11.424
65857W        W34262  16.627  27.261   0.202
65858W        W34263  12.353  44.355  12.471
65859W        W34264  24.860  42.391   4.477
65860W        W34265  29.014  37.885   3.206
65861W        W34266  27.428  13.356   1.711
65862W        W34267   1.480   1.924   2.757
65863W        W34268   7.782  28.285   0.700
65864W        W34269  39.472  17.027  12.124
65865W        W34270   5.346  25.167  13.886
65866W        W34271  29.983  32.188  12.372
65867W        W34272  30.254  25.155   3.548
65868W        W34273  40.093   8.035   3.435
65869W        W34274  38.504  11.675   3.750
65870W        W34275  38.359  32.365   0.491
65871W        W34276   6.734  36.961  11.563
65872W        W34277  13.537  17.245   3.772
65873W        W34278  13.779  35.459   3.621
65874W        W34279   1.379  24.632   4.765
65875W        W34280  40.082  20.101  13.489
65876W        W34281   6.501  34.525  13.555
65877W        W34282  39.407  21.092  12.040
65878W        W34283   7.129  30.061   1.479
65879W        W34284  19.690   3.860  14.223
65880W        W34285  10.702   7.162   1.124
65881W        W34286  14.563  44.787  12.007
65882W        W34287  15.117  42.398   0.860
65883W        W34288  29.054  16.229   0.747
65884W        W34289   3.376  29.447   0.198
65885W        W34290  34.373   6.704   2.185
65886W        W34291   9.106  17.972   4.980
65887W        W34292   6.279  28.883  14.094
65888W        W34293  11.143  16.516   1.859
65889W        W34294  33.597  15.925   4.630
65890W        W34295   1.970   3.380  14.646
65891W        W34296  37.965  39.444   3.783
65892W        W34297  20.251   7.149   0.811
65893W        W34298  25.217  10.984   2.304
65894W        W34299  23.101  26.382   3.469
65895W        W34300  13.268  32.334   5.025
65896W        W34301   7.142  21.662   4.223
65897W        W34302   0.498   5.141   0.231
65898W        W34303  20.543  33.541  12.350
65899W        W34304  29.509  35.366  13.144
65900W        W34305  36.245  19.313  10.394
65901W        W34306   4.385   5.871   3.573
65902W        W34307  38.496  36.526  10.608
65903W        W34308  33.179  29.116   3.192
65904W        W34309  27.467  11.652   3.767
65905W        W34310  10.561  14.108  12.678
65906W        W34311  15.014  32.897  14.015
65907W        W34312  25.615   7.789  12.082
65908W        W34313  11.363  21.227  14.092
65909W        W34314  26.138  10.697   1.163
65910W        W34315  43.474  21.304   1.230
65911W        W34316  34.580  10.692   3.358
65912W        W34317   6.411   4.487  10.376
65913W        W34318  16.432   7.916   0.510
65914W        W34319  36.163   1.991  11.634
65915W        W34320  27.610  13.662   3.681
65916W        W34321  33.930  42.539  11.525
65917W        W34322  23.059  39.075  14.371
65918W        W34323   7.690  12.613  13.822
65919W        W34324  16.593   1.252   3.690
65920W        W34325   9.875  28.213  10.742
65921W        W34326  23.772  22.295  13.737
65922W        W34327   5.266  18.006  14.765
65923W        W34328   7.215  38.409   1.187
65924W        W34329   2.243  41.298  11.450
65925W        W34330  28.175   4.905   0.334
65926W        W34331  20.053  44.995  12.470
65927W        W34332  21.128  31.857  14.921
65928W        W34333  36.177  17.265  12.013
65929W        W34334  20.207  21.695  13.940
65930W        W34335  35.044  19.286  14.460
65931W        W34336  32.092  22.484   3.800
65932W        W34337   4.437   6.206   4.025
65933W        W34338  39.888   2.892  14.485
65934W        W34339   8.711   2.509   1.208
65935W        W34340  39.648  42.964  12.463
65936W        W34341  44.520  16.533  11.202
65937W        W34342  37.968   8.140   0.712
65938W        W34343  38.794  12.807  12.836
65939W        W34344  30.619  17.757  14.979
65940W        W34345  24.156  36.046  11.679
65941W        W34346  15.283  18.637   2.221
65942W        W34347  13.302  30.474   5.294
65943W        W34348  42.799  41.782   0.444
65944W        W34349  19.779  17.666  11.529
65945W        W34350  18.592   4.320   1.786
65946W        W34351   6.435  44.849   1.886
65947W        W34352  17.295  31.399   2.349
65948W        W34353  18.207  14.421   4.286
65949W        W34354   1.721  39.063   3.375
65950W        W34355  26.375  23.607  11.076
65951W        W34356   7.245  36.084   4.564
65952W        W34357  41.467   5.211  14.973
65953W        W34358  35.892   2.302   3.474
65954W        W34359  21.696  35.780   0.833
65955W        W34360  44.812  37.390   1.218
65956W        W34361  30.600  30.424  12.176
65957W        W34362  21.100   1.496   3.277
65958W        W34363  41.638  36.485   3.281
65959W        W34364  42.310   5.251  13.578
65960W        W34365  31.019  10.708   3.915
65961W        W34366  32.669   1.336  14.949
65962W        W34367  23.800  26.669   4.621
65963W        W34368  28.485   2.333   4.419
65964W        W34369  33.196  31.121  12.984
65965W        W34370   5.523  11.096   1.782
65966W        W34371  41.242  15.639   4.622
65967W        W34372  20.804  30.970  11.433
65968W        W34373  42.891  38.077   0.263
65969W        W34374  22.097   5.075   3.600
65970W        W34375   0.013  33.884   1.636
65971W        W34376  32.895  14.521   4.108
65972W        W34377   5.818  13.499  12.364
65973W        W34378  30.165  12.703   2.868
65974W        W34379   7.749  20.527   0.078
65975W        W34380  11.867  35.146   1.866
65976W        W34381  40.572  18.062  12.948
65977W        W34382  27.006  34.041  10.594
65978W        W34383  23.240  17.285   0.944
65979W        W34384  14.394  22.243  11.174
65980W        W34385  17.692  33.235  13.047
65981W        W34386  25.699   9.356   1.268
65982W        W34387  10.210   6.265   3.109
65983W        W34388   2.149  10.721  13.612
65984W        W34389  19.649  23.128  13.053
65985W        W34390  30.132  35.325  13.980
65986W        W34391  41.717  13.879   0.022
65987W        W34392  19.260  25.087  13.374
65988W        W34393   0.488  26.520  12.510
65989W        W34394  14.799  37.957   3.557
65990W        W34395  43.732  18.652   4.137
65991W        W34396  14.206  22.384   5.061
65992W        W34397   2.700  17.728   4.683
65993W        W34398  37.049  36.909  13.108
65994W        W34399  39.783  38.717   2.707
65995W        W34400   1.335  25.505   3.078
65996W        W34401  37.278   9.893  13.599
65997W        W34402  30.644  43.920   2.682
65998W        W34403   5.763  36.470  14.273
65999W        W34404  22.490   3.133   4.111
66000W        W34405  30.450  33.416   3.905
66001W        W34406  19.334  17.885   3.631
66002W        W34407  31.189  11.264   4.711
66003W        W34408  36.500  24.445  10.718
66004W        W34409  38.383  26.036  12.455
66005W        W34410  17.649   0.756  14.119
66006W        W34411  40.955   3.078  14.074
66007W        W34412  31.988  39.532   0.383
66008W        W34413   0.508   1.020   3.082
66009W        W34414  32.387  27.752  13.367
66010W        W34415  41.059  12.883  12.422
66011W        W34416   9.677  36.950   4.325
66012W        W34417   1.426  18.122  12.989
66013W        W34418  31.855  31.175  12.376
66014W        W34419  14.296  37.873  14.380
66015W        W34420  17.043   2.265   1.488
66016W        W34421   0.522  24.251   1.420
66017W        W34422   9.332  21.407   3.860
66018W        W34423  13.665  25.762  11.104
66019W        W34424  37.037   5.850   2.832
66020W        W34425  15.188  32.591   0.792
66021W        W34426   3.393   0.236  11.635
66022W        W34427  14.575  42.255   0.825
66023W        W34428  16.835  42.030  12.829
66024W        W34429  24.593  21.234  10.947
66025W        W34430   3.881   5.219   4.596
66026W        W34431  28.548  11.705  14.592
66027W        W34432  10.624   0.008   2.227
66028W        W34433   0.538  17.694   2.679
66029W        W34434  38.921  18.072  11.713
66030W        W34435  40.533  35.505   0.026
66031W        W34436  10.923  37.725  13.569
66032W        W34437   5.692  44.791  12.507
66033W        W34438  26.483  42.319   4.718
66034W        W34439  26.503  12.356  14.845
66035W        W34440   6.428  21.575   1.494
66036W        W34441  36.052  41.015   2.386
66037W        W34442  28.659  40.612  14.509
66038W        W34443  27.948   9.852   0.327
66039W        W34444  13.583  38.271   2.368
66040W        W34445   8.408  20.175   4.193
66041W        W34446  33.925  16.302   0.433
66042W        W34447   3.588  32.029  12.349
66043W        W34448  27.258  11.196  13.399
66044W        W34449   2.432  19.084   2.924
66045W        W34450   8.240  40.439  14.360
66046W        W34451  40.589   0.549   2.106
66047W        W34452  13.787   9.589  13.918
66048W        W34453  13.589  26.480   1.785
66049W        W34454  34.354  23.524  12.386
66050W        W34455  41.463  10.410   4.169
66051W        W34456  23.267   6.803  13.338
66052W        W34457  35.065  29.083   3.218
66053W        W34458  36.943  15.737   3.344
66054W        W34459  11.710  41.053   4.791
66055W        W34460   1.821  30.919   2.100
66056W        W34461   0.603  36.526   4.135
66057W        W34462  33.008  17.301  14.318
66058W        W34463   5.835  35.007  14.132
66059W        W34464  24.672  26.306   4.054
66060W        W34465  21.282  16.163  14.782
66061W        W34466  22.250  12.839  14.808
66062W        W34467   8.303   8.019  14.443
66063W        W34468  34.219   2.198  13.798
66064W        W34469  12.186   9.431   4.172
66065W        W34470  23.105  28.416   3.656
66066W        W34471   8.849  39.978   1.487
66067W        W34472  22.138  23.737  10.997
66068W        W34473  43.990  24.074   3.729
66069W        W34474  40.289   5.485   2.618
66070W        W34475  32.113  42.008   4.126
66071W        W34476  17.066  27.088  13.065
66072W        W34477  34.420  44.783   4.685
66073W        W34478  31.904   1.879   1.822
66074W        W34479  11.471   6.992  11.188
66075W        W34480  14.501   9.257  10.943
66076W        W34481  14.320  33.419  12.095
66077W        W34482   0.245  42.882   4.059
66078W        W34483  10.252  25.061  13.575
66079W        W34484  36.375   9.133  11.236
66080W        W34485  44.288  39.744   2.685
66081W        W34486  34.046  18.086   1.228
66082W        W34487   2.174  11.327   4.678
66083W        W34488  24.572  15.392  10.707
66084W        W34489  28.018   3.189  12.577
66085W        W34490  12.654   5.208  11.526
66086W        W34491   7.775   5.932   3.770
66087W        W34492  27.619  38.127  11.944
66088W        W34493   2.889  11.254   4.204
66089W        W34494  35.955  34.202   3.549
66090W        W34495  16.273   0.298  12.365
66091W        W34496  36.996  21.275  13.023
66092W        W34497  33.361  34.860  13.610
66093W        W34498  28.015   2.288  10.756
66094W        W34499   6.895  28.117  13.761
66095W        W34500  43.072   9.886  14.590
66096W        W34501  19.303  27.592  12.576
66097W        W34502   0.371  19.721  12.053
66098W        W34503  15.247  22.235  12.682
66099W        W34504  23.044  31.980   2.796
66100W        W34505  41.080  14.590   0.391
66101W        W34506  30.747   4.899   1.809
66102W        W34507  10.139  39.488   1.171
66103W        W34508  44.471   3.346  14.471
66104W        W34509  25.841  32.667  12.036
66105W        W34510  18.264  16.980  13.214
66106W        W34511  16.644  32.168  13.156
66107W        W34512  20.831  18.848  11.919
66108W        W34513  12.495   1.962  13.946
66109W        W34514   6.943  18.785  11.477
66110W        W34515  35.088  22.659   3.105
66111W        W34516   0.397  22.740   2.912
66112W        W34517   6.641  22.171  13.825
66113W        W34518  23.941  17.013   4.574
66114W        W34519  13.277  17.863  11.670
66115W        W34520  38.415  21.073   1.729
66116W        W34521   7.317   2.681   4.318
66117W        W34522  38.569  30.136  10.977
66118W        W34523  21.839  36.369   2.603
66119W        W34524  27.545  39.115   3.396
66120W        W34525  19.638  38.917  14.038
66121W        W34526   0.256  39.463   0.814
66122W        W34527  16.940  43.334  11.108
66123W        W34528  36.085  16.237  14.052
66124W        W34529  21.366   1.828   1.441
66125W        W34530  29.130   4.795  10.416
66126W        W34531   8.384  33.392  11.667
66127W        W34532  11.254  28.058   3.837
66128W        W34533   4.377  23.329  10.626
66129W        W34534  16.627  28.610   4.657
66130W        W34535  14.883   3.422  11.038
66131W        W34536  23.754  31.587  11.164
66132W        W34537  16.263   8.693  14.522
66133W        W34538  36.305  35.875   1.790
66134W        W34539  32.754   8.354  14.377
66135W        W34540  28.672  39.365  10.761
66136W        W34541   2.196  26.400  10.003
66137W        W34542  12.642  29.573   2.585
66138W        W34543  37.023  44.457   0.316
66139W        W34544  17.676  20.461   4.545
66140W        W34545  32.662  11.634  14.386
66141W        W34546  16.577   3.635  13.588
66142W        W34547  42.740  44.744  13.112
66143W        W34548  20.013  10.801   2.672
66144W        W34549  41.290  19.194   1.403
66145W        W34550  36.393  25.168   4.909
66146W        W34551  19.727  24.027   2.132
66147W        W34552   6.920  32.244   2.746
66148W        W34553  38.330  42.419  10.636
66149W        W34554  32.539  39.999  13.772
66150W        W34555  40.024  14.032  14.778
66151W        W34556   3.365  44.170  13.606
66152W        W34557  38.621   2.190   0.770
66153W        W34558  19.614  33.791  11.311
66154W        W34559  42.310  39.056  14.922
66155W        W34560  13.689  37.599  13.332
66156W        W34561  35.080  19.604   3.892
66157W        W34562  38.255   3.363  14.079
66158W        W34563  11.393  26.210  12.981
66159W        W34564  43.437  30.528  14.565
66160W        W34565   8.886  42.466  12.406
66161W        W34566  32.087  41.483  13.095
66162W        W34567  31.579  16.292   4.780
66163W        W34568  41.096  18.849  12.966
66164W        W34569   7.686  21.030  10.470
66165W        W34570  36.661  32.935  14.648
66166W        W34571   4.857  41.546  11.114
66167W        W34572  29.612  25.038  13.808
66168W        W34573   7.096   3.254  11.493
66169W        W34574  43.061   3.056  12.352
66170W        W34575   0.384   5.239  11.108
66171W        W34576   0.379   7.732  13.452
66172W        W34577  25.544  23.163  12.911
66173W        W34578   3.031  19.449   4.166
66174W        W34579  30.327   9.256   3.654
66175W        W34580  15.985  44.296  12.064
66176W        W34581  38.918  16.772  14.491
66177W        W34582  43.258  41.184  14.790
66178W        W34583  32.362  24.090   5.097
66179W        W34584  36.536  28.512  12.445
66180W        W34585  16.284  21.235  13.834
66181W        W34586  18.730  24.521  14.816
66182W        W34587   7.840  26.425  14.551
66183W        W34588  18.804  24.215  13.090
66184W        W34589  30.888  19.163  11.765
66185W        W34590  25.944  38.317  11.969
66186W        W34591  44.900   6.209  12.838
66187W        W34592  31.454  40.130   1.023
66188W        W34593  43.986  15.250  12.672
66189W        W34594  39.013   5.897   4.801
66190W        W34595  36.789  13.606   4.613
66191W        W34596  39.455  18.979  11.071
66192W        W34597  44.696  40.223  12.515
66193W        W34598  24.471   7.118   3.846
66194W        W34599  38.774  20.901   1.383
66195W        W34600  28.167  24.201   0.468
66196W        W34601  19.585  32.541  12.894
66197W        W34602  21.823  20.825   1.698
66198W        W34603   0.380  28.656  11.205
66199W        W34604   3.358  18.190   3.617
66200W        W34605  33.636  20.215   1.922
66201W        W34606  42.683   5.965  13.152
66202W        W34607  36.660  30.524  14.013
66203W        W34608  38.966  18.702  14.904
66204W        W34609  30.383   7.288   4.008
66205W        W34610  41.312   9.045   0.617
66206W        W34611  21.820  17.690  13.128
66207W        W34612  32.841  38.151  12.386
66208W        W34613  36.373   2.045   1.337
66209W        W34614   7.369  19.070  14.401
66210W        W34615  19.979  30.019   0.380
66211W        W34616  24.027   7.653  10.747
66212W        W34617   3.785  16.547  14.562
66213W        W34618  26.573  13.772  14.738
66214W        W34619  14.274  22.559   2.251
66215W        W34620  17.110  27.546   0.185
66216W        W34621  34.052  23.182  12.145
66217W        W34622  21.707   3.004   3.202
66218W        W34623  39.774  31.904   2.892
66219W        W34624  29.984  22.641   4.636
66220W        W34625  36.700  28.596   1.293
66221W        W34626  32.822  14.968   2.639
66222W        W34627  17.614  24.726   0.474
66223W        W34628  23.135   3.683  11.837
66224W        W34629  32.675  15.544  14.306
66225W        W34630   6.039  28.033  10.697
66226W        W34631  13.598  10.003   4.840
66227W        W34632  38.919  27.061   0.898
66228W        W34633  12.897   5.882   3.271
66229W        W34634   3.036   8.383  10.702
66230W        W34635  26.105  34.543  14.385
66231W        W34636  28.990  41.752   3.373
66232W        W34637  27.219  40.282   4.187
66233W        W34638  18.992  25.717   3.736
66234W        W34639  38.956  32.383  12.559
66235W        W34640   4.290  19.072   0.840
66236W        W34641  24.748   4.675  13.490
66237W        W34642  21.010  43.356   1.872
66238W        W34643  15.867  35.890  14.928
66239W        W34644  14.446   2.816  10.687
66240W        W34645  33.618   2.679   0.275
66241W        W34646   4.220   9.741   0.763
66242W        W34647  22.558  43.998   2.758
66243W        W34648  17.815  12.770  10.624
66244W        W34649  12.382  24.527   0.534
66245W        W34650  23.039  25.726   1.209
66246W        W34651  18.436  37.701  11.144
66247W        W34652  40.404  16.078   1.308
66248W        W34653  15.593   9.012   5.261
66249W        W34654  11.391  36.362   2.662
66250W        W34655  43.464  44.277  14.966
66251W        W34656  12.104  31.146   2.391
66252W        W34657  38.803  25.645   0.821
66253W        W34658  37.456  41.749  12.001
66254W        W34659  37.390  42.306  10.213
66255W        W34660  38.745   9.779   0.025
66256W        W34661  20.802  18.624  11.448
66257W        W34662  10.837   2.982  14.732
66258W        W34663  31.163   1.793  11.847
66259W        W34664   9.302  23.588   2.899
66260W        W34665  36.337  20.369  11.747
66261W        W34666  23.891   8.365   0.223
66262W        W34667  30.203  41.942   0.397
66263W        W34668  38.997   7.652  11.316
66264W        W34669  14.055  39.932   0.007
66265W        W34670   8.103  37.145  11.083
66266W        W34671  37.145  24.164   2.449
66267W        W34672  18.363  35.488   0.438
66268W        W34673  42.835  28.403  11.125
66269W        W34674  40.776  34.701   1.763
66270W        W34675  22.607   1.465  11.544
66271W        W34676  26.487  14.243  14.517
66272W        W34677  12.209  36.794  11.023
66273W        W34678  32.388  26.659  13.745
66274W        W34679  12.565  26.811  12.382
66275W        W34680  10.692  14.211   4.677
66276W        W34681  34.096  17.293  11.291
66277W        W34682   9.385  40.326  11.400
66278W        W34683   7.722  10.086  11.933
66279W        W34684  34.785   8.042  11.592
66280W        W34685  17.341   5.268   0.926
66281W        W34686  36.261   1.536  14.818
66282W        W34687   0.704  13.989   2.242
66283W        W34688  39.500  16.239  12.483
66284W        W34689  18.775   8.127  14.296
66285W        W34690  25.910   1.312  12.866
66286W        W34691   6.210  10.697  13.051
66287W        W34692   7.616  26.525   3.705
66288W        W34693   9.416  20.776   0.373
66289W        W34694  43.444   3.158   2.491
66290W        W34695  44.433  38.591  13.946
66291W        W34696  37.420  31.618  12.129
66292W        W34697   7.057  30.059  12.937
66293W        W34698  40.284  25.583  10.918
66294W        W34699  11.214   2.204   3.813
66295W        W34700  22.341   1.900  13.325
66296W        W34701  25.141  22.173  13.788
66297W        W34702  29.178  33.425  13.496
66298W        W34703  39.807   4.278   3.658
66299W        W34704  19.548  37.081   4.329
66300W        W34705  25.261  20.274   4.822
66301W        W34706   5.565  22.110  14.914
66302W        W34707   3.194  15.832   3.423
66303W        W34708  38.358  41.881   0.292
66304W        W34709  12.645  25.118  13.832
66305W        W34710  11.422  25.949  14.879
66306W        W34711  23.134  31.002  14.361
66307W        W34712  30.578   7.310   3.033
66308W        W34713   3.271  20.542   3.329
66309W        W34714  32.106   5.293  14.361
66310W        W34715  40.568   8.540   1.714
66311W        W34716  22.492   4.280  13.419
66312W        W34717  19.944  35.454  13.774
66313W        W34718  35.077  31.090   4.565
66314W        W34719  36.675  37.998   2.225
66315W        W34720   9.949   1.514  13.872
66316W        W34721   1.263  31.605   3.129
66317W        W34722   5.233  40.630  13.139
66318W        W34723   3.483  33.629  11.323
66319W        W34724  20.483  26.514  10.208
66320W        W34725   8.875   7.906   3.224
66321W        W34726  18.749  17.172  10.271
66322W        W34727  17.758  26.642  12.548
66323W        W34728  14.755  18.166   2.936
66324W        W34729   5.425   4.319   2.146
66325W        W34730  29.874  18.334   1.911
66326W        W34731   0.954  25.954  11.612
66327W        W34732  39.573  14.612  13.489
66328W        W34733  43.992   5.445   4.766
66329W        W34734  15.239  40.774   1.503
66330W        W34735   7.826  23.390  12.487
66331W        W34736  25.716  33.318   1.938
66332W        W34737  15.500  23.192  14.301
66333W        W34738  44.813  34.273  12.668
66334W        W34739   9.228  12.727   3.633
66335W        W34740  43.646  44.840  12.133
66336W        W34741  18.817  44.215   4.102
66337W        W34742   7.082  36.621  14.277
66338W        W34743   2.923   8.000   4.986
66339W        W34744  36.876  29.324  14.890
66340W        W34745  22.368   1.719  10.721
66341W        W34746  25.406  35.600  14.957
66342W        W34747  17.955  26.159  12.524
66343W        W34748  36.547  44.434  11.393
66344W        W34749  25.883  22.160   2.975
66345W        W34750  23.156  38.396   4.635
66346W        W34751  42.947  36.167   4.429
66347W        W34752   6.467   5.788  12.153
66348W        W34753   4.800  27.655   2.727
66349W        W34754  12.999  12.629   4.032
66350W        W34755   9.978  26.262   0.753
66351W        W34756  38.814  17.181   0.765
66352W        W34757  14.442  43.441   1.109
66353W        W34758  22.816  42.328  11.198
66354W        W34759  34.891   2.212  14.948
66355W        W34760   2.380  14.563   2.248
66356W        W34761  35.836  21.193   4.022
66357W        W34762  40.380   5.003   3.626
66358W        W34763   6.196  31.598  11.338
66359W        W34764   4.645  38.045   4.313
66360W        W34765  26.103  19.465  10.624
66361W        W34766  12.064  38.435  12.913
66362W        W34767  24.619  34.596   4.665
66363W        W34768  20.765  33.539  13.323
66364W        W34769   1.903  19.058   4.646
66365W        W34770  24.570  40.014   3.897
66366W        W34771   7.888   7.336   1.481
66367W        W34772  15.854  10.406   0.065
66368W        W34773   0.553  13.305  12.211
66369W        W34774  34.706  13.291   3.664
66370W        W34775  39.613  40.777  11.676
66371W        W34776  43.000  10.799   2.612
66372W        W34777  41.839  25.223  11.278
66373W        W34778  20.505  21.636  12.259
66374W        W34779  21.436  20.152  14.836
66375W        W34780   2.975   6.337   3.632
66376W        W34781  34.617  30.089   2.370
66377W        W34782  12.966  37.131  13.346
66378W        W34783  23.945  27.105   1.383
66379W        W34784  13.880  16.063   2.811
66380W        W34785  18.244  16.100   3.731
66381W        W34786   3.295  41.614   3.229
66382W        W34787  33.394  19.743  12.889
66383W        W34788  43.259  17.153  14.364
66384W        W34789  17.086   9.237   2.206
66385W        W34790   2.259  24.183  14.878
66386W        W34791  20.058  27.936   0.289
66387W        W34792   2.493  11.260   2.127
66388W        W34793  17.601  22.324   0.754
66389W        W34794   7.920  34.132   0.286
66390W        W34795  30.129  11.645   4.166
66391W        W34796  27.815  37.012   2.737
66392W        W34797  11.671  40.203   1.852
66393W        W34798  32.575  41.424   0.749
66394W        W34799   0.190  32.062  13.113
66395W        W34800   0.749   3.136  11.286
66396W        W34801  10.627  12.584  12.162
66397W        W34802  31.841  26.951   1.875
66398W        W34803  26.923   5.794  10.710
66399W        W34804  12.841   6.700  10.787
66400W        W34805  32.458  11.327   0.329
66401W        W34806   1.029   6.162   3.305
66402W        W34807  32.433  18.341  12.631
66403W        W34808  13.204  11.633  14.006
66404W        W34809  40.317  34.406   1.813
66405W        W34810  12.865  16.784   0.060
66406W        W34811   1.557  36.139   2.229
66407W        W34812  12.254  32.678  13.762
66408W        W34813   5.820  17.203   1.627
66409W        W34814  22.563  18.713   3.196
66410W        W34815  18.581   5.947  11.518
66411W        W34816  31.109  42.291   2.639
66412W        W34817  15.624  22.021   0.276
66413W        W34818  40.871  34.033   3.779
66414W        W34819  20.529  38.370  14.884
66415W        W34820  16.963  20.161  13.817
66416W        W34821  14.600  35.577   0.375
66417W        W34822  37.564  26.001  12.124
66418W        W34823  42.167  10.607   3.709
66419W        W34824  33.638  21.688   0.332
66420W        W34825  35.318   8.469   0.052
66421W        W34826   5.725   2.010  11.393
66422W        W34827  40.331  40.887   2.527
66423W        W34828   2.011  36.924  13.029
66424W        W34829  18.570  43.153  12.475
66425W        W34830  34.984   4.095  14.440
66426W        W34831  36.015  17.161  10.689
66427W        W34832  44.291  39.836   2.177
66428W        W34833  24.514  40.481   0.046
66429W        W34834  40.916  23.437   1.076
66430W        W34835  15.320   2.317  12.142
66431W        W34836  25.486  43.302   3.763
66432W        W34837  29.871  31.689  12.543
66433W        W34838  25.459  23.177   2.835
66434W        W34839  27.428   9.202  12.927
66435W        W34840   5.727  13.013  12.265
66436W        W34841  15.053  37.842   5.035
66437W        W34842  37.090  33.519   3.655
66438W        W34843  11.447  24.985   3.358
66439W        W34844  38.876  29.927   0.673
66440W        W34845  36.055  15.114  10.657
66441W        W34846  20.488   8.039  13.562
66442W        W34847  12.842  36.420   1.351
66443W        W34848  18.496  17.121  14.284
66444W        W34849  16.494  41.567  12.874
66445W        W34850  14.144  12.216   0.433
66446W        W34851  32.947  21.738   4.870
66447W        W34852  19.048   7.305   0.668
66448W        W34853  11.102  32.881   4.422
66449W        W34854  20.429  41.568   4.119
66450W        W34855  20.526   0.838   2.646
66451W        W34856  29.635  38.877   0.333
66452W        W34857   3.375  11.233  10.872
66453W        W34858  19.849   6.801  11.934
66454W        W34859  27.652  35.005  14.470
66455W        W34860  21.573   9.110  12.397
66456W        W34861   8.804  16.964   3.559
66457W        W34862   1.993  25.556   0.341
66458W        W34863  34.597  31.075   3.190
66459W        W34864   3.927  19.667  12.643
66460W        W34865  10.146  34.597  11.413
66461W        W34866  33.938   7.685  13.421
66462W        W34867  42.571  12.775   4.969
66463W        W34868  19.628  36.303   2.197
66464W        W34869  28.080  33.876  14.260
66465W        W34870  39.816  27.078  13.893
66466W        W34871   3.283  36.274  11.071
66467W        W34872  16.936  11.841  13.431
66468W        W34873   6.321  43.926  14.911
66469W        W34874  34.575  30.110  14.751
66470W        W34875   9.029  43.006   4.502
66471W        W34876  11.305  21.330   1.644
66472W        W34877  41.683  34.010  13.005
66473W        W34878  44.340  13.959   4.991
66474W        W34879  21.751  38.652   4.099
66475W        W34880  12.812   4.194   0.259
66476W        W34881  18.712  17.031  13.506
66477W        W34882   4.962   2.359  13.593
66478W        W34883   5.653  11.137  12.382
66479W        W34884   2.921  28.883  10.720
66480W        W34885   6.164   6.195   3.611
66481W        W34886  26.696   3.002   3.329
66482W        W34887   5.141  37.455   0.199
66483W        W34888  10.163   3.325   4.186
66484W        W34889  27.641  30.508   1.345
66485W        W34890  22.436  21.887   0.077
66486W        W34891  21.924  12.195   1.846
66487W        W34892  37.087   5.304  11.133
66488W        W34893  43.730  17.719  11.787
66489W        W34894  38.545  44.912  12.057
66490W        W34895  25.718  14.666   0.851
66491W        W34896  16.796  19.778  10.840
66492W        W34897  11.745  19.238  13.417
66493W        W34898   6.271  19.231  13.414
66494W        W34899  38.040  44.742  14.515
66495W        W34900  15.946   3.005   9.731
66496W        W34901  44.213  43.329  12.414
66497W        W34902   3.690  12.263  11.619
66498W        W34903  26.736  15.410   0.805
66499W        W34904   7.327  28.177  14.069
66500W        W34905   0.001  18.694   4.669
66501W        W34906  40.586  32.086  13.580
66502W        W34907  29.725  24.581  14.315
66503W        W34908  38.329   7.627   1.717
66504W        W34909  37.938   2.802  11.950
66505W        W34910  13.179  41.971   3.333
66506W        W34911   1.473  18.644   2.422
66507W        W34912  27.772  26.954   0.722
66508W        W34913  13.602  39.080  13.432
66509W        W34914  13.757  16.167   0.924
66510W        W34915  37.426  42.046   1.915
66511W        W34916  44.912  27.818   0.293
66512W        W34917   7.255  17.096   1.255
66513W        W34918  17.799  24.540  11.182
66514W        W34919   5.217  34.797  10.629
66515W        W34920  20.050  39.526  12.959
66516W        W34921  32.710  25.989   1.872
66517W        W34922  21.001   9.250   3.185
66518W        W34923  12.533  28.751  11.204
66519W        W34924  41.490   0.373   4.839
66520W        W34925  26.984  31.924   1.436
66521W        W34926  43.218  40.750  14.524
66522W        W34927  18.209  14.916   1.843
66523W        W34928  12.315   1.404  11.890
66524W        W34929  19.374  38.904  14.886
66525W        W34930  44.467   8.328  10.974
66526W        W34931  40.099  29.669  10.769
66527W        W34932  34.099   7.493  13.894
66528W        W34933  35.508  41.427   2.253
66529W        W34934   1.306   4.407  10.897
66530W        W34935   5.623  41.548   2.627
66531W        W34936   6.315  25.716  11.153
66532W        W34937  28.891   0.245  11.017
66533W        W34938   7.288  38.568   4.090
66534W        W34939   2.926  35.047  10.707
66535W        W34940  44.316  17.933   2.226
66536W        W34941  35.071  40.166  11.116
66537W        W34942  22.505  11.080  13.968
66538W        W34943   8.717  11.862   3.934
66539W        W34944   2.963  12.303   1.660
66540W        W34945  17.624  38.754   2.803
66541W        W34946  35.461  33.952  11.234
66542W        W34947  28.588  33.508  10.498
66543W        W34948  43.831  10.276   0.220
66544W        W34949  17.547  19.121   2.353
66545W        W34950  35.307  15.474  13.978
66546W        W34951  19.028   7.918   3.275
66547W        W34952  33.037   5.274  11.542
66548W        W34953   4.161  10.649   0.621
66549W        W34954  19.885  20.756   0.947
66550W        W34955  10.285  16.238   0.490
66551W        W34956  29.513   0.577   0.405
66552W        W34957  43.276  26.159  14.417
66553W        W34958  34.894  11.245  13.251
66554W        W34959  33.572  23.679  14.515
66555W        W34960  31.606  12.081  11.984
66556W        W34961   0.326  15.389   0.316
66557W        W34962  11.736  26.181   4.060
66558W        W34963  23.283  11.096  14.528
66559W        W34964   0.990  11.791  11.010
66560W        W34965  21.439  25.428  10.593
66561W        W34966  15.252  16.017   2.377
66562W        W34967  42.435  12.223   0.830
66563W        W34968  14.959  34.587  14.427
66564W        W34969  40.500   2.837  13.810
66565W        W34970   4.216  43.806  12.611
66566W        W34971   5.663   6.963   1.261
66567W        W34972  33.034   3.046  14.077
66568W        W34973  25.578  18.611   5.025
66569W        W34974  11.161  30.748  13.417
66570W        W34975  35.473  37.843  11.026
66571W        W34976  15.548  17.198  11.791
66572W        W34977   7.804  31.949   0.419
66573W        W34978  30.107  33.663  12.430
66574W        W34979  37.887  22.446  12.522
66575W        W34980  39.206  31.550  14.247
66576W        W34981  29.647  13.344  11.986
66577W        W34982  35.239  35.082  12.382
66578W        W34983  25.947   4.777   4.236
66579W        W34984  12.444  30.592   1.053
66580W        W34985  42.017  20.604   3.679
66581W        W34986   0.392  32.939   3.650
66582W        W34987  16.899  33.081   3.678
66583W        W34988   3.754  15.985  11.391
66584W        W34989  25.166  38.364  10.718
66585W        W34990  39.064  42.388  12.130
66586W        W34991   3.658  33.374   3.602
66587W        W34992  18.371  24.004  12.938
66588W        W34993  16.609  15.067  13.849
66589W        W34994  21.968  37.523   2.573
66590W        W34995  32.458  40.813   0.390
66591W        W34996  21.523  40.798   2.617
66592W        W34997  16.827  44.393  14.516
66593W        W34998   5.519  10.691   3.545
66594W        W34999  12.733  37.945   1.789
66595W        W35000  14.032   4.065   1.718
66596W        W35001  16.650   4.242  11.933
66597W        W35002  26.343  39.354  14.921
66598W        W35003   2.263  36.245   0.716
66599W        W35004  22.682  27.147   3.698
66600W        W35005  29.480  44.105   2.412
66601W        W35006   1.871  20.272  11.542
66602W        W35007  16.027  37.986  12.841
66603W        W35008  42.354  18.506  12.401
66604W        W35009  16.062   2.148   1.185
66605W        W35010  29.097  14.606  11.444
66606W        W35011  42.375  24.530   2.674
66607W        W35012   1.249  40.537   3.752
66608W        W35013   6.063  35.087  12.482
66609W        W35014  39.215  10.179  12.000
66610W        W35015  10.074  10.266   3.223
66611W        W35016   6.221  13.779  12.555
66612W        W35017  28.171  27.250  13.047
66613W        W35018  42.746  16.677   3.764
66614W        W35019  43.547  28.445  11.482
66615W        W35020   3.546  29.241  11.266
66616W        W35021  36.150   6.694   4.111
66617W        W35022   6.461   2.775   5.182
66618W        W35023  35.881  28.950   4.557
66619W        W35024  44.238  23.611   4.633
66620W        W35025   7.972  12.876  14.171
66621W        W35026  17.776  23.562  12.789
66622W        W35027  21.106   4.317  14.846
66623W        W35028  38.388  33.865   3.129
66624W        W35029  24.308  16.792  11.109
66625W        W35030  38.169   7.379   4.788
66626W        W35031  19.301  21.190   2.805
66627W        W35032  32.077   4.671  10.700
66628W        W35033  27.247  23.667   2.474
66629W        W35034  35.385   6.107  13.910
66630W        W35035   4.728  19.308   0.746
66631W        W35036  31.094   4.352   1.877
66632W        W35037   6.919  18.067  10.284
66633W        W35038  11.283  37.073  13.505
66634W        W35039   8.852  27.612  14.962
66635W        W35040  10.881  22.560   0.918
66636W        W35041  32.965  22.692  14.378
66637W        W35042  37.312  40.548  11.171
66638W        W35043  43.742  40.160  12.478
66639W        W35044   9.750  27.235  12.460
66640W        W35045  10.443  35.931   4.129
66641W        W35046  36.311  26.966   2.669
66642W        W35047  11.682  34.809  13.425
66643W        W35048  32.978  24.014  12.123
66644W        W35049  15.522   3.784   1.876
66645W        W35050  10.886  31.119   1.972
66646W        W35051  40.554  36.561  10.812
66647W        W35052  38.036  39.424  13.458
66648W        W35053  20.830  15.582  11.030
66649W        W35054  41.777  34.327  13.818
66650W        W35055  31.525  23.062  11.935
66651W        W35056  16.287  15.620   3.149
66652W        W35057  29.557   1.698  14.677
66653W        W35058  13.736   5.403  14.788
66654W        W35059   8.288  15.563   0.048
66655W        W35060  21.296   9.387  13.624
66656W        W35061  16.641   2.912  11.841
66657W        W35062  34.274  23.415  11.606
66658W        W35063  28.337  34.088  14.936
66659W        W35064   3.896  27.926  12.429
66660W        W35065  28.883   8.965  13.930
66661W        W35066  10.075  40.403  10.649
66662W        W35067  26.199   5.434   4.195
66663W        W35068  11.819   5.129  12.410
66664W        W35069   8.308  25.163  14.715
66665W        W35070  20.306  10.313  11.041
66666W        W35071   6.352   1.785  13.990
66667W        W35072   0.482  39.410   2.406
66668W        W35073  40.069   2.913  11.305
66669W        W35074  12.755  25.125  10.724
66670W        W35075  32.668  29.407  12.895
66671W        W35076   8.750   2.951  14.959
66672W        W35077  26.992  16.127  14.290
66673W        W35078  42.965   4.600   3.285
66674W        W35079   1.939  21.061   2.106
66675W        W35080   2.771   4.999   2.294
66676W        W35081   1.765  27.444  13.796
66677W        W35082   7.929   0.515   1.370
66678W        W35083  12.460  10.115  12.225
66679W        W35084  21.749  36.153  14.827
66680W        W35085  19.037  41.022  10.760
66681W        W35086  21.552  39.786   1.775
66682W        W35087  22.181  31.593  13.337
66683W        W35088  33.103  16.744  12.608
66684W        W35089   1.058  22.972   3.960
66685W        W35090  41.088  16.381  13.913
66686W        W35091  13.835  13.820  14.857
66687W        W35092  33.477  34.987   0.970
66688W        W35093  19.559  29.190   3.820
66689W        W35094  10.376  42.052   2.125
66690W        W35095  30.975  18.652   3.325
66691W        W35096   4.498   1.958   0.950
66692W        W35097  14.540  33.270   0.298
66693W        W35098   9.249  44.491  11.578
66694W        W35099  41.858   3.753  14.558
66695W        W35100   1.894  37.437   1.869
66696W        W35101  33.425  33.983  13.325
66697W        W35102  37.587  29.124  11.119
66698W        W35103  38.445   8.628   1.863
66699W        W35104  21.178  21.109  13.772
66700W        W35105  10.933   1.857   4.084
66701W        W35106   8.805  31.362  12.972
66702W        W35107   5.420  31.693  12.925
66703W        W35108  16.115  35.418   1.682
66704W        W35109  14.810  25.027  14.644
66705W        W35110   5.947  14.291  14.865
66706W        W35111  12.125  10.087   1.152
66707W        W35112  28.448  27.957  14.891
66708W        W35113  10.228  42.542  14.529
66709W        W35114  10.852  44.405  11.989
66710W        W35115  12.691  36.857   0.518
66711W        W35116  43.002  10.026  11.910
66712W        W35117  12.693  24.990   2.865
66713W        W35118  16.797   2.985   4.198
66714W        W35119  17.261  23.801  11.057
66715W        W35120  15.602  19.284  10.552
66716W        W35121  40.066  32.049   3.876
66717W        W35122   4.734  30.050  12.011
66718W        W35123  16.447  40.960   0.932
66719W        W35124  22.697  21.578  13.577
66720W        W35125  28.024  21.149   1.370
66721W        W35126  33.315  31.611  12.471
66722W        W35127   1.237  38.130  13.124
66723W        W35128   7.604   7.906   0.886
66724W        W35129  44.988   7.579  12.462
66725W        W35130   3.869  22.011  10.682
66726W        W35131  22.093  10.082   3.848
66727W        W35132  29.179  43.787   4.637
66728W        W35133   3.804  23.963   2.344
66729W        W35134  40.569  34.993  14.915
66730W        W35135  21.513  23.692   5.571
66731W        W35136  12.657  26.744   3.276
66732W        W35137  41.887  14.276  14.070
66733W        W35138  42.778  27.589  12.552
66734W        W35139  44.956  40.617   4.629
66735W        W35140  39.349  10.620   4.677
66736W        W35141   2.231  34.560  12.157
66737W        W35142  18.819  18.841   1.747
66738W        W35143  21.499  35.398   0.050
66739W        W35144  17.257  20.678   1.743
66740W        W35145  43.316   1.348   1.991
66741W        W35146  41.866   4.965   4.735
66742W        W35147  35.724  12.951  12.897
66743W        W35148  38.463  30.435   3.266
66744W        W35149  20.346  32.877  11.380
66745W        W35150  42.260  13.209  14.882
66746W        W35151  17.518  35.520  14.161
66747W        W35152  17.624  12.597   2.837
66748W        W35153  24.108  37.636   0.535
66749W        W35154  29.665  42.265  12.374
66750W        W35155   3.391  35.895   1.647
66751W        W35156  16.689  30.280  13.062
66752W        W35157  39.058  14.623  13.452
66753W        W35158  13.904  23.470  13.776
66754W        W35159  26.377  33.117  13.460
66755W        W35160  38.831  33.789  13.959
66756W        W35161  26.076  13.848  14.980
66757W        W35162   0.395  22.192  14.019
66758W        W35163  35.532  39.783  13.199
66759W        W35164   4.982  24.035   3.634
66760W        W35165  13.645  11.757   0.970
66761W        W35166  32.376  40.491  12.209
66762W        W35167  25.556  14.403  14.377
66763W        W35168  11.652  14.791   1.141
66764W        W35169  13.516  44.410  14.941
66765W        W35170  43.936  27.515   1.812
66766W        W35171  25.487  10.365   1.456
66767W        W35172  42.867  20.796  10.745
66768W        W35173   2.976  11.828   0.328
66769W        W35174  36.977  16.792   1.296
66770W        W35175  11.789  40.907   1.408
66771W        W35176  14.178  11.722   5.273
66772W        W35177  37.062  24.200  14.328
66773W        W35178  18.623  37.108   0.842
66774W        W35179  14.749  17.214  13.070
66775W        W35180  29.061  25.478  14.974
66776W        W35181  13.980  34.163   0.278
66777W        W35182  30.609  33.993   1.241
66778W        W35183  40.295  10.198   0.671
66779W        W35184  20.490   6.704  11.052
66780W        W35185   6.539  28.155  10.625
66781W        W35186  30.251  34.605  11.542
66782W        W35187   2.910  25.507  14.906
66783W        W35188  37.352  13.182   4.574
66784W        W35189  37.117   6.828   0.259
66785W        W35190  31.902  35.388   0.506
66786W        W35191  23.845  38.406   0.072
66787W        W35192   3.367  28.480  14.038
66788W        W35193  39.624  30.564   4.654
66789W        W35194  11.231   7.679   4.157
66790W        W35195  15.684  26.715  11.124
66791W        W35196  27.486  19.289   2.328
66792W        W35197  16.225  15.808  12.580
66793W        W35198  23.454  36.225  12.655
66794W        W35199  11.154  22.208  12.028
66795W        W35200  35.516  41.267  11.350
66796W        W35201  30.946  13.564   2.620
66797W        W35202  43.691  44.385  10.144
66798W        W35203  22.787  12.629  12.478
66799W        W35204  30.165  31.724   3.630
66800W        W35205  35.708  29.132  11.551
66801W        W35206  34.505  22.248   1.015
66802W        W35207  15.430   3.873   9.831
66803W        W35208  41.489   4.631  10.120
66804W        W35209  12.852  21.006  13.444
66805W        W35210  17.778   8.216  10.633
66806W        W35211  39.510  36.071  12.513
66807W        W35212  27.152  20.143  11.391
66808W        W35213  38.782   5.291   2.195
66809W        W35214  31.680  44.598   1.223
66810W        W35215   0.778  11.920  13.304
66811W        W35216   9.792  28.661   3.362
66812W        W35217  18.242  31.415   3.330
66813W        W35218  21.021   6.945  12.976
66814W        W35219  42.224   1.613  11.005
66815W        W35220  38.354   2.264   2.991
66816W        W35221  31.205  37.849   2.722
66817W        W35222  24.036  22.673   0.202
66818W        W35223   4.462   9.220  12.553
66819W        W35224   9.785  31.632  11.476
66820W        W35225  26.704  27.602  13.554
66821W        W35226  10.798   1.512   3.241
66822W        W35227  39.443   9.139   1.919
66823W        W35228  42.862  20.824   3.211
66824W        W35229  11.336  26.616   0.563
66825W        W35230  11.234  29.580  14.966
66826W        W35231  42.447   6.065  11.480
66827W        W35232  44.218  39.865  14.144
66828W        W35233  19.801  17.157  11.205
66829W        W35234   1.950  14.854  12.698
66830W        W35235  13.930  42.838  13.633
66831W        W35236   6.465   9.222  10.552
66832W        W35237  39.273  14.730   3.845
66833W        W35238   6.475   8.769   1.729
66834W        W35239  31.981  42.633   2.393
66835W        W35240  19.219  42.877  13.811
66836W        W35241   0.323   4.286  14.925
66837W        W35242  22.668   5.535   9.897
66838W        W35243   6.466   5.850   3.829
66839W        W35244  38.969  23.038   3.193
66840W        W35245  38.631  14.352   2.337
66841W        W35246  14.200   4.513   4.633
66842W        W35247  44.739  42.054  14.344
66843W        W35248  36.921  22.979  13.406
66844W        W35249  31.164  17.202  13.907
66845W        W35250  27.194  44.046  14.829
66846W        W35251  14.705  13.395   0.831
66847W        W35252  30.596  30.880   2.702
66848W        W35253  22.798  24.127  13.050
66849W        W35254   2.439   6.417   0.950
66850W        W35255   2.861  35.632  11.803
66851W        W35256   8.067  41.470   0.508
66852W        W35257  42.032   2.484  14.772
66853W        W35258  26.643  25.675  14.420
66854W        W35259  25.934  12.166   0.895
66855W        W35260   1.366  14.619  11.453
66856W        W35261  16.724  13.429   0.768
66857W        W35262  15.315  19.348   0.054
66858W        W35263  15.351  27.244  13.460
66859W        W35264  28.270   6.529   1.927
66860W        W35265  19.805  43.858   0.860
66861W        W35266  27.168  19.561  12.988
66862W        W35267  24.103  28.520   3.113
66863W        W35268   2.770   3.700   3.566
66864W        W35269   1.847  15.169   4.037
66865W        W35270  18.255   0.346  13.096
66866W        W35271  21.496   9.330   0.861
66867W        W35272  28.055  21.741  11.933
66868W        W35273   5.724  34.397   3.614
66869W        W35274  22.192   2.910  13.375
66870W        W35275  27.450  29.483   0.482
66871W        W35276  36.126  27.644  11.654
66872W        W35277  36.783  20.210  13.575
66873W        W35278  36.952  31.434  12.004
66874W        W35279  17.349  17.273   2.782
66875W        W35280  32.707   7.432  11.124
66876W        W35281   0.041   7.931   0.462
66877W        W35282  10.849   4.239  11.652
66878W        W35283  23.443   9.969  12.799
66879W        W35284  32.386   7.860  12.393
66880W        W35285  10.079  42.854  12.406
66881W        W35286  33.026   0.250  11.084
66882W        W35287  23.074  23.852   4.064
66883W        W35288  39.598   8.334   4.073
66884W        W35289  22.533   1.955   0.493
66885W        W35290  28.701  37.186  12.463
66886W        W35291  13.557   5.369   3.753
66887W        W35292  12.553  35.210  12.853
66888W        W35293  36.311  38.858  12.117
66889W        W35294  21.599  12.959   3.246
66890W        W35295  35.111   4.317   0.290
66891W        W35296   5.254  41.393  12.439
66892W        W35297  17.330  40.395  12.460
66893W        W35298  32.614  31.349   1.424
66894W        W35299   2.869   2.231   0.454
66895W        W35300  15.104  14.346  12.562
66896W        W35301  37.300  38.073  13.468
66897W        W35302  29.513  36.815   4.303
66898W        W35303  22.630  14.807   0.496
66899W        W35304  28.940  24.013   4.071
66900W        W35305  34.454  11.148  13.551
66901W        W35306  25.116  21.454  10.669
66902W        W35307   5.928  39.954  13.648
66903W        W35308  30.587   8.237   0.425
66904W        W35309  11.557  11.751   2.821
66905W        W35310  31.589  36.534  11.217
66906W        W35311   3.896  28.643  12.849
66907W        W35312  21.464   8.975   2.595
66908W        W35313  39.090   3.218   1.829
66909W        W35314  36.353  16.246   0.396
66910W        W35315  43.455  28.558   0.969
66911W        W35316  33.557  33.511  13.225
66912W        W35317   5.314  26.952   1.252
66913W        W35318   3.431  28.434   1.028
66914W        W35319   5.829  15.966   4.001
66915W        W35320  18.631  11.960   2.915
66916W        W35321  33.890  10.394  10.701
66917W        W35322  22.082  40.444   4.780
66918W        W35323  21.399  40.487  13.200
66919W        W35324  29.711  38.537   0.749
66920W        W35325  38.425  33.085   2.772
66921W        W35326   9.970  11.599   3.547
66922W        W35327   8.523  35.023   0.996
66923W        W35328  34.340  41.982  13.498
66924W        W35329  18.206  17.097  12.547
66925W        W35330  13.326  19.196   3.131
66926W        W35331  11.767  19.195   0.317
66927W        W35332  37.645  16.863   1.070
66928W        W35333  29.951  24.123  14.988
66929W        W35334  27.457  37.366   2.651
66930W        W35335  26.182   2.247  12.568
66931W        W35336   9.152   3.710   1.293
66932W        W35337  30.569   6.824   1.166
66933W        W35338  32.350  18.064   0.372
66934W        W35339  39.051  23.799   3.775
66935W        W35340   6.100   5.271   0.348
66936W        W35341  43.028   7.783   0.294
66937W        W35342  11.347  33.635  14.795
66938W        W35343  12.165   1.770  13.602
66939W        W35344  19.367   5.905  12.037
66940W        W35345  31.379  22.084   2.230
66941W        W35346  14.772  38.474  11.799
66942W        W35347  22.022  18.817   0.437
66943W        W35348  13.187  37.692  13.355
66944W        W35349  29.879  22.630   2.847
66945W        W35350  17.697  19.946   4.642
66946W        W35351  30.637   1.730   1.808
66947W        W35352  23.782  27.045  11.259
66948W        W35353   0.434  19.092   0.896
66949W        W35354  33.470   1.478   0.858
66950W        W35355  26.216  28.005  14.443
66951W        W35356  39.132  19.227  10.748
66952W        W35357  40.825   9.105   4.302
66953W        W35358  34.639  33.940  14.024
66954W        W35359  11.930  33.471   4.141
66955W        W35360  24.653  43.474  11.070
66956W        W35361  23.553  20.671  12.150
66957W        W35362  28.485  10.794  10.678
66958W        W35363  28.920  25.502  14.090
66959W        W35364  30.919  15.694   1.819
66960W        W35365  28.609   2.132   4.910
66961W        W35366  38.969  10.911   4.465
66962W        W35367  37.448  42.878  12.853
66963W        W35368  22.282  40.661  14.941
66964W        W35369  43.197  13.262   2.685
66965W        W35370  15.692  25.299  14.727
66966W        W35371  14.104   2.975  13.408
66967W        W35372   5.288  26.090  11.156
66968W        W35373   7.179   6.813   0.858
66969W        W35374   2.647  43.955   1.894
66970W        W35375  24.879  30.085   4.580
66971W        W35376  28.447  27.068   2.828
66972W        W35377  10.067  27.033  11.108
66973W        W35378  23.410  29.088   1.127
66974W        W35379  11.121  14.189  10.864
66975W        W35380   3.846  43.621   3.566
66976W        W35381  10.040  41.144   3.203
66977W        W35382  10.150  41.818  11.873
66978W        W35383  24.221  20.334  13.816
66979W        W35384   5.855  20.671   2.266
66980W        W35385  13.347  12.844   4.363
66981W        W35386  22.375  35.909  11.171
66982W        W35387  20.195  31.606   2.921
66983W        W35388   4.361  25.258   4.577
66984W        W35389  27.442  41.883  14.803
66985W        W35390  13.738  31.625  13.412
66986W        W35391  24.066   4.715  14.779
66987W        W35392  42.310  30.517   0.309
66988W        W35393  37.583  15.221   4.045
66989W        W35394  39.893  33.095   2.243
66990W        W35395  23.220  37.564   1.711
66991W        W35396   3.972  35.577   4.694
66992W        W35397  31.165  21.150   4.511
66993W        W35398  20.307  26.735  12.108
66994W        W35399  16.719  37.911   4.328
66995W        W35400  25.993  16.019  11.544
66996W        W35401  26.698   0.941   1.266
66997W        W35402  28.623   8.639  14.246
66998W        W35403  44.781   1.185  14.507
66999W        W35404  40.017  11.672  14.893
67000W        W35405  15.576  17.061   2.921
67001W        W35406  10.117  19.177  10.818
67002W        W35407  38.982  29.776   1.174
67003W        W35408   8.103  39.635  11.081
67004W        W35409   8.563   8.920   4.121
67005W        W35410  44.689  20.312  12.956
67006W        W35411  25.467   5.942   4.528
67007W        W35412  43.209   2.797  11.935
67008W        W35413  18.715  28.745   4.491
67009W        W35414  35.087  40.695   0.334
67010W        W35415  34.288   3.918   1.775
67011W        W35416  32.412  34.578   1.435
67012W        W35417   8.411  15.415  11.101
67013W        W35418  36.650  13.250  12.424
67014W        W35419  35.529  21.020   1.926
67015W        W35420  34.382  16.696  13.731
67016W        W35421  38.909  29.214   2.700
67017W        W35422   8.709  19.004   0.593
67018W        W35423  41.486  15.812   0.776
67019W        W35424  32.603  24.536   4.882
67020W        W35425  22.770  27.908  12.847
67021W        W35426   3.325  37.518   5.055
67022W        W35427  15.314  39.451   4.731
67023W        W35428  30.122  43.040  13.494
67024W        W35429   1.193  28.885   4.587
67025W        W35430  37.640   0.214  11.574
67026W        W35431  35.464  34.198  11.681
67027W        W35432  12.538  43.717  13.856
67028W        W35433  29.430   6.388  13.349
67029W        W35434  22.492  44.205   3.772
67030W        W35435  37.850  27.201   0.093
67031W        W35436  18.930  40.151   0.839
67032W        W35437  42.012  12.829  10.558
67033W        W35438   9.889  21.982  13.355
67034W        W35439  37.393  25.609  10.594
67035W        W35440  37.338  23.348  11.160
67036W        W35441  19.280  15.785   0.479
67037W        W35442   3.958  18.777  13.353
67038W        W35443  17.653  28.702  13.241
67039W        W35444  22.745  33.603  13.913
67040W        W35445  24.628   1.246  12.637
67041W        W35446   4.187   7.118  11.543
67042W        W35447  43.924  20.605  13.477
67043W        W35448  11.715  15.914   0.855
67044W        W35449  17.343  14.178  11.530
67045W        W35450   9.619  43.720   4.689
67046W        W35451   6.105  16.514  14.387
67047W        W35452  11.610  19.103  14.817
67048W        W35453   1.334  26.276  11.594
67049W        W35454   2.918  34.525  10.735
67050W        W35455  29.947  21.473   2.169
67051W        W35456  39.434  19.076   2.780
67052W        W35457  44.971  24.131   4.772
67053W        W35458  20.687  24.462  11.889
67054W        W35459  43.815   4.511  14.897
67055W        W35460  36.081  43.373  11.523
67056W        W35461   5.228   7.645  14.825
67057W        W35462   5.392  10.878   2.294
67058W        W35463  11.843  35.882   2.144
67059W        W35464   7.869  25.131  11.337
67060W        W35465  38.809  11.822  10.733
67061W        W35466  14.056  13.316  14.865
67062W        W35467  32.963  12.831  11.955
67063W        W35468  43.990   3.805   3.027
67064W        W35469  19.204  41.330  12.580
67065W        W35470  31.619   8.948  14.850
67066W        W35471   9.374  24.907   3.233
67067W        W35472   1.030  14.559   0.059
67068W        W35473  18.111   5.470  14.415
67069W        W35474  13.596   2.735   0.049
67070W        W35475  17.312  12.895  10.679
67071W        W35476  13.371  41.064  12.518
67072W        W35477  17.757   6.754  11.914
67073W        W35478  29.487  33.804  11.497
67074W        W35479  39.918  35.953   2.585
67075W        W35480   2.674  14.702   1.836
67076W        W35481   3.047   2.792  13.472
67077W        W35482  41.784   5.343   2.274
67078W        W35483  19.576   1.528  11.150
67079W        W35484  37.063  10.318  14.983
67080W        W35485   9.932  17.872   3.702
67081W        W35486  32.391  10.115   2.859
67082W        W35487  35.723  30.757  14.864
67083W        W35488  23.244   7.276   2.925
67084W        W35489  30.233  41.282   3.061
67085W        W35490   8.419  31.535   4.656
67086W        W35491  15.317  14.348   0.237
67087W        W35492  18.076  25.273  13.398
67088W        W35493  37.108   5.303  14.978
67089W        W35494  41.619   8.808  12.217
67090W        W35495  31.990  15.056  11.659
67091W        W35496   3.019  15.743   0.761
67092W        W35497   1.529  21.029   3.648
67093W        W35498  34.140  23.215   3.198
67094W        W35499   6.497  24.488  11.085
67095W        W35500  28.310  39.427  12.099
67096W        W35501  17.701  33.376  11.231
67097W        W35502  40.874  23.951  13.510
67098W        W35503  44.496  39.457   3.708
67099W        W35504  17.455  15.243  13.929
67100W        W35505  26.237  38.366  12.480
67101W        W35506  28.125  19.310  11.158
67102W        W35507  18.019  25.160   1.232
67103W        W35508  18.069  24.706  11.607
67104W        W35509  17.811  25.787   2.599
67105W        W35510  40.597  21.277   4.206
67106W        W35511  24.237   6.339   2.237
67107W        W35512  22.135  35.944  14.541
67108W        W35513  31.487  28.731   1.439
67109W        W35514  41.114  20.664   1.429
67110W        W35515  21.546   1.478  11.477
67111W        W35516   2.370  43.974  13.673
67112W        W35517  30.531  22.080   1.001
67113W        W35518  26.050  12.689  11.147
67114W        W35519   3.941  34.578   3.392
67115W        W35520  29.283  17.800  11.130
67116W        W35521  18.265  12.595   4.706
67117W        W35522  43.836  27.199   2.248
67118W        W35523   8.675  23.623   0.439
67119W        W35524  41.039   5.806  14.006
67120W        W35525   4.275  40.702   4.616
67121W        W35526  39.875  34.857   0.985
67122W        W35527   9.232  23.394   4.593
67123W        W35528  36.826  22.634   4.297
67124W        W35529   5.206   2.977  14.122
67125W        W35530  44.988  10.858   2.720
67126W        W35531  19.695  14.027   2.748
67127W        W35532   8.661  32.649   0.844
67128W        W35533  20.598  13.059   0.967
67129W        W35534  24.133  12.562   2.278
67130W        W35535  13.505  30.927   3.462
67131W        W35536  10.927   1.342   5.829
67132W        W35537  37.125  35.932   4.337
67133W        W35538  23.771   7.279  14.368
67134W        W35539  27.939  39.854   3.176
67135W        W35540  30.967   3.130   4.684
67136W        W35541  26.537  24.551   1.245
67137W        W35542  21.660   7.312  12.816
67138W        W35543  37.571  26.297  12.965
67139W        W35544  39.766  12.417  13.480
67140W        W35545  29.983  33.970  10.734
67141W        W35546  41.038  15.691  14.315
67142W        W35547  40.845  26.083  11.604
67143W        W35548  29.558  38.826   4.543
67144W        W35549  16.513   7.212   1.501
67145W        W35550  11.356  24.147   4.868
67146W        W35551  14.802  28.210   2.588
67147W        W35552  19.537  24.761   4.992
67148W        W35553  11.760  33.459  13.308
67149W        W35554  37.846   9.290   2.825
67150W        W35555  11.127  24.307   0.893
67151W        W35556  43.776  22.797  12.398
67152W        W35557  25.533  43.996   2.395
67153W        W35558  26.635  43.839  13.806
67154W        W35559   2.027  41.576  14.548
67155W        W35560  39.639  28.314  12.389
67156W        W35561  11.649  39.917   3.603
67157W        W35562   1.210  26.973  12.550
67158W        W35563   8.992  26.280   1.695
67159W        W35564   2.447  16.104  12.085
67160W        W35565  11.070  18.541  12.436
67161W        W35566   8.876  40.678  13.916
67162W        W35567   7.462  12.092  11.168
67163W        W35568  26.531  36.520  10.681
67164W        W35569  24.741  15.240  14.308
67165W        W35570  27.208  30.554   4.554
67166W        W35571  16.810   6.768  12.768
67167W        W35572  13.902  29.272   2.927
67168W        W35573  19.504   4.895   0.336
67169W        W35574  41.395  35.538  14.522
67170W        W35575   3.262   9.802   1.016
67171W        W35576  38.553   1.066   4.614
67172W        W35577  17.107  29.609  10.561
67173W        W35578  30.143  38.005   4.608
67174W        W35579  43.796  13.533   4.212
67175W        W35580  43.956  24.178   0.286
67176W        W35581  28.936  18.916  10.255
67177W        W35582  20.024  41.408   0.075
67178W        W35583  40.508   2.583  11.662
67179W        W35584   8.321   3.314   1.244
67180W        W35585  27.656  19.106   0.390
67181W        W35586  43.329  42.225  14.905
67182W        W35587  14.433  15.289  12.153
67183W        W35588  17.870   6.436  12.595
67184W        W35589  42.961  15.826  13.003
67185W        W35590  31.084  36.340  12.557
67186W        W35591   3.485   5.456  10.718
67187W        W35592  40.180  30.678   0.272
67188W        W35593  38.957   5.298  14.004
67189W        W35594  40.327  41.827  13.136
67190W        W35595  41.904  29.423  13.932
67191W        W35596  31.186  14.528   2.813
67192W        W35597  31.037  30.454  14.407
67193W        W35598   3.006  12.770  13.020
67194W        W35599  11.135  29.497  12.181
67195W        W35600  37.399  15.576  10.586
67196W        W35601  19.834  26.991  10.531
67197W        W35602  26.542  34.304  14.237
67198W        W35603  20.177  13.846   2.785
67199W        W35604  18.251   5.761  13.267
67200W        W35605  15.050  31.615  14.966
67201W        W35606  33.371  18.415  14.414
67202W        W35607  19.674  17.380  13.605
67203W        W35608  20.428  11.264   3.902
67204W        W35609  20.146  23.764  12.761
67205W        W35610   7.873  43.255  12.097
67206W        W35611  31.505  43.394  11.844
67207W        W35612  37.331  11.569   2.652
67208W        W35613  33.167  41.291  11.585
67209W        W35614  27.514  35.442   3.753
67210W        W35615  34.434  41.147  12.680
67211W        W35616   1.798  44.518  13.955
67212W        W35617  36.353  27.521  12.622
67213W        W35618  37.439  34.524  12.162
67214W        W35619  31.390  25.529  11.560
67215W        W35620  20.474  34.598  10.913
67216W        W35621  39.034  13.904   4.091
67217W        W35622   5.297  27.259  11.325
67218W        W35623  25.176  18.530   1.460
67219W        W35624   7.212   1.120  14.215
67220W        W35625   0.047  42.494  12.811
67221W        W35626  13.579  30.522  13.013
67222W        W35627  41.856  43.177   4.031
67223W        W35628   7.442  35.431  12.018
67224W        W35629  12.709  21.658  12.216
67225W        W35630  39.408  24.729   3.272
67226W        W35631  17.522  43.234   4.177
67227W        W35632  10.423  17.699   3.637
67228W        W35633  44.398  10.437  11.620
67229W        W35634  14.596  26.469   4.600
67230W        W35635  27.403  44.967  10.350
67231W        W35636  17.988  36.953   4.691
67232W        W35637  16.431   0.184   5.022
67233W        W35638  25.714  32.568   4.281
67234W        W35639  25.793  24.630   0.035
67235W        W35640  42.368   0.153  14.736
67236W        W35641  17.111   3.832  14.195
67237W        W35642  10.286   1.683   3.232
67238W        W35643  13.108  26.758   1.765
67239W        W35644  16.225   3.993   3.206
67240W        W35645  23.622  13.292  14.499
67241W        W35646  21.125  42.847   3.574
67242W        W35647  10.871  15.346  14.904
67243W        W35648  14.202  32.134  12.469
67244W        W35649  44.966  43.570   4.777
67245W        W35650  29.547  10.196  14.165
67246W        W35651  18.612  14.876  11.200
67247W        W35652   7.364  30.209   3.290
67248W        W35653  20.072   9.192   3.884
67249W        W35654  15.607  22.731  14.524
67250W        W35655  22.477  12.794  12.115
67251W        W35656  21.647  21.698  11.512
67252W        W35657  16.206  13.187  10.752
67253W        W35658   0.596  32.252   4.164
67254W        W35659  14.728  14.791   2.221
67255W        W35660  16.388   4.482  11.576
67256W        W35661   1.718  23.464  14.421
67257W        W35662  30.690  30.392  13.581
67258W        W35663  13.233  11.437  11.636
67259W        W35664  27.940  31.844  10.196
67260W        W35665   5.348   2.316   0.388
67261W        W35666  28.635  11.480  13.547
67262W        W35667  25.989   3.728   3.579
67263W        W35668  37.483  26.487  13.516
67264W        W35669  26.042  23.911   2.727
67265W        W35670  25.026   9.756   2.777
67266W        W35671  38.916  33.461   2.770
67267W        W35672  19.036  36.854  13.918
67268W        W35673  36.798  19.285  13.445
67269W        W35674  16.660  14.818   1.869
67270W        W35675  17.901  21.499   9.764
67271W        W35676  34.084  44.074  13.823
67272W        W35677  18.195  44.955   0.462
67273W        W35678  19.149  29.460   4.073
67274W        W35679  14.985   3.853  12.884
67275W        W35680  44.531  11.666   4.315
67276W        W35681  42.382   7.198  10.877
67277W        W35682  11.972   3.399  12.450
67278W        W35683  44.361  23.541   4.125
67279W        W35684  19.059  33.062   3.600
67280W        W35685  11.592  13.245   2.897
67281W        W35686   2.366  24.196  13.007
67282W        W35687  27.643   3.401  14.827
67283W        W35688  44.393  17.399  11.548
67284W        W35689  21.212  40.589  14.989
67285W        W35690   3.465  33.133  13.521
67286W        W35691  31.738  40.573  12.995
67287W        W35692  38.878   9.799  14.495
67288W        W35693  14.015  12.660  11.858
67289W        W35694  33.183  13.685   2.184
67290W        W35695  21.392  30.421  14.768
67291W        W35696   7.927  10.759  14.729
67292W        W35697  27.631   1.646   3.205
67293W        W35698  34.433   9.399  10.660
67294W        W35699  12.790   9.749  12.140
67295W        W35700   5.941  25.198   0.828
67296W        W35701  34.633  15.259   4.705
67297W        W35702   9.469  16.743  12.526
67298W        W35703  16.111   9.841   1.514
67299W        W35704  18.810  25.593  12.912
67300W        W35705  19.558  17.819   1.851
67301W        W35706   6.845  17.764   2.804
67302W        W35707  35.964   0.795  11.432
67303W        W35708   3.715  20.334   2.291
67304W        W35709   2.321   1.927  12.937
67305W        W35710  25.449  23.627   3.735
67306W        W35711  14.468   8.223   2.237
67307W        W35712  12.664  24.642  11.555
67308W        W35713  12.358  10.387   2.151
67309W        W35714  22.240  37.083   2.702
67310W        W35715   1.461  22.738   4.289
67311W        W35716   1.964  25.032  12.146
67312W        W35717  12.093  10.727  12.543
67313W        W35718  34.376  10.710   2.860
67314W        W35719   9.209  40.014  10.785
67315W        W35720  11.955   1.063  14.124
67316W        W35721  35.723  23.348   1.028
67317W        W35722  15.088   2.789  12.012
67318W        W35723  29.401  33.043  14.748
67319W        W35724  34.921   9.924   4.168
67320W        W35725  42.721  28.492   3.017
67321W        W35726  20.240  28.509   2.129
67322W        W35727  24.368   2.657   1.194
67323W        W35728   3.492  30.016  11.142
67324W        W35729  10.794  18.126  12.315
67325W        W35730  23.701  29.144   1.862
67326W        W35731  33.664  26.526  12.907
67327W        W35732  16.675   6.990  10.541
67328W        W35733   0.529  16.734  11.004
67329W        W35734  39.061  25.232   4.676
67330W        W35735  37.017  31.034  12.981
67331W        W35736  35.468  29.203   4.352
67332W        W35737  33.737  17.093   1.837
67333W        W35738   8.871   5.286   4.376
67334W        W35739  20.525  37.557   2.788
67335W        W35740  41.910  11.781  10.952
67336W        W35741  12.812  44.004  13.535
67337W        W35742  31.145  25.714  11.970
67338W        W35743   8.708  19.930   4.607
67339W        W35744  44.509   5.449   3.009
67340W        W35745   4.786  39.299   2.873
67341W        W35746  23.286  14.599  12.587
67342W        W35747   4.384  17.079   0.454
67343W        W35748  37.133  19.586  14.042
67344W        W35749  34.054  21.007   3.757
67345W        W35750  30.963  30.374  10.912
67346W        W35751   1.217  16.993   4.142
67347W        W35752   3.016  36.386   3.645
67348W        W35753  30.748  40.351  11.448
67349W        W35754  20.083  10.400  11.494
67350W        W35755   1.914  37.146   4.187
67351W        W35756  39.412   3.935  13.045
67352W        W35757  28.053  12.810   3.093
67353W        W35758  43.403  39.484   1.967
67354W        W35759  16.203  14.730   3.294
67355W        W35760  41.022  36.764   4.129
67356W        W35761  18.447   4.229   2.332
67357W        W35762  34.955  25.672  10.955
67358W        W35763  15.051   8.246  13.028
67359W        W35764  30.190  38.448  14.695
67360W        W35765  18.580   4.143   3.564
67361W        W35766  39.642  25.942   2.038
67362W        W35767  43.013  32.756   3.246
67363W        W35768  15.070  26.751  14.359
67364W        W35769   9.253  24.961  12.034
67365W        W35770   0.443  14.694  13.474
67366W        W35771   4.689  30.535   3.849
67367W        W35772  10.639  41.384   0.008
67368W        W35773  40.933  39.089  12.087
67369W        W35774  37.834  25.454   4.343
67370W        W35775  15.514  19.730  12.637
67371W        W35776  19.749  27.078  14.751
67372W        W35777  12.668   6.811   2.376
67373W        W35778  30.889  25.975   3.242
67374W        W35779  19.842  44.232   1.735
67375W        W35780   6.952  12.101  12.474
67376W        W35781  41.456  32.398   3.745
67377W        W35782  17.502  40.665  12.850
67378W        W35783   2.258  24.793  11.555
67379W        W35784  44.667  41.272   1.668
67380W        W35785  44.363  13.478   0.418
67381W        W35786  27.920  19.491  11.582
67382W        W35787   2.820   1.504  14.815
67383W        W35788   1.681  35.161  11.888
67384W        W35789   4.215  20.246  14.474
67385W        W35790  11.722  32.632   0.435
67386W        W35791  29.676   5.138   4.995
67387W        W35792  28.429  41.336   0.852
67388W        W35793  42.706  17.767  14.796
67389W        W35794  32.656  13.935   1.282
67390W        W35795  41.322  10.920   4.065
67391W        W35796  21.522  12.858  13.900
67392W        W35797   5.880  22.189  11.616
67393W        W35798  44.932  31.950  11.004
67394W        W35799   5.916   8.332   4.358
67395W        W35800  35.882   0.806   0.446
67396W        W35801  39.894  37.505  10.666
67397W        W35802  21.526   0.144   3.258
67398W        W35803  42.789  11.894  14.627
67399W        W35804   8.641  24.195   1.729
67400W        W35805  42.210  27.365  13.473
67401W        W35806   6.989  10.227   0.104
67402W        W35807  26.919  32.313   4.070
67403W        W35808  27.983  31.658  10.698
67404W        W35809  40.572  17.447  10.156
67405W        W35810  29.163   8.606   9.804
67406W        W35811   6.923   8.996  10.736
67407W        W35812  23.478  27.945  12.878
67408W        W35813  27.044  29.895  13.969
67409W        W35814   1.370  23.619  12.449
67410W        W35815  11.353   5.472  14.325
67411W        W35816  12.158  18.779  13.428
67412W        W35817  43.397  20.737   2.990
67413W        W35818  28.400  26.460   4.117
67414W        W35819  37.583  40.940  14.834
67415W        W35820  15.163  14.681   4.868
67416W        W35821  19.476  14.652  14.827
67417W        W35822   3.344  40.117  12.056
67418W        W35823  38.390  44.749  14.138
67419W        W35824  13.045  39.965   3.850
67420W        W35825  32.938  25.200  12.890
67421W        W35826  25.056  20.220  13.435
67422W        W35827   2.051   6.931   2.232
67423W        W35828  30.148  38.994   3.651
67424W        W35829  17.238  32.290  12.933
67425W        W35830  16.678  36.577  11.649
67426W        W35831  20.018  37.121   2.204
67427W        W35832  14.522   8.280  14.898
67428W        W35833  26.355  37.366  11.514
67429W        W35834  20.442  11.857  11.921
67430W        W35835   3.908  21.110   1.787
67431W        W35836   5.793  41.483   3.729
67432W        W35837  22.787  37.818   4.237
67433W        W35838  38.835  27.598  13.590
67434W        W35839  37.065  24.588   4.226
67435W        W35840  38.122   0.769  11.144
67436W        W35841  34.336  35.510  10.626
67437W        W35842  18.314  35.433  12.961
67438W        W35843  37.105  19.194  10.719
67439W        W35844   0.999  19.281  10.705
67440W        W35845  16.335  17.396  13.965
67441W        W35846  33.331   5.868  11.013
67442W        W35847  10.369   6.738  13.956
67443W        W35848  22.185   6.673   1.452
67444W        W35849  41.292  24.763   3.267
67445W        W35850  21.000  12.862  13.923
67446W        W35851  33.537  17.346  11.573
67447W        W35852  12.743   4.656  10.413
67448W        W35853  12.957  24.013   3.728
67449W        W35854  42.382  22.612  13.316
67450W        W35855   1.017  29.161   2.824
67451W        W35856  36.170   5.533  13.240
67452W        W35857  27.432   6.678  13.993
67453W        W35858   1.788  43.059   1.396
67454W        W35859  33.135   5.905   2.693
67455W        W35860  36.642   5.089  12.506
67456W        W35861  32.359  21.190  14.736
67457W        W35862  11.332  35.177   4.639
67458W        W35863  26.547  30.615   4.049
67459W        W35864  36.664  22.316   3.429
67460W        W35865  29.596  11.907  10.582
67461W        W35866  16.625  36.640   0.362
67462W        W35867  30.324  15.059   3.324
67463W        W35868  34.061  26.061   4.590
67464W        W35869  42.037  23.732   4.152
67465W        W35870  43.279  25.120  14.365
67466W        W35871  38.215   0.497   1.212
67467W        W35872  14.245  18.271  12.057
67468W        W35873  21.287  16.386   1.351
67469W        W35874   5.091  20.030  13.066
67470W        W35875  13.140  17.154   0.980
67471W        W35876   3.867   5.106  10.515
67472W        W35877  11.814  43.886   1.682
67473W        W35878   3.483  15.533   0.762
67474W        W35879   8.985   5.777   1.023
67475W        W35880  34.512  15.267  12.180
67476W        W35881   7.998  44.593   2.765
67477W        W35882  33.177  13.171   1.628
67478W        W35883   0.833  29.998   2.319
67479W        W35884   2.653  43.483  14.793
67480W        W35885  10.211   4.835  12.554
67481W        W35886   6.626   9.986   2.336
67482W        W35887  15.445  44.544  14.030
67483W        W35888   8.670  25.660  14.478
67484W        W35889  30.230  16.152   2.714
67485W        W35890  39.742  36.536   0.279
67486W        W35891  36.297  39.940   3.740
67487W        W35892  12.695   6.668   4.573
67488W        W35893  37.888   6.431  14.713
67489W        W35894   4.076  35.124   2.703
67490W        W35895  19.371   4.683   0.838
67491W        W35896  13.369  43.532  11.201
67492W        W35897  22.647  35.397   0.336
67493W        W35898  30.872  13.712  12.912
67494W        W35899  27.796  16.122  10.911
67495W        W35900  15.760  10.440   4.585
67496W        W35901  28.706  30.665   1.332
67497W        W35902  31.009  38.260  11.210
67498W        W35903  14.744  12.849   4.184
67499W        W35904  18.008   0.798  11.463
67500W        W35905   9.207  41.436  12.834
67501W        W35906  38.398   5.250   1.301
67502W        W35907  10.843  13.513   0.544
67503W        W35908  43.611  29.054  12.035
67504W        W35909  15.677  14.773   3.270
67505W        W35910   3.624  35.822  12.118
67506W        W35911   9.808  13.268   4.088
67507W        W35912  31.718  15.019  13.401
67508W        W35913  27.646  25.980  13.338
67509W        W35914  41.896  16.645  13.674
67510W        W35915  11.759  33.882  14.042
67511W        W35916  28.202  41.774   4.576
67512W        W35917  15.471   8.190   9.908
67513W        W35918  38.941  17.061   1.310
67514W        W35919  25.130  33.101   0.493
67515W        W35920  11.128  42.822  14.763
67516W        W35921  13.768   1.961   3.761
67517W        W35922  17.128   9.847  14.847
67518W        W35923  32.390  25.701  11.622
67519W        W35924  10.872  34.558   4.242
67520W        W35925  25.866  13.490   3.642
67521W        W35926  37.092  10.557  14.521
67522W        W35927   7.356  26.000   4.861
67523W        W35928  13.109  37.506  11.589
67524W        W35929  37.808  10.381   4.583
67525W        W35930  17.120  22.660   3.145
67526W        W35931  21.772   2.845   4.669
67527W        W35932  25.239  39.231  13.527
67528W        W35933  37.064  32.558   3.743
67529W        W35934  25.147  19.508   1.473
67530W        W35935  44.400   1.834  11.594
67531W        W35936  39.853   6.508  13.779
67532W        W35937  26.682  42.205  13.162
67533W        W35938  43.817  22.681   4.632
67534W        W35939  25.897  20.874   3.233
67535W        W35940  15.298  23.162  11.610
67536W        W35941  42.005  34.561   1.169
67537W        W35942  24.232  40.371   1.862
67538W        W35943  43.476  21.712   0.902
67539W        W35944  15.709  15.349  14.382
67540W        W35945  39.336  22.162  13.016
67541W        W35946  14.053   7.322   4.539
67542W        W35947  13.866  11.647   3.533
67543W        W35948   9.898  19.983  14.805
67544W        W35949  23.439  27.557  13.966
67545W        W35950  21.184  41.408   1.951
67546W        W35951   6.355  39.326  13.923
67547W        W35952  38.368   3.832  13.342
67548W        W35953  14.709  16.775   3.883
67549W        W35954   8.935  27.527  11.617
67550W        W35955  26.200   2.821   3.162
67551W        W35956  28.870  29.155   4.947
67552W        W35957   7.327  21.136   1.802
67553W        W35958  26.991  10.767   1.663
67554W        W35959  37.117  41.014   3.305
67555W        W35960  38.589  19.795   0.496
67556W        W35961  43.681   5.764  13.039
67557W        W35962  31.963  12.552   3.702
67558W        W35963  39.436  35.082  12.184
67559W        W35964  17.780   8.938   3.729
67560W        W35965  20.194  30.568  14.061
67561W        W35966   0.584   8.849  13.077
67562W        W35967  12.666  17.761   1.263
67563W        W35968  29.103  42.225  13.121
67564W        W35969  11.225  17.315  13.888
67565W        W35970   0.580  30.641   3.689
67566W        W35971  34.595  40.127   4.440
67567W        W35972  40.814  38.884  13.416
67568W        W35973  21.425  34.381   0.972
67569W        W35974  24.228  16.553   4.582
67570W        W35975  12.584  19.138   1.285
67571W        W35976   5.164  12.079  10.487
67572W        W35977   4.684  16.592   2.271
67573W        W35978  42.412   1.979  13.070
67574W        W35979  26.561  22.747  11.448
67575W        W35980   1.689   8.139   0.863
67576W        W35981  32.172   4.157  10.679
67577W        W35982   3.567   6.131   4.452
67578W        W35983  36.844  27.997   3.196
67579W        W35984  41.865  29.168  10.763
67580W        W35985   0.794  40.893  12.120
67581W        W35986  44.922   1.333   3.625
67582W        W35987  27.160  38.307   2.898
67583W        W35988  29.040  29.336  10.644
67584W        W35989  31.967   9.171  12.153
67585W        W35990  20.487  27.880   4.175
67586W        W35991   0.318  18.164  11.070
67587W        W35992  33.646   6.159   1.442
67588W        W35993   7.429  14.353  10.282
67589W        W35994   9.801   2.011  10.443
67590W        W35995  34.043  40.489  13.398
67591W        W35996  35.612  40.780   0.313
67592W        W35997   5.228  23.152  14.784
67593W        W35998  33.878  19.702  10.735
67594W        W35999   7.795  12.849   3.730
67595W        W36000  31.154  30.189   2.749
67596W        W36001   2.980   3.705   3.088
67597W        W36002  25.235  39.575  12.186
67598W        W36003   3.182  38.461   1.209
67599W        W36004  20.976   5.927  13.840
67600W        W36005  44.543  11.423   0.791
67601W        W36006  29.510   8.181   2.297
67602W        W36007  38.821  28.645   3.717
67603W        W36008  11.985  30.404   9.730
67604W        W36009  11.570  43.418   2.971
67605W        W36010  42.194  26.618   4.305
67606W        W36011  23.657   7.970   2.697
67607W        W36012   2.435  35.487  12.069
67608W        W36013  39.847  43.721  12.109
67609W        W36014   9.684   6.384  14.839
67610W        W36015  14.515  44.984  11.119
67611W        W36016  32.049  28.589   0.228
67612W        W36017   8.951   3.201  11.187
67613W        W36018  19.490  12.814  12.047
67614W        W36019   9.452  36.528   4.658
67615W        W36020  17.087  18.635  10.647
67616W        W36021   0.425  12.842  12.539
67617W        W36022  41.092  14.850  11.630
67618W        W36023   2.495  27.557  14.308
67619W        W36024  15.814  26.730   2.210
67620W        W36025  28.084  33.719   1.569
67621W        W36026   4.902  12.090  11.982
67622W        W36027   7.511  20.074   1.355
67623W        W36028  32.398   8.064   1.752
67624W        W36029  14.810  25.070  12.597
67625W        W36030  34.768  23.478   3.106
67626W        W36031  42.546  18.141  13.021
67627W        W36032   6.104  37.376   2.307
67628W        W36033  10.685  37.112  14.360
67629W        W36034  10.438  42.330   4.683
67630W        W36035  32.299  23.111   3.730
67631W        W36036  17.247   9.173  13.834
67632W        W36037   9.892  16.056  13.164
67633W        W36038   1.328  41.728   1.401
67634W        W36039  41.518  40.275  14.337
67635W        W36040  37.444   6.875  12.445
67636W        W36041  21.530  23.862   4.505
67637W        W36042   6.872  19.169   0.311
67638W        W36043  32.524  39.535   2.901
67639W        W36044  28.776   9.465  14.011
67640W        W36045   5.205   6.456  13.915
67641W        W36046   5.372  11.216   3.742
67642W        W36047  22.263   9.888  13.601
67643W        W36048   5.866  33.205   1.248
67644W        W36049  18.523   0.999   5.169
67645W        W36050  13.276  27.818   0.360
67646W        W36051   1.786  43.185  12.005
67647W        W36052  26.308  13.762   3.454
67648W        W36053   5.801  13.760   1.070
67649W        W36054  33.927  23.142   4.336
67650W        W36055   3.123  20.702  12.570
67651W        W36056  38.943  41.125   1.225
67652W        W36057  44.147  39.433   4.647
67653W        W36058   6.621  37.003   1.407
67654W        W36059   8.669  42.171  10.943
67655W        W36060  17.037  19.007   2.405
67656W        W36061  44.275  31.360   0.397
67657W        W36062   6.678  12.253   4.138
67658W        W36063  30.580  35.982  14.489
67659W        W36064  27.189  20.000   3.716
67660W        W36065  33.629   8.226  12.465
67661W        W36066  36.607  15.154   2.958
67662W        W36067   5.970  32.420   2.728
67663W        W36068  15.732  17.485   3.797
67664W        W36069  34.938  22.494   0.504
67665W        W36070  10.649  14.231  13.516
67666W        W36071   3.280  17.676   3.788
67667W        W36072  24.963   4.321  11.038
67668W        W36073  23.133  42.366  13.440
67669W        W36074  22.345  33.482  14.437
67670W        W36075  20.106  34.865  10.606
67671W        W36076  19.665  26.006   3.240
67672W        W36077  20.105  39.480   1.004
67673W        W36078  44.904  13.965  13.464
67674W        W36079  25.713   2.897  13.021
67675W        W36080  29.655  38.984  13.977
67676W        W36081  19.689  38.024   0.710
67677W        W36082  28.065  19.544   4.940
67678W        W36083  33.540  31.979   1.613
67679W        W36084   0.136  35.018  11.007
67680W        W36085  33.746  22.652   1.729
67681W        W36086   7.952  27.650  13.890
67682W        W36087  26.535   9.868   4.618
67683W        W36088  21.615  35.817   2.429
67684W        W36089   9.395   4.712   4.112
67685W        W36090   1.960   6.910  14.214
67686W        W36091  32.908   7.953   1.839
67687W        W36092   8.412  23.485   0.876
67688W        W36093  39.352  44.039   1.107
67689W        W36094  38.015   8.020  13.285
67690W        W36095  35.419  28.613   0.871
67691W        W36096   0.902  31.677  12.091
67692W        W36097  44.861  11.590  12.896
67693W        W36098  24.499  24.780  11.169
67694W        W36099  12.171  42.332  12.758
67695W        W36100  32.111  21.273  11.505
67696W        W36101  30.978  42.521   2.133
67697W        W36102  33.543  33.537   2.259
67698W        W36103  38.903  30.480   3.554
67699W        W36104  16.601  37.484  12.443
67700W        W36105  44.075  22.218   3.212
67701W        W36106   1.482  17.197   3.604
67702W        W36107  22.294  25.853  12.348
67703W        W36108  29.883  21.956   2.319
67704W        W36109  32.201  12.750   2.297
67705W        W36110  25.488   2.311   4.588
67706W        W36111  22.113  28.970   3.708
67707W        W36112   2.747   4.373  11.596
67708W        W36113  33.024  34.437   4.030
67709W        W36114  17.024  14.149  11.912
67710W        W36115  26.380   1.760   4.712
67711W        W36116  40.713  43.395  10.444
67712W        W36117  17.961  12.660  12.357
67713W        W36118  10.658   2.515  13.395
67714W        W36119  35.549  36.923   0.035
67715W        W36120  22.856  44.150   5.048
67716W        W36121  38.959   1.012  11.577
67717W        W36122  41.294  40.666   4.244
67718W        W36123  34.104  24.466  10.734
67719W        W36124  29.865   9.695  13.340
67720W        W36125   6.875  20.363  14.343
67721W        W36126  40.244  35.968   1.750
67722W        W36127  37.937   7.868  11.162
67723W        W36128   9.769  44.212   4.665
67724W        W36129   8.670  25.111  12.548
67725W        W36130  41.857   0.082   3.560
67726W        W36131   0.391  13.046   4.706
67727W        W36132  39.098  16.266   0.747
67728W        W36133  24.758  20.733   3.779
67729W        W36134  37.449   8.380  12.556
67730W        W36135  41.366  39.902   4.709
67731W        W36136   2.749  24.787  10.842
67732W        W36137  27.646   0.546  14.776
67733W        W36138  38.700  40.732   3.380
67734W        W36139  39.286  17.384  14.980
67735W        W36140  22.656  34.877   2.412
67736W        W36141   6.894   4.486  10.603
67737W        W36142  34.599  33.578   4.533
67738W        W36143  40.924  39.013  14.790
67739W        W36144  21.711   9.858   4.166
67740W        W36145  37.479  39.003   4.065
67741W        W36146   6.627   7.209  11.945
67742W        W36147  36.029   3.660  12.482
67743W        W36148  25.798   3.065   0.739
67744W        W36149  11.629  13.200   4.251
67745W        W36150  23.308   8.850   3.382
67746W        W36151  35.668  11.138   4.639
67747W        W36152  22.676  29.781  11.699
67748W        W36153  19.975  15.707   1.149
67749W        W36154  17.591  41.306  11.259
67750W        W36155  36.831  39.025  12.135
67751W        W36156  21.059  38.355  12.645
67752W        W36157  24.209  10.835  13.411
67753W        W36158  16.097  17.825   3.693
67754W        W36159  24.615   0.708   4.234
67755W        W36160  43.406   2.097   5.072
67756W        W36161  22.171   6.799  12.395
67757W        W36162  15.308  36.960   0.467
67758W        W36163  19.053  29.967  10.596
67759W        W36164   7.682  37.545   9.866
67760W        W36165  29.280  29.336   1.311
67761W        W36166  17.554   5.225   1.397
67762W        W36167  17.041  22.042   2.713
67763W        W36168   0.949  12.162   2.318
67764W        W36169  20.714  27.189  12.550
67765W        W36170  16.541  41.303  10.650
67766W        W36171  25.171  11.068   1.350
67767W        W36172  24.450  33.885  11.602
67768W        W36173   2.454  18.170  11.257
67769W        W36174  42.387   6.933   0.360
67770W        W36175  41.824  26.567  10.899
67771W        W36176   9.732  44.072  14.945
67772W        W36177  12.917   3.391  11.826
67773W        W36178  14.673  21.800  13.409
67774W        W36179  21.993  35.126   1.999
67775W        W36180  36.012  19.585  11.598
67776W        W36181   2.004  39.834  12.398
67777W        W36182   9.493  43.895  10.957
67778W        W36183  34.440  44.930   1.881
67779W        W36184  34.627  29.469  12.046
67780W        W36185  40.419   6.797   2.981
67781W        W36186  13.929  32.328   1.533
67782W        W36187  27.073  36.398  10.708
67783W        W36188   4.303  20.933  13.958
67784W        W36189  43.804  13.339   0.733
67785W        W36190  42.063  37.367  13.836
67786W        W36191   3.093  10.454   4.961
67787W        W36192  23.774  38.806  13.413
67788W        W36193   7.179   1.033  13.304
67789W        W36194   8.639  13.314  11.579
67790W        W36195  17.899  36.837   1.999
67791W        W36196   3.402  43.013   1.432
67792W        W36197  41.574  16.307  14.805
67793W        W36198   9.593  39.902   0.774
67794W        W36199  10.588   4.256   2.897
67795W        W36200  43.448   4.281  11.082
67796W        W36201  17.021  15.784   4.176
67797W        W36202  32.192  16.367  13.886
67798W        W36203   7.330  30.951  12.098
67799W        W36204  34.045  41.977   4.612
67800W        W36205  37.783  34.831   4.299
67801W        W36206   3.249  39.279  11.122
67802W        W36207  35.905  14.658  12.282
67803W        W36208  12.212  29.207  11.870
67804W        W36209  13.247  15.240  12.449
67805W        W36210  34.477  11.005   1.406
67806W        W36211  12.442  13.242   1.268
67807W        W36212   4.365  35.381   0.205
67808W        W36213  28.528  16.113  12.120
67809W        W36214  41.412  17.743   1.561
67810W        W36215  29.189  11.184   2.466
67811W        W36216   0.816  14.217   4.744
67812W        W36217   5.354  16.447   1.683
67813W        W36218  34.475  39.986   0.071
67814W        W36219  33.628   0.455  12.328
67815W        W36220  12.366  29.594   1.647
67816W        W36221   6.149  11.290   1.011
67817W        W36222   5.809  27.979  14.419
67818W        W36223  12.242   1.220   3.317
67819W        W36224  43.926  14.874  11.693
67820W        W36225  37.633  25.947  14.504
67821W        W36226  20.599  14.328  11.472
67822W        W36227  30.493   6.704  11.497
67823W        W36228  32.328  41.329  12.117
67824W        W36229  23.228  31.048   4.931
67825W        W36230  21.537  24.393  11.690
67826W        W36231  23.660   5.707  14.441
67827W        W36232  18.630   7.395   0.378
67828W        W36233   1.751   8.676  14.909
67829W        W36234  25.646  36.606   2.657
67830W        W36235  29.491  23.140   0.532
67831W        W36236  10.805  28.412   5.682
67832W        W36237  21.024   1.900   3.627
67833W        W36238  41.922  17.061   1.972
67834W        W36239  23.716   9.916   2.273
67835W        W36240  10.268  29.945   3.753
67836W        W36241   3.503  11.117  14.914
67837W        W36242  28.517  36.800  11.114
67838W        W36243  27.885  14.138   3.554
67839W        W36244  33.561  10.262  13.478
67840W        W36245   3.224  38.090   1.945
67841W        W36246   7.212  12.894   4.098
67842W        W36247  26.102  27.589   3.513
67843W        W36248  12.011  26.534  12.381
67844W        W36249  30.909   3.762  11.756
67845W        W36250   2.861  25.762  14.451
67846W        W36251  23.098  10.923   4.484
67847W        W36252   2.466  26.402  14.064
67848W        W36253  20.166  35.018  13.991
67849W        W36254   8.006   1.054   9.969
67850W        W36255  22.821  16.699   9.894
67851W        W36256  39.968  13.327   4.085
67852W        W36257  15.680  33.354  11.506
67853W        W36258   4.392  43.972   0.201
67854W        W36259   2.067  26.464   4.509
67855W        W36260  27.926  22.037  11.542
67856W        W36261  30.496  30.571  10.688
67857W        W36262  43.885  10.397  11.134
67858W        W36263  34.523  11.010  10.265
67859W        W36264  40.951   7.947   1.118
67860W        W36265  33.822  17.589   2.040
67861W        W36266  36.853  21.171   2.800
67862W        W36267  42.597  28.932   3.254
67863W        W36268  24.396   1.794   4.999
67864W        W36269  17.423   6.796  10.184
67865W        W36270  27.670  18.562  12.148
67866W        W36271  31.682  35.413   1.578
67867W        W36272  40.706  25.646  12.619
67868W        W36273  39.974  17.541   3.623
67869W        W36274  38.658  44.722   3.682
67870W        W36275   2.312  22.196  12.015
67871W        W36276  39.780  16.158  11.774
67872W        W36277   0.023  12.965  11.584
67873W        W36278  15.675  30.821  11.603
67874W        W36279  37.919   2.025   3.795
67875W        W36280  44.280  23.672   0.855
67876W        W36281  28.897  20.111   3.183
67877W        W36282  25.521  13.647   2.773
67878W        W36283   2.878  16.347  12.064
67879W        W36284  18.107   3.763   4.132
67880W        W36285   9.137  43.193  13.535
67881W        W36286  41.531  23.596   0.451
67882W        W36287  40.467   8.178   2.655
67883W        W36288   1.960  40.373  11.547
67884W        W36289  18.378  11.701  11.511
67885W        W36290  30.047  26.515   2.299
67886W        W36291  14.740  24.081  12.813
67887W        W36292  38.358   9.350  12.971
67888W        W36293  22.960  10.879   0.861
67889W        W36294  22.231  19.243  13.348
67890W        W36295  43.558  22.655   2.840
67891W        W36296  43.321  19.808   5.070
67892W        W36297  30.101  32.654   0.863
67893W        W36298  35.205   3.494   1.314
67894W        W36299  37.834  13.817   2.348
67895W        W36300   2.927  33.693   0.266
67896W        W36301  21.050  18.072   4.265
67897W        W36302  12.892  18.830   2.452
67898W        W36303  26.998  33.402  11.554
67899W        W36304  12.348  40.074   1.437
67900W        W36305  44.878  10.277  12.480
67901W        W36306  43.086  38.354  14.840
67902W        W36307  44.392  28.400   1.416
67903W        W36308  12.707  35.543   0.816
67904W        W36309  33.723  41.026   4.862
67905W        W36310  25.134  17.746   0.729
67906W        W36311  12.543   3.521  13.549
67907W        W36312  37.460  35.006  13.893
67908W        W36313  32.584   2.314   2.179
67909W        W36314   7.227  19.525  12.081
67910W        W36315  33.267  30.018   4.264
67911W        W36316   7.666  31.551   0.111
67912W        W36317  33.121   4.266   2.832
67913W        W36318  25.055  43.277  11.917
67914W        W36319  34.590   0.519  14.235
67915W        W36320  43.976   0.835  14.505
67916W        W36321   0.676   8.179   0.719
67917W        W36322  13.220  23.387   1.171
67918W        W36323  15.370  10.768   4.595
67919W        W36324  22.842  16.143   4.555
67920W        W36325   0.971  30.708   4.327
67921W        W36326  32.768  12.703  14.507
67922W        W36327  42.174   1.698   0.648
67923W        W36328  23.372  42.184  11.797
67924W        W36329  31.109   6.231   1.686
67925W        W36330   0.431  35.239  13.585
67926W        W36331  19.146  15.612  13.605
67927W        W36332  29.412  35.558   1.510
67928W        W36333  15.885  31.154   5.141
67929W        W36334  24.198  22.518   3.172
67930W        W36335  34.881  27.687   1.757
67931W        W36336   7.855   4.503   0.787
67932W        W36337  21.248  21.970   3.751
67933W        W36338   1.247  33.037  11.615
67934W        W36339  26.036  25.658  13.335
67935W        W36340  25.497   1.449   4.144
67936W        W36341  36.816  39.301  11.656
67937W        W36342  43.906  42.024  11.054
67938W        W36343  32.080  26.390  14.844
67939W        W36344  20.330   5.991  14.717
67940W        W36345  28.887  32.874   1.328
67941W        W36346  26.163   7.359   1.689
67942W        W36347  28.214  28.170  10.121
67943W        W36348  36.218  28.472  14.532
67944W        W36349  44.611   1.221  13.373
67945W        W36350  10.261  30.278   5.461
67946W        W36351  16.579  13.086  12.654
67947W        W36352  32.142  28.005   3.266
67948W        W36353  27.205   6.729   0.292
67949W        W36354   4.908  29.990   0.706
67950W        W36355  42.142  10.714  12.498
67951W        W36356   1.293  17.084  13.018
67952W        W36357   0.729   9.437   0.831
67953W        W36358  39.260  24.526   3.719
67954W        W36359  36.357   1.516  11.567
67955W        W36360  42.359  29.454  13.128
67956W        W36361  13.299  19.470  10.776
67957W        W36362   4.789   9.100  14.234
67958W        W36363  32.868  35.188  14.466
67959W        W36364  26.416  11.704  11.998
67960W        W36365  11.681  20.473   4.193
67961W        W36366  26.445  17.322  10.919
67962W        W36367  12.638   8.761   2.165
67963W        W36368  14.364  31.077  13.849
67964W        W36369  15.681  17.595   2.003
67965W        W36370  27.476  20.704   2.012
67966W        W36371  32.088  12.352   1.946
67967W        W36372  21.300  43.892   0.739
67968W        W36373   0.922  39.212  14.707
67969W        W36374  32.074  26.031   4.782
67970W        W36375   2.825  10.583  12.831
67971W        W36376   5.454   5.631   0.662
67972W        W36377   4.456   8.266   4.159
67973W        W36378  25.043  13.097   3.118
67974W        W36379  11.625  31.299  11.959
67975W        W36380  11.634  14.315  11.049
67976W        W36381  24.520  39.567  14.532
67977W        W36382  13.715  37.860  14.959
67978W        W36383  29.061  33.517   0.707
67979W        W36384   7.712  12.323  11.569
67980W        W36385   2.042  31.071  13.818
67981W        W36386  17.714  31.799  12.651
67982W        W36387  14.733  25.509   0.708
67983W        W36388   5.766   6.870  12.510
67984W        W36389  42.127  33.917   2.349
67985W        W36390  10.553  13.251   4.789
67986W        W36391  20.505  32.899   0.578
67987W        W36392  37.439  27.147  14.785
67988W        W36393   4.711   6.851   1.842
67989W        W36394   8.945  30.335   5.393
67990W        W36395  18.580  27.581  11.532
67991W        W36396  37.344  37.509  13.992
67992W        W36397   2.912  35.530   3.258
67993W        W36398  40.937  13.011  12.889
67994W        W36399  19.006  34.887  14.786
67995W        W36400   2.178  31.307  13.100
67996W        W36401  19.621  19.970  14.328
67997W        W36402  19.276   6.764  13.320
67998W        W36403  20.215  19.905   3.654
67999W        W36404  16.196  16.092   1.071
68000W        W36405   5.057  35.124  11.014
68001W        W36406  16.296   0.242  11.123
68002W        W36407  17.589  34.510   3.656
68003W        W36408  22.573   3.399  14.543
68004W        W36409  34.755   4.905   5.047
68005W        W36410   5.614   3.883   3.318
68006W        W36411  22.213  19.954   2.638
68007W        W36412  20.532  17.502   4.534
68008W        W36413  12.301  30.536  10.114
68009W        W36414  24.140  30.037  12.523
68010W        W36415  26.488  25.413   3.797
68011W        W36416  43.372  29.198   0.089
68012W        W36417  39.119  37.961  14.961
68013W        W36418   8.171   3.204  12.888
68014W        W36419  20.830  31.843  13.869
68015W        W36420  24.724  37.565  12.934
68016W        W36421  34.698  14.344  10.768
68017W        W36422  23.732   7.918  13.926
68018W        W36423  19.752   1.567   0.259
68019W        W36424  16.278  21.022   3.130
68020W        W36425  13.116  10.636   3.295
68021W        W36426   9.913  21.175   4.156
68022W        W36427  10.294  26.000   2.125
68023W        W36428  16.287  44.760  11.296
68024W        W36429   7.891  17.725  11.052
68025W        W36430  29.164  39.409   0.055
68026W        W36431  13.260   9.862  14.728
68027W        W36432  26.804   0.464   5.288
68028W        W36433  33.157  16.026   4.091
68029W        W36434  37.817  41.788   0.347
68030W        W36435  16.673  36.062   2.813
68031W        W36436  17.524  23.343  14.766
68032W        W36437  43.242  28.320  11.930
68033W        W36438   1.188   1.330  11.999
68034W        W36439   1.903   2.695  11.216
68035W        W36440   6.674  33.403  11.178
68036W        W36441   0.205   2.842  11.932
68037W        W36442  16.767  29.886  13.425
68038W        W36443   0.885  20.259   3.036
68039W        W36444  12.158  33.881   4.367
68040W        W36445   3.326  17.809  13.371
68041W        W36446  26.182  44.869  12.553
68042W        W36447   1.562  40.822   1.346
68043W        W36448   5.806   7.489   3.080
68044W        W36449   2.056  29.949   3.635
68045W        W36450  38.127  32.470  12.933
68046W        W36451  28.643   2.694   2.899
68047W        W36452  20.441  18.781  12.609
68048W        W36453  24.595   3.194   1.991
68049W        W36454  19.044  19.280   3.890
68050W        W36455  10.056  30.513   4.641
68051W        W36456   0.534  39.486  14.936
68052W        W36457  21.460  33.910   1.271
68053W        W36458  21.202  19.855  10.571
68054W        W36459  20.879  17.605  10.831
68055W        W36460   5.275  17.300  12.683
68056W        W36461  12.341  40.347   4.635
68057W        W36462  34.602  39.042   2.838
68058W        W36463  33.072   7.487   1.969
68059W        W36464  44.453  29.464  12.563
68060W        W36465  28.224  35.079   2.766
68061W        W36466  10.911  29.367  13.528
68062W        W36467  24.260  18.804   1.794
68063W        W36468   8.213  32.475  14.879
68064W        W36469  35.814   0.908   3.680
68065W        W36470  30.097  15.960   2.256
68066W        W36471   5.841  14.876  11.563
68067W        W36472   7.690  36.898  13.428
68068W        W36473  13.325  14.554   3.131
68069W        W36474  30.359  42.459  13.851
68070W        W36475  39.507  16.779   4.140
68071W        W36476  40.371  11.409  14.343
68072W        W36477  27.999   3.015   4.219
68073W        W36478   3.742   9.365   0.378
68074W        W36479  11.379   0.923  14.974
68075W        W36480  18.400  17.541   0.482
68076W        W36481   9.210  25.227  11.581
68077W        W36482  19.672  27.952  12.095
68078W        W36483  39.437  42.881  11.109
68079W        W36484  40.459  39.726  12.432
68080W        W36485  23.532   3.983  11.991
68081W        W36486  34.598  24.281  10.624
68082W        W36487  11.340   0.208   4.805
68083W        W36488  20.732  23.604   1.342
68084W        W36489  14.276  16.647  14.760
68085W        W36490  31.470  44.162  13.941
68086W        W36491  19.980  44.133   5.154
68087W        W36492  24.477  25.982   3.684
68088W        W36493  41.464  13.411  11.285
68089W        W36494  19.028  35.851  11.873
68090W        W36495  43.708   8.665   4.506
68091W        W36496  33.587   8.285   3.878
68092W        W36497   6.761  23.025  13.518
68093W        W36498  11.657  29.781   9.989
68094W        W36499  32.195  37.618  13.381
68095W        W36500   7.386   1.261  12.908
68096W        W36501  11.755  34.663   3.996
68097W        W36502  24.418   3.330   4.187
68098W        W36503   9.736  21.621  14.993
68099W        W36504  27.494  25.038   3.102
68100W        W36505  22.599   3.849   2.136
68101W        W36506  21.005  22.643   2.670
68102W        W36507  16.840  13.910   0.031
68103W        W36508  30.893  21.133   0.267
68104W        W36509  13.339  41.772  14.810
68105W        W36510  36.477  19.374  11.615
68106W        W36511  20.144  32.821   4.281
68107W        W36512   2.273   3.024   1.873
68108W        W36513  40.145  42.959   3.707
68109W        W36514   0.951  26.560   3.314
68110W        W36515   0.820  32.171  13.819
68111W        W36516  40.006  38.168  11.924
68112W        W36517  29.535  38.080   4.252
68113W        W36518  23.270  37.946   2.792
68114W        W36519  31.051  32.105   3.373
68115W        W36520  33.526  26.723  13.356
68116W        W36521  11.826  13.191  11.949
68117W        W36522   8.128   3.083  10.806
68118W        W36523  23.781  21.503   0.231
68119W        W36524  24.555  28.385  12.088
68120W        W36525  44.508  35.090  13.949
68121W        W36526   3.453  30.104  13.588
68122W        W36527   4.660   3.001   0.396
68123W        W36528  37.227  36.337  14.904
68124W        W36529   7.304  11.167   0.265
68125W        W36530  43.977  28.479   1.713
68126W        W36531   9.365  15.835  11.208
68127W        W36532  33.411  27.031  12.936
68128W        W36533  23.110  27.251   1.683
68129W        W36534   0.211  38.570  11.741
68130W        W36535  26.565  41.926   0.303
68131W        W36536  12.302  17.825   0.874
68132W        W36537  30.178  16.591   4.433
68133W        W36538  21.718   6.376   4.853
68134W        W36539   9.713  38.539   2.656
68135W        W36540  40.466  29.103  13.030
68136W        W36541  15.640  21.748   3.822
68137W        W36542  37.511  32.890  12.589
68138W        W36543   0.779  35.402  12.320
68139W        W36544   2.255  18.859  10.698
68140W        W36545  22.745  14.390  12.936
68141W        W36546  41.677  28.959  11.674
68142W        W36547  16.143   2.303  11.478
68143W        W36548  41.082  34.391   0.793
68144W        W36549  44.273  22.659   3.441
68145W        W36550  33.996  34.960   3.449
68146W        W36551  39.408  18.743  10.625
68147W        W36552  20.162  27.134   0.804
68148W        W36553  31.036   9.816   3.357
68149W        W36554   6.757  19.528   1.285
68150W        W36555  40.768  43.894  12.073
68151W        W36556  20.000  15.236   2.579
68152W        W36557  19.677  36.427  11.562
68153W        W36558  11.635   6.213  14.993
68154W        W36559  11.965  21.707   2.917
68155W        W36560  13.169  23.302   2.975
68156W        W36561   0.900  27.298   2.409
68157W        W36562  21.523  19.818   4.637
68158W        W36563  41.027  34.587   0.312
68159W        W36564  21.750  29.404  11.592
68160W        W36565  23.026  12.778   4.240
68161W        W36566  24.459  37.494   2.778
68162W        W36567  44.463  41.045  12.555
68163W        W36568  32.661   6.497   3.234
68164W        W36569   1.451  16.842  10.795
68165W        W36570  21.974  29.566   3.613
68166W        W36571  23.981  41.744   2.169
68167W        W36572  25.785   2.606  12.578
68168W        W36573  43.800   3.618   0.833
68169W        W36574  12.297   7.291  13.827
68170W        W36575  43.318   7.745   3.727
68171W        W36576  29.967  37.046   0.229
68172W        W36577  17.569  36.350   0.100
68173W        W36578  31.419  18.308   3.749
68174W        W36579  12.213  29.611  14.967
68175W        W36580  38.720  42.987   4.099
68176W        W36581  17.068  42.814  14.956
68177W        W36582   6.910  35.938  11.633
68178W        W36583   9.796  11.371  13.403
68179W        W36584  31.701  25.094  11.675
68180W        W36585  30.314  35.833  13.616
68181W        W36586  12.628  15.923  10.266
68182W        W36587   8.787  17.201   1.864
68183W        W36588  40.967  18.416   4.104
68184W        W36589  23.664  38.021  13.844
68185W        W36590  12.592   4.257   4.633
68186W        W36591  14.195  39.871  11.094
68187W        W36592  20.689  35.138   1.800
68188W        W36593  27.928   4.065   0.193
68189W        W36594   9.211  39.290  13.054
68190W        W36595  15.323   9.870  10.654
68191W        W36596  28.026  31.549  12.872
68192W        W36597  32.994   5.468   0.594
68193W        W36598  29.239  16.207   1.716
68194W        W36599   7.865  38.850  13.386
68195W        W36600   5.364  42.338   4.479
68196W        W36601  27.086  34.894   4.290
68197W        W36602  24.915  37.493   3.674
68198W        W36603   7.965   6.833  12.009
68199W        W36604  21.386  39.961   4.522
68200W        W36605   4.208  18.664   4.470
68201W        W36606  15.298  30.399   2.448
68202W        W36607  24.320   8.840   3.191
68203W        W36608  43.527   2.955  10.764
68204W        W36609  12.871  35.058  13.242
68205W        W36610  38.338  38.920   0.376
68206W        W36611  18.901  36.901  14.447
68207W        W36612   9.678  40.332  13.320
68208W        W36613  25.579   0.980   3.280
68209W        W36614  43.971  31.926  13.065
68210W        W36615  42.230  23.566   2.166
68211W        W36616  19.778  37.782   3.749
68212W        W36617   0.711  28.569  13.817
68213W        W36618   7.902  26.435  12.556
68214W        W36619  23.567  43.378   1.851
68215W        W36620  40.757   8.800   2.630
68216W        W36621   6.761  24.526  13.503
68217W        W36622   5.224  16.821   4.856
68218W        W36623  33.534  31.015   2.649
68219W        W36624  29.729   9.048  11.101
68220W        W36625  43.992  32.606  10.715
68221W        W36626  26.526   0.597   4.901
68222W        W36627  33.792   7.914  13.846
68223W        W36628  44.477   6.441  14.072
68224W        W36629  35.070  13.983  10.831
68225W        W36630   6.267  34.961  13.336
68226W        W36631  24.266   0.955   4.609
68227W        W36632  40.405  17.999  14.742
68228W        W36633  38.674  37.049   4.732
68229W        W36634  44.128  34.666   4.104
68230W        W36635  28.949  16.143  10.450
68231W        W36636  44.003   3.061  13.346
68232W        W36637  35.892  38.066  13.518
68233W        W36638  12.410  36.939   2.489
68234W        W36639   5.691  28.923  11.034
68235W        W36640  43.029  20.790   0.756
68236W        W36641  23.177   1.427   3.083
68237W        W36642  44.520  32.450   3.179
68238W        W36643  14.002  15.824  13.355
68239W        W36644  10.730  24.961   1.391
68240W        W36645  10.323  28.822   4.430
68241W        W36646  34.934   3.487  12.897
68242W        W36647  40.467  13.738   1.954
68243W        W36648  27.468  23.515  13.852
68244W        W36649  35.664  10.255   4.060
68245W        W36650   9.210   6.229  11.513
68246W        W36651  38.715  13.125   1.831
68247W        W36652  42.772  41.011   0.882
68248W        W36653   9.379  27.172  12.847
68249W        W36654  25.408  33.899  13.327
68250W        W36655  32.373  10.262   3.726
68251W        W36656  20.271  11.853  12.578
68252W        W36657  19.833   2.716  14.458
68253W        W36658  10.318  12.142  12.515
68254W        W36659  33.521  17.243   2.312
68255W        W36660  14.392  24.094   0.441
68256W        W36661  17.704  36.431  14.088
68257W        W36662  40.828  23.401  13.536
68258W        W36663  30.406  20.253   4.144
68259W        W36664  18.530  30.639  10.785
68260W        W36665  31.323  26.442   4.746
68261W        W36666   8.742  10.695  13.616
68262W        W36667  40.213  16.833   1.204
68263W        W36668  13.345  28.611  11.422
68264W        W36669   6.237  33.928  10.536
68265W        W36670  12.224   9.021  14.816
68266W        W36671  12.123   6.475   3.335
68267W        W36672   5.481  19.587   2.586
68268W        W36673  24.319  16.881   4.988
68269W        W36674  23.503  14.898  14.003
68270W        W36675  12.300  21.777   2.516
68271W        W36676   3.726  43.603   4.202
68272W        W36677  34.113  37.310  13.096
68273W        W36678  17.287  22.708  13.619
68274W        W36679  32.585   1.007   3.215
68275W        W36680  14.553  38.543  12.327
68276W        W36681  44.888  27.686  10.774
68277W        W36682  33.105  37.286  12.092
68278W        W36683  20.911  37.781  13.481
68279W        W36684  40.751   5.978  12.214
68280W        W36685  21.938  36.898   0.907
68281W        W36686  34.543  39.306  12.791
68282W        W36687  10.422  31.759  11.183
68283W        W36688  33.850  12.614  11.492
68284W        W36689  17.519  25.313   2.561
68285W        W36690  19.739  40.362  10.546
68286W        W36691  17.103  17.445  14.973
68287W        W36692  44.917  19.669   1.209
68288W        W36693  11.050  33.840  11.584
68289W        W36694  14.270  14.611  12.894
68290W        W36695  23.765   7.833   0.373
68291W        W36696   7.368  36.141  11.564
68292W        W36697  44.938  19.602   1.726
68293W        W36698   0.714  10.666   4.113
68294W        W36699  24.034  39.850  10.505
68295W        W36700  11.771  14.075   4.532
68296W        W36701  28.499   7.677   3.656
68297W        W36702  15.134  10.720  10.656
68298W        W36703   7.304  11.406   3.179
68299W        W36704   2.034   4.603  13.403
68300W        W36705   7.911   7.771  10.961
68301W        W36706   3.294  24.997   4.077
68302W        W36707  24.677   7.068   0.808
68303W        W36708   3.584  38.253  13.962
68304W        W36709  28.458  36.008   4.837
68305W        W36710  34.019  15.769   3.076
68306W        W36711  27.274  39.757   4.153
68307W        W36712  16.375  14.692   1.444
68308W        W36713   5.335  11.292  11.957
68309W        W36714  20.281  33.019   1.420
68310W        W36715  21.538  22.599   3.258
68311W        W36716   3.703  42.768  12.348
68312W        W36717  34.960  12.058  14.915
68313W        W36718  31.027  14.897   0.448
68314W        W36719  16.769   5.465   0.807
68315W        W36720  11.937   8.664  13.956
68316W        W36721  19.209  32.621  13.484
68317W        W36722  26.102  24.619   0.969
68318W        W36723  41.188  40.368  10.656
68319W        W36724  39.813   8.873  13.359
68320W        W36725  16.283   5.435  13.801
68321W        W36726  33.210  18.167  11.164
68322W        W36727  26.643   6.250  11.472
68323W        W36728   9.257  43.573   1.277
68324W        W36729  37.860   7.205   3.438
68325W        W36730   1.364   8.447   4.319
68326W        W36731  20.062  44.059   3.808
68327W        W36732   9.160  11.432  13.960
68328W        W36733  40.334  16.690   2.863
68329W        W36734  11.371  44.436   3.605
68330W        W36735   2.793  30.445   2.814
68331W        W36736  22.447  30.527  14.690
68332W        W36737  10.146  27.050   3.508
68333W        W36738  35.019  30.251  14.946
68334W        W36739  10.555  40.961  11.977
68335W        W36740   7.104  13.149   4.543
68336W        W36741  26.994  27.535  12.070
68337W        W36742  19.012  38.447  13.014
68338W        W36743  44.382  37.727   4.185
68339W        W36744   3.759  32.208   1.338
68340W        W36745  19.453  11.685   1.396
68341W        W36746  32.686   5.757   2.369
68342W        W36747  23.477  17.280   2.378
68343W        W36748  35.881  10.183   3.030
68344W        W36749   8.813   8.397  14.055
68345W        W36750  12.827   2.214  10.736
68346W        W36751  43.280  30.714   2.951
68347W        W36752   3.022  26.533   0.399
68348W        W36753  28.165  31.421   1.358
68349W        W36754  24.186   3.186  12.887
68350W        W36755  30.375  36.704   2.256
68351W        W36756  33.790  25.019  12.373
68352W        W36757  21.565  33.518   0.092
68353W        W36758  17.003  35.669   1.932
68354W        W36759  29.508   4.427  12.998
68355W        W36760  36.123  20.830  14.471
68356W        W36761  16.559  21.202  13.015
68357W        W36762  23.996  17.528   4.560
68358W        W36763  41.941  42.498  12.130
68359W        W36764  39.364  12.321  14.501
68360W        W36765  35.303  19.314   4.702
68361W        W36766  33.100  10.278  11.106
68362W        W36767  20.463  22.946   4.464
68363W        W36768   0.891  37.589  13.816
68364W        W36769  12.533  14.650  11.376
68365W        W36770  18.581  31.602  11.237
68366W        W36771  38.202  41.756   2.429
68367W        W36772  28.448  32.419   2.000
68368W        W36773  20.768  35.436   3.646
68369W        W36774  12.921  29.023  13.103
68370W        W36775   1.694  32.604  11.521
68371W        W36776  13.394   2.459  13.286
68372W        W36777  44.581  11.771   2.950
68373W        W36778   7.107   9.710   3.275
68374W        W36779  23.714   3.700   4.114
68375W        W36780  38.898  43.511  13.312
68376W        W36781  22.660   5.627   2.603
68377W        W36782  23.315   0.675   0.338
68378W        W36783   1.104  26.142   1.270
68379W        W36784  22.142  30.839   0.384
68380W        W36785  34.071  23.923   0.689
68381W        W36786  10.214  18.299   3.636
68382W        W36787  38.409  33.124   4.152
68383W        W36788  28.879  42.230  13.915
68384W        W36789  12.759  14.660  13.042
68385W        W36790  41.521   5.328  11.554
68386W        W36791  35.468  37.919  13.267
68387W        W36792  18.127  11.276   0.735
68388W        W36793  17.598   0.385  14.498
68389W        W36794  28.097  26.553  13.962
68390W        W36795  35.030  41.072   9.846
68391W        W36796  15.711  33.372  13.596
68392W        W36797  21.108  23.725   5.251
68393W        W36798  18.698  10.126   2.374
68394W        W36799  33.721  36.413  11.679
68395W        W36800   1.376  25.090   0.049
68396W        W36801  30.614  24.191  11.601
68397W        W36802   4.227  42.408  13.453
68398W        W36803  36.162  36.373   0.638
68399W        W36804  39.182  43.530  11.523
68400W        W36805  30.057   9.829   1.890
68401W        W36806  42.248  25.642  12.440
68402W        W36807  32.463  18.075   1.201
68403W        W36808   9.245  30.874  10.286
68404W        W36809  31.208   7.270   3.749
68405W        W36810  30.240   9.188  11.093
68406W        W36811  17.546  32.025   4.592
68407W        W36812   7.796  17.558   2.691
68408W        W36813  32.541   7.599   1.990
68409W        W36814  37.529  36.860   0.291
68410W        W36815  12.695   0.821   0.436
68411W        W36816   9.176  35.397  14.925
68412W        W36817  34.372   2.310  14.746
68413W        W36818  22.221  23.987   2.289
68414W        W36819   4.196  19.819   0.372
68415W        W36820  29.350  25.710   1.913
68416W        W36821  35.343  10.866   0.518
68417W        W36822   8.700  41.941  12.169
68418W        W36823  43.201  27.697   3.555
68419W        W36824   8.640  17.593  10.722
68420W        W36825  28.935  43.956  13.391
68421W        W36826  42.418  22.075  13.450
68422W        W36827  31.922  12.595  13.400
68423W        W36828   1.362   1.904   3.810
68424W        W36829  26.016  29.882   4.119
68425W        W36830  15.811  14.216  13.484
68426W        W36831  11.994  24.033   4.060
68427W        W36832  38.384  16.228   3.424
68428W        W36833  33.467  33.053   3.322
68429W        W36834  31.973  44.013  12.155
68430W        W36835  41.074  14.158   1.682
68431W        W36836  30.928  20.785  12.043
68432W        W36837  31.411  22.673  11.220
68433W        W36838  30.122  44.655   2.771
68434W        W36839   8.134  33.592   1.921
68435W        W36840  22.431  39.041  10.238
68436W        W36841   4.791  36.615  10.603
68437W        W36842  39.943  21.217   1.563
68438W        W36843  16.649   6.288   1.553
68439W        W36844  35.298   9.593   2.175
68440W        W36845  25.004  11.238   1.854
68441W        W36846  12.581  32.477   2.492
68442W        W36847  11.449  14.800  14.384
68443W        W36848   6.360  24.127   2.252
68444W        W36849  24.198   2.756  12.065
68445W        W36850  38.266  39.519   0.742
68446W        W36851  31.543   5.491  10.691
68447W        W36852  17.117  17.641  10.437
68448W        W36853  35.059   5.471   2.307
68449W        W36854  18.342  33.086  14.826
68450W        W36855   4.136  27.553   0.485
68451W        W36856  42.155  29.627  12.700
68452W        W36857  15.116   7.076  11.191
68453W        W36858  16.062  28.490   3.610
68454W        W36859  34.489  44.262  14.056
68455W        W36860  15.172  24.033   2.752
68456W        W36861  35.043   9.686   1.208
68457W        W36862  36.017  19.197   3.161
68458W        W36863  40.529  25.647  14.497
68459W        W36864   9.049  26.336  14.916
68460W        W36865   2.982  30.093   0.385
68461W        W36866   3.865  25.047   3.727
68462W        W36867  35.989   6.488  14.833
68463W        W36868  32.439  40.531   2.568
68464W        W36869  35.080  29.442  12.909
68465W        W36870   5.928  25.368   0.013
68466W        W36871  24.184   4.357   1.190
68467W        W36872  12.080   5.207   1.314
68468W        W36873  10.565  14.643  11.061
68469W        W36874  39.946  21.009  10.942
68470W        W36875  28.953   2.954   0.942
68471W        W36876  35.627   1.739   0.390
68472W        W36877  17.742  22.760  11.782
68473W        W36878  23.491  44.745  14.385
68474W        W36879  26.166  32.418   4.507
68475W        W36880  13.618  17.930   0.828
68476W        W36881  37.381  34.741  11.330
68477W        W36882  21.779  21.106   5.145
68478W        W36883  16.170  24.796   3.103
68479W        W36884  14.768  36.195  12.535
68480W        W36885  35.296  44.285  10.990
68481W        W36886   0.969  16.096  13.764
68482W        W36887  14.865  23.592   1.884
68483W        W36888  28.626  37.758   9.880
68484W        W36889  43.947   1.480  12.464
68485W        W36890  28.152   2.382  11.256
68486W        W36891  13.558   1.423   0.301
68487W        W36892  20.230   7.981   4.277
68488W        W36893  24.238  43.856  14.735
68489W        W36894   8.680  21.493   3.637
68490W        W36895  31.410  35.581  10.781
68491W        W36896  15.331   7.847  13.906
68492W        W36897  18.189  10.342   0.928
68493W        W36898  17.811   5.278  13.101
68494W        W36899  33.503   3.166   0.400
68495W        W36900  30.450  11.835   3.088
68496W        W36901  21.823  21.271  12.586
68497W        W36902  23.857  31.558   1.359
68498W        W36903  43.341  40.998   2.197
68499W        W36904  33.201  19.439  14.367
68500W        W36905  26.037  15.864  12.412
68501W        W36906  39.243  29.086   1.740
68502W        W36907  23.274  19.822  13.325
68503W        W36908  32.619  19.599   4.593
68504W        W36909  44.956  13.729  12.363
68505W        W36910  11.617  34.129   1.003
68506W        W36911  41.373  37.957   0.321
68507W        W36912   7.835  23.220  11.587
68508W        W36913  37.415  24.253   1.777
68509W        W36914  26.107   5.250  12.441
68510W        W36915  38.190  18.900   4.175
68511W        W36916  40.185  41.266   1.732
68512W        W36917  14.164  15.199  12.657
68513W        W36918  22.016  16.821  12.131
68514W        W36919  15.746   6.186  11.405
68515W        W36920  29.583  21.256   3.422
68516W        W36921  39.432  11.602   3.661
68517W        W36922  22.186  13.118  14.371
68518W        W36923  43.217  33.312   0.881
68519W        W36924  34.841  11.676   4.636
68520W        W36925  20.251  39.522  14.636
68521W        W36926  31.617  23.634   2.827
68522W        W36927   9.915  27.381  10.160
68523W        W36928  32.649   4.879  11.583
68524W        W36929  44.421  21.633  14.310
68525W        W36930  37.539  42.960   4.887
68526W        W36931   9.675  21.705   4.151
68527W        W36932  44.853  35.450  11.061
68528W        W36933  10.106  35.881   2.885
68529W        W36934  41.054  10.335   1.087
68530W        W36935  10.417  34.814  11.009
68531W        W36936  41.395  25.688  14.366
68532W        W36937  29.621  22.458   1.212
68533W        W36938  28.492   8.554  12.443
68534W        W36939  25.110  31.826   4.609
68535W        W36940  14.073  12.654   1.076
68536W        W36941  35.560  30.475  13.167
68537W        W36942  44.696  17.201   5.115
68538W        W36943  16.557  40.458   3.092
68539W        W36944  16.253  11.177   1.999
68540W        W36945  42.409  39.968  13.075
68541W        W36946   7.270  13.319  14.771
68542W        W36947  29.121  23.302  13.841
68543W        W36948  11.539   1.685   2.272
68544W        W36949   8.739  35.315  12.579
68545W        W36950  19.001  35.915  11.331
68546W        W36951  24.757  41.218  10.542
68547W        W36952  35.890  31.503   3.041
68548W        W36953   5.718  16.157  14.430
68549W        W36954  18.614  17.739  11.879
68550W        W36955  20.145  44.602  13.549
68551W        W36956  19.690  39.925   0.368
68552W        W36957  10.494  40.023  11.991
68553W        W36958  16.079  12.436  14.409
68554W        W36959  32.028  41.372  11.149
68555W        W36960   0.768   9.218   3.213
68556W        W36961  28.562  37.265  14.739
68557W        W36962  10.658  33.125   0.299
68558W        W36963  28.414   3.828   1.924
68559W        W36964  21.608  12.139   4.785
68560W        W36965  36.232  43.288   4.647
68561W        W36966  33.732  31.780   5.019
68562W        W36967   1.802  25.764  14.504
68563W        W36968  23.050  41.952   3.862
68564W        W36969  26.144   9.721  14.370
68565W        W36970  29.537  29.413  12.659
68566W        W36971  38.296  39.353   2.791
68567W        W36972  44.376  13.718   3.148
68568W        W36973  21.572   6.120   1.845
68569W        W36974  20.022  12.574  14.080
68570W        W36975  18.211  44.368   2.835
68571W        W36976   0.515   4.074   4.136
68572W        W36977  33.173  14.260  10.659
68573W        W36978  34.511  15.298  10.601
68574W        W36979   0.375   1.931  11.495
68575W        W36980  18.825  23.469  12.548
68576W        W36981  36.861  29.971   4.753
68577W        W36982  37.515  32.914   2.177
68578W        W36983  12.862  42.990  13.013
68579W        W36984  19.376  25.221  12.452
68580W        W36985  14.253  40.494   1.515
68581W        W36986  42.398  27.452   2.584
68582W        W36987  27.668  27.607   2.297
68583W        W36988  25.171  39.854   1.120
68584W        W36989  17.024  18.040   2.285
68585W        W36990  33.465  11.494  11.142
68586W        W36991  30.647  19.079   0.206
68587W        W36992  22.586  33.123  11.673
68588W        W36993  37.908   0.456  14.764
68589W        W36994  14.771   0.719   1.798
68590W        W36995   6.580  33.449   4.900
68591W        W36996  32.982   5.307  13.979
68592W        W36997  15.666  37.066  11.993
68593W        W36998  42.907  13.684   0.381
68594W        W36999  28.015  38.688   9.772
68595W        W37000  42.955  40.354   1.364
68596W        W37001  29.791  39.131   4.899
68597W        W37002  32.612  27.856  10.469
68598W        W37003   5.642   5.849  14.733
68599W        W37004  40.807  18.300  11.631
68600W        W37005  42.106  18.018  10.506
68601W        W37006   2.144  41.412   1.792
68602W        W37007  28.672  12.760  11.885
68603W        W37008  28.051  44.229   0.870
68604W        W37009  29.734  44.573   3.683
68605W        W37010   5.758  19.178   2.359
68606W        W37011   3.803  30.257  14.936
68607W        W37012  18.504  20.720   4.743
68608W        W37013  14.326   5.766   0.045
68609W        W37014  17.416  39.343  11.864
68610W        W37015  16.192  27.084   4.539
68611W        W37016  12.365   2.256  13.051
68612W        W37017   5.689   1.286  13.997
68613W        W37018  42.101  42.127  13.581
68614W        W37019  15.222  29.077  13.097
68615W        W37020  39.836  17.617  13.331
68616W        W37021  41.761  29.869  13.024
68617W        W37022  32.679  13.380  12.427
68618W        W37023  32.184   8.278  12.626
68619W        W37024  32.611  43.740  12.982
68620W        W37025   8.891  44.233   2.815
68621W        W37026  41.275   6.942   2.471
68622W        W37027  14.825  30.194  13.613
68623W        W37028   2.625  39.581   2.744
68624W        W37029  21.621  23.561   1.864
68625W        W37030  19.121  15.227   2.938
68626W        W37031  28.665  42.467   4.529
68627W        W37032  27.056  33.403  12.472
68628W        W37033  10.481  12.553  10.458
68629W        W37034  35.265  44.050   3.661
68630W        W37035   1.764  42.032  13.844
68631W        W37036  14.739  31.340  12.607
68632W        W37037  37.444  34.114  12.524
68633W        W37038  44.854  29.215   2.741
68634W        W37039  29.538  35.097   2.208
68635W        W37040  17.285  23.790   0.294
68636W        W37041  19.980   7.685   4.616
68637W        W37042  13.907  31.457  12.436
68638W        W37043  36.914  19.069  11.587
68639W        W37044  43.805  36.527  13.411
68640W        W37045  14.043  12.936  10.362
68641W        W37046  11.712   1.561  13.032
68642W        W37047  27.054  11.596   3.251
68643W        W37048   0.291  31.349   3.221
68644W        W37049  35.441  22.354  13.134
68645W        W37050  41.336  25.674  10.758
68646W        W37051  18.475  42.917   2.859
68647W        W37052  12.258  42.132   4.082
68648W        W37053   9.755  24.594   2.208
68649W        W37054  27.214  10.616  12.934
68650W        W37055  35.521  31.880  11.269
68651W        W37056  11.132  17.249   4.569
68652W        W37057  25.634  30.872   2.389
68653W        W37058   5.748  24.227   1.015
68654W        W37059  21.733  16.833  10.770
68655W        W37060   2.822  19.310  12.128
68656W        W37061  42.803  24.904  14.308
68657W        W37062  13.293   2.724   3.692
68658W        W37063  30.181   3.233   3.955
68659W        W37064  34.452   3.404  13.437
68660W        W37065   9.226  35.441   3.924
68661W        W37066  25.874  40.063   5.420
68662W        W37067  29.995  38.365   2.068
68663W        W37068  28.628  39.563   0.251
68664W        W37069  22.437  18.061   2.493
68665W        W37070  44.817   8.257   1.876
68666W        W37071  27.465  21.681   2.261
68667W        W37072   8.635   5.060   3.725
68668W        W37073  37.301  33.499   4.129
68669W        W37074   6.940  10.964   2.299
68670W        W37075  17.524  22.284   4.432
68671W        W37076  15.652  33.652   1.012
68672W        W37077   9.241  17.332   3.771
68673W        W37078  10.221  12.204   1.700
68674W        W37079  18.017  26.258   2.432
68675W        W37080  24.965  26.509  12.401
68676W        W37081  13.400  33.919   9.885
68677W        W37082  31.084   9.799   4.367
68678W        W37083  40.836  14.731  13.453
68679W        W37084   3.997  18.205   2.800
68680W        W37085  25.718  40.296   1.859
68681W        W37086  37.476  31.364  14.358
68682W        W37087   4.506  33.906   2.163
68683W        W37088   8.798  19.536   2.113
68684W        W37089   0.347  37.962  13.606
68685W        W37090   5.424  38.409  11.431
68686W        W37091  30.940  19.843   1.784
68687W        W37092  16.386   0.431  14.939
68688W        W37093  11.871   0.949  13.635
68689W        W37094   1.458   0.269   3.664
68690W        W37095  17.955  15.310  14.371
68691W        W37096  20.260  20.963  13.812
68692W        W37097   6.800  41.331  14.942
68693W        W37098  28.112  22.470   0.270
68694W        W37099  42.995   0.475  12.040
68695W        W37100  15.322  30.950   2.811
68696W        W37101   5.156  22.640   2.026
68697W        W37102  14.026   5.494   2.586
68698W        W37103  34.087  24.957  14.271
68699W        W37104   3.226  34.615  12.850
68700W        W37105  13.879  10.648   1.313
68701W        W37106   4.222  31.691  11.379
68702W        W37107  17.580  36.829   2.402
68703W        W37108  16.309  44.387  10.665
68704W        W37109   2.866  38.486   1.852
68705W        W37110  38.996  30.692   3.070
68706W        W37111  11.171   2.864   2.318
68707W        W37112  40.984   5.032   1.801
68708W        W37113  34.957  15.050  14.858
68709W        W37114  39.758  38.354   3.094
68710W        W37115  37.951   1.908   1.961
68711W        W37116   0.989  14.806  13.599
68712W        W37117  22.311  11.220  14.935
68713W        W37118  42.853  13.933  12.000
68714W        W37119  35.464  15.381  13.462
68715W        W37120  22.047  13.354  13.896
68716W        W37121  16.375   9.737   2.985
68717W        W37122  24.047   6.943  11.286
68718W        W37123  12.997  15.771   0.876
68719W        W37124  11.843   5.176  12.959
68720W        W37125  18.367  30.048   3.784
68721W        W37126   5.636  44.203  12.882
68722W        W37127   6.527  21.926  11.071
68723W        W37128  43.300   1.922  13.515
68724W        W37129  30.759   0.899   2.669
68725W        W37130  13.943  22.269  10.176
68726W        W37131   6.385  40.723   1.261
68727W        W37132  21.039  22.330   0.235
68728W        W37133   5.416  22.698   2.941
68729W        W37134  38.788  16.626   0.496
68730W        W37135  10.383  23.589   1.959
68731W        W37136  11.637  16.662   0.194
68732W        W37137  36.882   5.786  12.990
68733W        W37138  41.472  31.982  13.521
68734W        W37139   0.747  28.158  10.061
68735W        W37140  24.480  43.859   1.482
68736W        W37141  11.375  44.217  12.421
68737W        W37142  16.389  21.091  11.063
68738W        W37143  23.158  15.573  14.271
68739W        W37144  32.091  13.060   3.700
68740W        W37145  38.291  18.436   2.839
68741W        W37146  26.714  14.369   0.930
68742W        W37147   8.222  21.503   4.620
68743W        W37148   7.887  28.057  13.337
68744W        W37149  23.837  44.481   2.398
68745W        W37150  28.100  30.724  14.828
68746W        W37151  16.256  42.135   2.261
68747W        W37152  36.639  44.014  14.416
68748W        W37153   3.876  12.790   4.310
68749W        W37154  34.812  21.634  11.466
68750W        W37155  10.376  27.458  12.262
68751W        W37156  16.616  39.849   0.886
68752W        W37157  34.044  11.653  14.581
68753W        W37158  21.246   6.279  12.064
68754W        W37159  31.956  35.484  11.718
68755W        W37160  29.985   3.889  12.052
68756W        W37161  32.361  31.559   0.679
68757W        W37162   5.257   9.680  13.057
68758W        W37163  33.327  20.795   3.312
68759W        W37164   7.754  25.043   2.001
68760W        W37165   2.427  37.957  11.872
68761W        W37166  13.368  36.832   3.154
68762W        W37167  37.450  36.353   0.374
68763W        W37168  29.645  10.963   1.868
68764W        W37169  35.899  15.784   3.416
68765W        W37170  22.756  18.029  12.846
68766W        W37171  42.524  41.889  14.406
68767W        W37172  38.943   3.495   2.245
68768W        W37173  11.837  38.907  12.947
68769W        W37174  12.627  10.657  12.513
68770W        W37175  16.741  20.984  14.008
68771W        W37176  36.995   1.944  14.333
68772W        W37177  28.759   3.010  14.941
68773W        W37178  28.084  22.931  14.321
68774W        W37179   5.866  27.623  14.792
68775W        W37180  12.856   1.021  13.518
68776W        W37181  19.247  10.674   0.830
68777W        W37182  15.074  36.927   3.703
68778W        W37183  41.469  42.902  10.555
68779W        W37184   8.881  20.177   5.023
68780W        W37185  27.536  39.049  13.488
68781W        W37186  29.346   4.425  12.503
68782W        W37187   9.328   4.467   1.806
68783W        W37188  34.385  13.482  13.242
68784W        W37189  12.403  23.165  11.466
68785W        W37190  24.288  15.596  14.965
68786W        W37191  35.890  40.853  12.499
68787W        W37192  18.563  30.862  14.642
68788W        W37193  34.256   0.494  11.096
68789W        W37194  27.904   3.947  11.648
68790W        W37195  28.133  38.577   3.716
68791W        W37196  11.172  21.159   3.647
68792W        W37197  32.953  30.737   4.686
68793W        W37198   4.829  15.749   2.640
68794W        W37199  14.666  24.966  12.082
68795W        W37200  10.138   9.476  11.128
68796W        W37201  22.749   3.790  11.520
68797W        W37202  23.661   2.165   4.765
68798W        W37203  34.009  32.939   1.834
68799W        W37204   6.669  34.903   2.864
68800W        W37205  37.336  28.704   2.949
68801W        W37206  14.202  28.125  14.778
68802W        W37207  10.270   4.264   0.745
68803W        W37208  17.229  32.599  11.620
68804W        W37209  26.688  33.052  12.579
68805W        W37210   2.325  29.050  13.058
68806W        W37211  19.682  29.969  13.316
68807W        W37212  27.031  25.962   2.857
68808W        W37213  10.598  26.297   3.727
68809W        W37214  32.452  25.216  10.947
68810W        W37215   0.425  31.517  12.422
68811W        W37216  17.748  10.891   4.836
68812W        W37217  18.164  25.542  14.272
68813W        W37218  27.451  40.951   2.703
68814W        W37219   9.691   9.816   2.405
68815W        W37220  43.729  36.477   4.735
68816W        W37221  35.880  17.841  13.879
68817W        W37222  33.653   3.217  14.393
68818W        W37223  21.042  16.206  14.331
68819W        W37224   0.908   1.501  14.980
68820W        W37225  22.196  37.658   4.867
68821W        W37226  33.928  43.804   0.873
68822W        W37227  28.257   3.664   4.700
68823W        W37228   1.832   0.099  11.908
68824W        W37229  14.777  37.760   0.891
68825W        W37230  10.297   5.384  12.121
68826W        W37231  19.109  16.569   0.269
68827W        W37232  27.146   2.441  11.044
68828W        W37233  22.523  25.006   0.923
68829W        W37234  14.653  37.241   2.825
68830W        W37235  29.937   5.370  14.781
68831W        W37236  29.632  24.937  11.586
68832W        W37237  12.761  37.961   3.459
68833W        W37238  20.098  32.005   0.658
68834W        W37239   4.861   9.619   2.374
68835W        W37240   1.976  33.491   3.233
68836W        W37241  10.467   4.396   0.228
68837W        W37242  37.311  36.127   1.792
68838W        W37243  29.371  23.919  10.465
68839W        W37244  33.066   0.338  12.104
68840W        W37245  40.555  44.348   2.246
68841W        W37246  32.087  41.400   0.968
68842W        W37247   0.493  23.604  12.130
68843W        W37248  42.923  40.345  11.187
68844W        W37249  28.505  36.108   2.148
68845W        W37250   0.024  31.619   2.846
68846W        W37251  30.190  19.716   1.316
68847W        W37252  18.594  33.682  12.081
68848W        W37253   6.635   8.618   4.789
68849W        W37254   4.429  31.950   2.242
68850W        W37255  21.816  29.282  14.252
68851W        W37256  16.233  12.713  13.927
68852W        W37257   0.597  28.595  13.323
68853W        W37258  39.242   2.255   4.107
68854W        W37259  15.987   6.684   3.735
68855W        W37260   5.000  41.470  14.487
68856W        W37261  41.349  15.372  13.925
68857W        W37262  21.838   5.403  14.553
68858W        W37263  25.956   2.006  13.836
68859W        W37264  27.102  34.467  10.327
68860W        W37265   0.958  27.642   4.184
68861W        W37266   7.776  23.706   3.186
68862W        W37267   3.780  32.153  13.369
68863W        W37268   3.522  13.164   1.899
68864W        W37269  30.102  18.527  12.543
68865W        W37270  16.877  16.087  14.708
68866W        W37271  40.798  36.607   1.938
68867W        W37272  41.564  25.121   0.390
68868W        W37273  11.625  33.351  12.139
68869W        W37274  42.090   6.929  14.021
68870W        W37275  25.442  24.718  12.535
68871W        W37276  34.448  24.024   4.200
68872W        W37277  13.732   8.684   0.004
68873W        W37278  27.642  10.192  10.690
68874W        W37279  34.656  18.767  13.364
68875W        W37280  41.302  27.668  12.008
68876W        W37281  17.815  34.980  14.276
68877W        W37282  20.877  16.645   0.806
68878W        W37283  10.330   0.419  14.719
68879W        W37284   1.509  22.126  12.456
68880W        W37285  33.921  25.373   3.950
68881W        W37286  14.563  40.838  14.762
68882W        W37287  18.600  42.891  11.896
68883W        W37288  30.615  31.445   1.224
68884W        W37289  26.345  32.392   1.789
68885W        W37290  23.066  36.452   3.482
68886W        W37291  31.559  41.905  14.037
68887W        W37292  12.166   7.840  10.746
68888W        W37293  36.604  39.189   0.544
68889W        W37294  17.414  22.105   1.703
68890W        W37295  34.242  41.072  14.305
68891W        W37296  21.905  30.630  14.738
68892W        W37297  26.381   4.121  13.478
68893W        W37298  26.466  24.606  14.246
68894W        W37299  44.735  12.268   2.812
68895W        W37300  16.067  14.652  13.438
68896W        W37301  11.786  35.484   3.098
68897W        W37302   5.431  44.875   1.537
68898W        W37303  41.554  44.938  14.106
68899W        W37304  20.486  44.056   3.079
68900W        W37305  26.139  19.538   2.321
68901W        W37306  16.001  34.895   3.264
68902W        W37307  35.372  12.337   2.702
68903W        W37308  13.236  34.928   2.359
68904W        W37309  15.618   4.313   1.296
68905W        W37310  44.979  30.016  14.902
68906W        W37311  40.457  12.189   4.954
68907W        W37312   6.432   5.010   0.664
68908W        W37313  29.587  31.270   4.740
68909W        W37314   2.798  29.008   3.114
68910W        W37315  13.501  21.855  12.670
68911W        W37316  38.231  35.446   2.727
68912W        W37317  12.339  19.807  13.268
68913W        W37318   8.162  11.643  11.240
68914W        W37319  17.138  42.471  13.801
68915W        W37320  25.041  25.123  14.395
68916W        W37321  36.803  36.457   4.670
68917W        W37322   1.809   3.802   3.223
68918W        W37323   7.637  21.052  10.990
68919W        W37324  12.800  23.698  10.525
68920W        W37325  24.756  42.577  13.099
68921W        W37326  40.295  21.928  11.723
68922W        W37327  32.657  25.522   0.923
68923W        W37328   6.535  21.046  10.775
68924W        W37329  37.083  13.660   0.445
68925W        W37330  38.517  13.830   1.829
68926W        W37331  35.078   6.700  14.342
68927W        W37332  30.613  31.861   0.399
68928W        W37333  35.086  15.862  11.157
68929W        W37334  25.801  39.319   0.754
68930W        W37335  41.949  11.728   4.960
68931W        W37336  22.138   5.622   2.693
68932W        W37337   5.548  27.863   9.818
68933W        W37338  37.921  14.204  11.240
68934W        W37339  29.414  28.825  12.543
68935W        W37340   2.433  44.265  12.794
68936W        W37341  41.618  28.897  14.373
68937W        W37342  20.720   5.285  12.601
68938W        W37343  21.586   0.544  10.549
68939W        W37344  37.478   5.074  14.543
68940W        W37345  43.152   2.438  13.508
68941W        W37346   4.675   2.361  12.051
68942W        W37347  32.454   6.185  14.340
68943W        W37348  25.473  35.016   1.244
68944W        W37349  19.254  17.565  13.333
68945W        W37350   9.068  10.489   0.189
68946W        W37351   7.394  18.610   5.091
68947W        W37352  29.889  28.418   0.920
68948W        W37353  32.361  36.250  13.037
68949W        W37354  20.978  33.524  10.829
68950W        W37355   9.375  38.326  12.883
68951W        W37356  35.924  11.873  10.836
68952W        W37357   4.012  35.066   0.785
68953W        W37358  15.692  22.492   1.168
68954W        W37359   1.263  18.492   0.992
68955W        W37360  21.524  17.612  11.128
68956W        W37361  22.980  21.222  13.128
68957W        W37362  18.642  11.154  11.950
68958W        W37363  21.409  42.679  10.407
68959W        W37364  16.829  22.042  14.446
68960W        W37365  36.433  37.218  14.865
68961W        W37366   2.049   6.758   0.932
68962W        W37367  37.318  38.540   4.226
68963W        W37368  35.367  25.923  10.749
68964W        W37369  13.743  29.332   4.193
68965W        W37370  34.135  17.560   1.210
68966W        W37371  41.197  32.330   4.217
68967W        W37372  20.740  25.080  12.744
68968W        W37373  29.227   7.167  12.447
68969W        W37374  31.062  30.461  12.407
68970W        W37375   9.614  31.144   9.566
68971W        W37376  25.040  43.925  13.766
68972W        W37377   9.293  17.638   0.807
68973W        W37378   3.465   2.496  12.387
68974W        W37379  27.888  43.358   1.426
68975W        W37380  13.033  14.620  13.598
68976W        W37381  30.732  37.312   0.509
68977W        W37382  19.876  33.440  14.063
68978W        W37383   2.316   0.856   0.888
68979W        W37384  11.996  15.599   4.609
68980W        W37385  21.743   4.831   2.269
68981W        W37386  42.575  24.766   0.361
68982W        W37387  18.636  42.701   1.809
68983W        W37388  24.775  16.848  12.592
68984W        W37389  43.317  39.870  12.634
68985W        W37390  18.559  14.273  11.997
68986W        W37391  29.321   8.848   4.478
68987W        W37392  40.640  26.520  11.481
68988W        W37393  14.765  26.099  13.369
68989W        W37394   9.172  12.170   4.780
68990W        W37395   1.232  34.831   3.570
68991W        W37396  25.967  29.500  11.112
68992W        W37397   8.627  12.048  14.482
68993W        W37398  14.834  39.410   2.802
68994W        W37399  27.967  12.086   3.289
68995W        W37400  21.192  29.853  11.514
68996W        W37401   7.033  14.948  11.081
68997W        W37402   6.767  32.572  12.078
68998W        W37403  14.152  32.452  13.887
68999W        W37404  43.518  17.193  11.041
69000W        W37405  27.040  40.353  11.959
69001W        W37406   4.799  31.746   0.912
69002W        W37407  33.691   2.233   0.508
69003W        W37408   6.754  25.218  13.443
69004W        W37409   8.684  44.264   1.344
69005W        W37410  29.754   6.558   0.390
69006W        W37411  36.900   3.757  10.439
69007W        W37412  22.276  33.541  11.109
69008W        W37413  31.940  20.320   3.051
69009W        W37414  23.014  15.798   2.653
69010W        W37415   8.242  24.914  10.580
69011W        W37416   8.073   9.735  14.952
69012W        W37417  40.892  19.572  13.434
69013W        W37418  36.541   4.028  12.421
69014W        W37419  11.279   0.444  13.819
69015W        W37420  18.156   2.646   0.804
69016W        W37421  20.221  28.083   4.566
69017W        W37422  17.579  10.044  11.602
69018W        W37423  36.002   9.111  11.612
69019W        W37424  34.351   4.144  11.164
69020W        W37425  34.360  23.710   3.348
69021W        W37426  16.304  27.017   1.580
69022W        W37427   9.468   2.594  14.258
69023W        W37428  33.356   2.309  11.607
69024W        W37429  42.157  18.555  14.891
69025W        W37430  20.498  37.069  13.014
69026W        W37431  30.802   6.394   1.320
69027W        W37432  40.431  32.526  12.794
69028W        W37433   8.747   7.440  14.369
69029W        W37434   6.222  16.909   2.188
69030W        W37435  20.174  13.209  12.044
69031W        W37436  23.764  11.749   9.926
69032W        W37437  22.051  31.235  11.147
69033W        W37438   9.511  44.443   1.408
69034W        W37439   0.372  33.138   2.313
69035W        W37440   9.840  28.410   1.374
69036W        W37441  19.713  32.487   3.217
69037W        W37442  14.341  44.004  12.184
69038W        W37443  16.717  18.462   4.895
69039W        W37444  22.100  23.082  11.676
69040W        W37445  34.149  25.606  12.974
69041W        W37446  26.998   3.517  11.336
69042W        W37447  39.000  27.981  14.489
69043W        W37448  22.955  29.177  13.376
69044W        W37449  37.237  24.746   3.328
69045W        W37450  22.755   0.581  10.347
69046W        W37451  42.287   2.341   3.625
69047W        W37452  33.571  15.074   2.209
69048W        W37453  24.106   9.855   0.768
69049W        W37454  11.552  11.637  13.611
69050W        W37455  20.076  39.151  14.291
69051W        W37456  26.670  42.428   4.248
69052W        W37457   3.801  30.748   0.070
69053W        W37458  31.476  32.919  12.454
69054W        W37459  19.785  12.876  13.480
69055W        W37460   6.365  42.305  11.723
69056W        W37461   1.330  32.565   1.720
69057W        W37462  20.373  19.794  14.410
69058W        W37463  23.595  40.892  12.137
69059W        W37464  32.277   4.990   0.375
69060W        W37465  18.283  18.295  13.860
69061W        W37466  11.361  13.131   2.149
69062W        W37467  23.762   7.093   1.719
69063W        W37468  19.944  38.388  11.825
69064W        W37469  19.255  19.739   3.739
69065W        W37470   7.162  25.656   1.903
69066W        W37471  27.009  24.412   0.444
69067W        W37472  41.367  11.616  14.826
69068W        W37473  38.368  32.100   2.928
69069W        W37474  26.637   9.070   4.596
69070W        W37475  21.029   5.968   1.291
69071W        W37476  31.683  41.089  10.929
69072W        W37477   9.771  24.924  10.453
69073W        W37478   0.365  33.970   2.915
69074W        W37479   5.581  12.327   3.130
69075W        W37480  15.163  30.631   4.812
69076W        W37481  20.581  19.585  13.455
69077W        W37482  15.142  41.207   0.322
69078W        W37483  28.494  24.992   0.364
69079W        W37484  41.831  31.009  13.539
69080W        W37485  22.307  35.612  12.975
69081W        W37486  32.099   4.689  11.526
69082W        W37487  39.899  35.328  12.407
69083W        W37488   2.771   6.612  10.712
69084W        W37489  22.098  37.084  12.459
69085W        W37490  15.886  10.768  14.701
69086W        W37491  30.433  31.868  12.089
69087W        W37492   9.250  43.677  12.876
69088W        W37493  37.540  23.626   4.769
69089W        W37494  24.019  35.880   2.417
69090W        W37495   5.337  31.059   0.328
69091W        W37496  11.133   7.451   3.689
69092W        W37497  38.136   0.533   1.722
69093W        W37498  33.819  10.581  13.166
69094W        W37499  14.049  36.572   0.296
69095W        W37500   5.213  11.874  13.841
69096W        W37501  36.540  12.140  14.855
69097W        W37502  34.539   0.919   0.052
69098W        W37503  31.604  37.980   3.848
69099W        W37504  30.533  27.194  13.414
69100W        W37505  13.628  41.222   3.184
69101W        W37506  34.238  26.156  10.840
69102W        W37507   6.400  40.894  11.677
69103W        W37508  10.299  29.031   1.751
69104W        W37509  33.202   6.802   5.073
69105W        W37510  19.814  10.725  12.409
69106W        W37511  22.979   0.905  11.478
69107W        W37512  35.834  12.718  11.617
69108W        W37513  16.042  14.090  13.032
69109W        W37514   2.632  21.803   3.701
69110W        W37515  22.920  17.692   0.208
69111W        W37516   6.715  34.480   0.850
69112W        W37517  37.973  34.847   0.939
69113W        W37518  13.907  18.140  10.593
69114W        W37519   3.128  39.405   2.735
69115W        W37520   3.865  26.676  14.025
69116W        W37521  44.792   4.938   0.831
69117W        W37522   1.561  27.437  13.331
69118W        W37523  44.855  36.591  12.112
69119W        W37524  14.640  15.816  13.968
69120W        W37525  18.687  11.718  11.094
69121W        W37526  43.891  10.282   1.690
69122W        W37527   4.960   8.334   2.371
69123W        W37528  16.766  29.251   3.729
69124W        W37529  12.660  42.184  12.928
69125W        W37530  31.479  24.022   4.066
69126W        W37531  21.558  26.059   0.655
69127W        W37532  35.802  23.108  11.133
69128W        W37533  36.273  12.872   4.541
69129W        W37534   4.419  13.714  14.372
69130W        W37535  40.580  43.427   4.264
69131W        W37536  12.850  15.962   3.858
69132W        W37537   5.688  19.711  11.229
69133W        W37538  31.075  28.904   1.747
69134W        W37539  14.065  27.689  10.971
69135W        W37540   7.811  38.414   1.235
69136W        W37541   0.494   1.752  10.496
69137W        W37542  25.671  32.080   2.544
69138W        W37543  24.373  25.311   4.228
69139W        W37544  40.701  11.857  13.608
69140W        W37545  29.853  38.784   1.628
69141W        W37546   4.512  30.066   3.653
69142W        W37547  19.754   9.354  12.790
69143W        W37548   8.609  35.923   3.848
69144W        W37549  18.765  37.623  12.813
69145W        W37550  31.696  25.684   4.736
69146W        W37551  31.824  22.728  13.941
69147W        W37552  28.074  10.260  10.387
69148W        W37553  26.242  21.477  14.456
69149W        W37554   7.882   9.364  13.028
69150W        W37555   9.156   5.689   4.117
69151W        W37556  36.808  22.563   3.014
69152W        W37557  17.320  33.499   3.169
69153W        W37558   6.590  38.605  13.490
69154W        W37559  36.375   5.381   4.543
69155W        W37560  31.317  40.974   1.245
69156W        W37561   3.573  20.849  11.091
69157W        W37562   9.499  18.525  11.203
69158W        W37563   3.379  25.532   2.887
69159W        W37564  30.098  20.182   0.697
69160W        W37565   7.804  21.776   4.465
69161W        W37566  19.828  40.389   3.685
69162W        W37567  40.625  18.552  11.206
69163W        W37568  33.567   5.952   1.908
69164W        W37569  17.042  14.644   4.659
69165W        W37570  15.826  12.874  10.104
69166W        W37571  11.909  13.312  13.267
69167W        W37572  38.156   1.423  11.941
69168W        W37573  19.213  21.484   2.184
69169W        W37574  25.277  13.066   4.503
69170W        W37575   9.740  21.179  11.578
69171W        W37576   3.143  31.096   2.145
69172W        W37577   1.431  32.357  14.841
69173W        W37578   2.735  11.370  12.521
69174W        W37579  43.348  25.953   1.623
69175W        W37580   1.938  15.905  11.646
69176W        W37581  22.115   6.688   3.433
69177W        W37582  22.701  15.717  10.093
69178W        W37583  15.720  17.748  14.536
69179W        W37584  27.009  18.646  11.154
69180W        W37585  33.415  24.085  11.544
69181W        W37586  13.361   2.368  11.917
69182W        W37587  20.716  32.513   1.855
69183W        W37588  41.401  42.011   0.175
69184W        W37589  39.001  40.536  10.708
69185W        W37590   0.827  10.930  10.759
69186W        W37591   9.481   0.950   2.659
69187W        W37592  13.990  13.320  12.485
69188W        W37593  21.218  43.556  12.505
69189W        W37594  16.355  21.062   2.301
69190W        W37595  23.431  36.331   2.674
69191W        W37596  31.248  16.611   5.460
69192W        W37597   9.695  32.792  10.304
69193W        W37598  42.019  27.920  12.874
69194W        W37599  18.158  38.180   4.646
69195W        W37600   2.911  21.566   2.389
69196W        W37601  15.473  26.553   1.351
69197W        W37602  43.346  24.480  13.710
69198W        W37603   7.771   9.368   1.195
69199W        W37604  18.216   7.969   2.827
69200W        W37605  37.979  37.119   0.476
69201W        W37606   8.661  31.525   0.027
69202W        W37607   8.064   7.283   0.017
69203W        W37608  34.663  29.934   2.922
69204W        W37609  38.978  11.268   0.437
69205W        W37610  41.241  11.637  12.200
69206W        W37611  32.805  31.473  12.499
69207W        W37612  38.297  26.941  11.550
69208W        W37613  41.852  28.842  13.066
69209W        W37614   3.506  24.625  12.589
69210W        W37615  38.502  23.300   3.261
69211W        W37616  24.831   1.527   2.970
69212W        W37617  23.670  14.274   3.544
69213W        W37618  19.996   5.434   3.617
69214W        W37619   9.053   0.590  13.088
69215W        W37620  34.749   3.971   3.556
69216W        W37621   2.739  12.156   0.644
69217W        W37622  43.890   8.206  12.653
69218W        W37623  37.190  11.156   4.612
69219W        W37624  28.641  19.190  12.864
69220W        W37625  30.633  43.754  12.050
69221W        W37626   8.053  39.604  12.891
69222W        W37627   6.916  35.058  11.392
69223W        W37628   3.770  35.444   2.111
69224W        W37629  30.107  41.947   4.750
69225W        W37630  32.506  30.087  11.764
69226W        W37631  13.702  18.362   1.646
69227W        W37632   4.156   3.338  13.419
69228W        W37633  38.980  29.024  12.817
69229W        W37634   1.413  39.424  14.828
69230W        W37635  24.925  20.473   1.025
69231W        W37636   3.313  39.125  14.365
69232W        W37637  21.646  36.096   1.241
69233W        W37638  40.758  10.460  13.006
69234W        W37639   7.489   1.215   1.781
69235W        W37640  42.258  43.351  13.001
69236W        W37641   4.727  43.472   2.619
69237W        W37642  11.780  36.911  13.430
69238W        W37643  40.207  32.936  13.530
69239W        W37644   2.867  23.566   1.268
69240W        W37645  29.881  19.158  13.338
69241W        W37646  38.022  37.687   0.525
69242W        W37647  17.881   2.229   0.924
69243W        W37648  17.880  28.652   4.189
69244W        W37649  15.760  27.424  10.652
69245W        W37650  16.586  22.065   0.940
69246W        W37651  28.400   0.109  10.912
69247W        W37652  36.048   9.929   3.958
69248W        W37653   5.121   7.328  13.523
69249W        W37654   9.738  26.951   4.173
69250W        W37655  15.707  17.674  11.638
69251W        W37656  23.454  37.356  13.451
69252W        W37657  21.009   5.450   4.682
69253W        W37658  18.748  33.552   4.710
69254W        W37659   3.819  31.540   4.119
69255W        W37660  30.916  35.995   2.405
69256W        W37661   1.850  31.386   4.988
69257W        W37662  11.909  21.677  11.042
69258W        W37663  31.040  13.243   4.440
69259W        W37664  30.185  12.131  14.994
69260W        W37665  24.975  31.141  13.079
69261W        W37666   2.367  30.860  10.699
69262W        W37667  30.231  15.463   2.195
69263W        W37668  20.450  43.411  13.462
69264W        W37669  22.235   1.224   2.909
69265W        W37670  40.315  13.185  14.822
69266W        W37671  26.677  40.272  11.578
69267W        W37672   2.871   0.263  11.486
69268W        W37673   7.118  42.695   2.676
69269W        W37674  37.170  11.853  12.121
69270W        W37675  42.316   1.237   1.833
69271W        W37676  36.455  44.963   2.324
69272W        W37677  23.239  10.647   3.144
69273W        W37678  26.596  16.637  11.187
69274W        W37679  24.591  11.727   3.647
69275W        W37680  36.865  40.335   1.624
69276W        W37681   0.219   2.398  11.654
69277W        W37682  21.233   0.761   4.583
69278W        W37683  16.162  10.766  13.607
69279W        W37684   6.692  17.183  12.361
69280W        W37685  11.215  28.557   3.577
69281W        W37686  41.380   2.816  13.367
69282W        W37687  28.648  24.317   3.697
69283W        W37688  26.054  12.766  14.952
69284W        W37689  20.255  24.505  12.157
69285W        W37690  33.468  26.986   2.200
69286W        W37691  26.410   2.114  13.583
69287W        W37692   3.893   4.407   0.207
69288W        W37693  12.426  43.135  14.344
69289W        W37694  25.203  23.923   0.334
69290W        W37695  13.370  27.521  14.281
69291W        W37696  36.502  30.167   3.449
69292W        W37697  11.762  36.461  13.693
69293W        W37698  28.162  39.848   0.220
69294W        W37699   4.815  43.129  11.260
69295W        W37700   8.744   9.993  12.528
69296W        W37701  30.842  18.957   0.938
69297W        W37702  19.552  20.242  14.771
69298W        W37703  25.763  10.353  14.456
69299W        W37704  38.559  42.169   2.391
69300W        W37705  13.646   5.241   2.294
69301W        W37706  19.018  43.799  14.545
69302W        W37707  22.823  25.158  14.967
69303W        W37708   0.251  42.763   1.670
69304W        W37709  12.900  37.085  12.496
69305W        W37710   5.732  25.657   1.519
69306W        W37711  11.570  18.201  14.774
69307W        W37712  33.027  21.988   3.815
69308W        W37713  38.057  16.808  12.862
69309W        W37714  25.511  19.241  11.263
69310W        W37715  38.483  36.061   0.866
69311W        W37716   2.331  44.684   2.102
69312W        W37717   4.249  23.463  13.277
69313W        W37718  18.017  29.134   0.421
69314W        W37719  10.131  32.747   5.684
69315W        W37720  27.915  25.969  11.020
69316W        W37721  19.325   6.799  11.908
69317W        W37722  22.234  39.861  11.601
69318W        W37723  16.133  32.458  13.854
69319W        W37724   0.858  40.067  11.190
69320W        W37725  19.650  41.572  11.509
69321W        W37726  28.203  11.125   4.533
69322W        W37727   6.860   0.306   0.978
69323W        W37728  22.235  24.632   4.343
69324W        W37729  37.609  10.819   3.561
69325W        W37730  29.777   5.943   1.922
69326W        W37731  24.094   5.119   3.960
69327W        W37732  29.516  20.044   4.594
69328W        W37733  26.616  30.422  10.714
69329W        W37734  35.468   6.591   1.871
69330W        W37735  33.284  17.591   2.702
69331W        W37736  37.570  36.303   5.130
69332W        W37737  43.818  13.610   1.407
69333W        W37738  23.297  42.581  12.082
69334W        W37739   2.450  27.705  14.862
69335W        W37740  11.122  41.454  14.842
69336W        W37741  44.679  30.385  14.725
69337W        W37742  43.234  27.071  13.052
69338W        W37743  11.298   8.145  12.973
69339W        W37744  13.294  33.185   5.425
69340W        W37745  44.733  22.611  12.520
69341W        W37746   8.317  12.190  13.691
69342W        W37747  30.945  36.169   4.690
69343W        W37748  43.578  14.855  10.890
69344W        W37749  13.642  41.879  13.537
69345W        W37750  36.089  26.037   1.214
69346W        W37751  36.161  18.204  12.098
69347W        W37752  23.143  19.124  14.921
69348W        W37753  23.800  28.433   0.786
69349W        W37754  28.234   1.427  14.276
69350W        W37755  29.444   3.795  12.152
69351W        W37756  15.505  32.636  12.781
69352W        W37757   6.281  31.714  12.800
69353W        W37758  20.226  28.754   3.171
69354W        W37759  37.253  20.583  11.848
69355W        W37760  28.920   6.232   3.285
69356W        W37761  41.778  27.735   0.413
69357W        W37762  33.324  38.352  10.821
69358W        W37763   5.183  25.090   2.566
69359W        W37764   7.672   2.518  13.481
69360W        W37765   8.346  11.377   0.495
69361W        W37766  41.275   7.360   1.758
69362W        W37767  12.532   6.293  11.492
69363W        W37768  17.615  38.108  10.627
69364W        W37769  23.829  42.403   1.409
69365W        W37770   4.879  28.449   2.335
69366W        W37771  23.581  10.636  11.729
69367W        W37772   7.601  42.378  13.952
69368W        W37773   4.306  44.360   4.495
69369W        W37774   9.344  41.155   5.045
69370W        W37775  17.223  35.298   3.762
69371W        W37776  30.529  39.874  13.567
69372W        W37777  42.340   5.361   4.258
69373W        W37778  24.025  29.357   3.624
69374W        W37779  10.374  24.436   3.891
69375W        W37780  11.573  39.115   0.797
69376W        W37781  36.898  33.986   3.859
69377W        W37782   0.797   1.790   3.849
69378W        W37783  19.665  41.829  14.133
69379W        W37784  36.467  18.121  14.994
69380W        W37785  15.279  10.443  11.465
69381W        W37786  42.312  26.092   0.914
69382W        W37787   6.350  36.450   2.839
69383W        W37788   2.496   3.417  11.143
69384W        W37789  18.647  24.988   4.046
69385W        W37790  20.706   1.288  10.524
69386W        W37791   4.846  36.845  12.770
69387W        W37792  13.297   7.537  10.209
69388W        W37793  11.624  20.830   4.549
69389W        W37794  12.035  10.152  13.814
69390W        W37795  41.900  27.275  10.925
69391W        W37796   5.330  27.125   3.128
69392W        W37797   0.768  38.401  10.280
69393W        W37798   0.796   5.869   0.172
69394W        W37799  36.581   4.505  13.889
69395W        W37800  26.165  38.106  12.938
69396W        W37801   2.072  21.667  11.646
69397W        W37802  42.318  19.005   1.789
69398W        W37803  44.552  26.894  13.474
69399W        W37804  36.300   9.173   1.675
69400W        W37805   5.418  41.637  12.035
69401W        W37806  17.521  25.683  14.368
69402W        W37807  42.742  30.520  13.632
69403W        W37808  39.561  25.344   0.906
69404W        W37809  25.602  31.502  12.504
69405W        W37810   1.193  43.779  11.955
69406W        W37811  29.678   1.046   4.506
69407W        W37812  44.829   9.410  10.573
69408W        W37813   2.688  38.585   1.369
69409W        W37814  11.638   6.110  10.770
69410W        W37815   3.260  21.048   3.542
69411W        W37816  40.322  39.997   4.132
69412W        W37817   4.973  30.509   4.279
69413W        W37818  33.923  25.333   2.599
69414W        W37819  43.770  22.773  11.127
69415W        W37820  38.238   6.457   2.322
69416W        W37821  25.913   1.512  10.327
69417W        W37822  26.054   8.433   3.312
69418W        W37823   4.599  26.047  10.489
69419W        W37824  19.967  33.594   0.291
69420W        W37825   1.283   1.430   0.772
69421W        W37826   8.628   9.007  10.314
69422W        W37827  32.457  10.305   1.780
69423W        W37828   6.628   4.942  10.584
69424W        W37829   3.971  44.369  13.773
69425W        W37830   8.510  30.655  13.454
69426W        W37831  27.671  40.313  13.210
69427W        W37832  16.725  36.856  13.032
69428W        W37833  30.133   4.707  13.972
69429W        W37834  35.053  18.012   4.326
69430W        W37835  41.075  31.420  13.866
69431W        W37836  27.041  13.862   2.393
69432W        W37837  33.697  27.877  11.056
69433W        W37838  29.990  10.848  14.758
69434W        W37839  35.125  41.064   0.942
69435W        W37840  39.151  18.728   4.308
69436W        W37841  40.723  27.428   2.250
69437W        W37842  30.103  14.588   4.532
69438W        W37843  24.204   4.449   4.868
69439W        W37844  26.478  21.130  13.209
69440W        W37845  15.414   0.376   5.157
69441W        W37846   8.672  27.052   9.943
69442W        W37847  18.338  41.882  11.023
69443W        W37848  13.689  28.991  10.708
69444W        W37849  34.793  36.436  13.966
69445W        W37850  36.012   7.571   4.182
69446W        W37851   6.945  35.105   2.471
69447W        W37852  29.756  10.617  11.179
69448W        W37853   4.798  28.077   0.843
69449W        W37854  38.902   7.917  13.343
69450W        W37855  11.790  31.126   1.985
69451W        W37856  37.021   6.465  11.652
69452W        W37857  39.437  26.834   4.588
69453W        W37858   8.649  27.542  13.645
69454W        W37859  39.757  26.099   2.597
69455W        W37860  23.685  21.467   4.688
69456W        W37861  37.464  13.843   1.740
69457W        W37862  10.281   8.933   0.307
69458W        W37863  12.775   9.289  12.457
69459W        W37864  32.318  18.796  12.867
69460W        W37865  44.833  31.184  10.731
69461W        W37866  38.084  17.793   2.451
69462W        W37867  25.815  29.842   0.858
69463W        W37868  29.412  18.073   1.950
69464W        W37869  35.143  44.876   4.193
69465W        W37870  21.040  28.038  12.615
69466W        W37871  34.482  26.142  11.954
69467W        W37872  42.361   5.642  14.898
69468W        W37873   3.422  30.623  11.913
69469W        W37874  44.378  30.677   0.024
69470W        W37875  41.966  32.942   0.280
69471W        W37876   8.647  30.114   1.896
69472W        W37877  43.861   9.247   0.755
69473W        W37878  16.616  38.597   3.066
69474W        W37879  40.930  43.935  13.895
69475W        W37880  12.496   6.807   1.497
69476W        W37881  35.353  27.968  14.021
69477W        W37882  28.127   6.547   4.157
69478W        W37883  34.612  21.161  11.295
69479W        W37884   2.281  16.016   1.470
69480W        W37885   3.804  40.295  14.021
69481W        W37886   7.812  16.119   3.346
69482W        W37887  30.178  14.328  14.858
69483W        W37888   5.272  33.257   4.131
69484W        W37889  24.865  22.975   0.439
69485W        W37890  16.832   3.816   1.760
69486W        W37891  33.380  38.351   4.231
69487W        W37892  35.993   3.741   4.356
69488W        W37893   9.764  18.274   1.761
69489W        W37894  21.493   7.814   3.202
69490W        W37895  24.572  44.272  12.469
69491W        W37896  38.303   8.704   0.432
69492W        W37897  25.477  32.825   1.840
69493W        W37898  37.003   1.882   4.980
69494W        W37899  26.475  34.114   3.273
69495W        W37900  21.468  41.751  11.598
69496W        W37901  17.999  25.022  11.179
69497W        W37902   7.310  13.362   0.347
69498W        W37903  36.729  30.044  12.705
69499W        W37904  23.136  38.985  11.977
69500W        W37905   1.218  11.129   3.152
69501W        W37906  28.608  21.048  13.571
69502W        W37907  11.859  30.571  12.365
69503W        W37908   9.277  42.429   2.819
69504W        W37909  11.131  17.971   5.076
69505W        W37910  21.283  22.497  14.370
69506W        W37911  37.354   9.117  14.456
69507W        W37912  36.459  22.459  10.739
69508W        W37913  23.039  15.582   0.782
69509W        W37914  32.691  12.969   2.279
69510W        W37915  18.310  38.447  12.428
69511W        W37916   3.254   8.146   4.614
69512W        W37917  30.058  10.147  13.456
69513W        W37918  12.711  21.298   1.898
69514W        W37919  15.831  32.748  10.758
69515W        W37920  40.351  11.489  13.579
69516W        W37921  37.857  40.395   3.246
69517W        W37922   8.167  18.071  14.181
69518W        W37923  25.741  13.925  14.347
69519W        W37924  18.840  43.711   4.140
69520W        W37925  39.328  41.506   4.201
69521W        W37926  21.974  14.267   4.860
69522W        W37927  19.109  20.060   2.561
69523W        W37928  11.398  14.677  10.487
69524W        W37929  35.146  30.731  14.856
69525W        W37930  16.208  22.735   3.345
69526W        W37931  26.027  34.560  13.488
69527W        W37932   7.097   6.894   2.663
69528W        W37933  38.538  31.061  14.973
69529W        W37934  25.177  13.096  10.742
69530W        W37935  13.770  32.922  12.424
69531W        W37936  38.834  25.452   3.239
69532W        W37937   4.556  41.355  12.015
69533W        W37938  39.664  15.722  11.064
69534W        W37939  25.484  13.384  13.492
69535W        W37940  30.610  42.051  14.040
69536W        W37941  39.907  21.088  11.977
69537W        W37942  44.571  18.278  13.809
69538W        W37943  28.951  14.749   2.372
69539W        W37944  32.817  10.868   1.895
69540W        W37945  42.235  41.085   1.465
69541W        W37946  25.386  44.797   0.765
69542W        W37947  36.627   5.168  10.978
69543W        W37948  22.792  19.563  14.927
69544W        W37949   3.482  24.757  11.707
69545W        W37950  11.583   1.463   1.809
69546W        W37951  23.234  12.189  11.627
69547W        W37952  17.892  17.745   2.337
69548W        W37953  13.231  40.539  14.305
69549W        W37954  17.243  26.664  12.519
69550W        W37955   2.270  26.028   0.349
69551W        W37956   4.298   8.355   1.452
69552W        W37957   0.847  18.872   5.024
69553W        W37958  32.102  21.192   4.732
69554W        W37959  10.330  22.969   0.285
69555W        W37960  25.478   1.816  14.461
69556W        W37961   3.900   3.110  13.806
69557W        W37962  35.296  36.042   3.392
69558W        W37963   7.145  21.043  10.737
69559W        W37964   6.199  39.659  14.917
69560W        W37965  41.675  12.792  13.464
69561W        W37966  28.572  22.904  10.684
69562W        W37967  18.269   0.922   0.959
69563W        W37968  40.457  23.278   0.886
69564W        W37969  29.051  26.216  11.656
69565W        W37970  24.137   6.248  10.175
69566W        W37971  31.026  25.552   3.528
69567W        W37972  13.730   5.003   1.849
69568W        W37973  16.248   3.399   1.927
69569W        W37974   7.352  33.473   3.346
69570W        W37975   5.453  34.879   2.568
69571W        W37976  23.068  13.656  14.053
69572W        W37977  38.994  24.039  14.503
69573W        W37978  29.930  14.247  12.786
69574W        W37979  10.132  23.265   3.341
69575W        W37980  41.422   4.760   0.838
69576W        W37981  14.762  40.900   3.244
69577W        W37982  15.863  31.002  12.050
69578W        W37983  10.388  40.345  14.910
69579W        W37984  15.595  17.975   2.356
69580W        W37985   5.490  41.086  13.085
69581W        W37986  19.309  43.195   2.351
69582W        W37987   2.737  30.919   4.564
69583W        W37988  18.488  12.765  11.717
69584W        W37989  33.915  20.560   2.198
69585W        W37990   5.881  17.682  11.606
69586W        W37991  23.146  31.920  11.609
69587W        W37992   4.975  29.131   0.818
69588W        W37993   6.327  39.464  13.020
69589W        W37994  36.456  19.879  11.644
69590W        W37995  26.718  42.081   2.284
69591W        W37996  36.922  16.090   2.947
69592W        W37997  42.762  18.624   4.982
69593W        W37998  35.576  27.938   4.553
69594W        W37999  42.704  38.965  10.792
69595W        W38000  37.373   3.001  12.844
69596W        W38001  17.635  11.216   0.930
69597W        W38002  13.873  33.763  14.967
69598W        W38003  21.138   1.885  14.141
69599W        W38004   7.395  15.562   1.493
69600W        W38005  19.293   1.452   2.951
69601W        W38006  11.252  28.297  12.110
69602W        W38007   7.811  31.960  11.377
69603W        W38008  20.002  21.552  10.114
69604W        W38009  29.639  11.047   4.353
69605W        W38010   8.233  25.062   0.200
69606W        W38011  17.059  23.017  11.135
69607W        W38012   4.865   3.426   5.004
69608W        W38013  21.718  37.101   1.352
69609W        W38014  39.507  36.426  10.824
69610W        W38015   4.033  38.829  11.730
69611W        W38016  34.746  32.964  14.936
69612W        W38017  43.424  30.713   4.493
69613W        W38018   9.987   9.144   4.611
69614W        W38019  31.480   2.120  10.997
69615W        W38020  32.786  13.514   1.916
69616W        W38021  41.979  16.144   2.486
69617W        W38022  42.004  32.864   2.375
69618W        W38023   8.670  12.471   2.441
69619W        W38024   7.737   6.236   2.762
69620W        W38025  39.766  16.341   0.323
69621W        W38026  33.066  35.613  13.064
69622W        W38027  19.209  25.233  10.748
69623W        W38028  18.534  36.913   3.938
69624W        W38029  41.971   1.620  11.503
69625W        W38030  25.041  16.582   0.911
69626W        W38031  27.452  23.221  11.629
69627W        W38032  40.799  28.698  13.040
69628W        W38033   6.184  40.880  14.355
69629W        W38034  35.594  37.575   1.439
69630W        W38035  23.212  37.558   3.121
69631W        W38036   1.335  13.418   2.820
69632W        W38037  43.469   1.325   1.148
69633W        W38038  26.511  11.818  12.910
69634W        W38039  21.057  24.446  11.525
69635W        W38040  11.402  20.279   2.254
69636W        W38041  26.610  35.883   9.939
69637W        W38042  22.757  43.841  11.638
69638W        W38043   0.766   9.894   2.663
69639W        W38044  24.469  39.917   1.777
69640W        W38045   7.624  22.070  11.191
69641W        W38046  25.962   4.578  13.022
69642W        W38047  36.500  24.979  10.661
69643W        W38048  10.882   7.820  12.529
69644W        W38049   4.559  26.525   1.743
69645W        W38050  17.914  35.444  14.528
69646W        W38051  10.237  42.159   2.963
69647W        W38052   2.886  12.070   3.354
69648W        W38053  29.578  40.844  14.253
69649W        W38054  39.414  13.429  12.935
69650W        W38055   7.838  43.890   2.896
69651W        W38056  38.388   9.931  11.048
69652W        W38057  41.484  23.384   1.467
69653W        W38058   4.611  20.616  10.935
69654W        W38059  31.357  39.589   4.782
69655W        W38060   3.131  28.949  11.188
69656W        W38061   9.717  43.341   0.064
69657W        W38062  18.604  40.611   4.928
69658W        W38063  42.721  10.348   1.827
69659W        W38064  21.205  18.331  10.523
69660W        W38065  39.093  44.843   4.608
69661W        W38066   0.373  27.303  13.953
69662W        W38067   2.781   0.148   3.839
69663W        W38068  18.549  34.606  11.355
69664W        W38069  32.206  22.522  12.061
69665W        W38070  37.019  31.208   2.432
69666W        W38071  32.983   2.477   0.994
69667W        W38072  10.556  43.034  11.134
69668W        W38073  10.841  31.087   0.430
69669W        W38074   5.289   1.990  12.094
69670W        W38075   4.143  25.872  13.013
69671W        W38076   1.148  38.876   0.041
69672W        W38077   3.685  20.610  10.655
69673W        W38078   8.098  26.566  11.138
69674W        W38079  20.070   7.823  12.743
69675W        W38080  27.037  42.876   1.663
69676W        W38081  21.184  41.969   0.690
69677W        W38082  33.630  30.003   2.294
69678W        W38083  16.544  39.746   1.911
69679W        W38084  31.460  42.571   0.854
69680W        W38085  27.771  42.762   0.252
69681W        W38086  24.608  24.664  13.755
69682W        W38087  41.701  22.725   4.114
69683W        W38088  34.478  30.551  14.504
69684W        W38089  17.774  16.019  14.181
69685W        W38090  35.816  25.221   2.213
69686W        W38091  30.880  32.451   1.706
69687W        W38092  42.986  35.846   3.998
69688W        W38093  20.048  40.915   2.223
69689W        W38094  30.627  20.812   2.638
69690W        W38095  25.524  22.899   3.300
69691W        W38096  15.839   5.198   2.269
69692W        W38097  12.313  20.627   3.504
69693W        W38098  20.176  29.431   1.192
69694W        W38099   7.871   8.312   3.740
69695W        W38100  26.027  35.474   2.409
69696W        W38101  22.619  11.780   3.531
69697W        W38102   4.268  38.824  12.619
69698W        W38103  24.881  10.180   3.908
69699W        W38104  24.799  29.052   4.533
69700W        W38105  31.048   1.512  13.411
69701W        W38106  22.659  18.691   2.641
69702W        W38107  43.610  24.112  13.400
69703W        W38108  39.114  39.913  14.704
69704W        W38109  22.958  39.421   0.754
69705W        W38110  25.300  22.442  12.963
69706W        W38111  35.884  24.504   3.852
69707W        W38112  37.762  40.458  14.882
69708W        W38113  10.095  18.476  12.626
69709W        W38114   6.789   2.929  13.284
69710W        W38115  39.661   9.927  11.398
69711W        W38116  31.874   4.213  14.984
69712W        W38117  27.772  38.946  10.988
69713W        W38118  27.382   6.112   1.811
69714W        W38119  28.832   5.876   2.222
69715W        W38120  33.759  11.669  11.602
69716W        W38121  38.932  30.810  13.419
69717W        W38122   8.105  22.581  13.524
69718W        W38123  31.866   6.014   2.832
69719W        W38124  29.610  41.523  14.076
69720W        W38125  19.811  13.794   0.357
69721W        W38126  43.656  28.020  12.072
69722W        W38127  16.851  29.130   3.236
69723W        W38128  26.735  15.085  11.136
69724W        W38129  21.551  15.715  14.891
69725W        W38130  21.047  16.796   3.844
69726W        W38131  29.916   4.901  11.170
69727W        W38132  11.646   5.735  13.045
69728W        W38133  25.419  18.970  11.680
69729W        W38134  26.914  22.172   2.813
69730W        W38135  43.225   4.390   0.823
69731W        W38136   1.407  34.443  11.128
69732W        W38137  34.406  12.008  14.781
69733W        W38138  10.076  26.623  14.907
69734W        W38139  26.246  35.921  14.635
69735W        W38140  18.289  23.847   1.322
69736W        W38141  18.022   6.293  11.868
69737W        W38142  21.496  24.642   0.394
69738W        W38143  24.996  44.385   2.008
69739W        W38144  40.929  32.330   1.575
69740W        W38145  22.853  23.993   0.908
69741W        W38146  20.611  11.112  14.272
69742W        W38147  26.107   8.087  13.547
69743W        W38148   3.741  36.679   3.648
69744W        W38149  12.439  25.115   1.699
69745W        W38150  26.756  39.846  11.855
69746W        W38151  24.625  37.116   1.335
69747W        W38152   1.122  27.257  13.567
69748W        W38153  42.444  24.254   1.076
69749W        W38154  26.454   1.510   0.410
69750W        W38155  39.463  39.113   3.596
69751W        W38156  18.345  13.158  10.729
69752W        W38157  22.089   8.221   1.048
69753W        W38158  21.960  32.676  12.083
69754W        W38159  42.853  44.953  12.629
69755W        W38160   1.180  25.573   1.357
69756W        W38161  18.199  38.600  13.690
69757W        W38162  16.990  41.990   1.910
69758W        W38163  39.323   6.011   0.436
69759W        W38164  27.106  31.962   3.709
69760W        W38165  24.534  15.663  12.058
69761W        W38166  44.388  43.878  13.172
69762W        W38167  20.533  21.134  13.067
69763W        W38168  11.697  36.155  14.913
69764W        W38169  17.808  17.440   1.410
69765W        W38170  39.268  35.173  14.293
69766W        W38171  31.884  18.883  13.149
69767W        W38172  31.828  41.833  11.049
69768W        W38173   6.472  20.063  12.002
69769W        W38174  12.203  41.656  10.472
69770W        W38175  42.884  41.277  11.582
69771W        W38176  34.578  13.759   1.036
69772W        W38177   6.419   1.434  14.410
69773W        W38178  41.842  10.414   1.905
69774W        W38179  27.534  12.900   4.931
69775W        W38180  30.819  30.493   9.872
69776W        W38181  19.406  41.297   1.239
69777W        W38182  28.996  30.113  14.790
69778W        W38183  36.020  43.999  10.711
69779W        W38184  14.625   8.864  12.646
69780W        W38185  15.170  40.332  14.996
69781W        W38186   7.764   0.835  13.303
69782W        W38187  21.566  26.367  11.162
69783W        W38188   3.038  26.125  11.437
69784W        W38189  40.528  42.243  11.987
69785W        W38190  19.520  19.110   3.730
69786W        W38191   2.452  27.012  11.107
69787W        W38192   7.219  30.158  10.067
69788W        W38193  20.403   8.704   1.130
69789W        W38194  38.491  14.568   0.275
69790W        W38195   6.098  39.966   4.830
69791W        W38196  16.404  31.844   4.574
69792W        W38197  34.465  29.529  10.682
69793W        W38198  10.612   3.191  11.876
69794W        W38199  39.331  12.141  13.482
69795W        W38200  20.787   0.967   3.337
69796W        W38201  32.880  10.783  11.176
69797W        W38202   9.636  17.979  12.077
69798W        W38203  34.814  28.953   1.285
69799W        W38204  11.690  43.777   0.384
69800W        W38205  14.055   7.261  14.772
69801W        W38206  26.441   8.789  14.905
69802W        W38207  25.684  35.445   4.078
69803W        W38208   8.341   3.253  14.279
69804W        W38209  10.528  33.408  13.922
69805W        W38210  20.647  16.575   3.581
69806W        W38211  34.690  13.656   2.463
69807W        W38212   5.193   9.374   0.416
69808W        W38213  41.913  22.758   3.645
69809W        W38214  43.326   2.640   2.702
69810W        W38215   7.071  22.194  14.747
69811W        W38216  31.818  33.909  14.807
69812W        W38217  42.927  28.662  10.685
69813W        W38218  44.919  13.637  10.412
69814W        W38219  24.136   6.721   4.667
69815W        W38220   7.114  24.443   4.238
69816W        W38221   1.868  30.925   4.135
69817W        W38222   9.261  26.424  11.073
69818W        W38223  32.982  16.595  13.120
69819W        W38224  31.012  44.783  14.328
69820W        W38225  26.582  18.796   2.419
69821W        W38226  15.072  36.114   1.711
69822W        W38227  27.921  21.261   4.159
69823W        W38228   0.316   4.916  11.534
69824W        W38229  20.754  29.084  11.532
69825W        W38230   4.533  41.539  10.246
69826W        W38231  19.570   7.803   2.426
69827W        W38232  15.146  16.589  14.741
69828W        W38233  28.579   9.136   3.761
69829W        W38234   2.499  42.450   4.948
69830W        W38235  43.423  11.763   0.742
69831W        W38236   5.896  40.384   2.857
69832W        W38237  20.291   6.353   0.218
69833W        W38238  23.072   1.605   2.143
69834W        W38239  19.125  10.996   9.829
69835W        W38240  19.804  18.755   0.807
69836W        W38241  33.099  36.835   1.664
69837W        W38242  34.909  15.675   1.672
69838W        W38243  21.171  33.064  13.911
69839W        W38244  19.541  16.586   3.775
69840W        W38245  29.018  23.196  10.879
69841W        W38246  11.615  11.601   0.945
69842W        W38247  41.802   4.200   2.724
69843W        W38248  40.266  42.963  14.364
69844W        W38249  29.706  28.139  12.035
69845W        W38250  11.157   3.257   3.169
69846W        W38251   7.314   0.969  14.718
69847W        W38252  23.669  29.437  11.137
69848W        W38253  28.440  35.291   1.435
69849W        W38254  33.966  16.315   2.326
69850W        W38255  20.040  40.804   1.657
69851W        W38256  23.226  32.643  12.053
69852W        W38257  42.741  35.558  13.777
69853W        W38258  11.182  36.560   3.748
69854W        W38259  39.565  13.165  14.300
69855W        W38260   2.677  14.365  11.916
69856W        W38261  25.398  38.984  11.550
69857W        W38262  31.505  22.201   3.845
69858W        W38263  38.060  28.540  11.392
69859W        W38264  27.096  15.675  13.002
69860W        W38265   2.967  30.597   0.530
69861W        W38266   5.905  15.793  14.751
69862W        W38267  14.997  31.640  10.937
69863W        W38268  39.960  23.920   3.590
69864W        W38269  19.687  26.848   5.045
69865W        W38270  28.061  19.736   2.739
69866W        W38271   6.210  21.729   2.830
69867W        W38272  11.070  27.789   2.582
69868W        W38273  36.295  21.677   0.011
69869W        W38274  34.856  25.465   0.669
69870W        W38275  25.668  31.956   1.564
69871W        W38276  36.643  28.988  11.633
69872W        W38277  19.782  26.723   0.803
69873W        W38278   4.723   4.708   2.423
69874W        W38279   5.232  19.722  10.942
69875W        W38280  15.721   3.856  13.522
69876W        W38281  28.339  27.053  12.340
69877W        W38282  34.304  44.976  11.088
69878W        W38283  26.689   4.095  12.124
69879W        W38284  14.493   5.950  14.085
69880W        W38285  29.831  14.633  14.029
69881W        W38286  35.610  42.513   4.338
69882W        W38287  34.674  36.738   2.737
69883W        W38288  24.112  36.778  13.738
69884W        W38289  41.231   6.848  10.628
69885W        W38290  19.275   5.880   1.877
69886W        W38291   7.774  12.798  12.444
69887W        W38292  30.009   5.346  11.473
69888W        W38293  42.800   0.425   0.956
69889W        W38294  18.769  16.069   3.306
69890W        W38295  18.187  27.849  12.037
69891W        W38296  21.584  13.687   1.483
69892W        W38297  29.936  29.720  11.496
69893W        W38298   6.904  22.227   2.583
69894W        W38299  19.080  22.496  11.539
69895W        W38300  14.675  42.904   4.976
69896W        W38301  40.608  26.490   3.847
69897W        W38302  31.854   7.321   4.677
69898W        W38303  15.165  43.229   1.911
69899W        W38304  13.122   7.720   1.237
69900W        W38305  37.318  40.542  14.665
69901W        W38306  17.001   3.831   4.178
69902W        W38307  20.587  15.271   4.810
69903W        W38308   3.906  32.355   0.734
69904W        W38309  42.269  21.114   2.378
69905W        W38310  22.695  21.652   1.624
69906W        W38311  38.318  41.925  12.534
69907W        W38312   4.357  24.524  13.489
69908W        W38313   5.307   9.150  11.607
69909W        W38314   5.248  32.429   0.469
69910W        W38315  14.849   9.387   9.851
69911W        W38316  42.513  34.315  12.900
69912W        W38317  36.037   0.532  14.969
69913W        W38318   6.903  23.559   0.823
69914W        W38319  31.483  43.512   1.821
69915W        W38320  40.304  32.960  14.071
69916W        W38321  21.133  35.044  10.554
69917W        W38322  16.743  44.713  11.101
69918W        W38323  16.806  26.419  14.896
69919W        W38324  15.745  38.859   9.989
69920W        W38325  29.379   5.139   3.711
69921W        W38326  27.938  24.234  12.202
69922W        W38327  28.986  32.414  10.636
69923W        W38328  32.461  34.990  10.707
69924W        W38329  14.810  42.242   1.279
69925W        W38330  39.534  22.240   3.253
69926W        W38331   7.329  44.511  11.478
69927W        W38332   3.696  26.182  10.839
69928W        W38333   3.399  25.129   4.555
69929W        W38334  17.767  44.915   0.736
69930W        W38335  31.630  40.113  10.752
69931W        W38336  42.124   7.291  13.645
69932W        W38337  35.837  19.434   4.576
69933W        W38338  37.778  14.547  14.865
69934W        W38339  43.784  32.951  11.564
69935W        W38340  29.099  22.073   2.635
69936W        W38341  28.949  25.633   2.275
69937W        W38342  22.619  33.456   2.713
69938W        W38343   4.624   6.191  11.955
69939W        W38344   8.831  38.293  10.630
69940W        W38345  17.649  26.760  14.473
69941W        W38346   5.152   8.221   4.612
69942W        W38347   8.287   4.344   3.579
69943W        W38348  42.134  40.375  14.763
69944W        W38349   6.833  25.903   4.054
69945W        W38350  31.143  31.754  14.062
69946W        W38351  33.892  32.780  11.768
69947W        W38352  24.946   0.387  12.993
69948W        W38353  39.793  34.363   1.874
69949W        W38354   6.112  33.693   5.003
69950W        W38355  40.879  33.599  14.540
69951W        W38356  16.327  31.370  11.161
69952W        W38357  13.516  26.485  13.398
69953W        W38358  18.008  19.988   0.873
69954W        W38359  32.060  15.296  11.217
69955W        W38360  13.889  26.624  10.774
69956W        W38361  38.103  21.651  13.796
69957W        W38362  17.516  37.365  12.084
69958W        W38363  33.679  21.170  14.364
69959W        W38364   0.589   6.895   2.906
69960W        W38365   6.761  14.861   1.505
69961W        W38366  11.647  29.170  13.043
69962W        W38367  27.879  38.761   1.697
69963W        W38368  36.856  18.532  11.572
69964W        W38369  39.985   1.936  11.565
69965W        W38370  12.948  21.686   3.959
69966W        W38371  41.954  10.841  11.210
69967W        W38372  35.174  38.441   1.934
69968W        W38373  37.460  29.079   2.615
69969W        W38374  25.660  16.072   0.273
69970W        W38375  16.172   9.207   0.660
69971W        W38376  38.576   7.397   2.384
69972W        W38377  27.628  40.326  14.464
69973W        W38378  40.760  39.027   2.609
69974W        W38379  43.340  31.552   0.423
69975W        W38380  12.326  35.566  14.407
69976W        W38381  32.120  21.462  12.013
69977W        W38382  31.898   2.306   2.859
69978W        W38383   0.970  13.973  12.584
69979W        W38384  41.307   1.762  12.005
69980W        W38385   2.512  37.434   1.989
69981W        W38386  23.211  10.628  14.300
69982W        W38387  21.158   3.657   4.112
69983W        W38388   3.434  12.094   0.398
69984W        W38389  18.200  32.892   3.112
69985W        W38390  34.028  16.045   0.881
69986W        W38391   1.635  11.441  11.563
69987W        W38392  22.226  27.130  11.923
69988W        W38393  25.533  19.273   1.005
69989W        W38394  18.009  32.896  10.635
69990W        W38395  15.686  13.700   4.201
69991W        W38396  41.391  33.047   4.671
69992W        W38397  43.016  12.272   0.347
69993W        W38398  10.834  13.848  10.525
69994W        W38399   0.021  31.999   1.798
69995W        W38400  26.190  15.320  14.070
69996W        W38401   5.885  21.770  11.140
69997W        W38402  35.130  15.795   5.333
69998W        W38403   2.972  29.090   0.215
69999W        W38404  21.366  28.185   0.738
70000W        W38405  24.895  34.106  12.919
70001W        W38406  20.554  17.299  13.596
70002W        W38407  27.298  31.914  14.998
70003W        W38408  19.873  43.274   4.636
70004W        W38409  14.918  23.886   2.325
70005W        W38410  37.112  34.562  14.758
70006W        W38411   8.118  31.161  12.728
70007W        W38412  21.767  20.212   0.252
70008W        W38413  17.784  31.731   4.067
70009W        W38414  44.666  19.223   1.376
70010W        W38415   5.356  14.633  13.566
70011W        W38416  16.516  25.140   2.625
70012W        W38417   5.730   1.732  13.407
70013W        W38418  23.662   5.189   3.684
70014W        W38419  42.977  17.280   4.554
70015W        W38420  27.592  14.757   4.922
70016W        W38421  32.120  12.153  14.336
70017W        W38422  15.282   2.185  10.714
70018W        W38423   0.500  16.338   4.532
70019W        W38424  35.418  42.322   3.397
70020W        W38425   6.108  36.512  10.702
70021W        W38426  39.287  34.580  12.313
70022W        W38427   5.924  26.762  14.067
70023W        W38428  35.499  32.175  10.847
70024W        W38429  41.930  32.650   3.753
70025W        W38430   2.380  14.530  12.847
70026W        W38431  22.484  15.262  10.616
70027W        W38432   9.187  19.339  13.877
70028W        W38433   8.889  29.781  13.885
70029W        W38434  27.878  14.404   5.172
70030W        W38435   0.339   4.342   1.828
70031W        W38436  28.520  44.410   0.748
70032W        W38437  26.671   3.814  14.979
70033W        W38438  16.072  25.369  10.780
70034W        W38439   6.619  28.319  12.458
70035W        W38440   3.270   4.693   1.365
70036W        W38441  39.623  12.219   4.208
70037W        W38442  17.085  23.752   3.221
70038W        W38443  21.119   7.474   2.321
70039W        W38444  28.658   2.187  14.510
70040W        W38445  27.986   9.867   1.924
70041W        W38446  37.012   6.389   1.850
70042W        W38447  10.134  11.212  14.919
70043W        W38448  24.204  21.518  14.926
70044W        W38449  23.658  43.048   4.608
70045W        W38450  27.218  29.170  14.301
70046W        W38451  36.543   0.013  14.512
70047W        W38452  19.756   4.334  14.461
70048W        W38453   6.956  27.976  12.686
70049W        W38454  44.274  33.901   2.844
70050W        W38455  17.975  33.996   4.520
70051W        W38456   7.181  37.874  11.529
70052W        W38457  34.535  17.639   1.961
70053W        W38458   5.224  27.261  13.665
70054W        W38459  33.558   5.657  14.871
70055W        W38460  37.491  13.578  14.077
70056W        W38461  11.767  40.264  10.430
70057W        W38462  17.840   5.498   3.425
70058W        W38463  10.299  41.805   0.723
70059W        W38464   6.224  32.510   3.867
70060W        W38465   0.726  40.376   3.737
70061W        W38466  31.745  43.044   1.716
70062W        W38467  44.365  44.085  11.951
70063W        W38468  27.148  25.100   0.886
70064W        W38469  18.575  35.173  13.800
70065W        W38470  37.705  33.816   0.533
70066W        W38471  33.305  10.178  11.589
70067W        W38472   3.705  43.063  14.181
70068W        W38473  15.491  40.358  13.980
70069W        W38474  19.090  26.742   1.247
70070W        W38475  25.384  24.248  11.150
70071W        W38476   2.703   9.791   2.147
70072W        W38477   5.226  38.948   1.795
70073W        W38478   9.461  30.298  13.239
70074W        W38479  36.211  12.573   1.653
70075W        W38480  20.974  42.006  12.436
70076W        W38481  40.772   7.413   1.881
70077W        W38482   2.953  40.943   4.710
70078W        W38483   9.409  24.535  14.571
70079W        W38484  21.081  39.962  10.768
70080W        W38485  15.677  14.815  14.391
70081W        W38486   6.147  10.686   0.265
70082W        W38487   0.069  18.989  14.956
70083W        W38488   1.882   6.027  11.639
70084W        W38489   4.257  15.048   3.789
70085W        W38490  39.815  10.932   3.971
70086W        W38491  22.135  39.947   4.064
70087W        W38492  26.642  17.636  14.891
70088W        W38493  30.690  18.126   4.137
70089W        W38494  20.459  21.191  12.527
70090W        W38495  30.683  43.800   0.728
70091W        W38496  36.089  30.244   1.806
70092W        W38497   3.186  37.936   2.820
70093W        W38498   5.053   6.500  10.249
70094W        W38499  37.147   0.796   2.317
70095W        W38500  41.719  20.132   2.748
70096W        W38501  25.680   0.904   1.642
70097W        W38502  18.666  29.736   2.846
70098W        W38503   8.795  14.284  11.460
70099W        W38504  16.441  17.757  13.368
70100W        W38505   1.458  22.883  11.096
70101W        W38506  15.741  33.617  14.059
70102W        W38507  13.820  20.272  14.495
70103W        W38508  13.238  25.547  11.363
70104W        W38509  25.245  16.823  11.450
70105W        W38510  31.974  17.082   4.537
70106W        W38511  40.987   2.385  12.346
70107W        W38512   1.968  41.866  11.934
70108W        W38513  32.179  15.718   2.114
70109W        W38514   3.840  18.087  14.459
70110W        W38515  10.721  29.509  14.588
70111W        W38516  23.249   2.947   1.908
70112W        W38517  15.679  23.563  10.108
70113W        W38518   2.798   6.866   0.198
70114W        W38519  18.981  15.764   1.885
70115W        W38520  44.380  13.709  14.281
70116W        W38521  40.837   4.516  11.769
70117W        W38522  12.768   2.825   3.591
70118W        W38523  23.754  23.564  14.478
70119W        W38524  41.768  40.553   0.331
70120W        W38525  23.830  15.157  11.477
70121W        W38526   8.633  32.118   3.574
70122W        W38527  16.286  29.417  11.615
70123W        W38528   1.994  27.093   1.448
70124W        W38529  16.488  39.589  10.906
70125W        W38530  17.961  17.319  12.951
70126W        W38531  16.445   5.830   1.773
70127W        W38532   0.744  31.185  12.066
70128W        W38533  10.217  30.620  13.458
70129W        W38534  22.503  15.790  10.586
70130W        W38535  15.128  28.183  13.324
70131W        W38536  14.531  37.058   3.661
70132W        W38537  17.402  32.035  11.507
70133W        W38538  43.857  41.440   2.341
70134W        W38539  12.883   2.323  13.146
70135W        W38540  24.581   4.443  14.011
70136W        W38541   6.024   7.234   0.377
70137W        W38542  36.050  42.029  10.644
70138W        W38543  25.699   1.380   1.879
70139W        W38544  14.309  10.347  13.889
70140W        W38545   3.455  10.250  12.137
70141W        W38546  33.437  39.971  14.995
70142W        W38547  42.056  43.446  12.542
70143W        W38548  30.147  18.291  11.367
70144W        W38549  36.037  19.164   4.048
70145W        W38550  13.215  38.707  10.535
70146W        W38551  32.518  22.712   4.055
70147W        W38552  39.678  42.259   4.345
70148W        W38553  23.016  25.218   1.311
70149W        W38554  38.781  14.749  14.807
70150W        W38555  32.442   1.677  11.977
70151W        W38556  29.187  35.915   3.273
70152W        W38557  34.573  19.435   4.361
70153W        W38558   4.200  37.380   0.363
70154W        W38559   8.209  41.480   0.001
70155W        W38560  22.244  12.331  11.417
70156W        W38561  22.421  14.784   1.010
70157W        W38562   6.654  14.095   4.698
70158W        W38563  17.144  13.220  12.895
70159W        W38564  16.769  28.450   1.345
70160W        W38565  24.692  42.693  14.447
70161W        W38566   3.053   0.731  14.503
70162W        W38567  30.917  31.146   4.286
70163W        W38568  43.836  30.563   0.745
70164W        W38569  32.925  38.860   4.873
70165W        W38570  27.259   0.333   2.930
70166W        W38571  42.234  39.798   0.423
70167W        W38572  19.598  26.580   1.333
70168W        W38573  17.730   3.241  13.978
70169W        W38574  33.515  24.421  13.873
70170W        W38575   7.625  28.031  10.280
70171W        W38576   1.864  14.029   1.695
70172W        W38577  11.592  17.195   0.115
70173W        W38578  41.969  26.639   3.047
70174W        W38579   2.959  38.181   3.208
70175W        W38580  31.412   7.266   0.681
70176W        W38581   5.315  12.753  12.353
70177W        W38582   9.980  19.317   3.673
70178W        W38583  13.671   6.645  13.449
70179W        W38584  22.736   7.884   0.984
70180W        W38585  10.000  11.894  10.437
70181W        W38586  27.016  27.878  13.954
70182W        W38587  15.558   1.429   0.322
70183W        W38588  21.232  38.410   1.942
70184W        W38589   2.406   1.300  13.500
70185W        W38590   7.660  13.329  12.517
70186W        W38591  16.810  28.029   1.783
70187W        W38592  16.094  39.013   0.225
70188W        W38593  37.241   6.802   5.410
70189W        W38594  17.030   1.968   0.311
70190W        W38595  27.080  30.865  11.599
70191W        W38596   7.184  22.249  13.863
70192W        W38597   0.510  20.571   3.229
70193W        W38598  12.114  34.390   0.983
70194W        W38599  22.122  20.246  13.004
70195W        W38600   9.659   4.962   0.718
70196W        W38601  29.983  24.601   3.775
70197W        W38602  44.793  19.628  11.004
70198W        W38603  29.600  31.696   1.400
70199W        W38604  20.508  13.634  14.929
70200W        W38605  18.692  40.175  13.475
70201W        W38606  40.740   4.470   0.111
70202W        W38607  28.667  29.400   2.034
70203W        W38608  27.662  12.311  14.119
70204W        W38609   3.528  31.438   1.272
70205W        W38610  40.999  26.314  11.170
70206W        W38611   6.642  10.749  11.864
70207W        W38612  27.256  22.316   3.206
70208W        W38613  19.721  37.679   0.317
70209W        W38614   1.323   4.249   3.791
70210W        W38615   2.458  44.707   1.569
70211W        W38616  37.556  24.621  12.511
70212W        W38617  34.448   9.213  12.080
70213W        W38618  39.049  23.245   3.784
70214W        W38619  39.468  23.204  13.584
70215W        W38620   0.319  32.158  13.601
70216W        W38621   1.450   5.810  11.397
70217W        W38622   0.272  29.718   4.686
70218W        W38623  17.028  10.276   1.896
70219W        W38624   6.459  39.894   3.157
70220W        W38625  17.294  29.168  12.281
70221W        W38626  14.354  31.409   4.169
70222W        W38627   1.683  25.247  14.388
70223W        W38628  44.151  44.585  11.954
70224W        W38629  16.550  13.800   0.445
70225W        W38630  40.570   9.071  13.108
70226W        W38631   2.611  44.293   1.267
70227W        W38632  39.052  14.781  14.357
70228W        W38633  18.237   0.901  11.923
70229W        W38634  24.695  25.468   0.834
70230W        W38635  26.604  32.010   2.082
70231W        W38636  15.333  15.108  13.540
70232W        W38637  13.653  43.031  14.029
70233W        W38638  33.518  16.443   3.270
70234W        W38639  20.281  15.475   4.112
70235W        W38640   3.340  23.485  13.355
70236W        W38641  25.175  24.541  12.961
70237W        W38642  42.595  13.630   1.665
70238W        W38643  15.266  38.570   4.533
70239W        W38644  13.793  16.352  14.925
70240W        W38645  30.478   7.880  11.098
70241W        W38646  26.678   0.235  10.839
70242W        W38647  33.187  13.120   3.717
70243W        W38648  39.028   3.756  13.936
70244W        W38649   6.857  44.400   4.172
70245W        W38650  27.168   8.847  10.685
70246W        W38651  33.105  10.209  13.986
70247W        W38652  33.693  20.609  10.780
70248W        W38653  44.518  38.533   0.912
70249W        W38654  41.445  24.553   4.370
70250W        W38655  35.416  43.415  13.054
70251W        W38656  25.453  10.581   2.817
70252W        W38657  43.841  23.070   2.665
70253W        W38658  37.399  26.281  14.097
70254W        W38659  40.315  35.862   2.259
70255W        W38660  19.462  38.602   0.327
70256W        W38661  43.569  27.137   3.810
70257W        W38662   4.716  29.617   2.859
70258W        W38663  11.724   8.214  13.260
70259W        W38664  19.060   8.788   2.238
70260W        W38665  18.257  25.695   3.122
70261W        W38666  30.750  38.616   1.931
70262W        W38667  20.116  11.280  14.461
70263W        W38668  11.076  13.247  11.469
70264W        W38669   7.537  12.854  10.742
70265W        W38670  14.387   9.912   1.198
70266W        W38671   1.748  16.626  14.095
70267W        W38672   9.569  39.034  11.713
70268W        W38673  16.531  16.146   0.619
70269W        W38674   5.800   6.786   3.190
70270W        W38675   1.436  34.542   1.816
70271W        W38676  27.958  21.550  12.803
70272W        W38677  24.074   4.921   2.163
70273W        W38678  20.732  40.846  13.886
70274W        W38679  33.034  29.272   2.318
70275W        W38680  44.884  26.314   1.066
70276W        W38681   0.892  38.954   1.278
70277W        W38682  11.210  24.493  14.730
70278W        W38683  15.381  20.244  14.770
70279W        W38684   3.278  21.220   2.159
70280W        W38685   5.541  25.080  10.669
70281W        W38686  14.721  37.497   1.848
70282W        W38687  16.133  25.623   3.779
70283W        W38688  23.593  11.582   3.121
70284W        W38689  36.161   3.511  11.549
70285W        W38690  41.573  17.874  14.799
70286W        W38691  30.556  28.560   4.835
70287W        W38692   5.143  15.089  13.667
70288W        W38693  37.514  44.831   0.844
70289W        W38694  44.805  20.230  11.553
70290W        W38695   6.314  10.612   4.265
70291W        W38696  42.146  37.478   0.474
70292W        W38697   7.186  28.212  12.205
70293W        W38698  35.549   5.308   1.632
70294W        W38699  14.572  24.440   1.072
70295W        W38700   8.414  31.304   4.175
70296W        W38701  18.328   2.706  13.577
70297W        W38702  24.288   3.059   4.646
70298W        W38703  23.634  26.344  12.826
70299W        W38704  36.351  41.730   0.479
70300W        W38705  15.619  34.140   4.449
70301W        W38706   3.028  41.471   1.548
70302W        W38707  16.651  14.243   1.307
70303W        W38708  35.386  17.695  13.987
70304W        W38709  32.857  27.974  11.451
70305W        W38710  23.703   2.846   0.014
70306W        W38711  33.024  25.056   1.248
70307W        W38712  35.494   6.414  10.858
70308W        W38713  18.183   2.310  11.572
70309W        W38714  38.617  38.779  13.163
70310W        W38715   2.314  40.616  10.841
70311W        W38716  22.472  22.530   3.509
70312W        W38717   6.267  15.702   4.990
70313W        W38718  27.619  11.192  10.605
70314W        W38719  16.079   1.966   2.335
70315W        W38720  10.882  18.599  11.646
70316W        W38721   1.719  21.901   4.009
70317W        W38722  10.665  15.227   3.582
70318W        W38723  13.657  39.500  11.020
70319W        W38724  23.184  28.780  13.121
70320W        W38725  26.763  33.849  12.358
70321W        W38726  16.132   4.762   5.096
70322W        W38727  13.719  31.884   0.234
70323W        W38728   7.777   9.481   2.252
70324W        W38729  43.776  11.831  14.320
70325W        W38730   3.674  14.586  11.781
70326W        W38731  26.170  11.251  10.681
70327W        W38732  18.356  18.994   2.738
70328W        W38733  20.667   8.263   3.824
70329W        W38734  39.137  44.833  11.032
70330W        W38735  44.232   3.778  14.254
70331W        W38736  28.722  41.477   3.705
70332W        W38737   3.159  42.399  11.037
70333W        W38738  42.928  18.636  13.127
70334W        W38739  30.404  35.801  10.691
70335W        W38740  12.376  11.674   0.245
70336W        W38741  11.881   5.412  13.429
70337W        W38742  34.610   7.199   1.794
70338W        W38743   8.003  24.393  14.654
70339W        W38744  20.269  11.161   2.956
70340W        W38745  14.080  37.194   0.874
70341W        W38746   9.094   4.002  12.021
70342W        W38747   7.367   0.273   3.636
70343W        W38748  18.823  31.044  12.506
70344W        W38749  37.936  13.856  14.118
70345W        W38750  28.863   3.884  12.117
70346W        W38751  42.896  14.276  11.571
70347W        W38752   1.198   5.221  12.554
70348W        W38753  42.890  25.322  10.319
70349W        W38754  21.703  31.445   1.761
70350W        W38755  35.303  17.657   4.037
70351W        W38756  17.999  12.339   0.294
70352W        W38757   6.009  24.579  12.627
70353W        W38758  40.508  20.606  13.408
70354W        W38759  40.916  16.754   4.904
70355W        W38760  37.292  19.810   0.925
70356W        W38761  37.817  37.362   2.158
70357W        W38762  33.561  20.254  14.807
70358W        W38763   6.405  19.213  12.093
70359W        W38764  26.021  35.149  13.511
70360W        W38765   6.284  22.696   0.777
70361W        W38766  24.608  35.876   0.523
70362W        W38767  12.766   8.106   1.857
70363W        W38768  32.730  34.011   4.105
70364W        W38769  36.935  19.531   3.083
70365W        W38770  32.975  37.265   0.203
70366W        W38771   4.384  28.382   4.903
70367W        W38772  28.768  14.741   4.205
70368W        W38773   5.331  43.268   4.747
70369W        W38774  33.102  33.259  12.093
70370W        W38775  11.846  38.731  13.847
70371W        W38776  25.308  42.578   3.191
70372W        W38777  21.545   3.737  10.852
70373W        W38778  13.065  29.496  12.929
70374W        W38779   9.733  39.947  10.704
70375W        W38780  14.676  40.301   2.392
70376W        W38781   4.922  40.543  14.252
70377W        W38782  18.560   4.517  13.282
70378W        W38783  31.690  14.405   2.714
70379W        W38784  25.465  37.933  12.428
70380W        W38785   7.695  24.031   2.663
70381W        W38786  15.714  22.252   3.949
70382W        W38787  41.955  41.572   1.330
70383W        W38788  26.131  14.823   4.356
70384W        W38789   7.996   0.675   2.991
70385W        W38790  32.481  25.195   5.267
70386W        W38791  11.306  14.693  13.386
70387W        W38792  37.078  11.375   1.650
70388W        W38793  32.943  23.932   4.215
70389W        W38794  38.422  44.221  12.396
70390W        W38795  26.621  26.188  14.361
70391W        W38796  14.304   6.083  12.903
70392W        W38797  43.470   4.450   3.180
70393W        W38798  12.058  19.359   9.608
70394W        W38799  32.171   1.976   2.265
70395W        W38800  16.236  19.565   4.120
70396W        W38801  15.616  12.831   2.251
70397W        W38802  34.391  38.916  14.286
70398W        W38803  21.660  42.883   3.637
70399W        W38804  32.860   9.721  13.992
70400W        W38805  12.011  28.586  14.133
70401W        W38806   7.389   6.297   3.742
70402W        W38807  14.604  14.643   1.738
70403W        W38808  13.621  11.395  13.703
70404W        W38809  42.575  10.634   4.568
70405W        W38810  29.001  21.182  12.979
70406W        W38811  28.715  43.339  12.052
70407W        W38812  10.810   4.761  11.747
70408W        W38813  20.069  18.183   1.669
70409W        W38814  35.096   8.793  14.269
70410W        W38815   4.903  13.555  12.464
70411W        W38816  38.411  32.180   3.823
70412W        W38817   8.446   3.178  12.032
70413W        W38818  42.633   3.354  12.336
70414W        W38819   1.785  32.753  14.076
70415W        W38820  41.635  37.817   0.782
70416W        W38821  42.755  30.129   3.660
70417W        W38822  28.473  22.592  14.289
70418W        W38823   1.305  25.500  12.368
70419W        W38824  12.310   6.969  11.191
70420W        W38825  27.290  16.506   4.654
70421W        W38826   3.960  19.783  13.516
70422W        W38827  19.635   7.788  10.453
70423W        W38828  16.333  33.466  10.872
70424W        W38829  11.794  37.788  13.390
70425W        W38830  36.368  13.311  12.008
70426W        W38831  29.131   1.707  13.863
70427W        W38832  22.685  42.782  10.192
70428W        W38833   2.417  36.270   1.230
70429W        W38834  17.705   4.953  12.712
70430W        W38835  22.584  14.602   2.323
70431W        W38836  38.905  14.259   2.771
70432W        W38837  41.239  22.660   3.185
70433W        W38838  22.808   5.956   2.231
70434W        W38839  35.644   0.696   1.837
70435W        W38840  29.317  14.284   9.806
70436W        W38841  18.336  18.178   1.215
70437W        W38842  19.477   4.537   3.774
70438W        W38843  33.540  20.170   2.776
70439W        W38844  13.307  22.347  12.607
70440W        W38845  15.720   2.488   4.905
70441W        W38846  27.362   2.654  14.582
70442W        W38847   3.856  34.930  12.611
70443W        W38848   0.087  16.972   0.489
70444W        W38849  37.147  44.846  13.051
70445W        W38850  28.520  33.490   3.792
70446W        W38851  14.744   4.027  11.639
70447W        W38852  40.560  39.535   2.215
70448W        W38853  13.262  26.574  14.993
70449W        W38854   4.965   4.765  14.510
70450W        W38855   4.673  32.356  12.060
70451W        W38856   0.996  44.890   3.542
70452W        W38857  17.121  17.116  14.542
70453W        W38858  43.344   3.208  10.342
70454W        W38859  23.241   0.043   3.657
70455W        W38860  41.393  35.865  12.350
70456W        W38861  33.483  31.945  11.099
70457W        W38862  24.221  22.747  14.701
70458W        W38863   7.413   4.788   0.702
70459W        W38864  25.000  13.650   3.500
70460W        W38865  16.591  11.238   3.833
70461W        W38866  16.158   2.134  10.548
70462W        W38867  13.312  33.301   3.133
70463W        W38868   3.714   5.433   2.044
70464W        W38869  44.047  30.047   1.796
70465W        W38870   4.896  32.710  14.774
70466W        W38871  31.215   3.854  10.713
70467W        W38872  19.547   0.179   4.104
70468W        W38873  10.829   4.423  12.136
70469W        W38874  16.125  16.567  11.600
70470W        W38875  34.643  10.361   4.259
70471W        W38876  37.069  42.372   0.897
70472W        W38877  33.149  37.811  12.064
70473W        W38878  40.524  34.486  10.181
70474W        W38879   5.383  11.672  10.719
70475W        W38880  36.080  27.967   4.473
70476W        W38881  15.393   7.397   0.372
70477W        W38882   7.864  15.224  14.981
70478W        W38883  40.114   4.574  13.994
70479W        W38884  20.826   7.421  12.104
70480W        W38885   1.390   1.107   2.432
70481W        W38886  36.318  40.396  14.848
70482W        W38887  31.201  18.720  11.967
70483W        W38888   2.477  41.695  14.822
70484W        W38889  10.733  17.368   1.621
70485W        W38890  14.037  15.194   4.145
70486W        W38891  20.254   9.650   9.956
70487W        W38892   6.651  39.424   4.171
70488W        W38893   5.714  25.905  12.036
70489W        W38894  17.696   2.896   1.303
70490W        W38895  11.778  29.004  10.601
70491W        W38896   8.152  26.658  13.562
70492W        W38897  27.905  38.422  12.890
70493W        W38898  38.819   9.286  14.881
70494W        W38899  16.344  19.640  11.050
70495W        W38900  25.304  27.478   3.893
70496W        W38901  25.960   1.398   0.313
70497W        W38902   4.274  23.138  11.088
70498W        W38903  25.277  41.244  10.603
70499W        W38904  18.234  18.547  14.735
70500W        W38905  13.599   0.097   0.666
70501W        W38906  34.592  43.691  14.766
70502W        W38907  29.676   2.584  13.044
70503W        W38908   3.918  28.490   4.662
70504W        W38909  42.721   3.691   0.175
70505W        W38910  22.994  38.660  11.237
70506W        W38911  33.192  39.932  10.729
70507W        W38912  11.305  10.243  10.463
70508W        W38913  30.960  10.122   0.966
70509W        W38914  24.349   5.956  13.364
70510W        W38915  39.461  13.017  11.111
70511W        W38916  42.097  22.506   4.570
70512W        W38917  24.983  37.206  12.676
70513W        W38918  35.383  24.530  11.186
70514W        W38919  20.254  35.459   1.868
70515W        W38920  34.365  43.784   4.545
70516W        W38921   8.142  31.056  11.719
70517W        W38922  34.286   3.900  11.632
70518W        W38923  19.235   9.102  10.686
70519W        W38924  39.622  39.437  11.573
70520W        W38925  18.718   6.699  14.926
70521W        W38926  21.598  30.159   4.059
70522W        W38927  40.089  26.172  13.278
70523W        W38928  19.043  14.622  11.951
70524W        W38929  42.336   4.943  10.536
70525W        W38930   4.668  30.166  14.781
70526W        W38931  22.614  24.234  13.522
70527W        W38932  12.752  34.948   2.184
70528W        W38933  17.319   2.555  11.670
70529W        W38934  12.578  13.753   4.213
70530W        W38935  39.943   6.693  11.047
70531W        W38936  14.638  35.303  14.822
70532W        W38937  30.401  20.214  11.066
70533W        W38938   7.691  13.164   0.909
70534W        W38939  10.980  42.398  10.700
70535W        W38940  38.892  10.158   2.229
70536W        W38941   7.648  36.212  12.032
70537W        W38942  21.295  17.839   1.355
70538W        W38943  13.514  43.810   4.216
70539W        W38944  32.376  34.379  12.947
70540W        W38945   6.735  35.878  14.675
70541W        W38946   2.496  32.334  14.961
70542W        W38947  22.721  36.057  11.519
70543W        W38948  12.308   9.048   3.821
70544W        W38949  20.025  33.918   3.345
70545W        W38950  25.667  18.618   1.647
70546W        W38951   1.254  16.400  10.586
70547W        W38952  33.424  36.049   0.932
70548W        W38953   4.350   1.344   1.781
70549W        W38954  11.914  12.881  14.479
70550W        W38955   3.754   8.134   3.712
70551W        W38956   8.034  17.609   1.380
70552W        W38957  13.352  36.341  14.410
70553W        W38958   3.968  18.088  12.903
70554W        W38959   6.715   1.013  13.026
70555W        W38960  26.637  20.065   1.813
70556W        W38961  28.731  32.458  14.448
70557W        W38962  16.862  30.448  11.053
70558W        W38963  26.479  20.189  14.433
70559W        W38964  35.296  28.931   2.311
70560W        W38965  37.619  19.881   0.503
70561W        W38966  24.703  41.851  14.506
70562W        W38967   8.627  21.421  12.155
70563W        W38968  28.938   5.386   2.393
70564W        W38969  34.640  35.361   0.549
70565W        W38970  20.965   6.164   2.733
70566W        W38971  29.990  41.351  11.608
70567W        W38972  22.599  26.603   1.210
70568W        W38973  24.541  39.961  13.786
70569W        W38974   9.977  14.736  12.025
70570W        W38975   1.661  26.821   3.670
70571W        W38976  42.572   2.210   3.187
70572W        W38977  38.984  40.321   2.481
70573W        W38978   2.709  40.061   4.918
70574W        W38979   7.467  25.417   2.248
70575W        W38980  15.308  31.955   1.012
70576W        W38981  11.454  29.857   4.506
70577W        W38982  36.434  31.668  13.244
70578W        W38983  36.841  22.710   2.529
70579W        W38984  25.031  38.314   4.883
70580W        W38985   7.772  20.709  14.230
70581W        W38986   1.521   2.808  14.212
70582W        W38987  26.344  10.277  10.982
70583W        W38988  32.964  27.040   0.802
70584W        W38989  33.421  43.714  11.649
70585W        W38990  14.689  16.912  12.319
70586W        W38991   1.284  26.658  14.866
70587W        W38992   4.718  25.118   1.195
70588W        W38993  39.407  30.470  11.201
70589W        W38994  15.938  25.984   0.531
70590W        W38995  12.864  32.657   4.944
70591W        W38996  32.376  38.389  13.279
70592W        W38997  37.753  28.610  14.073
70593W        W38998  28.583  36.512  10.691
70594W        W38999  14.065  17.025  14.404
70595W        W39000   7.956  12.643   2.680
70596W        W39001  12.400   0.388   0.708
70597W        W39002  28.958  30.556   0.912
70598W        W39003  29.083  33.323  14.293
70599W        W39004   8.235  22.135  13.306
70600W        W39005  20.023   1.185   1.869
70601W        W39006  36.871  42.802   4.285
70602W        W39007   9.684  21.007  14.939
70603W        W39008  20.359  38.799   4.107
70604W        W39009   5.353  17.231   4.519
70605W        W39010  24.240   3.147   3.213
70606W        W39011  11.448  10.849  14.036
70607W        W39012  12.602  38.856  12.125
70608W        W39013   2.477   6.462  13.425
70609W        W39014  20.721  13.393  13.329
70610W        W39015  30.521  30.673   0.043
70611W        W39016  35.993   0.879  12.839
70612W        W39017  25.497  13.072   2.838
70613W        W39018   0.926  40.071  13.508
70614W        W39019   2.732  22.963   4.957
70615W        W39020  20.638  33.116  12.639
70616W        W39021  20.139   9.079  14.326
70617W        W39022  44.444  40.209   2.517
70618W        W39023  26.215  27.115  13.029
70619W        W39024  43.255  27.094   4.245
70620W        W39025  22.231  10.303   2.737
70621W        W39026  11.890  44.463  14.025
70622W        W39027  40.940   8.224  10.495
70623W        W39028   5.977   9.072   1.053
70624W        W39029   8.380   6.520   0.463
70625W        W39030  13.271  23.908  10.525
70626W        W39031  29.329  21.263   0.400
70627W        W39032  26.628  30.676  13.930
70628W        W39033  15.580  25.688   4.855
70629W        W39034  34.870  20.620   2.436
70630W        W39035  14.415   9.056   3.852
70631W        W39036   6.297  13.768   3.673
70632W        W39037  43.759  14.844   1.965
70633W        W39038  33.060  15.077   3.115
70634W        W39039  12.093  16.141   2.707
70635W        W39040   3.383   9.444   3.825
70636W        W39041  30.153  29.063  14.001
70637W        W39042   3.368   4.883  14.170
70638W        W39043  26.494   5.379   3.788
70639W        W39044  44.388  24.758  12.467
70640W        W39045  20.130   0.472  12.937
70641W        W39046   2.344  25.654  11.057
70642W        W39047   9.407  13.857  14.517
70643W        W39048  39.546  23.633  13.851
70644W        W39049   0.534  27.423   1.728
70645W        W39050  37.905  20.503   1.495
70646W        W39051   1.407  10.725   0.389
70647W        W39052   3.179  12.647   5.040
70648W        W39053  21.494  40.073   0.786
70649W        W39054  11.170  32.275   2.913
70650W        W39055  32.681  31.343   2.281
70651W        W39056  11.813  34.548   2.772
70652W        W39057  37.538  18.486  12.053
70653W        W39058   7.892  32.832  12.383
70654W        W39059  13.827  44.820   2.129
70655W        W39060  43.492  20.857   0.970
70656W        W39061  10.401  12.610  11.688
70657W        W39062  11.128  20.704   2.430
70658W        W39063  32.555  39.526   0.949
70659W        W39064  32.661   3.294  14.521
70660W        W39065  31.609  15.540   4.224
70661W        W39066  28.890  19.153  10.699
70662W        W39067  32.674   7.842   0.997
70663W        W39068  28.407  17.770  13.433
70664W        W39069  35.937  10.161   2.484
70665W        W39070  18.534  31.056   4.550
70666W        W39071  42.000  33.619  12.136
70667W        W39072   8.797  31.501  14.508
70668W        W39073  18.705  34.393   0.881
70669W        W39074   8.718  28.719  11.971
70670W        W39075  29.370  35.069   1.716
70671W        W39076   1.742   9.753   0.235
70672W        W39077  43.724   8.710  13.424
70673W        W39078  20.288  30.276   3.285
70674W        W39079   7.262   6.754  10.671
70675W        W39080  41.011   9.952  12.123
70676W        W39081  31.869  21.484   2.201
70677W        W39082  35.936  33.629  10.721
70678W        W39083  21.076  38.835   5.102
70679W        W39084  26.129  14.113  12.677
70680W        W39085  36.405  44.804  10.500
70681W        W39086   0.797  26.448  10.633
70682W        W39087   8.852  15.691  10.918
70683W        W39088  26.028   2.872   4.795
70684W        W39089   9.695  40.086  12.367
70685W        W39090   7.391  23.517   0.955
70686W        W39091   7.796  30.769  11.981
70687W        W39092   6.199  40.362  13.859
70688W        W39093   0.313  13.664   2.231
70689W        W39094  28.062   5.386   3.312
70690W        W39095  19.224  15.010   4.941
70691W        W39096  37.514   6.360  12.563
70692W        W39097   5.855  15.749  12.812
70693W        W39098   4.886  18.868  11.244
70694W        W39099  40.086  28.041   3.648
70695W        W39100  12.678  24.729   1.415
70696W        W39101  16.775  29.595  11.499
70697W        W39102  37.945   8.202   2.145
70698W        W39103  28.180  29.115   0.103
70699W        W39104  26.389   0.815   2.237
70700W        W39105  30.139  30.416  11.967
70701W        W39106  42.458  41.934   2.469
70702W        W39107   2.452  10.002  12.957
70703W        W39108  13.124  28.818  12.083
70704W        W39109  32.848  12.759   0.404
70705W        W39110  27.073   6.480   2.125
70706W        W39111  41.865  14.065   3.721
70707W        W39112  22.739  27.614  14.823
70708W        W39113  10.807   4.350   1.861
70709W        W39114  20.332  27.390   4.117
70710W        W39115  37.987   2.256  10.731
70711W        W39116  11.333  29.079  10.364
70712W        W39117  24.277  36.703   4.829
70713W        W39118   6.213   8.899   3.675
70714W        W39119  36.845  31.588   4.246
70715W        W39120  11.022  28.494  14.081
70716W        W39121  38.389  13.805  12.489
70717W        W39122  30.629  30.931  13.570
70718W        W39123  43.409  41.985  11.171
70719W        W39124  30.930  13.650   3.138
70720W        W39125   2.226  43.774  10.509
70721W        W39126  19.243   2.672  12.038
70722W        W39127  25.257   0.361  11.715
70723W        W39128  39.817  39.423  11.101
70724W        W39129  43.459   0.873   9.856
70725W        W39130  38.341   5.806  13.076
70726W        W39131   9.848  27.221  13.036
70727W        W39132  14.364  12.628  13.994
70728W        W39133   4.782  17.038  12.795
70729W        W39134   8.860  11.782   1.062
70730W        W39135  43.395  29.700  14.937
70731W        W39136  29.918  10.216  10.843
70732W        W39137  13.554  26.223   1.338
70733W        W39138  21.206  21.556   1.382
70734W        W39139  40.865  22.966  11.898
70735W        W39140  38.337  18.703  14.132
70736W        W39141  24.509   1.805   2.660
70737W        W39142  19.829  27.045   1.217
70738W        W39143   0.953  30.466  14.411
70739W        W39144   7.102  23.166  12.935
70740W        W39145  26.494  11.441   0.237
70741W        W39146  12.155  34.570  11.165
70742W        W39147   7.361  25.897   0.910
70743W        W39148  35.031  18.756  13.002
70744W        W39149  33.417  43.347   4.284
70745W        W39150  11.854  15.719   3.170
70746W        W39151  37.323  32.171  14.031
70747W        W39152  43.822  28.098  13.494
70748W        W39153   2.225  30.098  12.923
70749W        W39154   9.906  41.021   0.365
70750W        W39155  31.259   5.773   1.831
70751W        W39156   7.953  12.574  11.980
70752W        W39157  27.986  44.842  11.076
70753W        W39158   2.780   4.399  14.962
70754W        W39159   2.019  12.866  10.748
70755W        W39160  28.012   5.411   0.383
70756W        W39161  33.022  32.232  14.370
70757W        W39162   4.341  30.062  12.963
70758W        W39163  23.611   7.202  12.454
70759W        W39164  28.830  41.726  13.973
70760W        W39165  12.145   1.823  12.121
70761W        W39166  13.674   3.605  14.492
70762W        W39167   5.824  39.911   4.141
70763W        W39168  28.469  18.058  12.105
70764W        W39169  30.416  41.932   2.856
70765W        W39170  11.290  34.986  13.144
70766W        W39171   6.943  31.020  14.997
70767W        W39172   5.278  41.269  11.201
70768W        W39173  10.397  24.034   2.260
70769W        W39174   6.269  42.721  11.433
70770W        W39175  24.207   9.701   0.268
70771W        W39176   4.445  41.103  14.038
70772W        W39177  13.932  12.912  11.063
70773W        W39178  37.607  19.555  11.035
70774W        W39179  14.081  17.221   2.340
70775W        W39180  10.391  38.902   0.493
70776W        W39181  39.997  41.650  12.498
70777W        W39182  12.022  16.356   1.669
70778W        W39183  34.782  40.561   2.751
70779W        W39184  32.834  32.156  13.536
70780W        W39185  24.853  14.867  12.452
70781W        W39186  15.654  40.273  13.453
70782W        W39187  22.226   0.402   2.318
70783W        W39188  13.536   5.498   2.742
70784W        W39189  13.676  34.134   3.227
70785W        W39190  44.364  17.469   3.039
70786W        W39191   6.895  24.990   0.761
70787W        W39192  21.193  19.227  11.846
70788W        W39193  26.971   8.862  12.541
70789W        W39194  22.991  20.785   2.412
70790W        W39195  44.211  13.210  11.472
70791W        W39196   6.514  34.092  12.897
70792W        W39197  36.490  20.051  13.973
70793W        W39198   5.839  33.786  11.267
70794W        W39199  10.915   2.225   1.365
70795W        W39200  36.567   1.234   3.149
70796W        W39201  28.788  20.583  11.230
70797W        W39202  20.578  16.611   4.688
70798W        W39203  43.179   6.093   4.548
70799W        W39204  44.231  26.609   2.759
70800W        W39205   8.422  14.192   0.236
70801W        W39206  17.040  22.510  14.486
70802W        W39207  33.431  25.223   3.833
70803W        W39208  18.734  44.871   3.128
70804W        W39209  19.677  22.923  13.556
70805W        W39210  15.527  33.148  14.145
70806W        W39211   6.822  33.596   1.437
70807W        W39212  43.308  41.723  10.734
70808W        W39213   1.452  30.495   2.677
70809W        W39214  27.926  22.117  10.764
70810W        W39215  43.846   9.707   2.453
70811W        W39216  18.802   2.450   4.575
70812W        W39217   1.336  37.999   3.535
70813W        W39218  42.256  18.051  12.598
70814W        W39219  35.028  29.578  11.171
70815W        W39220  10.829  23.212   2.824
70816W        W39221  32.489   9.661   0.733
70817W        W39222  17.693  14.651  10.881
70818W        W39223  27.465  18.629  12.617
70819W        W39224  38.011   6.768  13.753
70820W        W39225  22.803  30.384  13.056
70821W        W39226  13.804   0.810   1.631
70822W        W39227  10.197   7.731   9.736
70823W        W39228  34.383  44.658  14.367
70824W        W39229  14.595  28.091   4.259
70825W        W39230  11.691  37.498  10.751
70826W        W39231  31.443  10.856   4.501
70827W        W39232  22.930  44.935  11.046
70828W        W39233  10.548   8.234   4.617
70829W        W39234  17.754  34.402  14.345
70830W        W39235  31.440   5.766  11.182
70831W        W39236  23.290  13.734   1.171
70832W        W39237  40.304  13.526   4.648
70833W        W39238   4.756  25.596  10.725
70834W        W39239  38.592  30.942   1.392
70835W        W39240  33.823   7.304   2.224
70836W        W39241   3.016  11.943  13.341
70837W        W39242   7.462  19.728   3.821
70838W        W39243   2.824  40.294   2.299
70839W        W39244  29.889  14.870  13.582
70840W        W39245  44.396  10.609  10.554
70841W        W39246   2.456   7.760   0.312
70842W        W39247  27.769  12.050   4.662
70843W        W39248   6.007  38.498  14.018
70844W        W39249  30.270   6.731  13.465
70845W        W39250   2.381   7.595   4.043
70846W        W39251  38.585   5.311   3.498
70847W        W39252  11.359   5.820   1.830
70848W        W39253  14.089  11.352   2.633
70849W        W39254   8.246   7.289   1.865
70850W        W39255   9.382  29.126   0.490
70851W        W39256  27.950  19.745   3.251
70852W        W39257  13.298  44.780   2.924
70853W        W39258   6.334  32.432   4.367
70854W        W39259  42.731   0.159  11.690
70855W        W39260  15.150  10.031  13.268
70856W        W39261  32.550  25.581   2.750
70857W        W39262  28.680  42.499  12.957
70858W        W39263  34.690  21.109   4.690
70859W        W39264   0.356  19.015   3.218
70860W        W39265  41.726  41.429   4.465
70861W        W39266   2.198  13.642  14.913
70862W        W39267  36.853   4.593   4.369
70863W        W39268  35.998  26.766  12.713
70864W        W39269  36.462   5.998   0.601
70865W        W39270  33.098  38.776  10.622
70866W        W39271  44.265  28.544  13.812
70867W        W39272  33.221  23.446   3.702
70868W        W39273  14.255   9.895  12.696
70869W        W39274  36.936  25.016   0.847
70870W        W39275  24.634  34.861  13.425
70871W        W39276   0.283   2.962   1.612
70872W        W39277  19.232  43.017   0.892
70873W        W39278  36.318  27.682   0.493
70874W        W39279  19.833  27.610   2.870
70875W        W39280  33.120  35.424   3.191
70876W        W39281  30.061  13.572  14.038
70877W        W39282  13.684  16.396  11.455
70878W        W39283  42.537  31.987   3.423
70879W        W39284  44.669   7.564  11.643
70880W        W39285  20.424   5.465   2.352
70881W        W39286   8.156   2.712  12.040
70882W        W39287  39.041  39.596  13.405
70883W        W39288   5.224   7.642  12.564
70884W        W39289  33.127  29.069   4.261
70885W        W39290  20.740  11.630   2.890
70886W        W39291  11.737  14.705  13.119
70887W        W39292   2.878   3.508  14.760
70888W        W39293  19.412  32.592   2.832
70889W        W39294  30.441   0.933   2.257
70890W        W39295  19.582  34.561  10.556
70891W        W39296  18.993  33.901  14.856
70892W        W39297  17.795  25.203  12.444
70893W        W39298  15.262  30.574   0.383
70894W        W39299  28.335   4.360   3.304
70895W        W39300  44.524   0.464  12.959
70896W        W39301  29.847  28.468  10.719
70897W        W39302  33.451  36.115  13.945
70898W        W39303  42.355  10.850  14.180
70899W        W39304   2.422   2.823  14.766
70900W        W39305  35.000  29.045  11.170
70901W        W39306  36.824  30.285   1.249
70902W        W39307  32.215  29.135  12.843
70903W        W39308  33.254  33.530  12.500
70904W        W39309  34.100  23.563   1.443
70905W        W39310  25.041  37.865  11.155
70906W        W39311  19.669  22.107  14.270
70907W        W39312   6.628  34.020  14.274
70908W        W39313  15.853  14.299  14.340
70909W        W39314   9.671  21.680  13.760
70910W        W39315  17.291   6.401   3.646
70911W        W39316  13.863  29.051   3.786
70912W        W39317  44.807  29.441   4.625
70913W        W39318  32.945  29.690  14.799
70914W        W39319  29.589  41.801  14.637
70915W        W39320  24.666   4.346   4.668
70916W        W39321   2.839   2.963   1.187
70917W        W39322  22.478  21.635  11.131
70918W        W39323  12.145  32.442   0.182
70919W        W39324  18.569  19.346   2.429
70920W        W39325   5.005  44.998  14.416
70921W        W39326  37.747  24.642  12.048
70922W        W39327  13.047  32.519   0.388
70923W        W39328  18.137  34.862   4.489
70924W        W39329   0.801  32.098  10.436
70925W        W39330   4.273  17.729   2.290
70926W        W39331  23.777  43.891  14.989
70927W        W39332  38.953  40.878  11.208
70928W        W39333  34.102   2.847  12.924
70929W        W39334  21.037  34.880   2.884
70930W        W39335  15.596  22.231  14.348
70931W        W39336  39.748   5.774  10.630
70932W        W39337  31.620  22.378   3.360
70933W        W39338  35.387  39.424  13.563
70934W        W39339  19.828  16.240  13.166
70935W        W39340   8.848  43.929  14.091
70936W        W39341  42.833  30.947  12.331
70937W        W39342   9.071  42.377   0.289
70938W        W39343  21.911  32.959  13.849
70939W        W39344  17.473   7.845   4.447
70940W        W39345   3.601  20.151   5.022
70941W        W39346  30.936  40.331  10.172
70942W        W39347  42.814  30.968  13.362
70943W        W39348  33.631   8.790  12.162
70944W        W39349  32.934  33.687  11.636
70945W        W39350  31.705  21.806   3.592
70946W        W39351  33.636  36.011   2.991
70947W        W39352   0.709  12.052  12.807
70948W        W39353  27.595  21.134   1.078
70949W        W39354  17.218  16.689  14.244
70950W        W39355  36.310   5.664   1.948
70951W        W39356  12.317   4.325  14.399
70952W        W39357  12.673  34.119  14.059
70953W        W39358  43.254  26.496   3.407
70954W        W39359  32.955  14.006   4.005
70955W        W39360  42.101   0.238  12.099
70956W        W39361  11.189  29.014  12.332
70957W        W39362  17.479   7.663   3.144
70958W        W39363   7.867  16.273   1.926
70959W        W39364  18.012  31.692  11.327
70960W        W39365  24.758  13.044   4.580
70961W        W39366  36.025  42.736   4.118
70962W        W39367   7.306   7.328  14.274
70963W        W39368  40.809  11.531   2.261
70964W        W39369  13.693  25.420   4.361
70965W        W39370   0.703  18.132  14.989
70966W        W39371  28.154  18.312   4.096
70967W        W39372  24.958  10.715  14.978
70968W        W39373  44.372  33.100  13.925
70969W        W39374  26.420  22.492   2.280
70970W        W39375  28.631  39.832  12.050
70971W        W39376  33.516  15.573   2.245
70972W        W39377  10.923  21.704   2.894
70973W        W39378   5.488  24.488  12.716
70974W        W39379  28.767  39.440  13.387
70975W        W39380  11.788  43.029   1.868
70976W        W39381   6.958  24.280  11.183
70977W        W39382   5.595  38.161  12.570
70978W        W39383  20.869  30.350  14.829
70979W        W39384  11.530  26.130   2.767
70980W        W39385  22.588   4.980   4.936
70981W        W39386  26.200   8.260   0.711
70982W        W39387   1.678  32.440   1.081
70983W        W39388  37.940  34.870   1.894
70984W        W39389  11.385  41.207  10.401
70985W        W39390  30.115  39.502  14.363
70986W        W39391  36.404  40.535   4.148
70987W        W39392  34.323   0.903  13.407
70988W        W39393  20.325  39.127   2.221
70989W        W39394   0.093  10.217  11.569
70990W        W39395  37.568  44.898  14.395
70991W        W39396  21.252  11.889  12.548
70992W        W39397  37.444  11.789  10.706
70993W        W39398  14.007  44.873  12.872
70994W        W39399  24.122  25.429   2.159
70995W        W39400  21.992  19.525  11.620
70996W        W39401  42.557   2.380  14.909
70997W        W39402  20.080  16.557   2.177
70998W        W39403  34.039   3.273   3.696
70999W        W39404  30.016  15.301  12.051
71000W        W39405  44.343  37.053  10.422
71001W        W39406  35.624   4.222   0.226
71002W        W39407  43.063  43.304   0.226
71003W        W39408  23.183   5.676  14.177
71004W        W39409   4.643  41.221   0.805
71005W        W39410  29.983  20.082  13.392
71006W        W39411  10.246  25.888  13.557
71007W        W39412  37.007  18.299  14.768
71008W        W39413  40.824   8.407   4.828
71009W        W39414  44.481  29.895  14.734
71010W        W39415   4.703  19.688  13.091
71011W        W39416  14.670   7.221   3.760
71012W        W39417   3.711  18.235  10.720
71013W        W39418  20.323   7.015   2.653
71014W        W39419   6.842  14.845  14.469
71015W        W39420   2.464  43.519   3.799
71016W        W39421  12.264  31.961   2.000
71017W        W39422  44.810   7.644   3.155
71018W        W39423  19.164  41.480  11.670
71019W        W39424   1.671  24.107   2.814
71020W        W39425  15.734  24.614   3.785
71021W        W39426   6.191  37.879  13.873
71022W        W39427  23.618  41.815  14.478
71023W        W39428  11.895  26.202  11.475
71024W        W39429   8.129   0.818   1.759
71025W        W39430   9.133  15.179   3.649
71026W        W39431  28.089  22.648   2.398
71027W        W39432  33.397  31.067   1.777
71028W        W39433   1.833  21.843   1.664
71029W        W39434  43.446  40.318  14.696
71030W        W39435   1.250   7.897  12.583
71031W        W39436   9.667  19.658   3.114
71032W        W39437  42.828   0.421  13.939
71033W        W39438  27.756  38.388  11.523
71034W        W39439  21.157   4.973   0.987
71035W        W39440   1.770  29.288  13.582
71036W        W39441  30.083  42.886   1.391
71037W        W39442   5.749  19.091  10.728
71038W        W39443   4.254  10.660   1.597
71039W        W39444  36.679  40.301  11.585
71040W        W39445  44.805  32.623  14.440
71041W        W39446   3.180  19.246   3.669
71042W        W39447  37.340  40.783   1.975
71043W        W39448  22.707   9.692   0.443
71044W        W39449  40.271  15.362  13.356
71045W        W39450  14.199   3.916   0.269
71046W        W39451   1.124  44.285  11.941
71047W        W39452  19.317  24.764   3.750
71048W        W39453  32.390  31.185   3.203
71049W        W39454  42.745  41.562  13.850
71050W        W39455  38.900  23.547   1.473
71051W        W39456  22.339  44.514   0.189
71052W        W39457  24.020   1.953  11.589
71053W        W39458  28.906  44.894   0.250
71054W        W39459  29.004  39.895  14.980
71055W        W39460  36.856  25.959  11.602
71056W        W39461   1.834  35.436   1.661
71057W        W39462  28.266   7.954  13.549
71058W        W39463  17.297  11.219  12.069
71059W        W39464  29.672  24.109  13.677
71060W        W39465  17.270   5.936  12.833
71061W        W39466   4.325   2.131   2.182
71062W        W39467  38.795  40.920  12.065
71063W        W39468  32.358  34.920  13.626
71064W        W39469   6.965  15.817  14.733
71065W        W39470  36.467   4.237  14.366
71066W        W39471  29.145   3.928  10.828
71067W        W39472   0.982  18.954   0.312
71068W        W39473  22.615  27.535   4.666
71069W        W39474  41.708  37.674  13.454
71070W        W39475  35.607  33.314  13.103
71071W        W39476  20.633  19.087   2.342
71072W        W39477  10.012  14.131  12.881
71073W        W39478  19.613   6.902  10.914
71074W        W39479  40.352  10.620   3.159
71075W        W39480  20.175   8.732  10.424
71076W        W39481  23.403   3.748   1.257
71077W        W39482   5.389  11.630   4.094
71078W        W39483  22.073  28.413   3.626
71079W        W39484   6.235   5.401   3.677
71080W        W39485   9.342  24.514  14.030
71081W        W39486  40.533   8.239   1.253
71082W        W39487  36.419  39.954   1.883
71083W        W39488  21.273  32.109  13.875
71084W        W39489  14.542  31.204  11.597
71085W        W39490  22.641  17.304  14.013
71086W        W39491  28.193  17.175  12.529
71087W        W39492  25.999   5.707   2.727
71088W        W39493  14.068  12.227   2.796
71089W        W39494  20.272  43.876   1.382
71090W        W39495  24.522  15.239   3.625
71091W        W39496  13.645  31.101  11.586
71092W        W39497  36.220  32.617   2.787
71093W        W39498  23.969  39.508  14.512
71094W        W39499  14.723  36.874  13.491
71095W        W39500  39.170  24.651   0.361
71096W        W39501  16.174  38.638   3.364
71097W        W39502  10.795  33.621  12.512
71098W        W39503   1.317   3.370  13.482
71099W        W39504   7.850  22.874  12.642
71100W        W39505  39.763   7.628   5.148
71101W        W39506  32.813  43.524   2.247
71102W        W39507  15.749  23.576   3.517
71103W        W39508  31.411  20.950   1.009
71104W        W39509  30.549   2.290  13.818
71105W        W39510  42.369  13.637  12.465
71106W        W39511  31.357  36.091  14.934
71107W        W39512  19.718  17.063  12.698
71108W        W39513   6.483   2.154   0.913
71109W        W39514  18.994   2.591  12.912
71110W        W39515  30.416  41.796  12.071
71111W        W39516  20.963  18.718   0.321
71112W        W39517  39.031   8.432  14.286
71113W        W39518  14.823  27.637  14.518
71114W        W39519   4.176   3.219   0.323
71115W        W39520  16.843  20.469   4.718
71116W        W39521  23.104  39.869  11.052
71117W        W39522  37.463  31.961  13.062
71118W        W39523   6.702   8.591  12.087
71119W        W39524   3.990  37.497   2.971
71120W        W39525  42.297   5.660   0.789
71121W        W39526   7.579  38.323  12.127
71122W        W39527  10.946  15.722   4.651
71123W        W39528  33.593  11.552   3.999
71124W        W39529  17.313  14.556   1.114
71125W        W39530   5.486  12.234  12.958
71126W        W39531   5.850   7.599  10.334
71127W        W39532   1.747  27.704  10.709
71128W        W39533   7.795  36.376  12.510
71129W        W39534  40.612  40.427  11.518
71130W        W39535  38.768  11.233  14.952
71131W        W39536  26.546   8.330  13.384
71132W        W39537   8.892  11.565   1.534
71133W        W39538  22.149  44.698   1.937
71134W        W39539  39.878  25.530   1.847
71135W        W39540  31.427  41.747   4.242
71136W        W39541  19.500  40.950   2.439
71137W        W39542  23.534  24.963  12.344
71138W        W39543  15.606  39.981   1.819
71139W        W39544   0.291  28.447  10.742
71140W        W39545  17.993  36.761  11.219
71141W        W39546  34.949  42.568   2.412
71142W        W39547  33.365  33.433   1.356
71143W        W39548   4.001  12.062   2.313
71144W        W39549  27.028  20.743   3.236
71145W        W39550  20.648   4.900  12.974
71146W        W39551  41.952  21.621   3.638
71147W        W39552  23.691  44.013   3.335
71148W        W39553  11.257  25.718   1.384
71149W        W39554  33.079  25.445   0.640
71150W        W39555   5.264  26.426  12.382
71151W        W39556  26.564  28.271  11.049
71152W        W39557  43.432  42.291   1.675
71153W        W39558   3.616  30.933   1.079
71154W        W39559  34.257  37.465  10.819
71155W        W39560   3.656   1.749  10.358
71156W        W39561  20.481   0.687  13.825
71157W        W39562  29.019   0.663   1.191
71158W        W39563  31.555  32.189   1.400
71159W        W39564  30.143  22.334  11.012
71160W        W39565   3.305   6.792  13.432
71161W        W39566  32.004  44.713  11.025
71162W        W39567   1.454  26.106   2.886
71163W        W39568  23.155  33.371  13.142
71164W        W39569  38.480  18.523   1.820
71165W        W39570  28.382  19.096   4.091
71166W        W39571  18.543  42.370  13.364
71167W        W39572   9.163  43.073  11.235
71168W        W39573  23.648   5.812   2.233
71169W        W39574  36.954  12.330  12.031
71170W        W39575  41.765   1.500  14.888
71171W        W39576  29.860  44.466   2.364
71172W        W39577   6.331  19.598   0.960
71173W        W39578  35.866  12.795   3.795
71174W        W39579   7.837  33.467   4.525
71175W        W39580  12.814  15.533   4.152
71176W        W39581   8.605  14.877  13.973
71177W        W39582  28.913  31.006   1.680
71178W        W39583  28.031   6.045  11.559
71179W        W39584   5.795   0.751   3.283
71180W        W39585  32.445   1.947   0.409
71181W        W39586  28.930   6.233  13.550
71182W        W39587   2.807  35.914   2.728
71183W        W39588  17.658  38.658  12.830
71184W        W39589  30.665  19.648  12.985
71185W        W39590  36.375  38.483   2.825
71186W        W39591  44.208  18.207   4.686
71187W        W39592  14.130  35.490  13.353
71188W        W39593  22.064  15.658   4.692
71189W        W39594  34.036  24.034   1.192
71190W        W39595  33.031  14.620  13.140
71191W        W39596  20.860   9.185   5.561
71192W        W39597  33.264  20.081  12.494
71193W        W39598  19.726   4.763  11.369
71194W        W39599  21.588   8.412  10.679
71195W        W39600  21.201  25.279  14.551
71196W        W39601  20.290  17.043   4.598
71197W        W39602  14.696  21.814   2.970
71198W        W39603  27.989  28.169  13.998
71199W        W39604  18.680  21.932   5.330
71200W        W39605  13.164  20.108   2.141
71201W        W39606   0.809  21.178   3.344
71202W        W39607  14.226  26.189   0.899
71203W        W39608  11.110   1.895   2.022
71204W        W39609  42.701   5.362   2.276
71205W        W39610   3.410  18.284   0.389
71206W        W39611  40.105  31.430  14.056
71207W        W39612  36.025   1.980  13.408
71208W        W39613  18.246  25.154   3.081
71209W        W39614  31.062  11.885  13.675
71210W        W39615  17.956  40.389  11.012
71211W        W39616   9.278  18.063  13.057
71212W        W39617   4.712  44.879  13.095
71213W        W39618  39.579  39.040  13.093
71214W        W39619  32.067  18.494   4.154
71215W        W39620  39.398   7.723   0.785
71216W        W39621  23.625  39.777   0.331
71217W        W39622  41.949  22.321  13.342
71218W        W39623  21.991  19.817   1.771
71219W        W39624  32.440  18.211  12.138
71220W        W39625  35.463  36.628  11.679
71221W        W39626  41.485  31.434  12.204
71222W        W39627  43.195  28.924   0.493
71223W        W39628  27.659  37.089   2.229
71224W        W39629  32.065  38.830   3.877
71225W        W39630  21.574  17.613  12.440
71226W        W39631  27.066  36.857   4.236
71227W        W39632   1.446   0.572  12.452
71228W        W39633  26.873  19.168  11.589
71229W        W39634  39.812  15.166   2.267
71230W        W39635   5.902   1.953   3.786
71231W        W39636  29.000  17.641  11.827
71232W        W39637   4.504   3.299  10.993
71233W        W39638  12.848  42.492   2.674
71234W        W39639  12.940  14.664   3.997
71235W        W39640  21.972  33.509  14.780
71236W        W39641  33.074  40.246   3.614
71237W        W39642  22.105  16.489  12.534
71238W        W39643  24.102   4.915  11.178
71239W        W39644   7.241  15.920  12.057
71240W        W39645  41.281  29.250   3.803
71241W        W39646   1.499  26.533   0.438
71242W        W39647  30.869  31.466   0.751
71243W        W39648  22.497   1.068   0.337
71244W        W39649  31.084  17.757  10.119
71245W        W39650  29.204   0.976   3.120
71246W        W39651  21.160   1.698  13.616
71247W        W39652  36.362  14.844  12.049
71248W        W39653  24.412  26.741   3.199
71249W        W39654   3.947  35.298  12.990
71250W        W39655  12.099  24.101   0.685
71251W        W39656  38.898  35.790  14.184
71252W        W39657  43.815  32.368   3.983
71253W        W39658  18.603  30.606   2.207
71254W        W39659  33.458  30.580  10.888
71255W        W39660  40.567  32.167   0.365
71256W        W39661   3.331  18.126  12.065
71257W        W39662  38.900  21.562   4.146
71258W        W39663  16.599   3.412  11.620
71259W        W39664   1.422  34.652  12.582
71260W        W39665  33.344  18.061  12.520
71261W        W39666  39.446  11.072  13.369
71262W        W39667  17.233  44.796   2.193
71263W        W39668  14.704  32.464  14.077
71264W        W39669   7.623   4.788  12.392
71265W        W39670   3.720  21.088  12.935
71266W        W39671  38.043   0.550   3.739
71267W        W39672  36.802  42.925   1.301
71268W        W39673  13.736  17.618   2.281
71269W        W39674  10.113  38.636  11.179
71270W        W39675  10.369   7.057  14.840
71271W        W39676  28.921  29.478   3.274
71272W        W39677  44.275   3.826  12.444
71273W        W39678  15.241   8.172   0.844
71274W        W39679   5.883  12.279   3.541
71275W        W39680  23.629   9.214  13.425
71276W        W39681  10.965  22.717  10.884
71277W        W39682  21.118  38.550  14.907
71278W        W39683  43.016  21.144  12.108
71279W        W39684  40.918  25.604   0.770
71280W        W39685  38.455  22.766   2.304
71281W        W39686  17.583   4.308   0.565
71282W        W39687  11.942   6.417  13.484
71283W        W39688  42.202  36.406   0.442
71284W        W39689  15.352   8.933  11.147
71285W        W39690  22.508  36.234  10.568
71286W        W39691  27.080   0.810  11.543
71287W        W39692  13.200  21.629  11.902
71288W        W39693  22.151  11.368   1.886
71289W        W39694  11.608  36.798  12.126
71290W        W39695  35.963  27.480  11.211
71291W        W39696  19.653  34.732  14.212
71292W        W39697  35.123   9.769  12.448
71293W        W39698  38.519  20.123  14.567
71294W        W39699   5.795   2.765   3.473
71295W        W39700  26.526  36.147   4.659
71296W        W39701   5.801  34.581  10.879
71297W        W39702   9.816  30.347  12.031
71298W        W39703   4.857  32.247  10.165
71299W        W39704  34.371  39.777   1.490
71300W        W39705  33.615  30.320   0.181
71301W        W39706  29.465  29.154  13.509
71302W        W39707  38.109  43.698   2.248
71303W        W39708  24.780  33.391  11.250
71304W        W39709  26.762  44.052   4.085
71305W        W39710  41.947  15.764  10.445
71306W        W39711  29.691  41.940   0.226
71307W        W39712   2.378  40.971   4.481
71308W        W39713  28.896   1.687   4.755
71309W        W39714  38.135  22.186   0.882
71310W        W39715   1.006  14.635  11.065
71311W        W39716  23.873  41.516  11.525
71312W        W39717  12.340  29.244   3.872
71313W        W39718  30.649  15.128  13.955
71314W        W39719  10.984   2.286  12.571
71315W        W39720  34.616  44.422   0.556
71316W        W39721  21.760  39.545  11.113
71317W        W39722  32.523  39.868  11.408
71318W        W39723  13.969  15.758  11.953
71319W        W39724   3.877   7.295   0.771
71320W        W39725  42.370  31.482   3.188
71321W        W39726  28.531  30.521   4.770
71322W        W39727   7.217   3.513  10.739
71323W        W39728  41.505  31.703  13.973
71324W        W39729   4.899  41.735  12.089
71325W        W39730   8.070   5.465  11.462
71326W        W39731  35.529  13.836   0.651
71327W        W39732   1.072   0.399   0.264
71328W        W39733  22.256  13.647   0.734
71329W        W39734  24.605  20.274  14.730
71330W        W39735  35.062   4.054   1.863
71331W        W39736  42.258   7.729   0.676
71332W        W39737  39.700  33.833  11.153
71333W        W39738  37.337  44.438  14.464
71334W        W39739  44.906  10.222  10.172
71335W        W39740  10.935  15.069  12.991
71336W        W39741  29.509  34.890  11.911
71337W        W39742  17.606  24.113   3.368
71338W        W39743  24.027  10.865  11.584
71339W        W39744  33.409  30.497   2.204
71340W        W39745  40.817  16.905  13.905
71341W        W39746  44.213  35.001   0.362
71342W        W39747  13.530  22.167  13.908
71343W        W39748  11.782  20.974  12.019
71344W        W39749   0.209  43.018  11.151
71345W        W39750  31.370  13.845   0.712
71346W        W39751  30.519  41.955  12.548
71347W        W39752  25.476  35.616  11.144
71348W        W39753  15.261  38.619   3.838
71349W        W39754   7.851   6.292  11.292
71350W        W39755  32.478  44.051   4.609
71351W        W39756  23.791  23.170  12.933
71352W        W39757   3.801  29.632  14.874
71353W        W39758  36.364  42.905   3.189
71354W        W39759  30.328   1.412   1.564
71355W        W39760   8.876  26.630  12.555
71356W        W39761   0.930  14.844   3.235
71357W        W39762  22.143  10.075   3.326
71358W        W39763  19.670  22.813   4.434
71359W        W39764   8.521  33.572   5.234
71360W        W39765   3.237  42.866  14.082
71361W        W39766  17.710  10.540  11.517
71362W        W39767  30.892  32.997   3.344
71363W        W39768  27.364  34.407  10.789
71364W        W39769   5.211  44.206   3.709
71365W        W39770  41.829   1.707  10.430
71366W        W39771  14.302  13.320  12.053
71367W        W39772  12.226  27.709   4.451
71368W        W39773   2.266  14.909   1.011
71369W        W39774  21.013  16.835   1.320
71370W        W39775  10.379  12.179   0.875
71371W        W39776  23.100  41.017   0.339
71372W        W39777   3.020  10.382  12.388
71373W        W39778   7.210  28.380  10.207
71374W        W39779  35.535  14.477   3.070
71375W        W39780  21.643  27.711   2.748
71376W        W39781  39.045  17.284  12.046
71377W        W39782  40.540  12.402  10.312
71378W        W39783  38.589  38.544  14.464
71379W        W39784   8.595  32.300   1.681
71380W        W39785  16.153  11.699  14.436
71381W        W39786  22.027  27.397   0.421
71382W        W39787  28.707  39.972   1.178
71383W        W39788  26.882  39.403  12.804
71384W        W39789  27.874  44.246   5.013
71385W        W39790  21.548  42.671   0.214
71386W        W39791  13.972   8.221  14.924
71387W        W39792  25.663   7.594  11.065
71388W        W39793  21.997  31.684   0.128
71389W        W39794  31.830  39.442   2.102
71390W        W39795   0.757  26.870   4.825
71391W        W39796  13.068   9.468  14.990
71392W        W39797  25.674   1.048  10.310
71393W        W39798  15.648  19.241  12.472
71394W        W39799   5.939  16.084   5.728
71395W        W39800  32.034  40.009   0.730
71396W        W39801  16.311  21.767   4.584
71397W        W39802  37.830  41.400  14.990
71398W        W39803  16.265  20.553   0.916
71399W        W39804  19.717  15.405  11.610
71400W        W39805   9.813  44.660  12.099
71401W        W39806  12.194  30.164  12.384
71402W        W39807  32.103  23.923  14.960
71403W        W39808  40.338  14.313  12.190
71404W        W39809  22.687  33.832  11.094
71405W        W39810  20.189  18.267   2.678
71406W        W39811  34.440  42.727   1.554
71407W        W39812   3.564  26.572  10.527
71408W        W39813  30.173  37.118  13.909
71409W        W39814  35.052  30.092  11.117
71410W        W39815  21.755  23.183   4.966
71411W        W39816  38.428  44.522   2.824
71412W        W39817  33.335  38.588   4.698
71413W        W39818  39.481  39.464   2.332
71414W        W39819  31.130  27.141  12.150
71415W        W39820  13.820  44.393   3.193
71416W        W39821   1.470  29.964   1.759
71417W        W39822  43.169  11.076  12.112
71418W        W39823  19.468  37.939  10.825
71419W        W39824  25.607  28.340  13.058
71420W        W39825   4.831  11.869   3.226
71421W        W39826   3.521  26.018  11.293
71422W        W39827  10.429  12.980  14.095
71423W        W39828   7.931  21.242   2.289
71424W        W39829  13.244  28.219   1.189
71425W        W39830   1.690  30.450   1.866
71426W        W39831  11.254  12.635  10.416
71427W        W39832  28.656   5.995  11.180
71428W        W39833  28.111  24.666   2.870
71429W        W39834  13.065  15.154   3.911
71430W        W39835  12.171  43.207   0.703
71431W        W39836  42.220   2.669   4.208
71432W        W39837  26.282   8.944   2.703
71433W        W39838   1.380  35.043   1.624
71434W        W39839  27.877  35.952  13.423
71435W        W39840  42.468   9.095  14.402
71436W        W39841  39.359  20.508   2.699
71437W        W39842   2.675  34.594  10.284
71438W        W39843  22.948   2.692  11.858
71439W        W39844  25.541  29.084  10.636
71440W        W39845   7.690  14.399  13.319
71441W        W39846   8.018  38.059  12.075
71442W        W39847  10.070  29.185  11.145
71443W        W39848  39.858   6.226  12.490
71444W        W39849  42.090  34.593   2.979
71445W        W39850  38.362   4.201   1.286
71446W        W39851   4.727  34.627   3.093
71447W        W39852  22.302  25.720  14.377
71448W        W39853  44.472  41.602  12.991
71449W        W39854  44.976  37.547  14.818
71450W        W39855  24.936  10.773  11.912
71451W        W39856  20.518  11.627  14.371
71452W        W39857   3.552  23.139   4.320
71453W        W39858  10.491   8.470  11.132
71454W        W39859  13.290  40.167  13.464
71455W        W39860  27.357  38.159   0.954
71456W        W39861  15.524   2.165   1.800
71457W        W39862   9.345  32.178  14.555
71458W        W39863  22.788   6.354  14.266
71459W        W39864   3.851  39.485   1.323
71460W        W39865  20.132  17.666  12.894
71461W        W39866  11.061  24.079  11.711
71462W        W39867  38.433  28.846  12.200
71463W        W39868  42.624  36.319   5.002
71464W        W39869  28.590   8.637   2.281
71465W        W39870  16.916  22.580   0.023
71466W        W39871  40.607  44.456   4.129
71467W        W39872  26.275  31.859  11.944
71468W        W39873  16.198  12.105  14.822
71469W        W39874  39.813  29.264  10.922
71470W        W39875  30.484   3.658   1.762
71471W        W39876  17.054  26.064  10.582
71472W        W39877  42.412   6.336   2.182
71473W        W39878  36.576  26.238   1.415
71474W        W39879  27.635  25.975  11.516
71475W        W39880  11.708   5.407   1.805
71476W        W39881  31.126  29.772  13.067
71477W        W39882  34.917  24.253   2.434
71478W        W39883  19.454   6.201  10.188
71479W        W39884  22.438  36.992   0.807
71480W        W39885   5.364  29.153   2.504
71481W        W39886  20.766  30.607   2.031
71482W        W39887  43.765  26.974   2.733
71483W        W39888  23.177  14.790   2.748
71484W        W39889   4.385  44.408   3.985
71485W        W39890  35.156  31.169  12.017
71486W        W39891  34.513  13.016   4.075
71487W        W39892  29.167  27.830   4.719
71488W        W39893   6.776  17.325  10.435
71489W        W39894   2.986  14.855  11.070
71490W        W39895   8.627  43.463   3.241
71491W        W39896  43.412  40.548   3.635
71492W        W39897  11.176   8.297  11.553
71493W        W39898  43.037  16.594  13.541
71494W        W39899  21.942  35.248  12.944
71495W        W39900  27.549  18.270   2.510
71496W        W39901  27.253  22.578  12.810
71497W        W39902  30.667   0.227  12.898
71498W        W39903   6.066  14.168  10.705
71499W        W39904  22.670   4.986   0.277
71500W        W39905  25.596   4.895   4.608
71501W        W39906  16.152  16.734  13.818
71502W        W39907   9.793   4.025   0.758
71503W        W39908  38.815  38.845   2.236
71504W        W39909  43.063  43.256  13.473
71505W        W39910  11.856  27.650  13.540
71506W        W39911  26.715  14.547   4.020
71507W        W39912  36.815  17.600   3.038
71508W        W39913  32.618  14.815  13.400
71509W        W39914  20.126   6.974  10.790
71510W        W39915  19.504  17.137  14.638
71511W        W39916   2.293  25.029   5.075
71512W        W39917  24.290  24.574   2.718
71513W        W39918  17.592  21.047   3.666
71514W        W39919   5.258  27.160  14.719
71515W        W39920   8.771  18.224   1.746
71516W        W39921  20.706  30.629   3.372
71517W        W39922  29.023  39.953   4.170
71518W        W39923  40.775  22.185  10.987
71519W        W39924   6.374  30.605  12.845
71520W        W39925  26.053  25.736  10.636
71521W        W39926  27.721  43.199   3.326
71522W        W39927   4.738  34.595  14.037
71523W        W39928  42.344  19.246   1.319
71524W        W39929  23.890  42.786   2.551
71525W        W39930  19.119  24.269   3.662
71526W        W39931  11.877  25.923   0.386
71527W        W39932  42.378  34.317   2.654
71528W        W39933  34.509  31.867  11.971
71529W        W39934  13.737  41.341   1.422
71530W        W39935  13.911  27.440  13.438
71531W        W39936   9.833  14.483  11.590
71532W        W39937  15.183  26.306   1.743
71533W        W39938  25.245  12.134  12.489
71534W        W39939   4.497  22.714   4.966
71535W        W39940  14.632  10.743   1.386
71536W        W39941  34.020  33.353   2.795
71537W        W39942  24.436  40.361   4.285
71538W        W39943  37.824  13.344   2.890
71539W        W39944  43.398  13.508   0.449
71540W        W39945  18.865  19.787   5.040
71541W        W39946  27.180  38.400   2.398
71542W        W39947  13.966   1.676   1.220
71543W        W39948  42.632  14.299  13.605
71544W        W39949  22.322  41.050   3.247
71545W        W39950   9.336  15.792  11.739
71546W        W39951  29.835  36.933   1.525
71547W        W39952  41.808   7.993   0.724
71548W        W39953  37.553  13.432   4.146
71549W        W39954  12.387   1.938   3.784
71550W        W39955  25.526  44.498  14.324
71551W        W39956  40.896  31.143  14.833
71552W        W39957  12.814   4.720   4.538
71553W        W39958   5.777  36.827   4.847
71554W        W39959  37.387  43.700   5.008
71555W        W39960  43.474  44.457  10.651
71556W        W39961  24.688  19.653   1.244
71557W        W39962  25.655  10.858  11.333
71558W        W39963   2.053  33.151  10.988
71559W        W39964  10.977  20.181  13.099
71560W        W39965  36.464  37.396   2.724
71561W        W39966  19.210  26.089  12.046
71562W        W39967   5.856  34.590   4.065
71563W        W39968  28.963   8.239  10.773
71564W        W39969  34.617  15.773  10.403
71565W        W39970  10.945  15.146   3.142
71566W        W39971   5.894  13.015  11.564
71567W        W39972   7.313   1.696   0.942
71568W        W39973  39.823  22.103  11.590
71569W        W39974  43.705  44.348   1.822
71570W        W39975  42.613  36.206   4.019
71571W        W39976  36.236  37.962   3.636
71572W        W39977   7.898   6.590   3.153
71573W        W39978  27.391  24.963  11.786
71574W        W39979  41.578  28.455  13.401
71575W        W39980   4.375  23.507   1.679
71576W        W39981  29.068  41.823   0.177
71577W        W39982  33.231  14.730  14.150
71578W        W39983   2.509  19.308  10.919
71579W        W39984   4.829  21.271  12.641
71580W        W39985  44.877   4.012  11.605
71581W        W39986  22.488  36.829   1.768
71582W        W39987   5.855  38.493  14.528
71583W        W39988   4.813   7.478   3.953
71584W        W39989  12.677  14.228  10.554
71585W        W39990  17.020  14.178  12.746
71586W        W39991   0.408  33.406  11.831
71587W        W39992  23.466   0.807  14.484
71588W        W39993  15.646   1.555  10.221
71589W        W39994  18.764  26.335   4.964
71590W        W39995  36.486  40.889   0.552
71591W        W39996  28.992  22.192   2.098
71592W        W39997  28.678   5.861   0.839
71593W        W39998   5.837  33.155   0.723
71594W        W39999   1.919  23.203   2.825
71595W        W40000  11.730  30.128  12.154
71596W        W40001  29.429  40.394   1.269
71597W        W40002  37.586  31.488  13.509
71598W        W40003  37.541  11.823   2.240
71599W        W40004   1.968  28.982   2.765
71600W        W40005  31.542  42.741   4.120
71601W        W40006  24.082   5.738  12.985
71602W        W40007   8.890   9.621  12.994
71603W        W40008  24.233   4.942  14.312
71604W        W40009  40.026  39.280   3.171
71605W        W40010  38.598  27.028   4.713
71606W        W40011  27.179   2.974   1.924
71607W        W40012  17.535   6.848  14.148
71608W        W40013   7.419  22.711   4.715
71609W        W40014  12.589  34.537   0.285
71610W        W40015  14.218  18.892   1.447
71611W        W40016   5.699  37.896  11.891
71612W        W40017  19.784  15.366  12.536
71613W        W40018  16.264  43.828   2.435
71614W        W40019   5.968   7.757   0.393
71615W        W40020  17.064  38.306  11.179
71616W        W40021  11.444  29.134   0.942
71617W        W40022  31.821   7.635  14.914
71618W        W40023  17.524  39.867  14.401
71619W        W40024  14.260  35.418   0.798
71620W        W40025  27.088  34.434  11.216
71621W        W40026   6.891  31.580   1.286
71622W        W40027  18.985  19.206   0.349
71623W        W40028  41.660  38.876   4.068
71624W        W40029  15.747  40.767  13.311
71625W        W40030  18.251  26.701   3.427
71626W        W40031  22.640  10.606   0.557
71627W        W40032  38.806   4.942   1.392
71628W        W40033  18.266  40.986   4.801
71629W        W40034  27.604  11.223  14.426
71630W        W40035  26.729   7.877   1.386
71631W        W40036  27.967  13.417  14.362
71632W        W40037   7.328  20.990  11.595
71633W        W40038  31.819  34.937   2.730
71634W        W40039  12.702  36.475  14.900
71635W        W40040  24.556   2.980  10.664
71636W        W40041  22.559  20.211   3.718
71637W        W40042  34.093  16.290  10.472
71638W        W40043  43.091  40.331  10.702
71639W        W40044   8.671  24.054  12.645
71640W        W40045   0.899  43.772  11.181
71641W        W40046  36.974  40.173  10.619
71642W        W40047   1.195   2.945  12.408
71643W        W40048  23.606  44.041   2.438
71644W        W40049  14.019  29.025  13.823
71645W        W40050  42.460  14.132  12.734
71646W        W40051   8.401  41.944  14.042
71647W        W40052  20.042  37.829  13.133
71648W        W40053  37.018  37.452   1.767
71649W        W40054  28.604  29.138  10.411
71650W        W40055  36.412   2.869   3.675
71651W        W40056   3.345  37.028   2.932
71652W        W40057  43.452   9.060  13.755
71653W        W40058   9.261   1.714  13.879
71654W        W40059  27.200  35.345   2.787
71655W        W40060  19.677   5.217  13.402
71656W        W40061  30.038  35.019  12.036
71657W        W40062  31.866  24.128  14.506
71658W        W40063   6.840   3.734   1.887
71659W        W40064  10.877  22.226   1.329
71660W        W40065  31.742  36.904   1.831
71661W        W40066   3.925  38.442   4.017
71662W        W40067  24.817  26.242   1.259
71663W        W40068  13.093  15.610  14.667
71664W        W40069  38.534   1.105   3.861
71665W        W40070  41.745  34.367  12.494
71666W        W40071  32.570  13.099  14.181
71667W        W40072  39.470  27.698  14.299
71668W        W40073  23.818  33.941   1.960
71669W        W40074  14.190  29.457   4.571
71670W        W40075   3.169  10.720  11.024
71671W        W40076  26.156  19.767  14.516
71672W        W40077  24.708  25.747   1.258
71673W        W40078  39.826  37.556   3.668
71674W        W40079  33.566   8.044   0.769
71675W        W40080  28.190  20.742  13.592
71676W        W40081  36.948   1.752  10.851
71677W        W40082  21.179  37.787   4.119
71678W        W40083  13.221  36.555  14.957
71679W        W40084  14.678   0.786  14.937
71680W        W40085  23.435  36.084  12.170
71681W        W40086  37.815   7.100   0.976
71682W        W40087  24.972  24.385  13.422
71683W        W40088   5.879  19.592  10.772
71684W        W40089  22.895  22.052  14.811
71685W        W40090   9.547  25.280  12.323
71686W        W40091  12.345  23.718   0.936
71687W        W40092  34.187  38.807   1.182
71688W        W40093  22.224  41.957  13.482
71689W        W40094  21.514  15.646   1.764
71690W        W40095   9.065  16.129  14.595
71691W        W40096  18.238  19.676  10.555
71692W        W40097  30.906  27.395   2.542
71693W        W40098   7.565  27.946   5.075
71694W        W40099  41.320   3.681   1.888
71695W        W40100   5.324  37.407  12.527
71696W        W40101   8.115  16.047  12.975
71697W        W40102  24.490  11.618   3.123
71698W        W40103  13.746  19.781  13.479
71699W        W40104  44.532  12.622   3.153
71700W        W40105  22.840  24.423  14.607
71701W        W40106  44.906  10.981  11.986
71702W        W40107   0.710  22.665  13.072
71703W        W40108  26.579  39.598   4.994
71704W        W40109   7.344   0.566   2.282
71705W        W40110  42.786  44.635  12.173
71706W        W40111  42.523  19.862   4.069
71707W        W40112  31.477  13.279  14.990
71708W        W40113   9.417  21.084   4.258
71709W        W40114  33.317  39.860   2.943
71710W        W40115  23.936  18.621   2.396
71711W        W40116  36.466  44.880   2.849
71712W        W40117  12.142  14.897  13.913
71713W        W40118  24.546  32.639  13.239
71714W        W40119   7.466  32.739   3.893
71715W        W40120  33.106  31.470  13.899
71716W        W40121  15.788   4.305  12.734
71717W        W40122  32.565  12.196   3.790
71718W        W40123  32.363  38.525  10.556
71719W        W40124   6.869  30.000   0.306
71720W        W40125   7.520  38.781   1.038
71721W        W40126  40.517  39.176   4.438
71722W        W40127  38.032  28.170   4.352
71723W        W40128  28.702   2.668  12.399
71724W        W40129  17.269  40.934   1.988
71725W        W40130   6.884  21.035   0.125
71726W        W40131  37.750  41.578  11.552
71727W        W40132   8.832   5.372  14.402
71728W        W40133   6.664  18.935   2.127
71729W        W40134  20.472  37.997  14.414
71730W        W40135  28.429  44.391  13.258
71731W        W40136  37.164  12.766   1.825
71732W        W40137  14.733  10.093  10.542
71733W        W40138  24.559  22.569  12.136
71734W        W40139  25.107   0.530   3.610
71735W        W40140  31.485  25.126   2.356
71736W        W40141  15.073  30.508  14.000
71737W        W40142  38.153  33.404   3.138
71738W        W40143  23.589   0.429  13.498
71739W        W40144  43.981  11.273  10.665
71740W        W40145   3.054  16.558  12.488
71741W        W40146   1.232   8.054  11.658
71742W        W40147  31.531   0.287  13.787
71743W        W40148  43.856   7.378  11.315
71744W        W40149  25.687  29.583  11.563
71745W        W40150  36.360  23.781  11.903
71746W        W40151  34.245  11.437   0.001
71747W        W40152  24.596  14.268   2.357
71748W        W40153  29.004  11.721  14.838
71749W        W40154   0.270  21.307   4.223
71750W        W40155  30.439   9.853   0.183
71751W        W40156  17.959  32.000  13.464
71752W        W40157  15.046   7.993  10.147
71753W        W40158  33.056  14.609   4.589
71754W        W40159  24.291   9.996  14.401
71755W        W40160  12.633  26.987  11.086
71756W        W40161  12.302  44.826  13.392
71757W        W40162  15.852  40.112  11.878
71758W        W40163  11.570  44.927   0.277
71759W        W40164  28.471  24.576   4.593
71760W        W40165  13.665   8.276   2.894
71761W        W40166  42.706  38.054  11.917
71762W        W40167  35.324  43.555  12.015
71763W        W40168  36.551   7.471   4.396
71764W        W40169  37.455  27.252  11.679
71765W        W40170  42.813  39.923  14.644
71766W        W40171  37.326  14.640  10.719
71767W        W40172  26.472  13.562   4.259
71768W        W40173   9.657  16.053   0.392
71769W        W40174  19.659  34.328  14.539
71770W        W40175  42.754  31.164   0.359
71771W        W40176  44.948  34.076  14.484
71772W        W40177   5.612  23.524   4.537
71773W        W40178  28.477  12.708   2.284
71774W        W40179  14.600   4.502  13.927
71775W        W40180  39.092  17.014   5.104
71776W        W40181  33.277  17.778  13.043
71777W        W40182  33.012  40.053  12.213
71778W        W40183  15.506  18.045  12.438
71779W        W40184  18.785  40.284  12.439
71780W        W40185  22.666  25.480  10.191
71781W        W40186   6.622   6.470   3.647
71782W        W40187  40.786   7.825   4.061
71783W        W40188  37.012  28.961   1.516
71784W        W40189   7.843   7.238  14.263
71785W        W40190   5.901  38.523   2.686
71786W        W40191  43.956  11.739  13.251
71787W        W40192  31.024  32.595   4.050
71788W        W40193   4.254  19.486  11.266
71789W        W40194  15.493  40.345   1.288
71790W        W40195  16.287  24.196  11.228
71791W        W40196   3.708   6.902  14.951
71792W        W40197  36.662  25.070  11.543
71793W        W40198  29.416   1.302  12.490
71794W        W40199  23.021   6.902   0.698
71795W        W40200  33.108  33.733   0.528
71796W        W40201  11.189   6.060  14.437
71797W        W40202  37.650  21.230   3.871
71798W        W40203  38.310  40.118  13.318
71799W        W40204  34.919  15.107  14.038
71800W        W40205  37.975  43.944   4.355
71801W        W40206  17.547  13.762  12.015
71802W        W40207  14.330  32.165  10.893
71803W        W40208  22.114  15.687  11.389
71804W        W40209  17.609   8.717  12.857
71805W        W40210  30.927  25.099  13.860
71806W        W40211  36.372  37.071  11.090
71807W        W40212  34.496  11.930  10.618
71808W        W40213  16.289  15.578  10.883
71809W        W40214  32.190  27.091   1.471
71810W        W40215  37.765  16.248  11.131
71811W        W40216  39.514  38.274  11.070
71812W        W40217  32.271  30.868  11.029
71813W        W40218  37.460  20.605   1.709
71814W        W40219   9.280  37.535  10.433
71815W        W40220  33.568   2.061   4.694
71816W        W40221  27.798  40.240  13.707
71817W        W40222  35.541  22.557  10.695
71818W        W40223  26.183  12.163  11.345
71819W        W40224   3.246  28.612   0.565
71820W        W40225  30.581  30.921  12.376
71821W        W40226  40.293  37.301   5.085
71822W        W40227  34.172  28.155   3.725
71823W        W40228   6.069  43.142   9.641
71824W        W40229   7.642  11.240   2.833
71825W        W40230   4.631  21.242   3.896
71826W        W40231   9.147   6.885  12.094
71827W        W40232  41.046   6.340  11.867
71828W        W40233  34.496  34.186  14.850
71829W        W40234   8.214   4.583  14.366
71830W        W40235  12.829   3.642   4.064
71831W        W40236  30.886  29.146  11.072
71832W        W40237  34.716   1.752   4.581
71833W        W40238  25.366  26.936   3.752
71834W        W40239  36.987  31.096   4.423
71835W        W40240  24.063   2.549   2.251
71836W        W40241  21.170  33.170   2.827
71837W        W40242  35.911  37.810  13.973
71838W        W40243  12.868  12.750  14.886
71839W        W40244  33.018  36.241   0.250
71840W        W40245  33.908   0.051   1.823
71841W        W40246  36.359  33.492  13.496
71842W        W40247  40.440   9.238   2.754
71843W        W40248  32.766  28.285  11.836
71844W        W40249  23.542  16.447   0.458
71845W        W40250  11.912  21.611  10.514
71846W        W40251  21.003   6.740  11.186
71847W        W40252   1.721  39.053   2.800
71848W        W40253   5.224  38.713   4.181
71849W        W40254  27.596  27.689   3.905
71850W        W40255  18.461  22.010   1.772
71851W        W40256  26.520  28.607   0.210
71852W        W40257   6.733  33.122   1.239
71853W        W40258  15.750  30.606   4.153
71854W        W40259   0.372  19.840  14.603
71855W        W40260  37.865  27.444  13.443
71856W        W40261  41.501  30.100  10.728
71857W        W40262  21.649  22.325   1.431
71858W        W40263   4.342  27.533   4.881
71859W        W40264   3.935  21.956   2.858
71860W        W40265  38.573   9.375  14.410
71861W        W40266  37.294  40.302  13.314
71862W        W40267  37.070  40.819   1.483
71863W        W40268   0.558  19.892   2.894
71864W        W40269  20.466  40.848  12.938
71865W        W40270  19.071  18.934  11.844
71866W        W40271   6.177   1.706  11.607
71867W        W40272   8.731  23.963   0.847
71868W        W40273  34.310  20.102   0.381
71869W        W40274  11.234  25.729   2.267
71870W        W40275  39.457   5.848   2.380
71871W        W40276  24.977  15.613  13.021
71872W        W40277  38.374  17.555   4.155
71873W        W40278  18.991  38.137  13.503
71874W        W40279  31.049   1.260   0.914
71875W        W40280   6.172  14.795  13.835
71876W        W40281   3.465  14.934  14.462
71877W        W40282  40.491  22.530   0.414
71878W        W40283  22.644  40.020   4.122
71879W        W40284  12.024  41.392   1.322
71880W        W40285  28.958  43.400  12.535
71881W        W40286  21.303  40.347   2.326
71882W        W40287  29.090  42.083   5.436
71883W        W40288  32.909  14.921  12.122
71884W        W40289  31.434   0.776  13.573
71885W        W40290  31.871  41.434  14.074
71886W        W40291  11.502  12.218   2.385
71887W        W40292  15.235  38.346  11.580
71888W        W40293  17.263  43.406   1.756
71889W        W40294  17.153  18.194   2.798
71890W        W40295  23.291   0.776  11.038
71891W        W40296  21.491  23.699  13.810
71892W        W40297   3.861  11.027  13.473
71893W        W40298  38.085  13.102  11.823
71894W        W40299   3.682  33.786   1.844
71895W        W40300   2.239  18.450  12.100
71896W        W40301  13.432  12.674  10.194
71897W        W40302  43.949  10.749  13.345
71898W        W40303  16.495  41.586   2.308
71899W        W40304   2.510  31.185  13.999
71900W        W40305   6.417   9.569   0.423
71901W        W40306  32.504  41.157   1.752
71902W        W40307  18.053  20.791   3.745
71903W        W40308  11.126  40.990  13.815
71904W        W40309  26.869   1.311  10.708
71905W        W40310  39.953  30.160   0.451
71906W        W40311  34.076  17.209  10.783
71907W        W40312  36.209  31.971   9.726
71908W        W40313  18.414   2.949   2.931
71909W        W40314  22.207  42.927   3.538
71910W        W40315  13.206  25.916  11.698
71911W        W40316   5.837  17.662   1.904
71912W        W40317   6.685  21.897   0.422
71913W        W40318  27.795  24.266  13.513
71914W        W40319  21.040  21.214   1.763
71915W        W40320  39.509  28.541   1.029
71916W        W40321   6.138  11.889  14.904
71917W        W40322  26.908  25.520  13.072
71918W        W40323  35.849   6.549   2.247
71919W        W40324  14.381  18.112  14.477
71920W        W40325  37.469   0.332   0.936
71921W        W40326  23.526  42.407   4.910
71922W        W40327   4.047  10.059  12.617
71923W        W40328  36.077  20.005  14.337
71924W        W40329  44.244  37.915   3.702
71925W        W40330  24.772  41.290  11.527
71926W        W40331  44.961   7.778   1.336
71927W        W40332  29.140   2.463   3.180
71928W        W40333  24.467  32.785   3.749
71929W        W40334  21.588  25.164   1.085
71930W        W40335  40.316  20.088  13.021
71931W        W40336  14.876  26.952   0.100
71932W        W40337  29.652  35.379  12.097
71933W        W40338   2.424  31.565  12.342
71934W        W40339   8.461   0.763  11.028
71935W        W40340   8.904   2.299   2.136
71936W        W40341  22.809  11.078  13.070
71937W        W40342  27.901  41.935  13.956
71938W        W40343  42.721   7.925   0.742
71939W        W40344   3.334  32.082  10.123
71940W        W40345   9.186  38.765  13.074
71941W        W40346  22.549   3.385  10.925
71942W        W40347   0.997  40.793  14.765
71943W        W40348  17.302  31.798   2.692
71944W        W40349  41.546  11.452  12.590
71945W        W40350  20.938  28.581   4.572
71946W        W40351   5.214  10.676   1.783
71947W        W40352  26.231   6.920  11.666
71948W        W40353  13.031   4.292   1.657
71949W        W40354  44.245  27.232   4.282
71950W        W40355   7.125  12.167   1.073
71951W        W40356  12.379   8.880   2.917
71952W        W40357  38.621  16.024   4.965
71953W        W40358  39.101  23.136   2.675
71954W        W40359  17.797  41.030   1.856
71955W        W40360  14.363  31.952   2.873
71956W        W40361  27.470  30.641   2.289
71957W        W40362  18.498  28.174   1.827
71958W        W40363   6.883   8.669   1.377
71959W        W40364  44.810  12.862  13.343
71960W        W40365  14.699  43.900  13.841
71961W        W40366   4.364  35.897   0.282
71962W        W40367   0.412  40.529   3.339
71963W        W40368  24.122  37.385   4.961
71964W        W40369  10.232  28.604  10.820
71965W        W40370  24.722  17.863   4.194
71966W        W40371  14.226  35.867   4.286
71967W        W40372   2.560   7.297  10.705
71968W        W40373  43.962   8.620   3.166
71969W        W40374   8.921  20.195   4.206
71970W        W40375  11.462  44.237   1.460
71971W        W40376   2.143  19.793   4.139
71972W        W40377  33.946   3.401  13.595
71973W        W40378  42.816  32.465  13.428
71974W        W40379  13.571  41.477  13.837
71975W        W40380  34.567  33.698  14.940
71976W        W40381  30.605  17.156   1.974
71977W        W40382  35.418  28.463  13.910
71978W        W40383  21.058  43.000   4.043
71979W        W40384  37.832  33.907   4.224
71980W        W40385  24.510   9.110  14.368
71981W        W40386  26.441  34.976   0.077
71982W        W40387  31.144  21.150  10.642
71983W        W40388  36.401  40.829  14.514
71984W        W40389  43.539   9.097  11.094
71985W        W40390  18.008  24.591   0.147
71986W        W40391  28.399  31.156  11.652
71987W        W40392  44.625  22.553   1.715
71988W        W40393  12.106  36.493   3.439
71989W        W40394  37.537  22.983  10.882
71990W        W40395  16.286  21.783  11.993
71991W        W40396  41.633  21.272   4.136
71992W        W40397   8.819  13.811   4.968
71993W        W40398  37.012  23.758  14.858
71994W        W40399   2.186  42.080  11.164
71995W        W40400  34.130   5.728   1.100
71996W        W40401  41.335  31.259   3.426
71997W        W40402   3.732   4.269   4.703
71998W        W40403  15.232  34.980  10.480
71999W        W40404  30.460  31.883   4.155
72000W        W40405  10.864   2.796   2.728
72001W        W40406  30.623  26.091   0.397
72002W        W40407  28.236  27.980  12.689
72003W        W40408  43.420  39.510  14.060
72004W        W40409   7.266  39.483   4.545
72005W        W40410  36.164  20.325  10.565
72006W        W40411   6.448  18.152   1.352
72007W        W40412  32.518  37.631  13.823
72008W        W40413  18.210  39.322   0.398
72009W        W40414  10.453  44.428   1.286
72010W        W40415  20.906  22.506   0.704
72011W        W40416  11.503  18.842   3.601
72012W        W40417  10.450   4.236   3.846
72013W        W40418  10.370   2.196   3.690
72014W        W40419  33.699  31.136   2.179
72015W        W40420  39.971  22.669  12.751
72016W        W40421  28.594  23.202  12.158
72017W        W40422  25.499  37.379  11.739
72018W        W40423  19.314  17.552  14.364
72019W        W40424  43.947   2.693   0.550
72020W        W40425  32.869  25.520  11.723
72021W        W40426  24.068   2.413   4.494
72022W        W40427  21.870  32.145   4.020
72023W        W40428   8.435  35.374  13.012
72024W        W40429  33.305  21.989  13.474
72025W        W40430  28.927   9.625   3.325
72026W        W40431  38.761  24.645   3.579
72027W        W40432  44.925  41.011   4.296
72028W        W40433   9.871  35.377  10.178
72029W        W40434   6.526  24.055  11.368
72030W        W40435  26.950  29.591   0.374
72031W        W40436   1.319   1.827   0.251
72032W        W40437  21.479  42.221  14.321
72033W        W40438  20.765  39.780   1.258
72034W        W40439   8.260  35.179  12.527
72035W        W40440  31.606  30.601  11.571
72036W        W40441   1.716  14.299  13.463
72037W        W40442  34.183  31.824  12.791
72038W        W40443  39.398  27.193   1.683
72039W        W40444  13.415  23.354   0.278
72040W        W40445   3.818   7.690  12.842
72041W        W40446  10.648  30.059   4.101
72042W        W40447  31.914  15.610   4.625
72043W        W40448  15.329  26.972   4.375
72044W        W40449  33.163  42.804  12.804
72045W        W40450  30.087   6.460  10.843
72046W        W40451   2.437  19.263  10.419
72047W        W40452  35.523  35.079  14.910
72048W        W40453  34.935  23.670   5.029
72049W        W40454  14.742  29.854  12.645
72050W        W40455  44.815  20.043  10.612
72051W        W40456  42.421  12.665   2.128
72052W        W40457  11.680  43.341  11.870
72053W        W40458  10.446  27.037  10.730
72054W        W40459   0.908  44.888   1.866
72055W        W40460  27.129  39.478  11.815
72056W        W40461  33.858  28.380   0.327
72057W        W40462  37.280   0.972  14.017
72058W        W40463  20.807  43.143  14.767
72059W        W40464  23.208  44.928  10.620
72060W        W40465  37.470   7.717  10.373
72061W        W40466  34.801  34.051  13.563
72062W        W40467  24.628  19.135   2.011
72063W        W40468  12.887  30.927   2.802
72064W        W40469   6.484   6.719  11.936
72065W        W40470  44.678  24.647   2.369
72066W        W40471   2.478  29.547   5.089
72067W        W40472   3.811  33.179   2.640
72068W        W40473  16.762  13.650   2.568
72069W        W40474  21.077  14.271  13.419
72070W        W40475  32.211  17.091  11.527
72071W        W40476  18.684  32.187  11.986
72072W        W40477  18.550   9.698  10.803
72073W        W40478   9.948  30.179  13.309
72074W        W40479  28.670  42.962  13.572
72075W        W40480  44.308  43.157  13.768
72076W        W40481  17.523  39.032  12.460
72077W        W40482  19.095  34.598   3.225
72078W        W40483  25.147  29.359   2.685
72079W        W40484   1.810  12.725   1.677
72080W        W40485  30.008  41.879  12.473
72081W        W40486  19.957   1.880   3.550
72082W        W40487  30.965  24.913  10.713
72083W        W40488  24.124  21.768  14.374
72084W        W40489   7.135  25.414   0.956
72085W        W40490  19.031  44.216  11.507
72086W        W40491   7.326  39.255  11.789
72087W        W40492  21.529   6.195  14.903
72088W        W40493   3.052  33.784   4.293
72089W        W40494  14.129  40.898   4.695
72090W        W40495  21.758  18.249   0.221
72091W        W40496  24.712  37.011   3.683
72092W        W40497  44.875   8.927  10.464
72093W        W40498   0.019  27.000  11.972
72094W        W40499  36.746  17.592   1.812
72095W        W40500  40.356  25.773  14.948
72096W        W40501  22.671  19.711   1.356
72097W        W40502  34.133   6.464  12.030
72098W        W40503   2.990  23.997  14.350
72099W        W40504  26.619  14.995  14.049
72100W        W40505  28.510  24.585  11.925
72101W        W40506  44.445  30.660  12.065
72102W        W40507  29.498  14.246  13.077
72103W        W40508  18.868  35.428  14.279
72104W        W40509  20.134  43.421  14.519
72105W        W40510  34.871   7.170   0.242
72106W        W40511  33.550   6.193   2.891
72107W        W40512  30.066  39.107   1.256
72108W        W40513  44.997   0.356  11.900
72109W        W40514  27.776  38.682   4.633
72110W        W40515  34.433   4.819  12.066
72111W        W40516  35.650  41.334  13.264
72112W        W40517  23.234  13.457   4.592
72113W        W40518   5.359  39.999  10.688
72114W        W40519  30.613  19.008  13.093
72115W        W40520  37.394  19.291  11.603
72116W        W40521  33.886  23.780   1.901
72117W        W40522  24.776   4.308   3.733
72118W        W40523   6.730  36.286   0.418
72119W        W40524  14.815  33.526  14.960
72120W        W40525  21.244  26.567   2.283
72121W        W40526   7.233   1.426  10.933
72122W        W40527  26.993  14.176  13.755
72123W        W40528  43.444  10.041  13.410
72124W        W40529  31.760  24.540  12.433
72125W        W40530  28.048  44.516  14.034
72126W        W40531  36.961  27.711  10.988
72127W        W40532  12.824  33.141  11.098
72128W        W40533   1.845  36.059   0.961
72129W        W40534  26.500  39.532  13.122
72130W        W40535  15.716   8.664  11.373
72131W        W40536  31.100   0.928   4.177
72132W        W40537  32.167  32.005  12.075
72133W        W40538   5.654  14.314  13.285
72134W        W40539  24.213  20.482  14.999
72135W        W40540  24.461  18.255   1.973
72136W        W40541  36.535  10.147   4.059
72137W        W40542  22.236  12.157  11.905
72138W        W40543  10.215  28.845   3.119
72139W        W40544  26.802  15.593   4.712
72140W        W40545  43.776  19.012   0.933
72141W        W40546  42.545   4.121   2.327
72142W        W40547  36.514  37.903   4.572
72143W        W40548  14.573  13.772  14.458
72144W        W40549  33.345  33.442  11.452
72145W        W40550  22.069  23.248   2.757
72146W        W40551   5.918   4.730  14.214
72147W        W40552   7.454  42.303   2.664
72148W        W40553  32.413  21.096  13.750
72149W        W40554  28.680   0.285   0.535
72150W        W40555  29.158  37.384   0.388
72151W        W40556  27.855  42.892   1.677
72152W        W40557  32.006  34.451   0.505
72153W        W40558  32.450  27.934   2.849
72154W        W40559  19.580  40.291  11.926
72155W        W40560  32.883  12.095  12.497
72156W        W40561  27.320  44.448   2.675
72157W        W40562   4.638  29.123  10.226
72158W        W40563  16.927   9.514  11.695
72159W        W40564  31.857  42.732   0.024
72160W        W40565  38.264   8.218   3.254
72161W        W40566  28.214  26.721  10.628
72162W        W40567  12.273  16.278  11.100
72163W        W40568   9.910  27.661   1.632
72164W        W40569   4.802  15.766   3.554
72165W        W40570   2.436  23.154   1.926
72166W        W40571   5.898   4.830   1.335
72167W        W40572  24.486   6.103  14.656
72168W        W40573  27.501  44.027  14.357
72169W        W40574  27.807  35.421   4.765
72170W        W40575  38.651  36.274   1.318
72171W        W40576  42.166  34.969  10.789
72172W        W40577  41.839  41.592  12.939
72173W        W40578  29.929  16.557  13.995
72174W        W40579   0.446  35.237  10.589
72175W        W40580  17.155  10.140   2.362
72176W        W40581  34.879  35.557  10.966
72177W        W40582  33.318  39.328  10.757
72178W        W40583  28.257  42.112  10.557
72179W        W40584  43.572  31.678  14.384
72180W        W40585  41.432  33.425   5.010
72181W        W40586  32.999   4.852  10.163
72182W        W40587  43.931  36.293  12.538
72183W        W40588  41.257   3.182  14.487
72184W        W40589  40.733  22.636   3.132
72185W        W40590   7.254  24.770   3.807
72186W        W40591  17.494  33.711   0.562
72187W        W40592  28.015  10.420  13.509
72188W        W40593   9.172  23.928   4.688
72189W        W40594  21.174   0.811  14.525
72190W        W40595  41.002  29.410  14.461
72191W        W40596  26.253  18.614  11.642
72192W        W40597  38.912  13.702  12.827
72193W        W40598  39.702  36.275  13.888
72194W        W40599  41.204  31.560  14.779
72195W        W40600   0.383  42.121   2.385
72196W        W40601  26.559  20.518  14.915
72197W        W40602  42.633  34.655   0.703
72198W        W40603   0.694  11.558  12.928
72199W        W40604  22.164  40.309   2.783
72200W        W40605  10.170  13.829   2.583
72201W        W40606  37.261   5.915   1.787
72202W        W40607  10.638  39.822   0.832
72203W        W40608   8.543  16.802  11.237
72204W        W40609   3.912  39.279  10.520
72205W        W40610  11.562  24.057  11.520
72206W        W40611  35.527   0.396  14.781
72207W        W40612  22.271   4.372   4.118
72208W        W40613   6.123   7.468  14.918
72209W        W40614  12.230   7.450   2.663
72210W        W40615   6.377  13.753   1.382
72211W        W40616   4.931  27.933   3.178
72212W        W40617  33.949  11.140   1.313
72213W        W40618  38.005  39.123  12.589
72214W        W40619  43.069   9.314   0.613
72215W        W40620  32.442   2.812  11.887
72216W        W40621  19.929   6.486   1.878
72217W        W40622  29.402  15.149  12.054
72218W        W40623  31.196  36.875  12.498
72219W        W40624  17.361  16.161   3.960
72220W        W40625  18.335  27.422   4.487
72221W        W40626  34.949  23.546   3.620
72222W        W40627   1.494  29.629   4.730
72223W        W40628  41.275  13.776   0.337
72224W        W40629  19.531  40.489   4.815
72225W        W40630  14.853  20.691  11.292
72226W        W40631  13.103   7.113  14.685
72227W        W40632  41.557  26.846  11.700
72228W        W40633  39.496  18.789   1.236
72229W        W40634  27.694  26.538  12.423
72230W        W40635  25.574  24.721  14.108
72231W        W40636   7.862  22.658  14.806
72232W        W40637  21.275  32.482   3.734
72233W        W40638  41.667  23.844  12.997
72234W        W40639  21.706  18.296  14.251
72235W        W40640  35.060   3.403   2.724
72236W        W40641  18.746  12.159   3.369
72237W        W40642   5.877  16.675   0.275
72238W        W40643   6.519   4.861  14.938
72239W        W40644  31.966   7.708   1.795
72240W        W40645   4.009   2.435   2.939
72241W        W40646  40.492   2.233   4.732
72242W        W40647  17.009  21.177  10.288
72243W        W40648  37.580  31.840  11.687
72244W        W40649  17.267  19.988   2.160
72245W        W40650  28.413   1.901  14.139
72246W        W40651  37.407  19.035  12.903
72247W        W40652  13.267  34.235  12.379
72248W        W40653  35.489  14.657   4.539
72249W        W40654  16.517   2.493   0.341
72250W        W40655  26.324  41.168   3.742
72251W        W40656   0.063  39.953   0.829
72252W        W40657  22.275  44.137  11.948
72253W        W40658  41.024  17.120   3.796
72254W        W40659  41.396  16.624   4.317
72255W        W40660   9.211  25.140   2.354
72256W        W40661  17.437  22.732   2.249
72257W        W40662  37.486  17.917   3.781
72258W        W40663   1.533  44.783  10.713
72259W        W40664   1.820   3.303   1.808
72260W        W40665  40.096  33.036   4.852
72261W        W40666  28.214  12.892  13.433
72262W        W40667  17.307   3.353  10.724
72263W        W40668  29.940  44.882   0.840
72264W        W40669  15.744  34.624   0.635
72265W        W40670  12.290  36.955  11.493
72266W        W40671  27.142  28.282   2.318
72267W        W40672  11.656  33.657   1.840
72268W        W40673  20.539  34.702  14.970
72269W        W40674  30.391  11.407   3.377
72270W        W40675   6.417  14.536   3.266
72271W        W40676  32.033  44.575   3.349
72272W        W40677   7.044  32.077   1.242
72273W        W40678  38.039   4.844   3.850
72274W        W40679  33.935  22.759  13.568
72275W        W40680  19.138  20.943  11.061
72276W        W40681   2.867  28.499  13.836
72277W        W40682  13.888  21.583   5.067
72278W        W40683   8.951  14.159   0.233
72279W        W40684  29.029   2.886   4.149
72280W        W40685  42.910  21.531  14.418
72281W        W40686  11.152  24.155  14.340
72282W        W40687  41.688   2.740   4.290
72283W        W40688  30.140  17.531  12.574
72284W        W40689  21.758   8.121  12.413
72285W        W40690  14.195  21.040  13.205
72286W        W40691  12.610  18.584  11.523
72287W        W40692   0.889  31.389   0.821
72288W        W40693  20.696   4.168  12.669
72289W        W40694  21.359   1.310   2.716
72290W        W40695  38.127  28.925   0.288
72291W        W40696   4.632   5.486  10.629
72292W        W40697  23.513   6.911   4.024
72293W        W40698  35.078   5.209   1.866
72294W        W40699   1.941  43.788  13.418
72295W        W40700   8.103  27.665   2.710
72296W        W40701  25.080  33.544   0.804
72297W        W40702  44.389  28.109  11.639
72298W        W40703  28.865  10.953   0.542
72299W        W40704   5.239  22.089   1.318
72300W        W40705  10.467  33.356   3.233
72301W        W40706   1.973  36.805  12.537
72302W        W40707  34.559   2.314   4.672
72303W        W40708  27.540   5.556   2.177
72304W        W40709  16.794   4.162   3.122
72305W        W40710   3.277  22.678  12.021
72306W        W40711  35.371  31.952   4.422
72307W        W40712  19.787  15.133  14.891
72308W        W40713  42.194   6.329  11.127
72309W        W40714  19.285  39.117   3.257
72310W        W40715  20.590   4.475   2.258
72311W        W40716  13.143  20.158   3.164
72312W        W40717  21.053  38.855   3.334
72313W        W40718  27.149  12.211   1.286
72314W        W40719  29.358  17.164   2.666
72315W        W40720  25.174   1.151   0.991
72316W        W40721  25.125  42.808  12.817
72317W        W40722   8.843   3.940  14.078
72318W        W40723  36.684  26.506   3.836
72319W        W40724  19.073  32.871   3.105
72320W        W40725  14.265   5.500   4.357
72321W        W40726  37.488  21.504  10.846
72322W        W40727  36.171  18.977  12.344
72323W        W40728  29.598  33.516  12.510
72324W        W40729  20.712  31.754   3.182
72325W        W40730  20.449  19.658   4.867
72326W        W40731  10.422   4.001  11.463
72327W        W40732  41.414  35.441  10.573
72328W        W40733  31.547   1.312   1.879
72329W        W40734   2.075  36.236   2.255
72330W        W40735  37.299  11.336  13.592
72331W        W40736  19.117  25.132   4.963
72332W        W40737  42.053  16.169   1.974
72333W        W40738  43.315   1.439  13.013
72334W        W40739   8.965  44.831   3.774
72335W        W40740   1.780   5.223  11.134
72336W        W40741  40.772  16.143  14.372
72337W        W40742  41.287  18.788   2.758
72338W        W40743  34.471  20.306  14.919
72339W        W40744   3.418  21.683   2.329
72340W        W40745  33.033   3.631   3.385
72341W        W40746   9.363  12.645  12.426
72342W        W40747   2.715  31.177  14.469
72343W        W40748  25.628   8.221  10.802
72344W        W40749  41.424  12.324  13.451
72345W        W40750   1.913  27.088   1.962
72346W        W40751  13.946  28.134   1.753
72347W        W40752  19.498  29.075  12.899
72348W        W40753  38.427   7.597  13.093
72349W        W40754  41.736  36.748   2.140
72350W        W40755   9.644  29.904   0.137
72351W        W40756   9.887  40.397  11.552
72352W        W40757  30.178  33.543   0.203
72353W        W40758  27.749   3.871   2.302
72354W        W40759  33.962  16.156   3.412
72355W        W40760   2.429   7.742  11.986
72356W        W40761   1.158  37.021  11.581
72357W        W40762  42.506   2.213   0.421
72358W        W40763  31.211  21.196  12.971
72359W        W40764  38.841  31.854   4.209
72360W        W40765  21.577  28.378  11.094
72361W        W40766   1.437   0.731   0.944
72362W        W40767  24.635   0.981  14.632
72363W        W40768  30.473  20.801   3.140
72364W        W40769  36.975  25.628   2.735
72365W        W40770  41.437  10.114  12.484
72366W        W40771  31.269  27.873  14.969
72367W        W40772  11.313  26.753   4.783
72368W        W40773  13.648  13.620  13.560
72369W        W40774   0.170  34.319  14.018
72370W        W40775   5.308  43.001   1.907
72371W        W40776   2.568  21.314   0.536
72372W        W40777  26.472   8.686   0.836
72373W        W40778  42.021  24.222   0.791
72374W        W40779  23.842  12.330   1.862
72375W        W40780  36.776  10.247  14.255
72376W        W40781   6.659  32.841  13.893
72377W        W40782   8.352  41.529  14.486
72378W        W40783  10.639  23.159  14.900
72379W        W40784  11.410  22.622   3.331
72380W        W40785   8.786  34.754  14.074
72381W        W40786  21.862  15.804  14.472
72382W        W40787  23.650  39.082  12.088
72383W        W40788  28.050  17.815  11.850
72384W        W40789  44.731  26.458   2.826
72385W        W40790  35.164  12.650   1.761
72386W        W40791  25.944  40.078   2.744
72387W        W40792  19.979  12.011   0.994
72388W        W40793  28.440  30.109  14.299
72389W        W40794  33.037  35.463  12.116
72390W        W40795  21.065  41.373  13.283
72391W        W40796  39.128   1.983  13.899
72392W        W40797  24.711  21.152   4.521
72393W        W40798   8.248  14.556  14.809
72394W        W40799  44.900  26.582  12.759
72395W        W40800   9.254   4.464  13.366
72396W        W40801  26.388   5.350  11.869
72397W        W40802  21.531  17.748  13.557
72398W        W40803   7.347   9.722  14.276
72399W        W40804  38.470   1.285  10.167
72400W        W40805  40.406  43.203  13.793
72401W        W40806  18.670  19.565  12.453
72402W        W40807  29.364  42.942  11.710
72403W        W40808  36.300  20.667   4.529
72404W        W40809  36.272  16.790   0.830
72405W        W40810   8.419  42.787   1.904
72406W        W40811  27.800  37.348   0.318
72407W        W40812  13.758  12.609  14.420
72408W        W40813  42.780  31.092  11.735
72409W        W40814  33.545  25.433  12.086
72410W        W40815   4.794   1.927  13.333
72411W        W40816  29.615   9.302   4.475
72412W        W40817   7.037   4.226  11.827
72413W        W40818  24.542  14.164   0.836
72414W        W40819  35.864  18.622  14.306
72415W        W40820  42.844   6.628   3.215
72416W        W40821   3.795  12.143   0.993
72417W        W40822  21.793  11.171   2.755
72418W        W40823  31.462   1.870   1.551
72419W        W40824  26.044   2.537  14.903
72420W        W40825  14.683  23.679  13.365
72421W        W40826  27.565  26.134   1.818
72422W        W40827   6.544  22.568   2.468
72423W        W40828  38.929  41.279   2.169
72424W        W40829  28.859  27.045  14.799
72425W        W40830  20.085  29.101   1.618
72426W        W40831  36.067  31.666  14.488
72427W        W40832   7.431  26.116  12.873
72428W        W40833  18.305  39.210  13.832
72429W        W40834  12.121  29.508   4.627
72430W        W40835  28.975  10.851   3.263
72431W        W40836  20.673  11.178   1.246
72432W        W40837   5.735  35.169  14.600
72433W        W40838  10.447  12.811   4.513
72434W        W40839  19.677  12.428   4.353
72435W        W40840   9.376   1.426   0.266
72436W        W40841   1.141  17.198  11.699
72437W        W40842  22.505  10.166   2.293
72438W        W40843  15.302  32.033  13.381
72439W        W40844  27.183  22.730  13.821
72440W        W40845  20.103  11.141   0.527
72441W        W40846  24.334  12.404  12.543
72442W        W40847  25.929  10.818   2.951
72443W        W40848  28.157   3.436   0.707
72444W        W40849  15.100   8.918   5.442
72445W        W40850   0.022   2.193  11.193
72446W        W40851   1.953   4.847  12.955
72447W        W40852  43.190  38.766   3.738
72448W        W40853  39.739  25.523   1.358
72449W        W40854   0.926  24.887  10.346
72450W        W40855  25.592  42.412  10.675
72451W        W40856  21.703   7.437   3.710
72452W        W40857  35.138  36.521  12.916
72453W        W40858  42.375  30.090   4.035
72454W        W40859  22.634   5.980  13.336
72455W        W40860  21.430  14.907  12.938
72456W        W40861  34.585  29.675   4.281
72457W        W40862  25.788  40.292   4.933
72458W        W40863  25.160  30.892   0.996
72459W        W40864  39.537  18.408   4.508
72460W        W40865  30.725  12.721  12.907
72461W        W40866   8.880  28.209   1.321
72462W        W40867   4.487  15.278  13.789
72463W        W40868  35.922  15.816   0.911
72464W        W40869  36.591  17.904  11.295
72465W        W40870   4.751  42.589   2.828
72466W        W40871   0.221  42.749   0.699
72467W        W40872  23.652   3.525   0.138
72468W        W40873  36.171  11.675  13.039
72469W        W40874   1.284  35.490   4.358
72470W        W40875  39.616   9.756  13.324
72471W        W40876  42.593  21.066  14.405
72472W        W40877  43.686  11.565  10.980
72473W        W40878   4.183  35.374   3.247
72474W        W40879  13.180  35.638  14.903
72475W        W40880  44.236  41.937   2.631
72476W        W40881   0.135  13.253  12.486
72477W        W40882  34.504  15.210  13.728
72478W        W40883   7.224  31.148  13.616
72479W        W40884  31.049  28.881  12.824
72480W        W40885   6.445  23.778  13.036
72481W        W40886   3.008  39.483   3.712
72482W        W40887  24.100  36.760   4.153
72483W        W40888  25.141  36.874   0.402
72484W        W40889  36.010  20.643  13.481
72485W        W40890  21.452  28.012   1.329
72486W        W40891  15.433  29.026   1.753
72487W        W40892  23.266  20.258   4.786
72488W        W40893  32.732  19.643  14.372
72489W        W40894  40.225  40.342  13.392
72490W        W40895  40.569   1.989  10.128
72491W        W40896  16.906  20.356  12.500
72492W        W40897  41.797  40.616   4.280
72493W        W40898  19.991  44.257   2.223
72494W        W40899   9.242  22.252   3.592
72495W        W40900  15.614  22.030  12.153
72496W        W40901  31.999   6.567   0.913
72497W        W40902  27.063  23.060   2.296
72498W        W40903  36.998  41.263  12.972
72499W        W40904  14.724  12.825  14.317
72500W        W40905   5.000  37.073  11.486
72501W        W40906   7.894  13.752  14.496
72502W        W40907  22.458  34.600   0.864
72503W        W40908  22.429  31.622  10.642
72504W        W40909  22.629  28.189   0.617
72505W        W40910  41.706  26.978  13.016
72506W        W40911   5.658  20.935  14.013
72507W        W40912  34.359  11.040   2.276
72508W        W40913  41.287   4.127  10.008
72509W        W40914  18.571  26.970   4.225
72510W        W40915  28.998  38.981   2.267
72511W        W40916  40.184  32.566   1.274
72512W        W40917   1.880  38.426  14.926
72513W        W40918  43.056  32.958  11.924
72514W        W40919  14.488  30.441  12.824
72515W        W40920  43.467   1.210   2.462
72516W        W40921  15.862  10.946   0.929
72517W        W40922  14.240  33.143  12.524
72518W        W40923  30.267  14.850  13.246
72519W        W40924   6.324  44.198  14.347
72520W        W40925  17.127   8.832  11.047
72521W        W40926   0.900  15.816   4.954
72522W        W40927  25.541   5.190  14.499
72523W        W40928  32.302  12.943  14.572
72524W        W40929   8.356   5.852  12.422
72525W        W40930  42.498   5.470  12.873
72526W        W40931  14.869   7.933  12.445
72527W        W40932  24.536  31.586  13.326
72528W        W40933  44.759  31.892   2.251
72529W        W40934  30.556  34.321   4.057
72530W        W40935   6.278  37.026  11.311
72531W        W40936  44.340  28.673   3.792
72532W        W40937  26.426  22.466   3.211
72533W        W40938   0.010  43.582   0.395
72534W        W40939   9.908  16.437   2.201
72535W        W40940  40.277   6.803  12.311
72536W        W40941  28.232  32.611   3.618
72537W        W40942  30.405  11.684   5.048
72538W        W40943  29.404  24.443   1.558
72539W        W40944  41.284   5.859  11.754
72540W        W40945  15.715  34.820  12.065
72541W        W40946  27.388  39.316  12.724
72542W        W40947  12.084  21.622  14.512
72543W        W40948  39.406   8.214   1.719
72544W        W40949  42.116  35.002  14.926
72545W        W40950  26.227  20.651   2.894
72546W        W40951   1.476  17.564  14.333
72547W        W40952  44.033  21.670   4.648
72548W        W40953  28.168  40.362   4.240
72549W        W40954  16.889   4.071  14.938
72550W        W40955  21.144   2.948   0.667
72551W        W40956  11.371  30.204   2.306
72552W        W40957  37.025  28.149  11.921
72553W        W40958  44.934  17.324  12.127
72554W        W40959  43.528  39.102  11.083
72555W        W40960   8.913  23.962  11.554
72556W        W40961  18.668   4.408  13.777
72557W        W40962  15.226  20.727  13.881
72558W        W40963  40.970   6.009   0.666
72559W        W40964  30.090  20.138   3.757
72560W        W40965  29.128   6.653   3.565
72561W        W40966  38.493  22.458  14.943
72562W        W40967   3.278   1.955   3.122
72563W        W40968  38.596  40.799  11.556
72564W        W40969  13.552  33.667  13.442
72565W        W40970  21.763   7.147  13.935
72566W        W40971  42.347  27.010   0.847
72567W        W40972  41.821  17.998   0.225
72568W        W40973  23.684  43.839  11.250
72569W        W40974  36.853   0.237  12.858
72570W        W40975  13.247  26.195   4.416
72571W        W40976   9.286  26.054  11.990
72572W        W40977  28.699  29.115  12.455
72573W        W40978  17.742  39.322   2.115
72574W        W40979  39.306   7.912  12.971
72575W        W40980  43.703   8.917   1.368
72576W        W40981  29.546  21.711  12.075
72577W        W40982  44.321   4.760   2.290
72578W        W40983  14.141  34.076   1.222
72579W        W40984   8.336   9.894   4.621
72580W        W40985  22.724  20.358   2.176
72581W        W40986  22.663  23.537  12.377
72582W        W40987  36.490   4.830   1.449
72583W        W40988  20.447  27.196  11.295
72584W        W40989  30.284   5.806  11.541
72585W        W40990  33.738  26.626   0.248
72586W        W40991  21.173   8.721  11.031
72587W        W40992  19.830  43.175   9.947
72588W        W40993  37.242   5.740  11.342
72589W        W40994  20.031  35.925   3.807
72590W        W40995  39.265   1.472   1.590
72591W        W40996  20.634  23.229   2.269
72592W        W40997  14.601  36.910  10.986
72593W        W40998  26.562  16.853  14.376
72594W        W40999  25.086  37.875  13.641
72595W        W41000  21.217  39.345   3.359
72596W        W41001  34.968   7.461   3.150
72597W        W41002  39.806  38.310  13.837
72598W        W41003  35.945   8.606  10.677
72599W        W41004  21.771  12.154   1.326
72600W        W41005  37.581  40.368   3.696
72601W        W41006  29.849  28.063   0.104
72602W        W41007  35.898  31.062  13.737
72603W        W41008  12.282  26.670   2.127
72604W        W41009  37.132   7.251  14.454
72605W        W41010  12.123  29.111   2.141
72606W        W41011   3.432  33.903   3.525
72607W        W41012  33.888  21.705  12.390
72608W        W41013  32.177  35.726  13.046
72609W        W41014   1.339  26.073   4.281
72610W        W41015  22.449  39.374  12.971
72611W        W41016  38.976  38.464   0.836
72612W        W41017  21.486   3.865  13.531
72613W        W41018  42.479  42.367   4.290
72614W        W41019   2.212  12.188  13.598
72615W        W41020  42.043  35.879  13.872
72616W        W41021  36.960  20.937   3.257
72617W        W41022  32.311  27.420   1.932
72618W        W41023  35.104  29.031   0.870
72619W        W41024   4.489   2.759  11.195
72620W        W41025  33.962  39.083   2.160
72621W        W41026  42.040  33.380  13.453
72622W        W41027   1.551  11.110  11.949
72623W        W41028  17.100  39.850   3.038
72624W        W41029   5.975  11.762  10.422
72625W        W41030  17.533  24.468  14.940
72626W        W41031  42.384   9.417   3.786
72627W        W41032  29.159  42.982   3.264
72628W        W41033  10.193  11.917   3.194
72629W        W41034  29.762  28.622  12.218
72630W        W41035  19.329   2.412  12.483
72631W        W41036  34.997   0.434  10.806
72632W        W41037  10.649  28.249  13.805
72633W        W41038  15.773  34.481   3.070
72634W        W41039  21.566  34.953   1.717
72635W        W41040  33.932  29.427   1.425
72636W        W41041  15.198  21.783   4.139
72637W        W41042  37.992  22.750  14.770
72638W        W41043  25.211   3.968   3.001
72639W        W41044  43.128  41.442   3.770
72640W        W41045  33.517  33.157   2.694
72641W        W41046  20.798  39.820  13.999
72642W        W41047  16.163  23.813   1.302
72643W        W41048  23.565  35.485  11.702
72644W        W41049  12.801  41.034   1.377
72645W        W41050  31.697  27.227  14.933
72646W        W41051  33.502  15.293  11.162
72647W        W41052  43.948  28.227   2.223
72648W        W41053   9.119  35.089  14.297
72649W        W41054  32.267  25.005   1.800
72650W        W41055  10.100  23.601   2.395
72651W        W41056   5.803  32.085  14.033
72652W        W41057  29.770  26.777  13.264
72653W        W41058  30.853  34.060  14.879
72654W        W41059   7.598   0.717   0.999
72655W        W41060  41.875  37.758   2.195
72656W        W41061  10.768  11.253   2.154
72657W        W41062   5.616  15.221   0.165
72658W        W41063  23.903  39.026   5.054
72659W        W41064   6.227  20.532   3.784
72660W        W41065  41.320  35.353  11.077
72661W        W41066  43.769  16.702   1.376
72662W        W41067  15.315  34.056  11.107
72663W        W41068  27.340  33.460  13.849
72664W        W41069  10.190  17.424  11.540
72665W        W41070  33.862  18.284   2.711
72666W        W41071  41.214   9.068  12.478
72667W        W41072   6.959  30.779   4.108
72668W        W41073  31.967  42.466  10.480
72669W        W41074   6.367  28.869  14.917
72670W        W41075  38.885  15.395   2.478
72671W        W41076  35.364   0.512  12.770
72672W        W41077  29.020   2.958  14.460
72673W        W41078  37.496   8.464  13.498
72674W        W41079  27.586  13.119  11.371
72675W        W41080  23.706  11.411   3.946
72676W        W41081  43.413  35.451  14.919
72677W        W41082  29.653  10.311   1.369
72678W        W41083  12.773  35.395  14.133
72679W        W41084  37.555  11.161  14.036
72680W        W41085  20.232  22.652  10.111
72681W        W41086   0.938  32.129  12.881
72682W        W41087  37.253  44.405   0.799
72683W        W41088  17.681   8.314  12.421
72684W        W41089  31.471   4.432   2.277
72685W        W41090   4.691   6.543   1.384
72686W        W41091   1.286  39.313  14.321
72687W        W41092  42.961   2.986   2.420
72688W        W41093  31.767  14.228   1.390
72689W        W41094  19.264  34.009  12.168
72690W        W41095   2.336  12.924  12.463
72691W        W41096  29.222  37.195  14.539
72692W        W41097  34.595  18.076   4.627
72693W        W41098   8.440  26.391  10.778
72694W        W41099  33.503  22.540  13.813
72695W        W41100  18.728  36.408  12.470
72696W        W41101  41.975   0.336   4.621
72697W        W41102   0.795  34.202  12.889
72698W        W41103  13.792  33.343  13.772
72699W        W41104   0.967   1.273   4.281
72700W        W41105  20.073   7.799  10.167
72701W        W41106  26.948  32.498  13.769
72702W        W41107  11.133   9.781  10.607
72703W        W41108  27.462  42.033   1.793
72704W        W41109   9.196   2.244   1.210
72705W        W41110  10.643  33.470   1.722
72706W        W41111  36.863   9.871  13.919
72707W        W41112  32.406   9.643  11.431
72708W        W41113  20.691  36.462  12.437
72709W        W41114   2.925   9.722   0.634
72710W        W41115  36.064  31.045   1.411
72711W        W41116  29.200  13.031   3.788
72712W        W41117  23.230   1.882  11.952
72713W        W41118  20.583  24.643  14.896
72714W        W41119  25.547  35.363  13.399
72715W        W41120  18.158  23.119  14.557
72716W        W41121  21.478   0.846   0.831
72717W        W41122  10.084  42.463   0.228
72718W        W41123  38.795   6.197  14.940
72719W        W41124  10.206  39.982  12.423
72720W        W41125  33.996   5.865  13.790
72721W        W41126  35.444  29.190   3.818
72722W        W41127  20.562  18.268   4.853
72723W        W41128  24.972   9.262  14.509
72724W        W41129  34.417  36.923   3.602
72725W        W41130  31.659  37.072   4.109
72726W        W41131  17.303  34.327  14.078
72727W        W41132  31.857   8.660   3.185
72728W        W41133  13.533  14.411  14.019
72729W        W41134  15.277   1.658   3.514
72730W        W41135  34.528   7.840   0.507
72731W        W41136  34.146  23.085   0.805
72732W        W41137  35.156  33.514   1.820
72733W        W41138  42.758   0.933  11.092
72734W        W41139  11.285  39.761  10.253
72735W        W41140   6.288   0.239   2.240
72736W        W41141  40.340  10.907   1.769
72737W        W41142  18.579  43.722  11.134
72738W        W41143  39.555  35.519  11.937
72739W        W41144  12.377   0.980  13.816
72740W        W41145   0.616  33.804  12.537
72741W        W41146  38.425  15.811   0.248
72742W        W41147  22.092  34.231   1.768
72743W        W41148  18.022  20.724   2.413
72744W        W41149  28.132  43.272   2.426
72745W        W41150  12.356   6.437   4.200
72746W        W41151   6.795  43.959  11.863
72747W        W41152   0.807  18.644   3.637
72748W        W41153  38.337  33.833  13.845
72749W        W41154   5.359  26.610   2.976
72750W        W41155  33.344  23.524   3.182
72751W        W41156   9.307   2.951   2.738
72752W        W41157  23.706  40.454  12.386
72753W        W41158  34.052  44.691   0.901
72754W        W41159  32.216  39.447  12.096
72755W        W41160   7.400  21.460   3.184
72756W        W41161  28.681  30.817   3.566
72757W        W41162  25.899  28.037  14.030
72758W        W41163  30.382  25.664   0.420
72759W        W41164  29.016  37.448  10.024
72760W        W41165  35.022   6.960   3.301
72761W        W41166  18.235  13.117   4.768
72762W        W41167  23.066  40.635  11.516
72763W        W41168   9.667   9.144   4.172
72764W        W41169  17.195  44.868  10.223
72765W        W41170  10.111  37.489  10.618
72766W        W41171   5.652  17.592  13.408
72767W        W41172  29.097  13.733  10.591
72768W        W41173  11.827  40.475   2.269
72769W        W41174  20.189  43.555  13.059
72770W        W41175  13.902  30.938   3.089
72771W        W41176  28.114  23.590   2.262
72772W        W41177   8.002  18.386   2.400
72773W        W41178  26.931  31.689   3.274
72774W        W41179  17.524  14.338   4.080
72775W        W41180  25.098   2.290  11.485
72776W        W41181  19.600  30.312   0.173
72777W        W41182  36.862  10.285   1.321
72778W        W41183  40.456   6.315  14.879
72779W        W41184  18.140  12.773   3.090
72780W        W41185  21.812  37.376  13.035
72781W        W41186  15.480   3.444   4.631
72782W        W41187  10.743  14.180  11.229
72783W        W41188  44.423  36.775   4.241
72784W        W41189  38.174  41.480   0.818
72785W        W41190  43.057  44.991   0.872
72786W        W41191   0.963  42.512   3.722
72787W        W41192  20.287   9.432  11.640
72788W        W41193  32.018  34.035  10.643
72789W        W41194  16.381  16.908   0.177
72790W        W41195  40.992  19.360  14.433
72791W        W41196   9.640  25.203   0.181
72792W        W41197  17.250  44.511  14.833
72793W        W41198   5.628  39.991  11.995
72794W        W41199  27.261  20.591  11.142
72795W        W41200  40.339  20.266  13.944
72796W        W41201  29.227  35.184  10.222
72797W        W41202  14.106  31.272  11.322
72798W        W41203  32.056  27.868  12.468
72799W        W41204  19.009  37.568   3.241
72800W        W41205  37.749  30.986  13.329
72801W        W41206  14.171  12.376  12.566
72802W        W41207  41.949  27.428   4.751
72803W        W41208  38.158   8.197  12.315
72804W        W41209  13.536  40.254  11.622
72805W        W41210   8.198  18.590  12.616
72806W        W41211  35.906  10.321  13.851
72807W        W41212  25.961  40.578  11.007
72808W        W41213  23.720   8.998  13.905
72809W        W41214  38.019  14.197   3.191
72810W        W41215  44.493  24.968   4.061
72811W        W41216   5.278  35.205  12.779
72812W        W41217  34.982  44.498  13.303
72813W        W41218  12.853  14.832   2.611
72814W        W41219  41.772  15.691   4.602
72815W        W41220  11.302  34.962   2.449
72816W        W41221   8.738   7.089   9.693
72817W        W41222  10.606  13.398  11.565
72818W        W41223  37.865  23.982  10.827
72819W        W41224  35.975  32.254  14.351
72820W        W41225   2.765   9.795   1.138
72821W        W41226  26.052  21.956  13.373
72822W        W41227  13.652  35.661  12.538
72823W        W41228  39.342  44.362   3.274
72824W        W41229  36.726  12.567  11.445
72825W        W41230  14.622  18.207   1.931
72826W        W41231  12.083  30.092   2.801
72827W        W41232  19.455   0.020   4.873
72828W        W41233   9.468  42.066   2.229
72829W        W41234  27.946  12.592   9.928
72830W        W41235  11.188  39.872   0.802
72831W        W41236  11.116   2.686   3.188
72832W        W41237  12.662  26.499  11.936
72833W        W41238  18.285  22.260  12.502
72834W        W41239   3.507   6.737  12.063
72835W        W41240  44.261   7.707   0.914
72836W        W41241   3.770  16.350  12.013
72837W        W41242  34.804  12.721  11.676
72838W        W41243  22.932  37.365  13.485
72839W        W41244  35.872  17.464  12.484
72840W        W41245  38.087  17.784  11.934
72841W        W41246  19.741   9.113   2.744
72842W        W41247  44.736  14.112   2.738
72843W        W41248   8.396  11.281  10.979
72844W        W41249  19.689  22.317   4.564
72845W        W41250   4.698  20.899   4.637
72846W        W41251  25.885   5.771  14.927
72847W        W41252  18.893  36.168  10.364
72848W        W41253  30.569  15.629  13.506
72849W        W41254  37.646  18.781  13.288
72850W        W41255  35.540   5.948  12.116
72851W        W41256  20.994  43.158  11.653
72852W        W41257  19.968  10.558   1.166
72853W        W41258  38.339  38.269   2.856
72854W        W41259  23.606   0.225  10.802
72855W        W41260  12.038  19.773   2.754
72856W        W41261   3.081  27.471  10.179
72857W        W41262  39.384  24.820   0.836
72858W        W41263  33.831  12.361   4.035
72859W        W41264  17.775  28.007   4.449
72860W        W41265  22.514  34.934   0.132
72861W        W41266  29.596  21.197   1.884
72862W        W41267  19.597  38.997   1.560
72863W        W41268   6.573   9.604  11.732
72864W        W41269   1.726  23.055  13.003
72865W        W41270  29.350  44.315  10.732
72866W        W41271  14.553  35.471   2.211
72867W        W41272  34.305   2.455   4.242
72868W        W41273  41.823  24.757  11.059
72869W        W41274  43.457  43.917  11.375
72870W        W41275  18.186   7.247  13.647
72871W        W41276  32.340  43.403   0.266
72872W        W41277   6.694  19.345  12.969
72873W        W41278  39.800   0.300  11.534
72874W        W41279  40.563   2.312   2.346
72875W        W41280  24.736   1.884  12.049
72876W        W41281  24.498  16.671  12.161
72877W        W41282  28.037  30.303   4.833
72878W        W41283  34.494  19.950   3.231
72879W        W41284  40.360  26.601   4.324
72880W        W41285  28.899  25.306  13.371
72881W        W41286  43.907  34.506  11.630
72882W        W41287   4.423  19.104   3.408
72883W        W41288  31.221  37.545  13.506
72884W        W41289  34.002  35.543   1.310
72885W        W41290  34.113  19.941  11.247
72886W        W41291  42.477   9.682  13.277
72887W        W41292  21.182  34.428   3.131
72888W        W41293  15.313   6.135  11.138
72889W        W41294  17.377  29.101   1.433
72890W        W41295  38.991  11.461   1.113
72891W        W41296   1.973  18.453   0.391
72892W        W41297  24.628  41.442  12.004
72893W        W41298  37.637   5.871  13.411
72894W        W41299  17.147  12.819   0.185
72895W        W41300  20.085  12.416  11.473
72896W        W41301   7.975  35.937  10.730
72897W        W41302  36.605  25.583   4.080
72898W        W41303   4.713  27.012  12.038
72899W        W41304  24.035  41.929   0.820
72900W        W41305  14.220   2.873   1.216
72901W        W41306  16.593  23.969   4.161
72902W        W41307  37.101   2.232  13.063
72903W        W41308   6.205   1.677   4.662
72904W        W41309  26.150   8.668   0.341
72905W        W41310  18.324  43.467   4.610
72906W        W41311   2.846  34.672   0.459
72907W        W41312  17.010  13.185   4.595
72908W        W41313  22.242  38.101  13.802
72909W        W41314   3.286  14.352   0.525
72910W        W41315  29.566   7.370   4.126
72911W        W41316  29.075   0.470   4.324
72912W        W41317  26.523  18.281   3.792
72913W        W41318  12.832  35.276   3.587
72914W        W41319   1.272  11.799  13.840
72915W        W41320  33.974   2.407   3.725
72916W        W41321  27.661  24.301   4.546
72917W        W41322   0.765  32.465   0.385
72918W        W41323   7.932   4.408  10.731
72919W        W41324  39.184  22.135  12.472
72920W        W41325  22.281  13.145  11.000
72921W        W41326  14.077  44.204   1.277
72922W        W41327  33.163  38.977  14.734
72923W        W41328  15.494   7.170  14.831
72924W        W41329  39.770   2.970  12.224
72925W        W41330  35.884  30.995  14.259
72926W        W41331  43.251  10.401   5.139
72927W        W41332   0.220  40.803  13.829
72928W        W41333  27.106  26.546  13.886
72929W        W41334  31.148   5.626  12.083
72930W        W41335  19.885  10.399  14.386
72931W        W41336   5.979   0.423   0.938
72932W        W41337  25.907   0.721  13.455
72933W        W41338  44.504  30.296   1.835
72934W        W41339  11.997  38.380   1.010
72935W        W41340   0.782  35.804  14.749
72936W        W41341   6.331  26.523  13.816
72937W        W41342   6.294   1.881  12.603
72938W        W41343  35.078  13.879   0.377
72939W        W41344  13.118  18.682  14.296
72940W        W41345  41.510  39.909   1.701
72941W        W41346  18.489  28.248   2.985
72942W        W41347   0.025   4.891  11.093
72943W        W41348   0.886  16.616  13.561
72944W        W41349  35.214  44.948  14.262
72945W        W41350   3.999  31.784  13.080
72946W        W41351   1.894  35.785  12.598
72947W        W41352  38.988  41.299  12.996
72948W        W41353  33.444  42.661  11.730
72949W        W41354   9.947  16.192   1.737
72950W        W41355  12.870  40.333   4.640
72951W        W41356  17.181  12.072  12.576
72952W        W41357   4.756  24.821   2.918
72953W        W41358   6.891  17.246   4.824
72954W        W41359  15.480   1.010   5.554
72955W        W41360  42.295  42.726   4.657
72956W        W41361   1.662  29.188  14.590
72957W        W41362   1.731  26.702   1.708
72958W        W41363  34.521  25.997   1.325
72959W        W41364   7.961   3.344  11.954
72960W        W41365  21.883  15.091   1.889
72961W        W41366  39.843   6.990  11.972
72962W        W41367  44.246   1.800   0.149
72963W        W41368  27.072  20.859   0.778
72964W        W41369   5.855  15.843  12.302
72965W        W41370  17.328   6.361   5.011
72966W        W41371  36.001   9.333   1.278
72967W        W41372   6.164   8.100  12.515
72968W        W41373  38.839  10.776  10.695
72969W        W41374  13.486  15.809   0.630
72970W        W41375  14.831  21.540   4.458
72971W        W41376  19.578  17.925  13.608
72972W        W41377   8.848  17.815  13.556
72973W        W41378  42.630  25.760   3.334
72974W        W41379  29.414  33.357   5.022
72975W        W41380   7.813   8.710  10.447
72976W        W41381  14.794  27.750   3.503
72977W        W41382  20.569  14.662   2.642
72978W        W41383  37.371  14.874  14.889
72979W        W41384  17.085  41.937  12.155
72980W        W41385  40.405   3.172  11.965
72981W        W41386  35.106  31.633   2.372
72982W        W41387   9.531  26.086   1.638
72983W        W41388  10.322  44.299  10.741
72984W        W41389  25.683  21.303  13.773
72985W        W41390  16.689  27.160   4.694
72986W        W41391  16.838   4.724  11.846
72987W        W41392   1.379  28.202  13.207
72988W        W41393  28.127   1.594   1.350
72989W        W41394  23.219  35.450   1.772
72990W        W41395  44.805  39.975   2.201
72991W        W41396  35.846  37.273  13.913
72992W        W41397  32.532   4.159  11.066
72993W        W41398  29.667  20.285  14.417
72994W        W41399  20.718  17.231   3.148
72995W        W41400   8.367  23.263   3.652
72996W        W41401  34.725  18.408  10.718
72997W        W41402  24.524  10.161   4.974
72998W        W41403   7.937  32.157  13.782
72999W        W41404  42.969  29.654   3.571
73000W        W41405  27.243  26.098   0.944
73001W        W41406   0.229  33.978  10.676
73002W        W41407  22.260  12.770   2.715
73003W        W41408   4.834   1.996   2.724
73004W        W41409  18.665  23.265   0.886
73005W        W41410   0.004  13.174   3.837
73006W        W41411   4.007  28.416  12.376
73007W        W41412  20.895  34.040   2.958
73008W        W41413  44.895  38.613   2.740
73009W        W41414  32.541  30.846   2.218
73010W        W41415   6.378  12.334   0.017
73011W        W41416  33.319   7.448   4.451
73012W        W41417  34.546  40.761  14.568
73013W        W41418  44.757  34.320  13.707
73014W        W41419   2.361  19.305  14.415
73015W        W41420  32.420  23.124   0.059
73016W        W41421  34.335  20.377   2.419
73017W        W41422  44.354  44.061  11.166
73018W        W41423  32.940  41.802  14.642
73019W        W41424   6.195  42.039   1.926
73020W        W41425  23.050  14.780  13.032
73021W        W41426  25.559   9.233   3.080
73022W        W41427  27.598  39.230   1.717
73023W        W41428  32.938  25.164   2.129
73024W        W41429  12.836  28.701  10.767
73025W        W41430  10.664  19.423   2.848
73026W        W41431  25.304  13.745  12.490
73027W        W41432   9.184   0.526   2.424
73028W        W41433  40.680  37.652   5.078
73029W        W41434   5.144  14.592  11.075
73030W        W41435  33.202  21.511   1.385
73031W        W41436  20.175  10.154   0.855
73032W        W41437  17.782  44.423  10.392
73033W        W41438  25.710  22.185   4.812
73034W        W41439  25.608  43.483   0.318
73035W        W41440  24.102  17.092   3.206
73036W        W41441  31.559  34.486  14.069
73037W        W41442  14.113  38.916  13.540
73038W        W41443  27.222  40.070   0.292
73039W        W41444  15.636   5.567  10.258
73040W        W41445   9.160  40.315   3.757
73041W        W41446  32.058  12.894  13.855
73042W        W41447  31.953  20.320   1.405
73043W        W41448   8.726  28.231  14.957
73044W        W41449  30.441  36.187   2.287
73045W        W41450  32.177  33.976  12.466
73046W        W41451   1.237  14.992  12.102
73047W        W41452  17.598  29.423  14.006
73048W        W41453   8.693   9.488  12.523
73049W        W41454  41.902  19.946  14.763
73050W        W41455  35.749  36.985  14.342
73051W        W41456   6.233  43.345  10.314
73052W        W41457  14.623  15.608   1.664
73053W        W41458  37.445  27.644   4.622
73054W        W41459  30.658  38.750   0.497
73055W        W41460  25.513  35.375  11.603
73056W        W41461  27.356  42.716  13.833
73057W        W41462  21.842  42.470  12.102
73058W        W41463   3.292  44.196   4.955
73059W        W41464   1.348  22.329   3.306
73060W        W41465  22.780  35.882  12.922
73061W        W41466  35.387  21.940  10.649
73062W        W41467  32.372  26.329  10.061
73063W        W41468  25.390  11.679  11.196
73064W        W41469  30.055  36.278  11.050
73065W        W41470  15.287  33.382  13.279
73066W        W41471  14.563  44.522  11.333
73067W        W41472  36.042   4.775  10.664
73068W        W41473  39.626  15.283  10.772
73069W        W41474  15.589  13.220  14.833
73070W        W41475  36.872  33.906   0.175
73071W        W41476  14.843   9.626  10.706
73072W        W41477  39.602   2.566  12.940
73073W        W41478  44.392  28.523  10.962
73074W        W41479  12.713   8.704  14.379
73075W        W41480   2.250  18.997   3.935
73076W        W41481  11.209   6.920   2.822
73077W        W41482  35.646  35.938  14.314
73078W        W41483  19.060   7.083  14.210
73079W        W41484   7.090  36.651   3.301
73080W        W41485  37.403  18.782  10.704
73081W        W41486  17.380  41.870  14.900
73082W        W41487   4.428   2.267  11.349
73083W        W41488  40.871  13.107   3.105
73084W        W41489  31.293  42.569   1.714
73085W        W41490  35.799  37.119   3.717
73086W        W41491  31.417  41.450  14.338
73087W        W41492  26.896  14.301  11.635
73088W        W41493  38.499  23.668   0.585
73089W        W41494  41.875  38.859   9.865
73090W        W41495  15.588   7.404  11.902
73091W        W41496  15.753  24.450   5.528
73092W        W41497  43.947  18.780  12.828
73093W        W41498  26.267   1.057   4.881
73094W        W41499  21.462  32.478  10.386
73095W        W41500  32.958  30.630   3.713
73096W        W41501  31.472  28.486  10.720
73097W        W41502  13.357  42.941  12.877
73098W        W41503  28.972  23.147  14.802
73099W        W41504  30.905   8.960  14.097
73100W        W41505  31.670   5.672  11.618
73101W        W41506  21.606  37.471   1.686
73102W        W41507  12.891  37.397   0.332
73103W        W41508  42.969  32.870  11.165
73104W        W41509  12.859  33.867  10.689
73105W        W41510  37.821  28.547  12.874
73106W        W41511  40.301  13.589  12.491
73107W        W41512  12.226  36.989   0.802
73108W        W41513   8.409  40.603   1.730
73109W        W41514  36.481  33.903  13.804
73110W        W41515   8.622  28.063   1.894
73111W        W41516  25.018  21.848   4.931
73112W        W41517  20.326  13.847   0.383
73113W        W41518  40.496  21.399   1.438
73114W        W41519  25.969  43.741   4.501
73115W        W41520   2.382   0.737  10.904
73116W        W41521  18.663  36.303   1.383
73117W        W41522   2.422   4.373   4.965
73118W        W41523  20.678   1.246   4.208
73119W        W41524  27.829  25.153  10.890
73120W        W41525  37.949  25.898   3.514
73121W        W41526  17.264  25.116  11.599
73122W        W41527  36.921  41.914   1.745
73123W        W41528  29.445  26.512   2.324
73124W        W41529  28.971  17.912   5.008
73125W        W41530  43.694  29.441   2.819
73126W        W41531   4.884  38.378  11.316
73127W        W41532  43.926   7.249   4.893
73128W        W41533  27.555  39.513  13.675
73129W        W41534   5.417  32.961   3.099
73130W        W41535  19.057  18.059   0.253
73131W        W41536   2.410   8.695   1.288
73132W        W41537  23.626  18.290  14.907
73133W        W41538   8.187   7.886  13.126
73134W        W41539  30.153   7.415   1.480
73135W        W41540   1.447  39.813   4.407
73136W        W41541  32.435  33.723   9.904
73137W        W41542  24.606  10.033  11.164
73138W        W41543  35.376  19.804   9.833
73139W        W41544  15.102  27.327   1.844
73140W        W41545  41.297  36.383   2.921
73141W        W41546  14.530  15.323  14.867
73142W        W41547   8.861   1.572   0.280
73143W        W41548  14.706   2.785   1.471
73144W        W41549   4.772  38.070  13.991
73145W        W41550  26.240   9.384  13.955
73146W        W41551   9.707   1.722   4.767
73147W        W41552   0.223  13.323   4.311
73148W        W41553  40.817  13.635   2.348
73149W        W41554  27.642  17.476  13.099
73150W        W41555   8.024  42.008  12.991
73151W        W41556   8.272   9.873  10.916
73152W        W41557  14.528   5.293   2.650
73153W        W41558   9.089  27.095  14.367
73154W        W41559  20.582  35.849  14.331
73155W        W41560  14.903  16.631  11.116
73156W        W41561  16.507  19.580   1.832
73157W        W41562   7.314  14.602  10.704
73158W        W41563  31.493   2.423  12.614
73159W        W41564  18.215  34.910  10.748
73160W        W41565  34.051  29.356  12.865
73161W        W41566  36.399  18.661   1.184
73162W        W41567  30.484  19.685   1.996
73163W        W41568   5.276  36.097  12.222
73164W        W41569   0.971   5.776  11.199
73165W        W41570  16.457   0.368   3.274
73166W        W41571  15.595   9.088  12.648
73167W        W41572   9.234   4.025   4.603
73168W        W41573  37.941  27.943  13.383
73169W        W41574  19.579  13.872   3.236
73170W        W41575  13.435   0.914  12.813
73171W        W41576  23.584  40.019   2.711
73172W        W41577  33.782  12.775   4.338
73173W        W41578  28.687  22.031   3.200
73174W        W41579  43.381  23.967   4.304
73175W        W41580  41.878  22.745  13.074
73176W        W41581   1.916   4.949   4.659
73177W        W41582  41.729  29.257   4.152
73178W        W41583  30.944   8.922   2.297
73179W        W41584  38.599   1.766  12.640
73180W        W41585  25.133   5.473  14.350
73181W        W41586  38.007   5.317  11.699
73182W        W41587  44.385   3.365   4.703
73183W        W41588  38.270   6.950  11.035
73184W        W41589  43.428  39.014  14.213
73185W        W41590  39.258  35.292   0.265
73186W        W41591  29.724  15.827   4.141
73187W        W41592  28.752  36.077   1.264
73188W        W41593  32.495  24.760   2.707
73189W        W41594  34.988  18.766   2.537
73190W        W41595  19.044  20.646   0.383
73191W        W41596  36.434  36.555   1.074
73192W        W41597  32.638  36.741  11.626
73193W        W41598  23.211  22.070   3.757
73194W        W41599  42.930   4.019  14.844
73195W        W41600  17.643  20.213  10.978
73196W        W41601  39.763  44.327  13.524
73197W        W41602   0.928  20.284   2.526
73198W        W41603  11.715   9.843  13.134
73199W        W41604  44.510  31.526   1.300
73200W        W41605  14.808  12.146   4.636
73201W        W41606  23.559   6.823  11.015
73202W        W41607   5.425  31.114  11.974
73203W        W41608  39.710  24.713   3.909
73204W        W41609   2.422  34.728  13.860
73205W        W41610  31.134   9.431  14.066
73206W        W41611  37.875  41.565   2.783
73207W        W41612  19.293  28.774   2.337
73208W        W41613  36.165  39.833  14.424
73209W        W41614  10.628  11.376   1.114
73210W        W41615  19.283  17.506   2.677
73211W        W41616   3.302  19.308  14.401
73212W        W41617  10.355  27.048  14.322
73213W        W41618  43.506  27.881   1.277
73214W        W41619  41.382  44.009  14.128
73215W        W41620  24.262  39.476  12.610
73216W        W41621   4.848   6.784   3.349
73217W        W41622  22.362   0.334  13.941
73218W        W41623  16.980   5.440  13.228
73219W        W41624  41.708   6.401  11.192
73220W        W41625  37.187  13.218   0.707
73221W        W41626  10.517   9.145  13.358
73222W        W41627  23.986  37.218   2.747
73223W        W41628   5.431  20.146  12.143
73224W        W41629  18.793  28.633  14.093
73225W        W41630  43.338  38.994   4.626
73226W        W41631  13.082   2.435   4.320
73227W        W41632   4.006  22.784   0.181
73228W        W41633  30.363   7.313  13.981
73229W        W41634  42.442   7.204   3.734
73230W        W41635  30.587  40.709   4.050
73231W        W41636  35.441  17.500   3.564
73232W        W41637  43.506  38.870   4.142
73233W        W41638  33.576  19.274  12.990
73234W        W41639  39.540  25.116   2.453
73235W        W41640  10.825  16.963  11.433
73236W        W41641  41.578  37.259  10.127
73237W        W41642  41.981  17.857   3.237
73238W        W41643  31.459   9.274  14.454
73239W        W41644  22.339  15.607   4.192
73240W        W41645  38.785  36.648  12.033
73241W        W41646  25.553  19.050  13.831
73242W        W41647  25.997   6.896   3.243
73243W        W41648  11.701   9.538  11.141
73244W        W41649  26.074   0.174  14.728
73245W        W41650  24.697  41.577   3.849
73246W        W41651   3.647  44.369  11.401
73247W        W41652  39.952  38.355  14.337
73248W        W41653  12.658  13.146  11.381
73249W        W41654  13.633  31.589   2.774
73250W        W41655   8.128  16.725   1.955
73251W        W41656  37.294   5.937  11.805
73252W        W41657  17.811  21.306   0.706
73253W        W41658  16.187   0.409   4.025
73254W        W41659  36.322  33.971  13.306
73255W        W41660   3.976  29.255  14.480
73256W        W41661  39.703   9.770   4.619
73257W        W41662  22.189  15.155  13.607
73258W        W41663  37.934  16.336   2.691
73259W        W41664  39.449  14.696   0.962
73260W        W41665  13.658  36.330   4.806
73261W        W41666  11.623  16.881  10.204
73262W        W41667   9.730  10.174   2.792
73263W        W41668  37.360  18.591   1.330
73264W        W41669   7.781  12.324   3.657
73265W        W41670  17.280   3.613   3.233
73266W        W41671  38.526  10.024  11.560
73267W        W41672  44.777   7.739   1.812
73268W        W41673  43.295  39.881   2.383
73269W        W41674  10.121  32.145  11.032
73270W        W41675  27.371  21.041  10.306
73271W        W41676   5.334  14.234  12.265
73272W        W41677   6.462  31.677  12.323
73273W        W41678  33.663  38.516   1.706
73274W        W41679  42.851   4.776  11.605
73275W        W41680   5.171  37.995   1.889
73276W        W41681  25.064  42.512  12.380
73277W        W41682  31.010   7.209  11.936
73278W        W41683   9.696  22.209  14.934
73279W        W41684  43.543  21.744   1.487
73280W        W41685  17.016  30.898   1.206
73281W        W41686  44.918  17.995  14.079
73282W        W41687  38.926   7.293  12.188
73283W        W41688  20.740  26.073   4.075
73284W        W41689  25.482   5.870   0.907
73285W        W41690  24.523  25.960  12.146
73286W        W41691  36.114  22.703  14.835
73287W        W41692   8.623  27.576  10.629
73288W        W41693  27.799   7.845  13.349
73289W        W41694  36.777  20.522   0.228
73290W        W41695  12.096  37.849  14.857
73291W        W41696   8.966  11.891  11.567
73292W        W41697  27.036  11.181  10.754
73293W        W41698  29.537   9.868   0.464
73294W        W41699   1.917  35.658   0.653
73295W        W41700  35.386  17.773   1.954
73296W        W41701  28.223   0.958   4.636
73297W        W41702  41.011   7.169  11.842
73298W        W41703  22.342   9.202  14.682
73299W        W41704  41.820  12.605   4.780
73300W        W41705  30.816  23.998   1.911
73301W        W41706  37.753  13.330  11.518
73302W        W41707  39.674  22.254  12.629
73303W        W41708  35.396  40.346   1.776
73304W        W41709   0.624   7.396  10.773
73305W        W41710  32.951  18.343   2.606
73306W        W41711  31.785  38.080  14.976
73307W        W41712  15.825  32.005   5.062
73308W        W41713  41.152  30.812  13.074
73309W        W41714  23.681  37.570   4.046
73310W        W41715  38.211   3.722   1.018
73311W        W41716   4.785   1.080   4.490
73312W        W41717  31.591  31.397  11.050
73313W        W41718   6.806   7.924   3.282
73314W        W41719  44.934   8.273  12.180
73315W        W41720  34.511   7.841   3.282
73316W        W41721   0.632  16.091   0.754
73317W        W41722   9.800  24.712   0.237
73318W        W41723  30.893   7.965  12.507
73319W        W41724  29.023  39.890  12.574
73320W        W41725  23.600  33.511   2.276
73321W        W41726  34.937   0.671   1.367
73322W        W41727  12.103  42.330  11.675
73323W        W41728  12.058   7.287   2.194
73324W        W41729   9.903  30.918   5.014
73325W        W41730  38.139   5.564  14.915
73326W        W41731   5.890  41.921   2.361
73327W        W41732   5.152  41.947   1.264
73328W        W41733   8.403   2.037   4.142
73329W        W41734  31.622   0.765   3.360
73330W        W41735  40.357  33.813  13.897
73331W        W41736  44.678  38.770  11.645
73332W        W41737  26.953  42.055   4.585
73333W        W41738  30.264  18.815  13.412
73334W        W41739  32.514   6.728   1.780
73335W        W41740  25.523  37.654   1.414
73336W        W41741  10.226  21.734  14.715
73337W        W41742  34.942  21.793  12.850
73338W        W41743   4.744   7.427  12.577
73339W        W41744   5.155   0.834  11.184
73340W        W41745  26.680  23.221   1.344
73341W        W41746  20.853   5.727  12.879
73342W        W41747  24.486  17.848   1.229
73343W        W41748   3.060  26.926  14.923
73344W        W41749   1.295  37.696   0.198
73345W        W41750  16.129  22.688  10.328
73346W        W41751  20.237  15.107  11.077
73347W        W41752  21.888  19.199   1.446
73348W        W41753  35.599  13.841  12.023
73349W        W41754  28.908  43.447  14.489
73350W        W41755   9.591  27.269  14.537
73351W        W41756  43.445  13.885   3.203
73352W        W41757  28.858  17.792  10.811
73353W        W41758   9.117  15.457   4.494
73354W        W41759  20.811  15.202   3.810
73355W        W41760  25.958  24.214  13.550
73356W        W41761   2.879  12.601   0.886
73357W        W41762  26.965  33.470   2.780
73358W        W41763   1.796   9.926   1.348
73359W        W41764  22.246  37.486   3.009
73360W        W41765   9.554  31.656  14.812
73361W        W41766   5.752  20.790  12.060
73362W        W41767  32.081  21.023   2.107
73363W        W41768   7.901  25.627   0.447
73364W        W41769   6.384  29.646  14.306
73365W        W41770  21.179  37.316   0.254
73366W        W41771  15.327  27.201   0.124
73367W        W41772   4.140   2.813  12.662
73368W        W41773  41.080  13.379  11.666
73369W        W41774  37.140  41.857   3.725
73370W        W41775   1.232  40.329  14.502
73371W        W41776  36.570  36.898  12.100
73372W        W41777   0.165  22.895  12.773
73373W        W41778  29.924  33.192   4.982
73374W        W41779  12.476   0.777   3.241
73375W        W41780  28.112  22.682  13.369
73376W        W41781   5.378  22.126  14.442
73377W        W41782  27.108  31.931   1.936
73378W        W41783  31.200  32.490   4.512
73379W        W41784  32.544   7.434  12.669
73380W        W41785   2.401   2.943   3.353
73381W        W41786  26.873  41.104   3.761
73382W        W41787   5.877   0.063   1.779
73383W        W41788  27.766   5.918  12.939
73384W        W41789  30.080   8.382  13.096
73385W        W41790  24.743  18.203  10.893
73386W        W41791   7.476  25.169  10.565
73387W        W41792  27.268  41.634   4.561
73388W        W41793  22.940  24.760  11.527
73389W        W41794  32.628   6.821  11.866
73390W        W41795   9.246   9.906   2.684
73391W        W41796  11.895  35.058   0.584
73392W        W41797   6.367  19.173   1.281
73393W        W41798   2.181   9.696   4.152
73394W        W41799   3.485  38.572   4.227
73395W        W41800   6.063   4.472  12.950
73396W        W41801   8.876  28.894  11.509
73397W        W41802  22.230  33.500   3.861
73398W        W41803  26.675  17.971   2.960
73399W        W41804  34.783  24.328   1.621
73400W        W41805  33.995  14.866   2.403
73401W        W41806  26.573  30.402   1.352
73402W        W41807  14.705  20.696  14.624
73403W        W41808  44.457  19.638   4.481
73404W        W41809  36.928   1.944   4.077
73405W        W41810  19.765  40.267  14.975
73406W        W41811   0.882   9.665  12.523
73407W        W41812  16.565  31.196   1.289
73408W        W41813   6.599  16.614   3.596
73409W        W41814  40.905  39.913  11.624
73410W        W41815  36.960  15.150  14.461
73411W        W41816  35.043  15.361   2.065
73412W        W41817   6.459   7.639   0.304
73413W        W41818  33.994   6.167   3.301
73414W        W41819   4.054  31.404  14.072
73415W        W41820  23.046  34.664   3.780
73416W        W41821  33.457  29.523   2.992
73417W        W41822   9.104  24.640  10.831
73418W        W41823  24.903  36.640   0.825
73419W        W41824  31.335  20.683  13.277
73420W        W41825   3.210  20.376   2.146
73421W        W41826  23.973  22.448   0.891
73422W        W41827  26.057  41.363   2.128
73423W        W41828  14.254  31.204   0.249
73424W        W41829  42.348  16.805   2.284
73425W        W41830  17.775  33.140  12.069
73426W        W41831  22.094  36.141   4.829
73427W        W41832   3.392   3.974  10.637
73428W        W41833  22.591  24.227  10.753
73429W        W41834  38.337  20.501  12.468
73430W        W41835  29.196  18.016  13.607
73431W        W41836  25.237  44.487   1.541
73432W        W41837  30.138  26.039   0.683
73433W        W41838  15.805  11.281   2.255
73434W        W41839  36.480  16.623   1.287
73435W        W41840  34.066  28.197   3.224
73436W        W41841  27.666  32.419  14.469
73437W        W41842  35.925  39.553  13.467
73438W        W41843  20.406  24.672   2.266
73439W        W41844  41.459  16.834  14.889
73440W        W41845  29.471  41.180   4.110
73441W        W41846  32.133  38.678   2.091
73442W        W41847  24.840  28.922   4.013
73443W        W41848  31.670  35.392  12.153
73444W        W41849  43.467  12.195   1.985
73445W        W41850  16.046  25.142   4.553
73446W        W41851  20.510  18.523   2.176
73447W        W41852  42.941  24.001  13.056
73448W        W41853  21.588   3.858   1.381
73449W        W41854   4.686  16.340  10.538
73450W        W41855  36.795  30.966   4.915
73451W        W41856  12.781  39.371  12.835
73452W        W41857  28.184  20.303  13.316
73453W        W41858  41.125  13.060  14.480
73454W        W41859  20.924  35.974   0.571
73455W        W41860  15.113  31.151  11.069
73456W        W41861  22.720  42.822   1.883
73457W        W41862  44.365   8.338  13.546
73458W        W41863  37.400   8.879  12.466
73459W        W41864  17.992  39.555   2.733
73460W        W41865  38.547  27.929  10.512
73461W        W41866  41.375  44.908   0.536
73462W        W41867  11.410  15.538  10.535
73463W        W41868  18.661  35.180  10.598
73464W        W41869  14.104   4.215  13.040
73465W        W41870  14.340  42.589  13.829
73466W        W41871  34.850  44.927  10.951
73467W        W41872  22.188   5.325   3.140
73468W        W41873  16.551  18.233  13.562
73469W        W41874  34.561  42.036   0.758
73470W        W41875  31.113  18.609  12.474
73471W        W41876  14.875  40.385   4.755
73472W        W41877  16.806  16.996  14.919
73473W        W41878  34.608  43.018   4.125
73474W        W41879  13.640  44.984  13.814
73475W        W41880  30.046  29.932   1.423
73476W        W41881   8.204  43.184   3.308
73477W        W41882  16.547  30.913   2.138
73478W        W41883  15.824  39.938   1.337
73479W        W41884  30.977   6.714   1.812
73480W        W41885  16.848  18.170   4.477
73481W        W41886  25.922  38.593   2.664
73482W        W41887  30.801   0.837  11.271
73483W        W41888  11.606  18.331   3.692
73484W        W41889  41.396  36.819  13.386
73485W        W41890  39.836   4.462  12.049
73486W        W41891  18.222  44.958   3.741
73487W        W41892  36.748  41.344   0.565
73488W        W41893  23.963   7.199   1.205
73489W        W41894  26.513  12.623  11.343
73490W        W41895  11.290  44.522  10.665
73491W        W41896  24.141   6.457  13.411
73492W        W41897   6.884  40.375   4.564
73493W        W41898  23.854  22.873   3.338
73494W        W41899  44.846  38.185  12.478
73495W        W41900  23.321  40.477   3.406
73496W        W41901  12.739   1.267  12.151
73497W        W41902  29.255  13.725  13.849
73498W        W41903  25.738  37.059   2.333
73499W        W41904  36.566  13.189  10.684
73500W        W41905  21.404  19.781   2.441
73501W        W41906  23.194   2.089   2.327
73502W        W41907  10.893   0.747  13.843
73503W        W41908  34.793  43.843   3.745
73504W        W41909   8.366   5.580  14.369
73505W        W41910  41.245  29.894   1.740
73506W        W41911  12.926  29.873   4.377
73507W        W41912   5.293  18.573   9.658
73508W        W41913  15.774  20.745   0.117
73509W        W41914  33.043   1.824   4.955
73510W        W41915  10.169  34.409  13.837
73511W        W41916  38.571  31.455   1.283
73512W        W41917   4.644   5.351  14.449
73513W        W41918   9.945  43.373   0.940
73514W        W41919  21.927  43.068   1.957
73515W        W41920   9.081  22.618   1.344
73516W        W41921  11.142  35.519   3.726
73517W        W41922  12.056  31.929  12.649
73518W        W41923  27.449   3.717  13.533
73519W        W41924  40.493  30.525   1.673
73520W        W41925  35.797  23.197  13.128
73521W        W41926  15.555  26.133  14.422
73522W        W41927  33.342  23.552   1.040
73523W        W41928  25.885   3.117  12.503
73524W        W41929  23.230  29.486  10.488
73525W        W41930  18.224  21.568   0.874
73526W        W41931  14.719  41.072  11.581
73527W        W41932   8.491  38.559   1.861
73528W        W41933   6.617   5.704  12.926
73529W        W41934   8.234  33.587  14.964
73530W        W41935  41.842  33.599  10.054
73531W        W41936  10.417  44.896  11.356
73532W        W41937  34.876  29.702   3.399
73533W        W41938  19.479  35.282  12.409
73534W        W41939  26.617   4.896  11.684
73535W        W41940  23.155  12.851  10.997
73536W        W41941  23.306  42.880  13.439
73537W        W41942  33.375  14.219  10.147
73538W        W41943  15.699   1.828   9.796
73539W        W41944  26.716  18.316  13.460
73540W        W41945  12.213  26.700  10.087
73541W        W41946  11.791   8.935  10.528
73542W        W41947  20.132  20.252  14.472
73543W        W41948   9.156  23.951  12.008
73544W        W41949   4.308  37.896  14.129
73545W        W41950   5.130   3.444  14.351
73546W        W41951  32.491  32.964  14.366
73547W        W41952  10.194   3.354  11.563
73548W        W41953  37.295  22.652   4.492
73549W        W41954  13.043  20.321  13.999
73550W        W41955   4.479  39.655  13.929
73551W        W41956  24.680  20.947  11.361
73552W        W41957  22.145  31.199   4.115
73553W        W41958  36.281   2.351   0.176
73554W        W41959  41.816  24.060   3.231
73555W        W41960  28.630  23.052  11.159
73556W        W41961  13.561  29.638   3.083
73557W        W41962  29.238  35.079   0.431
73558W        W41963  27.096  15.961  14.760
73559W        W41964  37.061  31.832  11.644
73560W        W41965  44.404  41.878   1.656
73561W        W41966  31.652  15.816   0.740
73562W        W41967  37.103  30.953  11.515
73563W        W41968  19.314  20.146  11.391
73564W        W41969  23.678  35.035   1.723
73565W        W41970   4.405   6.824   2.659
73566W        W41971  41.107  26.925   1.432
73567W        W41972  33.551  25.200  13.572
73568W        W41973  14.245  17.230  11.065
73569W        W41974  39.071   8.165   2.146
73570W        W41975  28.953   8.643  13.537
73571W        W41976  11.875  34.016  12.905
73572W        W41977  29.148   5.174   1.437
73573W        W41978  32.578   3.849   2.499
73574W        W41979  26.629   5.516   1.428
73575W        W41980  17.565  32.453  12.560
73576W        W41981  40.414  41.424  12.827
73577W        W41982   1.917  10.634   0.193
73578W        W41983  13.772  38.318   3.689
73579W        W41984  39.383  36.656  14.313
73580W        W41985  29.572   5.684   3.836
73581W        W41986  38.930   2.684   5.103
73582W        W41987  21.193  36.420   3.654
73583W        W41988   2.882   2.549  12.105
73584W        W41989  43.295  15.280  11.613
73585W        W41990  28.150  37.507   4.489
73586W        W41991  37.130  22.522   3.428
73587W        W41992  11.907  38.519  10.605
73588W        W41993  24.246  13.059  11.570
73589W        W41994  24.260   1.068   1.829
73590W        W41995  24.169   1.471  14.083
73591W        W41996  40.631  26.680  14.782
73592W        W41997   1.888   0.907   1.190
73593W        W41998  23.754  19.554   0.851
73594W        W41999  29.622  22.024  10.139
73595W        W42000  13.637   1.792  12.785
73596W        W42001  36.022  28.210   2.218
73597W        W42002   7.301   2.194  13.341
73598W        W42003  23.769   1.785   0.356
73599W        W42004  35.781  26.055   3.238
73600W        W42005  17.836  29.646  12.914
73601W        W42006   2.833   2.040  12.110
73602W        W42007   5.803  31.868  12.618
73603W        W42008  11.251  13.351   3.646
73604W        W42009  37.803  10.238   2.901
73605W        W42010  36.312  26.098  12.493
73606W        W42011  15.765  43.130  10.916
73607W        W42012   3.649  38.417  11.005
73608W        W42013  29.625  36.636   1.098
73609W        W42014   2.457  13.204  14.806
73610W        W42015  16.556  38.012   0.967
73611W        W42016  26.788  44.472   2.235
73612W        W42017  18.621  10.890  12.401
73613W        W42018  19.277  33.599   4.807
73614W        W42019  36.415  31.861  11.020
73615W        W42020   8.451  18.128  12.804
73616W        W42021  24.144  38.073   4.500
73617W        W42022   5.736  32.229   1.511
73618W        W42023   2.267  33.559   4.605
73619W        W42024   9.374   6.801  14.942
73620W        W42025  29.884  11.286  13.998
73621W        W42026  37.661  38.053   1.908
73622W        W42027  26.008  38.920   3.578
73623W        W42028   7.408   5.216   4.597
73624W        W42029  31.886  36.151   2.163
73625W        W42030  32.116   9.137  13.126
73626W        W42031  12.152   3.009   4.306
73627W        W42032  27.436  39.367  14.739
73628W        W42033  27.157  19.937  14.317
73629W        W42034  35.472  15.299  12.945
73630W        W42035  30.062  28.155   2.827
73631W        W42036  37.319  16.538   3.889
73632W        W42037  30.508  38.261   4.318
73633W        W42038   4.390  21.669   2.143
73634W        W42039  40.443   9.672   0.737
73635W        W42040  12.196   8.746   1.854
73636W        W42041  33.014  19.785  10.780
73637W        W42042  36.046  39.635  11.444
73638W        W42043  24.089   9.643  10.482
73639W        W42044  30.713  42.967   0.305
73640W        W42045  15.152  18.983   3.581
73641W        W42046  22.128   3.412   0.818
73642W        W42047  18.649  33.174   3.292
73643W        W42048  27.045  25.144  11.440
73644W        W42049  22.661  38.896  13.068
73645W        W42050  15.602  18.810   3.429
73646W        W42051   6.255  13.259  12.540
73647W        W42052  40.519  42.988   1.804
73648W        W42053   7.799   2.725   4.560
73649W        W42054  41.875  25.216   3.297
73650W        W42055   0.327  41.119   3.947
73651W        W42056  37.509  11.164  12.666
73652W        W42057  32.371  11.802   4.686
73653W        W42058  20.117  24.711   2.728
73654W        W42059   0.477  42.870  10.751
73655W        W42060  40.262  12.350  11.696
73656W        W42061  34.430  11.188   4.034
73657W        W42062  29.686  38.853  11.102
73658W        W42063  22.670  12.594  14.885
73659W        W42064  35.459  29.099  13.036
73660W        W42065  24.439  41.001  11.805
73661W        W42066   6.755   0.287   0.046
73662W        W42067  18.570  41.522  12.835
73663W        W42068  19.340  14.325  10.681
73664W        W42069  27.666  23.990  13.934
73665W        W42070  21.069   4.238  11.986
73666W        W42071  24.548  20.818  14.546
73667W        W42072  41.929  30.196  13.410
73668W        W42073   4.708   6.645   4.254
73669W        W42074   6.218  13.589  13.029
73670W        W42075  24.905  30.886   1.794
73671W        W42076  43.660  42.479  11.070
73672W        W42077  39.350   5.118   4.908
73673W        W42078  25.511   9.740   4.925
73674W        W42079  19.199  35.565   3.401
73675W        W42080  22.650  36.824   0.315
73676W        W42081  24.027  10.115  13.927
73677W        W42082   3.603   7.774   1.439
73678W        W42083  43.310  18.221  14.394
73679W        W42084   7.791  41.023   0.498
73680W        W42085  42.126   8.616   4.398
73681W        W42086   3.093  37.286  13.413
73682W        W42087   9.822  24.540  13.819
73683W        W42088  18.942   0.302   0.797
73684W        W42089  40.383  43.002   1.249
73685W        W42090   0.428  12.035   2.326
73686W        W42091   7.360   0.338   1.252
73687W        W42092   8.807   3.236  14.536
73688W        W42093  14.498  31.072   3.771
73689W        W42094  28.396  22.049  13.481
73690W        W42095  25.533  18.035   2.840
73691W        W42096  15.093  30.180   4.569
73692W        W42097  20.165  35.367  10.691
73693W        W42098   6.708  36.894  13.348
73694W        W42099  33.175  15.587   1.855
73695W        W42100  39.718  18.259   1.288
73696W        W42101   6.945  41.487   2.679
73697W        W42102  22.968  34.406  12.878
73698W        W42103   0.275  29.972  13.048
73699W        W42104  44.068  13.527  12.968
73700W        W42105   8.345  37.119   4.103
73701W        W42106   9.657  21.262   2.843
73702W        W42107  34.826  18.987   4.580
73703W        W42108  18.326  12.862  12.668
73704W        W42109  20.179  33.803  14.833
73705W        W42110   3.872  22.960   0.884
73706W        W42111  43.278  35.203   3.226
73707W        W42112  22.003  41.375  12.409
73708W        W42113  34.538   2.654  11.135
73709W        W42114  18.289   4.151  12.526
73710W        W42115  34.065   6.167  14.845
73711W        W42116  25.791  29.670  14.612
73712W        W42117  44.285  29.416  14.807
73713W        W42118  11.144  34.337   4.633
73714W        W42119  12.327  16.167   3.765
73715W        W42120  10.636  22.561   3.590
73716W        W42121   1.772   1.068  13.912
73717W        W42122   5.951  20.066   4.547
73718W        W42123   4.800  16.656   4.142
73719W        W42124  39.317  40.957  12.094
73720W        W42125  21.956  13.456   1.183
73721W        W42126  34.686   6.425   1.703
73722W        W42127  38.019  15.390   4.270
73723W        W42128  14.436   6.437   4.149
73724W        W42129  26.461  22.057  14.676
73725W        W42130  11.072  11.424  12.895
73726W        W42131  11.300  31.132  13.939
73727W        W42132  14.338  21.604  14.368
73728W        W42133  20.700  19.272   4.625
73729W        W42134  14.685  37.762  13.995
73730W        W42135  35.093  22.622   9.870
73731W        W42136  43.505  26.241   4.609
73732W        W42137  28.584   1.709   3.345
73733W        W42138  44.393   1.726  10.677
73734W        W42139  43.528  26.346   1.352
73735W        W42140  18.487   1.856   0.191
73736W        W42141  20.393  41.099   1.872
73737W        W42142   4.709  26.506  14.438
73738W        W42143  42.492  14.214   1.387
73739W        W42144  17.473  39.003  13.789
73740W        W42145  22.750  22.072   0.959
73741W        W42146  16.791  36.447  10.758
73742W        W42147   6.233  38.318   3.018
73743W        W42148  20.567   4.707   2.753
73744W        W42149  12.221   2.461   0.712
73745W        W42150  25.564  35.273  12.456
73746W        W42151  24.793  30.463  13.968
73747W        W42152   3.138  23.051   0.018
73748W        W42153  15.805  43.684   0.921
73749W        W42154  20.403  39.875  13.637
73750W        W42155  28.649   1.257   4.680
73751W        W42156  26.690  16.111  10.279
73752W        W42157   8.374  26.164   0.920
73753W        W42158   1.706  42.277  12.083
73754W        W42159  33.874  19.376   0.760
73755W        W42160  21.259  26.246  11.604
73756W        W42161  31.718  14.122  14.876
73757W        W42162   0.930   8.215   3.216
73758W        W42163  37.322  19.596   2.732
73759W        W42164  26.048  32.611  14.585
73760W        W42165  14.645  34.398  12.010
73761W        W42166  37.420  28.693   1.734
73762W        W42167  42.305  43.390   2.939
73763W        W42168  13.199   1.894  13.130
73764W        W42169  35.075  18.364   1.528
73765W        W42170  18.545  11.896   0.805
73766W        W42171  41.058  21.050  13.486
73767W        W42172  39.432   3.642   2.407
73768W        W42173  26.697  18.377  14.429
73769W        W42174  27.664  14.819   4.426
73770W        W42175  24.030  20.679  14.537
73771W        W42176  32.012  31.510  11.972
73772W        W42177  40.848   6.870   4.559
73773W        W42178  15.751   0.535   5.536
73774W        W42179  29.966  12.275   0.466
73775W        W42180   4.969  39.810   3.745
73776W        W42181   2.763  39.862   3.178
73777W        W42182  31.606  14.343  14.385
73778W        W42183  25.642  42.736   2.831
73779W        W42184  22.171  28.336   1.717
73780W        W42185  19.200  39.653   4.443
73781W        W42186  28.026  43.407   3.732
73782W        W42187  21.220   3.237  13.395
73783W        W42188  35.457  22.357   2.233
73784W        W42189  24.884  12.459   2.373
73785W        W42190  22.222  30.465  11.178
73786W        W42191  39.599  28.699  13.464
73787W        W42192  36.843  38.005  11.707
73788W        W42193  17.742   4.735   1.241
73789W        W42194  36.302  14.334  10.348
73790W        W42195   9.091  14.647   2.809
73791W        W42196  11.487  33.219   3.219
73792W        W42197  37.729  16.743   1.621
73793W        W42198  37.495  34.032   2.771
73794W        W42199  43.881  18.635  10.829
73795W        W42200  30.523   4.406   1.266
73796W        W42201  21.369  36.729  11.029
73797W        W42202  30.732  39.006  12.795
73798W        W42203   6.647  42.433   0.550
73799W        W42204  25.638  20.653  10.957
73800W        W42205  42.501  34.382  10.972
73801W        W42206  37.339  20.157  13.609
73802W        W42207  28.000  26.375   4.952
73803W        W42208  17.128   9.345   0.754
73804W        W42209  12.883  11.091  12.371
73805W        W42210  27.123  37.452   3.041
73806W        W42211  34.409  29.016  12.100
73807W        W42212   9.549   6.150  13.246
73808W        W42213  13.738  38.087  14.501
73809W        W42214  14.671   2.208   1.960
73810W        W42215   5.770  14.598   4.313
73811W        W42216  17.973  12.209  14.415
73812W        W42217  10.871  20.474  12.029
73813W        W42218  26.180   1.310  12.406
73814W        W42219  15.313  24.546  14.441
73815W        W42220  25.366  30.233  13.042
73816W        W42221   7.373  30.067  12.522
73817W        W42222  24.603   0.434  11.242
73818W        W42223  36.003  42.216   4.139
73819W        W42224  23.990   0.939  14.915
73820W        W42225   4.169  31.204   0.451
73821W        W42226   1.097  40.930  13.446
73822W        W42227  25.227   7.696  13.781
73823W        W42228  30.620  41.591   9.909
73824W        W42229  28.208  41.021  13.773
73825W        W42230   4.782  24.773  11.331
73826W        W42231  22.038  30.238   4.381
73827W        W42232  35.507  42.403  12.973
73828W        W42233  15.503  41.509   3.270
73829W        W42234  41.562  13.359  14.457
73830W        W42235  29.879  23.753  10.622
73831W        W42236  25.368  22.600   4.584
73832W        W42237  19.724   1.467   3.782
73833W        W42238  23.174  14.861  14.970
73834W        W42239  16.660  13.582   1.270
73835W        W42240  16.603  36.807   1.439
73836W        W42241   9.286   9.100   2.909
73837W        W42242  32.477  27.081   3.202
73838W        W42243  17.766   8.970  12.017
73839W        W42244  35.233   8.334  10.901
73840W        W42245   9.610  24.332   2.635
73841W        W42246   1.718   2.438  13.569
73842W        W42247   5.400  28.895   3.506
73843W        W42248   8.442  42.393  12.121
73844W        W42249  29.064  26.299   1.015
73845W        W42250  20.368  44.329  14.850
73846W        W42251   8.356  20.027  11.651
73847W        W42252   1.882  29.562   4.394
73848W        W42253  28.572  17.172   0.909
73849W        W42254  14.373   2.577   4.508
73850W        W42255  36.508  42.356  14.807
73851W        W42256  28.732  15.579   4.168
73852W        W42257   5.760  10.921  12.872
73853W        W42258  20.328  25.097  14.877
73854W        W42259  17.569   2.465  12.115
73855W        W42260  37.043  12.041  14.627
73856W        W42261  16.260  14.024   3.718
73857W        W42262  28.956  29.065   3.909
73858W        W42263  36.817  10.785  14.919
73859W        W42264   0.727  28.574   1.413
73860W        W42265  25.017  31.905  14.512
73861W        W42266   4.783   9.777  10.420
73862W        W42267  10.225   7.392  11.666
73863W        W42268  13.998   2.914   4.433
73864W        W42269  29.360  33.644  10.998
73865W        W42270  28.638  19.771  11.613
73866W        W42271  32.246   7.210   1.738
73867W        W42272   0.684  19.574  13.359
73868W        W42273   0.967  30.121  12.619
73869W        W42274  43.478  12.842  12.529
73870W        W42275  11.736  21.648   1.466
73871W        W42276  23.772  38.566   1.045
73872W        W42277  32.648  42.037   2.748
73873W        W42278  35.683  20.098  12.839
73874W        W42279  16.109  38.984   4.573
73875W        W42280  20.485  14.364   3.058
73876W        W42281  23.366  12.205   1.687
73877W        W42282  34.159  11.053   3.177
73878W        W42283   7.220   5.170  13.481
73879W        W42284  39.481  41.650  13.802
73880W        W42285  22.041  20.529   4.341
73881W        W42286  14.594   2.014  12.883
73882W        W42287  25.129   5.416  10.458
73883W        W42288   8.844  38.542   0.232
73884W        W42289  21.097   3.210  10.892
73885W        W42290  23.975  35.509  13.405
73886W        W42291  18.177  14.650   1.403
73887W        W42292  15.298  37.050  11.363
73888W        W42293  19.386  10.297  14.461
73889W        W42294  37.376  10.250  12.830
73890W        W42295   6.773  30.202   2.636
73891W        W42296  21.156  24.682  13.420
73892W        W42297  40.396   7.849  13.343
73893W        W42298  37.507  36.840  12.872
73894W        W42299  21.291  19.144  13.512
73895W        W42300  33.317  30.847  12.093
73896W        W42301  35.609  17.831  11.333
73897W        W42302  26.309  11.144  14.333
73898W        W42303  23.128  20.538   1.277
73899W        W42304  15.936  43.936  13.677
73900W        W42305  26.156  41.059   0.244
73901W        W42306  34.332  28.834  11.013
73902W        W42307  43.240  30.994  14.368
73903W        W42308  38.052  32.108  10.854
73904W        W42309  17.039  11.713   2.245
73905W        W42310  15.056   7.652  14.306
73906W        W42311   0.796  35.049   3.325
73907W        W42312  28.272  10.875  11.160
73908W        W42313   8.550   4.915  13.475
73909W        W42314   1.995  37.391  10.737
73910W        W42315  21.169  44.880  14.040
73911W        W42316  32.261  35.759  14.994
73912W        W42317   0.895  27.469  12.767
73913W        W42318   5.958  20.619   0.161
73914W        W42319  23.060  35.478   4.423
73915W        W42320  25.184  19.213   2.296
73916W        W42321  26.119  19.290   2.769
73917W        W42322  18.084  31.480   0.419
73918W        W42323  37.317  13.743   4.690
73919W        W42324  42.751  43.945   0.781
73920W        W42325   5.193   7.787  11.516
73921W        W42326  40.836  44.264   3.303
73922W        W42327   3.436  22.122   2.676
73923W        W42328   4.807   5.977  12.596
73924W        W42329  34.018  25.484  11.889
73925W        W42330   5.975   1.354   1.900
73926W        W42331   2.526   4.985   3.125
73927W        W42332  13.522  33.309   1.394
73928W        W42333  42.665  35.381  11.508
73929W        W42334  26.513  33.247  11.609
73930W        W42335  35.597  24.558  14.804
73931W        W42336  15.339  24.215   3.219
73932W        W42337  42.544  33.921   4.576
73933W        W42338   7.859  40.974  12.887
73934W        W42339  23.306  13.724  12.402
73935W        W42340  15.840  39.939  11.413
73936W        W42341  29.166  33.034   0.551
73937W        W42342  37.747  43.308   4.475
73938W        W42343   5.510  29.209   3.910
73939W        W42344   2.354  42.991   1.969
73940W        W42345  14.410  11.868   1.895
73941W        W42346  11.662  18.156   4.686
73942W        W42347  29.514  33.404   0.435
73943W        W42348   3.413   5.413   3.425
73944W        W42349  15.080  28.048   3.863
73945W        W42350  27.040  21.485  11.571
73946W        W42351  36.677  24.415  13.029
73947W        W42352   4.277  16.360  11.480
73948W        W42353   7.300  31.338   3.251
73949W        W42354   9.715  42.431   2.530
73950W        W42355  17.044  20.344  11.566
73951W        W42356  16.208  27.151  10.572
73952W        W42357  18.723   6.438  12.389
73953W        W42358  14.811  41.424   4.967
73954W        W42359  18.828  11.403  10.723
73955W        W42360  40.096  13.210  14.315
73956W        W42361   5.758  30.022   1.807
73957W        W42362   0.259   2.782  12.925
73958W        W42363  19.090  33.149   4.656
73959W        W42364  35.499   4.138  14.730
73960W        W42365  19.120  16.258   0.682
73961W        W42366  28.368  26.352  14.377
73962W        W42367   4.262  16.536   3.458
73963W        W42368  19.295   9.836   3.193
73964W        W42369  20.667  24.743   2.727
73965W        W42370  16.538  10.066  12.390
73966W        W42371   4.334  11.216   3.954
73967W        W42372  33.057   1.952   1.196
73968W        W42373  29.620   9.355  13.625
73969W        W42374  35.539  27.972  14.929
73970W        W42375  18.340  42.218   0.194
73971W        W42376  40.165   2.670  12.044
73972W        W42377  31.398  14.375  12.512
73973W        W42378  10.694  11.838   1.374
73974W        W42379  33.417  23.625   0.040
73975W        W42380  13.444  22.436  10.274
73976W        W42381  14.689  40.770  11.163
73977W        W42382  42.623  12.449  11.208
73978W        W42383  14.147   8.925  13.502
73979W        W42384  25.489   5.796   3.588
73980W        W42385  42.049  12.224  14.084
73981W        W42386  26.322  23.282   0.942
73982W        W42387  14.827   5.292  13.461
73983W        W42388  18.094  27.415  14.855
73984W        W42389  36.598   5.647  14.373
73985W        W42390  24.076  10.580   4.205
73986W        W42391  23.659  34.824  14.849
73987W        W42392  17.678  17.284  12.492
73988W        W42393  22.908  13.571  10.325
73989W        W42394   3.020  29.637   1.383
73990W        W42395  11.216  27.991  11.212
73991W        W42396  18.796  42.562   2.648
73992W        W42397  23.758  12.915   3.804
73993W        W42398  39.118  33.725  12.158
73994W        W42399  10.318  12.989   0.059
73995W        W42400  42.314  37.022   1.289
73996W        W42401  32.611  27.568   2.365
73997W        W42402   1.871  10.677   3.573
73998W        W42403  11.503  32.917  10.444
73999W        W42404  24.745  25.162   1.834
74000W        W42405  35.539   2.407  13.875
74001W        W42406  22.152  30.519   0.786
74002W        W42407  28.085  33.076  11.095
74003W        W42408  44.880   7.563  13.420
74004W        W42409   5.883  18.086  11.966
74005W        W42410  14.678   2.077  13.392
74006W        W42411  27.185   2.175  12.874
74007W        W42412  32.684  31.215  12.970
74008W        W42413  29.941   1.133   1.380
74009W        W42414  29.337  34.198   4.578
74010W        W42415  22.783  30.800   2.410
74011W        W42416  36.217  11.783   1.996
74012W        W42417  25.436  25.962  11.267
74013W        W42418  42.937  16.537   1.793
74014W        W42419   9.095   9.236   4.855
74015W        W42420   8.714  23.876  13.149
74016W        W42421  32.651  42.831   0.642
74017W        W42422  36.155  12.206  12.535
74018W        W42423  40.849  42.967   4.534
74019W        W42424  31.173  31.498  14.766
74020W        W42425   5.667  23.079   0.032
74021W        W42426   1.320  39.771   2.154
74022W        W42427  33.970  42.397  12.489
74023W        W42428  15.406  22.297  11.247
74024W        W42429  40.422  20.995   4.595
74025W        W42430   2.286  32.372  13.659
74026W        W42431  19.506   1.681   1.673
74027W        W42432  33.479  26.146   0.942
74028W        W42433   5.045   9.370  14.578
74029W        W42434  33.454  31.838   1.135
74030W        W42435  21.236  34.574   1.593
74031W        W42436  17.072  31.435  13.952
74032W        W42437  23.425   1.611  14.570
74033W        W42438  17.122  37.903   0.792
74034W        W42439  27.632  23.222   1.320
74035W        W42440  18.331  12.109  10.731
74036W        W42441  42.473  41.424   0.696
74037W        W42442  13.647  20.954   4.248
74038W        W42443  39.026   7.322   2.722
74039W        W42444  10.395  38.629  10.145
74040W        W42445  36.457   8.121   1.795
74041W        W42446  32.863  41.970  13.407
74042W        W42447  30.898  26.575  11.874
74043W        W42448  28.541  14.270   4.536
74044W        W42449  42.057  14.963  14.892
74045W        W42450  22.028  35.175   2.967
74046W        W42451   7.164  41.573   1.122
74047W        W42452  35.794  12.774  13.884
74048W        W42453  17.096  15.269   0.729
74049W        W42454  25.145   8.705   1.797
74050W        W42455  16.858  30.831   3.808
74051W        W42456  26.922  21.808   1.684
74052W        W42457   9.668  36.161   3.740
74053W        W42458  38.048  43.895   3.327
74054W        W42459   8.284  11.267   2.228
74055W        W42460  37.466  24.532   1.286
74056W        W42461  31.964  34.198  12.072
74057W        W42462  12.277   8.201   4.235
74058W        W42463  21.148  18.276   2.612
74059W        W42464  11.398  32.042   1.861
74060W        W42465  41.066  27.033  13.393
74061W        W42466  24.661  32.917  11.423
74062W        W42467  13.178   3.276   4.161
74063W        W42468  18.779  44.706  12.422
74064W        W42469  13.409  37.146  12.540
74065W        W42470  14.052  42.795   0.378
74066W        W42471  23.473  38.874  12.533
74067W        W42472   8.181  32.582   2.679
74068W        W42473  27.733   2.906  14.007
74069W        W42474  34.263  41.322   4.228
74070W        W42475  10.494  38.810   1.814
74071W        W42476  26.533  23.453   3.147
74072W        W42477  19.162  25.524   0.224
74073W        W42478   5.843  44.092  14.044
74074W        W42479  30.508  40.618   9.841
74075W        W42480  22.436   8.748  12.899
74076W        W42481   2.496   7.799  14.388
74077W        W42482   3.610  17.267   2.813
74078W        W42483  29.070  43.367   0.512
74079W        W42484  40.980  14.551  13.939
74080W        W42485  29.530  41.328  11.046
74081W        W42486  15.575  18.735   0.871
74082W        W42487  19.498  18.143   3.209
74083W        W42488  29.425  15.948  14.169
74084W        W42489  14.555  30.879  14.824
74085W        W42490  38.282  43.202   2.237
74086W        W42491  34.094  21.959  11.962
74087W        W42492   0.735   0.408   4.161
74088W        W42493   9.786  25.574   4.899
74089W        W42494  21.180   7.964  12.982
74090W        W42495  14.930  25.775   2.667
74091W        W42496  24.660  30.469   1.942
74092W        W42497  32.101  25.088  13.122
74093W        W42498  29.501  11.841   9.778
74094W        W42499  18.677  29.167   1.901
74095W        W42500   5.595   1.230   3.598
74096W        W42501  35.873  39.395  14.375
74097W        W42502  11.246  39.418   1.039
74098W        W42503  16.153   0.734  14.557
74099W        W42504  37.011  15.367  13.946
74100W        W42505  13.247  39.940   0.907
74101W        W42506  30.665  37.153   3.198
74102W        W42507   0.927   9.872  10.028
74103W        W42508  10.716  39.799  10.604
74104W        W42509  13.378  32.192  12.739
74105W        W42510  22.965  24.913  13.631
74106W        W42511  34.036   9.823   0.222
74107W        W42512  42.370  28.682  10.702
74108W        W42513   5.400  29.018  11.559
74109W        W42514  14.824   7.643  13.809
74110W        W42515  28.172  28.895   5.056
74111W        W42516   8.420  28.026   3.614
74112W        W42517  19.702  11.235  11.573
74113W        W42518  41.913   7.990   3.737
74114W        W42519   2.003  23.696   2.924
74115W        W42520  20.588  32.683  10.986
74116W        W42521  41.485  35.830  10.953
74117W        W42522  36.617  32.785   1.921
74118W        W42523  23.077  26.209  14.914
74119W        W42524  13.862   5.328  10.982
74120W        W42525  28.945  30.880   2.208
74121W        W42526  22.400   3.084  10.016
74122W        W42527  33.605  30.640  12.483
74123W        W42528  14.813   4.678   0.261
74124W        W42529  43.424  41.096  12.457
74125W        W42530  35.561   3.701   3.830
74126W        W42531  30.033  19.811   1.798
74127W        W42532  12.314  22.508  10.919
74128W        W42533  18.661  38.056  13.095
74129W        W42534  36.438  30.896   2.775
74130W        W42535  27.519  40.242   1.898
74131W        W42536   0.774  38.276  12.936
74132W        W42537  20.219  38.210  13.998
74133W        W42538  26.249  19.133   0.695
74134W        W42539  18.645  21.982   2.715
74135W        W42540  16.932  35.356   3.303
74136W        W42541   2.938  21.969  10.759
74137W        W42542   4.514   1.443   0.911
74138W        W42543   9.761  18.804   2.830
74139W        W42544  31.201   5.468  14.424
74140W        W42545  18.631  35.138   0.701
74141W        W42546  24.856  22.480   4.499
74142W        W42547  31.706  18.101   3.377
74143W        W42548  11.437  40.627  12.536
74144W        W42549  21.836  10.754   3.177
74145W        W42550   3.901  34.139   4.210
74146W        W42551  16.634  24.297   4.570
74147W        W42552  43.498  26.683  12.684
74148W        W42553  13.825  40.906  13.444
74149W        W42554   9.935  36.111  11.190
74150W        W42555   1.469   4.278   0.312
74151W        W42556  38.823  19.418  12.188
74152W        W42557  22.267  12.759  10.650
74153W        W42558  23.804   5.970   4.135
74154W        W42559   4.264  44.763  13.949
74155W        W42560  15.718   1.344  10.659
74156W        W42561  37.042  21.790  13.016
74157W        W42562  25.542   8.788  11.999
74158W        W42563  16.001  39.456  10.657
74159W        W42564  24.034   4.285   4.393
74160W        W42565  44.461  11.074   0.323
74161W        W42566  42.898  10.768   2.095
74162W        W42567  18.538  22.541  12.064
74163W        W42568  12.703  31.147   4.571
74164W        W42569  24.596   5.556  13.038
74165W        W42570  26.043  12.524  12.153
74166W        W42571  39.491   3.416   3.622
74167W        W42572  27.867  24.541   0.805
74168W        W42573  16.360   9.094  13.792
74169W        W42574  35.651  24.983  14.437
74170W        W42575  19.917  42.267   0.668
74171W        W42576  10.343  44.317   3.713
74172W        W42577  35.256  40.075  12.861
74173W        W42578  19.078  38.845   0.957
74174W        W42579  16.766   2.730  13.311
74175W        W42580  20.959  23.677  10.146
74176W        W42581  33.931  35.929   1.719
74177W        W42582   9.591  44.318   1.897
74178W        W42583  40.452   0.942  10.172
74179W        W42584  33.096  18.505  13.150
74180W        W42585  44.123  29.535  13.421
74181W        W42586   5.497  44.851  13.487
74182W        W42587  32.372   4.245   3.328
74183W        W42588  40.656  40.441  10.693
74184W        W42589  22.246   6.435  12.031
74185W        W42590  11.084  27.457  14.045
74186W        W42591  17.884  40.321   2.372
74187W        W42592  44.984   0.693  12.776
74188W        W42593  36.527  25.396  13.029
74189W        W42594  31.329   4.282   2.869
74190W        W42595   6.131  12.888   2.602
74191W        W42596   5.987  29.475   4.131
74192W        W42597  43.810  29.955   4.053
74193W        W42598  16.584  42.553   1.196
74194W        W42599  18.445  23.135   3.459
74195W        W42600  29.216  34.352  12.643
74196W        W42601   2.474  23.283  12.897
74197W        W42602  13.015  35.721   2.372
74198W        W42603  39.785  25.478  11.071
74199W        W42604   9.309  25.972  12.939
74200W        W42605  10.666   9.340  11.215
74201W        W42606  19.780   9.272   2.231
74202W        W42607  29.322  12.288   3.196
74203W        W42608  18.281  12.780   1.116
74204W        W42609  15.004   7.795   4.509
74205W        W42610  41.356   0.389  13.348
74206W        W42611   9.695  43.341   1.385
74207W        W42612  29.498  25.093  10.007
74208W        W42613  15.896   6.898   2.752
74209W        W42614  34.117   8.346  14.567
74210W        W42615  35.982   5.699  12.075
74211W        W42616  29.344  33.976   0.828
74212W        W42617  28.267  31.116  13.034
74213W        W42618  29.598  41.850  11.006
74214W        W42619  13.594  36.580  11.694
74215W        W42620  11.611  31.119   4.300
74216W        W42621  21.376  32.415   4.663
74217W        W42622  42.841  19.528  13.825
74218W        W42623  43.853  25.112  14.988
74219W        W42624   3.202  19.610   1.485
74220W        W42625  43.428   6.591   4.494
74221W        W42626   8.741  43.304  12.718
74222W        W42627  42.746   9.752  11.529
74223W        W42628  39.056  24.444   3.036
74224W        W42629   6.826  35.169   4.723
74225W        W42630  34.873   4.849   2.716
74226W        W42631  29.459   5.724   0.579
74227W        W42632  44.216   2.889   2.927
74228W        W42633  26.950  33.854   0.843
74229W        W42634  30.909  35.746   0.796
74230W        W42635  44.293  28.185   3.944
74231W        W42636  28.145  24.184   4.584
74232W        W42637  33.128  36.028   3.072
74233W        W42638   1.885  16.291   1.308
74234W        W42639  23.697   6.112   0.792
74235W        W42640   1.910  17.757   4.230
74236W        W42641  36.099   4.849   4.164
74237W        W42642   2.292   2.438   0.849
74238W        W42643   1.256  20.293  12.050
74239W        W42644  10.743  32.675  13.555
74240W        W42645  24.620  41.361  13.593
74241W        W42646  22.200   0.565  13.516
74242W        W42647  25.480  27.222   1.853
74243W        W42648  29.090  39.962   1.990
74244W        W42649  41.954  33.673  11.601
74245W        W42650   0.989   3.370   2.854
74246W        W42651   6.098  33.340  11.193
74247W        W42652  27.327  25.208  11.020
74248W        W42653  24.265   5.708  12.513
74249W        W42654  25.756  22.219   2.128
74250W        W42655  38.851  18.986   3.361
74251W        W42656  22.777  25.620  13.106
74252W        W42657  35.503  37.747  12.782
74253W        W42658  30.012   2.981  11.821
74254W        W42659   4.259  42.746   3.725
74255W        W42660  37.476   8.658  12.008
74256W        W42661  10.376  25.273  14.847
74257W        W42662  33.371  34.934  14.475
74258W        W42663  35.318  29.901  12.955
74259W        W42664  37.054  32.986   2.959
74260W        W42665  18.705   2.303   0.552
74261W        W42666   3.370  37.931   0.461
74262W        W42667  42.844  35.326   4.051
74263W        W42668   6.747  30.096   9.853
74264W        W42669  40.703  26.650   2.811
74265W        W42670   3.869  21.593  14.232
74266W        W42671  13.829  19.336   3.121
74267W        W42672  10.582  36.571   3.317
74268W        W42673  44.106   4.837   1.340
74269W        W42674  36.566   1.311   0.815
74270W        W42675   5.830   1.226  13.512
74271W        W42676  11.870  14.639  10.714
74272W        W42677  44.640  20.793  14.346
74273W        W42678  34.441   4.372   0.913
74274W        W42679  31.663  31.432  12.803
74275W        W42680  13.358  23.365  12.436
74276W        W42681  37.875  40.970   3.757
74277W        W42682  28.840  17.233   2.697
74278W        W42683  44.222   3.379  14.916
74279W        W42684  27.068  26.527  13.084
74280W        W42685  38.829  44.292  12.084
74281W        W42686   4.353   4.038   5.036
74282W        W42687   9.673  15.130   3.697
74283W        W42688   7.991  41.589  11.815
74284W        W42689  16.087   8.924   0.001
74285W        W42690  22.647   5.472   4.788
74286W        W42691  25.558   4.673  14.408
74287W        W42692   7.614   1.703   0.302
74288W        W42693   0.695  28.857  14.749
74289W        W42694   1.455  35.452   3.359
74290W        W42695  18.254  13.657   4.783
74291W        W42696  12.807  13.364  13.539
74292W        W42697  22.705  32.600   4.027
74293W        W42698  32.919  37.011  14.754
74294W        W42699  39.848  40.382  11.948
74295W        W42700  34.025  22.022   1.009
74296W        W42701   4.684  28.042   4.502
74297W        W42702  30.626   0.066   4.283
74298W        W42703   0.751  19.136   4.570
74299W        W42704   5.168  33.368   3.299
74300W        W42705  19.048  36.322  11.664
74301W        W42706  16.262  28.147  10.800
74302W        W42707  30.733  36.872   1.876
74303W        W42708  13.559   6.679   3.353
74304W        W42709  41.454  44.462  13.326
74305W        W42710  23.667  29.656   1.809
74306W        W42711  32.083  17.996  14.933
74307W        W42712   3.524   0.740   2.797
74308W        W42713  10.776   1.512   0.814
74309W        W42714  12.963   4.019   5.044
74310W        W42715   1.930  28.330  13.467
74311W        W42716  17.139  17.852   0.918
74312W        W42717   4.830  26.978  10.608
74313W        W42718   2.008  33.660   4.133
74314W        W42719  29.709   7.257  14.504
74315W        W42720  28.172  24.539   3.789
74316W        W42721  42.820  43.944   0.265
74317W        W42722  36.612   4.546  12.415
74318W        W42723  41.532  24.938  13.942
74319W        W42724   1.330  36.236  14.771
74320W        W42725  18.563  20.091   3.415
74321W        W42726  14.919  12.385  14.539
74322W        W42727   2.375  37.187   3.513
74323W        W42728   0.508  42.522   0.303
74324W        W42729   2.607  38.937   3.365
74325W        W42730   5.724  12.865  14.905
74326W        W42731  30.216   2.450  14.953
74327W        W42732  19.932  29.976   0.923
74328W        W42733  23.015  30.551  13.491
74329W        W42734  28.878   4.333  10.675
74330W        W42735  29.100  33.613   2.122
74331W        W42736  16.004  42.933   1.980
74332W        W42737  41.494  19.045   3.154
74333W        W42738  30.175   4.245   3.622
74334W        W42739  34.982  16.883  11.086
74335W        W42740  21.740  40.854  13.302
74336W        W42741  40.333   3.731  12.036
74337W        W42742  36.071  28.011  13.489
74338W        W42743  28.117  29.875  11.981
74339W        W42744   9.560  15.160   4.990
74340W        W42745   9.778  28.602   1.907
74341W        W42746  32.150  32.380   4.507
74342W        W42747   1.614  44.195  11.959
74343W        W42748  37.357  39.559   1.738
74344W        W42749   4.436  30.407   1.320
74345W        W42750  13.631  28.834  12.552
74346W        W42751  18.134  30.894   2.154
74347W        W42752  12.847  10.561   4.623
74348W        W42753   6.366  37.945   0.390
74349W        W42754   7.724   1.528  12.624
74350W        W42755   9.835  19.713   4.080
74351W        W42756  43.214  31.829  13.766
74352W        W42757  32.970  18.672  11.473
74353W        W42758  32.551  17.089   3.244
74354W        W42759  23.999  10.184   0.376
74355W        W42760  37.408   6.837   1.825
74356W        W42761   4.362  38.424  11.531
74357W        W42762   9.853  32.356  10.634
74358W        W42763  35.049  10.428  11.148
74359W        W42764   0.771   7.182   3.302
74360W        W42765  41.086  27.024   2.295
74361W        W42766  37.527   9.669  11.522
74362W        W42767  27.257  26.879   3.576
74363W        W42768  18.301  15.848   3.264
74364W        W42769  26.248  10.807  12.163
74365W        W42770  18.607  38.918  10.815
74366W        W42771  10.663   0.051  10.253
74367W        W42772  38.070  29.708   1.348
74368W        W42773  44.756  33.070   3.754
74369W        W42774  20.768   2.623   4.672
74370W        W42775   6.849  27.997  10.994
74371W        W42776  44.198  11.213   1.713
74372W        W42777  44.817   7.630  14.758
74373W        W42778  21.264  18.751  11.647
74374W        W42779  40.031   7.454   1.357
74375W        W42780   3.979  22.130  12.026
74376W        W42781  17.036  44.323  11.882
74377W        W42782   5.152  30.936  11.541
74378W        W42783  30.873   2.196   2.703
74379W        W42784  19.215  18.270   4.096
74380W        W42785   0.234  18.048   3.232
74381W        W42786  15.690   9.616   1.353
74382W        W42787   8.663  19.349  12.848
74383W        W42788  41.533  21.815  13.860
74384W        W42789  29.121  21.161   2.178
74385W        W42790  34.088  40.841  10.789
74386W        W42791  16.003  24.024  12.660
74387W        W42792  22.947  44.389  11.112
74388W        W42793   6.430  15.102   4.164
74389W        W42794  34.977  37.950  11.200
74390W        W42795  16.985  26.090  14.488
74391W        W42796  21.750  40.822   1.648
74392W        W42797   9.442   8.763   0.412
74393W        W42798  28.142   7.860  14.038
74394W        W42799  39.592   4.114  12.596
74395W        W42800  17.017  42.910   2.809
74396W        W42801  27.587  33.453   3.697
74397W        W42802  39.862   5.339  11.995
74398W        W42803  19.499  43.229  13.472
74399W        W42804  27.624  27.698  13.331
74400W        W42805  34.122  42.010  11.563
74401W        W42806  41.124   7.908   3.178
74402W        W42807  18.201  37.752   4.287
74403W        W42808  27.636  16.856  14.893
74404W        W42809   0.221  34.783  10.559
74405W        W42810  18.514   2.701  13.087
74406W        W42811   9.394   3.408  13.467
74407W        W42812  22.954   4.272   2.747
74408W        W42813  17.175   3.180  11.186
74409W        W42814  14.559  23.187  14.516
74410W        W42815  37.379  31.570  14.849
74411W        W42816  19.780  26.057   4.549
74412W        W42817  16.811  17.337   1.352
74413W        W42818  32.215  21.906   3.530
74414W        W42819  36.264   2.416   0.703
74415W        W42820  27.587  14.251  14.452
74416W        W42821  32.672  27.035  12.539
74417W        W42822  14.569  40.446  13.791
74418W        W42823   0.392  25.786  14.115
74419W        W42824  33.648   4.785   2.303
74420W        W42825  23.742  19.715   3.242
74421W        W42826  37.869  42.785  14.339
74422W        W42827  29.612  17.236   0.727
74423W        W42828   8.343  19.664   1.337
74424W        W42829  14.801  38.335  11.288
74425W        W42830  20.084  35.689  11.070
74426W        W42831  30.877  15.535   2.709
74427W        W42832  19.529   3.189   2.320
74428W        W42833  14.685  12.882   0.623
74429W        W42834  21.188  12.104  13.415
74430W        W42835  42.920  25.349  12.668
74431W        W42836  18.218   9.036  13.488
74432W        W42837   9.299  29.635   0.413
74433W        W42838   9.178  30.482   3.233
74434W        W42839  22.109  42.081   1.765
74435W        W42840  31.843   4.830  14.500
74436W        W42841  36.788   3.703   9.950
74437W        W42842   3.464  25.048  13.403
74438W        W42843  36.585   2.237   2.405
74439W        W42844  15.091  34.616  12.213
74440W        W42845  41.523  44.760   1.009
74441W        W42846  32.220   7.939   1.277
74442W        W42847  34.559  17.195   3.316
74443W        W42848  14.122  12.731   2.904
74444W        W42849   3.689  43.790   0.861
74445W        W42850  13.414   0.563   0.845
74446W        W42851   9.847  34.594  10.610
74447W        W42852  25.731  30.216   0.488
74448W        W42853  10.246  24.717   0.546
74449W        W42854   7.325  24.988  13.765
74450W        W42855  27.677   8.201   3.012
74451W        W42856  10.362   2.273  11.594
74452W        W42857  21.700  13.103  13.467
74453W        W42858  35.074  31.729   0.523
74454W        W42859   4.781  43.968  10.718
74455W        W42860  33.996   0.447  12.971
74456W        W42861  18.353  40.520   2.229
74457W        W42862  43.926   0.308  10.890
74458W        W42863   9.775  28.617  11.084
74459W        W42864  35.810  13.651  11.570
74460W        W42865  25.826  31.145  10.689
74461W        W42866  17.742  33.014   3.786
74462W        W42867  25.870  31.035  12.488
74463W        W42868  31.861  34.254   2.363
74464W        W42869  23.381  30.071   4.458
74465W        W42870  16.579  17.438   0.347
74466W        W42871  27.218  21.427   1.878
74467W        W42872  26.432  37.847   2.837
74468W        W42873   0.525  26.634   0.335
74469W        W42874  30.986   0.285   2.756
74470W        W42875  15.420   1.235   3.215
74471W        W42876  19.265  34.899  12.079
74472W        W42877  32.892  30.196  10.760
74473W        W42878  10.101  22.573   1.472
74474W        W42879  34.429  10.136   1.652
74475W        W42880  41.713  25.541  12.481
74476W        W42881  32.392   6.903  14.358
74477W        W42882  43.616   4.922   1.352
74478W        W42883  39.224   3.131  10.398
74479W        W42884   0.930  13.669   3.058
74480W        W42885  21.642  28.690   3.731
74481W        W42886  12.703  12.159   4.413
74482W        W42887  15.285  28.613   3.303
74483W        W42888  16.129  21.886   3.667
74484W        W42889  20.691  25.459  11.907
74485W        W42890  13.366   7.200   4.144
74486W        W42891  31.964  33.207   4.249
74487W        W42892  15.738  39.265   2.815
74488W        W42893   4.852  26.998  14.457
74489W        W42894  40.434   2.961  12.947
74490W        W42895  25.762  33.794   1.771
74491W        W42896  18.646  20.548  12.691
74492W        W42897   9.661  26.936  14.936
74493W        W42898   2.890   4.299   2.325
74494W        W42899  13.114  16.662   1.886
74495W        W42900  28.156  14.729   1.877
74496W        W42901   9.397  18.222   2.904
74497W        W42902  21.671  28.481  13.655
74498W        W42903  13.332  16.700  11.665
74499W        W42904   5.473  17.570   3.676
74500W        W42905   9.198  26.497   3.631
74501W        W42906  26.921   5.832   1.756
74502W        W42907  19.066  42.338   1.311
74503W        W42908  24.226  20.797  13.572
74504W        W42909  24.573   9.677  10.776
74505W        W42910  23.263  16.173  12.994
74506W        W42911  19.770   9.990  12.043
74507W        W42912  15.321  12.195   4.857
74508W        W42913  26.448  27.788  13.982
74509W        W42914  10.389  32.622   4.093
74510W        W42915  41.976  43.919  12.302
74511W        W42916   3.227  26.461   4.176
74512W        W42917  41.938  29.477   3.083
74513W        W42918  43.090   5.587   4.379
74514W        W42919   7.146   2.467  10.570
74515W        W42920  37.533  44.353   2.226
74516W        W42921   0.873  20.511   0.235
74517W        W42922   7.358   4.242   1.466
74518W        W42923  22.746  44.466   1.525
74519W        W42924  42.558  29.968   2.710
74520W        W42925   8.931  21.530   3.070
74521W        W42926  41.224  34.082   0.311
74522W        W42927   0.588  30.125  14.915
74523W        W42928  42.259  35.543   0.356
74524W        W42929  33.824  10.186   3.673
74525W        W42930   4.768  41.822  10.680
74526W        W42931  21.793   4.982  13.344
74527W        W42932  29.880  28.275   4.502
74528W        W42933  28.113   2.007   4.260
74529W        W42934  34.519   9.868  10.874
74530W        W42935  27.106  11.696  12.283
74531W        W42936  30.660   8.926   4.076
74532W        W42937  31.667  11.198   2.970
74533W        W42938   0.401  37.006   4.015
74534W        W42939  22.072  41.735  10.820
74535W        W42940  33.464  31.028  11.627
74536W        W42941  27.264   7.573  12.474
74537W        W42942  29.651  17.970   1.280
74538W        W42943  20.708   7.316  10.202
74539W        W42944  44.347  15.899   4.213
74540W        W42945  33.374  19.252   4.807
74541W        W42946   5.555  39.246   3.306
74542W        W42947  34.870   0.635  10.357
74543W        W42948  44.942  43.934  14.011
74544W        W42949  41.772  13.830  10.601
74545W        W42950  43.875   3.282   3.835
74546W        W42951  29.675  32.385  11.936
74547W        W42952  16.890  38.880   4.137
74548W        W42953  21.006  35.661  12.969
74549W        W42954  44.440  27.494   0.200
74550W        W42955   8.225  36.727   2.610
74551W        W42956  31.035  18.087  11.261
74552W        W42957  25.854  26.142   2.480
74553W        W42958  21.529   8.620  11.555
74554W        W42959  19.973  39.977  13.212
74555W        W42960  44.136  14.280  13.301
74556W        W42961  14.147  27.207  11.948
74557W        W42962  36.828  22.311   2.150
74558W        W42963   3.593  31.066  11.554
74559W        W42964  38.253   0.793   4.148
74560W        W42965  22.205  15.841  11.872
74561W        W42966  40.363  19.719   0.333
74562W        W42967  39.083  28.843   4.181
74563W        W42968  26.627   4.260   4.627
74564W        W42969  24.728  35.447   0.270
74565W        W42970   9.166  27.587  14.533
74566W        W42971  20.629   1.255   1.235
74567W        W42972  24.505  16.188   3.650
74568W        W42973   4.356  30.513  12.015
74569W        W42974  31.657  24.682   2.171
74570W        W42975  42.392  32.388  11.922
74571W        W42976   1.936  29.985   3.119
74572W        W42977   3.778   3.466   4.047
74573W        W42978  23.979  28.848   3.666
74574W        W42979  15.199   2.336   4.093
74575W        W42980  27.600  10.355   3.602
74576W        W42981  39.574  14.746  14.412
74577W        W42982  11.363  16.799   2.204
74578W        W42983  36.528  36.503  14.415
74579W        W42984  30.601  17.315  12.444
74580W        W42985   5.959   5.989  13.531
74581W        W42986  14.057  26.942  11.513
74582W        W42987  22.710  43.917  11.149
74583W        W42988  32.744  35.395  11.353
74584W        W42989  32.960  10.393   1.930
74585W        W42990  41.302  13.544  14.874
74586W        W42991  12.819  35.992  12.885
74587W        W42992  29.674  18.027  14.718
74588W        W42993  40.529  14.404   4.136
74589W        W42994  33.016  28.008  12.790
74590W        W42995  16.793  12.818  10.711
74591W        W42996  23.957   0.034   0.928
74592W        W42997   5.161  37.887   4.546
74593W        W42998  34.512  27.091   0.199
74594W        W42999  41.634  42.085  11.995
74595W        W43000  23.226  34.488   0.369
74596W        W43001  15.569  35.345   2.304
74597W        W43002  10.304  11.329   3.821
74598W        W43003  27.567  34.888  10.708
74599W        W43004   5.796   9.723  14.729
74600W        W43005  44.949  18.798   1.264
74601W        W43006  24.686  31.068  11.945
74602W        W43007  39.332  36.580   4.451
74603W        W43008   4.800  39.947  10.710
74604W        W43009  30.796  28.885  14.867
74605W        W43010  38.835  30.799   0.928
74606W        W43011   6.783  29.023  13.938
74607W        W43012  26.352  23.181   3.799
74608W        W43013   4.823  31.890  11.159
74609W        W43014  27.150  13.138   0.357
74610W        W43015  27.500  27.045  10.642
74611W        W43016   9.773  10.805   4.539
74612W        W43017   5.257  18.924   0.536
74613W        W43018   8.883  34.845   0.659
74614W        W43019  23.227  36.706  13.972
74615W        W43020  19.954   9.307  11.295
74616W        W43021  19.956   6.399   2.850
74617W        W43022  26.633  15.351   3.419
74618W        W43023  11.589  21.365  11.549
74619W        W43024  37.769   5.140  12.097
74620W        W43025  27.228  42.492   4.566
74621W        W43026  11.052  31.579  14.849
74622W        W43027   4.507   2.381  13.345
74623W        W43028  43.296  16.224  13.268
74624W        W43029   2.453  12.063   4.187
74625W        W43030  22.387  35.009  12.907
74626W        W43031  20.096  10.215   2.251
74627W        W43032  22.278  42.769  10.524
74628W        W43033  26.116  44.689  12.072
74629W        W43034  32.073  26.911   0.812
74630W        W43035  28.012  28.802  11.811
74631W        W43036  32.538  38.615   1.758
74632W        W43037  27.490  12.718   0.353
74633W        W43038  10.802  42.724   4.245
74634W        W43039  13.668  42.738   3.288
74635W        W43040  13.807  44.469  12.484
74636W        W43041  22.533  41.017  10.212
74637W        W43042  38.958  37.015   3.141
74638W        W43043  15.642  17.169  12.829
74639W        W43044  27.536  36.855  12.500
74640W        W43045  39.292   6.889  12.258
74641W        W43046   6.929  19.629   4.569
74642W        W43047  32.586   5.791  13.514
74643W        W43048  33.132  33.332   0.880
74644W        W43049  21.846  16.516  11.166
74645W        W43050  26.445  14.503   2.353
74646W        W43051  25.157  22.087   0.296
74647W        W43052  31.627   9.863   1.778
74648W        W43053  28.535  40.435   3.534
74649W        W43054  12.801  22.462   4.626
74650W        W43055   4.386  16.353  13.212
74651W        W43056   2.600  11.793   1.933
74652W        W43057  39.370  38.529  14.319
74653W        W43058  10.668  23.116  10.766
74654W        W43059  40.544  17.355  11.646
74655W        W43060  23.453  14.175  13.449
74656W        W43061   1.263  34.034   1.746
74657W        W43062  37.035  43.016  11.982
74658W        W43063   6.947  41.960   0.831
74659W        W43064  32.156  43.009   0.549
74660W        W43065  20.810  41.391  13.776
74661W        W43066   3.326  34.461   0.216
74662W        W43067  12.432   6.418   0.755
74663W        W43068  21.751  23.846   1.399
74664W        W43069   2.199   4.079   4.030
74665W        W43070  24.061  22.250  14.582
74666W        W43071   9.316  25.672   2.430
74667W        W43072  17.047  22.123  11.214
74668W        W43073   5.323  20.097   0.824
74669W        W43074  22.672  36.920  13.444
74670W        W43075  23.122  34.826  14.977
74671W        W43076  22.707  26.442  11.331
74672W        W43077  27.002   7.690   4.478
74673W        W43078   1.038  22.493  12.689
74674W        W43079  11.706  38.747  14.346
74675W        W43080  17.015  35.855  14.355
74676W        W43081  10.008   9.062  13.495
74677W        W43082   2.149  25.629  14.865
74678W        W43083   9.403   4.718  12.945
74679W        W43084   9.778  34.593  12.178
74680W        W43085   9.713  10.331  12.429
74681W        W43086  30.420  15.203  14.478
74682W        W43087   4.820   5.228   0.788
74683W        W43088   7.700   4.760   1.515
74684W        W43089  20.031  29.118  13.018
74685W        W43090  35.075  25.001   3.565
74686W        W43091   0.850  12.173   0.253
74687W        W43092  16.543  11.807   3.210
74688W        W43093  11.521  10.023   5.050
74689W        W43094  38.572  28.746   4.159
74690W        W43095   6.150  34.574  11.261
74691W        W43096   8.171  37.868  12.600
74692W        W43097  31.060  30.121   4.587
74693W        W43098  13.021  16.182   1.748
74694W        W43099  34.191  23.579   4.245
74695W        W43100   8.006  30.868   1.388
74696W        W43101  40.803  28.577   3.604
74697W        W43102  30.409   6.472   2.272
74698W        W43103   5.312  43.573  13.969
74699W        W43104  24.257   7.660   0.349
74700W        W43105  27.055   7.018   5.186
74701W        W43106   7.673  22.284   2.369
74702W        W43107  41.010  40.047   1.752
74703W        W43108  28.411   8.672   2.783
74704W        W43109  26.767  20.645  10.944
74705W        W43110   1.337   9.257   1.175
74706W        W43111   9.163  21.687   1.237
74707W        W43112   1.779  11.112   0.397
74708W        W43113  18.059  24.075   3.628
74709W        W43114  38.556  16.621  12.676
74710W        W43115  42.856   2.211  10.630
74711W        W43116  41.329  12.773   1.241
74712W        W43117  25.158  11.774  14.869
74713W        W43118   8.168  10.336  13.867
74714W        W43119  25.579   6.604   2.365
74715W        W43120  10.528  13.639   1.830
74716W        W43121  40.926  38.456   2.635
74717W        W43122  29.054  10.340   3.289
74718W        W43123  32.964  21.728   0.966
74719W        W43124  16.093  14.811  12.385
74720W        W43125  20.104   4.900  14.326
74721W        W43126   6.181  44.585  12.479
74722W        W43127   7.294  39.941   3.773
74723W        W43128  37.566   1.932  10.584
74724W        W43129   6.314  43.051  12.234
74725W        W43130  24.140  31.876  10.775
74726W        W43131  39.556  31.055  12.540
74727W        W43132  25.290  36.581   4.172
74728W        W43133  28.221   1.699  11.529
74729W        W43134   1.251  44.378   1.275
74730W        W43135  31.205   5.161   2.973
74731W        W43136  25.006  39.857   3.666
74732W        W43137  26.897   4.467  11.591
74733W        W43138   3.789   4.687  13.896
74734W        W43139   8.161  20.787  11.868
74735W        W43140  20.140  33.058  11.838
74736W        W43141  12.494  28.281  11.431
74737W        W43142  18.633  10.751   1.703
74738W        W43143  10.304  31.065   2.184
74739W        W43144   9.915  29.961  12.400
74740W        W43145  22.510  23.004   4.296
74741W        W43146  18.295   9.215  12.782
74742W        W43147   8.955  16.684  12.517
74743W        W43148   4.711   2.304   4.157
74744W        W43149  11.490  27.508   0.844
74745W        W43150  17.794  15.851  11.287
74746W        W43151  23.665   0.966  13.017
74747W        W43152   6.315  24.777  13.602
74748W        W43153   2.792  26.766   0.830
74749W        W43154  30.544   4.643   0.801
74750W        W43155  17.778  15.113   4.661
74751W        W43156   1.863  33.630   2.252
74752W        W43157  38.798   9.781  10.746
74753W        W43158  24.023  35.187  11.760
74754W        W43159  31.999  14.383   1.830
74755W        W43160  15.406  19.089  10.988
74756W        W43161  38.996  11.941   3.687
74757W        W43162  44.554  42.354   4.475
74758W        W43163   9.774   6.142  14.396
74759W        W43164  39.999  26.825   3.168
74760W        W43165  16.112   6.288   2.631
74761W        W43166  34.417  32.892   0.524
74762W        W43167  19.152   2.226   4.227
74763W        W43168  37.871  39.641   1.833
74764W        W43169  29.678   8.412  13.439
74765W        W43170  11.002  25.441   2.653
74766W        W43171  33.897   8.201   5.109
74767W        W43172   9.525  41.018   3.288
74768W        W43173   7.622  12.235   0.917
74769W        W43174  33.492  24.004   3.276
74770W        W43175   3.776  18.683   2.734
74771W        W43176   4.683   0.521  12.415
74772W        W43177  26.518   8.732  11.281
74773W        W43178  37.977  12.154  12.194
74774W        W43179  14.724  39.829   1.391
74775W        W43180  15.748  35.347   3.224
74776W        W43181   2.414  31.034   1.770
74777W        W43182  20.296  15.761   0.315
74778W        W43183  31.361   7.422   4.802
74779W        W43184  40.165   1.942   2.666
74780W        W43185  11.736  19.738  11.638
74781W        W43186   2.478  12.662  11.041
74782W        W43187   0.506   8.603   3.962
74783W        W43188   9.847  33.491   2.412
74784W        W43189  37.370  17.073  12.339
74785W        W43190  19.612  33.668  12.060
74786W        W43191  28.921   1.156   0.976
74787W        W43192   6.618   0.691   1.894
74788W        W43193  16.734  11.842   4.523
74789W        W43194  28.469  31.322   0.764
74790W        W43195   2.525  34.039   2.765
74791W        W43196   4.569  25.640   2.310
74792W        W43197  37.374  12.874  13.490
74793W        W43198  35.521   3.859  10.845
74794W        W43199  13.396  15.969   1.271
74795W        W43200  31.144  42.061  10.645
74796W        W43201  25.046  24.689   4.830
74797W        W43202  25.254  34.379  10.706
74798W        W43203  19.341  12.506   0.407
74799W        W43204  10.311  30.127   2.186
74800W        W43205  22.229   2.718  10.544
74801W        W43206  34.021  19.018  12.976
74802W        W43207   8.398  28.563   4.308
74803W        W43208  33.911   9.145  12.894
74804W        W43209   1.275  40.442  13.559
74805W        W43210  20.090  29.456   4.005
74806W        W43211  30.620   1.069  11.705
74807W        W43212  32.291  44.424   2.214
74808W        W43213  30.431   2.356   4.465
74809W        W43214  38.656  33.035  11.083
74810W        W43215  21.521  13.176   1.364
74811W        W43216  11.969   0.810   3.125
74812W        W43217   5.427  31.505   3.405
74813W        W43218  10.828  33.590   0.850
74814W        W43219  42.354  40.826   2.279
74815W        W43220  43.453  34.278   0.916
74816W        W43221  32.646  15.496   3.265
74817W        W43222  25.957  35.495   0.820
74818W        W43223  14.971   6.936  14.944
74819W        W43224  31.439  38.763   2.789
74820W        W43225  35.777   6.743   4.460
74821W        W43226   9.815  27.034  11.566
74822W        W43227  11.320  10.232   2.274
74823W        W43228  28.122   3.486   3.358
74824W        W43229  42.211  33.929  13.018
74825W        W43230  37.383   6.501  10.991
74826W        W43231   0.556  19.348  12.407
74827W        W43232  12.055  26.490   1.708
74828W        W43233  16.996  12.887   4.170
74829W        W43234  30.220  41.825  11.584
74830W        W43235   5.615   9.597  11.358
74831W        W43236  19.738   7.921   5.010
74832W        W43237  42.612  38.297   4.580
74833W        W43238   6.304   1.069  13.382
74834W        W43239  44.015   6.348   3.336
74835W        W43240   0.374   3.768  12.430
74836W        W43241  36.491  25.574  12.488
74837W        W43242  19.270  36.559   4.382
74838W        W43243  18.136  31.095  12.157
74839W        W43244  19.757  17.114  12.196
74840W        W43245  37.855   7.802   1.814
74841W        W43246  40.089  37.886   2.316
74842W        W43247   9.541  39.565  13.368
74843W        W43248   1.879  37.016  14.769
74844W        W43249  39.450  20.326   0.386
74845W        W43250   9.155  19.189   3.322
74846W        W43251  19.881  32.861  11.153
74847W        W43252   7.686  13.855  12.440
74848W        W43253   6.148  36.416   4.938
74849W        W43254   1.554  14.553  14.396
74850W        W43255  12.735  40.546  13.534
74851W        W43256   7.476  38.504   1.645
74852W        W43257  31.458  39.682   9.710
74853W        W43258  31.901  35.896   3.676
74854W        W43259  43.738   2.770  11.987
74855W        W43260  28.841   7.766   0.505
74856W        W43261  41.740  41.090   3.468
74857W        W43262  10.100  15.617   4.398
74858W        W43263   2.998  27.736   0.949
74859W        W43264  13.825   7.391  12.894
74860W        W43265  25.488  27.484  12.129
74861W        W43266  36.119  11.199  11.707
74862W        W43267  12.167  22.746   2.793
74863W        W43268  35.554  15.848  12.037
74864W        W43269  38.922   1.795   5.076
74865W        W43270  28.446  25.261  12.010
74866W        W43271  15.258  23.229   1.459
74867W        W43272  25.583  17.153  10.353
74868W        W43273  18.317  24.465  11.217
74869W        W43274  10.387  18.590   4.176
74870W        W43275  36.600   5.923  12.545
74871W        W43276  36.282  13.783   5.066
74872W        W43277  14.226   1.498   0.741
74873W        W43278  39.057  31.855  11.616
74874W        W43279  25.688  27.287   0.379
74875W        W43280  27.021  26.219  10.377
74876W        W43281   5.526  39.221  13.723
74877W        W43282   3.195  12.807  14.954
74878W        W43283  33.386  42.118  14.202
74879W        W43284  42.244  44.700   4.559
74880W        W43285  26.589  40.921  12.457
74881W        W43286   8.410  34.514   3.304
74882W        W43287  42.445  30.398   4.602
74883W        W43288  18.903  25.993  14.544
74884W        W43289  16.092  24.008  14.384
74885W        W43290  16.367  35.170   9.707
74886W        W43291  31.054  30.589  14.921
74887W        W43292   9.688  26.609  12.184
74888W        W43293  24.944  18.758   2.332
74889W        W43294   9.645  23.080  14.772
74890W        W43295  31.384  31.388   0.786
74891W        W43296  17.813  30.072  13.779
74892W        W43297  14.045  25.582  13.477
74893W        W43298  12.263  32.484  10.689
74894W        W43299   6.430  28.525   4.651
74895W        W43300  19.264  11.165   2.135
74896W        W43301   3.013  40.767  12.449
74897W        W43302  29.563  14.340   2.118
74898W        W43303  30.627  38.974  11.986
74899W        W43304   3.147   4.331  14.333
74900W        W43305  27.450  40.968   3.698
74901W        W43306   3.207  27.903  11.043
74902W        W43307  21.091  40.816   2.312
74903W        W43308  34.063   7.338  11.846
74904W        W43309  24.503  20.702   4.238
74905W        W43310  28.589  18.345   4.567
74906W        W43311   8.320  32.363   0.376
74907W        W43312  43.304   9.393   4.311
74908W        W43313   3.393  31.557  14.943
74909W        W43314   2.288  16.694   0.183
74910W        W43315  32.104  35.671   1.336
74911W        W43316   6.196   6.497  12.884
74912W        W43317  31.880  10.163  11.646
74913W        W43318  33.688  32.592  11.343
74914W        W43319  37.399  35.990   2.730
74915W        W43320  30.080  36.537  13.075
74916W        W43321  29.925   5.519   0.791
74917W        W43322  30.981  32.387   0.677
74918W        W43323  38.535  28.106   4.504
74919W        W43324   7.966  12.287  12.415
74920W        W43325   0.963  27.096  11.822
74921W        W43326  17.647  27.970  11.297
74922W        W43327  38.025  21.620  10.571
74923W        W43328   4.230  34.785   1.227
74924W        W43329  44.341  12.943   1.689
74925W        W43330  26.197  18.673   3.809
74926W        W43331  11.370  20.936  10.229
74927W        W43332   1.719  42.082   4.683
74928W        W43333  43.885   3.356  11.596
74929W        W43334  28.588   0.839   1.398
74930W        W43335   5.965   7.150   4.501
74931W        W43336   5.850   3.298  10.726
74932W        W43337  24.830  32.941   3.353
74933W        W43338  42.354  36.824  13.072
74934W        W43339  15.192  40.944   2.455
74935W        W43340  17.186   8.871   1.663
74936W        W43341  14.075  12.560  11.378
74937W        W43342  24.177  25.514   1.654
74938W        W43343   9.972   3.340  10.499
74939W        W43344  28.405  37.325   4.076
74940W        W43345  42.231  22.067  14.249
74941W        W43346  39.269   2.210   2.588
74942W        W43347  35.881   9.394  12.547
74943W        W43348  13.262  22.233   0.811
74944W        W43349  12.110  36.846  13.816
74945W        W43350   5.832  11.829   3.802
74946W        W43351   1.667  14.237  13.972
74947W        W43352  41.070  33.128   1.307
74948W        W43353  42.330  22.712  14.844
74949W        W43354  15.599  43.492  11.409
74950W        W43355  22.481  43.100   9.842
74951W        W43356  10.937  31.108  10.792
74952W        W43357  18.027  35.404  12.520
74953W        W43358  44.282  34.901  10.444
74954W        W43359   6.158  36.549  12.186
74955W        W43360  28.582  42.132   0.291
74956W        W43361  13.227   8.727   3.289
74957W        W43362  18.477  21.461  14.904
74958W        W43363  20.088  44.744   2.409
74959W        W43364  18.487  35.812  10.265
74960W        W43365  35.336  17.109  12.428
74961W        W43366   6.257  30.484   1.454
74962W        W43367   1.927  30.444   2.868
74963W        W43368   9.635  14.796   3.308
74964W        W43369  41.074   0.715   3.115
74965W        W43370   4.298  13.350  14.019
74966W        W43371  27.733  36.157   1.411
74967W        W43372   2.344  34.867   1.416
74968W        W43373  37.106  26.655  12.778
74969W        W43374   6.680  28.302  14.882
74970W        W43375  33.058  22.816   2.192
74971W        W43376  41.991   7.257  11.722
74972W        W43377   1.459  16.292   0.545
74973W        W43378  32.379  16.740  11.168
74974W        W43379  14.134  18.541   1.860
74975W        W43380   8.681  18.291  14.303
74976W        W43381  12.855  32.928  13.803
74977W        W43382   8.486  13.710   0.030
74978W        W43383  17.027  41.842   3.677
74979W        W43384  44.732  29.940   2.135
74980W        W43385  41.989  31.219  12.155
74981W        W43386   2.768   8.390  10.249
74982W        W43387   1.541  24.119  12.506
74983W        W43388  38.967   2.571   2.393
74984W        W43389   2.088  35.911  12.141
74985W        W43390  31.940  19.272   2.506
74986W        W43391  10.237  34.100   2.329
74987W        W43392  22.165  13.824   3.641
74988W        W43393  13.539   3.456  13.524
74989W        W43394  20.713  38.822  14.778
74990W        W43395  34.623   9.449  14.064
74991W        W43396  27.528  35.935   0.509
74992W        W43397  36.046  41.805  12.508
74993W        W43398  23.079   2.414   3.365
74994W        W43399  12.604  27.263  10.645
74995W        W43400  17.197  16.699   0.182
74996W        W43401  29.107   4.380   0.900
74997W        W43402  24.430  17.200   4.579
74998W        W43403  31.984  41.356  13.585
74999W        W43404  17.778  24.418  14.469
75000W        W43405   6.919  28.220   2.268
75001W        W43406   3.070  36.669   2.323
75002W        W43407  17.566  14.813   3.808
75003W        W43408  21.666  21.505  13.462
75004W        W43409  30.718  16.913   9.860
75005W        W43410  30.981  32.556   3.128
75006W        W43411  19.132  25.988   0.008
75007W        W43412  26.267  34.468   2.291
75008W        W43413  31.045  30.493  11.398
75009W        W43414  24.235   3.530  11.646
75010W        W43415   4.796  43.407   4.668
75011W        W43416  16.647  32.205   1.398
75012W        W43417  27.350   0.835   5.036
75013W        W43418  11.344  15.823  11.483
75014W        W43419   5.333   7.776   2.370
75015W        W43420  23.066  23.987  11.144
75016W        W43421   8.911  43.208  11.678
75017W        W43422  24.086   6.428   4.209
75018W        W43423  38.331  17.088  13.584
75019W        W43424  17.196  42.431   0.801
75020W        W43425   3.183  13.167   2.751
75021W        W43426  35.919  17.339  14.781
75022W        W43427  42.453  22.666  11.048
75023W        W43428  26.404  26.678  14.321
75024W        W43429  24.332  16.745   0.417
75025W        W43430  21.211   6.432   0.277
75026W        W43431  14.497  23.302  10.973
75027W        W43432   7.187   8.819   3.104
75028W        W43433  32.311  17.713   0.790
75029W        W43434  23.681  14.724  14.865
75030W        W43435  27.120  43.893   2.111
75031W        W43436  36.345  39.958   2.823
75032W        W43437  33.834  14.415  11.205
75033W        W43438  39.060  35.782   2.562
75034W        W43439  11.066  43.005  10.915
75035W        W43440  22.975  27.141   4.628
75036W        W43441  21.526  30.815   0.747
75037W        W43442   7.365  30.504   4.248
75038W        W43443  17.839  13.694  12.978
75039W        W43444  44.459  27.170  11.450
75040W        W43445   5.541  16.028  10.270
75041W        W43446  23.174  31.533  12.894
75042W        W43447  37.048  14.864  11.135
75043W        W43448   9.074  32.898  13.869
75044W        W43449  28.531  33.879  13.545
75045W        W43450  19.804   8.194   1.534
75046W        W43451  41.027  28.882  11.122
75047W        W43452  33.200  34.670   3.611
75048W        W43453   4.275   9.294  13.051
75049W        W43454   9.399  33.913  11.132
75050W        W43455   1.409  36.689  11.917
75051W        W43456   2.255   4.843   1.097
75052W        W43457  12.822  41.751  14.991
75053W        W43458  42.458  43.712   4.089
75054W        W43459  27.390  35.902   4.004
75055W        W43460  24.069  10.134   3.148
75056W        W43461  20.962  36.078   4.612
75057W        W43462   3.713  30.839   0.571
75058W        W43463  16.887  28.528   1.859
75059W        W43464  34.150  12.913  14.286
75060W        W43465  25.965  14.634   2.244
75061W        W43466   5.834   9.321  12.897
75062W        W43467  30.464  34.550  10.203
75063W        W43468  31.460  35.489  14.352
75064W        W43469  33.629   4.212  14.039
75065W        W43470   1.518  37.214  14.457
75066W        W43471  40.441  32.068   5.521
75067W        W43472  43.970  34.214  14.975
75068W        W43473  33.201   4.310  11.856
75069W        W43474  40.029  21.050  14.354
75070W        W43475   0.638  18.685  13.391
75071W        W43476  16.081  16.126  14.495
75072W        W43477  17.354  11.299  14.819
75073W        W43478   3.621  31.729   0.413
75074W        W43479  13.651  40.710  13.004
75075W        W43480  43.232  23.535  13.829
75076W        W43481  18.659  38.411   0.932
75077W        W43482  29.126  16.659   1.061
75078W        W43483  43.383   1.119  12.618
75079W        W43484  31.640  37.596  14.998
75080W        W43485  16.692   1.909  11.414
75081W        W43486  24.337  33.884   1.897
75082W        W43487  33.490   6.951   3.414
75083W        W43488  21.821  33.356   0.511
75084W        W43489  20.705  33.032   1.931
75085W        W43490  36.421  27.591   4.554
75086W        W43491  21.698  24.460  10.678
75087W        W43492  27.990  38.459  10.783
75088W        W43493   2.842   1.399   3.235
75089W        W43494   9.308  27.143  11.552
75090W        W43495  32.086  21.948   1.027
75091W        W43496  38.390  41.035  12.370
75092W        W43497  25.158  34.492   0.081
75093W        W43498  32.141  11.645  14.395
75094W        W43499  18.819  43.475  10.663
75095W        W43500  44.863  18.762  12.942
75096W        W43501  34.898  20.557  11.679
75097W        W43502  15.688  29.429  12.308
75098W        W43503  38.668  24.570   0.358
75099W        W43504  16.631  32.393  14.013
75100W        W43505  22.573  10.299   4.064
75101W        W43506   0.890  31.022   2.326
75102W        W43507  33.359  14.319  12.876
75103W        W43508   2.861  44.782   0.230
75104W        W43509   7.375  28.538   4.143
75105W        W43510   8.296   8.127   1.390
75106W        W43511  15.807  42.057  14.184
75107W        W43512   0.867  14.436  11.505
75108W        W43513  26.707  39.862   1.336
75109W        W43514  25.659   6.161  10.681
75110W        W43515   8.364   8.638  11.153
75111W        W43516  29.956  18.060   3.856
75112W        W43517  33.706  27.488  12.878
75113W        W43518   4.596  13.303   1.243
75114W        W43519  41.464   3.492  13.055
75115W        W43520  32.339  13.129   4.171
75116W        W43521  42.684   2.947  11.133
75117W        W43522  23.553  24.295   4.734
75118W        W43523   4.701  33.064   1.702
75119W        W43524   6.461   3.538   3.627
75120W        W43525  22.771  40.567   3.243
75121W        W43526   6.826  20.813   1.968
75122W        W43527  32.045  23.499  13.858
75123W        W43528  42.932  44.674  11.597
75124W        W43529  37.936  29.891  14.772
75125W        W43530  43.293  40.364   4.090
75126W        W43531  36.878   6.857  14.272
75127W        W43532  17.502  33.902   1.063
75128W        W43533  12.325  44.373   3.143
75129W        W43534   7.616   3.921   3.185
75130W        W43535  11.864  43.976   2.183
75131W        W43536   2.390   5.951  12.939
75132W        W43537  41.356   9.359   3.196
75133W        W43538   8.006  22.094   0.782
75134W        W43539   7.705  30.272  13.347
75135W        W43540  12.759  16.548  14.590
75136W        W43541   2.413  23.075   4.057
75137W        W43542  10.375  21.068   3.218
75138W        W43543  27.329  33.756   3.357
75139W        W43544  28.553  43.454   2.171
75140W        W43545  23.080  14.106  13.802
75141W        W43546  30.765  13.172  10.528
75142W        W43547  13.308   5.789   1.746
75143W        W43548  13.331   1.164   3.697
75144W        W43549  37.315  41.615   0.279
75145W        W43550  38.946  32.338   1.748
75146W        W43551  13.084  31.975   1.232
75147W        W43552  41.939  29.966  13.881
75148W        W43553  43.383  17.613   0.467
75149W        W43554  40.223  38.353  10.668
75150W        W43555  38.046   9.442   0.348
75151W        W43556  31.956  11.833  10.971
75152W        W43557  19.569  34.815  14.760
75153W        W43558  30.506  12.168   0.427
75154W        W43559  15.768   3.860   2.921
75155W        W43560   6.341  13.140  10.366
75156W        W43561  39.815  26.656   2.584
75157W        W43562   2.970  13.645  14.440
75158W        W43563  42.955  23.186   0.389
75159W        W43564   7.916   0.749  10.957
75160W        W43565   0.070  33.097  11.032
75161W        W43566   6.789  16.268   5.503
75162W        W43567  38.760  12.745  10.739
75163W        W43568  30.368  39.786  14.884
75164W        W43569  33.862   0.271   3.555
75165W        W43570  22.066  17.398   4.224
75166W        W43571  18.709  16.743  11.917
75167W        W43572  16.624  31.653   3.206
75168W        W43573  10.878  43.986   2.124
75169W        W43574  36.846   7.201   3.227
75170W        W43575  12.845  16.785  10.945
75171W        W43576  23.220  29.203  10.941
75172W        W43577  12.004  32.014  10.793
75173W        W43578  33.055   1.637   3.519
75174W        W43579  27.031  22.324   4.070
75175W        W43580  39.091   9.593   3.863
75176W        W43581  26.476  38.379  14.041
75177W        W43582  11.998  14.438   0.687
75178W        W43583  39.719  42.204  14.533
75179W        W43584  21.074  24.504  14.776
75180W        W43585  28.770   5.895   2.771
75181W        W43586  31.828  33.544   1.023
75182W        W43587  19.369  41.634   3.519
75183W        W43588   4.920  40.863  13.838
75184W        W43589  15.543  43.918  14.348
75185W        W43590  20.664  41.349  12.891
75186W        W43591  19.475  36.555   3.454
75187W        W43592  31.649  12.198   0.563
75188W        W43593  33.592  16.870  14.314
75189W        W43594   0.753  43.174   4.253
75190W        W43595  30.192   4.811  10.738
75191W        W43596  30.084  32.568  13.775
75192W        W43597  16.720   4.579  14.779
75193W        W43598  32.736  34.130   3.214
75194W        W43599  41.960  24.919  13.562
75195W        W43600  38.841  26.464   0.419
75196W        W43601   5.917  21.281   2.804
75197W        W43602   5.467  15.146   4.118
75198W        W43603  18.376   7.468   2.731
75199W        W43604  34.520  33.012  11.219
75200W        W43605  29.056  29.232  13.802
75201W        W43606  42.183  17.823  13.859
75202W        W43607   5.192  17.564   2.141
75203W        W43608  44.075  39.235  14.802
75204W        W43609  26.051  11.175  14.789
75205W        W43610  39.690  10.364  11.880
75206W        W43611  22.003   4.518   3.670
75207W        W43612  34.016  26.862   4.008
75208W        W43613  21.626  31.687   2.757
75209W        W43614  12.769  14.582   4.487
75210W        W43615  40.339  42.410  13.402
75211W        W43616  21.663   4.204   0.946
75212W        W43617  12.209  29.371   3.370
75213W        W43618   6.534  31.307  11.586
75214W        W43619   2.496   5.483  12.740
75215W        W43620   1.003  43.509   4.571
75216W        W43621  22.268   5.076  11.922
75217W        W43622   2.428   2.037   1.792
75218W        W43623   3.799  14.609   4.006
75219W        W43624  14.248  14.576   2.198
75220W        W43625  37.419  21.981   1.832
75221W        W43626   0.991  12.243  11.331
75222W        W43627  26.269  23.025   2.823
75223W        W43628  31.899   8.682  10.603
75224W        W43629  25.152   2.542   0.275
75225W        W43630  22.588  41.474   3.605
75226W        W43631  20.809   9.248  13.426
75227W        W43632  36.302  29.669   1.144
75228W        W43633  32.841  13.148   4.096
75229W        W43634  30.193  25.497   0.870
75230W        W43635  13.237  35.443   3.307
75231W        W43636  16.966  21.597   4.908
75232W        W43637  28.737  24.526   0.261
75233W        W43638  31.564  19.867   4.582
75234W        W43639  20.105   3.159  10.631
75235W        W43640  13.303  21.326  11.014
75236W        W43641  30.626   2.856   1.371
75237W        W43642  16.917  11.580   4.076
75238W        W43643   6.423   7.134  11.045
75239W        W43644   8.910  30.036   2.341
75240W        W43645  33.633  24.870   0.488
75241W        W43646  32.920  11.704  10.673
75242W        W43647  21.617  11.756   3.476
75243W        W43648  37.849  10.755  10.467
75244W        W43649  30.578  17.124  13.620
75245W        W43650  32.665  11.840   0.243
75246W        W43651  39.857  31.014   1.016
75247W        W43652   4.932  15.341  14.069
75248W        W43653  12.333  13.453   1.746
75249W        W43654  14.165   0.238   5.216
75250W        W43655  25.943  22.689   2.269
75251W        W43656  27.374  14.492   5.302
75252W        W43657   1.157   5.350   3.333
75253W        W43658  38.387  31.124   0.924
75254W        W43659  35.475  23.745  12.383
75255W        W43660  10.189  41.129  14.932
75256W        W43661  33.318   9.285   0.014
75257W        W43662  34.595  34.906   1.541
75258W        W43663  35.603  31.883  14.379
75259W        W43664  23.452  11.854   1.310
75260W        W43665  36.148  25.227  11.486
75261W        W43666  30.493  29.111   4.678
75262W        W43667   5.370  40.532  14.502
75263W        W43668  11.463  32.446  13.285
75264W        W43669  20.778  43.955   2.133
75265W        W43670  39.022   7.499   1.208
75266W        W43671  24.056  11.268   3.082
75267W        W43672  33.737  38.876   9.966
75268W        W43673  42.380  23.599  11.702
75269W        W43674   0.849  30.437  13.378
75270W        W43675  10.388  41.427  12.113
75271W        W43676  12.208   3.430   0.927
75272W        W43677  28.542  21.803   3.691
75273W        W43678  17.329  14.097   0.241
75274W        W43679   8.892  12.392  12.464
75275W        W43680  19.449  40.103   0.800
75276W        W43681  12.699  30.771  13.411
75277W        W43682  32.134  31.589   1.681
75278W        W43683  21.831  13.386  10.975
75279W        W43684  35.876  32.986  11.924
75280W        W43685  39.329  39.824  10.779
75281W        W43686   0.192   9.364   0.889
75282W        W43687  17.272  43.245  13.317
75283W        W43688  41.541  12.314   3.141
75284W        W43689  20.701   6.182   0.912
75285W        W43690   2.333  20.105   1.810
75286W        W43691  17.840  32.148   0.584
75287W        W43692  29.405   7.597  14.755
75288W        W43693  32.617  25.270   0.446
75289W        W43694  38.566  10.406  11.001
75290W        W43695  26.046  43.803   0.517
75291W        W43696   1.677  11.898  10.687
75292W        W43697   9.834  10.399  14.503
75293W        W43698  10.806  10.522  12.030
75294W        W43699  11.256  10.829   3.702
75295W        W43700   6.239  38.050   1.848
75296W        W43701  41.017  41.967   2.735
75297W        W43702   9.151  28.399   0.210
75298W        W43703   5.289   1.780  14.792
75299W        W43704  27.003  38.582  14.753
75300W        W43705  37.925   2.834   1.925
75301W        W43706  35.505  44.887   0.959
75302W        W43707  42.004  20.989   2.828
75303W        W43708  16.202  30.015   4.665
75304W        W43709  22.510   5.872   0.458
75305W        W43710  30.079  43.774   4.666
75306W        W43711  11.861  23.604  10.193
75307W        W43712   2.664  35.420   2.747
75308W        W43713  18.587   6.715   2.347
75309W        W43714  11.662  24.877   1.252
75310W        W43715  37.036  34.355  10.628
75311W        W43716  11.419   6.336   4.503
75312W        W43717  39.562   4.896   0.788
75313W        W43718  24.722  37.317   3.235
75314W        W43719  16.023  38.341   2.950
75315W        W43720  26.170   7.935   2.371
75316W        W43721   5.023  28.995  14.422
75317W        W43722  12.347  10.783  12.978
75318W        W43723  37.787  42.172   5.092
75319W        W43724  39.974   2.099  14.116
75320W        W43725  11.633  34.510   3.242
75321W        W43726  16.001  22.636   4.153
75322W        W43727  38.057   1.918   0.410
75323W        W43728   1.310   8.408  14.867
75324W        W43729  14.137  13.052  11.546
75325W        W43730  30.457  14.234   4.673
75326W        W43731   6.064  10.626   3.501
75327W        W43732  39.067  18.257   9.994
75328W        W43733  22.296  44.979  11.539
75329W        W43734  36.041  20.609   2.835
75330W        W43735  10.157  30.419  12.448
75331W        W43736  31.972  39.046   2.381
75332W        W43737  33.066  32.452  12.605
75333W        W43738   8.599   2.059  14.454
75334W        W43739  19.530  30.710  13.862
75335W        W43740  18.060  43.676   2.515
75336W        W43741  10.611   0.734   4.576
75337W        W43742  41.583   5.267  13.118
75338W        W43743  38.012  10.697   2.802
75339W        W43744   0.124   7.436  10.714
75340W        W43745  33.142  31.452   4.178
75341W        W43746  26.626   2.840   0.880
75342W        W43747  37.066  10.584   0.445
75343W        W43748   9.272  25.912   0.818
75344W        W43749  36.612  27.381  13.974
75345W        W43750  38.010   7.291  13.882
75346W        W43751  23.449  27.032   1.286
75347W        W43752   3.291  17.162   3.597
75348W        W43753  14.016   1.898   2.565
75349W        W43754  40.263   9.787   2.242
75350W        W43755  28.448  14.744  10.083
75351W        W43756  31.004  22.505   4.617
75352W        W43757  35.688  34.370   2.179
75353W        W43758   0.494  26.981  11.649
75354W        W43759   2.865  27.503   4.467
75355W        W43760  23.708   3.850  14.119
75356W        W43761  39.087   0.334   4.430
75357W        W43762   6.489  20.497   3.002
75358W        W43763  28.047  12.142  10.721
75359W        W43764   9.319  26.660  10.621
75360W        W43765  16.085  18.994  11.455
75361W        W43766  38.414  39.089  12.211
75362W        W43767  37.874  30.109  12.019
75363W        W43768  17.139  16.606   4.052
75364W        W43769  18.845  23.412   3.654
75365W        W43770   4.990  13.756  13.524
75366W        W43771   6.641  28.632   4.170
75367W        W43772  39.924   9.604  12.480
75368W        W43773  27.984  10.178  11.939
75369W        W43774  15.533  44.753   2.864
75370W        W43775  19.718  17.172  11.702
75371W        W43776  24.036  44.836  14.487
75372W        W43777  10.217  41.473  10.284
75373W        W43778  13.854  41.354   4.646
75374W        W43779  32.044   0.484   1.185
75375W        W43780  42.926  20.057  11.933
75376W        W43781  29.564  43.159  14.877
75377W        W43782  43.041  39.799  11.911
75378W        W43783  14.853  11.868   2.182
75379W        W43784  15.614  36.584  13.363
75380W        W43785  23.211  24.321  11.508
75381W        W43786  28.453  41.727  10.281
75382W        W43787  15.407  28.226  10.623
75383W        W43788  20.033  15.680   2.845
75384W        W43789   9.981  10.401  11.078
75385W        W43790  17.485   4.002   4.189
75386W        W43791  15.695  27.734  14.888
75387W        W43792  14.892  42.482  12.412
75388W        W43793  28.389  38.362  10.469
75389W        W43794  32.449   8.906   0.200
75390W        W43795  24.482  38.257  12.071
75391W        W43796  37.344  14.214   2.677
75392W        W43797  25.455  39.278   0.366
75393W        W43798   7.586  15.645  10.280
75394W        W43799  23.581  30.111   3.502
75395W        W43800  32.476  36.759  14.890
75396W        W43801  11.180  39.780  14.886
75397W        W43802  32.549  33.515  13.501
75398W        W43803  43.916  22.273  14.304
75399W        W43804   7.448  32.064  13.447
75400W        W43805   0.766   9.947   0.165
75401W        W43806   4.722  35.360   4.156
75402W        W43807   5.213  15.153   1.345
75403W        W43808   2.254  34.227   4.018
75404W        W43809   8.856  27.929   2.331
75405W        W43810  13.171   1.358  11.352
75406W        W43811  44.227  25.159  11.724
75407W        W43812   2.769  15.154  13.226
75408W        W43813  41.093   2.851  12.545
75409W        W43814  36.512   0.286   0.896
75410W        W43815  26.945  40.512   0.209
75411W        W43816  30.246  10.484  11.150
75412W        W43817  38.825   7.340  11.685
75413W        W43818   3.837  38.243  12.884
75414W        W43819  43.850  25.308   2.318
75415W        W43820   2.692  32.561   1.200
75416W        W43821  41.501  25.152   1.462
75417W        W43822  44.425   7.824   3.476
75418W        W43823   8.930  39.761   9.956
75419W        W43824  28.082  23.299  12.079
75420W        W43825  31.404  42.172  11.064
75421W        W43826  35.361  26.450  10.838
75422W        W43827   4.322  43.212   2.814
75423W        W43828   7.705  31.074  12.435
75424W        W43829  34.933  42.693   1.769
75425W        W43830  28.565  32.991   1.724
75426W        W43831  37.564   4.760  10.643
75427W        W43832   9.189  11.146   1.432
75428W        W43833   2.856   9.353  13.870
75429W        W43834  27.428  23.271  14.531
75430W        W43835  34.591  43.700  13.119
75431W        W43836  42.409  14.682   4.677
75432W        W43837  37.445  17.000   3.726
75433W        W43838  24.106  18.053  14.853
75434W        W43839   0.754  18.000  12.078
75435W        W43840   0.731   4.006   2.184
75436W        W43841   0.879  19.498  12.030
75437W        W43842  33.414  24.043   1.787
75438W        W43843  26.955  16.549  10.472
75439W        W43844   3.554  44.704   2.147
75440W        W43845  39.023   5.358  11.590
75441W        W43846  20.985  39.077   3.787
75442W        W43847  33.364  23.555  10.108
75443W        W43848   6.022  31.032   1.371
75444W        W43849  42.052  27.370  11.411
75445W        W43850   0.014  33.612   0.412
75446W        W43851  18.272  19.175  10.718
75447W        W43852   1.327  12.622   4.667
75448W        W43853  21.969  34.763  10.508
75449W        W43854  32.039  12.443   4.422
75450W        W43855  31.637   6.651  14.841
75451W        W43856  35.074  31.373   4.134
75452W        W43857  20.160  11.236  12.994
75453W        W43858  23.651  19.338  12.108
75454W        W43859   3.413   2.817  11.975
75455W        W43860  15.600  19.585   3.026
75456W        W43861  42.548  17.586   1.131
75457W        W43862   2.193   5.050  10.181
75458W        W43863  20.585  41.369   1.480
75459W        W43864  16.098  36.824  12.165
75460W        W43865  23.231  32.597  13.602
75461W        W43866  16.539   7.398   2.272
75462W        W43867   3.229  39.858  14.992
75463W        W43868  14.079   0.856  11.208
75464W        W43869  26.058  41.716   5.053
75465W        W43870  42.396  42.711  14.926
75466W        W43871  33.934   1.392  10.554
75467W        W43872  34.863  35.078  13.423
75468W        W43873  26.930  31.612   2.762
75469W        W43874  13.579  27.976  14.896
75470W        W43875  31.964   5.735   4.156
75471W        W43876  29.032  36.866   2.217
75472W        W43877  18.721  28.173  14.776
75473W        W43878  37.873  14.761   2.091
75474W        W43879   3.522  13.260  12.948
75475W        W43880  35.908   2.359   4.994
75476W        W43881  24.702  15.698   0.319
75477W        W43882  20.653   0.189  12.502
75478W        W43883   4.710  25.604  13.549
75479W        W43884  13.603  35.497   4.154
75480W        W43885   4.735  37.906   0.940
75481W        W43886  40.906   0.052   3.705
75482W        W43887  11.245  26.233   1.186
75483W        W43888  39.608  22.240  11.119
75484W        W43889  25.908  40.284  10.568
75485W        W43890  13.855  30.828   0.555
75486W        W43891   1.323  19.961   2.342
75487W        W43892  15.779  32.383   2.728
75488W        W43893  27.146  23.434   0.364
75489W        W43894  16.981   9.866  12.569
75490W        W43895  14.056  20.743  11.475
75491W        W43896   8.299  26.373   4.474
75492W        W43897  42.660  38.031  11.122
75493W        W43898  37.113   8.415  11.336
75494W        W43899  26.756  15.270  12.587
75495W        W43900  40.102  20.333   2.269
75496W        W43901  36.132  36.636   4.541
75497W        W43902  22.683  26.610   3.650
75498W        W43903   3.785  42.000   0.533
75499W        W43904   4.290   6.930   0.797
75500W        W43905  22.525   6.853   0.511
75501W        W43906  43.063   4.095   3.191
75502W        W43907  35.325  38.426   3.674
75503W        W43908  38.813  17.047  13.800
75504W        W43909  42.891  36.813  11.768
75505W        W43910  20.577  15.271  14.494
75506W        W43911  44.692   1.360  13.994
75507W        W43912  28.588  23.302   0.902
75508W        W43913  14.219  20.213  12.962
75509W        W43914   7.355  36.855   0.190
75510W        W43915  31.545   9.747   4.613
75511W        W43916  21.480   4.366   3.631
75512W        W43917  38.563  25.305   1.901
75513W        W43918  23.236  26.164  12.436
75514W        W43919  20.181  28.277  10.053
75515W        W43920   9.543   3.870   3.627
75516W        W43921  27.070  42.378  14.109
75517W        W43922  23.108   8.812   1.747
75518W        W43923  33.279  35.358  10.599
75519W        W43924  32.877  20.205  14.931
75520W        W43925  33.624  35.098  14.018
75521W        W43926  12.438  32.664  12.552
75522W        W43927  15.669  43.978  11.279
75523W        W43928  41.919  40.842  14.872
75524W        W43929  41.865  28.267  11.868
75525W        W43930  10.509  25.644  11.478
75526W        W43931  31.520   7.814  14.523
75527W        W43932  20.543  41.539   0.156
75528W        W43933  36.300  19.293  13.589
75529W        W43934  19.610  20.071  12.606
75530W        W43935  22.028  22.663  14.885
75531W        W43936  23.474  33.563  12.484
75532W        W43937  21.185   6.619  11.648
75533W        W43938  15.591  27.122   3.102
75534W        W43939  16.807  15.615   3.212
75535W        W43940  12.360  15.524   5.457
75536W        W43941  33.988   6.790   0.490
75537W        W43942  14.990   1.905  12.132
75538W        W43943  16.844  13.262   0.258
75539W        W43944  10.862  15.541   2.807
75540W        W43945  24.270  32.236   2.250
75541W        W43946  25.474  21.010   9.910
75542W        W43947  30.150  16.136   3.603
75543W        W43948  40.516   6.355   1.799
75544W        W43949   5.885  17.549   3.275
75545W        W43950  13.296  35.328  13.390
75546W        W43951  29.503   0.506   3.354
75547W        W43952  14.036   2.018  12.179
75548W        W43953  20.860  11.903   1.894
75549W        W43954   5.395   0.388  13.543
75550W        W43955   4.901  22.582  10.699
75551W        W43956  12.959  12.669  12.040
75552W        W43957  27.728  17.967   2.119
75553W        W43958  35.829  16.975   3.859
75554W        W43959  16.648  12.793   4.565
75555W        W43960  33.484  33.700   0.910
75556W        W43961  34.470   7.370  14.305
75557W        W43962  16.306  18.276  12.991
75558W        W43963  11.410  27.197   3.257
75559W        W43964  21.736  12.655   4.681
75560W        W43965   7.319  17.028  14.765
75561W        W43966   6.751  23.582  12.059
75562W        W43967   7.896   2.717  13.955
75563W        W43968  15.352  36.477   0.789
75564W        W43969  43.721   0.418   4.228
75565W        W43970  26.420  12.271   0.875
75566W        W43971  17.827  30.485   3.231
75567W        W43972  13.317  31.320   2.457
75568W        W43973   3.478  40.941  11.545
75569W        W43974  25.720  21.136   3.672
75570W        W43975  13.338   8.259  14.015
75571W        W43976  26.099   4.026   0.688
75572W        W43977  36.952  15.007   1.751
75573W        W43978  23.600  43.837  10.696
75574W        W43979   0.228  23.226   0.356
75575W        W43980  35.067  31.562   0.032
75576W        W43981   9.590  19.624  11.259
75577W        W43982  31.552   6.781   1.408
75578W        W43983  14.710  33.856   3.646
75579W        W43984   5.484   1.874  10.964
75580W        W43985  34.871   8.181  13.269
75581W        W43986  17.083  11.548  10.285
75582W        W43987  17.799   0.371   0.469
75583W        W43988   1.668   6.614   4.269
75584W        W43989  29.275   6.686  11.074
75585W        W43990  29.430  16.397  13.000
75586W        W43991   8.823  26.276  11.874
75587W        W43992  24.620  17.705   0.745
75588W        W43993  29.714  32.635  12.455
75589W        W43994  33.150   9.926   1.842
75590W        W43995  34.772  36.113   3.358
75591W        W43996  16.400  35.169  12.681
75592W        W43997  26.613  16.379   1.765
75593W        W43998  25.470  34.764   0.787
75594W        W43999  43.314  28.828  14.742
75595W        W44000  38.847   0.908   5.052
75596W        W44001  29.772  24.378   2.310
75597W        W44002  28.995   1.767  11.245
75598W        W44003  33.939  32.171  11.234
75599W        W44004  18.574  32.530  11.631
75600W        W44005  39.988  26.379   1.288
75601W        W44006   5.688  36.065  12.617
75602W        W44007  35.133  24.637   4.891
75603W        W44008   0.430  26.272  14.958
75604W        W44009  25.857  23.560   1.460
75605W        W44010  36.893  26.065   0.039
75606W        W44011  23.744  17.790  14.073
75607W        W44012   7.452   1.021   4.176
75608W        W44013  10.720  35.626   1.916
75609W        W44014  11.112  40.463  13.855
75610W        W44015  33.661  23.041  13.893
75611W        W44016  23.645  12.731   4.707
75612W        W44017   2.222  35.964   3.607
75613W        W44018  38.467  24.490  13.841
75614W        W44019   0.427  34.834   1.731
75615W        W44020   7.624  17.897   5.007
75616W        W44021  13.639  26.270   2.878
75617W        W44022  30.607  10.226  14.274
75618W        W44023  38.956  15.594   3.708
75619W        W44024  21.258  19.581  12.227
75620W        W44025   3.296  26.059   3.765
75621W        W44026   2.844   9.166  14.939
75622W        W44027  28.139   6.296  12.509
75623W        W44028  25.178  31.145  13.974
75624W        W44029  16.349  43.405  12.106
75625W        W44030  33.890   5.277  13.019
75626W        W44031  10.817  41.681   3.317
75627W        W44032  17.243   7.909   2.506
75628W        W44033  12.674  27.912   2.674
75629W        W44034   0.864  13.052  11.911
75630W        W44035  16.329   3.316  11.054
75631W        W44036  27.142  37.451  13.895
75632W        W44037  29.486  19.231  14.301
75633W        W44038  33.304  11.724  12.495
75634W        W44039  44.685  11.243  14.876
75635W        W44040   8.165  28.146  11.699
75636W        W44041  11.648  15.161   0.310
75637W        W44042  32.866  23.682   3.424
75638W        W44043  44.180  21.775   3.694
75639W        W44044   4.372  34.310   3.284
75640W        W44045  30.045  38.319  13.761
75641W        W44046  10.123  15.835   0.198
75642W        W44047   5.685  37.893   4.570
75643W        W44048  42.788  18.037  13.489
75644W        W44049  11.319  27.181   5.115
75645W        W44050   7.934  26.016  12.863
75646W        W44051  13.350  38.136  12.582
75647W        W44052  18.702  17.361   3.298
75648W        W44053  35.524  42.893   0.942
75649W        W44054  21.538  20.731   1.219
75650W        W44055  35.058   5.835   1.014
75651W        W44056  34.183   9.327  14.322
75652W        W44057  18.799  24.450  13.962
75653W        W44058  16.110   8.266   0.781
75654W        W44059  30.520   1.328   2.905
75655W        W44060  34.339  41.333  13.853
75656W        W44061   2.336   7.561   2.382
75657W        W44062  38.051  20.694   2.480
75658W        W44063  10.631   9.162  14.380
75659W        W44064  18.311   6.188   3.161
75660W        W44065  37.297  26.025  13.656
75661W        W44066  20.640  30.604   0.795
75662W        W44067  39.459  33.164   0.950
75663W        W44068   5.303  31.596   0.189
75664W        W44069  40.144  13.834  14.273
75665W        W44070  38.148   1.874  14.915
75666W        W44071  35.416  17.953   3.152
75667W        W44072  32.414  19.616  13.517
75668W        W44073   4.895  21.753   2.222
75669W        W44074  20.639  40.221  10.960
75670W        W44075  21.336  43.311   3.697
75671W        W44076  10.596   4.835   3.656
75672W        W44077  36.982   4.218  12.632
75673W        W44078  32.607  17.599  14.480
75674W        W44079  28.103  43.763   2.198
75675W        W44080  39.582   8.343  11.278
75676W        W44081  40.415  24.894  12.208
75677W        W44082  11.785   5.624   2.338
75678W        W44083   7.580  14.588  14.014
75679W        W44084  10.129   9.086   5.108
75680W        W44085   3.985  43.709  14.917
75681W        W44086  43.646  32.455   1.804
75682W        W44087  22.732  35.057   0.951
75683W        W44088  18.041  38.279  12.827
75684W        W44089   6.514  22.064   3.340
75685W        W44090  33.040  43.583   0.767
75686W        W44091  21.494  16.614  14.968
75687W        W44092  30.533   6.826   0.659
75688W        W44093  12.311   5.703   4.515
75689W        W44094   1.383  19.276  11.958
75690W        W44095  32.009  25.622  13.086
75691W        W44096  10.202  12.635   0.466
75692W        W44097   8.641  43.422  13.984
75693W        W44098  42.906  26.865  11.987
75694W        W44099  32.496  40.723  11.139
75695W        W44100   3.486  43.370   2.864
75696W        W44101  32.507  26.199  12.869
75697W        W44102  13.950  14.758   3.862
75698W        W44103  41.030  32.356  12.033
75699W        W44104  25.834  41.747  13.271
75700W        W44105  19.637  40.977   0.727
75701W        W44106  28.553  14.338  14.573
75702W        W44107   1.005  14.147   0.382
75703W        W44108  34.343  30.983  13.240
75704W        W44109   4.987  22.807   1.190
75705W        W44110  40.725   1.359   3.553
75706W        W44111  14.362   5.170   3.924
75707W        W44112  35.089   6.728   2.687
75708W        W44113  38.057  41.978  11.337
75709W        W44114  29.519  10.917  13.549
75710W        W44115  12.155  11.316   4.610
75711W        W44116  37.555  33.606  12.108
75712W        W44117  24.952  32.179  14.045
75713W        W44118   2.357   1.206   1.342
75714W        W44119  16.018   0.776   4.380
75715W        W44120  40.433  31.487  11.362
75716W        W44121  30.534  27.600  11.167
75717W        W44122  44.915   5.402  14.393
75718W        W44123  17.011   1.694  10.593
75719W        W44124  30.744   3.382  13.307
75720W        W44125  17.098  11.717  14.460
75721W        W44126  31.949  43.728  14.401
75722W        W44127  41.520  41.715  12.564
75723W        W44128  24.944  38.370  11.175
75724W        W44129  17.371  21.531  12.997
75725W        W44130   3.355  33.096  12.560
75726W        W44131  44.936  20.455  14.090
75727W        W44132  13.544  18.567  11.250
75728W        W44133   9.329  10.875   2.775
75729W        W44134   1.177  10.309   5.115
75730W        W44135  24.664   4.201   1.422
75731W        W44136  14.761   2.934   0.510
75732W        W44137   4.887   8.697  13.357
75733W        W44138  23.146  21.285   3.198
75734W        W44139   8.636   0.701   0.355
75735W        W44140  37.020  13.354   4.188
75736W        W44141  40.540   2.310  13.604
75737W        W44142  32.046   5.197   0.799
75738W        W44143  17.266  14.791   4.230
75739W        W44144  32.670  33.574  12.998
75740W        W44145  40.569  12.216  12.089
75741W        W44146  31.059   8.445   0.348
75742W        W44147  32.184  31.289  12.778
75743W        W44148  30.254   5.762  12.055
75744W        W44149   0.141  37.406  12.964
75745W        W44150  44.367  23.035  13.116
75746W        W44151  30.885  20.630   2.233
75747W        W44152   4.556   3.985   9.796
75748W        W44153  37.592   9.280  13.750
75749W        W44154  13.775   1.256  12.029
75750W        W44155  35.563  36.431  13.498
75751W        W44156   5.443  30.106  12.620
75752W        W44157   0.267  21.382  12.743
75753W        W44158  10.594  16.727   2.767
75754W        W44159  15.266  26.826   1.781
75755W        W44160  31.698  37.022  14.001
75756W        W44161  24.845   8.748  14.475
75757W        W44162  23.005  35.971  14.397
75758W        W44163  29.956  19.605  13.577
75759W        W44164  40.263  20.182   2.807
75760W        W44165  30.288  30.110  14.329
75761W        W44166   1.843  12.194   0.915
75762W        W44167  30.940  14.804   2.371
75763W        W44168  21.870  33.098   3.097
75764W        W44169  24.531  42.785  14.944
75765W        W44170   0.800  22.026  11.006
75766W        W44171  13.771   5.031   2.755
75767W        W44172   1.974   5.663  14.213
75768W        W44173  11.953  37.459   0.170
75769W        W44174  10.303  20.168   3.416
75770W        W44175  35.214  32.803  13.103
75771W        W44176  13.269  39.497   0.404
75772W        W44177  20.312  20.675   1.896
75773W        W44178  10.865   0.381   3.495
75774W        W44179  27.579  31.048  11.554
75775W        W44180   3.244  37.050  11.492
75776W        W44181  23.274  43.682  13.338
75777W        W44182  17.557   8.126  11.092
75778W        W44183  33.592  11.687  14.341
75779W        W44184   2.665  28.544   1.933
75780W        W44185  19.574  12.178   3.891
75781W        W44186   0.290  21.027   3.376
75782W        W44187  20.417  27.227  13.481
75783W        W44188  40.007  12.246   1.219
75784W        W44189  40.572   2.723   3.205
75785W        W44190  34.998  39.550  14.584
75786W        W44191  24.078  16.587  13.951
75787W        W44192  39.333   5.502  10.728
75788W        W44193  10.202  31.686  10.717
75789W        W44194  41.672   7.733  11.326
75790W        W44195  11.853  13.594  11.322
75791W        W44196  14.332  25.128  14.924
75792W        W44197  37.560  35.288   4.243
75793W        W44198  34.220  14.288   0.010
75794W        W44199  35.534  30.105   2.444
75795W        W44200  11.154  22.746  12.911
75796W        W44201  42.037  34.983  13.937
75797W        W44202   8.794  44.998  11.962
75798W        W44203  39.383  21.979  11.959
75799W        W44204  14.830  22.314   3.798
75800W        W44205  13.451  24.217   0.531
75801W        W44206  26.203  44.745  13.058
75802W        W44207  28.576  23.499   3.321
75803W        W44208  40.792  35.283  14.079
75804W        W44209  25.768  29.325  14.208
75805W        W44210  21.148  26.804   0.865
75806W        W44211  11.953  26.746  14.915
75807W        W44212   5.675  18.482  13.320
75808W        W44213  44.825  38.919   4.360
75809W        W44214  34.008  15.635  11.684
75810W        W44215  20.492   5.192  13.971
75811W        W44216   4.185   7.446  11.923
75812W        W44217  14.212  38.578   3.785
75813W        W44218   6.646  14.220   4.191
75814W        W44219  15.997  14.248   1.684
75815W        W44220  10.488  44.307  13.827
75816W        W44221  26.091   4.526  13.543
75817W        W44222  18.709  14.749   1.515
75818W        W44223  10.163  28.165  12.394
75819W        W44224  34.423  35.302  11.079
75820W        W44225  15.135  11.112  12.043
75821W        W44226   5.742  17.698   0.825
75822W        W44227  22.495  41.732  13.875
75823W        W44228   0.416  38.502  13.729
75824W        W44229  37.939  27.415   4.104
75825W        W44230  28.514  15.741   9.830
75826W        W44231   7.345  27.916   0.014
75827W        W44232  37.982  42.570   3.629
75828W        W44233  43.493  29.462  10.694
75829W        W44234   2.387  17.261   3.975
75830W        W44235   8.933  19.433   0.335
75831W        W44236   4.243  28.448  14.834
75832W        W44237  42.072  33.074  13.859
75833W        W44238  33.841  20.670  12.065
75834W        W44239  17.637  17.758   3.901
75835W        W44240  39.044  33.965   3.735
75836W        W44241  19.136  30.118  11.105
75837W        W44242  23.117  21.863   4.262
75838W        W44243  13.717   1.741   3.294
75839W        W44244   0.814  19.627  11.125
75840W        W44245  24.771  25.431  13.553
75841W        W44246  25.200  38.354  12.489
75842W        W44247  37.588  14.133  10.866
75843W        W44248  21.011  34.064  10.984
75844W        W44249  37.857  33.428   4.035
75845W        W44250   0.635  44.477  12.051
75846W        W44251  36.979  12.744   0.432
75847W        W44252   2.676  18.564  12.833
75848W        W44253  31.624  13.009   2.829
75849W        W44254   0.988  16.764   0.986
75850W        W44255  26.423   9.326   3.349
75851W        W44256  28.480   6.247   0.559
75852W        W44257   3.244  28.533  11.994
75853W        W44258   6.380  31.710   5.059
75854W        W44259  36.978   0.519   0.985
75855W        W44260  32.332  24.737  11.152
75856W        W44261  30.479   0.183   3.817
75857W        W44262  38.578  10.778   0.544
75858W        W44263  20.557  12.722   2.222
75859W        W44264  30.386   0.798   1.272
75860W        W44265  31.135  13.701   2.155
75861W        W44266  18.722   8.948  12.575
75862W        W44267  44.669  44.918   2.456
75863W        W44268  43.065  30.106   0.789
75864W        W44269  22.591  11.712   4.027
75865W        W44270   1.143  11.200   4.474
75866W        W44271  21.780  12.797  11.562
75867W        W44272   3.696   8.924  11.858
75868W        W44273   9.721  42.766   1.388
75869W        W44274  28.925  42.881   0.756
75870W        W44275   5.964   6.801   1.733
75871W        W44276  20.778  31.473   1.647
75872W        W44277  34.390  35.460  13.450
75873W        W44278  13.661  35.157   3.177
75874W        W44279  26.087  24.220   2.222
75875W        W44280  31.070  42.316  12.030
75876W        W44281  14.208  15.798  10.644
75877W        W44282  22.748  13.230  12.028
75878W        W44283   2.350  16.174   0.491
75879W        W44284  22.718  38.430  14.044
75880W        W44285   6.629   3.214   3.981
75881W        W44286  42.723  10.421   2.893
75882W        W44287  28.773  21.590  10.654
75883W        W44288  26.094  21.430  13.372
75884W        W44289   4.121  10.186   2.344
75885W        W44290   9.284  40.819   1.765
75886W        W44291   6.412   9.665   0.952
75887W        W44292  21.018  40.427   0.437
75888W        W44293  19.326  41.658  11.137
75889W        W44294  30.404  35.958   0.871
75890W        W44295  20.594   8.433  14.903
75891W        W44296  34.905  30.803   2.868
75892W        W44297  17.950  39.431  10.483
75893W        W44298  42.305  42.012   0.446
75894W        W44299  12.663  38.607  11.090
75895W        W44300  38.490  31.400   3.339
75896W        W44301  33.454  26.076   2.398
75897W        W44302  34.214   2.813   3.885
75898W        W44303  15.877   7.442  13.076
75899W        W44304   9.321  23.738   4.229
75900W        W44305   1.702   4.471   4.641
75901W        W44306  22.173  43.239  12.692
75902W        W44307  32.954  11.675   2.313
75903W        W44308   5.300  36.968  10.984
75904W        W44309  35.008  24.679  14.075
75905W        W44310  37.000   5.824   1.304
75906W        W44311  35.107  42.787   4.234
75907W        W44312   3.953  31.225   2.879
75908W        W44313  31.417  10.723  13.873
75909W        W44314  27.470   2.322  11.973
75910W        W44315  31.148   8.645   5.226
75911W        W44316  23.771   0.365  13.990
75912W        W44317  43.997  22.895  11.909
75913W        W44318  23.968  11.937   3.876
75914W        W44319   8.916   2.386   0.750
75915W        W44320   0.190  41.306  12.512
75916W        W44321  10.885  37.049  10.713
75917W        W44322   3.934  36.476  14.221
75918W        W44323  18.173  29.443   1.031
75919W        W44324  29.580   8.314  11.497
75920W        W44325  23.079  29.944  11.417
75921W        W44326  15.198  10.244   3.696
75922W        W44327  39.077  13.290   3.469
75923W        W44328   3.947  35.563  13.963
75924W        W44329   8.194  21.778  12.027
75925W        W44330  36.916   2.504  13.488
75926W        W44331  14.879   8.358  11.670
75927W        W44332  28.162  39.825   4.243
75928W        W44333  43.698  13.344   2.736
75929W        W44334  35.004  17.081  10.598
75930W        W44335   9.250  24.075  14.344
75931W        W44336  37.863  17.830  14.960
75932W        W44337   1.806  36.849  11.175
75933W        W44338   4.607  22.742   4.063
75934W        W44339  20.702  21.536  13.834
75935W        W44340  26.054  37.021   4.196
75936W        W44341  12.575   2.911   0.146
75937W        W44342  27.473  16.610   0.311
75938W        W44343  34.101  38.439  12.664
75939W        W44344  20.544  16.106   3.386
75940W        W44345  18.094  19.465  11.106
75941W        W44346  17.288  10.084   0.276
75942W        W44347  29.371  31.125  11.584
75943W        W44348  37.175  30.296   2.896
75944W        W44349  29.667  28.484  11.196
75945W        W44350   7.774   7.401   2.713
75946W        W44351  18.976  35.200  13.371
75947W        W44352   0.921  42.054   1.242
75948W        W44353  22.968   7.712  12.464
75949W        W44354  35.644  44.374   2.667
75950W        W44355  21.282  42.290  12.109
75951W        W44356  19.356  41.525   0.775
75952W        W44357  26.717  17.109   0.333
75953W        W44358  37.918  25.341  12.904
75954W        W44359   3.118  29.489   3.728
75955W        W44360  43.280  22.046   3.470
75956W        W44361  31.005  23.645   1.513
75957W        W44362   9.466   2.202  11.586
75958W        W44363  12.726  35.490   0.130
75959W        W44364  14.114   3.339  12.539
75960W        W44365  15.251  41.397   2.229
75961W        W44366  39.331  32.869  13.999
75962W        W44367  31.041  21.823   1.859
75963W        W44368  29.970  37.243  14.759
75964W        W44369  16.633  38.896  14.918
75965W        W44370  19.986  42.322  13.451
75966W        W44371  29.083  42.303   2.082
75967W        W44372  29.062  41.695  12.505
75968W        W44373  25.934  39.003  11.368
75969W        W44374  29.947  21.660  12.683
75970W        W44375  40.169  39.867   3.658
75971W        W44376  34.321  20.246   4.296
75972W        W44377  25.899  15.654  11.937
75973W        W44378  30.440  21.186  13.228
75974W        W44379  37.039  40.476   4.622
75975W        W44380  41.624  31.955  11.589
75976W        W44381  32.751  37.087  12.961
75977W        W44382   5.836  26.992   1.902
75978W        W44383  14.081  11.090  11.468
75979W        W44384  26.588   2.242  12.274
75980W        W44385   6.843  43.977  12.853
75981W        W44386  13.174  23.661   4.538
75982W        W44387  33.990  20.444  12.957
75983W        W44388  31.555  32.018  11.545
75984W        W44389  22.148  32.747   1.666
75985W        W44390  19.764  13.384  13.576
75986W        W44391  36.945  22.110  10.663
75987W        W44392  29.870  33.949   4.593
75988W        W44393  33.069  25.488   4.706
75989W        W44394  18.673  41.683   1.676
75990W        W44395  41.320   6.794  11.637
75991W        W44396  39.259  44.458  12.629
75992W        W44397  43.355  42.889  11.182
75993W        W44398  38.140  13.977   3.685
75994W        W44399  34.651  44.751  11.395
75995W        W44400  41.351  17.142   0.343
75996W        W44401  32.096  36.116  10.312
75997W        W44402  25.366   9.361   4.018
75998W        W44403  13.669  41.879   1.451
75999W        W44404  12.754  41.375  14.273
76000W        W44405  38.939  30.064  12.099
76001W        W44406  18.067  34.868   1.389
76002W        W44407  12.536   2.753  13.044
76003W        W44408  15.624   6.147  12.454
76004W        W44409   7.920  18.643  13.065
76005W        W44410  10.164   5.263   1.392
76006W        W44411   8.326  10.724   0.082
76007W        W44412  15.577  19.844   2.584
76008W        W44413  19.486  15.353   0.284
76009W        W44414  10.771  16.501  13.931
76010W        W44415  41.298  27.452   3.221
76011W        W44416  38.868   2.943  12.507
76012W        W44417   8.735  35.567   1.178
76013W        W44418  10.243   7.668   3.714
76014W        W44419  15.077  20.449  12.408
76015W        W44420   5.626   5.483   0.206
76016W        W44421  14.372  18.150   3.325
76017W        W44422  30.639  29.012   0.456
76018W        W44423  34.463  37.200   2.655
76019W        W44424  35.105  11.701   1.036
76020W        W44425  37.753  33.310  12.472
76021W        W44426  28.463  42.974  10.704
76022W        W44427  33.136  34.666   0.722
76023W        W44428  20.592  23.443  14.020
76024W        W44429  43.255  32.401  11.134
76025W        W44430  11.455  16.781  10.708
76026W        W44431  39.278  31.027   4.293
76027W        W44432  26.432  39.067  11.525
76028W        W44433  33.004   9.614   0.452
76029W        W44434  11.479  32.084  14.094
76030W        W44435  39.296  42.538  14.453
76031W        W44436  31.367  27.159   1.989
76032W        W44437  22.232  19.500   2.872
76033W        W44438   6.842   3.769  12.893
76034W        W44439  32.638  17.869  14.929
76035W        W44440  35.081  43.910  11.743
76036W        W44441   8.868  27.624   1.746
76037W        W44442  13.849   5.914  14.868
76038W        W44443  17.782   2.771  13.636
76039W        W44444  29.196  34.682   4.694
76040W        W44445   9.747  35.354  11.600
76041W        W44446  29.398   5.918   1.560
76042W        W44447  16.124   4.419   1.457
76043W        W44448   7.276  27.189   1.043
76044W        W44449  13.551  12.043   1.401
76045W        W44450   0.231  41.414  13.491
76046W        W44451  10.701   3.440   3.447
76047W        W44452  42.117  10.946   0.504
76048W        W44453  37.052  29.378   0.769
76049W        W44454  25.463   0.516  11.238
76050W        W44455   1.751  17.214   2.717
76051W        W44456  13.752   0.375  12.161
76052W        W44457  28.742  36.838  13.347
76053W        W44458  25.771  13.014   4.392
76054W        W44459  39.944  33.132  11.787
76055W        W44460  44.384   7.122  12.132
76056W        W44461  41.955   4.145   1.181
76057W        W44462  32.477  20.843   2.367
76058W        W44463  43.916  21.773  14.399
76059W        W44464  34.359  18.549  11.575
76060W        W44465   4.305  25.064   0.904
76061W        W44466   6.451  21.504   2.383
76062W        W44467   6.332  16.137  11.206
76063W        W44468  24.638  34.753   1.751
76064W        W44469  20.410  27.575  13.063
76065W        W44470  31.588  36.864  14.480
76066W        W44471  18.046  20.764   4.287
76067W        W44472   4.474  18.906  11.566
76068W        W44473  27.797  33.070   2.754
76069W        W44474  26.029  28.464   4.907
76070W        W44475  32.429   0.478   3.980
76071W        W44476  16.365  36.456   2.866
76072W        W44477  37.997  16.202   3.808
76073W        W44478  38.400  19.072  11.366
76074W        W44479  20.007  40.364   4.623
76075W        W44480  19.740  16.628  10.546
76076W        W44481  36.244  36.452  10.728
76077W        W44482  19.916   1.783   4.790
76078W        W44483   7.345  35.292  11.169
76079W        W44484  18.361   6.368  13.497
76080W        W44485   1.823  10.657  12.088
76081W        W44486  27.341  27.566   1.512
76082W        W44487  21.020   0.518   2.339
76083W        W44488  22.335  21.925  10.561
76084W        W44489  34.077  12.400   3.599
76085W        W44490  19.109  10.662  14.227
76086W        W44491  44.201   4.410   0.962
76087W        W44492  15.318  42.212  11.753
76088W        W44493   0.131  15.295   2.766
76089W        W44494  42.048  13.211   0.496
76090W        W44495  42.141  37.904   0.772
76091W        W44496  25.118  19.041   1.240
76092W        W44497  13.772  20.243   1.838
76093W        W44498  10.180  18.666   2.227
76094W        W44499  34.498  11.101  12.394
76095W        W44500  35.427   7.485   4.072
76096W        W44501  14.868  42.306  11.163
76097W        W44502  34.290  30.640   1.741
76098W        W44503   4.996  44.424  11.211
76099W        W44504  15.815   2.487  12.371
76100W        W44505   7.335   5.978   4.158
76101W        W44506   3.817  16.006   2.285
76102W        W44507  42.318  43.871   0.414
76103W        W44508   6.684  13.880   0.542
76104W        W44509   5.183  30.468  11.172
76105W        W44510  27.264  30.093   0.844
76106W        W44511  40.360   6.806   2.412
76107W        W44512   7.611  40.926  14.879
76108W        W44513  23.678  29.959  11.945
76109W        W44514  35.128  21.556   2.566
76110W        W44515  41.952  34.482  10.718
76111W        W44516  17.062  36.064   4.123
76112W        W44517  22.254  35.117  14.708
76113W        W44518  24.004  11.633  11.525
76114W        W44519  44.271  28.893  14.529
76115W        W44520  27.698  30.523  11.480
76116W        W44521  44.000  29.700  12.374
76117W        W44522  26.421  38.971   4.029
76118W        W44523  30.850   1.426   4.180
76119W        W44524   8.713  18.594  12.390
76120W        W44525  22.172   9.446  13.340
76121W        W44526   0.772  10.199  13.319
76122W        W44527  14.113  31.470   2.913
76123W        W44528  40.824  18.666  12.553
76124W        W44529  26.936  23.965   2.140
76125W        W44530  16.992  15.527   1.223
76126W        W44531  40.133  34.500  11.325
76127W        W44532  24.624  33.903   2.309
76128W        W44533  43.418  42.417   4.661
76129W        W44534   5.875   3.269  12.064
76130W        W44535   7.436  30.813   0.010
76131W        W44536  39.136  15.802  11.108
76132W        W44537  31.530   0.227   4.044
76133W        W44538  31.855  21.938   3.131
76134W        W44539  20.335  42.326  14.801
76135W        W44540  17.877  40.070   2.833
76136W        W44541   1.206  13.039   0.254
76137W        W44542  42.229   9.683   1.446
76138W        W44543  16.265  31.338   2.218
76139W        W44544  10.602   3.887  14.906
76140W        W44545  33.046  12.307   0.480
76141W        W44546  12.383   0.155   2.104
76142W        W44547  18.654  29.343  12.713
76143W        W44548  27.627  20.202  14.292
76144W        W44549  20.433  37.503   0.869
76145W        W44550   6.739  25.193   4.609
76146W        W44551  39.503  35.102   0.698
76147W        W44552  16.819  21.270   2.251
76148W        W44553  39.050  31.869  10.839
76149W        W44554  11.890   0.855  14.977
76150W        W44555  15.314  25.490  11.433
76151W        W44556  10.687  14.003   0.160
76152W        W44557   3.974  31.012  12.935
76153W        W44558  33.475  21.496  12.630
76154W        W44559  29.925  32.972  10.571
76155W        W44560  35.112  32.236  13.844
76156W        W44561  44.436  32.148   2.747
76157W        W44562  37.351  13.925   4.198
76158W        W44563  27.538  25.747  14.370
76159W        W44564   1.976  23.135   0.714
76160W        W44565  25.660  33.344   4.649
76161W        W44566  36.348   5.194  10.542
76162W        W44567  19.130  13.143  12.180
76163W        W44568  23.564  28.287  10.641
76164W        W44569  41.811  36.876  12.973
76165W        W44570  22.683  23.421   1.443
76166W        W44571  16.553   7.324  12.067
76167W        W44572  18.455   4.869  13.683
76168W        W44573  30.244  28.737  12.340
76169W        W44574  20.211  14.385   1.764
76170W        W44575  27.547  10.883   1.793
76171W        W44576  30.994   2.799  11.452
76172W        W44577  42.552  34.003   3.666
76173W        W44578  32.593  16.520   0.275
76174W        W44579  13.649  21.146  13.934
76175W        W44580  19.252  37.936   0.382
76176W        W44581  28.172  18.822  10.471
76177W        W44582  25.165  25.745  13.345
76178W        W44583  40.548  33.840   2.412
76179W        W44584  11.739  34.037   4.085
76180W        W44585   2.551  40.175  13.355
76181W        W44586  27.705  25.140   4.146
76182W        W44587   4.764  16.271   2.673
76183W        W44588  29.948   7.894   3.802
76184W        W44589  37.885  40.106   4.470
76185W        W44590  33.241   6.840  12.455
76186W        W44591  30.237  23.713  14.562
76187W        W44592  26.113   1.981   1.233
76188W        W44593  27.111  34.374   4.202
76189W        W44594   0.089   0.983   0.972
76190W        W44595  44.181   7.692  11.580
76191W        W44596   9.849  22.276   0.441
76192W        W44597   8.708  34.523  14.547
76193W        W44598  23.838  34.306  14.923
76194W        W44599  27.729   4.766   0.992
76195W        W44600  16.712  37.338  11.000
76196W        W44601  21.671  38.238   3.734
76197W        W44602  40.287  13.613   3.771
76198W        W44603  30.750  14.308   5.105
76199W        W44604  15.671   0.807   2.030
76200W        W44605   4.045  35.132  13.511
76201W        W44606   6.094  20.110   1.215
76202W        W44607  18.703  32.932  12.489
76203W        W44608  20.092  44.459  14.416
76204W        W44609  28.387  38.857   0.962
76205W        W44610  28.595  37.023   0.259
76206W        W44611  23.026  42.456   2.688
76207W        W44612  14.372  24.574  10.936
76208W        W44613  21.925  26.599   2.012
76209W        W44614  31.874  12.829   3.254
76210W        W44615  12.103  37.286   1.692
76211W        W44616  17.593  16.763  11.617
76212W        W44617  15.065  25.680  13.326
76213W        W44618  28.610  30.298  11.123
76214W        W44619   6.672   4.405  12.165
76215W        W44620  27.798  44.076   0.347
76216W        W44621  10.097   9.860   2.046
76217W        W44622   9.670  29.007  14.293
76218W        W44623  10.610  21.957   1.953
76219W        W44624  35.091  10.279  12.422
76220W        W44625   6.085  19.154   0.825
76221W        W44626  24.057  35.460   3.670
76222W        W44627  19.141  36.094   2.730
76223W        W44628  39.724  22.548   2.875
76224W        W44629  15.494  25.232  11.037
76225W        W44630  17.205  44.186   4.054
76226W        W44631  30.929  38.673   2.708
76227W        W44632  18.637  31.570   1.762
76228W        W44633  25.289  32.167   0.331
76229W        W44634  43.470  12.829  10.407
76230W        W44635  18.632   2.274   4.130
76231W        W44636  33.395  22.380  10.219
76232W        W44637  18.640   5.919  12.433
76233W        W44638  24.724  36.598   2.668
76234W        W44639  39.178   6.793   9.804
76235W        W44640  32.953  17.732  10.996
76236W        W44641   5.463   7.235  13.063
76237W        W44642  20.339   4.748  14.852
76238W        W44643  28.589  43.004   2.404
76239W        W44644  12.776   1.978   1.784
76240W        W44645  29.528  25.433   2.335
76241W        W44646   6.450  26.788  12.353
76242W        W44647  41.040  40.322   2.204
76243W        W44648  43.100   5.381  14.235
76244W        W44649  28.105  35.811   2.253
76245W        W44650  10.883  22.014   4.550
76246W        W44651  17.378  27.211  13.465
76247W        W44652  32.990  24.998  11.626
76248W        W44653   2.191  37.865   1.888
76249W        W44654   3.192  17.197  11.214
76250W        W44655  31.112  41.236   2.647
76251W        W44656  31.354  16.828   3.739
76252W        W44657   0.799  22.525   0.331
76253W        W44658  34.956  31.368   2.801
76254W        W44659  32.665  31.411  11.142
76255W        W44660  37.047   9.632   1.792
76256W        W44661  41.527   0.426   1.352
76257W        W44662   5.569  35.695  12.284
76258W        W44663  27.187   2.179  14.638
76259W        W44664  35.955   5.948  14.833
76260W        W44665   8.977  13.100   4.301
76261W        W44666  35.660  40.667  10.612
76262W        W44667   0.685  19.364   5.080
76263W        W44668   8.661  27.095  13.365
76264W        W44669  27.514  11.386  14.957
76265W        W44670  20.704   1.380  13.488
76266W        W44671  17.247  10.754  12.304
76267W        W44672  39.896  22.810   2.130
76268W        W44673  27.756  26.589  10.441
76269W        W44674  16.433  32.110  11.585
76270W        W44675  24.530  17.263   1.708
76271W        W44676  15.729  42.033  14.693
76272W        W44677  29.699  19.774   4.179
76273W        W44678  30.865  26.388   2.923
76274W        W44679   0.916  37.404   5.143
76275W        W44680  26.624  25.730   3.124
76276W        W44681  43.799  19.245   3.332
76277W        W44682  30.279  41.975  14.450
76278W        W44683  25.039  28.048   0.466
76279W        W44684  29.557  16.778  14.360
76280W        W44685  21.738   8.709   2.226
76281W        W44686  37.845  22.817  13.838
76282W        W44687   4.261  41.850  14.782
76283W        W44688  26.718  23.684  14.781
76284W        W44689   5.825  33.184  13.331
76285W        W44690   9.624  42.980  11.460
76286W        W44691  40.279  35.625   2.759
76287W        W44692  12.692   8.143  11.672
76288W        W44693  35.107  32.665   3.609
76289W        W44694  44.698  16.722   4.397
76290W        W44695   8.180  42.291  10.748
76291W        W44696  32.685  39.919  14.296
76292W        W44697   7.408  17.669  14.066
76293W        W44698  25.074  41.550  13.755
76294W        W44699  22.652   8.871   0.008
76295W        W44700  38.739  39.596   2.684
76296W        W44701  41.444  24.695   1.215
76297W        W44702  31.428  22.211   1.316
76298W        W44703  24.520  19.059   1.007
76299W        W44704  26.369   9.435   4.274
76300W        W44705   0.307  40.093   3.604
76301W        W44706   7.389  19.833  12.461
76302W        W44707  18.305  41.626  11.780
76303W        W44708  25.002   1.475  11.903
76304W        W44709  25.721  37.466  13.141
76305W        W44710  32.570  39.115  13.878
76306W        W44711  15.622  39.808   0.399
76307W        W44712  31.924  31.908   4.458
76308W        W44713  42.290   3.159   1.655
76309W        W44714  41.431  17.835   2.089
76310W        W44715  40.941  21.652   0.059
76311W        W44716  34.834  39.782   0.406
76312W        W44717  32.435  15.892  13.955
76313W        W44718  27.156  10.590  14.889
76314W        W44719   6.886   5.919  14.508
76315W        W44720   0.970  18.661   1.399
76316W        W44721  25.408  10.901   0.159
76317W        W44722  32.898   2.213   1.764
76318W        W44723   6.469  38.655  14.907
76319W        W44724  29.164  26.229  12.467
76320W        W44725  28.015  12.565   4.044
76321W        W44726  34.681   4.498  13.766
76322W        W44727  22.868  18.578  12.165
76323W        W44728  29.677  44.845  11.520
76324W        W44729  18.543  32.338   2.369
76325W        W44730  23.066  12.269  12.703
76326W        W44731  21.510  33.967   2.243
76327W        W44732  34.627  44.241  11.505
76328W        W44733   6.302  38.969   4.068
76329W        W44734   2.303  37.337  12.963
76330W        W44735  31.927  32.002  13.351
76331W        W44736  15.250  14.086   0.673
76332W        W44737   2.804  19.992  12.869
76333W        W44738   3.247   8.418  13.486
76334W        W44739  26.722  11.902   0.002
76335W        W44740  23.255  14.371  12.067
76336W        W44741  42.771  23.258  11.588
76337W        W44742  31.385  34.989   3.570
76338W        W44743   4.389  29.121  10.716
76339W        W44744   8.135  24.524   1.319
76340W        W44745  41.469  32.541   4.656
76341W        W44746  13.283  39.469  12.669
76342W        W44747  37.045  39.001   2.298
76343W        W44748  35.099  30.716   3.597
76344W        W44749  31.100  44.907   0.183
76345W        W44750   0.719  40.978   0.223
76346W        W44751  31.547  13.227   4.478
76347W        W44752  40.099  14.879   0.310
76348W        W44753  26.964  15.842   0.242
76349W        W44754  40.000  17.590  10.640
76350W        W44755  28.760   7.102  14.286
76351W        W44756  19.010  18.356   3.199
76352W        W44757  44.336  26.480  11.997
76353W        W44758  29.474  15.530  14.450
76354W        W44759  15.419   6.368   4.319
76355W        W44760  15.140  31.546  13.372
76356W        W44761  43.882  12.751  13.537
76357W        W44762  17.501  26.242  14.496
76358W        W44763  36.791  44.904  11.973
76359W        W44764   7.139  11.906   3.237
76360W        W44765  34.854   6.503   2.254
76361W        W44766  28.980  16.120  13.934
76362W        W44767  12.156   3.273  11.135
76363W        W44768   7.427   3.495   0.270
76364W        W44769  24.406   9.218  12.967
76365W        W44770   6.411  34.414  14.489
76366W        W44771  37.402  31.165  11.880
76367W        W44772  15.859  13.309  13.495
76368W        W44773  39.784  43.544   2.800
76369W        W44774   5.827  16.305  11.214
76370W        W44775  31.701   9.317   3.339
76371W        W44776   2.975  12.830   0.421
76372W        W44777  21.065  17.576   4.514
76373W        W44778  22.532  14.657  13.786
76374W        W44779   4.838  29.392  12.964
76375W        W44780  44.011  41.195  10.763
76376W        W44781  19.467  26.879   4.330
76377W        W44782  28.628   1.400  11.721
76378W        W44783  29.973  32.024  12.960
76379W        W44784   2.169  15.369   0.799
76380W        W44785  25.055   6.180  12.520
76381W        W44786  13.576  24.494  10.471
76382W        W44787  36.870  37.612  12.048
76383W        W44788  41.266  39.809   0.254
76384W        W44789   1.417  43.748  11.075
76385W        W44790  26.931  21.205   2.696
76386W        W44791   9.940   3.228   1.373
76387W        W44792  33.240   3.884  14.792
76388W        W44793   4.966  11.380   2.290
76389W        W44794  17.488  12.418   0.212
76390W        W44795  33.128   2.642   4.176
76391W        W44796  44.795  41.796   3.668
76392W        W44797  44.650  18.429  14.363
76393W        W44798   1.443  40.408  11.608
76394W        W44799   0.952  39.603   2.590
76395W        W44800   5.866  24.279  13.057
76396W        W44801  13.448   3.848  12.846
76397W        W44802  29.013  36.877   4.036
76398W        W44803  20.582  16.702   1.637
76399W        W44804  34.414  17.030   2.808
76400W        W44805   6.911  29.040  10.238
76401W        W44806   1.688  36.973  10.697
76402W        W44807  27.615   8.247   4.368
76403W        W44808  21.242  16.084   1.767
76404W        W44809  41.255  24.940   4.652
76405W        W44810  20.780  24.314  13.367
76406W        W44811  10.633  27.524  14.358
76407W        W44812  16.108  32.387   2.282
76408W        W44813   6.499  30.750   3.268
76409W        W44814   0.522  11.638   0.088
76410W        W44815  26.630  19.156   4.645
76411W        W44816   8.698  15.107   1.359
76412W        W44817   3.360  32.343  13.141
76413W        W44818  41.081  17.375   0.731
76414W        W44819   8.480  31.385  12.388
76415W        W44820  26.575   6.717  14.688
76416W        W44821   0.289  22.700   0.398
76417W        W44822  15.569  39.490   1.404
76418W        W44823  12.355   4.766   3.805
76419W        W44824  32.697  16.354  13.923
76420W        W44825  23.900  20.776   0.323
76421W        W44826  20.378   6.290  11.644
76422W        W44827  29.606   8.183   1.351
76423W        W44828   1.361   0.387  13.297
76424W        W44829  23.637  14.479   2.237
76425W        W44830  23.463  11.762  10.704
76426W        W44831  14.766  11.135  13.978
76427W        W44832  43.037  14.232   4.752
76428W        W44833   3.269   9.841  13.579
76429W        W44834  29.235  11.804   0.727
76430W        W44835  13.090  10.398   2.822
76431W        W44836  23.106  35.433  12.570
76432W        W44837  39.984  12.658   0.023
76433W        W44838   5.941  22.561   4.565
76434W        W44839   7.210  27.250   2.384
76435W        W44840  31.876  28.578   4.954
76436W        W44841  18.586   6.170   3.616
76437W        W44842  40.791  29.542  12.995
76438W        W44843  10.331  34.857   3.568
76439W        W44844  28.172  42.510   1.059
76440W        W44845   9.448  21.047  13.091
76441W        W44846  33.083  20.280   1.915
76442W        W44847  26.073  18.018   3.802
76443W        W44848  37.769  38.252  11.665
76444W        W44849  43.216  19.352   4.812
76445W        W44850  27.717  11.702   0.742
76446W        W44851  21.458  10.388   2.142
76447W        W44852  38.169   1.186  14.273
76448W        W44853  42.481  33.747  12.132
76449W        W44854  20.727  33.961  13.949
76450W        W44855   2.312  30.676   4.167
76451W        W44856  43.861  16.253   3.350
76452W        W44857  36.271   4.265   4.376
76453W        W44858  37.116   0.105  11.593
76454W        W44859   2.854  37.862   0.420
76455W        W44860  32.912  15.794   1.422
76456W        W44861   0.691  42.676  10.317
76457W        W44862  24.030  21.856  13.860
76458W        W44863  34.616  31.444   2.379
76459W        W44864  40.418  25.379   0.725
76460W        W44865  13.847  14.243  10.635
76461W        W44866  15.130   7.308  10.717
76462W        W44867  39.485  37.288  14.794
76463W        W44868   5.777  13.389  11.866
76464W        W44869  30.049  28.735   3.662
76465W        W44870   5.859  23.990  13.501
76466W        W44871  42.469  28.263  13.822
76467W        W44872  41.969  17.544  14.749
76468W        W44873  11.455  21.315   4.239
76469W        W44874  30.015  20.666   0.376
76470W        W44875  42.300  40.608   4.175
76471W        W44876  39.526   3.723   0.291
76472W        W44877   2.829   4.231  13.955
76473W        W44878  44.397   9.140   1.491
76474W        W44879   8.829  22.215  13.116
76475W        W44880  12.710  34.217  13.063
76476W        W44881  44.452   4.903  11.973
76477W        W44882  20.475  33.530   2.321
76478W        W44883  21.957  35.985   1.739
76479W        W44884  26.064  10.795   3.447
76480W        W44885   6.135   5.928   2.743
76481W        W44886  14.160   7.307  10.761
76482W        W44887  25.564   2.590   0.797
76483W        W44888  25.274  25.113   1.804
76484W        W44889  28.311  36.930   2.803
76485W        W44890  36.265  19.678  12.566
76486W        W44891  39.964  27.436   0.451
76487W        W44892  34.173  22.344   3.385
76488W        W44893  14.603  10.571  11.601
76489W        W44894   9.176  30.233  10.414
76490W        W44895  37.866  27.102   0.992
76491W        W44896  10.861  16.185   0.812
76492W        W44897  30.014  31.924   2.160
76493W        W44898  23.086  41.669   2.496
76494W        W44899   2.379  17.888   5.155
76495W        W44900  26.133  37.352   3.224
76496W        W44901  21.439  38.314  13.029
76497W        W44902  23.715  20.090  10.574
76498W        W44903  29.038  13.333  12.455
76499W        W44904  19.633  16.141  10.730
76500W        W44905   1.807   5.906   3.658
76501W        W44906  43.317   6.291   3.650
76502W        W44907  19.395  16.585  10.938
76503W        W44908  24.276  40.814  12.663
76504W        W44909  32.585  22.115   0.958
76505W        W44910  14.093  20.808   2.712
76506W        W44911   1.997  35.856   3.161
76507W        W44912  26.018  19.670   4.545
76508W        W44913  28.619   4.326  13.320
76509W        W44914  24.143  14.223  14.632
76510W        W44915  26.077  31.451  12.295
76511W        W44916  18.041  17.477  11.205
76512W        W44917   8.866  20.478   3.755
76513W        W44918   6.346  26.173   2.746
76514W        W44919   3.282  31.458   4.080
76515W        W44920  43.147   5.990  12.413
76516W        W44921  20.637   5.857  10.891
76517W        W44922  44.313  29.771   1.204
76518W        W44923   6.261  41.804   4.168
76519W        W44924  32.486  23.040   0.904
76520W        W44925  14.367   6.792   2.804
76521W        W44926   4.150  32.392   2.126
76522W        W44927  38.969  11.338  10.647
76523W        W44928  13.747  21.160   1.777
76524W        W44929  42.782  33.061   1.764
76525W        W44930   4.182   6.663   1.249
76526W        W44931   1.716   1.233  11.943
76527W        W44932  34.176  23.626   2.350
76528W        W44933  25.090   2.969  10.833
76529W        W44934  18.115  26.631   2.804
76530W        W44935   2.486   9.772   9.709
76531W        W44936  42.839  15.878   2.299
76532W        W44937  23.981  12.462   3.954
76533W        W44938  26.938   5.908   2.866
76534W        W44939   0.674  10.377   0.489
76535W        W44940  38.530  29.036  11.412
76536W        W44941  18.668  34.491   2.949
76537W        W44942  25.525  27.967  14.894
76538W        W44943  44.216   7.053  13.070
76539W        W44944  35.525   2.987  11.110
76540W        W44945   3.143  44.274   1.295
76541W        W44946  25.610  18.065  13.907
76542W        W44947  19.492  30.228  10.750
76543W        W44948   7.918  26.586  11.645
76544W        W44949   0.853   4.167  14.997
76545W        W44950  29.968  20.793  12.899
76546W        W44951  33.953  44.410   3.298
76547W        W44952  37.425  40.757  13.540
76548W        W44953  28.653   1.503  13.929
76549W        W44954  40.273  11.829  13.984
76550W        W44955  39.410  23.346   2.296
76551W        W44956  25.114  23.985  12.834
76552W        W44957   6.590  14.115  10.878
76553W        W44958  12.255  24.926   4.258
76554W        W44959   9.636  39.876  14.034
76555W        W44960  44.590  42.936   3.285
76556W        W44961  44.588  16.363   0.788
76557W        W44962  25.978  31.430   4.150
76558W        W44963   7.738  29.468  14.563
76559W        W44964  22.313  26.188  11.538
76560W        W44965  13.218  14.658  14.955
76561W        W44966   7.507  18.542   2.247
76562W        W44967  16.314  23.469  13.477
76563W        W44968  41.491  18.716  14.305
76564W        W44969   9.214  27.509   2.156
76565W        W44970  34.965  39.371   4.536
76566W        W44971   4.865   2.280   3.154
76567W        W44972  18.984   9.086   4.323
76568W        W44973  28.220  22.286  13.059
76569W        W44974  22.541  12.122   4.808
76570W        W44975   9.905   2.525   3.690
76571W        W44976  12.417  14.313  12.152
76572W        W44977  36.337  32.122   3.704
76573W        W44978  21.090  29.245   3.196
76574W        W44979  27.247   2.906  12.685
76575W        W44980  18.775  28.747   0.610
76576W        W44981   2.286  44.203  11.403
76577W        W44982  22.550  44.869  11.973
76578W        W44983   3.615   8.051  13.685
76579W        W44984  38.778  39.271  13.002
76580W        W44985   4.528  14.205   1.107
76581W        W44986  23.954  35.772  14.890
76582W        W44987  39.761  13.902  11.440
76583W        W44988  10.985  39.146  13.494
76584W        W44989   1.239  29.175  11.202
76585W        W44990  14.134  22.275   1.843
76586W        W44991  40.391   3.896   2.916
76587W        W44992   7.812   6.390   1.148
76588W        W44993   4.503  10.878   4.549
76589W        W44994  35.924   9.717   4.937
76590W        W44995  33.843   7.178   3.097
76591W        W44996  14.655  32.904  12.790
76592W        W44997   5.755  27.727   1.357
76593W        W44998  15.818  12.857  10.632
76594W        W44999  23.081  34.574   2.736
76595W        W45000   9.969  12.161   4.257
76596W        W45001  40.420  15.644   2.960
76597W        W45002  13.092  21.505   2.174
76598W        W45003  23.472  15.808   0.985
76599W        W45004   0.398  41.002  10.832
76600W        W45005  40.591  33.061   2.268
76601W        W45006   4.946   4.896  13.141
76602W        W45007   1.341  25.670  11.436
76603W        W45008  30.526  36.283   4.993
76604W        W45009  29.164  42.921   4.191
76605W        W45010  19.066   2.356   1.923
76606W        W45011   1.466  20.872   1.965
76607W        W45012  10.141  41.515   2.728
76608W        W45013  12.238  26.637   0.330
76609W        W45014  36.978  33.490   2.168
76610W        W45015  21.165   1.212  13.822
76611W        W45016  39.841  42.550   3.637
76612W        W45017  13.931  21.209  12.239
76613W        W45018  39.569  34.551   3.230
76614W        W45019  19.071   2.882  12.491
76615W        W45020  40.474   6.597  13.045
76616W        W45021  28.207  44.056   4.676
76617W        W45022   0.597   0.450   0.506
76618W        W45023   9.382  23.036   1.609
76619W        W45024  25.857  11.271   3.235
76620W        W45025  35.866   9.938   1.469
76621W        W45026  37.898  14.143   4.589
76622W        W45027  21.546   5.383   3.774
76623W        W45028   2.725  27.557   0.272
76624W        W45029  42.965  37.012   3.345
76625W        W45030  44.084  10.446  12.899
76626W        W45031   0.356  35.223   3.923
76627W        W45032  27.083  39.054  14.511
76628W        W45033  18.228   1.902  13.014
76629W        W45034   9.163  19.076   0.806
76630W        W45035   8.421  10.808  12.703
76631W        W45036  22.130  39.765  14.426
76632W        W45037  43.852  41.759   4.308
76633W        W45038  37.494   7.004   3.756
76634W        W45039   6.943  11.258   1.826
76635W        W45040  39.052  22.731   4.554
76636W        W45041   5.348   2.819   4.213
76637W        W45042  14.966   9.623  13.030
76638W        W45043  35.373   9.484   3.098
76639W        W45044   7.971  24.873   2.970
76640W        W45045  20.021   7.932   1.930
76641W        W45046  31.595   2.798   1.766
76642W        W45047  40.061  30.539  11.605
76643W        W45048  20.218  26.497  10.708
76644W        W45049  44.150  26.766   0.788
76645W        W45050  32.617  18.527  10.563
76646W        W45051  40.123  42.665   1.945
76647W        W45052  44.342  28.610  12.960
76648W        W45053  15.866  16.839  12.010
76649W        W45054  31.681   8.363  12.557
76650W        W45055   8.174  38.927   2.052
76651W        W45056  28.972   0.774  13.141
76652W        W45057  17.134  13.088   3.241
76653W        W45058   1.278  23.426   0.668
76654W        W45059   5.856  30.251  13.474
76655W        W45060  16.095  23.925  13.505
76656W        W45061   8.134  24.203   3.850
76657W        W45062  36.855  22.769  14.317
76658W        W45063  29.496   2.001   5.194
76659W        W45064  35.903  34.666   1.578
76660W        W45065   8.444  42.425  14.332
76661W        W45066  23.857   9.179   4.559
76662W        W45067  31.023   1.375   4.670
76663W        W45068  33.431  15.147  10.668
76664W        W45069   3.800  34.973  13.973
76665W        W45070  38.314  29.697  10.909
76666W        W45071  28.926  42.746  13.972
76667W        W45072  29.093  20.866  13.386
76668W        W45073  44.890  41.843  11.645
76669W        W45074   6.965  22.407  11.679
76670W        W45075   4.911  43.689   3.053
76671W        W45076  23.627  40.344  14.431
76672W        W45077   1.014  20.719   3.229
76673W        W45078  40.775  15.230  13.377
76674W        W45079   2.232   3.028   4.728
76675W        W45080  25.034  42.688   4.079
76676W        W45081  43.797   7.370  12.839
76677W        W45082  42.897  22.046  14.573
76678W        W45083   3.865  16.669  11.595
76679W        W45084  27.940  41.263  12.362
76680W        W45085  30.209  35.448   1.650
76681W        W45086  13.111  27.868  13.994
76682W        W45087  19.273  23.718  12.424
76683W        W45088  43.641   6.972   2.276
76684W        W45089  42.825  39.193   2.813
76685W        W45090  29.666  36.584  11.195
76686W        W45091  40.747  33.719  13.548
76687W        W45092  30.570   4.676   3.322
76688W        W45093  34.401  36.383  13.581
76689W        W45094  21.234   2.653  13.457
76690W        W45095  31.995  43.517   0.627
76691W        W45096  25.992  32.425  12.548
76692W        W45097   1.414  13.875   0.883
76693W        W45098  24.503  36.107  10.603
76694W        W45099  23.967  27.436   4.249
76695W        W45100  32.714   7.131  10.395
76696W        W45101  14.605  18.594   4.249
76697W        W45102  11.256   3.021  14.999
76698W        W45103  14.245  34.122   3.750
76699W        W45104  24.263   0.051   3.663
76700W        W45105  41.819  17.390   3.347
76701W        W45106  41.398  25.015  13.452
76702W        W45107   2.223  22.824  12.867
76703W        W45108  19.073  14.612  11.425
76704W        W45109  39.390  25.485  14.928
76705W        W45110  20.460  24.252   3.151
76706W        W45111  20.539   6.878   1.203
76707W        W45112  13.387  40.573   1.620
76708W        W45113  27.028  35.060   2.218
76709W        W45114   2.256  28.446   3.658
76710W        W45115  17.491   5.331   0.119
76711W        W45116  29.437   2.372   1.436
76712W        W45117  21.294   9.420  14.997
76713W        W45118  10.091   4.544   3.658
76714W        W45119  36.875  20.872   4.058
76715W        W45120  41.884  31.494   4.039
76716W        W45121  16.816  12.900  11.595
76717W        W45122  11.097  44.343   3.157
76718W        W45123  31.423  35.397  11.699
76719W        W45124   8.934  39.707  12.878
76720W        W45125  39.607  18.351  14.496
76721W        W45126  16.057  20.010  10.667
76722W        W45127   8.551  14.813   3.265
76723W        W45128  42.495  10.117  12.013
76724W        W45129  31.412  40.986  13.591
76725W        W45130  29.358  34.453   2.799
76726W        W45131  11.574  25.618  10.674
76727W        W45132  44.263  24.667  10.789
76728W        W45133   8.995  43.707   3.506
76729W        W45134  20.811  35.631  13.913
76730W        W45135  34.160  21.138  11.002
76731W        W45136  33.679  42.787   1.714
76732W        W45137  13.845  42.538  14.964
76733W        W45138  31.893  35.454   2.767
76734W        W45139  23.263  21.229   0.900
76735W        W45140  41.118  33.988  14.253
76736W        W45141  14.318  11.241  13.707
76737W        W45142  16.119  33.792  14.358
76738W        W45143   5.506  11.581  14.591
76739W        W45144  33.162  40.794  10.714
76740W        W45145  43.931   0.372  14.251
76741W        W45146  23.174  24.206   2.294
76742W        W45147  14.946  32.955   3.548
76743W        W45148  29.906  39.908   2.308
76744W        W45149  20.795   8.289   4.625
76745W        W45150   7.110  41.504   0.611
76746W        W45151   6.870   6.190   4.005
76747W        W45152  42.233  16.332   4.301
76748W        W45153  21.186  42.880  13.537
76749W        W45154  16.185  40.506  12.562
76750W        W45155   7.106  14.343   4.771
76751W        W45156   1.357   4.956  12.154
76752W        W45157  44.606  24.032  12.074
76753W        W45158  13.905  27.355   4.188
76754W        W45159   2.932  26.961   4.476
76755W        W45160  24.621   5.386  10.619
76756W        W45161  44.135   0.034  11.286
76757W        W45162  14.690   0.946   3.633
76758W        W45163   5.325   8.305  10.234
76759W        W45164  35.378  11.839   3.580
76760W        W45165  16.543  34.154   0.639
76761W        W45166  38.138   8.591  11.040
76762W        W45167  44.953  32.816   2.321
76763W        W45168   8.293  21.256   0.315
76764W        W45169  20.265  38.874   1.789
76765W        W45170  36.412   3.869  10.807
76766W        W45171   1.941  44.682   0.765
76767W        W45172   3.453   0.077  12.408
76768W        W45173   6.800  27.231   0.814
76769W        W45174  11.885  20.215   0.713
76770W        W45175  39.453  34.704  14.307
76771W        W45176  39.935  40.925   2.205
76772W        W45177  43.306   9.794  11.550
76773W        W45178  35.326  12.596  14.910
76774W        W45179   5.459  34.453  11.948
76775W        W45180  43.989   6.326  12.032
76776W        W45181  30.507  32.434  14.032
76777W        W45182  41.031  31.788  12.907
76778W        W45183  29.588  30.397  11.196
76779W        W45184   6.655  30.631   1.806
76780W        W45185   7.053   3.241   2.864
76781W        W45186  44.189  13.297   2.846
76782W        W45187  26.488  30.912   1.209
76783W        W45188  26.429  32.918   4.526
76784W        W45189  10.063  39.509  13.313
76785W        W45190  40.906   7.499   2.382
76786W        W45191  14.084  26.439  14.460
76787W        W45192  42.942  36.650  10.436
76788W        W45193  25.504  33.538   3.716
76789W        W45194  26.246  10.742  10.773
76790W        W45195   9.717  27.112  13.556
76791W        W45196  15.718  13.147   4.512
76792W        W45197   8.865  27.573  12.654
76793W        W45198  12.773   8.524   3.165
76794W        W45199  21.207  21.976  11.703
76795W        W45200  31.032  20.171   2.463
76796W        W45201  43.542  36.636  12.416
76797W        W45202  27.974  41.567  14.326
76798W        W45203  32.015   9.485   4.714
76799W        W45204   4.302  33.822   3.141
76800W        W45205   7.692  11.364   3.515
76801W        W45206  34.160  20.516  13.918
76802W        W45207  10.921  14.594  13.750
76803W        W45208  28.375  21.760  11.538
76804W        W45209  44.666   4.663   0.113
76805W        W45210  35.900  44.022  12.620
76806W        W45211   4.597  31.585  13.246
76807W        W45212  27.076  18.913  14.389
76808W        W45213  14.754  25.476   1.739
76809W        W45214   3.251  18.620  13.116
76810W        W45215  22.924  19.132   3.257
76811W        W45216  31.903  30.028   2.241
76812W        W45217  23.256  18.263  11.246
76813W        W45218   3.444  43.463   1.708
76814W        W45219   8.868  36.904   3.615
76815W        W45220  27.643  12.137   1.378
76816W        W45221  11.169   9.695  12.876
76817W        W45222   8.278  13.821   5.060
76818W        W45223   6.090  38.479   4.046
76819W        W45224  12.825   0.738  13.986
76820W        W45225  11.237  12.818   3.645
76821W        W45226  27.955  33.904   4.272
76822W        W45227  18.255  19.852   1.331
76823W        W45228   9.842  43.247  12.681
76824W        W45229  16.599  25.730  12.564
76825W        W45230  12.339   2.534  12.604
76826W        W45231  32.335  26.468   2.686
76827W        W45232   2.379  27.460  10.615
76828W        W45233  41.726  18.201  13.514
76829W        W45234   8.095   5.695  13.010
76830W        W45235   5.207   9.373  11.158
76831W        W45236  40.495  13.101  11.172
76832W        W45237  29.840  40.511  12.455
76833W        W45238  37.782  19.164   2.158
76834W        W45239  15.071  13.761  10.660
76835W        W45240  44.258   7.407  13.974
76836W        W45241  33.435   5.346   0.862
76837W        W45242  38.864  25.705  12.570
76838W        W45243  29.993  35.037   3.740
76839W        W45244   9.746  24.586   4.451
76840W        W45245  35.314  44.291   1.703
76841W        W45246  26.651   7.552  14.004
76842W        W45247  40.916  39.466   0.024
76843W        W45248  17.599   1.919   4.152
76844W        W45249  14.837  19.334  10.164
76845W        W45250  13.029  29.468   0.327
76846W        W45251  35.532  44.841  14.677
76847W        W45252  20.741  16.198   1.747
76848W        W45253  32.002   5.213   4.339
76849W        W45254  44.950  13.603   1.405
76850W        W45255  16.948  34.085   4.524
76851W        W45256   8.336   7.846  11.698
76852W        W45257  30.549  11.293  14.781
76853W        W45258   5.181  34.012   1.230
76854W        W45259  26.232  19.806   0.520
76855W        W45260  42.185  36.549   4.801
76856W        W45261  22.915  36.370   0.267
76857W        W45262   6.367  37.124   4.307
76858W        W45263  17.802   3.448   3.341
76859W        W45264  16.052  23.175  12.069
76860W        W45265  32.095  17.308  13.835
76861W        W45266  38.788  28.852  10.739
76862W        W45267  37.353  32.091  14.968
76863W        W45268   2.310  36.707   1.841
76864W        W45269  35.869  36.885  12.649
76865W        W45270  29.183  36.537  12.633
76866W        W45271  25.613  21.542  14.750
76867W        W45272  38.076  16.793  11.950
76868W        W45273   5.722  13.582  12.861
76869W        W45274  13.133  36.104  12.454
76870W        W45275  30.576  43.408  14.351
76871W        W45276   7.169   6.381   0.330
76872W        W45277  31.062  32.115   2.372
76873W        W45278  18.782  17.786   4.698
76874W        W45279   1.291   2.177  13.505
76875W        W45280  15.779  42.680  10.690
76876W        W45281  16.343  39.376   0.801
76877W        W45282  39.410   5.227  13.764
76878W        W45283   4.420   6.185  13.464
76879W        W45284  35.261   6.885  13.819
76880W        W45285  14.277  11.848   4.316
76881W        W45286  40.750   1.120  12.246
76882W        W45287  34.652   0.193  12.476
76883W        W45288  14.888  31.971  14.022
76884W        W45289  36.642   3.116   2.422
76885W        W45290  25.536  18.078  14.799
76886W        W45291  32.885   6.244   2.350
76887W        W45292  15.363  34.631  12.669
76888W        W45293  44.501  32.004  11.288
76889W        W45294  24.974  24.300   4.468
76890W        W45295  35.011   2.982   4.182
76891W        W45296  35.785  29.084   2.356
76892W        W45297   0.940  10.000  13.780
76893W        W45298  13.122  19.085   1.288
76894W        W45299  33.069  20.958  13.045
76895W        W45300  16.999  19.734   3.594
76896W        W45301  14.957  43.139   2.398
76897W        W45302  44.284  28.189   0.933
76898W        W45303  19.034  11.623  14.437
76899W        W45304  33.755  34.984  12.629
76900W        W45305  25.512  31.568   2.666
76901W        W45306   8.460  29.586   1.523
76902W        W45307  30.637   8.385   2.917
76903W        W45308   4.215  32.154   1.653
76904W        W45309  23.931  20.535  11.467
76905W        W45310  13.158  16.273  12.321
76906W        W45311   5.982  28.408  13.094
76907W        W45312  41.795  12.718  11.372
76908W        W45313  12.467  26.440   4.551
76909W        W45314  25.435  13.440   3.247
76910W        W45315  14.451  28.348  12.569
76911W        W45316  32.226  43.429   2.884
76912W        W45317  11.043  18.151  11.875
76913W        W45318  23.095  39.296   2.703
76914W        W45319  13.673  34.476  13.087
76915W        W45320  23.805   7.723   3.705
76916W        W45321  28.436  35.983   4.293
76917W        W45322  30.064  18.256   5.224
76918W        W45323  15.063  35.601   3.643
76919W        W45324  20.031  15.806  12.408
76920W        W45325  18.156  18.662   4.709
76921W        W45326  44.788  22.217   0.921
76922W        W45327  24.424  42.890   0.980
76923W        W45328  34.897  43.077   4.593
76924W        W45329   3.415   6.766   3.856
76925W        W45330  40.164  39.319  10.746
76926W        W45331  31.132  24.750  11.162
76927W        W45332   2.533  36.000   0.332
76928W        W45333  25.599  12.598   3.217
76929W        W45334  39.578  19.749   4.667
76930W        W45335  34.487  18.637   1.739
76931W        W45336  13.685   7.111  12.446
76932W        W45337   6.751   3.984  14.822
76933W        W45338   1.401   5.812   4.288
76934W        W45339  12.425  21.076   3.207
76935W        W45340  43.975  23.177   4.147
76936W        W45341  29.044   2.986   1.898
76937W        W45342  22.149   9.762  14.108
76938W        W45343  33.612  10.577  11.085
76939W        W45344  14.563   8.123   3.110
76940W        W45345  25.252  11.665   3.664
76941W        W45346  40.295  41.342   2.254
76942W        W45347  26.094  10.264   2.218
76943W        W45348   9.783  25.049   4.109
76944W        W45349  14.469  24.490   4.720
76945W        W45350  44.993  35.441  14.741
76946W        W45351  24.055   4.895   1.638
76947W        W45352  41.944  19.888   1.800
76948W        W45353   5.704  21.828  11.981
76949W        W45354  14.319  11.778   2.824
76950W        W45355  39.810   5.533   0.868
76951W        W45356   9.081  30.167  10.926
76952W        W45357  16.152  26.469  12.296
76953W        W45358  37.310  19.946   2.279
76954W        W45359   0.775  25.628  12.955
76955W        W45360  12.838   7.737  11.409
76956W        W45361  25.289  40.941  14.937
76957W        W45362  40.761  23.254   0.438
76958W        W45363   5.525  18.301   2.797
76959W        W45364   8.186   7.691  12.671
76960W        W45365   9.750  24.260  14.258
76961W        W45366  18.837  33.072  14.977
76962W        W45367   8.969  28.075   2.810
76963W        W45368  32.878  10.885   2.857
76964W        W45369  38.815  27.832   4.126
76965W        W45370  17.388  16.801   2.179
76966W        W45371   5.698  28.749   1.367
76967W        W45372   4.841  37.176   1.888
76968W        W45373  13.521  39.330   2.257
76969W        W45374   3.021  37.435  10.755
76970W        W45375  24.702   3.861  10.765
76971W        W45376  11.219  26.227  11.088
76972W        W45377  11.009  18.231  12.868
76973W        W45378   7.752  12.784   1.771
76974W        W45379  44.926  15.274   3.269
76975W        W45380  20.052  39.895   1.715
76976W        W45381  44.766  18.303  12.287
76977W        W45382  30.623   6.193  11.475
76978W        W45383  20.595   4.390  11.223
76979W        W45384  24.165  35.116   1.064
76980W        W45385   9.442  16.420   2.605
76981W        W45386  41.562  39.394   3.883
76982W        W45387  12.034  42.210   0.802
76983W        W45388  28.680   0.483  11.575
76984W        W45389  38.495   5.248  14.731
76985W        W45390  39.182  38.543  14.812
76986W        W45391  40.266   7.842   3.970
76987W        W45392  26.883  42.979  11.958
76988W        W45393  10.230  32.868   4.905
76989W        W45394   7.518  18.296  13.208
76990W        W45395  12.128  38.081  10.400
76991W        W45396  15.203  44.929   1.571
76992W        W45397   1.336  26.987   2.654
76993W        W45398  16.189   7.775   0.955
76994W        W45399  15.197  43.791   0.179
76995W        W45400  25.670  20.716   2.219
76996W        W45401  22.680   8.765   4.629
76997W        W45402   5.955   6.533   1.273
76998W        W45403   2.409  38.912   0.598
76999W        W45404  13.342  17.715  11.190
77000W        W45405  41.985   7.308   0.395
77001W        W45406  10.398  25.674  12.368
77002W        W45407   5.736  10.215   3.429
77003W        W45408   2.938  43.087  11.813
77004W        W45409  25.148  42.871   2.138
77005W        W45410  15.206  28.415  14.296
77006W        W45411  32.147  32.056  10.765
77007W        W45412  38.764  35.995   1.750
77008W        W45413  17.970  11.846   2.401
77009W        W45414  28.107  37.318   2.427
77010W        W45415  20.007  28.277  13.469
77011W        W45416  40.188  34.450  10.751
77012W        W45417  14.856   6.397   2.215
77013W        W45418  39.937  16.830  11.975
77014W        W45419  44.924   0.052   0.032
77015W        W45420   5.972   8.701   0.344
77016W        W45421  16.813   0.298   1.855
77017W        W45422   5.786  36.375   4.591
77018W        W45423  14.890  18.713  14.683
77019W        W45424   3.686  43.407   1.223
77020W        W45425   2.800   0.418   0.887
77021W        W45426   3.462   2.025   4.686
77022W        W45427  10.043  10.841  11.630
77023W        W45428  16.091  20.935  10.140
77024W        W45429   0.831  37.305  11.277
77025W        W45430  37.958  32.591   3.348
77026W        W45431   0.375   1.403  12.357
77027W        W45432  26.754   0.413  11.535
77028W        W45433   5.008  37.407  14.685
77029W        W45434  33.425  24.999   3.357
77030W        W45435   9.999  27.431   4.253
77031W        W45436  29.033  43.273   2.463
77032W        W45437  38.700  15.995  12.350
77033W        W45438  31.860  41.805  11.899
77034W        W45439  25.515   1.969   3.804
77035W        W45440  23.538  22.448  10.689
77036W        W45441  36.948  35.385  11.706
77037W        W45442  44.666  38.150   4.036
77038W        W45443   5.749  20.544   1.131
77039W        W45444  43.796  17.229   1.156
77040W        W45445  24.795   4.812  12.576
77041W        W45446   1.594  20.146  11.081
77042W        W45447  36.176  33.076   1.944
77043W        W45448  26.280  34.574  10.775
77044W        W45449  33.688  26.718   3.640
77045W        W45450  19.531  19.657   0.047
77046W        W45451  36.407   0.833  14.016
77047W        W45452  40.917   5.517  12.053
77048W        W45453  38.676  30.902   3.406
77049W        W45454  14.084  40.069   4.755
77050W        W45455   6.540  44.360   4.618
77051W        W45456  20.641  16.083  13.432
77052W        W45457  18.380  39.865  13.154
77053W        W45458  35.619  32.541  11.790
77054W        W45459  43.334  40.936  14.019
77055W        W45460  32.661   8.409  12.630
77056W        W45461  31.132   6.715  13.968
77057W        W45462  31.553  23.478  13.273
77058W        W45463   2.233   4.933  11.927
77059W        W45464  39.878  42.643  13.624
77060W        W45465  37.794  20.053   3.610
77061W        W45466   4.765  29.928  13.942
77062W        W45467  23.513  39.450   4.098
77063W        W45468  21.027  10.173  10.641
77064W        W45469  31.007  24.789   3.602
77065W        W45470   0.209  28.699   1.359
77066W        W45471  40.840  18.117   3.716
77067W        W45472  38.130  11.265   0.778
77068W        W45473   4.445  16.120  13.665
77069W        W45474  11.924  10.698  13.897
77070W        W45475  23.659  42.107  13.673
77071W        W45476  14.238  29.434  12.066
77072W        W45477   7.406   8.416   1.184
77073W        W45478  44.405  39.737  12.064
77074W        W45479  26.116  11.244   2.704
77075W        W45480  34.819  12.555  14.840
77076W        W45481   2.035  12.637   0.725
77077W        W45482   7.701  33.461  12.059
77078W        W45483   7.669  34.252   3.797
77079W        W45484  41.758  42.914  10.967
77080W        W45485   8.263   4.384   2.159
77081W        W45486  11.778  28.236   3.198
77082W        W45487   4.599  20.710   3.679
77083W        W45488  32.741  38.088   0.327
77084W        W45489  24.087  43.036   5.038
77085W        W45490  33.178   6.031  12.276
77086W        W45491  23.014  21.981  13.393
77087W        W45492   3.010  23.043   0.511
77088W        W45493  17.159  39.571   2.363
77089W        W45494  44.926   8.106  12.649
77090W        W45495   8.271   5.528   0.185
77091W        W45496  42.798   5.037  12.047
77092W        W45497  36.998  14.114  11.553
77093W        W45498   4.430  21.197   0.855
77094W        W45499   0.695  30.259  12.125
77095W        W45500  10.791   6.925   3.272
77096W        W45501  21.972  21.527   1.263
77097W        W45502   0.044   7.906  11.479
77098W        W45503  28.985  44.337  14.405
77099W        W45504  32.192   7.912   2.233
77100W        W45505  34.322  11.824   4.546
77101W        W45506  31.001  26.546  14.972
77102W        W45507  24.096   5.266  10.763
77103W        W45508  36.670  39.954   2.378
77104W        W45509  22.077  33.800  11.573
77105W        W45510  23.132  22.522   0.411
77106W        W45511  41.618   4.718   2.908
77107W        W45512   9.248  31.609  13.845
77108W        W45513  18.689  10.689  13.301
77109W        W45514  12.335  20.648   4.029
77110W        W45515  15.508  43.465   3.221
77111W        W45516   3.067  12.387  10.038
77112W        W45517  11.877  13.569   1.921
77113W        W45518   0.523  41.779   3.193
77114W        W45519  42.311   7.229   0.796
77115W        W45520  29.752  34.454  10.762
77116W        W45521  16.000   7.158   1.542
77117W        W45522  42.790  34.476   4.540
77118W        W45523   2.276  14.672  11.592
77119W        W45524   6.746  43.262   0.937
77120W        W45525  41.855  36.109   1.337
77121W        W45526  24.558   1.786   1.266
77122W        W45527  38.619  33.352  13.826
77123W        W45528  15.544   1.827  12.886
77124W        W45529  25.615  41.760  12.586
77125W        W45530  13.827  20.603  10.486
77126W        W45531  29.529  36.275  10.374
77127W        W45532  38.788  15.654  10.749
77128W        W45533  39.735  19.317   3.176
77129W        W45534  12.494  15.210  13.025
77130W        W45535  15.123  36.471  13.534
77131W        W45536  32.091  37.327  13.870
77132W        W45537  38.537  13.736  13.591
77133W        W45538  16.725   6.939   2.366
77134W        W45539  43.768   4.043   4.599
77135W        W45540  14.036  18.511  14.509
77136W        W45541  39.792   7.520  11.866
77137W        W45542  39.432  33.578   3.181
77138W        W45543  37.045  33.545  12.106
77139W        W45544   2.289  26.137  10.688
77140W        W45545  32.987  26.070  13.152
77141W        W45546  35.081   2.679  14.861
77142W        W45547  28.472  26.615  11.610
77143W        W45548  37.045  35.651  11.259
77144W        W45549   1.734  30.933   2.605
77145W        W45550  22.471  27.015   4.561
77146W        W45551   5.504   3.281   2.792
77147W        W45552  15.982  31.580   4.787
77148W        W45553   9.724  37.010   0.931
77149W        W45554  33.099   6.266  11.277
77150W        W45555   5.517  28.551   3.121
77151W        W45556  25.930  27.420   2.616
77152W        W45557   0.841   7.866  10.811
77153W        W45558  32.449   5.798   1.451
77154W        W45559  43.067  30.539   3.736
77155W        W45560  39.915  27.895  10.729
77156W        W45561  24.872  14.011  13.434
77157W        W45562  25.056  29.979  12.206
77158W        W45563  37.783  27.403  10.766
77159W        W45564  35.326  42.766   3.146
77160W        W45565  34.314  41.940  14.453
77161W        W45566  16.823  19.653   1.169
77162W        W45567   2.850  19.490  12.920
77163W        W45568  17.984   9.230  14.749
77164W        W45569  41.807  33.662   0.871
77165W        W45570  43.815  13.094  12.150
77166W        W45571  44.940  21.995   0.465
77167W        W45572  19.966  34.030   0.929
77168W        W45573  28.659  11.739   1.914
77169W        W45574   2.748   7.834  12.455
77170W        W45575   3.866  14.362  13.843
77171W        W45576   1.546   9.267   3.737
77172W        W45577  26.225  20.060  11.942
77173W        W45578  37.510  40.844   0.684
77174W        W45579   1.436  34.610   1.265
77175W        W45580   9.789  33.930   2.158
77176W        W45581  20.621   0.004   0.226
77177W        W45582  18.131  13.654  11.607
77178W        W45583  34.732  32.113   0.385
77179W        W45584   9.896  35.410   4.598
77180W        W45585  16.176  32.087   3.214
77181W        W45586  28.458  12.589  14.801
77182W        W45587  15.591  36.102   1.820
77183W        W45588   4.351  14.338  12.588
77184W        W45589  24.870  21.576  12.031
77185W        W45590  20.581  23.883   1.775
77186W        W45591  23.568  11.064   3.106
77187W        W45592  28.893  19.258   9.853
77188W        W45593  27.961  41.765   3.274
77189W        W45594  34.603  11.623   3.218
77190W        W45595  15.805  41.079   3.295
77191W        W45596   0.519  10.821   1.738
77192W        W45597  16.623   1.835  10.896
77193W        W45598  33.842   2.821  11.915
77194W        W45599  43.900  21.353   3.462
77195W        W45600  16.865  20.126   2.639
77196W        W45601  21.524   4.889  11.968
77197W        W45602   5.699  19.052   1.875
77198W        W45603  21.224  39.415   0.408
77199W        W45604  37.016  33.895   4.910
77200W        W45605  27.614   0.805  11.487
77201W        W45606   1.275  44.824  13.147
77202W        W45607  17.815  42.086   2.219
77203W        W45608  14.738  17.095  11.317
77204W        W45609  42.960  41.416   2.848
77205W        W45610  41.006  22.756  13.140
77206W        W45611  12.653   0.374  12.915
77207W        W45612   5.856   6.729  14.042
77208W        W45613  15.264  38.480   0.493
77209W        W45614  26.692  15.898   1.885
77210W        W45615  16.463   0.864   2.620
77211W        W45616   7.404  41.250  13.840
77212W        W45617   3.440  19.007   2.218
77213W        W45618  11.803   2.476   1.032
77214W        W45619   4.868   2.587   5.120
77215W        W45620   4.218  15.065   2.216
77216W        W45621  21.236  43.635   1.502
77217W        W45622  19.580  21.191  12.408
77218W        W45623   2.952  36.116   1.295
77219W        W45624  40.949  38.973  12.601
77220W        W45625   5.988  36.288  13.282
77221W        W45626   4.400  16.681  12.818
77222W        W45627  33.525  38.938  13.252
77223W        W45628   4.371  24.180   0.566
77224W        W45629  27.080  31.550  14.711
77225W        W45630  36.968  41.782  12.849
77226W        W45631  33.406   6.136  10.576
77227W        W45632  29.580  34.441  13.140
77228W        W45633  37.383  23.137  13.162
77229W        W45634  39.088   3.975  12.586
77230W        W45635  35.089  38.064   2.780
77231W        W45636  26.470  27.111  12.590
77232W        W45637  31.368  20.358   4.743
77233W        W45638  17.711  21.122   4.977
77234W        W45639   0.753   9.207   4.155
77235W        W45640  16.311  21.986  14.347
77236W        W45641  21.601  29.613  12.046
77237W        W45642  22.419  40.576  12.060
77238W        W45643   8.376  23.571  14.976
77239W        W45644  39.435  14.195  11.743
77240W        W45645   6.383   7.019  10.127
77241W        W45646  32.969  34.514   1.203
77242W        W45647  18.679  18.110   2.866
77243W        W45648  16.488  14.313   1.798
77244W        W45649  26.066  41.300  13.117
77245W        W45650  43.065  36.488   1.289
77246W        W45651   8.844  31.143   5.537
77247W        W45652  14.954  18.032  11.019
77248W        W45653  15.974  12.406   0.336
77249W        W45654   5.450  39.512  12.040
77250W        W45655   0.655  39.585  11.070
77251W        W45656  24.247  42.135  11.257
77252W        W45657   4.160  40.534   2.866
77253W        W45658   6.856  24.349  11.667
77254W        W45659  36.675  31.599   2.391
77255W        W45660   0.402   6.223  10.250
77256W        W45661  20.624  34.957   0.437
77257W        W45662  22.498  34.386  13.981
77258W        W45663   3.121  12.095  10.568
77259W        W45664  42.825  15.288  13.721
77260W        W45665  23.565  40.777   1.307
77261W        W45666  39.529  25.008   4.823
77262W        W45667  11.048   8.460   1.284
77263W        W45668  31.611  36.924  13.465
77264W        W45669   8.845  25.689   4.571
77265W        W45670  25.143  28.109  12.143
77266W        W45671  15.020  15.142  10.981
77267W        W45672  39.965  23.509  12.454
77268W        W45673  43.449   5.474   3.164
77269W        W45674  15.368  21.247  13.821
77270W        W45675  39.232  21.816   3.247
77271W        W45676   5.220  25.572  13.528
77272W        W45677   4.954  36.364   3.212
77273W        W45678   7.582   6.945   2.890
77274W        W45679  13.317  18.752   3.453
77275W        W45680   0.125   7.677  10.195
77276W        W45681  17.730  20.746   1.963
77277W        W45682  33.362   7.544   2.388
77278W        W45683  10.270  36.058  13.039
77279W        W45684  12.736  31.382  13.840
77280W        W45685  16.492   3.999   4.208
77281W        W45686   0.395  23.671  10.756
77282W        W45687  35.994  31.680  12.009
77283W        W45688  32.588  32.554  12.825
77284W        W45689  20.169  12.690   1.718
77285W        W45690  20.542   6.174  13.769
77286W        W45691  35.080  10.689   2.672
77287W        W45692  19.220  29.229  14.501
77288W        W45693  22.996   7.452  11.453
77289W        W45694   5.862  10.132   2.733
77290W        W45695  33.029  37.773   1.976
77291W        W45696   2.266   3.405   1.484
77292W        W45697  29.662  23.411  12.945
77293W        W45698  23.728  28.059  13.323
77294W        W45699   3.817  38.254   1.765
77295W        W45700  19.945  30.650   4.731
77296W        W45701   1.543  10.703  13.919
77297W        W45702  21.507  18.160   4.513
77298W        W45703  33.068  15.197  14.382
77299W        W45704  18.761  12.988  14.670
77300W        W45705  40.116  10.276  10.184
77301W        W45706   4.695   9.748   1.687
77302W        W45707  35.238  13.186   0.570
77303W        W45708  21.828  35.627   3.282
77304W        W45709  43.706  37.653  11.218
77305W        W45710  10.588   9.918   3.626
77306W        W45711  22.596  38.039   2.301
77307W        W45712  26.823  17.087   3.229
77308W        W45713  41.620  35.155  14.798
77309W        W45714  30.178  15.557   3.547
77310W        W45715   9.773  40.815   2.842
77311W        W45716  20.810   4.033   4.074
77312W        W45717  28.542  28.637  10.543
77313W        W45718  43.825  13.106  13.957
77314W        W45719  40.044  10.136  14.860
77315W        W45720  22.688   7.289   5.006
77316W        W45721  41.018  30.715  11.172
77317W        W45722  34.359   9.827  13.315
77318W        W45723  29.990  18.357   0.415
77319W        W45724  11.363  24.730   2.507
77320W        W45725  40.433  29.521   3.677
77321W        W45726  31.189  29.554  11.033
77322W        W45727  43.049  17.174   0.425
77323W        W45728   6.687   9.098  13.439
77324W        W45729  22.189  34.689   4.529
77325W        W45730   0.295  19.650  12.991
77326W        W45731  44.829  32.080   0.260
77327W        W45732  19.696   9.408  10.465
77328W        W45733  14.282  10.313   1.516
77329W        W45734  27.125  26.070  12.354
77330W        W45735  11.312  33.661   2.284
77331W        W45736  14.806  44.709  13.840
77332W        W45737  32.915   4.293   4.521
77333W        W45738  42.161  42.912  13.298
77334W        W45739   2.286   5.290   0.734
77335W        W45740  16.227  41.919   0.024
77336W        W45741  35.257  23.575  11.485
77337W        W45742  32.097   1.300  11.037
77338W        W45743   4.185  21.992  14.785
77339W        W45744   3.918  33.743   3.856
77340W        W45745  18.789  22.079  11.846
77341W        W45746  23.585  34.289   4.525
77342W        W45747  18.056  44.717   1.412
77343W        W45748  14.373  40.264  12.936
77344W        W45749   2.763  28.885   4.491
77345W        W45750   7.699  23.271   1.304
77346W        W45751  33.906  24.230   4.234
77347W        W45752  36.877  27.112   1.911
77348W        W45753  10.729  12.909   1.396
77349W        W45754  44.791  27.880   2.823
77350W        W45755  31.635  32.074  10.685
77351W        W45756  13.360  11.759   0.525
77352W        W45757  43.374  17.646   3.601
77353W        W45758  13.311  10.103  12.801
77354W        W45759  11.278  39.158  10.413
77355W        W45760  33.983  26.508  13.497
77356W        W45761  37.604  33.188  14.942
77357W        W45762  14.805  19.790   0.333
77358W        W45763  41.768  17.934  14.294
77359W        W45764  43.067  38.653  10.557
77360W        W45765  11.655  20.051   1.712
77361W        W45766  16.753  10.424   3.559
77362W        W45767  19.815  21.063  11.040
77363W        W45768  13.889  32.607  14.739
77364W        W45769   5.731  30.976   4.145
77365W        W45770  20.820  12.226  11.985
77366W        W45771  22.306  33.524   4.700
77367W        W45772   5.442  10.579   0.805
77368W        W45773  16.789  25.747  11.126
77369W        W45774  41.522  23.204   4.220
77370W        W45775  22.726   6.551   3.187
77371W        W45776  29.907  13.432   1.621
77372W        W45777  15.294  27.532   0.516
77373W        W45778  33.481  34.434   0.336
77374W        W45779  44.283  29.724   3.800
77375W        W45780  38.040  35.573   3.997
77376W        W45781  33.434   6.821   0.627
77377W        W45782  27.032  26.114  11.385
77378W        W45783   8.430   1.459  13.065
77379W        W45784   3.213   4.550   2.723
77380W        W45785  24.418   1.591  12.990
77381W        W45786  13.608  11.931  11.015
77382W        W45787  29.182  11.601  10.548
77383W        W45788  35.777  34.659   4.823
77384W        W45789  40.070   4.686   0.643
77385W        W45790  18.373  17.856   2.213
77386W        W45791   3.021   5.247  13.951
77387W        W45792  21.753  20.048   1.268
77388W        W45793   8.266  18.286   4.338
77389W        W45794   0.951  21.293  10.496
77390W        W45795   2.115  44.412   1.252
77391W        W45796  40.604  18.552  14.402
77392W        W45797  28.059  44.077   4.163
77393W        W45798  15.513  12.830  12.546
77394W        W45799  28.200   9.069   4.585
77395W        W45800  16.099  29.485   2.255
77396W        W45801  31.409  18.240  14.428
77397W        W45802  28.027  38.868   3.326
77398W        W45803  35.838  11.992  14.391
77399W        W45804  24.568  33.276  14.017
77400W        W45805  30.995  27.970  14.545
77401W        W45806  36.178  14.530  12.723
77402W        W45807   1.048  15.836  11.691
77403W        W45808   8.345  17.835   4.562
77404W        W45809   7.163   1.644  14.117
77405W        W45810  37.548  43.216  12.441
77406W        W45811  29.119  10.896   1.825
77407W        W45812  21.753  11.343  12.835
77408W        W45813   5.504  19.991   4.815
77409W        W45814  33.423   3.265  10.650
77410W        W45815   8.892  40.399  11.633
77411W        W45816  30.928  31.704  13.538
77412W        W45817  19.202  35.061   2.384
77413W        W45818  12.026  10.798   3.315
77414W        W45819  37.600  27.174   1.411
77415W        W45820  34.045  42.516   4.511
77416W        W45821  10.145  31.204   4.080
77417W        W45822  12.439  21.657  11.018
77418W        W45823  20.489   9.167   0.862
77419W        W45824  14.806  15.768  13.188
77420W        W45825  42.994  43.763  13.327
77421W        W45826  27.399   9.894   3.741
77422W        W45827  12.206  33.257  11.062
77423W        W45828   7.815  32.975   0.858
77424W        W45829   6.183  32.622  14.595
77425W        W45830   7.878   9.829   3.617
77426W        W45831  43.298  35.206   0.879
77427W        W45832  14.752  37.339   2.334
77428W        W45833  30.599  39.112   1.323
77429W        W45834  28.963   6.619  11.471
77430W        W45835  44.865  42.526   4.062
77431W        W45836  35.072  15.427   3.444
77432W        W45837  39.922  15.051  12.444
77433W        W45838  18.994  41.117   3.341
77434W        W45839  37.483  18.958   0.451
77435W        W45840  33.000   5.527   0.090
77436W        W45841  23.197  12.214  10.726
77437W        W45842  20.523  40.292  11.802
77438W        W45843  27.503  10.802   3.925
77439W        W45844  34.118  28.478  14.884
77440W        W45845  40.721  21.919   1.924
77441W        W45846  39.489  10.773  14.113
77442W        W45847  24.810  32.381  12.871
77443W        W45848   5.942  37.916   2.312
77444W        W45849  21.109   6.018  10.758
77445W        W45850  29.721  16.304   1.618
77446W        W45851  26.867  33.008   1.412
77447W        W45852  41.518  28.300   3.753
77448W        W45853   3.440  28.252  11.593
77449W        W45854  12.315  40.469  14.470
77450W        W45855  20.569   2.295  10.949
77451W        W45856   7.668   7.306   1.938
77452W        W45857  39.475  15.083   4.179
77453W        W45858  20.578  42.382   3.101
77454W        W45859  22.373  35.657  13.742
77455W        W45860  42.866  24.030   0.895
77456W        W45861  17.015  25.678   5.370
77457W        W45862  37.531  29.571   2.722
77458W        W45863  25.470  16.382   1.161
77459W        W45864   2.273  21.766  12.943
77460W        W45865  24.423   1.871  14.338
77461W        W45866   8.879  42.923  10.273
77462W        W45867   2.204   0.488   4.115
77463W        W45868  18.789  18.297  14.851
77464W        W45869   3.410  44.446  14.578
77465W        W45870  30.633   1.730   3.219
77466W        W45871  17.367  19.609  14.352
77467W        W45872  26.686  30.129  11.986
77468W        W45873  35.097   1.685   3.748
77469W        W45874  29.409  25.434  12.353
77470W        W45875  43.336  34.836   4.125
77471W        W45876  30.596  18.036  14.060
77472W        W45877  15.360  37.301  10.920
77473W        W45878   6.471  21.551   3.248
77474W        W45879   7.307  27.200  11.764
77475W        W45880  36.267  15.289  11.098
77476W        W45881  43.537  16.211   1.420
77477W        W45882  33.209  30.523  14.897
77478W        W45883  17.649  32.479   1.937
77479W        W45884  31.510  28.113  14.511
77480W        W45885  27.467  19.098  12.404
77481W        W45886  16.012   4.201  11.123
77482W        W45887  19.771   3.314   4.314
77483W        W45888  39.983  21.548  11.572
77484W        W45889  39.700  18.493  11.012
77485W        W45890  12.395  36.086   3.373
77486W        W45891   3.783  36.539  13.326
77487W        W45892  12.781  20.173  12.406
77488W        W45893  23.773  34.509  13.834
77489W        W45894  44.193  32.022   3.178
77490W        W45895   6.008  22.019   3.213
77491W        W45896  27.292  29.652  14.497
77492W        W45897  38.096  31.707  12.486
77493W        W45898   9.791  15.776   0.839
77494W        W45899  31.545  25.382  12.068
77495W        W45900  26.158  13.885  13.961
77496W        W45901  32.759   0.763  11.953
77497W        W45902  14.990  18.841  14.174
77498W        W45903  24.328  29.877   0.819
77499W        W45904  43.512  18.720  14.518
77500W        W45905   1.884  37.067   4.714
77501W        W45906  40.027   0.662   0.375
77502W        W45907  40.763   5.013  14.355
77503W        W45908   2.673  41.883  11.205
77504W        W45909  31.950   2.695   4.599
77505W        W45910  16.798  28.865   4.055
77506W        W45911  15.678   6.599  13.920
77507W        W45912  38.601  40.241   2.822
77508W        W45913  35.339  40.897  14.397
77509W        W45914  26.901  15.271   2.296
77510W        W45915   5.719   1.518   4.018
77511W        W45916  16.161  12.752   3.267
77512W        W45917  33.160  44.413  12.206
77513W        W45918  29.407  37.084   3.744
77514W        W45919  41.859  11.971  12.069
77515W        W45920  35.579  16.117   3.907
77516W        W45921  36.090  29.409  13.485
77517W        W45922  29.273  32.524  12.752
77518W        W45923  11.536   8.545   1.344
77519W        W45924  11.429  18.432   1.337
77520W        W45925  12.090  10.225  10.818
77521W        W45926  20.273  31.900  10.652
77522W        W45927  20.171  28.609   4.544
77523W        W45928  11.268   1.010  12.906
77524W        W45929  12.775   0.342  10.987
77525W        W45930  11.703   5.934  13.525
77526W        W45931  19.805   4.772  12.497
77527W        W45932   0.065  19.175  12.215
77528W        W45933  26.686  43.227   4.773
77529W        W45934  40.278  36.849  11.787
77530W        W45935  22.114  19.717   0.748
77531W        W45936   6.649   6.130  13.869
77532W        W45937  19.038  19.264   1.497
77533W        W45938  39.703  12.781   0.458
77534W        W45939   3.501  10.210  12.662
77535W        W45940   8.740   4.195   4.445
77536W        W45941  15.143  10.800   1.456
77537W        W45942  38.319  26.257   2.637
77538W        W45943  16.063  36.850  13.471
77539W        W45944  11.288   3.327   2.170
77540W        W45945  10.670  10.991   3.054
77541W        W45946  34.510   6.630  12.404
77542W        W45947   7.215  39.907   2.802
77543W        W45948  26.713  40.969   4.218
77544W        W45949  21.557  43.732   0.266
77545W        W45950   0.995   4.440   0.425
77546W        W45951   1.911  44.504  11.182
77547W        W45952  10.213   1.699  10.564
77548W        W45953  17.637   0.749   1.810
77549W        W45954  32.202  33.575   2.747
77550W        W45955  19.705   3.148  13.489
77551W        W45956  14.289  36.299  11.039
77552W        W45957  21.190  13.621  11.671
77553W        W45958  37.451   1.504  12.477
77554W        W45959  11.783  26.418   3.132
77555W        W45960  17.094  13.739  13.535
77556W        W45961  40.848   9.547   3.839
77557W        W45962  43.727  43.001  12.939
77558W        W45963  44.984  16.781   4.936
77559W        W45964   3.628  17.111   4.189
77560W        W45965  11.468  39.770  11.973
77561W        W45966  35.386  36.786   3.806
77562W        W45967  20.057  15.829  11.528
77563W        W45968  32.448  16.153  13.474
77564W        W45969  12.361  33.890  12.899
77565W        W45970  40.698  34.520  10.684
77566W        W45971  12.606  10.749   2.475
77567W        W45972  27.990  28.637  14.343
77568W        W45973  17.860  43.021   0.715
77569W        W45974  11.699  27.089   3.889
77570W        W45975  38.815   9.159  11.551
77571W        W45976   5.652  34.515  14.879
77572W        W45977  12.852  17.645  14.798
77573W        W45978  18.113  32.001  12.948
77574W        W45979   5.874  11.450  14.913
77575W        W45980   3.099  44.638   4.678
77576W        W45981  44.042  18.194   1.377
77577W        W45982   6.700  17.272   2.902
77578W        W45983  17.844  34.074  11.035
77579W        W45984  20.350   2.702  10.731
77580W        W45985  38.595   5.501  12.432
77581W        W45986  10.608   4.010  13.033
77582W        W45987   5.795   2.757   4.940
77583W        W45988   9.734   1.770   3.401
77584W        W45989   9.679  29.889  12.958
77585W        W45990  40.993  42.727   4.971
77586W        W45991  21.095  15.636   3.695
77587W        W45992   2.773   3.205  13.058
77588W        W45993  26.584  43.713  11.198
77589W        W45994   1.325  40.732   4.236
77590W        W45995  44.819  28.945  14.445
77591W        W45996  42.972  23.806   2.635
77592W        W45997  29.251   2.817  14.940
77593W        W45998   8.890  12.609  11.058
77594W        W45999  31.066  16.101  14.925
77595W        W46000   1.155  26.965   4.523
77596W        W46001  35.074   2.407   2.154
77597W        W46002  35.092  19.660  13.583
77598W        W46003  19.836   8.276   2.423
77599W        W46004   4.462  41.757   0.754
77600W        W46005  44.515  35.487   4.414
77601W        W46006  43.868  33.644  14.607
77602W        W46007  18.253  27.140  13.211
77603W        W46008   7.789  12.355   4.589
77604W        W46009  32.866   2.740  10.598
77605W        W46010  12.652  27.738   1.712
77606W        W46011   9.598  31.513   0.785
77607W        W46012   8.806  29.745  11.098
77608W        W46013   8.910  28.136   4.973
77609W        W46014  40.048  29.634   1.860
77610W        W46015  40.461  36.737   4.082
77611W        W46016  21.541  25.718  14.759
77612W        W46017  13.410  38.579   1.952
77613W        W46018  34.163   3.279  12.592
77614W        W46019  38.915  34.285  14.044
77615W        W46020  42.315  11.473  10.284
77616W        W46021   1.774  35.063   1.244
77617W        W46022  30.886  20.288   4.330
77618W        W46023  39.593  22.999  12.073
77619W        W46024  32.510  23.245  14.545
77620W        W46025  35.653  12.560   3.134
77621W        W46026  32.018  30.469  14.757
77622W        W46027  17.074  12.645  14.708
77623W        W46028  26.646  34.802   0.509
77624W        W46029  30.612   4.711   0.028
77625W        W46030  10.676  32.864  12.004
77626W        W46031  31.385  13.869  12.466
77627W        W46032  36.078  31.148  12.896
77628W        W46033  33.455   5.090  10.105
77629W        W46034  36.885  41.152  10.637
77630W        W46035   3.177   1.328  11.021
77631W        W46036   4.798  12.027   1.241
77632W        W46037  41.912   4.509   4.511
77633W        W46038  15.206   6.481   0.383
77634W        W46039  33.651  22.140   1.985
77635W        W46040  10.313   5.599  14.847
77636W        W46041  24.944  19.173   3.342
77637W        W46042  38.995   8.637  11.548
77638W        W46043  16.266  20.138  12.093
77639W        W46044  43.221  26.256   0.932
77640W        W46045  13.751  44.963  12.443
77641W        W46046  19.528  25.704   3.628
77642W        W46047   8.128  41.025   1.868
77643W        W46048  21.484  40.806   3.144
77644W        W46049  39.021   0.371   1.230
77645W        W46050  35.039  41.010  14.813
77646W        W46051  38.957  28.507   0.273
77647W        W46052  40.324  40.520   4.144
77648W        W46053  27.625  26.017  12.442
77649W        W46054  44.491   6.539   0.021
77650W        W46055   7.731  28.227  12.352
77651W        W46056  43.516  42.312  11.969
77652W        W46057  27.721   1.039  14.960
77653W        W46058   0.416  22.154   3.265
77654W        W46059  34.402  42.363  12.156
77655W        W46060  16.303   0.274   0.446
77656W        W46061   2.458   3.776  12.470
77657W        W46062  34.645  13.689   0.523
77658W        W46063  22.832  32.244   2.205
77659W        W46064  18.652  24.764  14.354
77660W        W46065  17.892  23.659   2.349
77661W        W46066  41.313  13.702   2.216
77662W        W46067  22.434  38.432  13.009
77663W        W46068  18.069  31.993   1.365
77664W        W46069  14.209  29.700   1.407
77665W        W46070  44.817  17.591   4.307
77666W        W46071  10.210  13.735  12.583
77667W        W46072  35.127   2.885  13.257
77668W        W46073  26.477  25.402  14.814
77669W        W46074   1.520  28.470   0.811
77670W        W46075  20.171  31.960   1.164
77671W        W46076  23.100  20.234   0.835
77672W        W46077  10.752  28.070  14.313
77673W        W46078  28.668  42.463   2.700
77674W        W46079  34.122  33.259  14.316
77675W        W46080  44.557   6.791   0.951
77676W        W46081  10.825  29.768   1.816
77677W        W46082  38.987   2.915   0.078
77678W        W46083  35.381  32.075  11.712
77679W        W46084  29.193  10.243   0.063
77680W        W46085  22.609  16.525   4.948
77681W        W46086  33.382  14.018   4.325
77682W        W46087  24.767   2.450   3.720
77683W        W46088   3.505   6.454  11.615
77684W        W46089  33.279  35.080   4.117
77685W        W46090  44.270   4.930  13.411
77686W        W46091   1.022  31.285   4.209
77687W        W46092   7.716  34.767   3.838
77688W        W46093  15.248  21.961  10.849
77689W        W46094  10.982  37.861   0.240
77690W        W46095  23.662  27.925   0.752
77691W        W46096  10.209  18.846   4.574
77692W        W46097  40.052  39.517   0.097
77693W        W46098   1.976  23.599  10.615
77694W        W46099  19.249   8.262   3.778
77695W        W46100  13.766  12.484   4.652
77696W        W46101   7.372   4.394   2.431
77697W        W46102   9.175  44.058  14.844
77698W        W46103  32.607  27.009  10.717
77699W        W46104   5.298  32.369  14.651
77700W        W46105   3.892  38.401  10.553
77701W        W46106  10.242  11.649   0.828
77702W        W46107   2.199   9.878   2.132
77703W        W46108  39.234  44.419  11.637
77704W        W46109   0.620  30.819   5.122
77705W        W46110  21.905  22.709  12.652
77706W        W46111  19.160  44.373   2.371
77707W        W46112   9.424  39.552  10.752
77708W        W46113   4.464  21.524  14.809
77709W        W46114  42.112  38.075  14.846
77710W        W46115  15.231   7.128   2.790
77711W        W46116  17.772  43.013  12.524
77712W        W46117  26.831  12.084   1.796
77713W        W46118  27.111  13.711  13.993
77714W        W46119  18.656   5.125  12.877
77715W        W46120  44.932  28.669  12.980
77716W        W46121  36.593  43.363  11.559
77717W        W46122  44.787   5.136   3.340
77718W        W46123  23.751   4.616   1.110
77719W        W46124  37.408  34.554  10.307
77720W        W46125  41.605  30.902   0.820
77721W        W46126   3.324  34.009  10.487
77722W        W46127  16.611  10.131  14.826
77723W        W46128  18.580  20.741   1.053
77724W        W46129  33.587  24.494   4.668
77725W        W46130   1.933   3.244   5.101
77726W        W46131   6.294  32.956  14.994
77727W        W46132  11.794  24.843  14.387
77728W        W46133  16.633  10.577   4.307
77729W        W46134  21.051   8.203   0.133
77730W        W46135  34.476   7.837   3.788
77731W        W46136   5.805  21.226  11.174
77732W        W46137   0.587  39.950   1.730
77733W        W46138  41.936  26.019  12.581
77734W        W46139  20.671  41.544   1.947
77735W        W46140  32.119   5.003  13.469
77736W        W46141  34.235  24.968   2.387
77737W        W46142   2.957   9.659   2.582
77738W        W46143  44.888  34.609   3.862
77739W        W46144  38.464   0.939  10.548
77740W        W46145  24.260  34.396   3.981
77741W        W46146  27.577   8.939  11.928
77742W        W46147   9.059   2.893  14.261
77743W        W46148  40.916  38.990   0.305
77744W        W46149  16.337   6.762  10.892
77745W        W46150  27.558  16.298   1.221
77746W        W46151  38.404  15.759  13.903
77747W        W46152  31.174  16.689   4.181
77748W        W46153  17.056  34.884  14.703
77749W        W46154  29.726   5.892   4.960
77750W        W46155  16.990  44.423   0.829
77751W        W46156  44.373   2.924   4.996
77752W        W46157  20.691   8.822   3.107
77753W        W46158   5.890  40.208  10.772
77754W        W46159   9.676   3.839   2.164
77755W        W46160  44.267  36.894  14.991
77756W        W46161  39.939   2.365  14.572
77757W        W46162  22.141  22.023   2.319
77758W        W46163  23.567   5.956  14.888
77759W        W46164   6.852   4.760   0.344
77760W        W46165   8.425  10.341   2.447
77761W        W46166  38.318  40.557  13.614
77762W        W46167  43.305  39.067   0.947
77763W        W46168   9.912  27.776  10.493
77764W        W46169  38.327  25.496   4.234
77765W        W46170  32.386  35.470  12.519
77766W        W46171  17.867  44.838  13.781
77767W        W46172  17.776  22.012   9.857
77768W        W46173   4.271  23.053  12.007
77769W        W46174  17.034   7.684   3.399
77770W        W46175   3.856  12.161  11.139
77771W        W46176   3.725   9.763   0.806
77772W        W46177  18.455  34.797   4.949
77773W        W46178  40.124  33.303   0.126
77774W        W46179  23.600  19.368   4.625
77775W        W46180  25.903  43.839  10.710
77776W        W46181  23.334   0.054  13.998
77777W        W46182   1.176  37.745  12.195
77778W        W46183  31.561   0.303   3.543
77779W        W46184  29.492  41.903  13.207
77780W        W46185  12.319   1.979  12.612
77781W        W46186  14.148   3.417  14.400
77782W        W46187  17.818  40.313  12.606
77783W        W46188  34.577  18.573   2.803
77784W        W46189   6.677  36.524   4.559
77785W        W46190  13.390  16.681  13.995
77786W        W46191  11.370   0.580   2.666
77787W        W46192  41.346  38.780   3.365
77788W        W46193   3.654  37.884  14.799
77789W        W46194  40.524  12.496  10.807
77790W        W46195   6.456   8.412   3.682
77791W        W46196  42.169  11.680  14.602
77792W        W46197  19.476  11.908  14.362
77793W        W46198  41.806   4.446   1.861
77794W        W46199  32.908  43.386  13.903
77795W        W46200   2.225   8.368  12.746
77796W        W46201  27.860   3.624  12.077
77797W        W46202  37.492   3.537  11.409
77798W        W46203  30.738  15.121  12.489
77799W        W46204  10.429  17.653  14.837
77800W        W46205  42.873  22.528   0.850
77801W        W46206   7.153  15.224  12.928
77802W        W46207  28.636  44.174  12.010
77803W        W46208  35.362  43.586   0.436
77804W        W46209  10.206   8.362   4.244
77805W        W46210   7.291  32.249   0.385
77806W        W46211  15.589  22.741  11.522
77807W        W46212  31.051  24.263  11.325
77808W        W46213  21.137  28.988   3.646
77809W        W46214  15.720  26.244  12.430
77810W        W46215   7.808  25.056   4.010
77811W        W46216  19.266  43.466   0.535
77812W        W46217  28.403  14.111  13.097
77813W        W46218   3.834  16.853  14.952
77814W        W46219  24.151  33.513  13.536
77815W        W46220   7.745  20.010   2.868
77816W        W46221   6.192  20.824  13.769
77817W        W46222  22.169  15.155   4.014
77818W        W46223  35.928  38.603   4.426
77819W        W46224  19.756  38.189   0.227
77820W        W46225  25.447  27.392  11.263
77821W        W46226  28.245  19.563   0.514
77822W        W46227  12.737  35.383  14.645
77823W        W46228  15.237  22.028   3.678
77824W        W46229   3.939   2.285  12.496
77825W        W46230   8.849  23.326   2.945
77826W        W46231   7.377  37.473  13.133
77827W        W46232  44.420  21.800   0.459
77828W        W46233  24.784   1.964  12.977
77829W        W46234  42.538  24.422   2.118
77830W        W46235   8.415  19.684   2.462
77831W        W46236  43.785  40.044  14.360
77832W        W46237  39.555  39.767   2.796
77833W        W46238  32.470   8.757   3.697
77834W        W46239  19.321  23.605  11.207
77835W        W46240  15.758  35.025  13.134
77836W        W46241  22.449  41.827  10.484
77837W        W46242  22.275  23.333   3.984
77838W        W46243  39.602   7.475  12.808
77839W        W46244   8.731  42.307  11.442
77840W        W46245  26.003   9.176   1.687
77841W        W46246  30.215  40.303  12.198
77842W        W46247  27.242  30.669   3.596
77843W        W46248   9.126  40.939   4.605
77844W        W46249   6.153   6.106  11.191
77845W        W46250  16.611   0.360  11.956
77846W        W46251  31.107  26.945  14.128
77847W        W46252  14.102  21.049   5.015
77848W        W46253   6.258  15.277   3.701
77849W        W46254  23.514  23.732  11.135
77850W        W46255  41.038  35.061   4.282
77851W        W46256  28.451  15.772   0.381
77852W        W46257  33.223   3.566  12.442
77853W        W46258  10.905   7.333  14.259
77854W        W46259  19.817   7.369  10.700
77855W        W46260  26.446   4.411   2.217
77856W        W46261  20.593   9.305   1.349
77857W        W46262  18.668  16.260   0.444
77858W        W46263  39.331  12.377  11.951
77859W        W46264  42.506  23.956   4.289
77860W        W46265  17.399   5.690   3.102
77861W        W46266  17.713  43.796  13.978
77862W        W46267  12.851   9.289  13.662
77863W        W46268  35.293  20.955   3.316
77864W        W46269  35.556  41.507   4.574
77865W        W46270  20.303  15.279   2.100
77866W        W46271  21.494  22.295  13.947
77867W        W46272   4.495   7.891  10.111
77868W        W46273  19.691  40.243  13.605
77869W        W46274  13.742  35.318  14.334
77870W        W46275  20.079   6.808   4.599
77871W        W46276   3.297  16.582   2.463
77872W        W46277  32.667  34.854   2.288
77873W        W46278   1.229   3.505  10.706
77874W        W46279  28.436   7.556   4.620
77875W        W46280  31.101   2.981   0.390
77876W        W46281  35.633  24.727   0.777
77877W        W46282   0.577  44.586  10.656
77878W        W46283   8.726  36.117   1.255
77879W        W46284   6.578  31.863  13.212
77880W        W46285   3.011   3.505  11.298
77881W        W46286   8.281  44.477  13.506
77882W        W46287  36.855  24.691   3.713
77883W        W46288   1.378  39.325   2.398
77884W        W46289  26.780  22.610  13.072
77885W        W46290  12.562  13.521   0.418
77886W        W46291  36.503  33.003  12.658
77887W        W46292   8.368  35.338   0.257
77888W        W46293   8.164   3.791   1.413
77889W        W46294  16.465  35.327  10.981
77890W        W46295  12.096  44.785   2.311
77891W        W46296  26.529  16.339  14.452
77892W        W46297  43.252  23.042  14.522
77893W        W46298  20.799  22.552  11.446
77894W        W46299  21.686   4.747  10.714
77895W        W46300  13.193  16.232  13.812
77896W        W46301   8.399   6.862   0.082
77897W        W46302  30.878   5.050  14.542
77898W        W46303  22.780  31.285   2.266
77899W        W46304   3.240  10.609   2.300
77900W        W46305  35.555  28.168  12.563
77901W        W46306   9.811  23.002  13.395
77902W        W46307   2.981  33.749  11.245
77903W        W46308  28.351  12.821   4.362
77904W        W46309   7.151   8.151  14.758
77905W        W46310   0.751   7.802  12.734
77906W        W46311   2.846  36.140   4.098
77907W        W46312   0.769   0.445  11.552
77908W        W46313  17.672  30.031  13.294
77909W        W46314  32.021  36.539   0.268
77910W        W46315  40.210   2.333   1.946
77911W        W46316  27.135  21.800   3.211
77912W        W46317  30.635  38.293  13.322
77913W        W46318  11.117   2.276  13.695
77914W        W46319   8.655  15.615   4.305
77915W        W46320  15.779   5.964  13.060
77916W        W46321  22.507  10.811   3.858
77917W        W46322  25.775  22.544  11.185
77918W        W46323  28.519  11.838   1.384
77919W        W46324  21.829  26.042   3.415
77920W        W46325  38.127  27.799  13.859
77921W        W46326  37.001  25.321  10.752
77922W        W46327  34.983  30.688  13.947
77923W        W46328  37.976  25.471   1.262
77924W        W46329  26.364  14.542   3.357
77925W        W46330  19.651  15.123  11.186
77926W        W46331  40.433   1.033   2.230
77927W        W46332  37.340  23.580  13.889
77928W        W46333   0.457   0.475   3.285
77929W        W46334  13.673  23.023  10.673
77930W        W46335  21.210  29.939  12.510
77931W        W46336  43.933  27.434   0.023
77932W        W46337  10.209  36.357  13.895
77933W        W46338  23.844  29.985  14.948
77934W        W46339  34.179   1.900  10.694
77935W        W46340  43.646  15.600   2.661
77936W        W46341   0.271  32.867   1.754
77937W        W46342  26.841  16.317   0.760
77938W        W46343  41.601   9.770  10.677
77939W        W46344  12.148   4.343   4.059
77940W        W46345  23.260   5.457   0.714
77941W        W46346  42.374  43.781   2.585
77942W        W46347  32.533  17.638   4.057
77943W        W46348  10.368  15.242  11.942
77944W        W46349  34.357  42.117   0.293
77945W        W46350  30.917  10.693  13.444
77946W        W46351  33.872   0.815   2.302
77947W        W46352  12.130  43.499  12.075
77948W        W46353  16.933   2.640  12.566
77949W        W46354   9.137  26.748   1.599
77950W        W46355   5.401  44.931   3.210
77951W        W46356  13.078  18.253  14.025
77952W        W46357  37.253  31.982   1.288
77953W        W46358  30.571  14.330  14.008
77954W        W46359   0.689  35.369   0.345
77955W        W46360  18.785  29.348   5.245
77956W        W46361  29.466  26.040  14.482
77957W        W46362  12.468   9.362  12.061
77958W        W46363  16.339  35.233   1.224
77959W        W46364   0.486   3.349   2.858
77960W        W46365  27.973   8.909   4.144
77961W        W46366  36.757  37.040   3.506
77962W        W46367  10.677  27.176  13.918
77963W        W46368  22.414   1.956  11.600
77964W        W46369  23.339  16.715   4.224
77965W        W46370  12.686  44.370   4.109
77966W        W46371  17.300  37.139  13.795
77967W        W46372  11.672  12.126  14.833
77968W        W46373   2.021  22.426  13.608
77969W        W46374  26.496  29.033   2.959
77970W        W46375   5.212  23.889   4.541
77971W        W46376  32.826  26.701   1.812
77972W        W46377  40.094  10.220  11.594
77973W        W46378  17.074  17.683  10.940
77974W        W46379  30.940  42.813  14.840
77975W        W46380  28.923   7.923  12.022
77976W        W46381  33.807  18.658   3.565
77977W        W46382   9.457   0.994  12.563
77978W        W46383  32.505  36.381   3.570
77979W        W46384  30.152  14.594  11.788
77980W        W46385  24.232  11.131   1.356
77981W        W46386  11.908  40.481  12.359
77982W        W46387  40.940  31.584  11.408
77983W        W46388  38.417  22.123  11.178
77984W        W46389   6.894  43.346  11.525
77985W        W46390  18.045  29.576  12.039
77986W        W46391   0.393  29.910  11.491
77987W        W46392  27.087  33.343   4.210
77988W        W46393  40.021  18.007   3.826
77989W        W46394   0.696  12.603  12.137
77990W        W46395   5.211  23.530   3.700
77991W        W46396  35.346  38.801  10.725
77992W        W46397   6.458  41.580  14.586
77993W        W46398   2.557  35.890  13.053
77994W        W46399  22.808  25.230   4.964
77995W        W46400  20.282   8.528   3.226
77996W        W46401  18.149   9.662   4.180
77997W        W46402  44.258  29.705  11.132
77998W        W46403   7.138  13.339   3.254
77999W        W46404   6.861  40.217   3.147
78000W        W46405  19.249  14.551   3.697
78001W        W46406  21.273  34.590   4.123
78002W        W46407  36.948  29.388  13.997
78003W        W46408  38.054  29.427   3.632
78004W        W46409  25.275  33.688   4.627
78005W        W46410  19.581   5.818  12.509
78006W        W46411  32.105  15.101  12.550
78007W        W46412  38.321  18.371  10.733
78008W        W46413  26.669  32.807   1.849
78009W        W46414   5.340   3.631   1.355
78010W        W46415  44.799  26.757   1.345
78011W        W46416  18.229  10.367   2.255
78012W        W46417  23.934  35.921  14.081
78013W        W46418   6.696  24.873   3.154
78014W        W46419  22.975   6.155  10.571
78015W        W46420  35.781  22.499   1.303
78016W        W46421  28.935  25.460  11.184
78017W        W46422   5.665   9.404   0.132
78018W        W46423  20.266  40.014   4.338
78019W        W46424  11.660  40.800   0.489
78020W        W46425  14.067   3.482  13.486
78021W        W46426   4.289  38.536  12.070
78022W        W46427   3.252  27.115  14.426
78023W        W46428   3.274   5.507   0.459
78024W        W46429  36.804  31.409   1.873
78025W        W46430  43.013  33.586   1.285
78026W        W46431  39.485   6.750  11.273
78027W        W46432  19.839  39.597  11.133
78028W        W46433  34.994  35.662   0.294
78029W        W46434  21.046  25.007  11.751
78030W        W46435  22.093   3.233  10.626
78031W        W46436  15.197   3.861   0.705
78032W        W46437  34.474  29.791   4.821
78033W        W46438  29.963  10.345  10.346
78034W        W46439  40.637  12.219   2.745
78035W        W46440  20.156  13.710   1.218
78036W        W46441   8.832  41.209  13.956
78037W        W46442  27.402   9.049   3.334
78038W        W46443  32.896  42.541   2.287
78039W        W46444  43.891  29.169  10.513
78040W        W46445  35.699   7.903   2.215
78041W        W46446  31.529  19.582   2.332
78042W        W46447  21.055  16.115  11.476
78043W        W46448  13.798  42.801   2.354
78044W        W46449  35.117  14.654  10.708
78045W        W46450  33.091  18.771  10.502
78046W        W46451   4.038   7.535   5.275
78047W        W46452  18.025  40.896  10.631
78048W        W46453   8.696  40.241   2.670
78049W        W46454   9.175  20.325   4.634
78050W        W46455  38.455  25.047   0.080
78051W        W46456  44.931   4.238   1.298
78052W        W46457  18.960   6.044  10.305
78053W        W46458  43.384  29.101   1.796
78054W        W46459  40.110   9.279  13.258
78055W        W46460  40.965   7.195  12.342
78056W        W46461  31.667   2.737   4.148
78057W        W46462  16.999  11.419   5.074
78058W        W46463   4.364  34.464   3.808
78059W        W46464  10.403  44.580  12.969
78060W        W46465  18.178  27.887  14.352
78061W        W46466   2.689  29.203  11.140
78062W        W46467  12.245  16.733   4.436
78063W        W46468   5.410  21.946  11.584
78064W        W46469  20.689  29.204   3.849
78065W        W46470  10.594  42.953  13.349
78066W        W46471  33.020  40.551  12.448
78067W        W46472  42.176  29.643   2.629
78068W        W46473   5.102  19.334   1.546
78069W        W46474  38.706  35.505   0.419
78070W        W46475  11.298  31.496  11.077
78071W        W46476  23.544   4.234   1.402
78072W        W46477  36.270  14.547  13.652
78073W        W46478  43.496   0.344  11.991
78074W        W46479  32.557  30.994  12.522
78075W        W46480  21.230  41.230  12.029
78076W        W46481  37.052  43.360   1.405
78077W        W46482  34.452  36.050   1.812
78078W        W46483  40.026  32.401   2.919
78079W        W46484  33.568  40.578  12.510
78080W        W46485  20.505  33.505   1.445
78081W        W46486  40.012  17.327   0.271
78082W        W46487  12.066  24.475   4.459
78083W        W46488  35.374  13.495   1.475
78084W        W46489   7.348  44.168  11.074
78085W        W46490   0.810   6.482  12.900
78086W        W46491   8.695   5.467   3.397
78087W        W46492  13.177  24.741  14.189
78088W        W46493   5.773  32.449  14.876
78089W        W46494  19.867  23.155   3.633
78090W        W46495   1.218  15.225   1.761
78091W        W46496  15.133  17.529  14.389
78092W        W46497  19.122  34.646   2.701
78093W        W46498  32.263  37.541   1.166
78094W        W46499  10.364  27.420  11.731
78095W        W46500  39.300  14.800   4.571
78096W        W46501  22.173  25.235  12.956
78097W        W46502  19.070  38.825   1.512
78098W        W46503   2.748  17.979   0.432
78099W        W46504   9.669   0.669   1.763
78100W        W46505  10.117  38.540  14.209
78101W        W46506  30.512   6.722  10.614
78102W        W46507  32.998  36.878   2.498
78103W        W46508  44.726  31.186   1.841
78104W        W46509  24.026  19.738   1.918
78105W        W46510   2.379   2.971   0.889
78106W        W46511  38.537  33.407  12.935
78107W        W46512  44.149   0.329   9.982
78108W        W46513  10.861   7.216   4.092
78109W        W46514  11.711  40.727   4.379
78110W        W46515  15.603  11.698  12.540
78111W        W46516  37.400  25.950   2.246
78112W        W46517  30.537  24.939  14.920
78113W        W46518  36.180  12.390   3.634
78114W        W46519  11.231  11.285   4.590
78115W        W46520  38.770  33.900  12.957
78116W        W46521  37.574  29.390   0.762
78117W        W46522  12.335  31.957  10.103
78118W        W46523   3.052  42.270   2.193
78119W        W46524   1.160  15.121  11.057
78120W        W46525  24.136  19.102   2.277
78121W        W46526  23.971  12.048   1.433
78122W        W46527  41.324  39.280  12.412
78123W        W46528   2.795   1.914  10.714
78124W        W46529  44.777   0.542   0.752
78125W        W46530  27.001  21.990  11.622
78126W        W46531  41.071  43.023  14.864
78127W        W46532  12.785  13.865  12.613
78128W        W46533   2.694  40.316  11.090
78129W        W46534  19.684  31.906   0.980
78130W        W46535  23.293  30.613   2.360
78131W        W46536  44.126  24.766   9.825
78132W        W46537  30.893   8.757  11.546
78133W        W46538  15.245  38.860   0.868
78134W        W46539  41.230  27.104  12.919
78135W        W46540  31.295  26.615   2.765
78136W        W46541  15.993  44.048  10.391
78137W        W46542  44.450  31.063   2.324
78138W        W46543  30.907   5.598   2.831
78139W        W46544  31.159   4.138  14.531
78140W        W46545  34.013  28.476  11.727
78141W        W46546   5.315  36.664  11.758
78142W        W46547   8.055  20.482   0.468
78143W        W46548  28.835  32.903   2.664
78144W        W46549  38.129   7.713   2.248
78145W        W46550  44.880   2.674  11.070
78146W        W46551  14.081  39.260   1.366
78147W        W46552  43.375  18.075   4.650
78148W        W46553   0.869  24.560  12.680
78149W        W46554  29.807  41.274   5.427
78150W        W46555  30.408  13.445   1.707
78151W        W46556  26.064  43.383  13.213
78152W        W46557   6.330  33.863  11.104
78153W        W46558  42.508  22.307  13.881
78154W        W46559   8.760  34.345  12.625
78155W        W46560  23.442  40.478   3.957
78156W        W46561  14.563   6.197   0.285
78157W        W46562   1.697   2.034  12.424
78158W        W46563  22.977   7.757  10.673
78159W        W46564  10.931  31.161   1.456
78160W        W46565  19.434   0.942   4.684
78161W        W46566   4.178  28.200  11.160
78162W        W46567  19.085  15.901  14.625
78163W        W46568  37.568  14.632  11.588
78164W        W46569  22.024  17.244   1.048
78165W        W46570  44.982  33.656  11.638
78166W        W46571  44.751  44.053  14.597
78167W        W46572   7.661  41.105   1.575
78168W        W46573  41.914  30.727  11.994
78169W        W46574  29.920  11.893  12.239
78170W        W46575  13.187   4.927  12.133
78171W        W46576  23.188  21.596   2.773
78172W        W46577  26.239  29.867   3.611
78173W        W46578  31.031   7.786  13.410
78174W        W46579  27.964  27.437  12.047
78175W        W46580  38.106  25.731  14.165
78176W        W46581  41.815  33.150  11.993
78177W        W46582  22.304  25.157  14.938
78178W        W46583   0.013  34.548   0.879
78179W        W46584   5.638   3.294  14.368
78180W        W46585  20.065  18.545  14.334
78181W        W46586   7.434  20.291  12.714
78182W        W46587   4.527   7.656  14.388
78183W        W46588  14.309   1.957   0.508
78184W        W46589  27.031  17.222   2.222
78185W        W46590   4.149  19.492  13.943
78186W        W46591  39.517  26.016  13.092
78187W        W46592  30.548  32.342  11.113
78188W        W46593  25.158  39.437  10.708
78189W        W46594  17.033  10.858  13.314
78190W        W46595  33.900   7.791  12.548
78191W        W46596   0.105  37.024  12.028
78192W        W46597   7.683  27.420  14.369
78193W        W46598  28.148  40.311   3.219
78194W        W46599  10.159  31.608   1.663
78195W        W46600  28.137  39.484   4.710
78196W        W46601  16.335  39.945  11.232
78197W        W46602  17.305  41.704   4.324
78198W        W46603  37.991  15.310   4.892
78199W        W46604  11.407  44.282   0.442
78200W        W46605  36.012   3.997  14.947
78201W        W46606  22.934  44.516  12.505
78202W        W46607  34.509  26.175  14.714
78203W        W46608  38.423  23.198  14.415
78204W        W46609  27.642  11.735  14.570
78205W        W46610   3.804  37.895   4.979
78206W        W46611  18.099  42.045  11.949
78207W        W46612  33.383  19.273   1.915
78208W        W46613  19.742  19.594   3.727
78209W        W46614  20.595   4.663   4.713
78210W        W46615   1.924   3.803  12.401
78211W        W46616  35.959  19.685  14.748
78212W        W46617  26.993  41.777   4.135
78213W        W46618  16.704  36.637   3.706
78214W        W46619  40.406  20.586   3.647
78215W        W46620  44.623  37.565   0.732
78216W        W46621  17.740  35.979  13.863
78217W        W46622   2.315  23.667   2.130
78218W        W46623  27.433   1.915  13.780
78219W        W46624  37.396   4.769  13.437
78220W        W46625  30.125  16.816   3.190
78221W        W46626  15.804  11.383   3.163
78222W        W46627  39.280  22.629   1.938
78223W        W46628  17.632   4.231   3.758
78224W        W46629  31.754   6.354  10.682
78225W        W46630  35.894   2.266   3.989
78226W        W46631  35.043  34.800   0.739
78227W        W46632  38.496   8.870  14.881
78228W        W46633   6.228  18.531  11.396
78229W        W46634  22.420   3.835  11.128
78230W        W46635   1.235   9.761   2.442
78231W        W46636  44.450  34.812   3.679
78232W        W46637  19.098  34.352  10.530
78233W        W46638  17.647  17.169   0.975
78234W        W46639   6.769  41.847  14.276
78235W        W46640  23.404  30.254  14.911
78236W        W46641  34.404  15.229  14.229
78237W        W46642  24.476  23.081  12.248
78238W        W46643  12.590   1.387  14.452
78239W        W46644  17.635   1.165   2.834
78240W        W46645  25.217  13.659  13.882
78241W        W46646   0.730  23.557   3.295
78242W        W46647  21.215  34.240   4.706
78243W        W46648  29.615   3.414   4.545
78244W        W46649  27.071  36.510   1.926
78245W        W46650  18.078  32.642  14.718
78246W        W46651  27.423  22.188   2.739
78247W        W46652   2.539   6.585   2.201
78248W        W46653   4.129  25.677  12.530
78249W        W46654  12.439  40.314   0.984
78250W        W46655  10.425  36.069   2.484
78251W        W46656  44.277   1.278   2.341
78252W        W46657   7.126  16.641   3.063
78253W        W46658  30.736  15.233   1.330
78254W        W46659  20.476  39.999   2.230
78255W        W46660   8.422  34.766   1.441
78256W        W46661  43.333  25.681  12.530
78257W        W46662  42.272  39.887  14.717
78258W        W46663  21.742  14.137  12.917
78259W        W46664   4.243  15.566   1.401
78260W        W46665  11.320  33.415  11.505
78261W        W46666  40.880   3.991   0.972
78262W        W46667  36.587  17.620  14.368
78263W        W46668  13.270  15.757   2.904
78264W        W46669   2.975  14.102  14.198
78265W        W46670  28.983  16.505   4.223
78266W        W46671  13.776   1.717   1.732
78267W        W46672  14.834  26.978   4.612
78268W        W46673   9.544  44.927  12.485
78269W        W46674  41.130   2.850  10.283
78270W        W46675   7.591  43.114   5.025
78271W        W46676  31.875  34.854  13.811
78272W        W46677  43.866   7.328  13.338
78273W        W46678  23.041  24.104   3.628
78274W        W46679  35.568  34.997   0.448
78275W        W46680  31.537  23.142   1.414
78276W        W46681  38.763  26.724   5.124
78277W        W46682   7.436  42.041   2.219
78278W        W46683  40.101   9.723  13.521
78279W        W46684   3.088  20.830  14.392
78280W        W46685  26.262  19.568  11.114
78281W        W46686  36.565  10.367   0.168
78282W        W46687  11.085   0.958   1.013
78283W        W46688  27.284  23.180  12.581
78284W        W46689  38.812  41.668   2.629
78285W        W46690  31.158   3.268   9.948
78286W        W46691   1.112   4.868  10.409
78287W        W46692  43.812  30.598  14.204
78288W        W46693  22.815  15.657   4.360
78289W        W46694  13.302  40.290   0.003
78290W        W46695  19.778  12.928  14.391
78291W        W46696  33.300  32.120   3.718
78292W        W46697   6.489  23.119   1.708
78293W        W46698  17.691  16.506  14.293
78294W        W46699  43.453  29.077   4.081
78295W        W46700   7.894   2.964   0.941
78296W        W46701  43.937   1.464   4.042
78297W        W46702  14.760  19.739  10.547
78298W        W46703   0.573  14.443   0.329
78299W        W46704   6.313   5.499   0.843
78300W        W46705  37.934  32.006  12.850
78301W        W46706  30.504  37.584  11.235
78302W        W46707  15.749  31.833  13.545
78303W        W46708  22.589  15.330  13.880
78304W        W46709  24.600   6.276   4.126
78305W        W46710   4.646  29.556  10.592
78306W        W46711  28.963   0.240  14.315
78307W        W46712   6.777  37.677  12.014
78308W        W46713   4.247  30.930  13.944
78309W        W46714  38.868   3.463   9.796
78310W        W46715  40.633   9.354   4.708
78311W        W46716  28.108  25.292  12.426
78312W        W46717  40.867  11.361  13.707
78313W        W46718  14.269  18.565  12.966
78314W        W46719  36.316  38.338  13.731
78315W        W46720  12.236   1.927   1.627
78316W        W46721   3.250  25.695  11.626
78317W        W46722  15.334   5.079   0.808
78318W        W46723  28.038  15.838  12.099
78319W        W46724  24.146  39.163  12.188
78320W        W46725  40.017  20.576  13.270
78321W        W46726  13.844  38.960  11.716
78322W        W46727  42.015  22.108   2.279
78323W        W46728   7.469  12.214  12.552
78324W        W46729  35.609  26.934  14.838
78325W        W46730  43.797  35.282   1.039
78326W        W46731  10.802  27.708   3.403
78327W        W46732  27.428  17.331  13.531
78328W        W46733  26.091  36.094   3.708
78329W        W46734   7.351  26.246   3.356
78330W        W46735   6.307   5.464   1.831
78331W        W46736   3.211  19.698  10.591
78332W        W46737  20.081  22.792   3.203
78333W        W46738  23.140  12.450  13.178
78334W        W46739  28.586   7.970   1.836
78335W        W46740  22.471   5.207  14.828
78336W        W46741  20.147  35.262   1.384
78337W        W46742  36.251  37.984   0.874
78338W        W46743  13.105  43.390  13.213
78339W        W46744  17.550  30.066   3.380
78340W        W46745   8.817  16.032  11.764
78341W        W46746  15.652  26.015  10.399
78342W        W46747  24.133  28.949   5.115
78343W        W46748  31.551  35.783  12.894
78344W        W46749  24.016  23.991   2.755
78345W        W46750  35.547   3.946   2.180
78346W        W46751  39.990  37.382  13.228
78347W        W46752  13.357   7.820   4.547
78348W        W46753  21.990  24.481   2.269
78349W        W46754  40.453   1.935  10.654
78350W        W46755  33.538   5.544  11.588
78351W        W46756  19.719  22.896  12.556
78352W        W46757   0.943  26.743   0.677
78353W        W46758   2.914  31.544  13.404
78354W        W46759  28.100  39.270   1.833
78355W        W46760   9.707   6.871  12.853
78356W        W46761  28.531  31.993   2.785
78357W        W46762  29.670  30.178  13.509
78358W        W46763  17.540  22.101  11.068
78359W        W46764  39.520  36.434   2.972
78360W        W46765  19.074  39.373  11.351
78361W        W46766   7.726  27.419  11.097
78362W        W46767   1.194   5.316  10.144
78363W        W46768  34.090  27.674   3.239
78364W        W46769  20.502  26.195   0.705
78365W        W46770  10.671  20.574   4.969
78366W        W46771  12.251  41.854  13.609
78367W        W46772  18.549  42.414   3.065
78368W        W46773  42.783  12.748   0.291
78369W        W46774  33.983  20.991  10.093
78370W        W46775  31.368  42.437  13.506
78371W        W46776  40.093   2.825   1.773
78372W        W46777  26.261  27.474  10.723
78373W        W46778  30.920  43.473  11.145
78374W        W46779   7.875   7.550   4.115
78375W        W46780  36.648  19.529   0.321
78376W        W46781  35.890  31.233  14.732
78377W        W46782   4.986  29.717  12.327
78378W        W46783   0.499  42.419   4.596
78379W        W46784  36.168   4.378   1.451
78380W        W46785  37.452  17.997  13.108
78381W        W46786   5.711  39.397   4.289
78382W        W46787   6.351  11.343  11.577
78383W        W46788  28.634  30.943   4.457
78384W        W46789  13.166  28.277  10.680
78385W        W46790   0.212  14.050   3.972
78386W        W46791  16.600  27.490  10.655
78387W        W46792  35.352   9.682  14.250
78388W        W46793  13.681  35.673   3.142
78389W        W46794  18.361  44.451  10.275
78390W        W46795  16.653  23.460   4.157
78391W        W46796  17.756  17.256   1.908
78392W        W46797   6.114   6.627  14.524
78393W        W46798  16.782   0.946  13.928
78394W        W46799  19.575   6.605  14.958
78395W        W46800  26.919  13.318   3.850
78396W        W46801   0.516  44.819  13.843
78397W        W46802  31.963  23.237   1.715
78398W        W46803  35.696   7.693   4.557
78399W        W46804  15.605   9.521   5.006
78400W        W46805  44.864   6.556  12.456
78401W        W46806  30.971  23.674   0.974
78402W        W46807  38.410  21.209  13.098
78403W        W46808  20.126  15.090   4.420
78404W        W46809  23.960  24.132   1.815
78405W        W46810  41.045   8.221   4.294
78406W        W46811  12.795   7.338  14.327
78407W        W46812  21.519  13.627   0.956
78408W        W46813   9.448  44.506  14.801
78409W        W46814  14.111  20.709   4.190
78410W        W46815  25.641  20.554  12.365
78411W        W46816  17.775  26.669   3.187
78412W        W46817  17.100  35.684  11.461
78413W        W46818   0.544  31.503   2.787
78414W        W46819  15.601  11.586   0.235
78415W        W46820  41.494  34.504  12.940
78416W        W46821  32.522   7.968   4.155
78417W        W46822   9.192  41.463  13.372
78418W        W46823   0.356  34.392   0.312
78419W        W46824  26.399  31.059  14.158
78420W        W46825  24.617   9.824   2.114
78421W        W46826  19.771  34.108  12.263
78422W        W46827  23.002  29.180  12.851
78423W        W46828  38.978  21.751  13.088
78424W        W46829  10.766  13.258   0.094
78425W        W46830  33.250   1.675  14.811
78426W        W46831   7.868  35.927   4.279
78427W        W46832  19.651   6.104   2.147
78428W        W46833  11.658  43.533  12.955
78429W        W46834  10.587   4.316  13.814
78430W        W46835  31.923   9.268  11.668
78431W        W46836  10.371   0.569  12.737
78432W        W46837  26.236   3.182   1.026
78433W        W46838   8.720  38.606  11.177
78434W        W46839  24.230   9.335   4.876
78435W        W46840  17.583  23.133   3.701
78436W        W46841  19.022  30.341   2.340
78437W        W46842  38.505  44.761   2.354
78438W        W46843  29.060  19.955   2.716
78439W        W46844  39.183  28.434  12.155
78440W        W46845  23.207  23.215  11.541
78441W        W46846  40.620  15.788   0.926
78442W        W46847  19.921  19.876  14.759
78443W        W46848  28.393   6.779   0.455
78444W        W46849  42.512  15.568  12.984
78445W        W46850  31.018  27.087  13.641
78446W        W46851   9.393  11.753  13.342
78447W        W46852  17.005  28.689  12.624
78448W        W46853  12.066   9.875  10.424
78449W        W46854   1.507  15.615  11.541
78450W        W46855   3.906  38.421  13.382
78451W        W46856  32.307   1.779  11.045
78452W        W46857  23.609  20.218   1.653
78453W        W46858  16.280  18.585  14.340
78454W        W46859  14.739  21.430   2.628
78455W        W46860  26.981  32.000   4.719
78456W        W46861  14.641  24.013  12.178
78457W        W46862  42.786   3.495  13.686
78458W        W46863   9.406  26.259  14.006
78459W        W46864  12.863  34.893  11.926
78460W        W46865  26.015  17.362   3.972
78461W        W46866   3.905  42.719  13.847
78462W        W46867  41.023  40.886   3.301
78463W        W46868  17.332  15.828  13.935
78464W        W46869  37.332  26.286   1.875
78465W        W46870  36.486   8.561  13.982
78466W        W46871   1.717  19.845  14.259
78467W        W46872  10.217  23.437  12.501
78468W        W46873  13.842  13.708   2.824
78469W        W46874   8.910  10.322   4.077
78470W        W46875  19.193   1.436  11.506
78471W        W46876  26.481   9.622  12.459
78472W        W46877  25.918   5.378  14.162
78473W        W46878  23.547  16.027   1.454
78474W        W46879   1.851  30.854  11.843
78475W        W46880  35.876   7.625  11.174
78476W        W46881   5.416  20.237   4.383
78477W        W46882  22.808  33.088  13.915
78478W        W46883   8.561  15.741   0.933
78479W        W46884  43.089  38.284  12.809
78480W        W46885  24.230  42.862  13.252
78481W        W46886  17.004  25.568  14.302
78482W        W46887  24.716  10.307  11.675
78483W        W46888   1.052  30.146  14.011
78484W        W46889   2.985  29.396   2.292
78485W        W46890  36.540   7.218  11.547
78486W        W46891   9.304   8.254  14.020
78487W        W46892  30.001  26.479   1.756
78488W        W46893  41.903   8.062  12.137
78489W        W46894  14.130  36.294  11.944
78490W        W46895  26.447   9.649  10.751
78491W        W46896   9.618  21.532  13.249
78492W        W46897   6.406  25.469   4.939
78493W        W46898  22.153   8.693  14.850
78494W        W46899  18.793   3.698  11.576
78495W        W46900   6.924   1.295   0.961
78496W        W46901  35.009  19.719   4.531
78497W        W46902  29.432  19.520   2.904
78498W        W46903  32.870  38.997  11.535
78499W        W46904   5.289  11.803   1.361
78500W        W46905  27.007   3.695  13.067
78501W        W46906  24.206   3.853   4.143
78502W        W46907  14.003  31.181  14.214
78503W        W46908  25.358  23.546  13.371
78504W        W46909   6.649  29.582  13.508
78505W        W46910  30.280  21.820  14.406
78506W        W46911  28.669  12.582  11.039
78507W        W46912  40.028  34.531   0.476
78508W        W46913  35.317  27.539  11.845
78509W        W46914  41.945  43.923   0.002
78510W        W46915  20.325   3.903  12.431
78511W        W46916  37.497  24.419   0.751
78512W        W46917  17.090  37.791  14.471
78513W        W46918  40.594   4.954  14.876
78514W        W46919  44.949  28.637   4.245
78515W        W46920  19.715  25.119  10.703
78516W        W46921  32.992  39.004   3.882
78517W        W46922  27.558  27.765  12.003
78518W        W46923   1.816  35.214   3.102
78519W        W46924   8.998  40.959  11.129
78520W        W46925  14.778  14.163  13.508
78521W        W46926  35.284  22.162  13.574
78522W        W46927  42.593  42.434   0.364
78523W        W46928  27.916  13.244   2.838
78524W        W46929  14.819  36.817  14.946
78525W        W46930  36.518  40.339   4.658
78526W        W46931   9.646  34.353   1.012
78527W        W46932  34.831   2.480  12.575
78528W        W46933  44.341  10.510  13.586
78529W        W46934  30.038  40.072  13.450
78530W        W46935   2.634  41.249   3.881
78531W        W46936   6.197  33.928   1.166
78532W        W46937  32.280  20.502  11.115
78533W        W46938  39.061   3.742   1.767
78534W        W46939  35.998  43.563   2.481
78535W        W46940  32.795  21.674  14.256
78536W        W46941  25.029  13.170   2.629
78537W        W46942  44.578   9.819  10.735
78538W        W46943  10.385  28.611  12.496
78539W        W46944  10.157  27.060   5.346
78540W        W46945  24.646   6.897  11.625
78541W        W46946  39.827  20.229  12.962
78542W        W46947   9.384  10.127   0.405
78543W        W46948  35.631  12.154   4.508
78544W        W46949  39.147  38.893  13.928
78545W        W46950  18.655  42.197   1.711
78546W        W46951  34.132  24.863   2.903
78547W        W46952  10.724  13.501   3.703
78548W        W46953   7.431   6.803  12.055
78549W        W46954   3.888  14.641   2.170
78550W        W46955  38.369  41.433   2.900
78551W        W46956  22.054  37.630   1.525
78552W        W46957  14.733  42.230   4.641
78553W        W46958  43.298  33.091  14.551
78554W        W46959  25.684   9.870   3.326
78555W        W46960   6.879  40.754   1.359
78556W        W46961  21.319  38.075  14.780
78557W        W46962   6.883  36.851   4.203
78558W        W46963   0.948  32.194  14.973
78559W        W46964   9.186   2.451   2.588
78560W        W46965  25.774   3.872  12.573
78561W        W46966   8.997  32.978  10.577
78562W        W46967   6.253  30.192  11.059
78563W        W46968   4.323  44.666   0.042
78564W        W46969   7.009  34.026   1.639
78565W        W46970  15.680   9.557   1.879
78566W        W46971  20.078  41.237   1.367
78567W        W46972  43.016  25.077  12.019
78568W        W46973  17.698  40.071   1.717
78569W        W46974  27.235  15.074  11.871
78570W        W46975   4.690  31.698  11.602
78571W        W46976  12.742  42.507   3.841
78572W        W46977  11.224  28.720   4.556
78573W        W46978   4.393  35.283   1.288
78574W        W46979  30.668  18.609   2.582
78575W        W46980  40.354  29.957   4.918
78576W        W46981  15.869  37.877   0.010
78577W        W46982  15.770  40.444   2.708
78578W        W46983  15.340  19.300   9.958
78579W        W46984  28.153  24.260  11.732
78580W        W46985  16.475  21.188   1.828
78581W        W46986  12.190  41.281   2.660
78582W        W46987  21.471  39.612  10.712
78583W        W46988  29.256  14.620  11.933
78584W        W46989   1.891  22.276   2.890
78585W        W46990  25.841  23.953   4.581
78586W        W46991  36.097  25.497  14.948
78587W        W46992  25.556   2.692  10.687
78588W        W46993   0.526   3.817   1.735
78589W        W46994  37.880  16.663  14.609
78590W        W46995  39.992  16.339  12.201
78591W        W46996  11.711  39.268  14.466
78592W        W46997  27.499  16.771   1.427
78593W        W46998  35.055  41.058  12.106
78594W        W46999  43.888  28.439   3.606
78595W        W47000  35.942  29.597  11.554
78596W        W47001  30.995  26.622   1.376
78597W        W47002  38.674  43.379  10.682
78598W        W47003  37.704  19.612   2.399
78599W        W47004  29.624  31.249  14.364
78600W        W47005  32.851  36.699   3.804
78601W        W47006  15.137  16.861  11.593
78602W        W47007   5.327  24.445   3.657
78603W        W47008  42.448  31.595  14.379
78604W        W47009   3.201  10.204  10.632
78605W        W47010   9.319  33.482   3.248
78606W        W47011  38.308   2.177   1.681
78607W        W47012  13.306   0.281   4.749
78608W        W47013   0.172  18.529   4.189
78609W        W47014   3.166  24.251  14.786
78610W        W47015   2.401   4.458   3.083
78611W        W47016  37.718   8.766   1.459
78612W        W47017  44.845  21.319   3.084
78613W        W47018  22.545   2.446  14.552
78614W        W47019   6.202  26.824  11.157
78615W        W47020  10.642  27.904  13.401
78616W        W47021  39.034  43.020  10.789
78617W        W47022  13.552  37.103  11.073
78618W        W47023  13.132  24.898   3.206
78619W        W47024  21.031  24.602  10.995
78620W        W47025   3.865  13.537   3.189
78621W        W47026  28.876  43.348   5.542
78622W        W47027  38.386  16.322   0.305
78623W        W47028  28.024   0.118  13.979
78624W        W47029  10.174   6.844   4.580
78625W        W47030  33.018  39.825   4.460
78626W        W47031  36.038  25.691   4.727
78627W        W47032  33.227  22.673  11.968
78628W        W47033  39.823  16.676   2.926
78629W        W47034  42.455  21.743   1.262
78630W        W47035   2.892  40.970   1.401
78631W        W47036   5.323  25.077  11.858
78632W        W47037  28.992   2.129   1.289
78633W        W47038  33.456  21.552  14.887
78634W        W47039  33.456  30.165  12.362
78635W        W47040   8.403  28.518   3.803
78636W        W47041  11.279  17.506  12.441
78637W        W47042  32.359  25.571   4.050
78638W        W47043   7.234   9.618   4.304
78639W        W47044   6.602  18.769  11.865
78640W        W47045  43.304  24.639   2.459
78641W        W47046  15.110  34.101   2.681
78642W        W47047   3.726  27.043   1.994
78643W        W47048  14.082  30.664  13.808
78644W        W47049   6.314  44.842   4.536
78645W        W47050   1.904  33.572  11.254
78646W        W47051  43.693  23.126  14.285
78647W        W47052  12.718  31.993   3.758
78648W        W47053   3.667  32.664  13.485
78649W        W47054  38.801  41.486  13.438
78650W        W47055  15.385  44.394  11.202
78651W        W47056  36.294   8.852   0.296
78652W        W47057  29.123  42.172  12.281
78653W        W47058  23.798  16.708  14.409
78654W        W47059  25.658   9.064   3.705
78655W        W47060  12.768  28.092  13.685
78656W        W47061   3.450   9.354   1.901
78657W        W47062   8.949  36.900   2.218
78658W        W47063   0.894  42.094   4.521
78659W        W47064  29.729  33.389  14.974
78660W        W47065  41.742  34.163   1.885
78661W        W47066  11.820   0.921  13.083
78662W        W47067  44.525   1.930  14.733
78663W        W47068   0.495  37.422   4.669
78664W        W47069  24.260  30.623   3.150
78665W        W47070  12.553  24.360   3.684
78666W        W47071  28.847   9.346  12.042
78667W        W47072  12.338  30.114   9.441
78668W        W47073  32.875   1.110  13.888
78669W        W47074  14.175  11.892  12.412
78670W        W47075  27.985  27.685   0.867
78671W        W47076   9.519  36.883   1.399
78672W        W47077  13.079  38.096  13.045
78673W        W47078   4.807   7.880  12.865
78674W        W47079   8.115  23.516   2.218
78675W        W47080  18.869  29.701  12.455
78676W        W47081  15.129   9.363  12.554
78677W        W47082  29.804  16.316  12.637
78678W        W47083  24.102   2.429  13.449
78679W        W47084  27.612   5.759  11.498
78680W        W47085  15.543  41.710  13.922
78681W        W47086  10.685   6.945   2.756
78682W        W47087  11.633  29.281   0.166
78683W        W47088  36.592   4.489   0.355
78684W        W47089  40.945  32.798   3.133
78685W        W47090  35.791  42.817   1.407
78686W        W47091  21.272  40.827  11.406
78687W        W47092  21.040  29.884  14.687
78688W        W47093   5.986   5.530  10.586
78689W        W47094  31.907  27.388  10.775
78690W        W47095  40.003  32.051   4.623
78691W        W47096  31.559  17.595  13.803
78692W        W47097  18.811  24.693   3.653
78693W        W47098   2.689  20.016   2.204
78694W        W47099  35.526  39.911   4.914
78695W        W47100  38.549  18.883   2.761
78696W        W47101   1.690   4.277  12.441
78697W        W47102   6.341  36.540  13.574
78698W        W47103  39.269  35.039  14.795
78699W        W47104  13.086  39.326  11.633
78700W        W47105   0.337  19.026   4.887
78701W        W47106   8.998  42.999   0.893
78702W        W47107  14.240   1.682   3.550
78703W        W47108  32.178  35.745   4.083
78704W        W47109   1.248  27.878   1.849
78705W        W47110   9.822  42.058   4.004
78706W        W47111  32.698   6.336  11.671
78707W        W47112  31.095  27.860   2.722
78708W        W47113   0.259  30.213   4.566
78709W        W47114   9.948  13.976  11.599
78710W        W47115  43.913  29.864   3.061
78711W        W47116  21.191  16.105  13.469
78712W        W47117   7.233  19.557   3.381
78713W        W47118  25.095  40.920  12.492
78714W        W47119  14.777  43.332   1.511
78715W        W47120  40.997   6.414  12.401
78716W        W47121  20.733  44.354  10.446
78717W        W47122  12.564  24.128  11.112
78718W        W47123  32.177  18.102   1.734
78719W        W47124   3.811  39.292   4.584
78720W        W47125  19.160  20.937   3.337
78721W        W47126   4.765  42.407  12.994
78722W        W47127  29.866  15.774  14.733
78723W        W47128   5.756  18.151   1.809
78724W        W47129  26.319  32.225  14.808
78725W        W47130  19.724   8.862  11.168
78726W        W47131   9.282   1.965   1.789
78727W        W47132  21.094   5.912   0.694
78728W        W47133   9.954  31.511   2.149
78729W        W47134  13.589  32.311   1.919
78730W        W47135  42.481   3.250   0.765
78731W        W47136  22.641  35.907   0.269
78732W        W47137  10.700  37.551   1.580
78733W        W47138  39.472  22.999   4.643
78734W        W47139   7.222  35.457   0.745
78735W        W47140   8.914  40.293   0.745
78736W        W47141  36.560  39.408  11.211
78737W        W47142  27.188  43.030   4.656
78738W        W47143  17.854  16.543  11.201
78739W        W47144   0.418  25.512  14.564
78740W        W47145  34.186  40.331  11.534
78741W        W47146   5.519  13.958   0.657
78742W        W47147   4.319  30.432   0.814
78743W        W47148   9.415   1.804   2.600
78744W        W47149  12.300  39.017   4.894
78745W        W47150  27.910  14.108   2.652
78746W        W47151  35.520  20.668   2.781
78747W        W47152  39.996  12.762   0.923
78748W        W47153  42.517  16.061  12.846
78749W        W47154  32.023  31.822  12.839
78750W        W47155  40.942  11.102   3.562
78751W        W47156  44.249  30.843   0.515
78752W        W47157  24.731   2.312   1.338
78753W        W47158  14.149  22.535   4.566
78754W        W47159  17.738  17.036  13.352
78755W        W47160   8.684   4.763  12.139
78756W        W47161  28.542  35.582   2.348
78757W        W47162  44.881   7.146   3.266
78758W        W47163  11.398   0.566  10.542
78759W        W47164  26.599  44.065  13.284
78760W        W47165   8.422  40.535   0.331
78761W        W47166   0.330   9.190  10.587
78762W        W47167  20.871   4.778  14.874
78763W        W47168   5.926  23.767  13.054
78764W        W47169   5.149   8.614  10.749
78765W        W47170  10.750  31.110  14.292
78766W        W47171   5.935  35.847   3.708
78767W        W47172  11.387  44.612  14.212
78768W        W47173  14.920  34.919   0.723
78769W        W47174  14.112  24.744   1.852
78770W        W47175  24.207   2.174   1.299
78771W        W47176   0.317  23.678   3.632
78772W        W47177  27.427  27.847  14.786
78773W        W47178  20.712  43.841  13.510
78774W        W47179  23.741  35.858   1.024
78775W        W47180  28.371  34.575   3.656
78776W        W47181  23.748  26.603  11.515
78777W        W47182  30.697  44.525   4.432
78778W        W47183   3.814   4.666   2.897
78779W        W47184   7.867  25.602   1.288
78780W        W47185  21.306  43.662   4.633
78781W        W47186  32.608  43.807   0.996
78782W        W47187  34.096  19.530   1.336
78783W        W47188  34.118  10.128   1.207
78784W        W47189  10.615  43.261   1.742
78785W        W47190  28.099  17.181   1.758
78786W        W47191  18.015  16.569   4.441
78787W        W47192  30.970  29.954  13.513
78788W        W47193   6.813  23.673   3.404
78789W        W47194  39.777  24.945   1.158
78790W        W47195  11.525  39.352   2.319
78791W        W47196  42.098  42.529   0.362
78792W        W47197  12.259  34.478   4.597
78793W        W47198  14.211  44.074   0.437
78794W        W47199  40.628  19.839  13.891
78795W        W47200  43.391   9.551  13.585
78796W        W47201  44.071  19.301  14.738
78797W        W47202  16.249  30.900   1.694
78798W        W47203  34.923  34.854  13.880
78799W        W47204  13.512   8.234   0.214
78800W        W47205  42.155   3.120  10.285
78801W        W47206  43.275  23.260   0.000
78802W        W47207  17.734  18.721  14.816
78803W        W47208  34.828  30.222  13.373
78804W        W47209   6.876   9.718   2.799
78805W        W47210  37.046   7.744   4.688
78806W        W47211  11.629  23.697   4.739
78807W        W47212  16.184  24.662  13.021
78808W        W47213  10.130  15.346   3.535
78809W        W47214  41.655  33.047   1.384
78810W        W47215  12.638  43.864   4.244
78811W        W47216  38.504  16.233   1.928
78812W        W47217  41.741  28.924   3.731
78813W        W47218  34.149   4.163   2.829
78814W        W47219  30.771  20.010   2.907
78815W        W47220  10.451  32.274   2.156
78816W        W47221  26.422  35.928  12.551
78817W        W47222   2.964  28.941   3.988
78818W        W47223   8.834  25.951  12.715
78819W        W47224  23.188  37.302   0.230
78820W        W47225  35.399  37.090  13.735
78821W        W47226  29.544  18.577   4.526
78822W        W47227  16.110   4.291   0.421
78823W        W47228  12.967  15.144   2.217
78824W        W47229  34.848  43.839   2.719
78825W        W47230  20.473  42.371   3.604
78826W        W47231  29.438  17.060   1.175
78827W        W47232  37.407  26.102  10.740
78828W        W47233   0.892  12.441   4.410
78829W        W47234   5.878  34.085  10.872
78830W        W47235   9.623  36.317   0.880
78831W        W47236  15.395  15.566  13.901
78832W        W47237  39.382  32.487   3.762
78833W        W47238  41.245  13.275  12.163
78834W        W47239   8.797  12.110   2.920
78835W        W47240  18.226  36.457   0.843
78836W        W47241  30.959  18.656   0.335
78837W        W47242   1.725  38.658  14.417
78838W        W47243  22.023   4.172   1.359
78839W        W47244  10.954  33.649  10.707
78840W        W47245  12.229  36.949  14.797
78841W        W47246   2.448  26.641  12.909
78842W        W47247   9.470  31.449  12.558
78843W        W47248  10.373  19.125   4.961
78844W        W47249  13.568  20.105  14.045
78845W        W47250   1.372   6.603   1.287
78846W        W47251  25.300  25.067  13.045
78847W        W47252  21.970  33.939   1.350
78848W        W47253   2.221  24.114   2.761
78849W        W47254   3.836   7.630  10.857
78850W        W47255  42.440   5.069   0.529
78851W        W47256  35.361   7.465  11.145
78852W        W47257  27.922  34.946   1.785
78853W        W47258  16.795  15.869  10.813
78854W        W47259  10.312  43.300   3.799
78855W        W47260   8.299  37.767   2.809
78856W        W47261   8.745   8.655   2.753
78857W        W47262  39.107  38.043   4.906
78858W        W47263  37.598   9.836   2.638
78859W        W47264   3.835  41.622  14.600
78860W        W47265  37.401  44.726  13.478
78861W        W47266  44.455  17.565  11.061
78862W        W47267   4.806  43.157   3.038
78863W        W47268  13.131  42.830   0.764
78864W        W47269  26.905  23.692   1.214
78865W        W47270  35.900  30.540  11.396
78866W        W47271  42.263  15.252  13.867
78867W        W47272  30.746  17.698  11.017
78868W        W47273   8.115  44.448  10.384
78869W        W47274   6.327   0.358   4.561
78870W        W47275   3.379  41.090   1.343
78871W        W47276  40.325   1.768   0.013
78872W        W47277   4.310  25.893   1.153
78873W        W47278  40.222  19.229  11.450
78874W        W47279  32.681   4.156   3.793
78875W        W47280  13.149  22.666   4.264
78876W        W47281   5.807  31.599   0.359
78877W        W47282   9.703  27.685   2.111
78878W        W47283  16.145  18.299  12.131
78879W        W47284  26.565  39.933   9.783
78880W        W47285  30.871  35.238   0.625
78881W        W47286   1.613  33.093  14.414
78882W        W47287  26.451   1.297   4.419
78883W        W47288   1.391  21.812  14.936
78884W        W47289  23.026  20.390   4.330
78885W        W47290  22.521  29.462   4.564
78886W        W47291  43.604  44.856   1.759
78887W        W47292  16.703  31.121   4.181
78888W        W47293   5.065   8.820  12.866
78889W        W47294  18.458  21.972   3.577
78890W        W47295  11.348   5.914   0.330
78891W        W47296  20.997  34.145   3.975
78892W        W47297  12.549   2.709   3.145
78893W        W47298   0.553   7.669   2.323
78894W        W47299  26.705  23.551  12.053
78895W        W47300  26.144  20.593   1.982
78896W        W47301  12.401  22.027   4.625
78897W        W47302  34.672   1.694  10.355
78898W        W47303  17.591  11.346   5.016
78899W        W47304  20.927  19.495   4.168
78900W        W47305  30.764  42.720  11.959
78901W        W47306  16.816  42.848  14.491
78902W        W47307  35.958  17.385   3.566
78903W        W47308  13.786  31.835   3.562
78904W        W47309  20.718   1.769   2.231
78905W        W47310   9.783   0.519   3.763
78906W        W47311  22.757  25.192   3.199
78907W        W47312  16.513   7.689   2.733
78908W        W47313   2.678  32.260   3.372
78909W        W47314  11.625  30.089  14.539
78910W        W47315  31.654  39.253   2.754
78911W        W47316  42.698  26.714   0.500
78912W        W47317  37.871   4.535  13.391
78913W        W47318  24.180  31.482   0.902
78914W        W47319  44.102  11.885  14.745
78915W        W47320  15.851  21.184  12.416
78916W        W47321  32.652  41.942   0.557
78917W        W47322  17.717  33.536   4.591
78918W        W47323  25.681  20.666   2.787
78919W        W47324  26.836  15.925   2.669
78920W        W47325  18.075  33.117   1.342
78921W        W47326   5.059  32.655   0.924
78922W        W47327  10.156  28.118   1.689
78923W        W47328   2.654  15.060  14.595
78924W        W47329  39.501  24.491   4.764
78925W        W47330  33.670  35.870  13.504
78926W        W47331  23.169  27.995  10.747
78927W        W47332  32.139  11.695   3.638
78928W        W47333  40.455  38.647   2.393
78929W        W47334  35.964  24.056   4.743
78930W        W47335  30.203   8.172  13.563
78931W        W47336  25.738  28.691  11.487
78932W        W47337  25.459  26.191   4.006
78933W        W47338  22.573  32.371   0.850
78934W        W47339  10.377   2.785   4.119
78935W        W47340   6.949   5.193   4.335
78936W        W47341  36.412  32.534  14.401
78937W        W47342  16.177  37.090   1.437
78938W        W47343  10.784  23.214   1.931
78939W        W47344   5.305  35.744  12.721
78940W        W47345  43.837  39.996   4.640
78941W        W47346   2.731  23.353   2.307
78942W        W47347  31.387  20.615   2.284
78943W        W47348  14.216  41.430   0.420
78944W        W47349   7.015  21.522  13.368
78945W        W47350  13.327  23.179  11.636
78946W        W47351  35.097  14.896   1.846
78947W        W47352   5.913   8.364  12.887
78948W        W47353  37.849   0.813   1.377
78949W        W47354  30.780  22.976   3.822
78950W        W47355  21.884  39.799  13.172
78951W        W47356  28.871  18.077   1.851
78952W        W47357  38.777  31.841   1.699
78953W        W47358   9.352  22.759  12.574
78954W        W47359   0.235   8.626  11.935
78955W        W47360  36.387   6.697  13.631
78956W        W47361   6.292   9.371   1.415
78957W        W47362   4.462  32.363  13.956
78958W        W47363   1.313  24.799  14.077
78959W        W47364  20.745   1.891  13.362
78960W        W47365  19.073  26.679   3.080
78961W        W47366  30.072   5.158  12.900
78962W        W47367  26.970   5.408   3.014
78963W        W47368  30.102  23.085   4.893
78964W        W47369   3.754  40.830   3.131
78965W        W47370  26.227  10.252   0.231
78966W        W47371   1.988  30.172  13.877
78967W        W47372  44.842  20.594   4.699
78968W        W47373  31.038  28.978  13.329
78969W        W47374   7.866  28.690  13.485
78970W        W47375   9.343  21.185   2.165
78971W        W47376  23.069  18.722   2.937
78972W        W47377  12.638  35.610  12.558
78973W        W47378   4.200  38.315  13.804
78974W        W47379   0.563  10.408   3.409
78975W        W47380  14.879  18.292  14.389
78976W        W47381  31.099  31.534   3.967
78977W        W47382   3.127  44.301  11.558
78978W        W47383  13.646   0.565  11.330
78979W        W47384  17.955  23.176   3.354
78980W        W47385   2.840   2.706  14.409
78981W        W47386  25.039  28.710  12.501
78982W        W47387  27.656   5.261   1.379
78983W        W47388  42.809   0.323   1.868
78984W        W47389  29.646   9.160   0.515
78985W        W47390  32.709  15.449  12.501
78986W        W47391   1.939  40.348   3.140
78987W        W47392  44.838   4.223  10.877
78988W        W47393  16.389  37.005   3.215
78989W        W47394  26.445   3.520  10.651
78990W        W47395   0.558  35.909   0.469
78991W        W47396   5.369  40.351  12.419
78992W        W47397  23.582  21.453  10.439
78993W        W47398   4.855  16.557  13.056
78994W        W47399  28.287   8.623   1.409
78995W        W47400   8.591  25.573  13.954
78996W        W47401  29.916  36.902   2.101
78997W        W47402  14.345  18.772  11.960
78998W        W47403  28.311   5.259   4.588
78999W        W47404  35.851  33.567  13.510
79000W        W47405   1.655  20.031   3.694
79001W        W47406  11.787  10.413   1.353
79002W        W47407  27.355   2.825  11.621
79003W        W47408  28.637  11.739   0.633
79004W        W47409  11.834  12.490   3.503
79005W        W47410  24.057  25.678  11.870
79006W        W47411  19.666  29.635  10.720
79007W        W47412  22.108  33.476   2.821
79008W        W47413  19.085   1.245   3.376
79009W        W47414  19.056  36.381  14.507
79010W        W47415   4.831  12.139   2.744
79011W        W47416  28.062  19.579  14.521
79012W        W47417   4.648  35.216   2.498
79013W        W47418  17.810  34.501   2.759
79014W        W47419  12.204  32.155  13.885
79015W        W47420   4.689  18.020  11.391
79016W        W47421  24.686  12.749  13.757
79017W        W47422   0.533  27.111   1.250
79018W        W47423  42.871  24.479  12.853
79019W        W47424  19.801  33.035   1.709
79020W        W47425  11.274   8.896   1.826
79021W        W47426  30.822   9.864   0.524
79022W        W47427  31.479  31.381   3.133
79023W        W47428  12.142   1.634   1.151
79024W        W47429   2.844  19.366  13.684
79025W        W47430  24.533   0.539   2.798
79026W        W47431  42.376   4.968   4.651
79027W        W47432  31.998  19.235   0.934
79028W        W47433   6.473  43.404   0.173
79029W        W47434  23.691   6.928  13.606
79030W        W47435  25.518  21.161  10.927
79031W        W47436   9.107  41.458   0.397
79032W        W47437  24.016  41.299   2.759
79033W        W47438  27.209  10.480   0.884
79034W        W47439   3.574  24.419   2.172
79035W        W47440  13.283  29.973   0.399
79036W        W47441  22.061  42.107  11.176
79037W        W47442  39.075  44.953   3.191
79038W        W47443   3.291  34.325   2.174
79039W        W47444  40.362  32.613   2.209
79040W        W47445   2.872  32.379   2.889
79041W        W47446  25.564  25.258   1.152
79042W        W47447  34.973   4.299   4.318
79043W        W47448   6.434  24.990  14.880
79044W        W47449  37.373  41.043  14.382
79045W        W47450  32.018   0.746  14.767
79046W        W47451  32.974  40.548  11.131
79047W        W47452  39.080  27.802   2.802
79048W        W47453  15.301   0.896   2.388
79049W        W47454  14.260  39.920  11.606
79050W        W47455  39.899  11.625  14.389
79051W        W47456   1.329  29.423  13.827
79052W        W47457  42.526   1.308   2.312
79053W        W47458   1.544   3.329  14.277
79054W        W47459  37.535  37.489  10.417
79055W        W47460   9.693  18.881  11.974
79056W        W47461  17.706   4.368  14.110
79057W        W47462  37.020  18.090   3.040
79058W        W47463  39.217   5.700  10.256
79059W        W47464  11.150   3.563   9.821
79060W        W47465  30.635  26.939   0.452
79061W        W47466  38.523  16.104   2.445
79062W        W47467  18.155   7.681   1.477
79063W        W47468  24.625  42.042  14.014
79064W        W47469  14.405  34.921   1.676
79065W        W47470  24.066  39.902  11.025
79066W        W47471   4.543  13.815   0.721
79067W        W47472   5.592  22.183  11.170
79068W        W47473  23.600  26.454  13.337
79069W        W47474  28.967   3.868   2.881
79070W        W47475  16.134  11.218   4.889
79071W        W47476  39.881  32.666  11.555
79072W        W47477  18.070  25.408   0.801
79073W        W47478  17.541  21.042   0.371
79074W        W47479   6.607  26.115   0.449
79075W        W47480  32.214  36.557   5.017
79076W        W47481  43.003   0.411  14.444
79077W        W47482  29.026  18.620   3.779
79078W        W47483  36.743   9.133  11.990
79079W        W47484   6.643   2.902  12.417
79080W        W47485  24.033  18.408   2.884
79081W        W47486  14.218   4.535  11.221
79082W        W47487  27.194  35.361   1.435
79083W        W47488  28.615  44.801  10.567
79084W        W47489  41.026  36.778  10.781
79085W        W47490   8.801   5.767  12.140
79086W        W47491  40.236  38.850   0.625
79087W        W47492  24.159  26.991   4.446
79088W        W47493  39.662  42.145   0.694
79089W        W47494  16.287  39.832  11.724
79090W        W47495  28.835  30.481  14.297
79091W        W47496  43.019  40.570   3.275
79092W        W47497   1.412  12.173   3.326
79093W        W47498  24.147  34.542   3.121
79094W        W47499  19.728  38.430   4.622
79095W        W47500  18.988  40.907   2.461
79096W        W47501  35.077   2.656  14.293
79097W        W47502  18.376  16.095  13.468
79098W        W47503  35.379  36.115  13.125
79099W        W47504   6.945  22.239  11.187
79100W        W47505  32.909  26.548  12.558
79101W        W47506   7.455  17.809   0.124
79102W        W47507  43.299  43.292  12.097
79103W        W47508  36.644   5.553   0.879
79104W        W47509  20.014  23.627   2.988
79105W        W47510  28.460  25.056   2.948
79106W        W47511  36.447  26.210   0.389
79107W        W47512  27.325   6.722  12.578
79108W        W47513  25.929  28.941  11.998
79109W        W47514   9.652   5.536  14.063
79110W        W47515  18.622  12.819  10.383
79111W        W47516  23.789  40.872   4.632
79112W        W47517   2.908  32.031   2.452
79113W        W47518  21.840  42.538   1.931
79114W        W47519   9.683  24.536   0.877
79115W        W47520   7.503  32.654  11.582
79116W        W47521  38.958  44.207   0.805
79117W        W47522  21.229  21.434   2.859
79118W        W47523  32.231  33.308   3.184
79119W        W47524   7.332  25.695   4.115
79120W        W47525  10.998  16.642   4.202
79121W        W47526   4.367  35.020   4.417
79122W        W47527  17.869   7.058  10.229
79123W        W47528  17.709  32.554   2.447
79124W        W47529   5.318  32.942  12.586
79125W        W47530  13.603   1.251  14.402
79126W        W47531  28.572  12.084  11.086
79127W        W47532  26.804  25.448   2.736
79128W        W47533  40.591  27.147  10.770
79129W        W47534  17.151  31.537  13.406
79130W        W47535  15.181  13.856  12.359
79131W        W47536   7.368   1.289  11.404
79132W        W47537   2.129  36.002  14.394
79133W        W47538  27.969   7.302   4.651
79134W        W47539  29.897   7.324   1.925
79135W        W47540   9.759   3.897   4.549
79136W        W47541   0.385  33.517  10.815
79137W        W47542  39.302  26.496   2.637
79138W        W47543  40.284  15.071   3.813
79139W        W47544  17.881  29.662  14.741
79140W        W47545  23.864   3.256  14.732
79141W        W47546  37.842  33.935   3.261
79142W        W47547  23.833  21.690  11.110
79143W        W47548  35.970  34.116   3.029
79144W        W47549  30.419  10.682  12.004
79145W        W47550  10.307  26.457   0.355
79146W        W47551  29.040   2.957  12.139
79147W        W47552  13.195  36.352  11.021
79148W        W47553  20.513  22.440  12.330
79149W        W47554  25.517  24.435   4.922
79150W        W47555   5.309  28.117  14.336
79151W        W47556  36.039  26.211  13.863
79152W        W47557   7.407  28.875  14.880
79153W        W47558  38.814   9.202   3.620
79154W        W47559  16.560  32.064  10.734
79155W        W47560  31.977  20.166   2.573
79156W        W47561   2.234  19.677  10.171
79157W        W47562  31.569  33.156   1.700
79158W        W47563   2.969  14.549  12.423
79159W        W47564   3.432   9.760   3.422
79160W        W47565  10.363   3.392  10.121
79161W        W47566  22.111  38.987  12.206
79162W        W47567  15.801   0.508  12.425
79163W        W47568   1.364   1.073   3.312
79164W        W47569  24.027  39.408   4.252
79165W        W47570  19.138  13.752  11.609
79166W        W47571  44.957  41.504   0.363
79167W        W47572   6.611  26.605   3.635
79168W        W47573  17.861   5.318   4.844
79169W        W47574  31.107   1.565   1.750
79170W        W47575  24.419  42.438   4.193
79171W        W47576  44.749  18.082   4.389
79172W        W47577   5.163   8.832  14.563
79173W        W47578  11.966  11.267  14.353
79174W        W47579  36.378  13.238   2.238
79175W        W47580  18.245  14.926   4.205
79176W        W47581  26.602  15.647   4.223
79177W        W47582  36.902   3.254  10.199
79178W        W47583  12.595  15.610   0.595
79179W        W47584  34.878   6.226   2.719
79180W        W47585  21.653   8.619  12.493
79181W        W47586  44.428  39.129   4.111
79182W        W47587  28.540  31.988  12.291
79183W        W47588  11.086   0.068  12.515
79184W        W47589  36.080  24.554  12.979
79185W        W47590  43.674  22.955   0.819
79186W        W47591  22.431  29.116   3.295
79187W        W47592  28.986  25.975  11.194
79188W        W47593  16.926   2.111  10.185
79189W        W47594  37.707  32.667  12.069
79190W        W47595  40.343  23.976  13.900
79191W        W47596  32.553  37.893  11.010
79192W        W47597  33.694  10.249  10.254
79193W        W47598  32.608  43.294   3.219
79194W        W47599  16.761  33.027  13.497
79195W        W47600  24.911  22.558   0.807
79196W        W47601  31.668  21.053   2.427
79197W        W47602  34.660  35.327   2.449
79198W        W47603   4.135   3.281  14.329
79199W        W47604  26.563  35.751  11.714
79200W        W47605  17.269  37.386   3.688
79201W        W47606  42.404  41.544  12.987
79202W        W47607  44.466  27.465  11.025
79203W        W47608   4.697  22.767  12.866
79204W        W47609   6.498  30.086   3.860
79205W        W47610  10.800  25.233  11.646
79206W        W47611  20.067  22.563  13.484
79207W        W47612  11.605  40.882   3.910
79208W        W47613  10.385  44.380   0.326
79209W        W47614  28.296   7.837  11.629
79210W        W47615  41.356  43.316  14.432
79211W        W47616  43.945  30.568  10.925
79212W        W47617  14.838  33.232   3.135
79213W        W47618  12.814   9.641  10.711
79214W        W47619  37.713  40.028  11.636
79215W        W47620  26.251  43.990   4.153
79216W        W47621   4.320   8.403   1.958
79217W        W47622  43.686  32.906  14.846
79218W        W47623  17.188  42.368   2.717
79219W        W47624  36.532  32.382   0.450
79220W        W47625  18.560   0.856  10.661
79221W        W47626   5.132   1.211  12.430
79222W        W47627  22.321  36.626  12.314
79223W        W47628  22.781  12.714  10.687
79224W        W47629  21.682  32.010  12.064
79225W        W47630   4.910  14.200   0.724
79226W        W47631  16.029  16.827  12.536
79227W        W47632  28.895  27.068   4.464
79228W        W47633  20.305  14.205   1.282
79229W        W47634  42.230  28.132  14.286
79230W        W47635  30.701  19.067   3.169
79231W        W47636  10.888  26.518  13.573
79232W        W47637  19.510  43.863  14.749
79233W        W47638  42.157  42.885  11.882
79234W        W47639   0.515   7.191   2.077
79235W        W47640  12.631  21.125  12.981
79236W        W47641  21.593  32.192   2.793
79237W        W47642   3.772   6.159  13.885
79238W        W47643  25.067   6.201  11.574
79239W        W47644  23.021  13.869   2.628
79240W        W47645   1.832   9.394   1.320
79241W        W47646  37.918  11.707  10.856
79242W        W47647  36.896  26.453  12.368
79243W        W47648  34.908  15.564   2.598
79244W        W47649  13.906   2.965   3.920
79245W        W47650   1.819  38.916  13.066
79246W        W47651  28.175   1.393  11.953
79247W        W47652  43.515  35.888   1.944
79248W        W47653   6.851  13.632   4.503
79249W        W47654  17.330  26.242  10.985
79250W        W47655  25.656  39.475  12.442
79251W        W47656  33.026   0.059  11.574
79252W        W47657  10.308  28.411   2.850
79253W        W47658  41.523  35.160  11.583
79254W        W47659  16.504  31.202   3.575
79255W        W47660   5.348  41.920  13.303
79256W        W47661  28.407  29.446   3.408
79257W        W47662  26.575  37.285   0.231
79258W        W47663   7.744  38.087  12.965
79259W        W47664  32.137   3.812   1.104
79260W        W47665  42.787  17.044  13.607
79261W        W47666  31.568  12.768  14.963
79262W        W47667   2.471  27.160  12.856
79263W        W47668   4.795  21.757  12.402
79264W        W47669   3.417  25.538   1.909
79265W        W47670   4.257  15.214  11.105
79266W        W47671  44.657  38.885  10.358
79267W        W47672  19.052   0.895   4.329
79268W        W47673  30.533  13.560   0.266
79269W        W47674  35.334  43.258   3.255
79270W        W47675  23.607  18.944   2.149
79271W        W47676  28.548   4.965  11.987
79272W        W47677   0.054  40.797   0.977
79273W        W47678  11.078   9.370   2.903
79274W        W47679  22.686  18.206   3.321
79275W        W47680  14.913  22.606   2.722
79276W        W47681  11.570   5.263  10.430
79277W        W47682  25.566   7.808   0.563
79278W        W47683  26.519  37.885  12.642
79279W        W47684   1.949  38.348   1.330
79280W        W47685  10.537  38.577   1.289
79281W        W47686  41.946  24.548  10.618
79282W        W47687   6.405  40.742   0.734
79283W        W47688  40.637  42.150  14.473
79284W        W47689  40.055   2.277  10.718
79285W        W47690  10.754  23.147   1.428
79286W        W47691  37.625  17.587   0.356
79287W        W47692   5.590  37.450   0.911
79288W        W47693  20.767  21.080  14.084
79289W        W47694  17.788   3.762   4.539
79290W        W47695  40.597  30.617  12.516
79291W        W47696  14.602  31.627   0.281
79292W        W47697  10.187  31.929   1.253
79293W        W47698  29.124  12.823   4.512
79294W        W47699  13.747  27.894   1.294
79295W        W47700   6.914  19.042  11.040
79296W        W47701  16.831   0.112   2.357
79297W        W47702  34.825  37.218   3.838
79298W        W47703  27.464  36.975   0.425
79299W        W47704  12.646  30.612  10.590
79300W        W47705  31.879  11.184  14.361
79301W        W47706  24.451  38.335   2.425
79302W        W47707   9.172  22.666  14.465
79303W        W47708  37.663   6.788   4.213
79304W        W47709  14.617   8.925  11.830
79305W        W47710  32.391   7.273   3.298
79306W        W47711  28.554   2.253  10.649
79307W        W47712  13.843  29.487   0.594
79308W        W47713  19.617  24.715  13.267
79309W        W47714  31.369  41.917  11.936
79310W        W47715  29.197   4.428   4.566
79311W        W47716  32.558   5.928  10.596
79312W        W47717   2.222  34.294  12.966
79313W        W47718  20.737  13.163  14.298
79314W        W47719  20.496  13.378   3.151
79315W        W47720  34.057  14.855  11.105
79316W        W47721  24.047  32.328  14.519
79317W        W47722   3.787  36.433   2.621
79318W        W47723   2.501  35.832   3.167
79319W        W47724  27.462  39.429  11.001
79320W        W47725  21.926  16.717   0.843
79321W        W47726  35.312  20.295   4.674
79322W        W47727  42.455  12.230  14.419
79323W        W47728  18.631  30.983  12.014
79324W        W47729  19.829  40.936   4.868
79325W        W47730  26.009   4.986  13.348
79326W        W47731  30.409   7.727   3.730
79327W        W47732  39.932  31.079  14.466
79328W        W47733  33.912  34.625  10.937
79329W        W47734  33.553   5.595  10.628
79330W        W47735   3.550   2.368   3.356
79331W        W47736  42.268  34.010   1.832
79332W        W47737  32.087   3.717  11.936
79333W        W47738  37.773   5.928  14.780
79334W        W47739  20.084   5.726  13.045
79335W        W47740   6.237  29.622  12.907
79336W        W47741   0.785  44.379  13.993
79337W        W47742  20.427  34.918   4.271
79338W        W47743  44.745  37.395  11.961
79339W        W47744   4.948   6.868  13.706
79340W        W47745  22.301  42.875  11.933
79341W        W47746  31.147  22.249  12.090
79342W        W47747  25.428  40.588   2.182
79343W        W47748   5.236  30.544   0.284
79344W        W47749  11.642  37.815  13.898
79345W        W47750  44.414   1.235   2.869
79346W        W47751  18.052  23.789   4.075
79347W        W47752   3.089  40.073   4.555
79348W        W47753  14.358  43.769   0.034
79349W        W47754  35.517  37.596  13.663
79350W        W47755  37.433  43.317  13.760
79351W        W47756  33.122  30.136  14.055
79352W        W47757  17.275  14.181  13.228
79353W        W47758   3.331  27.105   2.353
79354W        W47759  17.308   5.210  12.424
79355W        W47760  35.850  28.624  14.177
79356W        W47761  30.045  38.588   1.163
79357W        W47762  19.270  15.783  10.650
79358W        W47763  25.288   9.435  11.690
79359W        W47764  10.647  40.941   3.733
79360W        W47765  30.613   8.690  14.868
79361W        W47766  14.278   4.325  14.941
79362W        W47767  24.238  35.572   0.293
79363W        W47768   6.661  10.003   3.248
79364W        W47769  14.818  25.628  11.437
79365W        W47770   5.926   4.332  13.854
79366W        W47771   8.842   7.150  13.931
79367W        W47772   2.859   2.296  13.521
79368W        W47773  14.158  21.657   0.975
79369W        W47774  23.161  15.105  14.517
79370W        W47775  10.613  31.440   4.120
79371W        W47776  13.218   4.945   2.159
79372W        W47777  36.816  43.740  12.466
79373W        W47778  23.258  28.903   3.534
79374W        W47779  31.945  25.178  10.828
79375W        W47780   3.825   6.780  10.861
79376W        W47781  19.693  29.948   3.338
79377W        W47782  18.310   0.357   2.830
79378W        W47783   0.338  28.167   3.833
79379W        W47784  39.060   4.153   3.175
79380W        W47785  39.061  15.274  10.179
79381W        W47786  44.037  26.720  12.684
79382W        W47787   3.881   0.343   2.669
79383W        W47788  12.609  43.457  13.388
79384W        W47789   3.124  18.681   4.977
79385W        W47790   7.923  11.193  13.179
79386W        W47791  13.907  12.341  13.030
79387W        W47792  40.368  15.127  14.215
79388W        W47793  21.627  14.358   3.197
79389W        W47794  30.403   4.863  13.146
79390W        W47795   8.468   5.714   0.713
79391W        W47796   0.765  27.579  13.239
79392W        W47797   3.986  29.174   3.827
79393W        W47798  13.682   4.528   2.769
79394W        W47799  34.824  18.464  14.292
79395W        W47800  27.100  29.592   0.884
79396W        W47801  11.154  14.859   0.989
79397W        W47802  44.440   9.239  14.591
79398W        W47803   0.060  15.057   1.300
79399W        W47804  23.641  32.551  11.746
79400W        W47805  23.222  24.405   0.913
79401W        W47806  38.505  20.941   3.603
79402W        W47807  40.703  41.429  14.399
79403W        W47808  21.739  42.522  11.209
79404W        W47809   3.889  40.549  14.467
79405W        W47810  12.250  28.560   9.871
79406W        W47811   8.313  38.502  14.021
79407W        W47812   8.163  42.855  10.725
79408W        W47813   6.850  27.198  12.021
79409W        W47814  37.033  21.790   0.384
79410W        W47815  21.407  38.757   3.737
79411W        W47816   1.182  10.617   3.222
79412W        W47817  17.036  42.286   1.260
79413W        W47818   2.733  26.276   2.055
79414W        W47819  19.718  34.935   2.333
79415W        W47820  18.772   5.295  10.694
79416W        W47821   1.458  30.585   4.715
79417W        W47822   8.610  31.667   0.688
79418W        W47823   4.985  12.554  10.394
79419W        W47824  16.304  32.062   4.106
79420W        W47825  32.831  42.012   2.237
79421W        W47826  27.825  16.373  14.909
79422W        W47827   1.952  40.838   2.402
79423W        W47828  23.103   8.453  10.769
79424W        W47829  40.863  31.827   2.157
79425W        W47830  39.869  16.762  10.661
79426W        W47831  24.195  20.985  14.914
79427W        W47832  43.444  20.348   0.865
79428W        W47833  18.044  32.168   2.263
79429W        W47834  33.475  18.607   0.927
79430W        W47835  41.398  31.537  10.736
79431W        W47836  12.384   8.032  12.174
79432W        W47837  26.536   6.710  11.293
79433W        W47838  23.737   6.859  14.996
79434W        W47839  12.258  40.895  12.852
79435W        W47840   6.374  17.013   3.837
79436W        W47841  34.628  15.790  12.002
79437W        W47842   4.483  32.686   0.846
79438W        W47843  41.967  23.555  10.603
79439W        W47844  33.102   6.210   1.881
79440W        W47845  31.007   2.863  11.972
79441W        W47846  23.454  35.542  13.435
79442W        W47847  35.336   2.412   0.840
79443W        W47848  17.665   3.958   3.321
79444W        W47849   3.333  19.076   0.856
79445W        W47850  30.988   3.393   2.900
79446W        W47851   7.822  33.325  12.580
79447W        W47852  14.039  18.540   3.310
79448W        W47853  28.608  12.344   1.375
79449W        W47854  41.238  30.096  12.067
79450W        W47855  18.232  26.681  13.513
79451W        W47856   9.550  30.019  11.076
79452W        W47857   6.893  34.575   1.334
79453W        W47858  23.116  40.147   3.774
79454W        W47859  37.522  44.870   4.466
79455W        W47860   5.363  11.604  13.414
79456W        W47861  36.726  12.951  13.824
79457W        W47862  12.735  43.961   1.190
79458W        W47863  30.219  26.502  13.369
79459W        W47864  39.042  15.573   4.996
79460W        W47865  25.081  34.611   3.416
79461W        W47866  11.123  10.614  10.818
79462W        W47867  28.722  23.763  14.982
79463W        W47868  31.448  17.753   2.806
79464W        W47869  29.507  19.206  11.637
79465W        W47870  39.362  40.870   2.773
79466W        W47871   9.670  26.178  11.297
79467W        W47872  23.299  25.088   3.270
79468W        W47873   6.742  32.960  12.448
79469W        W47874   9.844  25.245  12.926
79470W        W47875   6.736  10.026  11.463
79471W        W47876  33.727  34.455   3.413
79472W        W47877   6.970   7.467  12.865
79473W        W47878  27.429  43.059   1.945
79474W        W47879  26.437  10.345   2.704
79475W        W47880  11.694   0.959   1.768
79476W        W47881  39.442  22.740   3.275
79477W        W47882  11.244  27.455  11.603
79478W        W47883   4.237  15.643  12.025
79479W        W47884  31.798  28.191   4.193
79480W        W47885   6.397  20.059   0.765
79481W        W47886  15.341  32.527  13.267
79482W        W47887   3.972  31.950  12.043
79483W        W47888  12.817  36.338  10.681
79484W        W47889  25.716  37.910  10.590
79485W        W47890  37.327  14.763   3.397
79486W        W47891  44.766  27.409  11.776
79487W        W47892  30.697  42.279  12.910
79488W        W47893  42.801  13.237  13.065
79489W        W47894  35.375  26.214   2.939
79490W        W47895  25.509  34.606  11.127
79491W        W47896  26.419  27.280   1.809
79492W        W47897  34.583  44.212  14.554
79493W        W47898  16.211  27.716   1.244
79494W        W47899   5.581  20.089   1.274
79495W        W47900  11.256   2.854  11.492
79496W        W47901  34.791   3.289  13.835
79497W        W47902  30.006  29.781  13.434
79498W        W47903   6.356  44.456   3.290
79499W        W47904   3.321   5.321  12.914
79500W        W47905  28.931  37.920   2.331
79501W        W47906   7.921  33.266   2.270
79502W        W47907  34.644  13.257   1.158
79503W        W47908  19.483  42.469   0.981
79504W        W47909  43.713  42.058  13.135
79505W        W47910  36.363  22.408   4.182
79506W        W47911  21.537  18.232   4.007
79507W        W47912  26.728   6.384   2.826
79508W        W47913  29.974   1.762  13.840
79509W        W47914  30.609  11.746  10.760
79510W        W47915  35.428  30.985  13.957
79511W        W47916  43.306   4.234   3.631
79512W        W47917  16.826  20.234  13.310
79513W        W47918   2.365  40.468  10.348
79514W        W47919  40.560  41.714   2.893
79515W        W47920  33.087  26.883   4.059
79516W        W47921   2.382  41.611   3.231
79517W        W47922  38.786   8.966  13.444
79518W        W47923  27.927  20.966  11.501
79519W        W47924  11.943  39.496  14.913
79520W        W47925   0.784  43.080  11.389
79521W        W47926  14.253  37.138   0.401
79522W        W47927   5.827  17.216   2.146
79523W        W47928  17.673  27.461   4.448
79524W        W47929  23.814   2.342  10.859
79525W        W47930   1.858  39.094   4.791
79526W        W47931   9.256  24.511   2.238
79527W        W47932  31.500  17.907  13.385
79528W        W47933  40.964  19.064  12.044
79529W        W47934   6.281  28.881   2.165
79530W        W47935   7.144  16.252   2.323
79531W        W47936  25.122  40.806  14.464
79532W        W47937  27.104  40.799  12.556
79533W        W47938  13.231   9.579   4.091
79534W        W47939  16.084   0.318  14.277
79535W        W47940  28.643  39.167  14.352
79536W        W47941   8.981  14.294   5.027
79537W        W47942  15.083  12.290  11.615
79538W        W47943   0.537  13.199   3.881
79539W        W47944  12.562  23.253   2.358
79540W        W47945  36.630  17.988   3.342
79541W        W47946  21.983  39.998   3.163
79542W        W47947  44.868  38.080   1.899
79543W        W47948  39.487   7.307   0.455
79544W        W47949  23.686   9.140   3.588
79545W        W47950  33.419  23.531   1.819
79546W        W47951  42.723  27.515  13.459
79547W        W47952  20.500  25.380   3.703
79548W        W47953  11.274  43.997  10.637
79549W        W47954  30.790  33.259   0.953
79550W        W47955  12.333  43.096   3.171
79551W        W47956  26.033  39.463   4.981
79552W        W47957  18.772  31.209  14.978
79553W        W47958   2.122  32.042  10.156
79554W        W47959  44.931  24.715  14.480
79555W        W47960  24.126  44.348   0.506
79556W        W47961  25.378  32.435  10.539
79557W        W47962  23.484   0.783   2.384
79558W        W47963  20.867  10.826  11.373
79559W        W47964   1.285  34.406  12.114
79560W        W47965  41.799  14.080   2.829
79561W        W47966   7.966  44.990   3.754
79562W        W47967   6.638  19.042  14.820
79563W        W47968  21.529   6.771   0.923
79564W        W47969  18.201  36.148  11.935
79565W        W47970  17.847  44.277   1.742
79566W        W47971   2.332  14.503  14.012
79567W        W47972  11.699   5.280  11.405
79568W        W47973  33.898  19.809   1.751
79569W        W47974  26.204  19.639  13.508
79570W        W47975   2.208  13.516  13.935
79571W        W47976  35.423   3.199   1.672
79572W        W47977  43.270  15.293   3.605
79573W        W47978   6.109  23.773   0.624
79574W        W47979  27.327   1.842   0.825
79575W        W47980  19.762  35.292  11.055
79576W        W47981  25.922  31.333  13.321
79577W        W47982   3.437  18.260   4.799
79578W        W47983  41.945  38.869  12.827
79579W        W47984  13.145  36.744   4.579
79580W        W47985  38.604  10.653   3.680
79581W        W47986  31.110   0.285   4.814
79582W        W47987  27.923  23.990  14.415
79583W        W47988  30.758  23.276   0.720
79584W        W47989  19.898  14.376  14.472
79585W        W47990  14.848  44.461   2.309
79586W        W47991  25.192  36.920  13.513
79587W        W47992  27.886  27.634   2.771
79588W        W47993  29.741  23.524   4.174
79589W        W47994  38.977  15.018  12.549
79590W        W47995  35.371  26.277   1.556
79591W        W47996  27.646  20.245   3.671
79592W        W47997  18.853  26.046   0.440
79593W        W47998  34.614  29.480   2.593
79594W        W47999  16.813   5.639   9.911
79595W        W48000  37.388   8.115   3.320
79596W        W48001  31.340   1.141   3.523
79597W        W48002   5.841  10.581   3.033
79598W        W48003  13.123   3.046   1.361
79599W        W48004  42.985   9.827  13.354
79600W        W48005  12.304  34.417   1.896
79601W        W48006  31.987  24.695   2.995
79602W        W48007  26.255  38.733   1.894
79603W        W48008  20.322  11.159  13.846
79604W        W48009  10.170  37.159  14.974
79605W        W48010   9.242  18.768   1.222
79606W        W48011  11.741  34.190  14.999
79607W        W48012  16.632  34.031   1.642
79608W        W48013  19.755   4.263   4.775
79609W        W48014  29.704  11.811   0.436
79610W        W48015  18.526  28.540   1.031
79611W        W48016  39.297  23.998  12.592
79612W        W48017   3.201  11.299   0.887
79613W        W48018  43.848  32.136  12.018
79614W        W48019  39.249  26.031   2.399
79615W        W48020   1.127  37.656   1.354
79616W        W48021  30.893  26.465  14.049
79617W        W48022  44.821  39.755  11.025
79618W        W48023   6.474   5.111   4.537
79619W        W48024  28.514  18.185  13.908
79620W        W48025  41.512   0.853   4.566
79621W        W48026  19.426   3.371  14.036
79622W        W48027  35.639  14.255   1.281
79623W        W48028   7.884  19.059   0.355
79624W        W48029  36.880   5.368   4.021
79625W        W48030   4.594  41.907   4.784
79626W        W48031  12.985  31.990  14.263
79627W        W48032  43.015   6.471   4.186
79628W        W48033  20.047   5.633  11.511
79629W        W48034  42.741   8.399   0.951
79630W        W48035  24.230  20.287   2.229
79631W        W48036  44.142  15.781   4.686
79632W        W48037  18.537  43.871   0.041
79633W        W48038  20.677  10.293   4.300
79634W        W48039   7.368  40.838  13.472
79635W        W48040  12.945  17.832   1.691
79636W        W48041  44.340  28.506  11.974
79637W        W48042  19.639   6.948   4.986
79638W        W48043  26.650  28.468  11.514
79639W        W48044   0.082  23.602  12.616
79640W        W48045   4.372  30.739   0.376
79641W        W48046  36.628  33.423  13.950
79642W        W48047  38.896  17.171  12.913
79643W        W48048  32.809  30.541  13.918
79644W        W48049   3.484  31.957   4.094
79645W        W48050  37.072   6.258   4.077
79646W        W48051  37.915  27.913   3.318
79647W        W48052  43.549  20.064  13.485
79648W        W48053  31.348  32.483  11.539
79649W        W48054   7.733  26.207  10.405
79650W        W48055  10.259   2.989  12.171
79651W        W48056  37.160  23.170  11.628
79652W        W48057  22.698   2.455  10.457
79653W        W48058  31.048  19.340   4.100
79654W        W48059   9.718  36.086   4.575
79655W        W48060   5.915  11.700   0.358
79656W        W48061   9.191  16.141  10.823
79657W        W48062  29.046  41.222  11.876
79658W        W48063  39.997  43.960  14.909
79659W        W48064   5.428  25.150  13.356
79660W        W48065  36.408  30.692  13.535
79661W        W48066  20.593  23.700  12.486
79662W        W48067   3.799  13.732   3.671
79663W        W48068  24.220  33.127  11.257
79664W        W48069   1.367  19.123   3.850
79665W        W48070  42.047   7.799   3.257
79666W        W48071  12.601  33.628  11.076
79667W        W48072  30.701  39.843  10.258
79668W        W48073  10.554   0.420   4.121
79669W        W48074  36.956  29.616   4.257
79670W        W48075  22.118  33.151   0.890
79671W        W48076   4.000  41.260   1.434
79672W        W48077  28.806  43.355  10.692
79673W        W48078  32.612  12.798  11.558
79674W        W48079  24.606  25.709   0.385
79675W        W48080  25.236  13.881   1.464
79676W        W48081  20.746  16.170  12.667
79677W        W48082  28.635  40.609   0.385
79678W        W48083  34.130   4.340   0.465
79679W        W48084  26.094  20.247   0.269
79680W        W48085   5.987  16.364   4.478
79681W        W48086  36.390  39.890  12.166
79682W        W48087  26.421  40.035  13.370
79683W        W48088  38.539  19.353   1.415
79684W        W48089  33.502  30.826   0.217
79685W        W48090  26.978  13.416  13.546
79686W        W48091  39.592   8.340   2.203
79687W        W48092   1.821   4.447  11.585
79688W        W48093  27.434   7.244   3.330
79689W        W48094   4.867  13.785  14.721
79690W        W48095   4.706   1.520  12.433
79691W        W48096  13.792   3.734   4.501
79692W        W48097  37.089  19.381  11.183
79693W        W48098  43.889   8.167   4.479
79694W        W48099  20.815   0.280   1.375
79695W        W48100  44.273   5.277   2.169
79696W        W48101  41.783  14.381   0.842
79697W        W48102  41.774  25.103  12.003
79698W        W48103  44.576  39.911   1.719
79699W        W48104  39.894  35.381   0.943
79700W        W48105   1.045  44.557  12.368
79701W        W48106  29.246   9.742  14.284
79702W        W48107   6.366  23.013   0.390
79703W        W48108  29.388  20.156   1.268
79704W        W48109  12.209  19.707  14.831
79705W        W48110   8.700  38.496   2.871
79706W        W48111  11.739  26.591   2.622
79707W        W48112  19.203  34.467  14.254
79708W        W48113  36.040  40.415   3.773
79709W        W48114  13.042  33.986   4.402
79710W        W48115  12.359  35.096  14.186
79711W        W48116  22.283  18.757  13.537
79712W        W48117  44.859  20.229   0.972
79713W        W48118  16.222   1.882   3.744
79714W        W48119  42.533  39.751  12.034
79715W        W48120  40.888  17.261  12.424
79716W        W48121   6.043  42.982  11.044
79717W        W48122  13.892  43.568  14.910
79718W        W48123  33.284  32.102  12.325
79719W        W48124  18.324  14.152   0.305
79720W        W48125  19.939  38.413   2.752
79721W        W48126  37.363  24.009  10.737
79722W        W48127   6.238  23.600   1.651
79723W        W48128  34.467  27.155  12.028
79724W        W48129  11.531   4.654   1.376
79725W        W48130  25.436  17.629  12.626
79726W        W48131  11.535  36.470   4.126
79727W        W48132  35.121  18.082  10.628
79728W        W48133  16.123  44.726  10.318
79729W        W48134  18.750  33.967   1.197
79730W        W48135  21.300  22.630   2.180
79731W        W48136   4.474  19.960  13.888
79732W        W48137  11.233  17.298   2.302
79733W        W48138   1.777   2.628  12.946
79734W        W48139  23.473  13.982   0.361
79735W        W48140   9.393  24.006   2.262
79736W        W48141  22.550   9.602   1.416
79737W        W48142  32.164  39.110  12.595
79738W        W48143  36.151  12.233   1.204
79739W        W48144  21.394  16.480   3.671
79740W        W48145  44.985  16.450  13.895
79741W        W48146  33.577  20.886   1.479
79742W        W48147  41.771   7.765  12.991
79743W        W48148  42.827   1.307  12.852
79744W        W48149  26.606  20.568   0.910
79745W        W48150  13.333  28.822   4.624
79746W        W48151  24.252  31.529  11.168
79747W        W48152   5.255   4.090  11.892
79748W        W48153  42.953  37.348   0.957
79749W        W48154   0.467  27.142  11.145
79750W        W48155  36.152   8.209  12.894
79751W        W48156  40.385  25.203  11.773
79752W        W48157  26.082  14.410   2.710
79753W        W48158  34.118  35.446  14.765
79754W        W48159  25.006   0.572   4.562
79755W        W48160  24.510  13.985   0.352
79756W        W48161  40.705   4.037  11.613
79757W        W48162  18.547  30.652  11.622
79758W        W48163  20.234  12.654  13.606
79759W        W48164  26.506  43.424   1.128
79760W        W48165  24.867  14.750  14.473
79761W        W48166   9.466  17.183   1.744
79762W        W48167  20.133   7.909  11.207
79763W        W48168  28.498   3.642   2.770
79764W        W48169   4.454  12.418  11.941
79765W        W48170  33.479  43.030  13.597
79766W        W48171   6.927  31.106  11.177
79767W        W48172  31.740  26.374  11.794
79768W        W48173  37.363   9.960  11.121
79769W        W48174   1.190  23.335   3.320
79770W        W48175  10.559   3.915   1.593
79771W        W48176   0.244  12.215  11.506
79772W        W48177   5.955   8.044  10.562
79773W        W48178  19.265  38.779   2.874
79774W        W48179  43.431  33.418   2.207
79775W        W48180   1.719  20.652  10.662
79776W        W48181  16.221  34.250   1.400
79777W        W48182   0.228  44.167  12.178
79778W        W48183  40.592  19.720   3.813
79779W        W48184  41.958   0.871   3.192
79780W        W48185   2.067  23.484   4.388
79781W        W48186  13.262   2.404   0.270
79782W        W48187  24.897   1.302  13.053
79783W        W48188  18.223  39.569  11.503
79784W        W48189  33.114  21.042   1.221
79785W        W48190  34.614   1.868  11.617
79786W        W48191  32.125  43.304  11.063
79787W        W48192  14.379  33.002  11.186
79788W        W48193  16.325   3.301  12.061
79789W        W48194  18.659  19.672  14.015
79790W        W48195  35.061  15.739  12.876
79791W        W48196  37.226  30.234   0.856
79792W        W48197  37.899  13.288  11.007
79793W        W48198   1.903  10.342  13.919
79794W        W48199  42.611  32.495   0.528
79795W        W48200  22.507   7.296  11.458
79796W        W48201  20.647  22.005   0.142
79797W        W48202   3.479  13.635  14.397
79798W        W48203  38.858  29.825  13.476
79799W        W48204  37.985   8.128   0.216
79800W        W48205  28.981  28.432  13.385
79801W        W48206  13.576  25.276  10.196
79802W        W48207  20.964  30.985   1.717
79803W        W48208  20.062  17.521  11.929
79804W        W48209  25.256   2.991   0.919
79805W        W48210  10.503  18.607   0.665
79806W        W48211  39.486  13.213   3.812
79807W        W48212   1.896  39.201  11.594
79808W        W48213  38.199  42.880  12.081
79809W        W48214  12.162   7.989  14.844
79810W        W48215  38.646   5.885  13.478
79811W        W48216   3.281  24.078  13.403
79812W        W48217  16.786   0.884   4.549
79813W        W48218  27.768  17.293   3.335
79814W        W48219   8.088  42.427   1.671
79815W        W48220  10.727  29.510   2.259
79816W        W48221  36.463   1.546   2.683
79817W        W48222  33.134  22.724   4.707
79818W        W48223  25.961  10.226   4.545
79819W        W48224  39.112   6.213  12.963
79820W        W48225  33.080  24.004  14.840
79821W        W48226  10.236  15.713   3.892
79822W        W48227   0.141  22.670  14.505
79823W        W48228  11.937   6.353   2.262
79824W        W48229  40.936   9.018   3.803
79825W        W48230  31.623  14.284  10.753
79826W        W48231  41.768   5.508  13.566
79827W        W48232  12.880  22.076  12.481
79828W        W48233  33.932  16.202  12.439
79829W        W48234   6.654  20.601   4.041
79830W        W48235  34.427   5.979  14.071
79831W        W48236  16.721   8.143   1.865
79832W        W48237   4.516  24.622   0.790
79833W        W48238  18.134  24.231   4.883
79834W        W48239  22.956  11.478  14.444
79835W        W48240  21.762  25.830   0.233
79836W        W48241   6.761  40.116  13.942
79837W        W48242   8.949  26.603  11.507
79838W        W48243  25.740  22.599   0.047
79839W        W48244   9.347  28.553  12.482
79840W        W48245  34.147  29.655  11.092
79841W        W48246   2.365  29.219   0.758
79842W        W48247  29.851  21.193   0.358
79843W        W48248  35.396   5.854   2.392
79844W        W48249  32.447  12.726  10.532
79845W        W48250  18.649  38.553  14.877
79846W        W48251  25.117  27.529   1.180
79847W        W48252  24.495   9.394   1.857
79848W        W48253   5.704   2.334  13.027
79849W        W48254  23.209  41.906  14.805
79850W        W48255   9.416  13.780  13.329
79851W        W48256  17.684  37.104   4.279
79852W        W48257  24.132  10.744  14.867
79853W        W48258   2.739   8.855   2.227
79854W        W48259  18.208  19.977  13.406
79855W        W48260  25.791  23.148   1.784
79856W        W48261  24.501   1.533   3.769
79857W        W48262  18.389  23.729   2.319
79858W        W48263  34.778  11.374  12.052
79859W        W48264  13.428  24.006   3.476
79860W        W48265  36.603  28.877   2.143
79861W        W48266  38.847  34.889  13.023
79862W        W48267  31.327   9.787  14.884
79863W        W48268  40.767  40.518  12.582
79864W        W48269   3.173  26.438  12.136
79865W        W48270  39.012  16.110  10.637
79866W        W48271  11.822  24.724  12.545
79867W        W48272  23.149  36.906  10.520
79868W        W48273   4.902  33.346  11.924
79869W        W48274  26.768  33.970   3.703
79870W        W48275  24.113   0.810  13.282
79871W        W48276   8.434   3.825   4.286
79872W        W48277   5.603  42.505  11.950
79873W        W48278  42.548  13.113  12.633
79874W        W48279  21.122  34.512  11.240
79875W        W48280   5.197   5.219  12.764
79876W        W48281  17.199   9.380  12.538
79877W        W48282   2.420  23.374   5.035
79878W        W48283  28.268  35.322  12.414
79879W        W48284  14.803  23.912  14.812
79880W        W48285   7.166   8.731   3.604
79881W        W48286  44.861   3.006   2.439
79882W        W48287  36.947  33.917  12.477
79883W        W48288  24.871  27.123  14.072
79884W        W48289   7.160   8.117   2.091
79885W        W48290  15.376  35.519   1.013
79886W        W48291  24.662  23.457  11.521
79887W        W48292  19.805  26.551  13.483
79888W        W48293  17.249   8.726   4.016
79889W        W48294  11.676  25.459  13.046
79890W        W48295  13.182  36.353  12.959
79891W        W48296  10.823  23.214  11.676
79892W        W48297  33.027  20.533   3.685
79893W        W48298  42.518  20.671   2.405
79894W        W48299  13.327   1.512   9.983
79895W        W48300  27.695   9.229  11.052
79896W        W48301  24.512  10.764  10.640
79897W        W48302  11.259  28.779  14.449
79898W        W48303  39.086  21.329   1.419
79899W        W48304  34.936  36.701   0.623
79900W        W48305  12.120  33.783  11.134
79901W        W48306  22.986  29.646  14.028
79902W        W48307  22.974  32.423   1.736
79903W        W48308  29.933  28.720  11.547
79904W        W48309  28.534   7.803  14.758
79905W        W48310  17.995  39.089   3.935
79906W        W48311  13.242  20.766   3.985
79907W        W48312   4.838  24.226   4.207
79908W        W48313  20.019  12.225  12.320
79909W        W48314  34.497  28.430   3.416
79910W        W48315  32.228  16.686   0.626
79911W        W48316  36.984  40.907   0.369
79912W        W48317  21.806  22.674  11.526
79913W        W48318  19.126  40.537  12.054
79914W        W48319  19.978  41.435  13.510
79915W        W48320  19.057  16.636   1.464
79916W        W48321  41.958  13.082   1.386
79917W        W48322  39.914   7.667   4.298
79918W        W48323   7.122  32.847   1.444
79919W        W48324   2.637  44.312  11.767
79920W        W48325  26.448  44.412  12.439
79921W        W48326  27.193  42.420  13.115
79922W        W48327  22.535  25.995   2.682
79923W        W48328  14.732  10.825   2.886
79924W        W48329  14.635   9.875  13.493
79925W        W48330   4.741   8.992  14.852
79926W        W48331  30.978  19.168   2.744
79927W        W48332  38.482  29.933   1.067
79928W        W48333   2.776  20.086  11.427
79929W        W48334  11.372  25.143  10.429
79930W        W48335  27.454  31.322  11.102
79931W        W48336  25.273  12.654  12.421
79932W        W48337  11.446   3.042   4.137
79933W        W48338  12.294  38.982  13.918
79934W        W48339  40.319  10.905   4.021
79935W        W48340  12.315  11.128  10.691
79936W        W48341  21.876   6.326   0.861
79937W        W48342  22.125  11.615   3.276
79938W        W48343  43.996  36.908   1.243
79939W        W48344  31.915   4.345   4.612
79940W        W48345  15.586  23.010  13.816
79941W        W48346   6.318  36.797  14.892
79942W        W48347  11.754  14.560   3.224
79943W        W48348  15.845  24.987  14.306
79944W        W48349  11.784   3.621  11.051
79945W        W48350  19.723  22.576  10.269
79946W        W48351  41.284  23.858  14.771
79947W        W48352  16.795   1.610   0.661
79948W        W48353  38.617  22.759   0.426
79949W        W48354  15.636  23.286   0.735
79950W        W48355  26.057  20.439   2.463
79951W        W48356  40.301  22.949  13.695
79952W        W48357  11.746  28.851   2.419
79953W        W48358   5.898  37.521  14.433
79954W        W48359  39.335  37.437   3.227
79955W        W48360  32.463  19.778  12.953
79956W        W48361  14.889  19.626  14.431
79957W        W48362  36.715  34.991  12.482
79958W        W48363  18.295  21.261  13.065
79959W        W48364  23.443  31.431  10.780
79960W        W48365  23.421  14.727   1.835
79961W        W48366  32.025  24.419  14.009
79962W        W48367   2.003  16.314   3.164
79963W        W48368  25.703  40.130  11.008
79964W        W48369  14.553  34.265  14.417
79965W        W48370  41.276  17.267  12.792
79966W        W48371  37.758  34.730   9.916
79967W        W48372  25.291  17.303   3.311
79968W        W48373  34.878  20.700  12.161
79969W        W48374  11.321  43.927   1.846
79970W        W48375  14.362  18.536  11.454
79971W        W48376   9.376   1.272   4.752
79972W        W48377  23.156  29.374  14.932
79973W        W48378  31.993   9.160   4.305
79974W        W48379  17.090  33.523   0.893
79975W        W48380  18.266   5.941  11.113
79976W        W48381  33.940  10.916  11.989
79977W        W48382  28.973   2.652   1.412
79978W        W48383   9.722  15.545  13.798
79979W        W48384  20.001  18.594  11.121
79980W        W48385  37.033  28.985   3.293
79981W        W48386   9.826  11.886  12.504
79982W        W48387  34.075  32.590  12.221
79983W        W48388   4.514  35.095   2.973
79984W        W48389  38.726  20.774  10.692
79985W        W48390  26.150  21.315   3.228
79986W        W48391  33.135  24.931  13.858
79987W        W48392  19.278   5.303   3.095
79988W        W48393  40.740  29.880   3.470
79989W        W48394  25.453  14.875  11.584
79990W        W48395  39.814   8.261  14.950
79991W        W48396  19.178   0.215  11.282
79992W        W48397  35.278  20.798   4.570
79993W        W48398  10.734  17.411   2.644
79994W        W48399  32.294   9.259  14.835
79995W        W48400  37.763  26.048  11.627
79996W        W48401  39.860  24.711   2.472
79997W        W48402  29.805  12.754   0.297
79998W        W48403  15.674  25.135  10.558
79999W        W48404   7.377  39.928   4.283
80000W        W48405  42.190  32.245  10.739
80001W        W48406  28.594   0.279   4.148
80002W        W48407  33.388  22.970  14.347
80003W        W48408  26.514   2.867   3.813
80004W        W48409   6.917   3.640  11.175
80005W        W48410   4.978  29.583   3.329
80006W        W48411  44.942  33.917   4.174
80007W        W48412   6.176  31.889  10.522
80008W        W48413  14.657  29.335   2.413
80009W        W48414  28.844  16.668  12.100
80010W        W48415  27.966  32.564  12.533
80011W        W48416   3.849  17.642   1.815
80012W        W48417  39.398  33.246   2.765
80013W        W48418  23.170  23.267   1.452
80014W        W48419  15.152  44.238  12.532
80015W        W48420  21.083   1.731   2.761
80016W        W48421  35.571  21.929   3.163
80017W        W48422  23.169  15.086  12.591
80018W        W48423  19.542  34.127   1.855
80019W        W48424  24.682  29.573   4.606
80020W        W48425  23.509  33.407  11.550
80021W        W48426  20.038  40.344   1.447
80022W        W48427  44.423  30.608  10.784
80023W        W48428   3.580  26.104   4.212
80024W        W48429  12.062  15.048   9.811
80025W        W48430  28.415  24.252   4.142
80026W        W48431  19.707  28.514   4.314
80027W        W48432  29.000  28.220   3.936
80028W        W48433   9.753  11.032   1.658
80029W        W48434  37.485  28.980  12.074
80030W        W48435  14.721  15.107  14.441
80031W        W48436  43.896   7.600  14.305
80032W        W48437  38.303  16.566  14.867
80033W        W48438  14.818  28.632   0.299
80034W        W48439  14.194  29.691   2.374
80035W        W48440   2.802  15.534   1.500
80036W        W48441  28.794  32.113  14.841
80037W        W48442  18.130   0.665   0.133
80038W        W48443   8.763  35.297   4.256
80039W        W48444  39.099  11.391   4.299
80040W        W48445  39.438  11.221  12.877
80041W        W48446  14.551  19.350   0.389
80042W        W48447  11.007  25.709  11.550
80043W        W48448  37.137  34.387   0.971
80044W        W48449   9.550   0.804   1.280
80045W        W48450  28.917  14.888  14.430
80046W        W48451  24.664   1.091   2.674
80047W        W48452   6.956  44.718   1.907
80048W        W48453   1.982  13.545   4.908
80049W        W48454  21.004  32.586  13.852
80050W        W48455  19.091   1.385   1.827
80051W        W48456  18.688  27.716   0.012
80052W        W48457  17.341  18.562  14.500
80053W        W48458   0.799   4.499   1.654
80054W        W48459  15.762  28.434  12.988
80055W        W48460  21.621  44.526  10.595
80056W        W48461   9.858  21.318  11.053
80057W        W48462  30.495   4.047  11.219
80058W        W48463  35.729  23.435  10.659
80059W        W48464  33.557   9.872  10.604
80060W        W48465  40.786   8.619  13.288
80061W        W48466   7.650  22.228   4.750
80062W        W48467  42.423  29.426  14.118
80063W        W48468  29.394  40.846  11.935
80064W        W48469   0.768  22.050  11.923
80065W        W48470  29.657  18.892  12.023
80066W        W48471  13.646  41.727  11.556
80067W        W48472  18.433   0.965   0.451
80068W        W48473  43.946  35.453  11.904
80069W        W48474  38.253   1.740  11.549
80070W        W48475   7.722  20.754  13.732
80071W        W48476  42.802   8.376  13.443
80072W        W48477  30.470   3.175   2.920
80073W        W48478   6.403  24.079  11.859
80074W        W48479  15.497  41.975   4.337
80075W        W48480  13.136  36.408   2.936
80076W        W48481  24.928  35.633  11.205
80077W        W48482  40.031  32.572  10.454
80078W        W48483  14.127  27.979  12.454
80079W        W48484  23.719  22.104  14.222
80080W        W48485  38.897   8.685   2.884
80081W        W48486  38.690  11.697   0.231
80082W        W48487  42.397   2.584   0.807
80083W        W48488  38.835  36.044   0.421
80084W        W48489  18.127  27.159  13.738
80085W        W48490  36.193  37.735   2.292
80086W        W48491  29.002   3.466   0.272
80087W        W48492  26.266  29.498  14.312
80088W        W48493  39.650  38.813  14.022
80089W        W48494  15.747  25.432  12.892
80090W        W48495  30.305  40.244   2.348
80091W        W48496  24.062   6.736  13.899
80092W        W48497  42.810  34.284  13.505
80093W        W48498  18.051  44.120  14.366
80094W        W48499  27.438  35.138   4.561
80095W        W48500   6.216  11.752   1.238
80096W        W48501  41.735  34.655   2.034
80097W        W48502  41.121  39.587   3.728
80098W        W48503  28.468  11.652   3.673
80099W        W48504   0.768   3.140   1.531
80100W        W48505   1.051   1.334   1.504
80101W        W48506  12.737  36.409   4.574
80102W        W48507  43.768  27.575  13.505
80103W        W48508  16.300  44.700   4.841
80104W        W48509  37.708  12.761   4.997
80105W        W48510  16.073  14.583  11.418
80106W        W48511  33.389  44.160  12.825
80107W        W48512  29.093  33.239   1.643
80108W        W48513  10.446  17.042  10.750
80109W        W48514  11.493  26.140   0.711
80110W        W48515  36.460   0.893  11.538
80111W        W48516   7.419  39.787  14.753
80112W        W48517  19.559  30.565  14.727
80113W        W48518  37.498  18.685   5.419
80114W        W48519  35.941  31.651  11.112
80115W        W48520   2.078  15.509  10.029
80116W        W48521   1.266  38.547   1.790
80117W        W48522   8.319  11.951   1.630
80118W        W48523  26.590  26.804  11.145
80119W        W48524  23.139  12.221   2.492
80120W        W48525  30.031  43.728   3.773
80121W        W48526  39.500   5.833   3.276
80122W        W48527  28.343  28.926   0.866
80123W        W48528  25.807   2.907  14.052
80124W        W48529  11.846  20.620   3.735
80125W        W48530  31.033   2.069   1.822
80126W        W48531  15.265  25.639  12.864
80127W        W48532  14.134  28.423  13.358
80128W        W48533  14.644  31.551   2.712
80129W        W48534  44.352  43.257   2.341
80130W        W48535  31.926  39.074   5.249
80131W        W48536  27.704   4.431  13.801
80132W        W48537   1.147  26.526   2.806
80133W        W48538  37.855  35.097   3.869
80134W        W48539  23.763  16.140  11.994
80135W        W48540  23.626   1.886   3.317
80136W        W48541  15.636  11.943  11.201
80137W        W48542   0.797  39.564  14.356
80138W        W48543  40.482  39.290   0.292
80139W        W48544  26.637  43.895   1.332
80140W        W48545   1.079  26.469   4.758
80141W        W48546   9.358  44.208   3.808
80142W        W48547   2.490  11.884  13.929
80143W        W48548  21.759   7.508   2.852
80144W        W48549  14.289  44.925  11.579
80145W        W48550  42.017   6.279  10.234
80146W        W48551  21.435  32.180   1.247
80147W        W48552  21.406  36.979   4.850
80148W        W48553  30.099  20.294  12.907
80149W        W48554   0.962  22.181  11.465
80150W        W48555  32.336  13.086   3.240
80151W        W48556   0.027  43.183  13.538
80152W        W48557  13.199  23.444  14.327
80153W        W48558   6.561  25.387  12.968
80154W        W48559  11.714  42.041   4.527
80155W        W48560  23.463  33.433   0.826
80156W        W48561  40.880   8.777   2.110
80157W        W48562  27.402  11.263   4.110
80158W        W48563   5.630  43.280  14.926
80159W        W48564  11.160  34.428  12.381
80160W        W48565  17.153  36.872   3.657
80161W        W48566  13.341  36.530   2.335
80162W        W48567  30.522   5.461   1.398
80163W        W48568   6.728  18.800   2.608
80164W        W48569  29.912   1.327   0.899
80165W        W48570   0.512  43.076   2.037
80166W        W48571  40.896  37.912  11.527
80167W        W48572  39.947  23.197   4.655
80168W        W48573  24.494   1.207   4.172
80169W        W48574  29.894  27.485   3.198
80170W        W48575  10.757   8.758  11.989
80171W        W48576  37.121  40.948   0.986
80172W        W48577  36.453  20.637  10.852
80173W        W48578   5.841  21.098   0.330
80174W        W48579  18.161  16.176  10.482
80175W        W48580  22.517  25.521   4.618
80176W        W48581  18.082  41.197   0.369
80177W        W48582  11.826  34.945   2.395
80178W        W48583  21.896  24.981   0.232
80179W        W48584  16.462  12.193   0.257
80180W        W48585  17.714  37.321  10.132
80181W        W48586   5.560   7.487  14.421
80182W        W48587   5.330  28.822  12.596
80183W        W48588  20.673  12.254  13.422
80184W        W48589   8.459  21.753   3.162
80185W        W48590   9.374  27.687   0.820
80186W        W48591   5.045  42.140  13.901
80187W        W48592  32.879  41.246   4.307
80188W        W48593  34.711  29.396   9.926
80189W        W48594  16.626   3.964  14.018
80190W        W48595   5.226  30.045   4.226
80191W        W48596  35.070  13.148  10.531
80192W        W48597  33.924   3.531   1.781
80193W        W48598  15.035   0.706   4.402
80194W        W48599   6.345  13.680  14.044
80195W        W48600  33.438   8.000  13.476
80196W        W48601  32.138  31.966   0.441
80197W        W48602  29.139   8.817  14.356
80198W        W48603  40.874  10.820  13.927
80199W        W48604  35.975  16.166  10.717
80200W        W48605  32.846  21.734  13.354
80201W        W48606  35.996  35.954  11.488
80202W        W48607   2.770  19.557   0.276
80203W        W48608  17.069  23.040   1.856
80204W        W48609  43.625  28.908  14.339
80205W        W48610  15.129  13.136   0.710
80206W        W48611  40.336  28.936  12.130
80207W        W48612  11.777  10.676  11.225
80208W        W48613  10.873  22.051   3.270
80209W        W48614  16.214  35.653   5.001
80210W        W48615   6.442  34.042   0.706
80211W        W48616  44.390  18.003  14.225
80212W        W48617  31.077   1.989   3.184
80213W        W48618  25.889   0.744   0.773
80214W        W48619  37.002  36.605  12.117
80215W        W48620   3.336   3.525  14.499
80216W        W48621  19.754   6.085   0.929
80217W        W48622  14.749  25.178   4.087
80218W        W48623  44.871  13.114  12.901
80219W        W48624   7.838  15.626  12.290
80220W        W48625  29.747  16.854  12.953
80221W        W48626  11.160  44.757   0.582
80222W        W48627  39.621  16.624  11.091
80223W        W48628   0.742  22.238   0.885
80224W        W48629  38.824  33.359   1.842
80225W        W48630  15.285  41.814  11.425
80226W        W48631   0.749  30.417   3.246
80227W        W48632   9.394  19.935  11.610
80228W        W48633  20.495  35.850   0.235
80229W        W48634   8.278   2.250  11.150
80230W        W48635   2.226  33.423   3.697
80231W        W48636  17.529  29.091   4.481
80232W        W48637  11.569  18.702  12.357
80233W        W48638  27.330  17.038   3.179
80234W        W48639  26.487  41.313  12.820
80235W        W48640  17.622  17.676   4.912
80236W        W48641   2.090  24.716   1.686
80237W        W48642   3.348   1.027  11.391
80238W        W48643  10.366  43.114   0.819
80239W        W48644  31.986  28.195   2.713
80240W        W48645  23.525  26.035   2.375
80241W        W48646  26.997  23.549  14.377
80242W        W48647  17.708  22.197   1.254
80243W        W48648  20.607  44.769   4.109
80244W        W48649  29.530  33.994  13.399
80245W        W48650  15.220  20.725   2.149
80246W        W48651  34.700   5.334  13.387
80247W        W48652  27.448  18.193  12.926
80248W        W48653   6.818  37.803  11.199
80249W        W48654  23.955  20.247  12.333
80250W        W48655  36.184  44.054   2.411
80251W        W48656  15.673  40.659  12.639
80252W        W48657  34.510  22.750  12.022
80253W        W48658   3.837   0.291   3.723
80254W        W48659  43.281  35.367  14.409
80255W        W48660  19.610   7.770   9.923
80256W        W48661   0.773   0.270   0.956
80257W        W48662  11.840  32.944   4.044
80258W        W48663   0.296   2.342  12.579
80259W        W48664  12.520   0.154  14.866
80260W        W48665  33.539   1.287  14.558
80261W        W48666  12.606   4.754  14.440
80262W        W48667  30.322  24.592   0.252
80263W        W48668  28.954  30.597   3.190
80264W        W48669  15.547  23.533  11.999
80265W        W48670  37.093   2.059   0.812
80266W        W48671  31.086  23.139   1.699
80267W        W48672   1.751  35.619   2.793
80268W        W48673  31.472  11.701  14.853
80269W        W48674  23.160  17.261   4.097
80270W        W48675  17.597   9.163   0.532
80271W        W48676  26.616  37.088   2.273
80272W        W48677  36.285  27.742   4.062
80273W        W48678  20.481  30.979  10.486
80274W        W48679  13.144  37.637   1.073
80275W        W48680  42.713  23.050   0.835
80276W        W48681  34.252  27.089   1.966
80277W        W48682  10.691  11.790  12.903
80278W        W48683  42.807   7.958  10.731
80279W        W48684  37.896   8.689  10.591
80280W        W48685  32.190  33.330  13.086
80281W        W48686  20.200   9.698  10.478
80282W        W48687  19.185  41.500   1.680
80283W        W48688   6.614   9.324  11.021
80284W        W48689   1.220  11.286  12.308
80285W        W48690  22.751   6.882  13.496
80286W        W48691  43.116  13.075  10.918
80287W        W48692  43.099   5.452   3.556
80288W        W48693   7.432   9.797   1.144
80289W        W48694   8.744  38.554  14.308
80290W        W48695  14.008  12.269   4.157
80291W        W48696  41.277   9.342  10.676
80292W        W48697  33.560  18.648  13.937
80293W        W48698  21.903  12.235   0.657
80294W        W48699  34.167  39.827  10.905
80295W        W48700  26.524  34.799  14.144
80296W        W48701  34.081  18.522  14.790
80297W        W48702  34.573  16.480  11.678
80298W        W48703   5.591  37.507   4.921
80299W        W48704  34.406   0.411  13.769
80300W        W48705  21.876  23.530   2.322
80301W        W48706  13.295   6.213   3.400
80302W        W48707  36.404   1.872   5.046
80303W        W48708  18.064   2.909   1.648
80304W        W48709  13.079  30.031   2.986
80305W        W48710  27.638   7.622   1.623
80306W        W48711  25.905  31.929  11.595
80307W        W48712   7.133   2.768  14.777
80308W        W48713  38.572   7.356   0.343
80309W        W48714  27.542  15.887   0.904
80310W        W48715  39.964  25.138  13.917
80311W        W48716  16.581  40.158  12.522
80312W        W48717   6.421  34.935  10.618
80313W        W48718   0.366  14.320   0.802
80314W        W48719  13.569  40.111   1.851
80315W        W48720  16.147  22.668  12.228
80316W        W48721  30.230  30.649   1.898
80317W        W48722  23.319  34.389  13.611
80318W        W48723  23.993  30.891   1.757
80319W        W48724  10.868   5.961  10.706
80320W        W48725  33.593   1.217   1.298
80321W        W48726   6.170  16.711   4.828
80322W        W48727  27.456  33.419  11.758
80323W        W48728   7.022  23.932  10.504
80324W        W48729  22.483   1.066  14.345
80325W        W48730  17.200  25.718   0.906
80326W        W48731  26.883  34.477   3.752
80327W        W48732  11.676  15.295   3.747
80328W        W48733   9.345  31.562  12.086
80329W        W48734  17.081  23.302  12.927
80330W        W48735  33.353  40.611  14.763
80331W        W48736  44.839  28.295   1.169
80332W        W48737  15.184   4.702  11.753
80333W        W48738   5.479  18.286  11.046
80334W        W48739  35.316  22.273   1.389
80335W        W48740  16.586   0.371   2.750
80336W        W48741  15.062  40.008   2.627
80337W        W48742   0.909  11.723   1.597
80338W        W48743  34.217  35.523   2.706
80339W        W48744  40.538   3.311  14.294
80340W        W48745  26.563  44.296   3.253
80341W        W48746  19.240   6.291  10.676
80342W        W48747   6.663   3.499  11.644
80343W        W48748  34.774  28.164   4.376
80344W        W48749   5.711  28.473  12.650
80345W        W48750  31.673  34.771   2.249
80346W        W48751   8.364   8.694  11.674
80347W        W48752   1.376   1.323  13.664
80348W        W48753   6.691  42.384   2.493
80349W        W48754  21.970  17.945   2.620
80350W        W48755   8.407  22.716  13.960
80351W        W48756  41.828  38.146  14.373
80352W        W48757  36.892  34.211  13.814
80353W        W48758   0.829  20.096  14.213
80354W        W48759  22.749   7.675   5.356
80355W        W48760  37.193  42.087   2.363
80356W        W48761  37.012  12.043  12.686
80357W        W48762  25.112  38.955   4.657
80358W        W48763  19.604  16.751   0.444
80359W        W48764  20.993   2.209   1.357
80360W        W48765  42.936  18.958   3.085
80361W        W48766  37.860   2.695  10.463
80362W        W48767  25.361  42.343  11.114
80363W        W48768  35.897  36.991   0.415
80364W        W48769  16.334  19.073   3.310
80365W        W48770   7.796  20.413   4.778
80366W        W48771   3.182  43.983  14.529
80367W        W48772   0.993  19.470   0.307
80368W        W48773  15.285   4.613  13.496
80369W        W48774  37.924  15.464  10.448
80370W        W48775   2.803  15.381   2.244
80371W        W48776  35.401  27.012   3.386
80372W        W48777  19.816  26.178   2.285
80373W        W48778  26.477  31.584   4.300
80374W        W48779  44.819   5.429   3.746
80375W        W48780  43.366  26.022   2.642
80376W        W48781  21.283  22.142   5.522
80377W        W48782   4.374  15.671  12.836
80378W        W48783  29.899  19.475   2.213
80379W        W48784  17.532  30.582  10.439
80380W        W48785  22.349  29.013  12.074
80381W        W48786  29.587  21.375  12.461
80382W        W48787  36.414  32.046  10.539
80383W        W48788  13.681  17.689  10.675
80384W        W48789   8.917  24.631  14.434
80385W        W48790  11.316  33.094   4.005
80386W        W48791  38.158   3.744   1.988
80387W        W48792  12.660  34.984   0.026
80388W        W48793  11.324  14.885  13.874
80389W        W48794  22.128  17.481  14.006
80390W        W48795  15.472  17.468  13.696
80391W        W48796   1.782   7.891   1.341
80392W        W48797  15.757  35.054   1.848
80393W        W48798  21.546  30.006   1.385
80394W        W48799  43.947   9.647  14.311
80395W        W48800  29.137  44.818  11.680
80396W        W48801  37.365  20.622  12.342
80397W        W48802  38.975  28.474  14.285
80398W        W48803  38.565   7.421  10.178
80399W        W48804  26.747  17.159   4.032
80400W        W48805  19.587   5.795   4.206
80401W        W48806  27.182  41.774   0.412
80402W        W48807   7.870   3.216   2.043
80403W        W48808  44.250  14.180   2.940
80404W        W48809  15.302  17.061   0.882
80405W        W48810   7.347  28.529   3.635
80406W        W48811  10.217   0.793  11.206
80407W        W48812  36.983  31.461  14.511
80408W        W48813   9.179  35.985  12.104
80409W        W48814  16.038   4.871   1.712
80410W        W48815  23.695  41.402   4.617
80411W        W48816  17.875  44.407   4.580
80412W        W48817  37.330   6.962   0.843
80413W        W48818  28.480  41.864   0.878
80414W        W48819  42.137  30.531  14.291
80415W        W48820  17.389   5.490   4.708
80416W        W48821  12.321   4.758  10.702
80417W        W48822   2.286  29.611   4.062
80418W        W48823  36.449   7.017  10.715
80419W        W48824  42.839   0.821   5.012
80420W        W48825  28.741  42.018   3.748
80421W        W48826   1.156  26.844   1.216
80422W        W48827  17.668  40.050  14.891
80423W        W48828  32.514  38.358   2.254
80424W        W48829  11.196  31.906  14.490
80425W        W48830  35.880  10.411   2.024
80426W        W48831   7.729  34.846  13.344
80427W        W48832  37.647  33.505   4.505
80428W        W48833   3.392   8.646   4.644
80429W        W48834  22.227   8.733  11.014
80430W        W48835   3.830  38.950  14.335
80431W        W48836   7.462  20.472  11.543
80432W        W48837   9.242   1.907  12.873
80433W        W48838  32.888  24.914  12.463
80434W        W48839  11.870  11.174   0.291
80435W        W48840  20.259  41.824  10.767
80436W        W48841  38.207  37.799  12.032
80437W        W48842   8.750  11.409  14.727
80438W        W48843  20.984   9.940   0.844
80439W        W48844  18.663  37.961   1.685
80440W        W48845  13.174  11.658  10.974
80441W        W48846  24.427  26.258  14.993
80442W        W48847  36.867   8.780  10.735
80443W        W48848  33.900  27.013   0.544
80444W        W48849   1.222   2.556  10.717
80445W        W48850  20.206  30.776   3.320
80446W        W48851   3.790  25.622  10.925
80447W        W48852   5.235  14.926  14.149
80448W        W48853  10.345   0.297   4.597
80449W        W48854   9.050  39.528  13.508
80450W        W48855  25.357   1.284  12.789
80451W        W48856  35.422   5.853   0.381
80452W        W48857   6.140  33.749   3.141
80453W        W48858  27.950   4.451   4.624
80454W        W48859  22.273  28.213   0.235
80455W        W48860   6.929  15.454  11.140
80456W        W48861  32.113  25.306  13.973
80457W        W48862  38.905  33.670   2.288
80458W        W48863   3.689  41.017   3.978
80459W        W48864  26.067   7.700  10.747
80460W        W48865  29.177  38.916   2.746
80461W        W48866  33.605  19.604   9.833
80462W        W48867  22.956   1.591  14.360
80463W        W48868  15.273  32.839  11.229
80464W        W48869  30.096  32.978  13.010
80465W        W48870  22.122  31.341   3.604
80466W        W48871  27.638  23.542   1.731
80467W        W48872  34.089  23.214  12.687
80468W        W48873  11.338  29.359   2.662
80469W        W48874  17.070  23.786  14.543
80470W        W48875  27.388   9.472   4.221
80471W        W48876  14.983   9.609   5.392
80472W        W48877  13.200  39.322  14.040
80473W        W48878   3.292   4.310   3.195
80474W        W48879  21.664  15.110   4.050
80475W        W48880  38.851   7.806   3.702
80476W        W48881  43.518  27.692  14.774
80477W        W48882  35.629  24.089  11.589
80478W        W48883  11.884  12.625   4.389
80479W        W48884   6.786  42.821   2.259
80480W        W48885  18.782  22.862  11.736
80481W        W48886   7.416  31.569  13.251
80482W        W48887   2.541   3.777  10.743
80483W        W48888  26.198  13.225  10.578
80484W        W48889  10.868  19.706  11.615
80485W        W48890  12.907  25.504   3.719
80486W        W48891  30.441  23.711  11.542
80487W        W48892  21.888  10.131   0.559
80488W        W48893   0.377  17.523   3.155
80489W        W48894  11.930  14.082   3.143
80490W        W48895  30.582  33.645  10.917
80491W        W48896  43.559  37.464  13.511
80492W        W48897  27.621  35.070   2.188
80493W        W48898  23.750  38.036   2.688
80494W        W48899  41.893  18.599   4.259
80495W        W48900  30.472   6.297  13.729
80496W        W48901  13.859   2.468   2.789
80497W        W48902   4.931  16.237  12.034
80498W        W48903  13.146  18.073  12.110
80499W        W48904  33.068  13.386  10.494
80500W        W48905  40.146   2.274   3.794
80501W        W48906  26.624  22.620   1.809
80502W        W48907  11.487  38.528  14.755
80503W        W48908  30.532  33.318   0.506
80504W        W48909  22.400   1.380   3.757
80505W        W48910  25.692  31.975   1.061
80506W        W48911  33.739  29.228  12.464
80507W        W48912  11.797  28.448   5.272
80508W        W48913  31.628  33.608   1.912
80509W        W48914  34.100  18.145   4.453
80510W        W48915  25.544  43.986   0.347
80511W        W48916  13.688  19.124  10.656
80512W        W48917  33.201  39.321   1.719
80513W        W48918   4.401  42.943   1.341
80514W        W48919  10.748   2.978   1.329
80515W        W48920  43.643   5.627   0.531
80516W        W48921  33.351  18.565  12.502
80517W        W48922  21.543  29.682   4.777
80518W        W48923  29.173  22.682   3.316
80519W        W48924  40.528  44.757  13.806
80520W        W48925  41.468  32.994  13.966
80521W        W48926  17.086  40.907   3.745
80522W        W48927   5.375  10.035  13.412
80523W        W48928  30.591  44.749   1.814
80524W        W48929  33.633   5.693  12.085
80525W        W48930   8.742  28.196   3.253
80526W        W48931  29.237  12.223  14.938
80527W        W48932  14.288  23.785  13.740
80528W        W48933  14.596   4.982  11.512
80529W        W48934  20.821  11.853  11.114
80530W        W48935  33.913  25.384  10.552
80531W        W48936  29.544  36.184  10.915
80532W        W48937  33.816   6.702   0.962
80533W        W48938  39.848  16.059  13.570
80534W        W48939   3.648  37.762   1.822
80535W        W48940  39.583  42.630   0.913
80536W        W48941   1.880  41.379   0.021
80537W        W48942  13.020  44.230  14.901
80538W        W48943  12.105  40.508   1.792
80539W        W48944  24.599   4.923  12.105
80540W        W48945  42.868   4.513  12.058
80541W        W48946  42.794  25.711   4.637
80542W        W48947  44.465  42.280   2.238
80543W        W48948  36.084   6.913   1.412
80544W        W48949   4.446  44.655   2.423
80545W        W48950   7.599  34.246   2.434
80546W        W48951   7.788  40.862  11.162
80547W        W48952  16.045  31.103  12.591
80548W        W48953   3.677  34.621   2.894
80549W        W48954  31.558  29.054   0.961
80550W        W48955   5.758  23.070  12.570
80551W        W48956  24.474  27.295   0.003
80552W        W48957  39.317  18.765   3.280
80553W        W48958  16.764   3.443  13.115
80554W        W48959  33.052  26.980  14.887
80555W        W48960  34.565  10.269  12.055
80556W        W48961  24.929  18.577  12.900
80557W        W48962   7.847  11.797  14.872
80558W        W48963  23.004  38.969   1.393
80559W        W48964  21.215  42.383  11.248
80560W        W48965  27.488   4.387   2.364
80561W        W48966  41.231  32.347   2.000
80562W        W48967  39.529  41.128  13.952
80563W        W48968  36.932  28.978   2.768
80564W        W48969  37.982  43.676   1.738
80565W        W48970   7.797   1.465   2.233
80566W        W48971  28.141  30.516   2.955
80567W        W48972  41.024  18.733   4.483
80568W        W48973  36.211  30.753   1.820
80569W        W48974  17.647  21.159   2.729
80570W        W48975   3.956  44.965   3.314
80571W        W48976   1.891  15.733  11.160
80572W        W48977  37.724  18.141   2.301
80573W        W48978  43.473  35.641   1.430
80574W        W48979  17.396  34.486  11.762
80575W        W48980  32.989  43.983   3.408
80576W        W48981  18.331   1.377  12.127
80577W        W48982  42.049  20.299  13.422
80578W        W48983   5.303   6.773   3.603
80579W        W48984  44.814  13.438  13.353
80580W        W48985  22.045  39.063   3.194
80581W        W48986   4.119  17.276   2.733
80582W        W48987  17.686  24.735   4.787
80583W        W48988  36.811   9.164  13.419
80584W        W48989  31.800  17.685  10.769
80585W        W48990  27.620  22.532  12.017
80586W        W48991  28.162  15.639   2.448
80587W        W48992  11.640  35.977  12.352
80588W        W48993  16.240  37.876  13.302
80589W        W48994  42.237  35.947   0.011
80590W        W48995   4.189  42.921  12.426
80591W        W48996  22.061  20.279   3.878
80592W        W48997   8.227  35.616   2.333
80593W        W48998  16.661  37.464  11.950
80594W        W48999  33.829  37.903  13.991
80595W        W49000  38.530  42.741  14.969
80596W        W49001   7.012  41.330  12.011
80597W        W49002  37.398   9.901  14.938
80598W        W49003  19.774  36.226  10.647
80599W        W49004  11.025  20.011   4.998
80600W        W49005  19.472  10.741  11.031
80601W        W49006  33.489  31.869   0.226
80602W        W49007   2.508  25.219   0.964
80603W        W49008  13.238  14.843   4.377
80604W        W49009  30.479  15.834  13.042
80605W        W49010  11.588  10.392  10.858
80606W        W49011  11.616  23.566  11.699
80607W        W49012  26.735   3.320  14.796
80608W        W49013  15.072  29.450   0.896
80609W        W49014  35.064  43.952  12.261
80610W        W49015  31.088  40.710   2.693
80611W        W49016   3.065   3.805   2.216
80612W        W49017  38.326  34.541   1.973
80613W        W49018  17.128  21.158   2.652
80614W        W49019  30.393  41.028   0.057
80615W        W49020  44.043   1.338   0.268
80616W        W49021   8.629  17.785   4.970
80617W        W49022  32.814   3.992  11.653
80618W        W49023  31.975  12.558  10.340
80619W        W49024  43.939   3.191   3.299
80620W        W49025   0.956  15.957  11.188
80621W        W49026  11.364  24.044   3.113
80622W        W49027  21.625  33.510   3.360
80623W        W49028   6.333   0.237  10.686
80624W        W49029  40.519  11.418   2.703
80625W        W49030  36.952  38.268  12.625
80626W        W49031  25.173  43.471  13.517
80627W        W49032  22.632  38.557   4.612
80628W        W49033   5.909  43.071  13.981
80629W        W49034   9.154  38.342   1.471
80630W        W49035  15.582  22.284  13.538
80631W        W49036  19.305  18.952  10.905
80632W        W49037  17.723  39.457  13.630
80633W        W49038  33.173  22.208   3.370
80634W        W49039  34.185  44.005   4.110
80635W        W49040   3.013  42.910  11.348
80636W        W49041  31.341   1.032  12.211
80637W        W49042   3.016  26.833   3.170
80638W        W49043  30.897  20.421  11.059
80639W        W49044  12.351  43.134  13.021
80640W        W49045  40.333  11.831   3.511
80641W        W49046  32.965  13.782  13.370
80642W        W49047  11.911  24.458  12.111
80643W        W49048  18.988  43.346   3.234
80644W        W49049  23.757  12.127  11.561
80645W        W49050  23.533  26.325  14.673
80646W        W49051   6.671  25.935   2.322
80647W        W49052  21.509   4.295   2.618
80648W        W49053  33.645  15.555  12.036
80649W        W49054  24.678  38.265   0.339
80650W        W49055  39.989  15.717  13.087
80651W        W49056  19.950   8.938   1.856
80652W        W49057   6.551  23.497   0.475
80653W        W49058  33.717  10.323   4.834
80654W        W49059  27.327  18.510   1.065
80655W        W49060  21.327  29.515   1.932
80656W        W49061   0.662  28.647  10.402
80657W        W49062  30.867  23.131  14.018
80658W        W49063   7.677   2.771  10.456
80659W        W49064  39.270  18.797  11.523
80660W        W49065  39.412  40.353  12.930
80661W        W49066   5.009  20.361  14.936
80662W        W49067  26.957  35.341   4.611
80663W        W49068  31.087  34.702  14.626
80664W        W49069  23.569  30.462  14.458
80665W        W49070   8.818  14.796   3.736
80666W        W49071  17.190   7.157   0.392
80667W        W49072  31.244  20.131   0.412
80668W        W49073   6.390  19.632   3.880
80669W        W49074  16.046   7.291   4.534
80670W        W49075   6.804  40.580  10.499
80671W        W49076  13.692  43.962  13.959
80672W        W49077  43.752  26.647   3.654
80673W        W49078  26.761  29.994   0.714
80674W        W49079  30.439  20.808   9.944
80675W        W49080  44.550  19.891   2.742
80676W        W49081  36.237   9.334   5.091
80677W        W49082   9.718  19.090   4.536
80678W        W49083   0.694  23.046  11.611
80679W        W49084   3.692  25.514  13.496
80680W        W49085  13.577  29.075   1.904
80681W        W49086  23.027  13.680   3.738
80682W        W49087  31.257   1.924   4.761
80683W        W49088  42.282  26.200  14.442
80684W        W49089  33.623  43.933  14.044
80685W        W49090   6.733  25.994  11.234
80686W        W49091  20.268  13.868  12.961
80687W        W49092  18.385  24.945   0.930
80688W        W49093  22.025  32.736   0.600
80689W        W49094  16.035  43.994  10.903
80690W        W49095  16.089  38.909  12.365
80691W        W49096  10.645  44.521   3.359
80692W        W49097  21.204  33.396   3.619
80693W        W49098   9.249  32.398  11.137
80694W        W49099  27.976  37.511   1.445
80695W        W49100  23.550  27.204   3.725
80696W        W49101   6.412  33.488  11.604
80697W        W49102  43.167  17.214  12.394
80698W        W49103  35.068   5.640  12.120
80699W        W49104  17.659  32.580   0.040
80700W        W49105   1.860  14.701   3.771
80701W        W49106  32.017  38.779   4.797
80702W        W49107  43.424   1.814   1.800
80703W        W49108  31.520  44.786  11.693
80704W        W49109  42.559   6.776   1.942
80705W        W49110  36.925  28.945   4.830
80706W        W49111   9.820  41.860  10.732
80707W        W49112  31.947  25.002   2.591
80708W        W49113   7.323   9.271   0.921
80709W        W49114   0.330   6.958  10.743
80710W        W49115  24.265  25.728  10.918
80711W        W49116  26.854   9.312  10.645
80712W        W49117  31.317  44.416   0.275
80713W        W49118   0.698  35.979  10.264
80714W        W49119  44.214   5.746   1.302
80715W        W49120  26.762  42.386  11.920
80716W        W49121  21.659  18.380  12.432
80717W        W49122   8.257   1.416   2.571
80718W        W49123  29.990   7.898  12.383
80719W        W49124  42.493   9.875  14.550
80720W        W49125  39.583  20.828  13.406
80721W        W49126   1.991  30.077   0.252
80722W        W49127  44.341   0.962   0.472
80723W        W49128  31.396  17.682   3.322
80724W        W49129  13.283  31.895  13.219
80725W        W49130  32.095  24.252  12.163
80726W        W49131   5.397  32.125  11.992
80727W        W49132   5.984   4.854  14.754
80728W        W49133   8.364  34.379   0.144
80729W        W49134  35.584   4.871   4.176
80730W        W49135   3.866  28.198   1.363
80731W        W49136  37.081   2.705  11.534
80732W        W49137  26.829   2.184  13.274
80733W        W49138  33.034  16.345  11.914
80734W        W49139  25.609  11.363  12.409
80735W        W49140  26.732  44.422  14.006
80736W        W49141  15.614  39.845   4.584
80737W        W49142   5.002  24.663  14.884
80738W        W49143  39.286  21.308   3.149
80739W        W49144  22.568   0.074   3.273
80740W        W49145   1.359  38.792   3.139
80741W        W49146  44.368  33.046   9.827
80742W        W49147  18.140  38.563   1.696
80743W        W49148  15.775  41.348   3.727
80744W        W49149  11.136  18.131   1.988
80745W        W49150   5.156  18.419  10.627
80746W        W49151  34.943  26.946  12.954
80747W        W49152  39.058   3.633   4.043
80748W        W49153  15.236  12.700   4.951
80749W        W49154  13.855  24.194   3.677
80750W        W49155  10.697  41.551   0.496
80751W        W49156   9.217  18.429  10.150
80752W        W49157  42.392   4.658  12.366
80753W        W49158  33.867  35.058   4.765
80754W        W49159  35.331   3.469  11.126
80755W        W49160  36.590  43.958  11.961
80756W        W49161  32.652  13.342  13.390
80757W        W49162   8.158   7.849  14.951
80758W        W49163   4.666   0.710  11.066
80759W        W49164  44.337  25.273  12.401
80760W        W49165  18.482  12.427  13.392
80761W        W49166  33.578  10.233   1.273
80762W        W49167  28.493  30.814   0.853
80763W        W49168  15.160  22.101   0.486
80764W        W49169  41.915  29.439   2.225
80765W        W49170  42.491  11.702   0.829
80766W        W49171   1.866   6.603  14.618
80767W        W49172  31.614  36.548  12.496
80768W        W49173  18.974  12.873   4.196
80769W        W49174   4.034  23.154  11.541
80770W        W49175   3.462  12.194   1.812
80771W        W49176  43.126  33.897  10.887
80772W        W49177   8.771  31.471   1.397
80773W        W49178  32.887  31.654  13.470
80774W        W49179  17.713  28.401   2.340
80775W        W49180  14.693   5.398  14.945
80776W        W49181  22.887  14.790   1.847
80777W        W49182  40.615  25.632   3.417
80778W        W49183  14.753  21.616  12.909
80779W        W49184   1.961  24.018   4.639
80780W        W49185  15.888   6.396   2.195
80781W        W49186  36.804  11.437   1.211
80782W        W49187   6.437  33.505   3.515
80783W        W49188  14.484  19.032   2.351
80784W        W49189  25.287  29.874   0.935
80785W        W49190  24.615  41.501   0.984
80786W        W49191  35.148  39.091  13.882
80787W        W49192  29.936  15.346   3.116
80788W        W49193  18.725  41.731  14.341
80789W        W49194  42.788   1.277   2.757
80790W        W49195   9.301  41.998  13.973
80791W        W49196  10.620  20.176  13.516
80792W        W49197   9.292  22.460  13.021
80793W        W49198  44.938  44.921  11.652
80794W        W49199  10.271  23.477   0.253
80795W        W49200  33.359  37.041   1.234
80796W        W49201   1.974  40.097  11.966
80797W        W49202  18.285  19.159   1.983
80798W        W49203   0.187  34.527  13.534
80799W        W49204  16.164  28.745  12.958
80800W        W49205  44.660  34.889  11.197
80801W        W49206   7.260  18.241   1.893
80802W        W49207  30.454  18.786   4.657
80803W        W49208   8.675   8.366  12.365
80804W        W49209   4.975  26.756  12.660
80805W        W49210  19.512  22.871   0.415
80806W        W49211   8.665  10.177  13.906
80807W        W49212  24.802  36.129   1.492
80808W        W49213  41.557  20.225  12.874
80809W        W49214   0.448  37.928   0.548
80810W        W49215  35.445  28.175  13.077
80811W        W49216  19.212  35.979  13.724
80812W        W49217  33.382   9.597  12.294
80813W        W49218  19.957  43.503  12.604
80814W        W49219  35.048  28.186  13.425
80815W        W49220  27.081  15.594   1.664
80816W        W49221  38.379   3.101   4.464
80817W        W49222  13.132  22.500   0.386
80818W        W49223   1.891  13.061  12.162
80819W        W49224  18.065  34.558  12.744
80820W        W49225  29.417   2.958  10.641
80821W        W49226   1.994  18.118   1.174
80822W        W49227  38.563  10.203  13.882
80823W        W49228  33.411  43.866   1.006
80824W        W49229  18.963   1.716   2.649
80825W        W49230  14.772  21.044  13.797
80826W        W49231  25.281  24.507   2.712
80827W        W49232  20.115  40.496   4.115
80828W        W49233  43.972   5.080   1.787
80829W        W49234   4.265   5.454   2.903
80830W        W49235  18.159  10.786   5.094
80831W        W49236  11.166  40.034   1.908
80832W        W49237  31.603   9.455   2.655
80833W        W49238  22.774  39.892   0.009
80834W        W49239   7.218  10.158  11.219
80835W        W49240  31.499  14.048  13.638
80836W        W49241  13.365  44.830  13.383
80837W        W49242  41.531  16.708  13.309
80838W        W49243  15.777   2.692   1.913
80839W        W49244   0.105   2.928  10.675
80840W        W49245  32.169  20.564   1.836
80841W        W49246   9.201  15.769  12.637
80842W        W49247   4.201  18.251  14.073
80843W        W49248  16.355  18.127  10.747
80844W        W49249  17.005   9.676   2.553
80845W        W49250   4.486   7.370   5.068
80846W        W49251   6.254  31.631   2.399
80847W        W49252  11.583  11.701  12.168
80848W        W49253  18.093  33.520  14.703
80849W        W49254  22.077  35.727   2.234
80850W        W49255  38.398   4.390  11.734
80851W        W49256   3.777  37.943   0.813
80852W        W49257   0.919   9.154  12.640
80853W        W49258  15.718  14.667   4.092
80854W        W49259  34.523  17.675  14.584
80855W        W49260  41.982  15.640  10.945
80856W        W49261  19.070  25.072   0.466
80857W        W49262  39.494   9.866   2.969
80858W        W49263  29.816  44.312  11.476
80859W        W49264  26.287  37.468  14.018
80860W        W49265  32.636  32.334  11.132
80861W        W49266  31.798  34.684   4.109
80862W        W49267  11.829  42.270  13.461
80863W        W49268  29.873  26.266  13.003
80864W        W49269  24.606   7.184   3.354
80865W        W49270  33.217   4.739   4.531
80866W        W49271  23.934  43.487  11.582
80867W        W49272  14.403   2.913   4.096
80868W        W49273  21.698  20.015   0.745
80869W        W49274   6.943  30.254   4.064
80870W        W49275  21.477   3.822   3.731
80871W        W49276   5.154  22.359   3.252
80872W        W49277  17.368  41.751   2.276
80873W        W49278   2.652  42.057   0.407
80874W        W49279  36.279  21.770  11.649
80875W        W49280  26.504  15.643  12.340
80876W        W49281   9.413  30.784   5.093
80877W        W49282  28.511  10.685   0.288
80878W        W49283  40.403  43.718   3.865
80879W        W49284  33.146   6.366   0.548
80880W        W49285  38.830   2.073   2.304
80881W        W49286  10.757  22.723   0.439
80882W        W49287  15.543   2.276   1.276
80883W        W49288   2.269   5.341  10.982
80884W        W49289   2.467  43.939  12.102
80885W        W49290  14.983   2.215  12.554
80886W        W49291  25.995  32.054  12.933
80887W        W49292  43.300   5.583  12.684
80888W        W49293  37.074  27.370  10.593
80889W        W49294   9.890  10.320   2.310
80890W        W49295  25.019   7.313   1.091
80891W        W49296   6.248  40.964   4.680
80892W        W49297   1.742  24.274  11.219
80893W        W49298  41.228  37.297   3.239
80894W        W49299   2.900   3.830   1.183
80895W        W49300   2.607  35.961  12.136
80896W        W49301  36.404  14.047   0.958
80897W        W49302  22.145  35.586   0.456
80898W        W49303   6.485  27.240  11.443
80899W        W49304  16.167   9.925   0.033
80900W        W49305  26.479   7.434   1.288
80901W        W49306  26.691  41.463   1.555
80902W        W49307  14.052   2.500  10.823
80903W        W49308  34.885   7.678  13.503
80904W        W49309  25.454  30.277  12.092
80905W        W49310  25.577  38.556   3.170
80906W        W49311  33.453  15.605   3.649
80907W        W49312  36.508  44.400   0.306
80908W        W49313  32.562  11.112  13.221
80909W        W49314  34.657   6.236  11.067
80910W        W49315  35.954  23.588   1.927
80911W        W49316  21.065   4.293  11.423
80912W        W49317  40.046  39.322   0.575
80913W        W49318   1.944  42.040  10.548
80914W        W49319  21.376  15.095  11.769
80915W        W49320  37.815  21.803   1.482
80916W        W49321  37.387  34.368  11.685
80917W        W49322  36.131  44.453  10.116
80918W        W49323  37.631   0.925  11.545
80919W        W49324   8.695   3.944  11.683
80920W        W49325   6.696  38.331   0.498
80921W        W49326  22.209  42.296   2.239
80922W        W49327  24.041  20.770   1.255
80923W        W49328  30.812  11.748   0.530
80924W        W49329  30.447  10.034   0.819
80925W        W49330  28.603  28.560   1.863
80926W        W49331  39.152   1.332   5.018
80927W        W49332  34.137   8.291  12.349
80928W        W49333   2.982  35.451  12.836
80929W        W49334   8.289   5.461  13.436
80930W        W49335  25.711  17.107   5.054
80931W        W49336  44.230  17.710  11.932
80932W        W49337  21.616  23.036  11.872
80933W        W49338  37.919  37.094  11.556
80934W        W49339   4.642  43.516  11.538
80935W        W49340   0.349   4.886   1.667
80936W        W49341  39.166   9.940   0.353
80937W        W49342  40.561  13.304  11.625
80938W        W49343  44.325  36.374   1.693
80939W        W49344   6.205  43.004   0.384
80940W        W49345  18.517   4.377  11.165
80941W        W49346  15.151  44.872   4.397
80942W        W49347  36.357  12.824   1.213
80943W        W49348  14.651   4.705   1.699
80944W        W49349  25.855   1.201   9.820
80945W        W49350   9.115  14.170  12.384
80946W        W49351  29.941   5.645  13.355
80947W        W49352  28.623  42.257   3.285
80948W        W49353  32.644  26.706  12.972
80949W        W49354  10.074  14.543  14.001
80950W        W49355   9.387  37.430   2.274
80951W        W49356  20.671  14.258  13.749
80952W        W49357  25.157  33.291  10.809
80953W        W49358  24.732  42.837  13.529
80954W        W49359   5.834  25.002  13.618
80955W        W49360  39.396  35.900   3.871
80956W        W49361  42.275   3.839   3.313
80957W        W49362   5.538  31.423  12.510
80958W        W49363  39.038  23.438  13.800
80959W        W49364  24.626  24.945   0.900
80960W        W49365  19.218  30.551   0.739
80961W        W49366  38.824  44.904  13.356
80962W        W49367  32.505   9.726   4.610
80963W        W49368  42.629  13.286   5.061
80964W        W49369   7.928  28.203   2.072
80965W        W49370  11.241   7.308  10.405
80966W        W49371   1.548   7.266   0.948
80967W        W49372  42.892  31.671   4.501
80968W        W49373  28.486  39.410  11.230
80969W        W49374  13.688  36.349  14.863
80970W        W49375  13.765  40.462  12.020
80971W        W49376  35.831   3.765   1.191
80972W        W49377  33.530  20.703  11.646
80973W        W49378  15.052   4.251   1.059
80974W        W49379  38.391  32.911   3.269
80975W        W49380  42.059  36.572   1.312
80976W        W49381  18.461   1.913  11.787
80977W        W49382   3.331  13.791   0.368
80978W        W49383  31.243  43.070   1.800
80979W        W49384   2.822  27.287   1.163
80980W        W49385  21.058   7.331   1.802
80981W        W49386  16.312  25.098   0.871
80982W        W49387  26.847  43.038   3.667
80983W        W49388  13.047  14.143   1.330
80984W        W49389  13.618   5.021  12.395
80985W        W49390  14.196   0.092   2.369
80986W        W49391   3.692  26.938  11.318
80987W        W49392  26.927  27.560   1.826
80988W        W49393  18.269   1.337   4.097
80989W        W49394  39.707   6.916   0.722
80990W        W49395  37.554  24.427   2.243
80991W        W49396  26.660  44.491   0.481
80992W        W49397  35.317  30.999   1.946
80993W        W49398  10.980  37.323  12.446
80994W        W49399  36.141   3.435  10.657
80995W        W49400  36.135  23.211  11.671
80996W        W49401  13.656  24.185   4.949
80997W        W49402   6.414  10.052   4.586
80998W        W49403  30.262  17.220  14.311
80999W        W49404   1.902  37.453   3.635
81000W        W49405  42.337  15.929  12.025
81001W        W49406  25.078  17.276  11.144
81002W        W49407  35.647  27.783  11.542
81003W        W49408  36.833  19.636   2.573
81004W        W49409  25.987   7.410  11.422
81005W        W49410   9.623   4.768   3.663
81006W        W49411   0.116   5.659   4.094
81007W        W49412   1.481  20.299   1.242
81008W        W49413  40.246  36.081  12.863
81009W        W49414  28.208  36.303   3.281
81010W        W49415  20.715   7.964   5.029
81011W        W49416  44.989   8.445   0.420
81012W        W49417  16.832  16.919   2.286
81013W        W49418   2.250   5.452  11.949
81014W        W49419  24.766  39.481  12.430
81015W        W49420  24.612  29.171  10.332
81016W        W49421   4.318  28.476  13.973
81017W        W49422  18.718  42.893   9.632
81018W        W49423  25.672  35.105  11.180
81019W        W49424   7.151   0.450  14.703
81020W        W49425  39.211   7.588  13.659
81021W        W49426  23.756  34.477   4.088
81022W        W49427  15.095  32.298   2.246
81023W        W49428   9.244  14.350  11.887
81024W        W49429  14.013  38.593  11.131
81025W        W49430   3.934  16.149  13.835
81026W        W49431  35.576  40.374   4.662
81027W        W49432  25.495  44.293   3.784
81028W        W49433  21.606  33.084  12.540
81029W        W49434  39.063   7.269   1.666
81030W        W49435  28.684  39.216  12.908
81031W        W49436  40.295  32.897   3.894
81032W        W49437  11.434  33.971   3.686
81033W        W49438  16.725  36.529   1.860
81034W        W49439  17.039  22.335   1.368
81035W        W49440  17.856  38.036   3.362
81036W        W49441  21.550  32.142  12.542
81037W        W49442   5.727  29.943   4.214
81038W        W49443  41.537  19.865   4.070
81039W        W49444  40.586  22.904   2.714
81040W        W49445   4.774  32.368   3.548
81041W        W49446  30.550  16.923   4.725
81042W        W49447  39.880  19.740  13.128
81043W        W49448  40.954  26.221  13.953
81044W        W49449  11.654  41.471  12.421
81045W        W49450  28.117  10.019  13.880
81046W        W49451  33.871  28.845  13.871
81047W        W49452  26.740  26.037   1.161
81048W        W49453  40.393  34.035  10.975
81049W        W49454  13.262  17.447   1.441
81050W        W49455   5.285   6.267   3.743
81051W        W49456  26.208  19.042  11.928
81052W        W49457   1.652  35.385  12.806
81053W        W49458   7.335  40.932  12.959
81054W        W49459  30.860  27.536   1.820
81055W        W49460  40.913  23.022  14.975
81056W        W49461  18.424  13.135   3.406
81057W        W49462  43.214   2.447  11.553
81058W        W49463  35.382  35.074   4.400
81059W        W49464   9.672   5.794  13.622
81060W        W49465  12.468  37.325   4.199
81061W        W49466  39.213  19.249  13.537
81062W        W49467  25.141  23.084  13.257
81063W        W49468  25.989  39.424  10.252
81064W        W49469  29.749   7.363   3.288
81065W        W49470  40.999  36.149  12.122
81066W        W49471  42.477  16.269   2.304
81067W        W49472  17.340  34.800   2.843
81068W        W49473   1.335  10.950  11.498
81069W        W49474  34.667   0.850   5.039
81070W        W49475   8.208  13.921  14.062
81071W        W49476  20.609  42.011   4.901
81072W        W49477  31.070  23.064   2.816
81073W        W49478  40.183  34.869  10.253
81074W        W49479  37.930  37.358   3.845
81075W        W49480  26.107  44.330  13.357
81076W        W49481  29.017  11.232  11.395
81077W        W49482   4.987  28.158  11.612
81078W        W49483   0.400   5.802  12.531
81079W        W49484  17.854  28.699  14.825
81080W        W49485  30.009   9.744  11.679
81081W        W49486  13.752  24.683   0.449
81082W        W49487   7.803  44.031   0.358
81083W        W49488  21.518  36.125  12.605
81084W        W49489  22.641   3.942   0.409
81085W        W49490  44.986   8.928  13.922
81086W        W49491  36.027  38.759  11.187
81087W        W49492   3.884  24.353   1.502
81088W        W49493  25.744  41.225   0.790
81089W        W49494  17.103  18.474  11.294
81090W        W49495  11.298  31.030   0.182
81091W        W49496  30.566  27.020   1.327
81092W        W49497  21.806  21.625  12.970
81093W        W49498  13.386  10.302  12.338
81094W        W49499   1.414   9.033  11.490
81095W        W49500   9.256  26.069   2.089
81096W        W49501   7.623  30.237  14.837
81097W        W49502  19.903  26.098   3.692
81098W        W49503  35.354  15.155   3.809
81099W        W49504  35.078   3.164  14.261
81100W        W49505  37.568  32.446   2.451
81101W        W49506  11.617  17.080   2.546
81102W        W49507  29.933  13.392  12.507
81103W        W49508  33.906   8.777  14.021
81104W        W49509  31.552  23.985  12.434
81105W        W49510  29.325  40.128  11.257
81106W        W49511  14.720  33.362  12.451
81107W        W49512  16.173   7.631  11.333
81108W        W49513   6.172  25.686   1.822
81109W        W49514   1.810   5.639  13.370
81110W        W49515  21.231  14.810  10.812
81111W        W49516  42.739  35.995   0.063
81112W        W49517   1.902   6.089  14.511
81113W        W49518  20.878  39.832  13.461
81114W        W49519  32.627  13.845  11.453
81115W        W49520  22.020   6.204  11.643
81116W        W49521  32.801  25.558  12.544
81117W        W49522  26.948   7.187   0.377
81118W        W49523  23.982  33.588  12.544
81119W        W49524  13.368  32.369   4.092
81120W        W49525  35.767  19.097   1.701
81121W        W49526  26.227  14.690   3.852
81122W        W49527  20.286  21.552   4.173
81123W        W49528  40.839  37.954   0.347
81124W        W49529  28.983  44.220   1.370
81125W        W49530  39.345  38.367   1.633
81126W        W49531  34.533  25.781   4.579
81127W        W49532   8.711  16.536  11.661
81128W        W49533  40.601  32.267   1.187
81129W        W49534  17.861  27.969  10.839
81130W        W49535  26.025  41.944  11.417
81131W        W49536  11.548  24.572   4.583
81132W        W49537  33.633  19.635   2.220
81133W        W49538  12.837   9.918  12.988
81134W        W49539  27.568  31.387  14.702
81135W        W49540   0.955  30.542   2.790
81136W        W49541   8.819  42.371   4.605
81137W        W49542  22.000  28.906  12.477
81138W        W49543  42.510  13.678   2.166
81139W        W49544  10.286   3.409  13.107
81140W        W49545   5.112  19.081  12.701
81141W        W49546  25.980  12.726  10.642
81142W        W49547  24.105   5.339   3.433
81143W        W49548  24.579  26.929   3.682
81144W        W49549  43.957  41.987  12.641
81145W        W49550  21.158  22.144  12.818
81146W        W49551   4.835  17.196  14.491
81147W        W49552  43.030  19.327   2.220
81148W        W49553  16.815  19.216   2.847
81149W        W49554   4.364  34.870   3.421
81150W        W49555   3.414  39.267   1.147
81151W        W49556  31.834  10.468  14.944
81152W        W49557   1.536  15.322   1.370
81153W        W49558   0.005   7.882   3.699
81154W        W49559   4.785   7.688  10.992
81155W        W49560  21.620  36.803   3.522
81156W        W49561   0.657  20.971   4.146
81157W        W49562  32.935  30.709  10.760
81158W        W49563  21.090   8.690   2.831
81159W        W49564  22.539  13.347   1.724
81160W        W49565  34.959  27.658  13.399
81161W        W49566  15.940  25.853  12.103
81162W        W49567   7.280  35.020  13.565
81163W        W49568  35.513   4.473  12.627
81164W        W49569   2.367  20.584   3.369
81165W        W49570  43.403  11.307   4.071
81166W        W49571  23.144  37.021  12.577
81167W        W49572  25.220  31.151   1.460
81168W        W49573  23.134  35.917   0.420
81169W        W49574  43.554  18.329  13.924
81170W        W49575  32.107  39.113   4.311
81171W        W49576  23.592   2.732   2.205
81172W        W49577  27.302  11.601  10.555
81173W        W49578  18.488  10.628  12.830
81174W        W49579  13.850  44.068   4.498
81175W        W49580   3.247  34.885   1.953
81176W        W49581  11.023   6.431   1.319
81177W        W49582  16.085  19.207  12.792
81178W        W49583  32.620  38.908  10.754
81179W        W49584  38.361   9.021   4.539
81180W        W49585  29.648  31.823   4.613
81181W        W49586  17.296  19.855  12.285
81182W        W49587   2.982   8.355  12.441
81183W        W49588  34.559  21.693   1.820
81184W        W49589  28.351  32.224   5.006
81185W        W49590   5.490  36.373   3.208
81186W        W49591  19.752  20.642  11.402
81187W        W49592  40.461  37.921  10.783
81188W        W49593  28.923  44.984   4.436
81189W        W49594  12.359   0.739  14.266
81190W        W49595  18.253   8.723   3.879
81191W        W49596  15.216   8.871   4.465
81192W        W49597  39.621  31.456   2.643
81193W        W49598   7.830  16.792  11.983
81194W        W49599  40.646  12.208   0.844
81195W        W49600   7.403  31.038   4.188
81196W        W49601   0.876  18.459   0.376
81197W        W49602  40.959  15.480   0.690
81198W        W49603  26.087  35.282   4.375
81199W        W49604  44.282  17.288   0.874
81200W        W49605  16.221  16.062  12.119
81201W        W49606   3.219   6.732  14.879
81202W        W49607  14.169  40.404  12.469
81203W        W49608  19.136   1.744   4.100
81204W        W49609  31.279   4.428  11.289
81205W        W49610  35.656  42.041  13.997
81206W        W49611  28.702  12.289  12.095
81207W        W49612  40.957  31.165   3.771
81208W        W49613   9.572  30.688  11.685
81209W        W49614  15.423   4.416   4.091
81210W        W49615  34.375  35.439   3.936
81211W        W49616   8.032   6.171  10.732
81212W        W49617  36.405   8.579  12.103
81213W        W49618  15.723   3.474   3.727
81214W        W49619  22.304  15.565  14.563
81215W        W49620  20.344   3.862  10.955
81216W        W49621  36.204  27.895   1.831
81217W        W49622  35.606  30.220   2.943
81218W        W49623   2.937   1.361  13.501
81219W        W49624  30.135  44.971   1.692
81220W        W49625   8.905  39.332  13.961
81221W        W49626   4.433  40.502  14.548
81222W        W49627  27.062  29.191   5.154
81223W        W49628  27.965  24.636   4.825
81224W        W49629  27.459  16.280  14.538
81225W        W49630  31.850  10.656   1.699
81226W        W49631  39.963   5.188   2.860
81227W        W49632   4.292  28.172   0.827
81228W        W49633   2.353   7.512   0.750
81229W        W49634  15.604  25.716  13.323
81230W        W49635   7.002  41.013  14.066
81231W        W49636  18.761  30.462  11.201
81232W        W49637  17.445  18.756  10.202
81233W        W49638  16.902  12.369   4.912
81234W        W49639  29.259   0.104  13.913
81235W        W49640   2.259  31.822  10.998
81236W        W49641   5.013  40.807  10.683
81237W        W49642  35.554  31.915   0.332
81238W        W49643  44.832  23.830   1.808
81239W        W49644   5.411   0.522  11.956
81240W        W49645   5.057  39.218  11.853
81241W        W49646  39.340  24.470   1.254
81242W        W49647  26.488  29.970   2.824
81243W        W49648  20.604  43.898   2.610
81244W        W49649  12.708  23.081   2.813
81245W        W49650  24.705  32.461   2.435
81246W        W49651  20.512  33.354   2.824
81247W        W49652   8.726  18.336  11.930
81248W        W49653  39.375  19.571   2.873
81249W        W49654  36.663  24.938  13.862
81250W        W49655  40.921  24.741  12.394
81251W        W49656  39.497  16.322   1.690
81252W        W49657  31.529  43.922   2.392
81253W        W49658  37.833   2.237   4.242
81254W        W49659   2.029  42.406   3.165
81255W        W49660  31.467   9.532   4.135
81256W        W49661  28.787  41.530   2.910
81257W        W49662  36.955  29.230   3.872
81258W        W49663  13.513   6.434  10.307
81259W        W49664  36.970  25.671  12.974
81260W        W49665  40.997   8.911   1.078
81261W        W49666   0.886  17.269   0.977
81262W        W49667  17.636  19.493  12.731
81263W        W49668   2.479  24.645   1.303
81264W        W49669  36.325  13.613  11.552
81265W        W49670  42.830  21.516  12.989
81266W        W49671   9.693  40.535   0.374
81267W        W49672  33.111   9.101   2.239
81268W        W49673  20.040  43.389   0.999
81269W        W49674   8.255  15.712  12.592
81270W        W49675   0.014  28.091  11.069
81271W        W49676   7.816  36.573  14.974
81272W        W49677  18.477  23.281  11.623
81273W        W49678  18.476   0.972  13.773
81274W        W49679  42.455  33.009   2.177
81275W        W49680   8.317  14.355   4.289
81276W        W49681  29.550   6.390   1.753
81277W        W49682  24.195  14.715  14.779
81278W        W49683  31.653  14.501  13.435
81279W        W49684  42.965  31.406  13.585
81280W        W49685  14.566  22.596   1.722
81281W        W49686  39.083  14.134  13.960
81282W        W49687   2.856  44.761  11.625
81283W        W49688   1.935  23.208   1.901
81284W        W49689  17.096   0.521   3.860
81285W        W49690  16.317  39.316  14.757
81286W        W49691  12.823  42.013   2.949
81287W        W49692  10.449  23.719  14.022
81288W        W49693  23.495   7.687   4.590
81289W        W49694   2.276   3.881  11.162
81290W        W49695  39.447   6.778   0.272
81291W        W49696  28.176  37.620  11.060
81292W        W49697  15.971  16.988   1.666
81293W        W49698  12.878  41.281  11.130
81294W        W49699  34.869  33.075   4.608
81295W        W49700  43.523   6.776  13.956
81296W        W49701   1.548   1.319   1.664
81297W        W49702  11.597  13.620   0.205
81298W        W49703  44.496  21.863   1.273
81299W        W49704  17.488  21.600   5.025
81300W        W49705  11.386  42.263  13.196
81301W        W49706  38.059  36.341  14.545
81302W        W49707   1.156  19.272   4.881
81303W        W49708  10.115  39.409   0.226
81304W        W49709   5.851  14.801  13.402
81305W        W49710  30.177  14.902   1.825
81306W        W49711  34.934  20.704   1.918
81307W        W49712  25.735  15.018  12.504
81308W        W49713   7.877  39.520   4.577
81309W        W49714   7.025   4.445   0.711
81310W        W49715   0.369  39.223   0.358
81311W        W49716  40.847  37.398   4.464
81312W        W49717   6.888  12.186  14.267
81313W        W49718  16.725  29.315   4.856
81314W        W49719  30.560  10.091  13.277
81315W        W49720  44.464   1.839   1.578
81316W        W49721   3.046   6.514   2.157
81317W        W49722   8.318   2.673  14.940
81318W        W49723  10.842  30.268   1.291
81319W        W49724  38.290  41.513  14.342
81320W        W49725  39.934  13.771   4.329
81321W        W49726  30.419  21.218   2.324
81322W        W49727  35.423  21.994  14.031
81323W        W49728   4.503   0.772  12.847
81324W        W49729  27.553   2.710   3.499
81325W        W49730  10.637   4.816  14.948
81326W        W49731   1.037  29.480  12.013
81327W        W49732  33.171  18.585  12.005
81328W        W49733   8.199  41.786  13.482
81329W        W49734  13.322  28.438   3.237
81330W        W49735   9.958  44.366   1.157
81331W        W49736  38.540   3.583   3.300
81332W        W49737  25.515   2.898  11.155
81333W        W49738  12.312   0.166   4.134
81334W        W49739   4.872  20.050  12.155
81335W        W49740  31.504  29.211   3.379
81336W        W49741  12.348  19.292   0.826
81337W        W49742  32.963  11.405   0.293
81338W        W49743   5.897   5.875  11.704
81339W        W49744   4.852  33.179  12.414
81340W        W49745  19.762  20.022   0.364
81341W        W49746  21.208  32.340   0.773
81342W        W49747  41.586  19.126  12.419
81343W        W49748  28.477  18.288   3.664
81344W        W49749  44.441  34.856   2.764
81345W        W49750  19.297  36.357  11.228
81346W        W49751  42.238  30.015   0.509
81347W        W49752  19.345  32.737   4.497
81348W        W49753  12.335  14.680  10.491
81349W        W49754  22.777  44.364   3.054
81350W        W49755  19.106  26.080  11.162
81351W        W49756  21.200  22.595   1.606
81352W        W49757  29.871  31.562   1.815
81353W        W49758   1.691  32.449   2.431
81354W        W49759  14.819   6.261  13.808
81355W        W49760   8.131  20.784   3.441
81356W        W49761  42.489   6.719  10.983
81357W        W49762  30.870  13.892   0.483
81358W        W49763  30.029  36.377   5.089
81359W        W49764  25.925  24.072  11.989
81360W        W49765  28.882   3.747  13.039
81361W        W49766  15.289  29.547   1.889
81362W        W49767  23.486   1.358   4.055
81363W        W49768  21.004  22.499  12.463
81364W        W49769  11.663  33.090   1.255
81365W        W49770  25.506  11.826   2.298
81366W        W49771  24.500   2.036   3.883
81367W        W49772  38.942  29.149   3.796
81368W        W49773  35.880  29.596   3.214
81369W        W49774  13.007  36.440   0.425
81370W        W49775  12.869   9.504   1.877
81371W        W49776  28.758  18.184   3.251
81372W        W49777  14.536  26.815  12.456
81373W        W49778  32.451   2.547   1.726
81374W        W49779  34.331  39.091  11.449
81375W        W49780  19.723  32.010  14.700
81376W        W49781   5.653  28.415   5.031
81377W        W49782  13.161  34.897  13.629
81378W        W49783  26.217  25.035  12.960
81379W        W49784   5.922  14.322   3.754
81380W        W49785  33.268  38.569   0.010
81381W        W49786  42.383  27.678   0.447
81382W        W49787  43.057  31.390   1.304
81383W        W49788  38.867  32.205   3.124
81384W        W49789   3.435  39.471  10.672
81385W        W49790  19.758   1.388   2.694
81386W        W49791   5.043   7.653  14.351
81387W        W49792  17.013  10.687   0.309
81388W        W49793  26.940   0.978   3.622
81389W        W49794  29.171   8.492   3.647
81390W        W49795  17.070   0.404   2.890
81391W        W49796  32.820  19.735   1.850
81392W        W49797  24.183  33.027  14.806
81393W        W49798  19.756   4.605   1.172
81394W        W49799   9.390  17.866   5.427
81395W        W49800  25.018  36.576   3.724
81396W        W49801  38.346  11.678  10.577
81397W        W49802  14.742   3.723  13.376
81398W        W49803   3.464   4.836  12.692
81399W        W49804   7.612  13.393  13.417
81400W        W49805  33.051  13.092  11.505
81401W        W49806   4.501  42.809  14.857
81402W        W49807  39.419  15.505   1.330
81403W        W49808   9.647  42.293  13.036
81404W        W49809  39.394  18.376   3.618
81405W        W49810  30.109  41.496   5.058
81406W        W49811  17.158  36.368  14.329
81407W        W49812  23.414  19.051   4.173
81408W        W49813  40.957  44.669   0.343
81409W        W49814  43.965  44.283  14.382
81410W        W49815   5.314  11.282   0.367
81411W        W49816  17.145  44.750   1.211
81412W        W49817   8.300  18.781   0.334
81413W        W49818  13.429   8.853   4.552
81414W        W49819  34.312  21.200   4.211
81415W        W49820  30.062  42.053  11.100
81416W        W49821  41.887  11.763  10.443
81417W        W49822  26.675  43.969   2.394
81418W        W49823  24.734  29.406  12.970
81419W        W49824  36.839   6.150   4.518
81420W        W49825  40.724  31.910   2.636
81421W        W49826  25.933  40.921   1.850
81422W        W49827   0.931  32.966   3.733
81423W        W49828  41.046   6.478   3.113
81424W        W49829  33.362   0.973  11.198
81425W        W49830  31.333  30.892   3.343
81426W        W49831  21.877  43.358   3.685
81427W        W49832   6.276  42.360   4.251
81428W        W49833  44.314   0.917  12.058
81429W        W49834  44.885  33.039  12.330
81430W        W49835  23.408  11.361  13.891
81431W        W49836  15.231   4.118  13.681
81432W        W49837   0.834   9.917   0.670
81433W        W49838  36.501  38.055   1.334
81434W        W49839   1.984  14.581  13.143
81435W        W49840   1.773   7.681   1.851
81436W        W49841  33.530  37.150   1.784
81437W        W49842  27.659   4.802   3.812
81438W        W49843  10.855  13.095   3.439
81439W        W49844  38.788  44.774  10.630
81440W        W49845  12.550  24.345   1.719
81441W        W49846  31.654   5.021   3.695
81442W        W49847   7.627  15.109  10.244
81443W        W49848  33.154  17.031  11.707
81444W        W49849  20.567  32.086   4.314
81445W        W49850   7.178   8.849  12.971
81446W        W49851  28.468   9.456  14.433
81447W        W49852  31.998  27.691  11.179
81448W        W49853  39.201  37.467  12.023
81449W        W49854   8.478   7.121   2.413
81450W        W49855  30.482  35.840  13.101
81451W        W49856  17.230  30.519   0.900
81452W        W49857  41.311   3.151   1.831
81453W        W49858   1.913  27.200   0.935
81454W        W49859  13.630  16.677   1.772
81455W        W49860   2.976  14.133  10.443
81456W        W49861  23.091  42.465   1.918
81457W        W49862  44.251  42.390  13.452
81458W        W49863  26.437  20.987  10.728
81459W        W49864  14.675  10.105  13.042
81460W        W49865  36.490  16.429   2.895
81461W        W49866  26.999  36.570   3.810
81462W        W49867  40.333  21.183  11.721
81463W        W49868  11.600  14.249  12.556
81464W        W49869  40.613  14.696  14.463
81465W        W49870  11.415  36.801   1.205
81466W        W49871  43.031   7.623   1.684
81467W        W49872  25.595  35.289   3.070
81468W        W49873   6.781  37.933  12.604
81469W        W49874   8.972  21.025   0.246
81470W        W49875   2.002  10.335   2.313
81471W        W49876  22.265  28.970   2.826
81472W        W49877   3.900  29.917   0.294
81473W        W49878   4.376  42.247  10.932
81474W        W49879  23.560  12.888  12.072
81475W        W49880  33.503   4.114  11.199
81476W        W49881   4.154  23.085   2.666
81477W        W49882  12.339  41.948   3.199
81478W        W49883  28.025  37.791  13.738
81479W        W49884   3.705   8.807   0.897
81480W        W49885  27.525   6.284   2.290
81481W        W49886  11.278  26.928   4.201
81482W        W49887  26.561  31.127   4.103
81483W        W49888   9.176  28.234   5.548
81484W        W49889  39.955  10.573  12.755
81485W        W49890  16.384  38.496   2.612
81486W        W49891  12.486   4.230   2.567
81487W        W49892  36.433  26.615  14.436
81488W        W49893  15.818  42.479   0.413
81489W        W49894  38.528  12.259   4.086
81490W        W49895  36.771  36.977  14.541
81491W        W49896  38.280   9.534   4.564
81492W        W49897  27.940  33.507   0.684
81493W        W49898  34.259  28.643   1.045
81494W        W49899  31.168  19.014  10.996
81495W        W49900  16.620   5.764  11.691
81496W        W49901  35.361  22.008   4.239
81497W        W49902  25.601  34.644  12.858
81498W        W49903  10.144   2.966   1.785
81499W        W49904  31.383   0.040  12.144
81500W        W49905  29.661  32.677  10.909
81501W        W49906  37.315  34.519  13.912
81502W        W49907  19.259  29.934  14.997
81503W        W49908  37.098  37.594  13.526
81504W        W49909  40.376  23.129  11.186
81505W        W49910  22.250   6.185  12.955
81506W        W49911  40.317   9.622  13.986
81507W        W49912   5.341  12.355  11.989
81508W        W49913  12.147   2.762  11.089
81509W        W49914  43.862  13.063  13.053
81510W        W49915  38.333  28.142  10.933
81511W        W49916  28.581  40.100   2.602
81512W        W49917  12.272  22.834   0.867
81513W        W49918   1.879  16.594  10.936
81514W        W49919   9.150  17.103   0.870
81515W        W49920  18.313  35.387   1.919
81516W        W49921  44.684   5.620  13.990
81517W        W49922  37.603  23.636  14.791
81518W        W49923  21.507  34.027   3.285
81519W        W49924  27.282  34.407   1.478
81520W        W49925  12.593   8.212   4.682
81521W        W49926  33.206  11.013   0.805
81522W        W49927  44.482  37.602  13.896
81523W        W49928  41.115   9.388   1.316
81524W        W49929  42.829  25.185   4.639
81525W        W49930  12.188  13.941   1.741
81526W        W49931  31.376  10.805   1.638
81527W        W49932   0.541  15.610   2.095
81528W        W49933  28.684  37.924   5.391
81529W        W49934  14.286  12.579   2.433
81530W        W49935  11.348  18.654  14.931
81531W        W49936  30.959  23.039   4.700
81532W        W49937  20.984  12.701  13.044
81533W        W49938  36.168  34.890  10.698
81534W        W49939  33.497  24.791   1.302
81535W        W49940  37.119  23.477  13.428
81536W        W49941   2.336  12.822   1.793
81537W        W49942  44.981   3.719  12.026
81538W        W49943  36.785   9.288  10.954
81539W        W49944  23.744  22.205  12.041
81540W        W49945  12.521  44.235  10.314
81541W        W49946  21.165  38.909   2.089
81542W        W49947   2.781  17.378  12.124
81543W        W49948  31.071  10.833  11.615
81544W        W49949  19.732  11.404  10.585
81545W        W49950  39.511  23.191  11.220
81546W        W49951  36.816  14.765   3.248
81547W        W49952  12.825  12.114   2.586
81548W        W49953   6.429  44.321   1.836
81549W        W49954  18.776  19.120  14.537
81550W        W49955  37.268  38.375  11.682
81551W        W49956  10.372  38.330  13.784
81552W        W49957  11.686  11.144   4.769
81553W        W49958  34.557   8.416   1.750
81554W        W49959  44.380   7.258   1.152
81555W        W49960  34.127   4.657  12.489
81556W        W49961   4.813  21.587   0.419
81557W        W49962  40.262  27.632  13.386
81558W        W49963  12.572  13.387  12.634
81559W        W49964  17.074  34.075   2.324
81560W        W49965   4.699  29.524  11.916
81561W        W49966  25.112   9.061  13.555
81562W        W49967  40.672  39.245  10.853
81563W        W49968  41.916  24.772   2.627
81564W        W49969  39.440  37.791   1.947
81565W        W49970  36.734  42.745   9.994
81566W        W49971  29.857  40.163   1.432
81567W        W49972  23.188  17.797   1.003
81568W        W49973   1.833  44.494   2.892
81569W        W49974   1.812   4.496  14.020
81570W        W49975  10.387  25.521   1.916
81571W        W49976  44.081  34.621  12.100
81572W        W49977  25.647  23.266  11.422
81573W        W49978  35.316  29.466  14.266
81574W        W49979   9.161  36.436   2.242
81575W        W49980  22.391   8.709   3.626
81576W        W49981  30.025   7.872   1.264
81577W        W49982   6.092   9.412   2.788
81578W        W49983   0.238  25.169   3.313
81579W        W49984  40.300  24.193  11.016
81580W        W49985  29.528  29.676  13.592
81581W        W49986  19.188  20.256  14.379
81582W        W49987  35.997  21.237  14.829
81583W        W49988  11.316  28.220  10.752
81584W        W49989  14.555   5.257   1.273
81585W        W49990  41.260  30.242  14.725
81586W        W49991  30.425  10.342  11.603
81587W        W49992  25.266   2.143  12.874
81588W        W49993  12.243  43.818  12.475
81589W        W49994   7.575   5.075   1.908
81590W        W49995  38.640  28.928   0.185
81591W        W49996  19.547  44.001   3.756
81592W        W49997  18.269  26.220   3.208
81593W        W49998  22.050  18.583  14.955
81594W        W49999  33.095   4.447   0.515
81595W        W50000  12.633  34.812   3.442
81596W        W50001  19.558   9.707   3.623
81597W        W50002  14.207  10.256  11.919
81598W        W50003  41.050  17.629   3.831
81599W        W50004   6.427  15.250   1.392
81600W        W50005  23.501  34.008   1.499
81601W        W50006  21.686  42.261   2.391
81602W        W50007  20.561  27.519   0.923
81603W        W50008   9.884  39.399  10.950
81604W        W50009   7.403  38.344  10.784
81605W        W50010  19.761  41.869  13.100
81606W        W50011   1.326   4.765   2.189
81607W        W50012  32.033  21.729  10.730
81608W        W50013  24.664  43.829   0.587
81609W        W50014  44.710  17.055  10.786
81610W        W50015  36.234  13.948   1.813
81611W        W50016  36.878  37.659   2.817
81612W        W50017   7.690   2.915  12.031
81613W        W50018  33.522  38.566  10.385
81614W        W50019  18.371   3.897  11.329
81615W        W50020  31.613  26.471  13.564
81616W        W50021  11.016  39.431  13.977
81617W        W50022  14.253  30.886  12.821
81618W        W50023  11.273  42.869   1.764
81619W        W50024  42.966   0.459   4.648
81620W        W50025  27.515   8.380   4.854
81621W        W50026  19.590  28.951  14.227
81622W        W50027  37.343  43.511  14.232
81623W        W50028   0.674  38.808   0.263
81624W        W50029   1.968  11.721   0.625
81625W        W50030  30.671  15.277  11.589
81626W        W50031   0.306  32.009  10.592
81627W        W50032  16.602  12.588  14.312
81628W        W50033   4.317  34.246   2.562
81629W        W50034  41.381   3.296  13.536
81630W        W50035  44.350  36.344  14.435
81631W        W50036   5.865  22.942   0.482
81632W        W50037  31.451   3.715  12.875
81633W        W50038  34.565  10.293  11.146
81634W        W50039  12.294  30.579  13.938
81635W        W50040  34.536  14.320   2.770
81636W        W50041  21.791  19.062   4.046
81637W        W50042  35.523   9.657   3.608
81638W        W50043  27.990   6.472   0.310
81639W        W50044  12.232  15.824   0.880
81640W        W50045  37.137  43.980   2.192
81641W        W50046  10.473  20.121  12.929
81642W        W50047   8.791  11.421   2.315
81643W        W50048  10.791  29.166  12.664
81644W        W50049  13.318  20.599   4.466
81645W        W50050   2.827  27.173   2.172
81646W        W50051   1.892   7.290  11.725
81647W        W50052  44.301   4.323  14.914
81648W        W50053  34.525  43.221  11.699
81649W        W50054  14.992  34.344   0.426
81650W        W50055  35.326   7.831  12.593
81651W        W50056  33.132   8.422  11.448
81652W        W50057  41.295   1.511   2.201
81653W        W50058  15.671  32.994  12.428
81654W        W50059  44.244  20.540  10.290
81655W        W50060  38.007  13.878   1.842
81656W        W50061  37.044   1.100   3.195
81657W        W50062  22.243  10.521  10.631
81658W        W50063  13.052  13.606  14.461
81659W        W50064   1.888   0.788  12.544
81660W        W50065  34.902  32.934  12.583
81661W        W50066  30.289  20.229   0.239
81662W        W50067   5.223  29.638   0.141
81663W        W50068  18.539   0.245  14.427
81664W        W50069  24.054  25.660   4.483
81665W        W50070  20.538  31.461  14.039
81666W        W50071  34.446  26.006   3.396
81667W        W50072  30.099  21.818  11.063
81668W        W50073  36.655  12.825  12.709
81669W        W50074  37.646  36.644  11.542
81670W        W50075  10.711  35.158  13.528
81671W        W50076  19.272  16.639   3.315
81672W        W50077   2.870  24.056  11.502
81673W        W50078  32.057  21.239  10.560
81674W        W50079  23.440  41.943  12.828
81675W        W50080  24.135  22.228   0.457
81676W        W50081   3.654  37.048  12.731
81677W        W50082  10.497  15.534   3.205
81678W        W50083  23.255  21.106  11.098
81679W        W50084  41.223  34.310  11.501
81680W        W50085  34.610  36.393  11.719
81681W        W50086   7.014   0.905  12.623
81682W        W50087  15.502  33.667   2.887
81683W        W50088  44.115   0.803  13.046
81684W        W50089  10.365  13.713   0.412
81685W        W50090  44.492   8.371  12.430
81686W        W50091  31.415  20.974   3.335
81687W        W50092   8.218  40.770  11.787
81688W        W50093  44.860  35.499  11.566
81689W        W50094   0.950  18.136   3.703
81690W        W50095   7.232  27.768   2.365
81691W        W50096   1.233   4.393   0.893
81692W        W50097  33.942  31.483  10.714
81693W        W50098  33.776   5.753   0.712
81694W        W50099  10.372   3.228   2.370
81695W        W50100  17.581  23.088  12.995
81696W        W50101  33.030  12.674   1.692
81697W        W50102  32.214  17.240   3.610
81698W        W50103  16.821  12.876  13.085
81699W        W50104  41.346  26.994  13.831
81700W        W50105  23.470  22.254   4.421
81701W        W50106  35.613   5.884   4.191
81702W        W50107  34.037   9.174   3.054
81703W        W50108  35.945   9.508  12.037
81704W        W50109   2.352  11.367   0.716
81705W        W50110  35.841  44.490   0.910
81706W        W50111  29.312   7.594   3.167
81707W        W50112   7.203  19.586  13.386
81708W        W50113  21.192   8.724   4.814
81709W        W50114  34.839  40.394  12.893
81710W        W50115  36.346   5.809   3.811
81711W        W50116  10.123  34.359   0.808
81712W        W50117   1.419  33.667  14.012
81713W        W50118  23.238  10.201  10.657
81714W        W50119  31.852   7.729  12.020
81715W        W50120  39.003  44.516  13.069
81716W        W50121  37.442  40.054  14.799
81717W        W50122  10.806  30.368  13.442
81718W        W50123  16.027  21.428   2.157
81719W        W50124  36.374  30.101   2.430
81720W        W50125  36.670  16.918   1.689
81721W        W50126   1.161  26.733   3.751
81722W        W50127  31.669  31.819   1.762
81723W        W50128  31.414  27.126  12.809
81724W        W50129   9.646  19.811  12.044
81725W        W50130  26.395  43.052   3.938
81726W        W50131   1.354  24.649  10.539
81727W        W50132  17.583   2.293   3.768
81728W        W50133  17.246  18.419  13.031
81729W        W50134   7.811   4.150  13.533
81730W        W50135  11.964  26.100   0.892
81731W        W50136  38.741   0.297  12.984
81732W        W50137  21.738  27.552  13.571
81733W        W50138  25.038   6.980  11.038
81734W        W50139  38.862   7.206  10.587
81735W        W50140  10.685  37.288   2.753
81736W        W50141  36.826  13.243   0.311
81737W        W50142  31.680  44.811  13.010
81738W        W50143   1.927  13.599  12.118
81739W        W50144  40.367  14.533  11.293
81740W        W50145  25.118   4.426  14.311
81741W        W50146  13.864   8.747  13.082
81742W        W50147  13.825  11.428  10.992
81743W        W50148  30.429  19.046  10.587
81744W        W50149  16.341  17.360  14.878
81745W        W50150   6.142  17.205   0.377
81746W        W50151  26.928  32.413  12.432
81747W        W50152  40.441  16.929   3.305
81748W        W50153  14.250  31.707   3.337
81749W        W50154   4.432  44.723  12.690
81750W        W50155  43.023  16.809   0.896
81751W        W50156   8.709  31.103   4.587
81752W        W50157  43.840  36.649   0.815
81753W        W50158  27.932  29.208   3.631
81754W        W50159  42.545  42.892  10.646
81755W        W50160   8.258  24.412   4.690
81756W        W50161  17.486   0.751  10.564
81757W        W50162   2.301  44.737  12.993
81758W        W50163  27.130   3.452   2.137
81759W        W50164  40.558  38.477  13.200
81760W        W50165  34.104  22.539   0.859
81761W        W50166   9.749   8.494  13.865
81762W        W50167  33.543  20.715   0.048
81763W        W50168   3.528  21.038  13.433
81764W        W50169  32.220   4.511  12.143
81765W        W50170  18.034  18.085   3.133
81766W        W50171  11.107  21.595  13.394
81767W        W50172  28.846  42.365  11.276
81768W        W50173  34.019  14.805  13.433
81769W        W50174  11.120  30.646   2.420
81770W        W50175   9.130  29.044   2.280
81771W        W50176   6.648  23.223   0.042
81772W        W50177  27.500  33.002   2.224
81773W        W50178  18.001  23.853  13.281
81774W        W50179   0.338  40.387   0.872
81775W        W50180  40.733   3.030   5.419
81776W        W50181   0.274  38.443  14.724
81777W        W50182  16.752  19.826   2.217
81778W        W50183   7.954  25.118  12.945
81779W        W50184  14.040  14.344  14.904
81780W        W50185  41.408   1.403   0.270
81781W        W50186  21.727  41.323   3.353
81782W        W50187  43.011  29.611  11.590
81783W        W50188  31.435  23.645  13.771
81784W        W50189  35.819  23.168   2.371
81785W        W50190  21.577  26.861  11.010
81786W        W50191  37.857  13.062  13.458
81787W        W50192   5.629   9.453  11.863
81788W        W50193   0.948   1.862   2.143
81789W        W50194  34.528   7.186  11.660
81790W        W50195   3.554  37.521  13.536
81791W        W50196  11.362  20.403   1.419
81792W        W50197  29.125  32.898  10.741
81793W        W50198  44.453  15.728   1.423
81794W        W50199  25.258  20.725  13.412
81795W        W50200  25.529   2.857  12.172
81796W        W50201  33.388  25.961   3.338
81797W        W50202  24.492  29.104   3.620
81798W        W50203  34.395  30.521  11.594
81799W        W50204  28.916  14.274   1.764
81800W        W50205  13.942  23.937   3.162
81801W        W50206  15.688  16.603  10.695
81802W        W50207  26.731  26.626   1.452
81803W        W50208  40.561  31.074   2.358
81804W        W50209  25.912  40.734  11.505
81805W        W50210  30.976  18.094   0.518
81806W        W50211  32.665  19.076   0.187
81807W        W50212   6.416  11.662   0.762
81808W        W50213  14.861  37.301  10.781
81809W        W50214  24.806  36.593  11.118
81810W        W50215   6.031  31.393   4.243
81811W        W50216  40.443   6.862   1.903
81812W        W50217  39.956   2.354   2.936
81813W        W50218  18.167   4.197  13.398
81814W        W50219  13.658  43.440   1.676
81815W        W50220  30.631   6.920   2.148
81816W        W50221   2.303  22.634   4.944
81817W        W50222  24.408  36.219   2.788
81818W        W50223  34.063  21.595  13.777
81819W        W50224   2.790  29.016  13.924
81820W        W50225   8.005  42.870   0.899
81821W        W50226  26.915  24.964   5.374
81822W        W50227  10.726  39.097  14.335
81823W        W50228  20.284  40.726   1.163
81824W        W50229   8.580  38.175  11.413
81825W        W50230  14.091  12.837  12.334
81826W        W50231  34.279  39.474  10.535
81827W        W50232  35.938  15.041  12.962
81828W        W50233  30.560  30.443   3.872
81829W        W50234  26.731  14.817   2.074
81830W        W50235  41.469  19.645   1.633
81831W        W50236  42.377  24.477   3.604
81832W        W50237  11.835  44.382   4.354
81833W        W50238  30.867  10.266   2.715
81834W        W50239  41.981  34.032   1.392
81835W        W50240  36.420   9.428  12.424
81836W        W50241  10.439  11.181  10.887
81837W        W50242  26.011  24.796  14.385
81838W        W50243  44.993  24.634  12.194
81839W        W50244  25.178  37.952  11.654
81840W        W50245  23.253  44.318   1.462
81841W        W50246  22.992  40.384   4.215
81842W        W50247   1.219  35.896  11.910
81843W        W50248   9.760  38.480  10.504
81844W        W50249  35.342  28.971  10.775
81845W        W50250  25.512  37.998   0.497
81846W        W50251  14.479  40.950   4.303
81847W        W50252  21.676  14.728  12.139
81848W        W50253  25.078   8.191   1.661
81849W        W50254  28.076  18.323  11.896
81850W        W50255   4.138   8.268  11.394
81851W        W50256  13.209  16.794   4.869
81852W        W50257  43.267  24.719   3.374
81853W        W50258   3.039  36.095   0.336
81854W        W50259  16.570  22.624  10.619
81855W        W50260  42.039   1.257  12.478
81856W        W50261   8.157  28.242   0.002
81857W        W50262  19.669   2.136   0.933
81858W        W50263  17.518  29.096  11.703
81859W        W50264  39.563  31.419  14.873
81860W        W50265  41.876   1.805   1.241
81861W        W50266  15.408  18.021  10.765
81862W        W50267  30.853  43.231  13.957
81863W        W50268  35.118  26.705   1.643
81864W        W50269  20.966  42.261  14.343
81865W        W50270   4.102  16.714  11.133
81866W        W50271   1.869  39.551   4.532
81867W        W50272  28.144  20.038   0.271
81868W        W50273  30.563  30.496  12.664
81869W        W50274  36.308   3.501  13.871
81870W        W50275  17.647  35.545  13.615
81871W        W50276  33.890  36.403  13.821
81872W        W50277  19.273  15.215   0.740
81873W        W50278  27.484  20.997   4.074
81874W        W50279  43.379   1.823   3.254
81875W        W50280   2.753   2.844   2.543
81876W        W50281  21.300  12.587   4.968
81877W        W50282  28.438  35.569   2.863
81878W        W50283  13.151  41.923  11.399
81879W        W50284  39.815  16.991  13.906
81880W        W50285  32.148  29.459  11.961
81881W        W50286   0.911  10.845   2.803
81882W        W50287  21.155  10.338   4.512
81883W        W50288   3.406  23.243  12.900
81884W        W50289  21.500  40.121  11.832
81885W        W50290  32.409   2.982   4.528
81886W        W50291  15.591  26.668   0.861
81887W        W50292  39.376   9.754  13.787
81888W        W50293  41.078  21.141  11.283
81889W        W50294  42.211   5.899  12.832
81890W        W50295  43.069  34.921   2.778
81891W        W50296   7.806   4.646   3.337
81892W        W50297  44.762  35.556  14.291
81893W        W50298  31.959  44.557   0.701
81894W        W50299   0.257  22.466   0.850
81895W        W50300  12.177  32.939  12.928
81896W        W50301  32.048  14.836  12.112
81897W        W50302  26.515  20.007   0.003
81898W        W50303  28.203  15.629  13.967
81899W        W50304  40.844   8.381   2.946
81900W        W50305  42.319  25.692  14.294
81901W        W50306  32.592   6.300  11.161
81902W        W50307  39.468  37.903   2.952
81903W        W50308  10.591   8.655   4.063
81904W        W50309  22.014   4.932  11.081
81905W        W50310  32.443  42.416   0.856
81906W        W50311   3.155  18.176   1.750
81907W        W50312  34.951  10.243   3.272
81908W        W50313   6.325  30.907  10.665
81909W        W50314   9.967  26.089  10.301
81910W        W50315  40.440  44.935   2.931
81911W        W50316  21.958   8.891   2.729
81912W        W50317  31.947  29.506   2.255
81913W        W50318  23.189  19.058   5.058
81914W        W50319   5.938  25.994  13.303
81915W        W50320  38.942  24.184   3.470
81916W        W50321   0.550  31.557   4.577
81917W        W50322  12.763   5.303   0.682
81918W        W50323   6.460   0.988   4.096
81919W        W50324   1.339  39.854   1.260
81920W        W50325  12.849  27.233  12.401
81921W        W50326  13.579  26.175  14.816
81922W        W50327  34.061  33.628   4.580
81923W        W50328  15.982  32.835  12.899
81924W        W50329   6.734  12.220  12.038
81925W        W50330  16.127  23.296   5.206
81926W        W50331  26.187  21.545   3.690
81927W        W50332   3.820   1.984   5.072
81928W        W50333  38.372  24.482   2.578
81929W        W50334   6.422   8.873   1.222
81930W        W50335  13.101  12.183   0.358
81931W        W50336  31.180  36.479  11.669
81932W        W50337  36.438  11.890  10.815
81933W        W50338   7.197   0.784  12.163
81934W        W50339  30.050  42.556   2.244
81935W        W50340  11.858   5.916   1.897
81936W        W50341  44.434   1.542  14.385
81937W        W50342   0.466  29.493  11.959
81938W        W50343  27.848  29.043   2.277
81939W        W50344  23.006  11.801  10.960
81940W        W50345   0.777  29.095  13.342
81941W        W50346  12.145  12.200  11.139
81942W        W50347   3.391  12.293   4.072
81943W        W50348   0.816  29.021   0.225
81944W        W50349  16.006  20.878   3.566
81945W        W50350   6.930  19.842  14.274
81946W        W50351  43.860  37.069   1.714
81947W        W50352  16.685  13.459  14.822
81948W        W50353  25.594  31.988  13.955
81949W        W50354  42.825  34.810  13.477
81950W        W50355  44.303  34.388  12.511
81951W        W50356  37.431  25.753   4.230
81952W        W50357  34.497  22.307   2.267
81953W        W50358   0.390  43.820  11.387
81954W        W50359  34.170  25.075   1.321
81955W        W50360  22.039  17.825   0.367
81956W        W50361  26.008  10.132   3.649
81957W        W50362  21.842   0.400   1.947
81958W        W50363  11.872  29.978   1.461
81959W        W50364  42.507   5.815   4.060
81960W        W50365   9.417  22.260  12.516
81961W        W50366  24.204  10.030  10.811
81962W        W50367  24.112  23.625   1.673
81963W        W50368  22.593  38.355   1.775
81964W        W50369  34.708  14.720   4.237
81965W        W50370  30.347  35.547  12.604
81966W        W50371  13.227   8.799  14.496
81967W        W50372   6.658  12.356  10.780
81968W        W50373   6.689  13.636   1.828
81969W        W50374  40.073  19.603  11.825
81970W        W50375  21.253  12.696   3.521
81971W        W50376  14.825  27.325  12.503
81972W        W50377  38.096  15.641  13.494
81973W        W50378  13.315   3.376   4.638
81974W        W50379  26.367  17.192  14.963
81975W        W50380  15.566   1.551   5.444
81976W        W50381  11.332  28.984   4.120
81977W        W50382  19.309  36.378  14.957
81978W        W50383  39.838  22.730   4.388
81979W        W50384  22.982  17.290   2.211
81980W        W50385   8.842  20.696  10.622
81981W        W50386   4.303  23.403  12.390
81982W        W50387  11.215   1.789   0.484
81983W        W50388  16.540  26.495   0.740
81984W        W50389  39.782  10.140  13.624
81985W        W50390   2.375  21.815   1.550
81986W        W50391   5.763   8.686  11.170
81987W        W50392  22.442  23.049   0.215
81988W        W50393  41.239  38.631   4.214
81989W        W50394  24.563  36.037   0.027
81990W        W50395  20.190  42.607   5.132
81991W        W50396   7.920  42.203   2.423
81992W        W50397  14.897  32.675   3.124
81993W        W50398  32.455   5.872   4.293
81994W        W50399   1.729   9.532  12.822
81995W        W50400  16.573  34.044   2.147
81996W        W50401   9.897   0.317  12.595
81997W        W50402  10.672  43.437   2.879
81998W        W50403   0.171  13.219   2.868
81999W        W50404  38.922  10.668  11.986
82000W        W50405  25.568  15.595   4.144
82001W        W50406  26.068  15.747  14.375
82002W        W50407  20.670  36.896  14.399
82003W        W50408  43.206  26.687  10.189
82004W        W50409  44.820  31.750   4.079
82005W        W50410  37.891  11.830  10.357
82006W        W50411  17.282  19.717   4.935
82007W        W50412  39.580   2.039  12.921
82008W        W50413  19.573  37.058  12.965
82009W        W50414  30.490  33.342   2.525
82010W        W50415  17.892   9.986   4.549
82011W        W50416  14.259  43.535  14.411
82012W        W50417  17.086  15.060   0.215
82013W        W50418   0.920   1.451  10.388
82014W        W50419   5.951   5.219   3.268
82015W        W50420   3.694  41.219   0.051
82016W        W50421   6.260  32.922   1.450
82017W        W50422  37.757  15.204  13.514
82018W        W50423  34.603  35.010   0.151
82019W        W50424  21.149  40.092   5.039
82020W        W50425  20.268  32.961   3.061
82021W        W50426  27.236  30.953  12.094
82022W        W50427  13.830   5.476  12.448
82023W        W50428  19.074  30.361  14.727
82024W        W50429  13.786  41.508   0.883
82025W        W50430  23.670  26.997   2.733
82026W        W50431   8.375   1.722   0.399
82027W        W50432  42.271  34.874   1.976
82028W        W50433  29.342  44.590   2.321
82029W        W50434  26.063  17.304   0.363
82030W        W50435  33.401  22.483  13.297
82031W        W50436  30.949   8.482  13.933
82032W        W50437  21.767   7.956  11.930
82033W        W50438  30.400  12.718  11.187
82034W        W50439   8.923  44.761  12.981
82035W        W50440  23.687  30.949  13.411
82036W        W50441  34.793  17.379  10.094
82037W        W50442  43.909  31.206   2.352
82038W        W50443  33.501  27.974  12.955
82039W        W50444  12.461  24.453  13.421
82040W        W50445  12.697  32.517   3.009
82041W        W50446  32.891  19.795  13.498
82042W        W50447   2.401   1.704   0.476
82043W        W50448  35.367  13.327  12.083
82044W        W50449  32.584  12.329  13.801
82045W        W50450  26.018  25.052   3.738
82046W        W50451  22.357  31.060  14.533
82047W        W50452   1.284  41.996  12.204
82048W        W50453  40.982   1.782  11.596
82049W        W50454  21.287  11.005  10.473
82050W        W50455  13.799  27.284   2.901
82051W        W50456  35.002   4.832   0.334
82052W        W50457  37.258  35.884   0.171
82053W        W50458  25.722  16.246   1.592
82054W        W50459  22.569  16.793   1.659
82055W        W50460  35.513  39.107   3.365
82056W        W50461  43.417   4.242  13.326
82057W        W50462   9.007  36.055  13.918
82058W        W50463  13.831  26.040  13.334
82059W        W50464   4.767  42.190   3.236
82060W        W50465   9.670  28.114  14.950
82061W        W50466  40.022  44.263  12.994
82062W        W50467  21.026  38.886   1.234
82063W        W50468  43.863  33.413  12.627
82064W        W50469  43.279   3.387   1.530
82065W        W50470   1.002   0.888   1.206
82066W        W50471  32.907  33.420  10.632
82067W        W50472   5.201  19.170  14.453
82068W        W50473  40.737  37.015   1.455
82069W        W50474   9.811   6.706   0.228
82070W        W50475  28.177   5.847  11.110
82071W        W50476  20.754  32.211  11.025
82072W        W50477  18.836  25.597  10.128
82073W        W50478  38.842  28.551   4.568
82074W        W50479   0.851  19.997  12.095
82075W        W50480  44.399  25.217   1.646
82076W        W50481  33.466  22.464   5.004
82077W        W50482  30.506   2.992  14.250
82078W        W50483  17.406  20.272  12.597
82079W        W50484   0.867  17.385  13.023
82080W        W50485  23.125  34.971  10.715
82081W        W50486  21.552   5.879   1.377
82082W        W50487  10.580   9.661   4.098
82083W        W50488  16.129  22.291  11.863
82084W        W50489  38.356  42.462   2.827
82085W        W50490  32.610   2.194   1.310
82086W        W50491  30.604   5.898   3.482
82087W        W50492   4.916   0.292  12.822
82088W        W50493   5.764  19.006  13.388
82089W        W50494  19.112  28.609   2.844
82090W        W50495   0.844   2.535   2.617
82091W        W50496  23.004  15.695   1.927
82092W        W50497   3.753  30.985  13.859
82093W        W50498  10.205  16.812   3.146
82094W        W50499   0.279   7.790   0.910
82095W        W50500  26.475  21.538   4.125
82096W        W50501  31.533  19.719  11.925
82097W        W50502  16.043  40.881   3.697
82098W        W50503  39.898  36.441  14.342
82099W        W50504  21.291  41.574  13.747
82100W        W50505  10.963  31.734  13.479
82101W        W50506   9.232  22.996  13.029
82102W        W50507  43.827   9.414  13.848
82103W        W50508   8.472  11.589  14.330
82104W        W50509  32.556  39.117   3.193
82105W        W50510  26.394  40.622   1.017
82106W        W50511  20.057  34.377  10.716
82107W        W50512  26.200  28.116   3.288
82108W        W50513   8.815   8.008  11.861
82109W        W50514   7.283  33.957   4.332
82110W        W50515  26.332  11.844   0.542
82111W        W50516  44.953   6.977   5.482
82112W        W50517  13.285  31.586   0.484
82113W        W50518  43.467  13.484   2.280
82114W        W50519  34.865  41.074  14.327
82115W        W50520  40.466   3.281   5.003
82116W        W50521  43.435  13.653  10.500
82117W        W50522   0.256  38.944   4.093
82118W        W50523  34.393  16.264  14.542
82119W        W50524   4.784  11.178  10.727
82120W        W50525   8.366   9.172   3.661
82121W        W50526  21.991  44.528   1.083
82122W        W50527  29.770  32.454   3.158
82123W        W50528  14.809  42.033  13.122
82124W        W50529  10.114  32.403   0.978
82125W        W50530  26.597  21.034   0.661
82126W        W50531   9.195   6.850  12.701
82127W        W50532   0.496  39.577   3.665
82128W        W50533  28.041   3.447  11.610
82129W        W50534  39.603  14.864   1.898
82130W        W50535  37.836  25.706  10.875
82131W        W50536   0.929  18.517   2.256
82132W        W50537  20.266   3.813  11.450
82133W        W50538   4.830  27.206   0.029
82134W        W50539  26.484   5.365  12.778
82135W        W50540  38.968  31.340   3.581
82136W        W50541  39.706  16.618  14.884
82137W        W50542   4.339  18.325   0.497
82138W        W50543  43.763  18.993   2.696
82139W        W50544  27.250   7.918   1.465
82140W        W50545   3.695  17.445  12.113
82141W        W50546  38.033  16.537   1.253
82142W        W50547  11.709  12.834   3.887
82143W        W50548  29.095  41.358  13.706
82144W        W50549  23.611   7.905  12.993
82145W        W50550   8.740  36.673   0.407
82146W        W50551  33.000   6.750  13.324
82147W        W50552  12.644  37.538  12.503
82148W        W50553  12.888  20.427   4.167
82149W        W50554  23.739  39.586   3.655
82150W        W50555  33.480  34.967  10.267
82151W        W50556   2.941  26.575  11.192
82152W        W50557  28.487  41.763   3.276
82153W        W50558  31.890  24.662  10.904
82154W        W50559  10.378   6.275  11.949
82155W        W50560   1.529  23.082   3.763
82156W        W50561  41.836  10.912  12.111
82157W        W50562   3.757  11.678   4.254
82158W        W50563  11.158  25.035   4.584
82159W        W50564  20.528   3.405  11.182
82160W        W50565  20.745   0.334  10.712
82161W        W50566  29.012  24.400  12.024
82162W        W50567   6.447  29.561   2.225
82163W        W50568  44.763  33.583   3.830
82164W        W50569  38.579   5.764   1.333
82165W        W50570  27.232  18.347  13.385
82166W        W50571  20.238  30.595   0.429
82167W        W50572  35.459  37.198   4.388
82168W        W50573   7.193  39.790  13.856
82169W        W50574  36.108  20.219   0.717
82170W        W50575   3.236  15.663   1.230
82171W        W50576  32.396  24.344  14.363
82172W        W50577  34.062  32.351  12.702
82173W        W50578   0.584  21.559   1.782
82174W        W50579  21.705   2.695   1.060
82175W        W50580  43.584  10.362  13.002
82176W        W50581  20.165  22.225   0.001
82177W        W50582  24.029  33.943   1.485
82178W        W50583  18.154   6.532   0.036
82179W        W50584  35.524  36.271   2.933
82180W        W50585  14.882   5.454   2.307
82181W        W50586  27.140  33.657   4.620
82182W        W50587  12.896  27.958   4.695
82183W        W50588  17.266   9.386   1.622
82184W        W50589  33.889  37.088   0.491
82185W        W50590  19.982  16.741  14.908
82186W        W50591  23.156  20.032   1.447
82187W        W50592  20.179   6.559   9.821
82188W        W50593  35.890  24.279  12.573
82189W        W50594  16.787  27.006  11.455
82190W        W50595  34.664  34.606   4.580
82191W        W50596  31.728  37.438  13.525
82192W        W50597  37.569  43.930  11.993
82193W        W50598  28.138  15.281  13.071
82194W        W50599  33.520  33.402   0.489
82195W        W50600  15.634   8.183   0.028
82196W        W50601  31.428  25.136   0.908
82197W        W50602   3.262   9.275   3.329
82198W        W50603  14.105  34.048   4.588
82199W        W50604   5.272   0.750  13.897
82200W        W50605   4.692  34.991   0.354
82201W        W50606  36.893  25.615  14.464
82202W        W50607  33.643  42.798  12.617
82203W        W50608  20.717  42.028   3.914
82204W        W50609   5.702   7.790  14.940
82205W        W50610  19.139  11.433   1.701
82206W        W50611  10.669  38.886  14.871
82207W        W50612   7.701  25.179  12.502
82208W        W50613  37.539  11.412   1.905
82209W        W50614   3.928   1.267   4.712
82210W        W50615  38.800  12.883   5.211
82211W        W50616  26.087  28.654  14.921
82212W        W50617  31.645  12.305   1.061
82213W        W50618   6.382  14.453   0.722
82214W        W50619  43.462  40.782  13.244
82215W        W50620  43.004  24.654   1.995
82216W        W50621  29.743  26.441   2.735
82217W        W50622  40.453  36.456  10.316
82218W        W50623  43.302  30.463   2.504
82219W        W50624  22.479  23.480   4.487
82220W        W50625   1.537  28.554  14.433
82221W        W50626   7.248   5.706   4.576
82222W        W50627   1.965   7.137   0.613
82223W        W50628  29.053  24.323  10.607
82224W        W50629   2.040  13.444   4.061
82225W        W50630  34.495  27.262   1.140
82226W        W50631  20.680  28.376  12.167
82227W        W50632   2.750  22.246  11.157
82228W        W50633   5.313   2.890   1.659
82229W        W50634  30.832   0.988  12.369
82230W        W50635   6.763   7.248  12.448
82231W        W50636  20.800   1.736   1.388
82232W        W50637  29.102  41.986  11.545
82233W        W50638  16.516  33.219   2.260
82234W        W50639  14.895   2.063   4.875
82235W        W50640   9.885  36.231   1.954
82236W        W50641  16.615  17.679  10.599
82237W        W50642   2.979  28.016   0.278
82238W        W50643  30.203   9.629  12.141
82239W        W50644  15.101  26.212   1.232
82240W        W50645  36.364  22.572   2.743
82241W        W50646   4.677   2.356   3.636
82242W        W50647  28.289  34.985  14.097
82243W        W50648  35.076   9.397  11.170
82244W        W50649  39.990  37.352   0.846
82245W        W50650  25.574  15.416  10.671
82246W        W50651   9.225  28.005  13.849
82247W        W50652  35.353   6.777   0.206
82248W        W50653  28.729  10.756   4.258
82249W        W50654  37.495  39.151  12.612
82250W        W50655  38.912   6.098  11.166
82251W        W50656  13.460  30.235  13.438
82252W        W50657  31.078  37.556   3.750
82253W        W50658  16.306  18.282   0.493
82254W        W50659  24.550  29.905  11.998
82255W        W50660   8.924  39.633  11.031
82256W        W50661  20.115  19.140  12.812
82257W        W50662  35.465   6.089  14.781
82258W        W50663  16.158   6.434  14.017
82259W        W50664  40.263   5.608  12.940
82260W        W50665   8.415   2.237  12.865
82261W        W50666   2.358  14.989   4.032
82262W        W50667  33.314   2.482   2.058
82263W        W50668  10.126  43.835   4.671
82264W        W50669  22.256   7.046  13.779
82265W        W50670  12.955  42.962  10.668
82266W        W50671  38.765  36.388  10.172
82267W        W50672  44.589   3.858  12.913
82268W        W50673   3.326   0.795  10.393
82269W        W50674  32.648  28.092  13.633
82270W        W50675  27.110  21.531   3.652
82271W        W50676  30.718  42.146   9.837
82272W        W50677   7.359  34.054  12.536
82273W        W50678  29.347  23.032  13.087
82274W        W50679  31.039  30.516  11.904
82275W        W50680  23.989  17.220   2.404
82276W        W50681  34.384  34.795  11.076
82277W        W50682   5.916  29.856  14.440
82278W        W50683  33.981  16.695   0.107
82279W        W50684  13.114  26.825   0.501
82280W        W50685  23.291  25.467   2.610
82281W        W50686  14.262  30.647  12.364
82282W        W50687  39.922  22.515  12.266
82283W        W50688   9.436  12.302   2.052
82284W        W50689  14.403  38.795  13.112
82285W        W50690  34.395  29.226  13.903
82286W        W50691  35.542  24.944   0.309
82287W        W50692  17.360  24.167  12.850
82288W        W50693  13.884  26.007   2.260
82289W        W50694   5.316  30.378   4.679
82290W        W50695  28.374  41.011  12.116
82291W        W50696   1.365   3.846   4.173
82292W        W50697  32.805  21.235   4.232
82293W        W50698  41.264  24.549   0.739
82294W        W50699  16.555  12.619  12.424
82295W        W50700  20.816  40.324  14.379
82296W        W50701  17.651  36.575  12.585
82297W        W50702   5.453  10.442   4.319
82298W        W50703   9.246   0.683   3.830
82299W        W50704  35.321  26.966   2.393
82300W        W50705  30.437   6.376   3.383
82301W        W50706  40.033  39.348   4.551
82302W        W50707  43.102  24.685   0.578
82303W        W50708  37.319  41.441  10.650
82304W        W50709  25.070   6.789   1.122
82305W        W50710   1.080   0.780   4.166
82306W        W50711  42.539  33.350   1.317
82307W        W50712   8.799  15.600   1.379
82308W        W50713  27.230  21.487   0.336
82309W        W50714  18.687  17.891  10.882
82310W        W50715  28.509   5.643   0.391
82311W        W50716   0.922  23.039  14.215
82312W        W50717  12.058  24.717   2.467
82313W        W50718  16.367   7.345  14.333
82314W        W50719   4.723  15.720   4.047
82315W        W50720  19.278   9.906  11.918
82316W        W50721  20.757  16.636  14.470
82317W        W50722  43.984   0.439   1.194
82318W        W50723   9.492  39.039  10.744
82319W        W50724  41.298  15.174  13.354
82320W        W50725  38.827  17.157  14.832
82321W        W50726   0.335  10.087   1.906
82322W        W50727   2.223   7.327  13.510
82323W        W50728   9.230  34.238  12.886
82324W        W50729  18.196  23.690   1.818
82325W        W50730  42.982  30.617   0.878
82326W        W50731  42.818  15.217   0.442
82327W        W50732  30.075   2.279  10.510
82328W        W50733  34.143   6.888  14.526
82329W        W50734  35.011   4.370   3.786
82330W        W50735  44.485  44.463   2.648
82331W        W50736  31.616  22.707   3.781
82332W        W50737  36.340  43.393  14.589
82333W        W50738  36.055  32.076   0.374
82334W        W50739  44.426  44.040  14.186
82335W        W50740   1.980   0.571  13.968
82336W        W50741  18.502  15.208   0.288
82337W        W50742  28.055   6.401   3.294
82338W        W50743   0.265   2.867   2.745
82339W        W50744  18.852   9.599  11.904
82340W        W50745  13.479  12.710  11.977
82341W        W50746  40.446  19.066  10.956
82342W        W50747  17.217  41.799  13.097
82343W        W50748   7.690  39.962  13.783
82344W        W50749  32.449   8.470  12.165
82345W        W50750  12.543  10.875   3.359
82346W        W50751  37.169  27.965   4.175
82347W        W50752  34.992  31.801  12.938
82348W        W50753  22.172  26.592  14.353
82349W        W50754   8.658  16.645   0.835
82350W        W50755  23.740   9.722  10.852
82351W        W50756   6.894  35.881  10.785
82352W        W50757  38.920   4.699  10.176
82353W        W50758  11.785  16.271  12.999
82354W        W50759  14.160   7.733  14.985
82355W        W50760  31.518  30.990  13.435
82356W        W50761  33.382  19.040   1.228
82357W        W50762  23.940  42.988   0.249
82358W        W50763  41.755  25.142  13.096
82359W        W50764  24.267  17.348  12.454
82360W        W50765  13.885   9.824   0.472
82361W        W50766  34.055  30.389   4.383
82362W        W50767  26.607  15.204  13.582
82363W        W50768   3.299  31.094  12.345
82364W        W50769   8.502  29.039   0.294
82365W        W50770  10.972  12.871  13.131
82366W        W50771  13.295   4.930  11.028
82367W        W50772  26.773  41.475   4.545
82368W        W50773  32.231  16.795  12.132
82369W        W50774  34.849  29.218  13.336
82370W        W50775  23.816  32.073   3.279
82371W        W50776  20.138   6.228  13.136
82372W        W50777  39.954  38.969   3.581
82373W        W50778  24.022   0.919   3.257
82374W        W50779  18.288  31.090   1.680
82375W        W50780  11.679   7.934   3.221
82376W        W50781  44.939   4.003   1.816
82377W        W50782  42.968   9.929   2.982
82378W        W50783   8.627  23.220  13.895
82379W        W50784  19.305   9.024   4.714
82380W        W50785  23.916  42.817   3.094
82381W        W50786  26.943  19.825   5.096
82382W        W50787  13.712  35.765   9.829
82383W        W50788  34.077  37.830   1.241
82384W        W50789  42.107   1.971  14.333
82385W        W50790  15.072  34.720   5.085
82386W        W50791  20.687  24.930   1.922
82387W        W50792   1.449  26.957   4.113
82388W        W50793   0.257  30.984   1.852
82389W        W50794  28.421  27.971   0.889
82390W        W50795   1.653  19.496  13.258
82391W        W50796  14.365  19.951   3.035
82392W        W50797  44.260  35.974  14.912
82393W        W50798   7.614  29.252  13.508
82394W        W50799  21.249  15.224   0.875
82395W        W50800  32.696  19.062  11.185
82396W        W50801  13.370   7.820   1.717
82397W        W50802  21.931   8.403  11.757
82398W        W50803   3.349  17.682   1.923
82399W        W50804   0.158  19.205   0.423
82400W        W50805  26.072  15.592  10.708
82401W        W50806   7.775  43.248   2.224
82402W        W50807  14.687   5.815  13.626
82403W        W50808  12.081  44.273   2.700
82404W        W50809  35.123   2.423  13.494
82405W        W50810  10.407   5.405  14.335
82406W        W50811   1.692  36.583   2.488
82407W        W50812  27.106  12.717  12.464
82408W        W50813  15.330  13.222  13.483
82409W        W50814  10.483   9.977  11.622
82410W        W50815  44.851  28.144  13.500
82411W        W50816  41.458   9.630   1.698
82412W        W50817  14.715  41.834  14.913
82413W        W50818   7.824   0.222   1.798
82414W        W50819   4.285  19.069   1.924
82415W        W50820  19.474   7.806   4.572
82416W        W50821  26.611  40.378   2.561
82417W        W50822  36.849   2.195   4.602
82418W        W50823  23.781   2.341   3.584
82419W        W50824  20.851  20.918  11.105
82420W        W50825  41.444  27.889  12.465
82421W        W50826  43.741  36.143  13.065
82422W        W50827  18.437   4.166   4.065
82423W        W50828  43.333  11.681  10.037
82424W        W50829  22.859  38.528   0.801
82425W        W50830  20.728  32.203  11.968
82426W        W50831  10.903  18.168  11.379
82427W        W50832  41.302  41.283  10.495
82428W        W50833   4.262  36.011   3.738
82429W        W50834  42.642  38.078  14.797
82430W        W50835  23.721   3.823   1.665
82431W        W50836   7.641  17.360  10.459
82432W        W50837  34.083  14.165   4.575
82433W        W50838  36.624  35.710   1.377
82434W        W50839  22.611  39.350  14.391
82435W        W50840  20.567  30.447  12.238
82436W        W50841   8.663  13.248  14.856
82437W        W50842  31.896  13.137  11.199
82438W        W50843  14.386  24.983   0.479
82439W        W50844  33.382  35.376  13.449
82440W        W50845  38.982   4.286  11.041
82441W        W50846  20.946  14.743  11.646
82442W        W50847  22.519  18.744  11.134
82443W        W50848  31.413  25.721   1.430
82444W        W50849  25.228   5.075   4.157
82445W        W50850  17.112   3.995   0.842
82446W        W50851  24.467  12.083  11.213
82447W        W50852   9.010  18.711   9.790
82448W        W50853  20.114  40.022  10.387
82449W        W50854  28.576  30.236  13.400
82450W        W50855  44.805  36.825  12.588
82451W        W50856  35.129  10.218   0.484
82452W        W50857  12.160  26.775  11.126
82453W        W50858   5.239  23.460   0.828
82454W        W50859   6.061  33.793   1.946
82455W        W50860  24.751  11.723   2.668
82456W        W50861  22.479  41.332   4.608
82457W        W50862  16.617   6.612   4.502
82458W        W50863  37.872  13.703  10.709
82459W        W50864   4.743  20.268  11.295
82460W        W50865  13.821  22.606  13.999
82461W        W50866  33.433  37.655  13.760
82462W        W50867  17.834  18.985   2.800
82463W        W50868  33.234  33.117  14.452
82464W        W50869  15.234  18.793  11.409
82465W        W50870   1.869   6.510   0.492
82466W        W50871  43.286  29.426  13.578
82467W        W50872  38.499  32.653   0.916
82468W        W50873  38.558   4.087   3.233
82469W        W50874  23.210   8.932  10.995
82470W        W50875  11.355  31.087   1.723
82471W        W50876  28.572  33.085  14.915
82472W        W50877   5.477  19.703  14.308
82473W        W50878  27.667  12.229  12.093
82474W        W50879  38.330  33.974  14.937
82475W        W50880   9.353   4.285   0.900
82476W        W50881   0.814  15.717   1.411
82477W        W50882  27.619   9.385  14.048
82478W        W50883  17.504  11.679  12.611
82479W        W50884   2.251  23.427   0.273
82480W        W50885  22.889  37.171   1.766
82481W        W50886  20.822   7.316   4.612
82482W        W50887  24.161  29.375   1.786
82483W        W50888  27.939   9.323  14.446
82484W        W50889  15.144  15.663   0.968
82485W        W50890  34.425  11.828   2.766
82486W        W50891  17.328   3.836   0.400
82487W        W50892   3.070   1.839   4.360
82488W        W50893  32.025  24.228  11.666
82489W        W50894  31.625  16.787  14.426
82490W        W50895  17.242  25.089   2.978
82491W        W50896  41.047  43.200  12.599
82492W        W50897  10.968  41.123   0.320
82493W        W50898  42.170  44.445  11.494
82494W        W50899  35.578  32.310   1.371
82495W        W50900   6.984  37.403   3.306
82496W        W50901  29.663  19.289   1.716
82497W        W50902  17.859  13.338   0.300
82498W        W50903  15.909  19.864   3.850
82499W        W50904  13.365  33.727  12.403
82500W        W50905  34.561  25.569   3.111
82501W        W50906  20.590  22.329   2.628
82502W        W50907  20.409  34.579  13.845
82503W        W50908  20.408  22.947   1.908
82504W        W50909  15.074   8.570   9.881
82505W        W50910  32.579  12.836  14.987
82506W        W50911  42.631  25.230  10.783
82507W        W50912   3.308  41.095   3.169
82508W        W50913  44.355  26.112   0.766
82509W        W50914   0.360  16.559   1.796
82510W        W50915  12.165  19.353  11.452
82511W        W50916   1.396  10.583   0.904
82512W        W50917  37.442  18.080  11.126
82513W        W50918  44.358  41.657   4.047
82514W        W50919  41.852  43.138   2.966
82515W        W50920  40.139  18.722  11.179
82516W        W50921   2.588   9.234   4.711
82517W        W50922  11.748  35.204  13.056
82518W        W50923  20.456  25.201   2.870
82519W        W50924  22.264  26.443  11.045
82520W        W50925   5.913  25.821  13.807
82521W        W50926  16.615  39.990   4.803
82522W        W50927  14.310  20.309   1.828
82523W        W50928  22.210  41.526   0.496
82524W        W50929   8.624  23.104  11.966
82525W        W50930  22.266  31.525  14.333
82526W        W50931  16.700   3.440  12.570
82527W        W50932  23.852  29.718   1.326
82528W        W50933  34.586  24.419  13.209
82529W        W50934  30.117  36.528  12.062
82530W        W50935  26.078  15.349  12.321
82531W        W50936  18.622  39.372  13.138
82532W        W50937  22.203  42.558   1.183
82533W        W50938  43.535  42.306  14.017
82534W        W50939  38.384  11.635  11.473
82535W        W50940  24.470  16.554  11.637
82536W        W50941  10.849   1.568  11.208
82537W        W50942  40.411   8.883   4.032
82538W        W50943  33.325  12.067   1.349
82539W        W50944   7.885  12.395  13.382
82540W        W50945   4.385  10.989  11.000
82541W        W50946  16.163   1.128  10.799
82542W        W50947  13.282  20.233   4.815
82543W        W50948  36.885   0.168   3.973
82544W        W50949   4.374  22.631   2.553
82545W        W50950  21.365  17.545  10.647
82546W        W50951   2.921  38.573   3.566
82547W        W50952  37.928  32.919   3.983
82548W        W50953  38.080   2.776   0.047
82549W        W50954  36.842   6.400  14.512
82550W        W50955  29.948   6.567   4.202
82551W        W50956   6.852  10.770   2.785
82552W        W50957   3.544  31.876   5.122
82553W        W50958   1.892  35.991  11.614
82554W        W50959  12.694  16.120   4.679
82555W        W50960  28.166   9.625   2.887
82556W        W50961  14.807  24.827  13.403
82557W        W50962  11.684  14.540  14.784
82558W        W50963  32.691  39.885   3.672
82559W        W50964   4.335   6.228  12.583
82560W        W50965  25.062  20.050  14.751
82561W        W50966   0.344  39.125  10.952
82562W        W50967  28.216   0.759  10.148
82563W        W50968   1.251  16.215  12.510
82564W        W50969  26.143   1.206   0.813
82565W        W50970   2.470  37.481  14.246
82566W        W50971  14.232  44.046   3.280
82567W        W50972  33.495  38.903   3.764
82568W        W50973  11.302  43.867   2.862
82569W        W50974  28.069   7.890   1.791
82570W        W50975  40.033  43.049   2.748
82571W        W50976  26.686  33.497   1.434
82572W        W50977   0.907  29.449  11.521
82573W        W50978  32.489   0.696   2.387
82574W        W50979   8.629   9.821   3.249
82575W        W50980   8.343  11.044   0.892
82576W        W50981   4.687   4.265  11.017
82577W        W50982  23.096  22.994   0.843
82578W        W50983  38.982   4.780  13.922
82579W        W50984  21.585  38.799  12.894
82580W        W50985   1.251  15.773  14.841
82581W        W50986  23.005  43.242   3.265
82582W        W50987   0.087   8.692  13.051
82583W        W50988  35.386  38.549   1.267
82584W        W50989   5.641   4.745  10.890
82585W        W50990   8.208  41.242  12.565
82586W        W50991  31.143  11.245   2.718
82587W        W50992  43.469  43.094  11.638
82588W        W50993   8.639  13.516   0.498
82589W        W50994  19.093  27.076  13.449
82590W        W50995   2.363  19.631  12.986
82591W        W50996   4.840   0.328  11.961
82592W        W50997   2.543  13.481   4.126
82593W        W50998  28.614  17.114   1.909
82594W        W50999  42.486  32.768  12.367
82595W        W51000   4.853  44.442  12.821
82596W        W51001  42.245  35.409   4.595
82597W        W51002  43.062  43.954  14.330
82598W        W51003  20.205  20.235   4.064
82599W        W51004  28.770   4.463   1.680
82600W        W51005  30.065  27.185  12.515
82601W        W51006  22.024   6.839   0.748
82602W        W51007  35.030   0.369   0.663
82603W        W51008   4.000  10.535  13.513
82604W        W51009  30.613  16.701  13.312
82605W        W51010   7.464  26.553  10.740
82606W        W51011  25.584  35.604   2.654
82607W        W51012   0.912  27.203   0.915
82608W        W51013  43.865  25.273   3.738
82609W        W51014   5.866  17.697   1.387
82610W        W51015  40.728  37.180   3.320
82611W        W51016  31.043  30.713  13.341
82612W        W51017  38.571  37.029  12.539
82613W        W51018  22.149  32.526  13.059
82614W        W51019   1.016   3.701  14.830
82615W        W51020  31.549   1.899  14.987
82616W        W51021  19.288  18.481  10.676
82617W        W51022  24.037  20.283   1.368
82618W        W51023   0.381  32.926  12.048
82619W        W51024  23.860  42.498  11.157
82620W        W51025  43.065  10.520  12.105
82621W        W51026  32.472  41.046   4.881
82622W        W51027  41.619   3.550   3.689
82623W        W51028  43.004  35.063   4.490
82624W        W51029  29.189   7.854  13.032
82625W        W51030  30.861  40.872   1.434
82626W        W51031   0.959  43.866  14.066
82627W        W51032  25.230   4.301   2.179
82628W        W51033  19.070  10.886   2.567
82629W        W51034   6.639  39.357  12.587
82630W        W51035  28.020  39.973   2.257
82631W        W51036  36.885  32.865  11.532
82632W        W51037  28.050  24.618   4.295
82633W        W51038  22.792  15.829  14.545
82634W        W51039  43.431  22.341  11.380
82635W        W51040  11.698   7.283   0.166
82636W        W51041  17.173  42.925  10.857
82637W        W51042   2.621   8.298   2.725
82638W        W51043  17.771  23.329   2.858
82639W        W51044   7.485  35.367   0.250
82640W        W51045  10.510  20.738  14.470
82641W        W51046  44.730  18.803  12.459
82642W        W51047  36.449  14.669   3.599
82643W        W51048   6.333  32.877  12.132
82644W        W51049  21.511  32.297   3.322
82645W        W51050  36.570   7.435   2.192
82646W        W51051  28.669   9.204   0.443
82647W        W51052   2.313   2.807   2.833
82648W        W51053  29.988  15.079   4.477
82649W        W51054   6.647  30.453  14.382
82650W        W51055  37.890  15.188   0.660
82651W        W51056  36.972  14.337  13.783
82652W        W51057  44.958   4.854   2.572
82653W        W51058  19.299  15.181  13.974
82654W        W51059   4.394  33.298  12.657
82655W        W51060  31.108  44.287   4.654
82656W        W51061   0.919  27.294  12.273
82657W        W51062  22.618   5.981   4.743
82658W        W51063  43.024  25.449   4.212
82659W        W51064   4.733  39.560  13.477
82660W        W51065  18.323  26.179  10.789
82661W        W51066  37.528  28.278  10.228
82662W        W51067  41.423   5.008   3.838
82663W        W51068   0.352  29.652  14.269
82664W        W51069   8.744  43.871  12.867
82665W        W51070   2.699  13.390  12.500
82666W        W51071  22.062  31.924   2.645
82667W        W51072  18.847  15.800   4.861
82668W        W51073  29.196  39.908   2.855
82669W        W51074  19.136  11.674   4.039
82670W        W51075  11.021  27.312   2.190
82671W        W51076  39.043  16.182   3.137
82672W        W51077  14.105   3.336   3.012
82673W        W51078  32.698  33.031   0.822
82674W        W51079  24.510   2.241  14.852
82675W        W51080  33.544  28.608  10.485
82676W        W51081  33.414  39.799   1.795
82677W        W51082   3.949  40.736  11.570
82678W        W51083  14.133  17.796   4.283
82679W        W51084  25.714  23.585  14.698
82680W        W51085   9.172  22.369   4.784
82681W        W51086  17.968  26.653  13.024
82682W        W51087   9.606  29.138  13.401
82683W        W51088  11.614  17.611  11.446
82684W        W51089   3.378  37.461   3.228
82685W        W51090  35.912  15.963  12.435
82686W        W51091  32.369  37.426  11.155
82687W        W51092  19.363   1.059  11.215
82688W        W51093  24.014  13.850   3.712
82689W        W51094  15.886   4.772  12.551
82690W        W51095  29.268   9.297  14.020
82691W        W51096  21.927  35.618  11.104
82692W        W51097  23.778  21.678  12.123
82693W        W51098  28.935  14.108   0.729
82694W        W51099  13.821  22.186   3.102
82695W        W51100   9.103  14.762   1.358
82696W        W51101  13.401   4.899  14.189
82697W        W51102  11.583  24.141   1.779
82698W        W51103  17.156  21.246  13.833
82699W        W51104  36.385   6.741  14.468
82700W        W51105  11.528   9.158   2.827
82701W        W51106   8.770  43.213   1.870
82702W        W51107  23.007  13.256   2.583
82703W        W51108   0.334  34.049   1.244
82704W        W51109   3.966  18.174   1.394
82705W        W51110  21.326  34.341  13.452
82706W        W51111   6.779  40.319   3.657
82707W        W51112  18.381   9.381   2.712
82708W        W51113  36.007   7.888   2.643
82709W        W51114  29.093  26.594  14.926
82710W        W51115  25.228  27.684   3.358
82711W        W51116   1.537  37.348   3.231
82712W        W51117  12.325  25.099   3.227
82713W        W51118  34.664   2.280  11.939
82714W        W51119  12.594  17.148  14.768
82715W        W51120   2.162   4.248   4.524
82716W        W51121   0.658   2.948   4.625
82717W        W51122  22.659  21.643  13.076
82718W        W51123  20.126  33.127   0.899
82719W        W51124  11.723  24.432   3.300
82720W        W51125  11.100  44.723  10.216
82721W        W51126   8.915  11.767   0.552
82722W        W51127  19.333  41.736  13.456
82723W        W51128  17.791  10.017   0.245
82724W        W51129   9.323  39.529  12.585
82725W        W51130  14.195  40.970   2.267
82726W        W51131  40.979  41.082   0.239
82727W        W51132  13.785  28.369   2.244
82728W        W51133  21.446   5.863   0.312
82729W        W51134  44.751  20.563  10.477
82730W        W51135  22.159  32.573   4.055
82731W        W51136  28.723  17.108   3.184
82732W        W51137   1.745  32.057   0.371
82733W        W51138  10.345  27.872   2.868
82734W        W51139   0.047  42.671   3.307
82735W        W51140  44.994   2.840  14.804
82736W        W51141  32.950   0.959   2.363
82737W        W51142   1.770  21.758   4.920
82738W        W51143  15.192   5.030   0.291
82739W        W51144  34.803  18.098   0.577
82740W        W51145  21.347  36.378   2.733
82741W        W51146  28.454   4.642  12.355
82742W        W51147   6.005  18.384   2.627
82743W        W51148  31.144  13.743  11.198
82744W        W51149  34.131  14.025   1.910
82745W        W51150  11.152  19.672   0.851
82746W        W51151   1.257  41.286   2.322
82747W        W51152   9.852  34.351   3.054
82748W        W51153  40.060  24.301  13.589
82749W        W51154  17.228  40.242  11.973
82750W        W51155  15.897  36.382   0.773
82751W        W51156  19.587  12.484  12.439
82752W        W51157   0.520   9.292   1.834
82753W        W51158  18.550  42.086   4.796
82754W        W51159  30.047  12.712  13.532
82755W        W51160  14.642   0.436  14.182
82756W        W51161  10.342  33.858  12.697
82757W        W51162   9.266  18.653  10.633
82758W        W51163  38.549   6.905   1.000
82759W        W51164  23.586  21.613   3.187
82760W        W51165  30.695  16.073  11.882
82761W        W51166  25.728  38.602  11.609
82762W        W51167  13.352   2.658  13.772
82763W        W51168  41.446   8.305  12.108
82764W        W51169  16.503  25.513   4.972
82765W        W51170  12.376   7.685  14.483
82766W        W51171  26.537   3.938  13.945
82767W        W51172  15.119  10.930  12.857
82768W        W51173  27.058   6.874   1.773
82769W        W51174  28.095  15.575  11.655
82770W        W51175  41.102  24.084  10.649
82771W        W51176  38.594   0.160  12.513
82772W        W51177  22.945  11.295  11.027
82773W        W51178   5.204  22.766  12.433
82774W        W51179  32.416  29.582  11.547
82775W        W51180   5.186  19.536  12.967
82776W        W51181  16.504  23.209  13.888
82777W        W51182  28.581  19.744   2.769
82778W        W51183  44.237  39.235   2.738
82779W        W51184  36.679  38.892  11.358
82780W        W51185  31.488  17.290  14.558
82781W        W51186  10.184  36.491  13.344
82782W        W51187  30.122  33.429  10.793
82783W        W51188  27.751  34.507  12.644
82784W        W51189  28.572  11.119   0.953
82785W        W51190  41.079   7.311  13.370
82786W        W51191   3.933   6.770  14.491
82787W        W51192  18.287  14.300  13.500
82788W        W51193  19.798  20.831  10.577
82789W        W51194  20.035  15.752  10.668
82790W        W51195  25.150  19.433   4.313
82791W        W51196  26.000  24.703   1.448
82792W        W51197  17.113   0.257  12.035
82793W        W51198  11.873  17.062  10.629
82794W        W51199  24.621  37.485  11.215
82795W        W51200   1.047  29.941  10.830
82796W        W51201  21.278   5.740  14.811
82797W        W51202  22.908  24.265   1.827
82798W        W51203  38.981  42.733  11.715
82799W        W51204  22.558   3.925   4.118
82800W        W51205  33.355  39.593   1.307
82801W        W51206  36.333  26.525  10.580
82802W        W51207  31.308  37.934  10.700
82803W        W51208   2.482  35.173  14.788
82804W        W51209  41.443  32.161   1.446
82805W        W51210  18.912  17.101  13.974
82806W        W51211  42.687  28.413   1.896
82807W        W51212  35.256  44.281   4.490
82808W        W51213  44.795  23.238  12.865
82809W        W51214  26.557   0.889  11.597
82810W        W51215  13.952  26.661   1.444
82811W        W51216  12.615   4.772  13.493
82812W        W51217  25.621   2.949  14.927
82813W        W51218  12.160  38.618  11.648
82814W        W51219  21.668  10.520   0.287
82815W        W51220  42.422  26.049  12.188
82816W        W51221   5.382  34.549   0.344
82817W        W51222  26.826   8.528  11.653
82818W        W51223  30.113  31.547   1.344
82819W        W51224   7.844  20.315   0.908
82820W        W51225  34.038  44.433  11.616
82821W        W51226  16.942  36.644  13.481
82822W        W51227   3.330  40.840   2.198
82823W        W51228  19.308  14.848   2.054
82824W        W51229  43.767   4.718   0.903
82825W        W51230  36.695  30.669   0.894
82826W        W51231  18.830  25.867   2.551
82827W        W51232  10.270   7.364  13.615
82828W        W51233  19.267  37.684   3.671
82829W        W51234  36.155   5.206   3.250
82830W        W51235  29.488  41.487   0.031
82831W        W51236  28.680   8.602   3.730
82832W        W51237   5.902  24.877  14.859
82833W        W51238  18.784  10.407  12.430
82834W        W51239   5.312  29.967   1.509
82835W        W51240  22.633  12.855  14.438
82836W        W51241  28.529  12.305  10.618
82837W        W51242   0.285   0.852  14.032
82838W        W51243  35.986  10.771  11.444
82839W        W51244  11.854  34.978  12.050
82840W        W51245  34.363  32.351   2.787
82841W        W51246  31.802  32.550   3.649
82842W        W51247  30.247  27.657   2.871
82843W        W51248  16.720  18.483   2.128
82844W        W51249  20.753  26.256  13.360
82845W        W51250   7.157   5.441  14.425
82846W        W51251   1.862   2.132   3.893
82847W        W51252   9.854  20.708   1.633
82848W        W51253  15.442  10.710   3.630
82849W        W51254  40.693  16.680   1.301
82850W        W51255   1.426  19.498   0.828
82851W        W51256  17.026  27.718   2.250
82852W        W51257  16.587  21.647  13.396
82853W        W51258  41.408   0.672   2.596
82854W        W51259   6.950   6.960   1.316
82855W        W51260  36.106   1.470   0.546
82856W        W51261   2.818  43.522  12.094
82857W        W51262   7.324  39.402   3.594
82858W        W51263  31.558   3.764  12.003
82859W        W51264  24.488  38.580  12.939
82860W        W51265  39.564   7.241  11.391
82861W        W51266   7.377  37.846   0.351
82862W        W51267   0.354   6.710   1.439
82863W        W51268   1.206   1.575   2.506
82864W        W51269   7.900  21.076   1.771
82865W        W51270   5.646  17.636   2.387
82866W        W51271   8.029   8.318  11.595
82867W        W51272  34.475  26.103   2.381
82868W        W51273  25.944  31.699   2.321
82869W        W51274  18.624   6.185   2.386
82870W        W51275  33.475   0.742   1.618
82871W        W51276  24.527  13.345  12.551
82872W        W51277  44.933  24.138   3.778
82873W        W51278   6.268  16.273   1.379
82874W        W51279  19.467  32.954   2.490
82875W        W51280  20.164  27.173   3.245
82876W        W51281  30.777  32.506   3.596
82877W        W51282  14.586  18.039   4.363
82878W        W51283  12.450  23.632  11.198
82879W        W51284   4.556   2.410  14.780
82880W        W51285  28.538  43.934   2.924
82881W        W51286   3.372   9.210  14.788
82882W        W51287   8.845   3.423  14.054
82883W        W51288  36.867   4.741   4.846
82884W        W51289  44.291   5.968  14.009
82885W        W51290   9.667  12.153  12.922
82886W        W51291  13.393  37.039  14.845
82887W        W51292   7.137  15.394   0.855
82888W        W51293  17.820  39.036  11.131
82889W        W51294  30.855  39.949  11.160
82890W        W51295   9.163   8.340   0.339
82891W        W51296  33.488   7.826   3.596
82892W        W51297  23.670   5.796   1.236
82893W        W51298   4.316  10.517  10.327
82894W        W51299  29.969  33.931   3.301
82895W        W51300   8.794  15.146  10.859
82896W        W51301  31.653  43.693  13.994
82897W        W51302   3.798  14.018   2.280
82898W        W51303   9.774   5.573   4.832
82899W        W51304  40.016   1.225   1.520
82900W        W51305  21.186  21.327  10.944
82901W        W51306   1.929  42.572   1.279
82902W        W51307  27.040  18.517   2.252
82903W        W51308  12.086   0.831   3.618
82904W        W51309  25.631  34.855  13.340
82905W        W51310  20.096  34.502  11.237
82906W        W51311  13.059  36.650   3.685
82907W        W51312   4.002  29.030   2.432
82908W        W51313  10.776  40.912  10.670
82909W        W51314   7.864  24.160  13.339
82910W        W51315   5.850   5.810   1.966
82911W        W51316  27.865   7.134   3.784
82912W        W51317   8.054  10.736  14.218
82913W        W51318  15.024  41.815   2.018
82914W        W51319   0.410  27.824  14.024
82915W        W51320  35.397  14.850  14.690
82916W        W51321  15.635  21.222   1.868
82917W        W51322  42.593   3.355  10.530
82918W        W51323   8.366  25.256   2.885
82919W        W51324  37.544   8.255  10.434
82920W        W51325   8.228  20.105   4.718
82921W        W51326   2.741   4.341  12.619
82922W        W51327  36.105  34.621   2.945
82923W        W51328  33.129   5.384  11.021
82924W        W51329  20.504  41.529  13.379
82925W        W51330  24.197  13.079   4.070
82926W        W51331  26.471  42.012   0.906
82927W        W51332   0.804  13.853  13.509
82928W        W51333  20.101  34.560   4.133
82929W        W51334  37.996  42.508   0.883
82930W        W51335  13.143   7.021   3.695
82931W        W51336  41.457   3.747   0.185
82932W        W51337   3.452  35.951  10.673
82933W        W51338  10.364  44.150   0.864
82934W        W51339  27.594  42.280   2.315
82935W        W51340  14.815   9.135  13.939
82936W        W51341   8.763  33.456  11.333
82937W        W51342  12.281  40.953   1.236
82938W        W51343  44.823  25.961   3.082
82939W        W51344  10.939  35.186   0.468
82940W        W51345  22.753  39.110  13.538
82941W        W51346  19.354  44.239  11.918
82942W        W51347  29.385  41.609   0.525
82943W        W51348  12.120  14.419  11.170
82944W        W51349  21.144  24.163  10.246
82945W        W51350  27.305  34.326   2.378
82946W        W51351  43.107  34.217   2.216
82947W        W51352   6.292  10.821   1.168
82948W        W51353   2.809  35.636   4.269
82949W        W51354  14.255   8.679   2.575
82950W        W51355  42.051   9.682   2.821
82951W        W51356   6.349  11.891   2.776
82952W        W51357  43.247  16.828  13.948
82953W        W51358  20.550  32.962  13.142
82954W        W51359  36.531   3.906  14.819
82955W        W51360  34.249   8.849   4.867
82956W        W51361   3.386  41.728   1.955
82957W        W51362  20.626  21.818   2.662
82958W        W51363  43.946  24.131  13.790
82959W        W51364  28.311  41.557  12.153
82960W        W51365  11.009  32.163  11.614
82961W        W51366   2.570  27.904   1.233
82962W        W51367  25.999  42.460   4.832
82963W        W51368  17.137  19.360   0.831
82964W        W51369  12.857  15.594   4.688
82965W        W51370  21.988  23.717   0.877
82966W        W51371  29.029   8.895   0.875
82967W        W51372  38.378  17.700  12.490
82968W        W51373  26.127   9.653   1.925
82969W        W51374  38.543  33.122  11.644
82970W        W51375  43.033  44.416   2.421
82971W        W51376   0.709  20.614  12.876
82972W        W51377  36.477  34.029  11.569
82973W        W51378   0.343  10.703  11.637
82974W        W51379  36.558  31.623  14.247
82975W        W51380  44.249  23.712  13.899
82976W        W51381  13.777  40.040   0.950
82977W        W51382  30.138  29.491  11.893
82978W        W51383  29.112  25.574   3.322
82979W        W51384   0.837   8.937   0.317
82980W        W51385  29.095  23.431   2.728
82981W        W51386   5.553  36.386   2.346
82982W        W51387   4.153  13.798   1.885
82983W        W51388   5.393  33.511  11.836
82984W        W51389  17.102  27.614   1.229
82985W        W51390  26.383  21.266  10.297
82986W        W51391  30.610  41.859   4.627
82987W        W51392   4.885  17.556  11.528
82988W        W51393  29.199  32.482  13.759
82989W        W51394  44.035  34.364   0.673
82990W        W51395  33.876  28.112   2.298
82991W        W51396   2.042  40.578   1.309
82992W        W51397  34.348  33.594   1.248
82993W        W51398   0.647  28.736  12.384
82994W        W51399  10.572   2.020  14.885
82995W        W51400  10.256  26.418   2.843
82996W        W51401  23.559  44.451   0.684
82997W        W51402  19.677  35.793  13.440
82998W        W51403  13.227   3.905   0.239
82999W        W51404   4.832  14.384   1.489
83000W        W51405  24.177  35.024   4.545
83001W        W51406  38.258   7.746   0.486
83002W        W51407   2.181  41.736  13.995
83003W        W51408   1.951  44.308  13.505
83004W        W51409  18.021  31.520   2.856
83005W        W51410  12.848  22.616  12.635
83006W        W51411  26.616  28.434  13.131
83007W        W51412   0.736   9.700  13.410
83008W        W51413  19.497   7.445   4.938
83009W        W51414  35.586  19.277   2.881
83010W        W51415  42.933  24.143   4.541
83011W        W51416   0.472   5.427  13.839
83012W        W51417  34.514  23.678   3.831
83013W        W51418   4.346  17.720   2.814
83014W        W51419  23.399  24.944  13.282
83015W        W51420  42.890   8.391  11.046
83016W        W51421  19.620  13.257   1.071
83017W        W51422   1.965  10.990  14.041
83018W        W51423  13.551   7.348  14.740
83019W        W51424  35.154  33.215  10.623
83020W        W51425  24.198  38.929   4.065
83021W        W51426   8.541  30.652   0.729
83022W        W51427  30.530   4.549   3.818
83023W        W51428   5.163  21.586   3.622
83024W        W51429  13.686  19.171  13.460
83025W        W51430  13.160  17.964   3.338
83026W        W51431  24.502  10.419  14.601
83027W        W51432  26.117  29.997  13.181
83028W        W51433  17.595  40.408  14.491
83029W        W51434  23.678  16.565   4.606
83030W        W51435  21.572  22.550  12.046
83031W        W51436   7.322  42.156  11.713
83032W        W51437   9.833  28.895   0.292
83033W        W51438   6.421   0.555   1.200
83034W        W51439  26.918  22.572   4.510
83035W        W51440  35.294  10.723   0.006
83036W        W51441  37.356  23.422   0.201
83037W        W51442  43.203  15.799  14.922
83038W        W51443  30.137   6.317  11.324
83039W        W51444  35.546  40.378  11.017
83040W        W51445  21.731   3.961   0.447
83041W        W51446  28.418  10.870   1.430
83042W        W51447   4.129   8.632  14.364
83043W        W51448  43.387  34.266  11.189
83044W        W51449  33.388  39.846  13.510
83045W        W51450  41.112  20.793   2.930
83046W        W51451   7.243  11.265   0.783
83047W        W51452  23.703   3.323   1.179
83048W        W51453  32.842  41.476  12.196
83049W        W51454  32.968  22.618   1.279
83050W        W51455  20.540  18.698  13.990
83051W        W51456  26.970  41.916  14.980
83052W        W51457   2.043  14.908   0.525
83053W        W51458  31.048  18.808   4.154
83054W        W51459  11.175  25.584   4.473
83055W        W51460  15.150  22.278   2.312
83056W        W51461  43.318  12.748  14.138
83057W        W51462  25.058  42.278  12.836
83058W        W51463  36.991  23.723   2.733
83059W        W51464  14.258  31.495  13.377
83060W        W51465   1.447  33.884   3.687
83061W        W51466  37.999  44.568   2.092
83062W        W51467   2.790  42.419  10.592
83063W        W51468  13.996   0.293  14.033
83064W        W51469  10.407  15.682  14.299
83065W        W51470  27.674  40.965   0.181
83066W        W51471  21.134   0.347  11.826
83067W        W51472  11.796  43.829   2.676
83068W        W51473  44.819   6.642   3.234
83069W        W51474  17.806  39.940   4.248
83070W        W51475   5.905  22.370   0.955
83071W        W51476  20.027  42.540  10.759
83072W        W51477  21.313   4.255   0.346
83073W        W51478  20.542   7.568   3.242
83074W        W51479  37.882  10.686   4.147
83075W        W51480  33.338   6.862   1.130
83076W        W51481  15.290  14.831   1.647
83077W        W51482  37.316  43.388  14.740
83078W        W51483  18.145  29.949   4.248
83079W        W51484  19.650  27.260   0.776
83080W        W51485  16.220  38.622   3.898
83081W        W51486  26.985   3.445  13.515
83082W        W51487   5.242   6.839   4.972
83083W        W51488  29.455  26.889  11.304
83084W        W51489   6.393  44.223   1.291
83085W        W51490  24.211   0.920  12.052
83086W        W51491  28.432  28.442   0.689
83087W        W51492   4.884  35.447   0.256
83088W        W51493  23.572  20.815   0.956
83089W        W51494   7.147  20.073  13.512
83090W        W51495  14.669  44.872   3.117
83091W        W51496   0.182   8.900   3.625
83092W        W51497  11.573   9.873  14.178
83093W        W51498  20.831  22.845   4.824
83094W        W51499  32.016  17.717  12.933
83095W        W51500  14.218  37.374  14.537
83096W        W51501  11.123  17.116  12.060
83097W        W51502  34.424  40.744  11.757
83098W        W51503   3.303  42.334  14.869
83099W        W51504  43.437  16.900  10.597
83100W        W51505   2.505  34.015   3.575
83101W        W51506  15.844  24.036   2.171
83102W        W51507  17.639   1.324   0.415
83103W        W51508  16.001  41.802   3.656
83104W        W51509  28.071  27.329   0.443
83105W        W51510  34.614  37.106   0.715
83106W        W51511  38.615  37.653   0.901
83107W        W51512   9.858   9.091   2.111
83108W        W51513  32.049  29.711   1.792
83109W        W51514  20.295   7.448  14.970
83110W        W51515  29.098  17.626   0.215
83111W        W51516  39.276  34.110  11.091
83112W        W51517  11.159  10.000  13.885
83113W        W51518  24.078  28.388   2.603
83114W        W51519  25.644  21.693  11.553
83115W        W51520   2.449  32.968  11.249
83116W        W51521  24.926  32.569  14.371
83117W        W51522  23.028  28.193   0.956
83118W        W51523  20.746  29.579   4.213
83119W        W51524  19.790   9.843   3.139
83120W        W51525  39.503  21.643   0.503
83121W        W51526  40.606   9.382   1.177
83122W        W51527  11.286  13.778  13.128
83123W        W51528  16.654  31.555  10.400
83124W        W51529  11.496  18.682   0.896
83125W        W51530  15.567  30.529  12.033
83126W        W51531  28.247  14.623   4.241
83127W        W51532  33.499  11.828   0.909
83128W        W51533   3.781   3.936   0.558
83129W        W51534  29.597  12.978  13.452
83130W        W51535  41.351  32.440  11.648
83131W        W51536  44.936  15.271  11.977
83132W        W51537   1.389  33.017  12.557
83133W        W51538  11.136  40.542   1.104
83134W        W51539  21.015  29.322   2.292
83135W        W51540   3.705  18.840   3.625
83136W        W51541  35.367  24.149  12.034
83137W        W51542  26.084  20.415   3.331
83138W        W51543  37.984  12.736  11.488
83139W        W51544  10.679  27.485   0.315
83140W        W51545  37.777  41.332   5.019
83141W        W51546  22.493  15.354   4.613
83142W        W51547  12.825  28.546  12.419
83143W        W51548  39.259  17.646   1.770
83144W        W51549  40.466  28.087   2.412
83145W        W51550  26.873  35.133  14.831
83146W        W51551  15.725  39.883  10.924
83147W        W51552  35.918   7.387   3.200
83148W        W51553   0.064  23.552  11.144
83149W        W51554  34.426  37.037  10.433
83150W        W51555  10.690   5.962   4.918
83151W        W51556  33.578   7.649  10.647
83152W        W51557  22.628   1.987  11.110
83153W        W51558  16.533  23.198   0.682
83154W        W51559  35.039  25.115   1.031
83155W        W51560  22.022   8.232   3.339
83156W        W51561  28.851  24.940  12.061
83157W        W51562   8.341  25.070  11.069
83158W        W51563  15.754   1.183  11.136
83159W        W51564  28.677   4.931   4.294
83160W        W51565  19.511  15.794  12.387
83161W        W51566  12.171  23.630   0.435
83162W        W51567  13.667  19.807  12.431
83163W        W51568  27.953  24.557  12.583
83164W        W51569   3.647  16.252   1.302
83165W        W51570   4.420  41.413   3.313
83166W        W51571   9.957   5.323  12.532
83167W        W51572  25.121  26.741  11.955
83168W        W51573  18.262  21.620   5.401
83169W        W51574  20.274  44.256  13.944
83170W        W51575   0.968   9.734  14.742
83171W        W51576  20.276   0.808  11.044
83172W        W51577   3.147  12.689  12.105
83173W        W51578  33.570  27.124   4.072
83174W        W51579  16.226  24.908   4.131
83175W        W51580   6.871  40.754   3.401
83176W        W51581  43.195  32.229  12.474
83177W        W51582  42.947  43.755  10.506
83178W        W51583  24.023  15.782   1.766
83179W        W51584  17.810  30.425  11.155
83180W        W51585  19.209  16.208   3.588
83181W        W51586  14.574  44.304  11.824
83182W        W51587   4.198   0.480  13.526
83183W        W51588  20.642  38.533  14.008
83184W        W51589   1.944  12.784   0.228
83185W        W51590  15.773  20.005  13.569
83186W        W51591   4.455  43.522   3.245
83187W        W51592  40.712  16.788  14.757
83188W        W51593  32.032   1.081   1.820
83189W        W51594  10.864   5.644  14.294
83190W        W51595   3.451  17.585   4.265
83191W        W51596  38.939   5.996   5.306
83192W        W51597  15.853  13.597  13.067
83193W        W51598  27.626  10.823   0.165
83194W        W51599  26.922  38.750   2.656
83195W        W51600  31.640  34.962   1.363
83196W        W51601  35.977   0.255  11.613
83197W        W51602  27.771  18.734   0.940
83198W        W51603   5.189  19.900   0.356
83199W        W51604  39.505  21.306  11.593
83200W        W51605  10.178  31.169   3.294
83201W        W51606  14.829  31.106   2.887
83202W        W51607  17.990  14.522   3.846
83203W        W51608  32.265  33.043  14.869
83204W        W51609  31.322   1.718   2.531
83205W        W51610   9.909  36.405  14.326
83206W        W51611   5.466  12.774   4.060
83207W        W51612  28.902  30.134  12.988
83208W        W51613  19.772  31.531   3.232
83209W        W51614  42.487  23.950  10.463
83210W        W51615  25.538  16.367  14.361
83211W        W51616  11.567  30.986  12.370
83212W        W51617  34.590  27.403  11.177
83213W        W51618  39.303  11.879   3.242
83214W        W51619   0.398  38.044   1.932
83215W        W51620  13.759  10.050  12.057
83216W        W51621  31.091  15.013   4.531
83217W        W51622  14.199   3.365   4.279
83218W        W51623  11.076  39.074  11.679
83219W        W51624  44.466  26.766  14.010
83220W        W51625   8.583   2.788  14.473
83221W        W51626  24.965  31.914   1.804
83222W        W51627  39.265  31.948   2.872
83223W        W51628  40.000   5.053   1.005
83224W        W51629  33.934   0.859   4.979
83225W        W51630   2.928  37.681   3.329
83226W        W51631  27.493  20.978  12.088
83227W        W51632   5.450  26.780  13.826
83228W        W51633  30.962  25.024  12.531
83229W        W51634  19.786  19.310   1.782
83230W        W51635  29.366   8.789  11.400
83231W        W51636  43.943  40.283   0.662
83232W        W51637  22.511  20.805  14.156
83233W        W51638  19.383  28.137  10.814
83234W        W51639  16.535   5.440  12.304
83235W        W51640  29.441  14.261   4.585
83236W        W51641   0.834  24.357   4.133
83237W        W51642  18.086  37.165  14.089
83238W        W51643  29.592  21.943   1.281
83239W        W51644  29.608  36.369  12.060
83240W        W51645  10.797  24.565   0.075
83241W        W51646   3.287  23.253  12.008
83242W        W51647  31.290  10.241   4.590
83243W        W51648   6.494  36.265  14.964
83244W        W51649  18.574  19.220  11.145
83245W        W51650   3.650   4.526   1.904
83246W        W51651  37.359  10.654   4.543
83247W        W51652  21.098  14.155   2.377
83248W        W51653  28.760  19.590   4.988
83249W        W51654  35.386   6.765  12.739
83250W        W51655  11.962  33.095   3.065
83251W        W51656  34.468   3.754   4.538
83252W        W51657  41.943  20.566  13.889
83253W        W51658   3.873  25.652   1.205
83254W        W51659  37.179  28.064   1.693
83255W        W51660  44.765  38.558   0.014
83256W        W51661  28.246  15.324   0.122
83257W        W51662  19.617  42.972  11.878
83258W        W51663  24.610  42.006   2.872
83259W        W51664  38.126  11.280   4.055
83260W        W51665  11.824   0.037  12.018
83261W        W51666  11.116   3.009   4.557
83262W        W51667  22.969   5.009   0.754
83263W        W51668  12.566  22.203  14.089
83264W        W51669  28.183  20.534   0.061
83265W        W51670  18.223  36.070   2.148
83266W        W51671  41.548  31.186  14.903
83267W        W51672  42.811  37.957   4.915
83268W        W51673  43.065  31.357  12.122
83269W        W51674  32.032  29.425  14.791
83270W        W51675  20.623   7.806   1.206
83271W        W51676  21.265  41.558   0.974
83272W        W51677  10.204  12.461   4.807
83273W        W51678   2.355  15.034   3.136
83274W        W51679   9.807  12.214  11.166
83275W        W51680  36.508  41.294  14.730
83276W        W51681  28.462  19.642  14.219
83277W        W51682  11.883  12.497  12.817
83278W        W51683  39.475  22.322   2.468
83279W        W51684  28.906  24.455   4.344
83280W        W51685  14.248  21.520   3.848
83281W        W51686  19.706  36.041  13.902
83282W        W51687  43.528  11.533  11.492
83283W        W51688  40.716  36.687   3.443
83284W        W51689   0.533   5.470  12.945
83285W        W51690  34.613  10.602   2.422
83286W        W51691  18.222  25.036  14.408
83287W        W51692  27.414  16.364  10.669
83288W        W51693  37.036   2.388  10.635
83289W        W51694  10.340  15.949   3.427
83290W        W51695  34.078  17.250  11.803
83291W        W51696  23.168  33.611  11.167
83292W        W51697   0.699   9.364  13.034
83293W        W51698   5.862  31.104  13.914
83294W        W51699  43.845  23.752  10.765
83295W        W51700  26.104  20.324  12.375
83296W        W51701  10.641  42.755  11.630
83297W        W51702  13.749  42.862   0.909
83298W        W51703  37.973   1.946   4.658
83299W        W51704  35.326  17.689  10.937
83300W        W51705  21.508  37.523   0.608
83301W        W51706  36.261   3.255   4.184
83302W        W51707  42.866  23.640  11.893
83303W        W51708  38.603   6.211  12.957
83304W        W51709  25.647  14.115  11.059
83305W        W51710  17.890  11.626   3.697
83306W        W51711  24.360  23.981  12.021
83307W        W51712  20.536   4.096   3.625
83308W        W51713  25.686  20.071  11.546
83309W        W51714  43.830  27.911  13.025
83310W        W51715  29.598   5.826   1.079
83311W        W51716  15.662  44.393  14.559
83312W        W51717   6.738   1.324  13.474
83313W        W51718  43.441  29.452   3.698
83314W        W51719  15.778  17.294   3.329
83315W        W51720   0.891  32.994  13.828
83316W        W51721  44.791  33.081   1.874
83317W        W51722  32.964  34.359  13.913
83318W        W51723  41.869  19.905  13.103
83319W        W51724  39.110  24.027  12.084
83320W        W51725  43.417   1.920   4.185
83321W        W51726  36.983  26.271   2.269
83322W        W51727  20.240   1.982  12.129
83323W        W51728  25.591  40.842  12.271
83324W        W51729  32.642   1.810  10.666
83325W        W51730  34.692   1.235   4.637
83326W        W51731  40.390   5.280   0.694
83327W        W51732  43.674   9.346   0.247
83328W        W51733  40.942  21.694   1.498
83329W        W51734  35.342  11.065   2.388
83330W        W51735  41.488  44.617   4.224
83331W        W51736  23.923  36.299   2.699
83332W        W51737   2.212  28.941   3.708
83333W        W51738  25.898  29.446   2.269
83334W        W51739  14.327  38.413   0.507
83335W        W51740  39.889  39.829   3.225
83336W        W51741  13.629   1.695  12.259
83337W        W51742  43.819  29.481   0.920
83338W        W51743  23.945  26.643  12.015
83339W        W51744   3.701  11.253  11.254
83340W        W51745  24.812  37.720  14.284
83341W        W51746   5.247  42.042  10.692
83342W        W51747  29.875   5.287   3.610
83343W        W51748  21.066   7.627   0.939
83344W        W51749  29.519  17.505   3.420
83345W        W51750   8.375  28.039  13.170
83346W        W51751  13.741  32.316   3.708
83347W        W51752   0.333  43.487   2.294
83348W        W51753  21.791  11.677  11.016
83349W        W51754  15.656  11.538  14.356
83350W        W51755  17.776  21.956   4.772
83351W        W51756  17.766   2.851   4.091
83352W        W51757  27.902  31.722  14.963
83353W        W51758  20.749  35.580  12.188
83354W        W51759  25.068  40.767  10.466
83355W        W51760   1.460  33.927   0.768
83356W        W51761  28.035  17.789  12.351
83357W        W51762  36.485  16.044  11.659
83358W        W51763  10.642  34.220   4.569
83359W        W51764  29.288  26.402  11.243
83360W        W51765  31.768  37.333   3.268
83361W        W51766  18.062  35.516   3.875
83362W        W51767   0.929  10.379   2.450
83363W        W51768   7.831  33.593  10.247
83364W        W51769  22.038  13.512  13.392
83365W        W51770  21.689  11.831  14.781
83366W        W51771  44.862  19.767   0.712
83367W        W51772  31.680  34.958  11.880
83368W        W51773  33.348   3.980   3.193
83369W        W51774  19.098  41.065  14.871
83370W        W51775  41.504   1.846  11.534
83371W        W51776  15.496  12.501  13.391
83372W        W51777  21.750   2.423  12.041
83373W        W51778  43.229   5.355  13.468
83374W        W51779  12.006  30.601   2.760
83375W        W51780  36.575  43.964  12.864
83376W        W51781  24.946  17.629   1.186
83377W        W51782   8.077  36.492   3.295
83378W        W51783  13.759  18.143  11.916
83379W        W51784  22.722  22.606   0.085
83380W        W51785  18.852   6.134  14.375
83381W        W51786  44.976  24.765  11.684
83382W        W51787  22.127  38.965   0.621
83383W        W51788  16.602  42.525  12.929
83384W        W51789  43.144  32.585   2.773
83385W        W51790  28.658  36.344  12.040
83386W        W51791  31.937  42.035   1.743
83387W        W51792  20.586  20.947   2.264
83388W        W51793   7.191  31.917   4.707
83389W        W51794   7.820  32.966   2.692
83390W        W51795   7.668  27.533  10.137
83391W        W51796  23.081   8.602   4.347
83392W        W51797  39.963  23.802  11.996
83393W        W51798  44.011  34.534   2.741
83394W        W51799  13.573  25.245  11.096
83395W        W51800  22.515   4.540  11.894
83396W        W51801  16.767  33.808  14.005
83397W        W51802  26.063  30.141  14.542
83398W        W51803  10.840  16.415  12.938
83399W        W51804  15.584  18.717   2.910
83400W        W51805   9.196  34.723  11.369
83401W        W51806  16.506  38.845  12.643
83402W        W51807  37.377   2.823  10.685
83403W        W51808   8.353  13.759  13.056
83404W        W51809  18.753  28.854  11.113
83405W        W51810  22.211  25.663   4.227
83406W        W51811  12.800   4.400  12.619
83407W        W51812  36.883   5.932   0.305
83408W        W51813  35.996  43.758   1.468
83409W        W51814  25.888  13.816  13.490
83410W        W51815   7.610   9.951   2.356
83411W        W51816  41.702  13.266   4.096
83412W        W51817  23.482  31.978  12.002
83413W        W51818  20.028  29.275  14.866
83414W        W51819  28.738  29.042   1.657
83415W        W51820  15.546  34.633  13.904
83416W        W51821   8.647  27.472  14.490
83417W        W51822  38.551  23.446  13.959
83418W        W51823   2.124  37.355   2.333
83419W        W51824  18.981  12.193   0.180
83420W        W51825  36.801  14.169   3.747
83421W        W51826  40.070  33.728   4.398
83422W        W51827   0.363  33.553  14.995
83423W        W51828  33.544   9.612   0.374
83424W        W51829  26.571  43.243  12.941
83425W        W51830   5.260  43.657  14.867
83426W        W51831  12.064  15.720   0.198
83427W        W51832  41.763  26.952   4.823
83428W        W51833  43.081  27.712  13.932
83429W        W51834  15.721  12.792   0.080
83430W        W51835  15.372   3.459   3.214
83431W        W51836  36.979  27.567   1.695
83432W        W51837  30.121  21.126   4.761
83433W        W51838  15.786  36.301   3.580
83434W        W51839  21.666  25.244  13.036
83435W        W51840   9.520  44.127  12.963
83436W        W51841   2.452  25.163   3.621
83437W        W51842  13.764  37.672  12.461
83438W        W51843  10.900   6.790   0.386
83439W        W51844   3.293   4.268   0.954
83440W        W51845   5.718   6.391  11.075
83441W        W51846  21.302   3.712   3.245
83442W        W51847   7.686   5.002  10.231
83443W        W51848  27.614  29.681   0.948
83444W        W51849  27.961  11.710  12.957
83445W        W51850  15.743  12.071   3.717
83446W        W51851  38.388   0.660  13.509
83447W        W51852  23.559  28.613   3.895
83448W        W51853  43.291  24.695  14.710
83449W        W51854  17.253  44.998   4.546
83450W        W51855  15.502  39.452  14.321
83451W        W51856  11.721  16.645   2.811
83452W        W51857  29.723  43.898  14.466
83453W        W51858  36.917  10.501   2.208
83454W        W51859  37.822  23.546   1.214
83455W        W51860  33.876  23.661  12.473
83456W        W51861  13.581  29.210   3.381
83457W        W51862   3.125  29.921   3.433
83458W        W51863  32.003  15.616  13.925
83459W        W51864  16.827  12.367  12.802
83460W        W51865  34.598  35.274   1.935
83461W        W51866  17.023  16.727   1.829
83462W        W51867  22.094  12.807   3.211
83463W        W51868  39.757   4.864  13.273
83464W        W51869  34.928  39.270   0.473
83465W        W51870  16.541  32.428  12.369
83466W        W51871  38.946  36.116   4.068
83467W        W51872  38.676  20.123   1.843
83468W        W51873   3.387   6.032   0.380
83469W        W51874  25.268  43.736  14.274
83470W        W51875  38.935   9.538  14.031
83471W        W51876   5.441  20.845   1.955
83472W        W51877  44.835  30.685   1.747
83473W        W51878  21.941  42.437  14.829
83474W        W51879  11.458  29.594  14.241
83475W        W51880  40.251   0.255   0.783
83476W        W51881  19.883  36.584   3.100
83477W        W51882  43.851  40.044   2.663
83478W        W51883  42.721  14.181   0.003
83479W        W51884  20.613  44.805  13.285
83480W        W51885   9.149   2.924  10.726
83481W        W51886  18.416  15.732   4.559
83482W        W51887   4.645  14.243  13.031
83483W        W51888   3.551   0.850  13.031
83484W        W51889  17.852  17.647   2.848
83485W        W51890   3.439  21.575   4.203
83486W        W51891  38.889  18.756  10.685
83487W        W51892  44.454  38.732  12.118
83488W        W51893  35.792  38.470  11.545
83489W        W51894  23.168  44.006  11.899
83490W        W51895  44.739  14.018  12.840
83491W        W51896   4.501  12.993   3.718
83492W        W51897  16.414   0.632   9.886
83493W        W51898  43.538  40.490  14.212
83494W        W51899   7.597  31.503   0.627
83495W        W51900  37.880   2.980  13.431
83496W        W51901   7.211  30.041  14.022
83497W        W51902   6.409  40.226  12.355
83498W        W51903  12.301   0.468  11.199
83499W        W51904   1.730   0.443   1.942
83500W        W51905  12.453  15.122   2.119
83501W        W51906   4.604  24.683   4.165
83502W        W51907  40.400   7.681  14.836
83503W        W51908   9.343  34.978   0.216
83504W        W51909  16.523  16.525   2.383
83505W        W51910  26.899   0.326  14.467
83506W        W51911  32.427  18.627  11.026
83507W        W51912  31.240  28.582  13.602
83508W        W51913  13.268  25.541  14.251
83509W        W51914  26.625  22.619   2.751
83510W        W51915  35.161   7.698   1.312
83511W        W51916  30.368  37.443   2.783
83512W        W51917  26.642  18.090  12.366
83513W        W51918   8.216   8.630   1.233
83514W        W51919  21.550   6.706  14.967
83515W        W51920  13.711  33.557   0.890
83516W        W51921  32.056  43.934   0.965
83517W        W51922  25.458  19.977   2.967
83518W        W51923   9.823   5.986   3.344
83519W        W51924  36.102   5.749   4.284
83520W        W51925   9.508  35.729  11.339
83521W        W51926  37.096  35.901   3.818
83522W        W51927   3.668  14.083  12.938
83523W        W51928  40.213  34.170  12.577
83524W        W51929   2.832  13.693   0.545
83525W        W51930  12.122   2.826  14.361
83526W        W51931  29.651  39.463   1.952
83527W        W51932  23.631  19.516  14.527
83528W        W51933  34.079  27.403   0.231
83529W        W51934  33.429   6.185   2.358
83530W        W51935  44.172   8.680   3.666
83531W        W51936  40.044  34.909  14.977
83532W        W51937   9.114   4.232   1.361
83533W        W51938  18.526   0.964   4.375
83534W        W51939  31.115  39.202  11.242
83535W        W51940  34.450  35.796   3.109
83536W        W51941  37.985   5.053  14.275
83537W        W51942  20.519  37.996   1.350
83538W        W51943  31.268  29.491   0.840
83539W        W51944  42.514  22.409   0.234
83540W        W51945  17.880  37.382  12.908
83541W        W51946   6.434  39.881  11.567
83542W        W51947  35.176   1.472   4.566
83543W        W51948   4.772  28.654  13.411
83544W        W51949  32.934  40.825   2.798
83545W        W51950  18.531  21.542   4.938
83546W        W51951  42.437  14.121  11.746
83547W        W51952  13.874   6.681  12.127
83548W        W51953  35.120   1.954  11.567
83549W        W51954   8.416   6.019   0.273
83550W        W51955  25.666  35.794   3.688
83551W        W51956  29.305   6.137  10.605
83552W        W51957  38.311  18.821   1.428
83553W        W51958  37.073  42.430  10.631
83554W        W51959  17.333  36.205   0.704
83555W        W51960  12.268  44.656   4.118
83556W        W51961  14.216  31.476   1.961
83557W        W51962   0.309   5.904  14.844
83558W        W51963  33.130  24.036  10.676
83559W        W51964   0.749  31.745   4.096
83560W        W51965  37.508  39.427  13.506
83561W        W51966  28.446  39.676   2.244
83562W        W51967   3.971  24.535  14.782
83563W        W51968  21.774  31.244  13.145
83564W        W51969   4.195  39.533  14.349
83565W        W51970  16.818  18.110   1.781
83566W        W51971  35.074   4.162  13.925
83567W        W51972  17.596  19.783  14.799
83568W        W51973  27.089  35.045   3.785
83569W        W51974  18.024  35.937  14.373
83570W        W51975   5.290  19.732   3.133
83571W        W51976  39.133  25.984  10.644
83572W        W51977  15.707  35.344  12.110
83573W        W51978  44.468  19.141  13.371
83574W        W51979  22.613  25.770   0.569
83575W        W51980  21.477  32.885  13.530
83576W        W51981  17.034  27.067  14.391
83577W        W51982  23.961  14.572   3.216
83578W        W51983  23.692  13.498   0.386
83579W        W51984  43.284  44.700   0.523
83580W        W51985   2.045   5.244   3.060
83581W        W51986   0.356   7.209  11.192
83582W        W51987  11.438  12.850  13.989
83583W        W51988  44.966   6.702  14.877
83584W        W51989  12.673  35.285   3.105
83585W        W51990  32.831  43.950  14.499
83586W        W51991  44.372  29.044   2.316
83587W        W51992  36.364  17.065   3.956
83588W        W51993  19.784   4.472   0.367
83589W        W51994  35.322  42.726   0.074
83590W        W51995  44.158   0.859  10.176
83591W        W51996  39.890  36.531  11.589
83592W        W51997  37.615  15.786   1.806
83593W        W51998   6.815  17.933   3.701
83594W        W51999  19.109  12.431   1.716
83595W        W52000  17.507  37.855   2.267
83596W        W52001  39.709  38.440  10.623
83597W        W52002  34.896  21.990  12.381
83598W        W52003  28.504  12.173   0.903
83599W        W52004  38.054  15.285   3.228
83600W        W52005  23.590   0.438  12.188
83601W        W52006  36.108  11.217  13.957
83602W        W52007  16.379  13.394  14.417
83603W        W52008   5.706  41.507  11.479
83604W        W52009  19.829  25.762  14.453
83605W        W52010  17.839   8.478  13.887
83606W        W52011   6.147  36.292  11.727
83607W        W52012  30.669   9.150   4.545
83608W        W52013  13.575  35.594   0.275
83609W        W52014  15.860  19.155   3.136
83610W        W52015   8.441  33.323  12.401
83611W        W52016  39.824  20.590   4.313
83612W        W52017  36.934  43.816   3.109
83613W        W52018  32.679   4.476   1.485
83614W        W52019   4.725  10.809   3.568
83615W        W52020  44.489  26.697   3.211
83616W        W52021  29.150  39.851  12.061
83617W        W52022   5.805  37.555   1.924
83618W        W52023  31.719  19.199  10.188
83619W        W52024  29.404   2.944   3.237
83620W        W52025   3.293  30.574  12.427
83621W        W52026  23.736  32.577   0.319
83622W        W52027  34.579  26.573   2.673
83623W        W52028   0.063  14.740   0.877
83624W        W52029   2.707   8.818  10.727
83625W        W52030  27.942  21.026  12.863
83626W        W52031  26.655  38.612  10.741
83627W        W52032  21.186   9.902  11.565
83628W        W52033  11.197  19.652   4.145
83629W        W52034   4.354  37.113   2.949
83630W        W52035  12.298  11.635  12.672
83631W        W52036  23.179  19.061   3.707
83632W        W52037  18.221  15.369  14.808
83633W        W52038   2.875  39.979   0.405
83634W        W52039  29.905  29.387   2.321
83635W        W52040  18.490  14.938  13.964
83636W        W52041  43.254   5.173  12.324
83637W        W52042  38.265   0.952  12.520
83638W        W52043  27.915  44.958   0.572
83639W        W52044  10.101  44.921   4.926
83640W        W52045   2.395   2.480  10.635
83641W        W52046   6.194  13.234   2.219
83642W        W52047  20.680  25.733  10.653
83643W        W52048   0.905  25.365   4.079
83644W        W52049  25.150   8.405   3.197
83645W        W52050  19.943  21.349  11.457
83646W        W52051  16.693  37.985  13.573
83647W        W52052  13.029  39.460   0.868
83648W        W52053   8.869   0.446   0.803
83649W        W52054  30.116  26.707  12.899
83650W        W52055  20.186   5.929   2.783
83651W        W52056  39.463  32.120  13.030
83652W        W52057  24.292  29.090   0.592
83653W        W52058   5.897   7.228  13.925
83654W        W52059  35.019  15.508  10.611
83655W        W52060  17.669  10.313   3.532
83656W        W52061  20.693   5.174   1.109
83657W        W52062  22.511  34.150  11.606
83658W        W52063  39.997  31.064   3.740
83659W        W52064   8.606  16.724   1.788
83660W        W52065  27.094  10.812  10.395
83661W        W52066   7.301  26.148   3.886
83662W        W52067   9.907  37.966   0.857
83663W        W52068  44.126  17.468   2.589
83664W        W52069  42.842   8.358  12.540
83665W        W52070  44.785  12.629   1.906
83666W        W52071  44.868  15.341  12.867
83667W        W52072   9.636  32.001  12.999
83668W        W52073  42.613  40.763   1.322
83669W        W52074  20.804  39.214  11.178
83670W        W52075  28.618  44.442   0.236
83671W        W52076  19.764  16.907  13.771
83672W        W52077  39.708   0.207  13.131
83673W        W52078  31.846  40.498   4.213
83674W        W52079  19.523  43.427   0.981
83675W        W52080  32.376  26.047   3.259
83676W        W52081  33.817  10.723   0.429
83677W        W52082   3.499   2.201  14.951
83678W        W52083  28.228  18.778  12.044
83679W        W52084  12.838  28.548  13.424
83680W        W52085  43.527  16.213  14.986
83681W        W52086  41.885  34.146   2.764
83682W        W52087  30.941  16.902   2.962
83683W        W52088  20.821  10.333  12.683
83684W        W52089  12.247  38.940   2.477
83685W        W52090  29.094  30.000   1.231
83686W        W52091  43.828  11.185   2.300
83687W        W52092  37.459   1.960  10.042
83688W        W52093  43.502  25.001   0.367
83689W        W52094  10.223  17.354   4.452
83690W        W52095  26.995  11.863  13.071
83691W        W52096  41.550   0.992   3.539
83692W        W52097  27.552  24.058   2.694
83693W        W52098  35.785   5.584   3.341
83694W        W52099  32.920   4.377  13.508
83695W        W52100  15.875  39.292  13.294
83696W        W52101   7.362  33.481   3.942
83697W        W52102  23.837  23.068   4.168
83698W        W52103  27.127   6.824   3.340
83699W        W52104  43.442   2.230   2.231
83700W        W52105  28.465  26.642   2.057
83701W        W52106  24.893  29.373  14.402
83702W        W52107   9.659  30.593   3.500
83703W        W52108  25.561   5.697  10.388
83704W        W52109  44.797  12.598  13.800
83705W        W52110  21.330  22.873  12.606
83706W        W52111  38.437  17.747   1.449
83707W        W52112   7.258  29.216   3.173
83708W        W52113  26.525   9.642   0.962
83709W        W52114  11.294  38.103   1.046
83710W        W52115  39.269  25.874   4.348
83711W        W52116  43.534  17.267  14.775
83712W        W52117  17.489   2.672   2.922
83713W        W52118  15.561  25.665   0.710
83714W        W52119  29.620  27.581  14.416
83715W        W52120   8.259  34.683  11.949
83716W        W52121   8.260  17.964  10.803
83717W        W52122  14.815  30.653  14.430
83718W        W52123  16.711   4.938   3.268
83719W        W52124  35.427  24.528  13.782
83720W        W52125   3.801  34.423  12.718
83721W        W52126  19.334  37.061  12.130
83722W        W52127   1.842  28.152  12.476
83723W        W52128   9.995  17.644   2.297
83724W        W52129  22.777  11.371  11.919
83725W        W52130  32.385  34.005  14.815
83726W        W52131  17.342   0.479  11.019
83727W        W52132  37.357  32.087   2.790
83728W        W52133  12.241   7.523  12.120
83729W        W52134  23.531  29.597   4.746
83730W        W52135  33.627  23.776   1.402
83731W        W52136  43.017   1.518   2.355
83732W        W52137  18.589  17.145  14.781
83733W        W52138   5.909  35.499  13.452
83734W        W52139  10.129  19.878   1.524
83735W        W52140  44.227  12.301   2.817
83736W        W52141  33.403  24.674   4.220
83737W        W52142  28.482  40.576  12.592
83738W        W52143   8.934  12.103  10.994
83739W        W52144  31.683  33.189  12.038
83740W        W52145  25.489  33.642  14.830
83741W        W52146  42.359  36.663   0.879
83742W        W52147  34.925   5.725   4.644
83743W        W52148  39.932  20.500   3.825
83744W        W52149   0.727  42.650  11.146
83745W        W52150  14.370  38.070   0.881
83746W        W52151  26.109  12.573  11.650
83747W        W52152   3.333  18.556   0.850
83748W        W52153   3.000   3.361   5.059
83749W        W52154  22.338  24.438  14.484
83750W        W52155  32.410   6.808   0.262
83751W        W52156  37.299  12.288   2.017
83752W        W52157  25.499  35.017  13.800
83753W        W52158  12.807  25.570   4.487
83754W        W52159  17.127   1.396   1.125
83755W        W52160  15.255  32.024   5.037
83756W        W52161  43.549  28.363   2.929
83757W        W52162  39.237  14.528   5.013
83758W        W52163   7.987  20.412  11.584
83759W        W52164  21.808  31.056   2.176
83760W        W52165  44.963  12.818   2.386
83761W        W52166  28.074   6.947  13.752
83762W        W52167   8.247  17.235   1.858
83763W        W52168  17.614  16.516   1.771
83764W        W52169  30.931  18.532   4.579
83765W        W52170  14.787  15.305   2.189
83766W        W52171  17.915  32.406   2.903
83767W        W52172  37.011  41.588   2.840
83768W        W52173  35.081  28.256  14.972
83769W        W52174  14.832  24.248   0.193
83770W        W52175  17.681   9.883  10.735
83771W        W52176   8.335  19.830   0.286
83772W        W52177  32.511  19.016  10.699
83773W        W52178  19.597  13.299  14.071
83774W        W52179  40.965   4.450  13.621
83775W        W52180  14.770  28.950   4.623
83776W        W52181   2.684  22.557   0.662
83777W        W52182  31.828  10.239   3.746
83778W        W52183  14.766   0.245   4.503
83779W        W52184  12.290   9.369  11.579
83780W        W52185  33.458   3.623  11.086
83781W        W52186   0.014  11.899   4.262
83782W        W52187  41.894  37.936   0.306
83783W        W52188  39.840  30.400  12.940
83784W        W52189   6.479  20.200   2.176
83785W        W52190  32.091   1.324   2.648
83786W        W52191  29.350  33.642  10.199
83787W        W52192  28.363  24.667  13.960
83788W        W52193   5.672  39.967  11.178
83789W        W52194  11.280  32.903  12.593
83790W        W52195  29.579  38.331   4.697
83791W        W52196  17.672  14.846   1.336
83792W        W52197  32.174  22.755   4.487
83793W        W52198  22.327  28.014  12.223
83794W        W52199  23.548   7.797   3.241
83795W        W52200   2.214  13.838   3.795
83796W        W52201  26.954  11.350  13.798
83797W        W52202  28.035  13.114  10.590
83798W        W52203  21.500  30.978  14.860
83799W        W52204   4.702   5.939  13.883
83800W        W52205  15.072  10.215   2.707
83801W        W52206  37.449  44.191  13.455
83802W        W52207  28.063   9.224   2.599
83803W        W52208  10.078  39.046   2.034
83804W        W52209  27.990  28.060  10.583
83805W        W52210  13.109  41.999  11.935
83806W        W52211  30.252  16.941   0.312
83807W        W52212  27.660  13.740  12.022
83808W        W52213  19.749  35.609   0.139
83809W        W52214  43.953  44.125  11.547
83810W        W52215  30.125  37.455   2.191
83811W        W52216  27.471   1.351  13.565
83812W        W52217   9.392  19.647  12.464
83813W        W52218  33.622  22.084   4.691
83814W        W52219  26.101  39.810  13.726
83815W        W52220   0.038  30.081  13.937
83816W        W52221  21.502  18.058   0.872
83817W        W52222  41.959  26.072  10.777
83818W        W52223  18.495   0.203   4.109
83819W        W52224  28.170  34.124   3.853
83820W        W52225  15.312   7.652   4.877
83821W        W52226  23.312  26.032   1.534
83822W        W52227   8.613  26.554  13.990
83823W        W52228  40.400  27.131   4.476
83824W        W52229  41.562   9.781   2.682
83825W        W52230  28.422  43.914  13.480
83826W        W52231  39.206  15.825  12.409
83827W        W52232  23.539  12.116  14.327
83828W        W52233   4.703  36.931  14.508
83829W        W52234  15.185  20.208   1.280
83830W        W52235  38.442  34.567   2.476
83831W        W52236  30.235  12.293  11.410
83832W        W52237  33.608  23.099   0.919
83833W        W52238  11.932  42.082  13.954
83834W        W52239   4.930  39.646  14.326
83835W        W52240  32.140   3.209   4.899
83836W        W52241  29.679  22.132  11.109
83837W        W52242  17.125  20.832  12.478
83838W        W52243  40.349   3.247  14.768
83839W        W52244  20.771  43.324   0.252
83840W        W52245  39.504  18.153   4.061
83841W        W52246  42.556  33.902   1.379
83842W        W52247   0.113  38.298   4.813
83843W        W52248  40.758  33.523   3.819
83844W        W52249   2.954   4.445   5.009
83845W        W52250  31.783   7.243   2.598
83846W        W52251   1.380  22.158   1.668
83847W        W52252  36.247   3.503   5.057
83848W        W52253  17.365  24.620  13.499
83849W        W52254  10.641  34.897  13.987
83850W        W52255  14.479  35.884  10.260
83851W        W52256  43.754   2.696  11.136
83852W        W52257  40.568  32.076  13.024
83853W        W52258  15.083  25.260  14.049
83854W        W52259  38.641  29.855  10.530
83855W        W52260  23.460  15.298  14.920
83856W        W52261  35.224  42.320  14.763
83857W        W52262  11.165  16.216  13.693
83858W        W52263  29.709  19.909   5.069
83859W        W52264  31.395  25.057   3.815
83860W        W52265  15.107  29.526  13.593
83861W        W52266  32.434  33.304   2.362
83862W        W52267  25.499   3.858  13.577
83863W        W52268   9.165  42.889  10.735
83864W        W52269  10.942  38.950   2.025
83865W        W52270  11.194  20.572  11.551
83866W        W52271  21.449  42.985  13.087
83867W        W52272  14.741  12.297   1.906
83868W        W52273  15.279   4.413  12.716
83869W        W52274  30.689  25.676   0.837
83870W        W52275  18.605  11.211  13.364
83871W        W52276  11.159  31.113  12.083
83872W        W52277  11.898  43.307   3.349
83873W        W52278  33.493   1.348  12.156
83874W        W52279  39.505  43.263  10.790
83875W        W52280  21.704  31.085   0.343
83876W        W52281  36.371  34.118   2.381
83877W        W52282  41.665   1.985   2.170
83878W        W52283  28.666   4.392   3.686
83879W        W52284  10.310   5.484   0.881
83880W        W52285   4.702  19.135  13.045
83881W        W52286   6.747   5.956   1.200
83882W        W52287  21.326  39.639  12.050
83883W        W52288  33.454  11.747   2.668
83884W        W52289  32.030   7.719   2.684
83885W        W52290  17.143  40.454   1.137
83886W        W52291  17.095  41.981  13.983
83887W        W52292  30.192   8.363  12.246
83888W        W52293  16.427  11.280   1.516
83889W        W52294   5.890  17.886   2.752
83890W        W52295  15.744   3.886   3.432
83891W        W52296   9.746  27.028   1.440
83892W        W52297  34.139   3.816  13.393
83893W        W52298  27.139   7.732   3.416
83894W        W52299  18.920  20.420   0.837
83895W        W52300  26.689   6.193   4.601
83896W        W52301  14.049  28.576   0.923
83897W        W52302  40.073  25.672  13.908
83898W        W52303  19.264  28.886   1.274
83899W        W52304  29.649  32.383  14.996
83900W        W52305  16.240  30.509   0.360
83901W        W52306  37.794  44.158   1.724
83902W        W52307  10.906  24.782   2.259
83903W        W52308  15.225  43.970  12.087
83904W        W52309   0.641  26.456   2.915
83905W        W52310  22.127  10.365  11.505
83906W        W52311  26.992  41.827   0.922
83907W        W52312   3.986   7.483   2.285
83908W        W52313  17.094  24.202  13.329
83909W        W52314  40.469  14.032   0.051
83910W        W52315  28.928  10.885  12.970
83911W        W52316  21.632  38.578  11.008
83912W        W52317  21.317  26.069   0.159
83913W        W52318  27.985  12.706   0.490
83914W        W52319  44.343  18.861   0.911
83915W        W52320  14.281  37.591   0.049
83916W        W52321   6.977  23.787  11.366
83917W        W52322  11.738  14.919  13.577
83918W        W52323  28.001  44.241  13.553
83919W        W52324   9.417  44.636  12.903
83920W        W52325  19.044  38.835   4.174
83921W        W52326  22.727  20.829   5.071
83922W        W52327  38.774  39.413  11.312
83923W        W52328  38.327  35.534   2.221
83924W        W52329  10.847  39.995   2.647
83925W        W52330  23.484  12.294   2.880
83926W        W52331  32.652  25.116  14.905
83927W        W52332  43.286  37.836  12.977
83928W        W52333  24.523  15.617   1.792
83929W        W52334   5.414  12.059   1.790
83930W        W52335  42.890  27.580   0.329
83931W        W52336  26.250   2.306   3.389
83932W        W52337  17.314  38.589   4.900
83933W        W52338  11.580  23.099   3.136
83934W        W52339  20.520  42.778  10.928
83935W        W52340  21.252  27.433   2.922
83936W        W52341  43.705  24.547  13.100
83937W        W52342  33.937  30.730   0.911
83938W        W52343  22.821  37.124  12.972
83939W        W52344  17.523  30.901   4.507
83940W        W52345  28.643   0.366   4.646
83941W        W52346  31.729   2.687  12.993
83942W        W52347  18.127  41.314   2.250
83943W        W52348  35.975  34.023  13.710
83944W        W52349  31.136  12.973  11.521
83945W        W52350  44.374  37.401  10.008
83946W        W52351   5.307  21.634  14.814
83947W        W52352  19.569   2.268  10.505
83948W        W52353  33.044  41.949   4.096
83949W        W52354  24.947  27.067   4.044
83950W        W52355  36.730  30.443   5.053
83951W        W52356  24.959  31.379  14.410
83952W        W52357  15.049  35.427   3.180
83953W        W52358  32.837  42.460  12.606
83954W        W52359  33.270  28.626   3.635
83955W        W52360   3.818  32.389  14.370
83956W        W52361  39.819  28.117   4.085
83957W        W52362  21.595  14.684   0.280
83958W        W52363  32.605   5.263  11.213
83959W        W52364  34.631  27.468   2.348
83960W        W52365  40.525  37.557  11.686
83961W        W52366   0.691  12.165  11.776
83962W        W52367  26.698  36.011   2.239
83963W        W52368   5.786  34.417   4.549
83964W        W52369  36.527  17.202  14.688
83965W        W52370  11.703  25.456   2.211
83966W        W52371  28.575  35.967  10.710
83967W        W52372   8.271  11.224  14.016
83968W        W52373   0.659  25.337  13.346
83969W        W52374  37.422  22.112   2.748
83970W        W52375  20.292  26.889  12.603
83971W        W52376  27.135   4.341  12.035
83972W        W52377  14.872  30.182   4.111
83973W        W52378  25.637  41.620  14.411
83974W        W52379   5.922  35.835  13.031
83975W        W52380  21.774  44.420   2.741
83976W        W52381   0.558   6.837  13.891
83977W        W52382  39.527  12.794  13.816
83978W        W52383   3.829  19.010  11.131
83979W        W52384  18.064  21.151  10.202
83980W        W52385  33.128  23.748   4.697
83981W        W52386  18.534   5.427  11.951
83982W        W52387  34.340  30.589   2.273
83983W        W52388   6.357   8.314  10.418
83984W        W52389  16.720  20.250   3.846
83985W        W52390  12.950   7.190   4.976
83986W        W52391   5.170  21.287   4.038
83987W        W52392  15.001  43.000   3.733
83988W        W52393  29.120  44.805  10.707
83989W        W52394  19.356  38.827   1.988
83990W        W52395  20.980   7.787  10.175
83991W        W52396   1.788  22.706  11.542
83992W        W52397  37.618   0.304   3.873
83993W        W52398  15.666  15.273  14.931
83994W        W52399   5.536  42.225   2.163
83995W        W52400  42.454   4.761  10.996
83996W        W52401   3.042  11.252   2.819
83997W        W52402  32.138  11.211  13.507
83998W        W52403  34.557   8.183   4.190
83999W        W52404   4.857   2.200  11.072
84000W        W52405  27.192  38.825   3.071
84001W        W52406  36.954  21.634   1.438
84002W        W52407  41.977   2.635  10.486
84003W        W52408  41.788  27.539   3.359
84004W        W52409  32.147  29.482   4.184
84005W        W52410   1.711  20.995  12.127
84006W        W52411  39.550  17.856   3.596
84007W        W52412  15.334  36.974   3.233
84008W        W52413  31.315  17.205   2.623
84009W        W52414   8.296  43.008  14.842
84010W        W52415   5.250  27.747  13.458
84011W        W52416   7.100  26.576   3.682
84012W        W52417  17.636   7.146   3.199
84013W        W52418  43.869  31.435  10.446
84014W        W52419   6.169  39.531   4.058
84015W        W52420  44.367  16.589   2.009
84016W        W52421  20.184   5.183  10.704
84017W        W52422   9.258  16.044   2.261
84018W        W52423  36.892   9.997   0.374
84019W        W52424  43.873  19.650   1.483
84020W        W52425  27.940  15.706   0.286
84021W        W52426  12.890   3.523   2.028
84022W        W52427  16.554  21.999   1.449
84023W        W52428   0.743  11.342  11.073
84024W        W52429  41.468   6.663   2.847
84025W        W52430  37.599   1.730   3.515
84026W        W52431   0.436   1.313  13.828
84027W        W52432  40.566  24.246   2.893
84028W        W52433  29.383  11.305  13.865
84029W        W52434  19.463  29.923  11.970
84030W        W52435  42.493   5.423  11.889
84031W        W52436  15.814  35.005  11.154
84032W        W52437  19.721  41.831  11.948
84033W        W52438  30.527  14.375  12.092
84034W        W52439  24.604   6.663  14.509
84035W        W52440  33.034  43.574   3.092
84036W        W52441  30.925  34.899   4.341
84037W        W52442   2.664  27.091   3.600
84038W        W52443  15.132  27.452   3.758
84039W        W52444  33.292  24.988   4.645
84040W        W52445  28.161   5.079   1.338
84041W        W52446  10.354   1.715  12.898
84042W        W52447  42.024  16.585  14.166
84043W        W52448  17.627   3.713  14.184
84044W        W52449  30.461  36.542  11.241
84045W        W52450  31.920  17.133   4.023
84046W        W52451  17.124  20.517  12.958
84047W        W52452   8.828  41.917   0.285
84048W        W52453  43.520   4.369  14.263
84049W        W52454  19.825   6.382   1.344
84050W        W52455  33.148  20.560   2.875
84051W        W52456  21.585   8.237   0.862
84052W        W52457  41.123  34.960  14.858
84053W        W52458  11.935  31.613   0.173
84054W        W52459   6.635   9.808   3.728
84055W        W52460  20.315  44.586  10.182
84056W        W52461   8.160  10.568   0.741
84057W        W52462   1.277  42.056   0.889
84058W        W52463  42.112  41.141  12.883
84059W        W52464  28.498   2.381  12.026
84060W        W52465  21.336  32.988   2.219
84061W        W52466  17.159  40.594  11.592
84062W        W52467  22.697   2.301   2.354
84063W        W52468  40.986  24.119   3.850
84064W        W52469  43.569  30.900  10.990
84065W        W52470  28.207  16.185   1.681
84066W        W52471   3.054  21.682   2.871
84067W        W52472  10.253  24.456  14.396
84068W        W52473  33.408  17.423  13.436
84069W        W52474   6.244  18.345   1.795
84070W        W52475   9.736   8.693  14.336
84071W        W52476  12.518   1.412  13.549
84072W        W52477  10.834  14.625  13.230
84073W        W52478  43.041  21.094  11.130
84074W        W52479  39.205  44.307   4.170
84075W        W52480  41.066  22.673  10.742
84076W        W52481  15.110  14.332   1.698
84077W        W52482  26.458  39.414   1.323
84078W        W52483   3.882   6.291   4.066
84079W        W52484  22.757  16.586   1.180
84080W        W52485  42.989   2.288   1.251
84081W        W52486   2.148  23.804   0.714
84082W        W52487  37.630  32.423  12.875
84083W        W52488  33.015  30.722   1.935
84084W        W52489  15.254  44.437   0.942
84085W        W52490  22.976  12.674   2.295
84086W        W52491  43.847  44.058  10.666
84087W        W52492  17.305   0.719  12.144
84088W        W52493  25.216  14.499   0.895
84089W        W52494  20.643  21.342   3.515
84090W        W52495  17.653  31.728   5.014
84091W        W52496  39.747  15.866  12.221
84092W        W52497  20.722  36.517   4.858
84093W        W52498  40.223  32.448   4.166
84094W        W52499  27.092   8.171   4.209
84095W        W52500  20.111  43.312   2.044
84096W        W52501  41.974  21.580   1.022
84097W        W52502  31.495   2.823  11.687
84098W        W52503  13.825  18.828  12.584
84099W        W52504  39.773  36.534   4.686
84100W        W52505  16.925  22.681   2.271
84101W        W52506   1.256  33.436   4.563
84102W        W52507  26.630  26.143  11.696
84103W        W52508  44.770  16.159   3.232
84104W        W52509  34.744   8.923  13.884
84105W        W52510  38.937  11.430  13.662
84106W        W52511  31.182  42.687   4.970
84107W        W52512   3.734  29.519  11.654
84108W        W52513  10.193  19.547   3.073
84109W        W52514  21.619  34.165  12.528
84110W        W52515   6.129  12.744  12.459
84111W        W52516   1.148   1.750   4.252
84112W        W52517  10.236  44.892   1.495
84113W        W52518  31.657  17.185  14.089
84114W        W52519  26.731  20.248   3.687
84115W        W52520  11.774   4.463  13.614
84116W        W52521  35.237   3.439   4.139
84117W        W52522   5.650  23.561  10.881
84118W        W52523  25.691  15.144   4.390
84119W        W52524  29.996  26.171   4.804
84120W        W52525  24.993  14.178   3.394
84121W        W52526  22.175  30.576   3.315
84122W        W52527  25.082   1.439   4.478
84123W        W52528  17.689  39.156   1.209
84124W        W52529   3.726   8.947  14.480
84125W        W52530  31.914  37.157   1.285
84126W        W52531   5.673  23.091   3.666
84127W        W52532  17.200  43.511  13.740
84128W        W52533  15.819   9.257  13.073
84129W        W52534  38.918  40.645   2.890
84130W        W52535  34.468  25.926   1.870
84131W        W52536  43.392  36.824  13.711
84132W        W52537  28.751  34.337  13.397
84133W        W52538  20.435  39.936  14.364
84134W        W52539  36.058  42.490  11.569
84135W        W52540  24.169  40.608  13.559
84136W        W52541  24.675   6.344  13.324
84137W        W52542   1.366  39.691   0.303
84138W        W52543  26.062  41.770   4.155
84139W        W52544  42.900   1.931   4.321
84140W        W52545  39.304   2.404  11.112
84141W        W52546  17.621   6.148   1.410
84142W        W52547  29.472  11.725   3.821
84143W        W52548  33.306  30.491  13.732
84144W        W52549  33.405  17.206   4.507
84145W        W52550  20.051  44.783   3.380
84146W        W52551  34.843  20.004  10.852
84147W        W52552  12.739  23.118  14.765
84148W        W52553  32.813  33.432  14.382
84149W        W52554  39.491   3.848   3.341
84150W        W52555  23.791  41.739  13.998
84151W        W52556  10.039   7.612   5.150
84152W        W52557  44.286  30.457  12.533
84153W        W52558  25.809  39.183  14.062
84154W        W52559  16.130  14.214   0.712
84155W        W52560  18.078  26.524   1.488
84156W        W52561  26.567   4.219  14.403
84157W        W52562  21.549  25.116   0.580
84158W        W52563  10.687  18.912   2.932
84159W        W52564  28.668  16.579   0.852
84160W        W52565  41.298   7.895  13.470
84161W        W52566   3.865  16.881   2.519
84162W        W52567  35.706  20.628   0.423
84163W        W52568   2.324   8.447   9.901
84164W        W52569  43.991  20.117   0.761
84165W        W52570  15.333   7.447   3.867
84166W        W52571  20.960  29.030  12.529
84167W        W52572  44.492   5.763  14.458
84168W        W52573  30.701  23.025  10.706
84169W        W52574  40.847  24.819  11.055
84170W        W52575   3.811  35.097   1.260
84171W        W52576   6.147   6.662   2.348
84172W        W52577  33.452   8.759   4.049
84173W        W52578  30.970  34.878   0.999
84174W        W52579  40.082  40.363  11.496
84175W        W52580  22.489   5.352   2.200
84176W        W52581   7.793  35.100  14.871
84177W        W52582   7.587  28.434  13.131
84178W        W52583  32.834  38.571  13.470
84179W        W52584  17.930  43.173   3.336
84180W        W52585  16.239  43.054   3.971
84181W        W52586  16.095  41.106  12.603
84182W        W52587  18.960   9.079   9.470
84183W        W52588  38.696  39.027   1.726
84184W        W52589  43.240  30.469   1.993
84185W        W52590  10.126   4.978   0.949
84186W        W52591  20.577  27.499  13.917
84187W        W52592  15.775  11.623  13.020
84188W        W52593  23.192  16.855   2.359
84189W        W52594  27.644  14.297   3.040
84190W        W52595  25.117  22.878   4.183
84191W        W52596  24.992  39.613  14.795
84192W        W52597  20.034  37.086   0.899
84193W        W52598  30.681   9.859   2.966
84194W        W52599  19.831  21.731   1.557
84195W        W52600   7.722  20.201  14.134
84196W        W52601  39.915  23.641  11.496
84197W        W52602  28.917  41.508   0.790
84198W        W52603   5.445  35.578  13.187
84199W        W52604  10.924  15.032  11.149
84200W        W52605  21.670  39.518  12.413
84201W        W52606   0.466   1.711   2.098
84202W        W52607  11.559  16.143  14.020
84203W        W52608  22.668  16.418   0.399
84204W        W52609  18.687   5.197   0.240
84205W        W52610  25.636   1.196   0.657
84206W        W52611  26.664  34.088  12.812
84207W        W52612  18.974  13.876  13.684
84208W        W52613  29.913  38.840  10.213
84209W        W52614  25.459  28.602   1.701
84210W        W52615  26.225  36.902  13.343
84211W        W52616  36.944  12.987  11.224
84212W        W52617  10.746  23.063   0.915
84213W        W52618  39.846  34.348   0.936
84214W        W52619  28.208  43.094   0.290
84215W        W52620  21.305  19.773  12.953
84216W        W52621  43.299  22.198  13.973
84217W        W52622  16.246  33.438  14.696
84218W        W52623  14.119   1.285  14.327
84219W        W52624  15.332  33.230   3.271
84220W        W52625  21.053  39.872  14.486
84221W        W52626  30.839  36.281   0.797
84222W        W52627  40.211   1.975  11.105
84223W        W52628  23.616  36.793   1.337
84224W        W52629  14.837  29.195  11.475
84225W        W52630  11.335  19.771   3.209
84226W        W52631  30.382   1.826   2.767
84227W        W52632  38.353   9.428   1.250
84228W        W52633  40.681  25.454  11.225
84229W        W52634  42.498  23.487  10.697
84230W        W52635  19.976  35.982  12.376
84231W        W52636  14.532  10.577  14.802
84232W        W52637  40.077  14.638   2.171
84233W        W52638  23.552  27.685   3.459
84234W        W52639  26.496   9.274  12.825
84235W        W52640  27.228  35.947  12.861
84236W        W52641  21.554  24.759   1.413
84237W        W52642  33.690  32.386  13.483
84238W        W52643  37.540   5.940  14.324
84239W        W52644  11.822  21.220  14.314
84240W        W52645  36.411  25.126   4.372
84241W        W52646  15.290  28.489   0.451
84242W        W52647   3.396   9.205  10.338
84243W        W52648  39.758  14.673  14.939
84244W        W52649  28.320   9.441  12.446
84245W        W52650  16.136  16.493   0.745
84246W        W52651  30.397  20.637   4.689
84247W        W52652  25.045  15.965  13.430
84248W        W52653  16.236   6.242  13.551
84249W        W52654  29.541  23.163   2.854
84250W        W52655   0.468  27.658   1.267
84251W        W52656  36.883  35.679   0.460
84252W        W52657  23.971  21.364   5.092
84253W        W52658  36.035  20.983   4.844
84254W        W52659  25.556  25.752   1.298
84255W        W52660  42.999  44.253  10.562
84256W        W52661  41.929  14.087  14.550
84257W        W52662  30.583   6.351   1.788
84258W        W52663  13.037  15.055   1.358
84259W        W52664  39.828  19.201   0.251
84260W        W52665  11.427  24.395  12.538
84261W        W52666  38.617  19.868   1.392
84262W        W52667  14.674  23.762  10.872
84263W        W52668  35.856  27.469   4.187
84264W        W52669   0.894  36.357  14.507
84265W        W52670   3.389  31.987   2.231
84266W        W52671  32.897  10.915   0.393
84267W        W52672   4.685  40.187  10.224
84268W        W52673  43.004  26.408   1.467
84269W        W52674  30.119  29.547   2.776
84270W        W52675   2.514   0.894   2.743
84271W        W52676  43.480  40.318  12.000
84272W        W52677   4.036  42.471   1.246
84273W        W52678  20.249   7.430  11.006
84274W        W52679  21.242   8.337   2.083
84275W        W52680  34.815   1.027  13.492
84276W        W52681  39.962   6.849   0.262
84277W        W52682  33.971  30.410  10.743
84278W        W52683  26.564  14.488   2.880
84279W        W52684  12.352  27.970  11.837
84280W        W52685  27.741  23.633  14.768
84281W        W52686   2.527  13.327   1.766
84282W        W52687  41.467  38.585  13.803
84283W        W52688  24.363   9.753  12.566
84284W        W52689  15.681  16.297   2.320
84285W        W52690  43.326  41.732   1.678
84286W        W52691  11.861  35.966   3.353
84287W        W52692  43.964  41.644   4.890
84288W        W52693  32.540  29.495  13.977
84289W        W52694  32.524  24.522   3.219
84290W        W52695  26.973   8.393  14.865
84291W        W52696  22.013  24.937  13.393
84292W        W52697   7.840  19.344  14.371
84293W        W52698   3.880  11.116   3.592
84294W        W52699  19.715  37.608   4.246
84295W        W52700  18.624   0.353  12.116
84296W        W52701   8.310  40.296  14.859
84297W        W52702  20.778  12.869   3.640
84298W        W52703  19.299  40.284  12.511
84299W        W52704  27.446  13.163   3.778
84300W        W52705  38.887   3.353  14.825
84301W        W52706  21.167  41.105   0.017
84302W        W52707   4.010  26.545  12.439
84303W        W52708  30.579   6.759   3.722
84304W        W52709  39.141  32.021  14.456
84305W        W52710  22.211  10.865  12.383
84306W        W52711   8.695  24.708  11.170
84307W        W52712  20.759  19.211   0.252
84308W        W52713  14.212   2.503   0.853
84309W        W52714  34.763  36.734   3.928
84310W        W52715  41.281  34.876  11.934
84311W        W52716  21.641   4.336  13.481
84312W        W52717  35.869  13.528  12.940
84313W        W52718  34.848   5.828   3.721
84314W        W52719   7.149  13.424   4.106
84315W        W52720   1.274  39.765  11.244
84316W        W52721  31.127  20.294   1.933
84317W        W52722  26.978  18.211   1.784
84318W        W52723  34.431  16.901  12.829
84319W        W52724   5.953  15.911   2.204
84320W        W52725  36.382   9.872   0.381
84321W        W52726   5.721  37.520  10.208
84322W        W52727   3.719  13.710   0.012
84323W        W52728  36.602  28.755  10.392
84324W        W52729   3.819  25.209   2.851
84325W        W52730  24.703  31.171   1.415
84326W        W52731  38.462  19.299   0.616
84327W        W52732  33.109  23.032   2.846
84328W        W52733  19.061  23.571  14.447
84329W        W52734   7.727  27.254   2.319
84330W        W52735  24.650  41.801  10.363
84331W        W52736   2.615  12.764   0.044
84332W        W52737  37.869  22.502  10.652
84333W        W52738  28.792  33.300   0.322
84334W        W52739  22.726  10.485   2.671
84335W        W52740  25.264  11.748   2.739
84336W        W52741  36.683  23.305  10.421
84337W        W52742   4.133  37.013  13.000
84338W        W52743   0.291  10.275   4.761
84339W        W52744  44.750  27.122  12.398
84340W        W52745  35.829  26.252  10.660
84341W        W52746  14.208  21.184   0.211
84342W        W52747  33.775  27.115  11.539
84343W        W52748  15.252  41.331   3.698
84344W        W52749  22.181  20.426   3.397
84345W        W52750  41.401  10.250  11.977
84346W        W52751   6.368  25.597  13.917
84347W        W52752   1.373  13.516   2.243
84348W        W52753  39.099  30.317  11.593
84349W        W52754  12.529  22.581  13.583
84350W        W52755  27.172  10.381  14.012
84351W        W52756   8.355   6.156  12.847
84352W        W52757   8.225  12.608   3.558
84353W        W52758  38.902   5.789   1.940
84354W        W52759   2.395  22.184   2.823
84355W        W52760  16.817  34.491   1.472
84356W        W52761   6.484   0.532  14.687
84357W        W52762  24.354   8.590  14.454
84358W        W52763  16.554  36.694  11.165
84359W        W52764  36.205  15.938  10.299
84360W        W52765  18.148   9.197  11.780
84361W        W52766  18.315  42.931  11.446
84362W        W52767  11.782  42.135   1.944
84363W        W52768  18.853  11.001   0.884
84364W        W52769   1.866   9.820  10.548
84365W        W52770  38.816  29.739   2.560
84366W        W52771  28.636  23.204   2.876
84367W        W52772   9.236  10.906  10.488
84368W        W52773   9.035  27.088  11.977
84369W        W52774   7.237  38.945   0.361
84370W        W52775  11.309  19.425   0.421
84371W        W52776  37.342  17.177   4.265
84372W        W52777   5.233  27.219  11.921
84373W        W52778  18.206   0.321  10.728
84374W        W52779   9.872  11.574   4.883
84375W        W52780   1.888  18.307   3.238
84376W        W52781   9.849   7.214   1.161
84377W        W52782  14.087  15.730   1.810
84378W        W52783  38.576  42.615  11.403
84379W        W52784  33.318  26.368   0.403
84380W        W52785  11.631  16.673  13.284
84381W        W52786   1.315  17.831  12.552
84382W        W52787  32.086   9.386  13.562
84383W        W52788  15.739  29.960  13.440
84384W        W52789  39.847  40.376  14.787
84385W        W52790  33.235  21.436   2.262
84386W        W52791  39.323  41.470   3.337
84387W        W52792  18.089  32.608   0.674
84388W        W52793  33.783  40.377   0.014
84389W        W52794   7.598  22.196  14.836
84390W        W52795  35.932   7.895   1.758
84391W        W52796  38.321  32.074   1.545
84392W        W52797  39.353   2.674  10.637
84393W        W52798  16.407  19.055   1.934
84394W        W52799  43.987   9.827   1.448
84395W        W52800   7.272   6.722   2.145
84396W        W52801  41.899  29.628  11.297
84397W        W52802   8.208  26.846  14.035
84398W        W52803  11.216   4.403  10.891
84399W        W52804  10.466  13.889  11.579
84400W        W52805  22.673  14.843   2.782
84401W        W52806   3.378  17.575   0.685
84402W        W52807   4.269  23.747  10.341
84403W        W52808  25.017  15.852  10.735
84404W        W52809  14.311  30.586   1.876
84405W        W52810   1.936   1.832   2.956
84406W        W52811  12.698  10.622  14.336
84407W        W52812  23.747  31.707  12.673
84408W        W52813  12.751  44.209   4.621
84409W        W52814   2.186  40.215  11.124
84410W        W52815  20.439  29.237  13.364
84411W        W52816  10.803  41.338  11.600
84412W        W52817  22.157   2.455   1.040
84413W        W52818   3.249  40.284  11.197
84414W        W52819  28.677  39.758  12.968
84415W        W52820   8.948  34.458   3.291
84416W        W52821  16.314  34.882  11.188
84417W        W52822  29.216  21.715  14.439
84418W        W52823   9.171  12.746   1.219
84419W        W52824  20.533  44.005   4.665
84420W        W52825  40.615  28.385  13.422
84421W        W52826  36.710  17.253  11.956
84422W        W52827  29.006  25.111   0.359
84423W        W52828  23.482   4.283   2.948
84424W        W52829  40.027  39.829   1.891
84425W        W52830  14.511  32.417  12.968
84426W        W52831   6.143  18.786  12.110
84427W        W52832  18.228  36.462  10.440
84428W        W52833  35.765  35.421  14.282
84429W        W52834  14.649  43.284   2.022
84430W        W52835  15.296  19.174   2.197
84431W        W52836  20.843  27.077   5.067
84432W        W52837  37.449   0.173   1.780
84433W        W52838  19.262  19.973   2.077
84434W        W52839  41.093   9.684   2.870
84435W        W52840   1.156  29.110  14.793
84436W        W52841   5.308  13.099   0.759
84437W        W52842  15.796  23.432   3.031
84438W        W52843  33.734  19.311  14.381
84439W        W52844  23.008  27.041  13.017
84440W        W52845  40.636  18.868   3.236
84441W        W52846  16.130  29.079  11.975
84442W        W52847  27.218  43.869  12.472
84443W        W52848   9.327  35.616  13.906
84444W        W52849  11.701  12.566  11.570
84445W        W52850  38.041  12.133  14.880
84446W        W52851   6.258  17.889  13.842
84447W        W52852   5.700  34.538  13.978
84448W        W52853   2.515  14.245   3.765
84449W        W52854  23.957  16.047  14.049
84450W        W52855  37.020  32.183   0.749
84451W        W52856  31.029  17.397  14.350
84452W        W52857  41.585  44.418  12.273
84453W        W52858  41.336  41.556   4.783
84454W        W52859  35.148   9.179   3.449
84455W        W52860  25.987   8.593  12.540
84456W        W52861  18.754  16.604   2.425
84457W        W52862  40.036  26.170  14.849
84458W        W52863  25.569  24.216  13.924
84459W        W52864  40.588  13.414   0.914
84460W        W52865  43.055  28.154   5.026
84461W        W52866   1.900  11.953  13.242
84462W        W52867   4.500  10.370   3.353
84463W        W52868  28.087  34.934   1.288
84464W        W52869  16.161  26.029  12.585
84465W        W52870  32.870  34.618   1.694
84466W        W52871  44.536   2.303  13.522
84467W        W52872   5.565  18.805  12.087
84468W        W52873  41.807   9.234   2.957
84469W        W52874  41.068  31.227  11.020
84470W        W52875  13.326  33.311  11.545
84471W        W52876  39.062  14.523  12.508
84472W        W52877   0.929  17.860   4.162
84473W        W52878   2.560  37.388   3.061
84474W        W52879  17.336  11.236   4.137
84475W        W52880  21.464   3.196  12.548
84476W        W52881  12.166  33.944   0.255
84477W        W52882   1.305   7.875   1.752
84478W        W52883   3.834   7.399  10.359
84479W        W52884  19.230  32.135   1.436
84480W        W52885  17.108  20.611   3.890
84481W        W52886  29.093   6.149  14.467
84482W        W52887  38.299  16.147  12.614
84483W        W52888   4.734  32.873  11.994
84484W        W52889  10.680  25.712   2.344
84485W        W52890   9.776   1.010   0.814
84486W        W52891  19.750  21.949   0.255
84487W        W52892  29.587  25.829  13.287
84488W        W52893   4.991   4.659   2.900
84489W        W52894  25.762  44.959  12.901
84490W        W52895  17.530  25.130   1.373
84491W        W52896  35.549  24.315   4.898
84492W        W52897   8.514  17.433   1.455
84493W        W52898  22.183  41.750  12.723
84494W        W52899   0.084  33.403  13.110
84495W        W52900   5.333  25.767   0.622
84496W        W52901  19.078  32.563  11.672
84497W        W52902  17.630   2.599  13.004
84498W        W52903  37.463  18.205   0.941
84499W        W52904   8.604  26.242  12.340
84500W        W52905  31.636  36.494  14.006
84501W        W52906  36.455  15.433   1.700
84502W        W52907  12.636  33.385  14.383
84503W        W52908  11.788  40.121   3.133
84504W        W52909   5.972   8.415   3.822
84505W        W52910  25.651  41.560  12.105
84506W        W52911  44.921   0.390  13.333
84507W        W52912  41.128  14.770  14.419
84508W        W52913   1.544  42.379  12.556
84509W        W52914  43.044  25.691  13.009
84510W        W52915   5.398  19.231   2.942
84511W        W52916  15.043  20.772   4.060
84512W        W52917   8.852  34.565  10.290
84513W        W52918  38.695   8.707   1.337
84514W        W52919  18.047  32.128  14.727
84515W        W52920  44.363   5.372   1.646
84516W        W52921   5.780  41.995  11.213
84517W        W52922  15.127  28.121   3.353
84518W        W52923  38.066  12.414   3.739
84519W        W52924   4.216  20.608  11.941
84520W        W52925  24.873  22.041   4.142
84521W        W52926  35.598  27.216   1.494
84522W        W52927  23.207   9.796   0.260
84523W        W52928  42.029   7.834   0.242
84524W        W52929  42.862  25.969   1.756
84525W        W52930  18.373  43.870   2.885
84526W        W52931  12.559  23.047  13.827
84527W        W52932  20.530  37.449   4.284
84528W        W52933  36.694  12.388   3.840
84529W        W52934  20.930  43.101  10.782
84530W        W52935  43.410   0.814   3.314
84531W        W52936  42.814  44.215  13.137
84532W        W52937  35.025   8.578   4.555
84533W        W52938  41.022  35.778   3.207
84534W        W52939  10.872  23.293   3.645
84535W        W52940  41.928  39.598  13.020
84536W        W52941  42.384  15.431  11.171
84537W        W52942   6.720  30.963  10.275
84538W        W52943  16.219  19.952  14.481
84539W        W52944   0.728   3.542   2.410
84540W        W52945  27.967  12.028  12.537
84541W        W52946  17.313   3.882  14.688
84542W        W52947   0.498  42.747  13.544
84543W        W52948  28.218   6.854   1.223
84544W        W52949  39.364  28.213   1.903
84545W        W52950  39.819  31.882  14.824
84546W        W52951   8.188   4.038  12.422
84547W        W52952  34.151  14.827   0.192
84548W        W52953  11.676   7.272  12.022
84549W        W52954   6.230  32.485   2.268
84550W        W52955  18.038  35.633   0.981
84551W        W52956  35.350  38.777  11.608
84552W        W52957  17.788  12.210  13.886
84553W        W52958   2.949  39.436   0.253
84554W        W52959  19.724  32.406  10.984
84555W        W52960  40.503   0.436   0.362
84556W        W52961  25.976  19.499   1.450
84557W        W52962  10.114  17.286  14.547
84558W        W52963  19.889  25.452   3.925
84559W        W52964  36.524  40.602  11.163
84560W        W52965  13.760   5.811   3.548
84561W        W52966  23.023   6.970   3.325
84562W        W52967  20.094  17.961  13.847
84563W        W52968  36.058  40.487  10.977
84564W        W52969  41.774  43.339  10.644
84565W        W52970  11.086  38.513  10.955
84566W        W52971  17.090  28.564   2.888
84567W        W52972  44.236   0.439   4.158
84568W        W52973  13.563  19.193  14.888
84569W        W52974   1.740  41.883  12.405
84570W        W52975  11.476  21.337  11.049
84571W        W52976  30.132   5.206  13.883
84572W        W52977  31.746  32.593   2.239
84573W        W52978  17.133  41.313   1.320
84574W        W52979   0.275   3.864   4.655
84575W        W52980  31.707  15.609   2.370
84576W        W52981   0.767  28.717   2.791
84577W        W52982  40.336   1.319  12.741
84578W        W52983   1.516  38.456   4.136
84579W        W52984  33.006  13.904  11.108
84580W        W52985  43.694  31.516   3.396
84581W        W52986  41.382  13.220  13.032
84582W        W52987  12.891  42.964   3.603
84583W        W52988   6.680   3.410  13.476
84584W        W52989  41.861  38.147   3.433
84585W        W52990  21.738  29.108   1.059
84586W        W52991  37.605  30.594   2.777
84587W        W52992  20.209   3.421  12.625
84588W        W52993  32.179  16.580  11.606
84589W        W52994  36.557  16.130  14.924
84590W        W52995   9.844   3.658  13.595
84591W        W52996  39.824  43.955   1.408
84592W        W52997   8.308  23.421  11.715
84593W        W52998  10.006  11.845  14.038
84594W        W52999  42.857  15.705   1.195
84595W        W53000  33.920  24.738   4.242
84596W        W53001   7.532  37.523  11.527
84597W        W53002  11.920   3.822   1.327
84598W        W53003   8.400  29.010  11.690
84599W        W53004  23.876   9.368   2.750
84600W        W53005  26.570  34.835   2.084
84601W        W53006  18.184  43.031  12.863
84602W        W53007  41.969  33.085   2.832
84603W        W53008  37.547  18.167  14.392
84604W        W53009  33.819  36.815   4.761
84605W        W53010  21.249   0.478   1.194
84606W        W53011  22.052   6.909   1.902
84607W        W53012  44.469  37.040   1.409
84608W        W53013  26.695  35.408   1.277
84609W        W53014  44.177  37.577  12.866
84610W        W53015  18.967  29.404  13.709
84611W        W53016  27.201  31.983  13.564
84612W        W53017   9.503  37.529   0.971
84613W        W53018   0.077  25.716   1.865
84614W        W53019   1.754  21.244  11.607
84615W        W53020  38.132  22.639  13.043
84616W        W53021   2.417  11.191  13.531
84617W        W53022  31.094  37.921   4.528
84618W        W53023  23.132  14.190  14.331
84619W        W53024  33.084  42.838   0.336
84620W        W53025   1.859  18.338   2.268
84621W        W53026  42.277  42.537  11.496
84622W        W53027  20.055  23.682   0.214
84623W        W53028  40.793  39.827   4.286
84624W        W53029  35.112  17.777   0.331
84625W        W53030   3.272  20.701   4.357
84626W        W53031  11.035  22.311   4.112
84627W        W53032  36.714  17.095  10.103
84628W        W53033  22.018  10.237  13.891
84629W        W53034  27.017  37.055   0.180
84630W        W53035  15.321   7.637   0.853
84631W        W53036   8.911  21.164  11.359
84632W        W53037  37.255  42.905   0.012
84633W        W53038  30.205   2.407   2.089
84634W        W53039  19.337  32.134  11.619
84635W        W53040  30.642   8.700  10.189
84636W        W53041  40.344   2.728  14.819
84637W        W53042   1.711  12.348   0.424
84638W        W53043  15.929  34.635  10.257
84639W        W53044   4.404  14.328  13.982
84640W        W53045   9.067  24.077  13.857
84641W        W53046  22.963   0.374  13.093
84642W        W53047  17.599  26.235  10.530
84643W        W53048  22.170  22.046  14.351
84644W        W53049   9.023  20.257  10.940
84645W        W53050   6.471  39.443   0.476
84646W        W53051   6.428  10.864  11.372
84647W        W53052  38.926  43.901   4.372
84648W        W53053  23.734  12.695  11.577
84649W        W53054  21.511  35.954  10.958
84650W        W53055  22.443  44.480  12.306
84651W        W53056   1.541  10.186  12.056
84652W        W53057  14.223  34.640   3.775
84653W        W53058  40.041  36.561  10.759
84654W        W53059  18.501  38.509  12.905
84655W        W53060  25.460  27.943   0.848
84656W        W53061   3.691  10.159   3.669
84657W        W53062   5.511  20.506  11.684
84658W        W53063   6.846   2.324  14.570
84659W        W53064   4.423   9.926  14.329
84660W        W53065  43.206  14.882   1.277
84661W        W53066   4.753  13.302  10.826
84662W        W53067   4.710  27.675  10.636
84663W        W53068   9.418  21.247   1.174
84664W        W53069  13.769   8.702  14.474
84665W        W53070  19.797  27.264   4.139
84666W        W53071   0.557   7.849  11.553
84667W        W53072  27.803   0.466  12.383
84668W        W53073   0.310  14.405  13.879
84669W        W53074  42.996  30.783  14.834
84670W        W53075  44.467  21.395   4.604
84671W        W53076   2.764  33.423   4.596
84672W        W53077   0.999  35.391   2.298
84673W        W53078   8.846  35.553  12.094
84674W        W53079  31.756  28.121  10.976
84675W        W53080  44.503  19.876  14.230
84676W        W53081  13.076  44.363   2.702
84677W        W53082  30.824  41.024   9.776
84678W        W53083  13.253  32.071   3.663
84679W        W53084  43.370   5.758   1.759
84680W        W53085  20.243   5.964  10.529
84681W        W53086  13.814  26.219  12.844
84682W        W53087   6.718  38.197  14.857
84683W        W53088  23.241  28.081   1.836
84684W        W53089  20.024   3.470  11.048
84685W        W53090  32.010  17.636   0.328
84686W        W53091   1.753   4.747   2.950
84687W        W53092   9.411  32.006   0.632
84688W        W53093  12.930  29.992   4.898
84689W        W53094  35.329  18.598   1.131
84690W        W53095   9.352  30.636  12.861
84691W        W53096   5.823   3.469   4.634
84692W        W53097  35.415  15.107   1.489
84693W        W53098  41.889   0.357  14.073
84694W        W53099   1.260  16.797  13.904
84695W        W53100  20.750  31.052  14.401
84696W        W53101  25.732  11.421  10.400
84697W        W53102  39.829   9.718   3.361
84698W        W53103  13.354  41.414   2.252
84699W        W53104  37.265  14.397   0.046
84700W        W53105  16.599  23.539   0.249
84701W        W53106  33.723  27.308   1.876
84702W        W53107  12.150  38.053  11.262
84703W        W53108  12.693  12.221  11.497
84704W        W53109  41.740  41.132  10.252
84705W        W53110  13.037  36.107  14.740
84706W        W53111   1.420  42.461  13.943
84707W        W53112  29.353  31.435   0.713
84708W        W53113  26.694  16.736  11.686
84709W        W53114   9.421  19.330  12.030
84710W        W53115  15.704   5.734  11.670
84711W        W53116  28.529  22.448   2.170
84712W        W53117  40.969  30.976   4.792
84713W        W53118  30.909  23.630  13.835
84714W        W53119  21.374  21.227   4.136
84715W        W53120  21.643  40.558  12.371
84716W        W53121  11.740  38.013   4.279
84717W        W53122   8.128  24.014  14.308
84718W        W53123  36.645  10.051   3.125
84719W        W53124  14.326  38.025   3.324
84720W        W53125  30.018  33.535   2.716
84721W        W53126  13.900  13.330  13.105
84722W        W53127  22.031  10.085   2.064
84723W        W53128  29.992  27.944   4.136
84724W        W53129  10.464  20.302   4.228
84725W        W53130  26.880   1.805   2.903
84726W        W53131   1.097  28.644  13.495
84727W        W53132  31.995  38.628  12.549
84728W        W53133   9.646   5.378   1.495
84729W        W53134   0.939   5.722   3.038
84730W        W53135   1.349   9.754   3.332
84731W        W53136   0.492   7.658   1.389
84732W        W53137   1.200   1.962  12.525
84733W        W53138   0.363  13.118  14.421
84734W        W53139  29.995  34.898  14.942
84735W        W53140  42.704  21.638  10.515
84736W        W53141  30.521  20.696   0.274
84737W        W53142  20.119  16.188  10.928
84738W        W53143  42.539  30.611   3.725
84739W        W53144  17.815  38.572  10.862
84740W        W53145   6.622  32.361  13.406
84741W        W53146  42.356  28.962  13.290
84742W        W53147  14.857  19.432   2.261
84743W        W53148  30.720  18.532  13.422
84744W        W53149  28.514  37.586   1.383
84745W        W53150  13.896  27.685   3.239
84746W        W53151  23.519  38.090   3.679
84747W        W53152  14.755  42.795   1.363
84748W        W53153  18.715  21.782   3.185
84749W        W53154  27.578  28.037   1.385
84750W        W53155  34.308  41.349  13.148
84751W        W53156  41.027  23.899  11.990
84752W        W53157  42.648  23.582  12.891
84753W        W53158  10.208   6.386   0.662
84754W        W53159   2.764  12.208  10.916
84755W        W53160   8.352  18.794   2.315
84756W        W53161   4.477  28.077   3.617
84757W        W53162  30.885  36.445   2.919
84758W        W53163  21.508  33.342  10.925
84759W        W53164   0.300  37.171   1.132
84760W        W53165   2.631  10.474  13.581
84761W        W53166  26.521  32.620   4.128
84762W        W53167  11.326  12.322  12.691
84763W        W53168  23.163  23.274  12.362
84764W        W53169   3.399  15.855   0.365
84765W        W53170  11.572  39.635   3.090
84766W        W53171  29.936   1.338  14.538
84767W        W53172  20.205  14.522   4.687
84768W        W53173  30.506  13.759   2.835
84769W        W53174   1.039  16.064   0.236
84770W        W53175  44.321  14.782   1.771
84771W        W53176  22.924  14.068  13.294
84772W        W53177  40.122  41.720  13.682
84773W        W53178   3.971  18.313  14.969
84774W        W53179   2.454  18.636   0.651
84775W        W53180   7.232  30.582  12.447
84776W        W53181  10.852   4.743  13.960
84777W        W53182  23.628   5.443   3.218
84778W        W53183  35.440   5.590   4.575
84779W        W53184  44.307  40.981  14.064
84780W        W53185  35.402  42.118   0.246
84781W        W53186   7.116  28.628  11.886
84782W        W53187  12.294  22.322   0.860
84783W        W53188  29.730  38.583   4.129
84784W        W53189  41.077  10.237   3.321
84785W        W53190   0.929  40.278  14.917
84786W        W53191  25.151  25.706   4.676
84787W        W53192  12.208  13.991   3.982
84788W        W53193  30.199  31.554  12.949
84789W        W53194  10.969   4.231   0.171
84790W        W53195   2.885  25.262  10.608
84791W        W53196   5.179  33.486  13.369
84792W        W53197   9.863  42.756  13.784
84793W        W53198  21.489  37.337   2.653
84794W        W53199  43.483   9.303   3.300
84795W        W53200   2.336  14.710  10.641
84796W        W53201  24.666  17.893  10.500
84797W        W53202  31.189  42.934  14.259
84798W        W53203  28.569  25.488   0.125
84799W        W53204  30.060  34.386  13.939
84800W        W53205  34.768   6.899  13.938
84801W        W53206  29.204  44.956  13.410
84802W        W53207  28.325   1.974   0.968
84803W        W53208  27.009  24.635   2.339
84804W        W53209  26.382  26.397   3.755
84805W        W53210   4.374  31.113  14.408
84806W        W53211  17.595  19.045  14.405
84807W        W53212  40.136  17.288   4.037
84808W        W53213   6.075  20.013  10.994
84809W        W53214  19.184  29.789   3.642
84810W        W53215   5.772  10.686   1.505
84811W        W53216   3.738   4.578  13.083
84812W        W53217  17.400  43.016   3.188
84813W        W53218   8.253  14.719  12.706
84814W        W53219  34.377  32.537  13.111
84815W        W53220  33.050  32.541  14.832
84816W        W53221  40.900   4.971   3.655
84817W        W53222  20.770  12.276   4.595
84818W        W53223  40.307   1.243  14.948
84819W        W53224   9.656  11.717   4.392
84820W        W53225  25.706  16.162  11.136
84821W        W53226   8.685  14.130  13.314
84822W        W53227  21.470  17.142  14.522
84823W        W53228  20.671  14.383   2.168
84824W        W53229   5.706  10.207   1.357
84825W        W53230  27.977  15.497   3.786
84826W        W53231   6.128  41.454   2.465
84827W        W53232   0.431  42.962  14.019
84828W        W53233  37.898   4.006   0.674
84829W        W53234   1.897  11.871  11.657
84830W        W53235   9.239  29.416  12.182
84831W        W53236  17.620   1.841  12.524
84832W        W53237  35.086  30.620  11.139
84833W        W53238   2.823   6.835   3.056
84834W        W53239  11.471  34.950  11.665
84835W        W53240   3.257  39.313   0.654
84836W        W53241  11.691  39.484  10.445
84837W        W53242  24.647  31.426   2.333
84838W        W53243  29.092  29.572   4.653
84839W        W53244  37.701   9.328   5.170
84840W        W53245  41.375  23.579   4.914
84841W        W53246   2.865  24.983  14.959
84842W        W53247   7.817  18.828  14.418
84843W        W53248  13.744  20.514  14.955
84844W        W53249   1.761  18.859  10.872
84845W        W53250   2.417  12.298   3.314
84846W        W53251  29.981  43.382  11.282
84847W        W53252   8.993  12.943  10.682
84848W        W53253  25.200  42.209   4.119
84849W        W53254   7.886  25.478   2.727
84850W        W53255  41.150   5.649   4.917
84851W        W53256  37.018  43.737   0.687
84852W        W53257  19.523  27.396  13.426
84853W        W53258  14.617   2.511   2.389
84854W        W53259  23.244  15.420   2.302
84855W        W53260  44.803   4.507   2.233
84856W        W53261  15.741  42.559   2.223
84857W        W53262  24.056  35.391   2.122
84858W        W53263  33.486  12.272   2.751
84859W        W53264   5.877  39.516  13.965
84860W        W53265   5.912  25.251   1.839
84861W        W53266  21.762  13.184  11.948
84862W        W53267   5.779  17.966  12.955
84863W        W53268  23.876  17.716   0.393
84864W        W53269  34.459   2.854  12.556
84865W        W53270  41.868  26.186  11.272
84866W        W53271  31.140  22.123  12.592
84867W        W53272   2.269  18.738  13.092
84868W        W53273  35.941  31.580  13.111
84869W        W53274  34.649  30.052  11.566
84870W        W53275  11.900  15.105   4.622
84871W        W53276   4.474  18.680  13.322
84872W        W53277  20.624   5.783  12.422
84873W        W53278  32.706   4.141  13.951
84874W        W53279  33.968   2.405   4.712
84875W        W53280   9.692  19.336  14.015
84876W        W53281  15.306   8.673   0.679
84877W        W53282  20.089  21.279  14.733
84878W        W53283  26.904   5.320  11.908
84879W        W53284  18.347  18.081   4.674
84880W        W53285  18.682  21.020  14.688
84881W        W53286   4.935  41.902  12.995
84882W        W53287  12.058  22.829  12.764
84883W        W53288  15.297  15.703  13.374
84884W        W53289   5.670  30.730  13.588
84885W        W53290  24.619   7.301   0.364
84886W        W53291   5.457  31.036   3.662
84887W        W53292   4.373   8.445  13.961
84888W        W53293  32.719  18.804  11.908
84889W        W53294  39.148  14.190   1.411
84890W        W53295  17.995  43.029   2.456
84891W        W53296  37.609  39.665   0.451
84892W        W53297   9.350  29.939   4.582
84893W        W53298  13.529  16.139   3.203
84894W        W53299  30.066  19.674   0.821
84895W        W53300   8.859   7.107  10.588
84896W        W53301  35.132  37.544  11.451
84897W        W53302  18.359  19.374  14.352
84898W        W53303   1.886   6.746   2.673
84899W        W53304   3.280  33.365  14.004
84900W        W53305  19.385  22.272  10.571
84901W        W53306  26.629  35.061  10.583
84902W        W53307  21.564  11.582  12.302
84903W        W53308   5.151  16.715  13.475
84904W        W53309  24.135  31.176   2.298
84905W        W53310  30.524  31.439  11.114
84906W        W53311  36.993  32.992   4.930
84907W        W53312  31.640   7.288   3.448
84908W        W53313  27.049  26.552  11.145
84909W        W53314  40.110   1.308  10.569
84910W        W53315  33.206  25.959   0.007
84911W        W53316  42.788  44.542  13.607
84912W        W53317   7.657  34.476  11.097
84913W        W53318   8.375  25.903   4.707
84914W        W53319  40.740  23.702  14.718
84915W        W53320  14.337   4.487  13.425
84916W        W53321   8.861  30.945  10.637
84917W        W53322  35.099  19.532  11.649
84918W        W53323  34.955  34.852   4.194
84919W        W53324  38.379  34.919  14.823
84920W        W53325  40.486  42.246   1.916
84921W        W53326   0.747  43.382  14.008
84922W        W53327  26.650  39.115   0.288
84923W        W53328   7.889  26.646   4.533
84924W        W53329  16.528  23.442  12.168
84925W        W53330   5.181  14.103  14.466
84926W        W53331  11.955  23.648   3.734
84927W        W53332  35.022  39.334  12.567
84928W        W53333  24.599  42.883   3.841
84929W        W53334  31.071  16.699   0.748
84930W        W53335  17.521  24.000  14.651
84931W        W53336  25.271   5.066   0.311
84932W        W53337  31.096  11.523  12.634
84933W        W53338  37.998  11.314  12.603
84934W        W53339  34.608   5.024   4.077
84935W        W53340  41.417  33.076  14.486
84936W        W53341  10.237  34.563   2.581
84937W        W53342  32.228  26.611  14.398
84938W        W53343  20.041  27.629   0.751
84939W        W53344  33.110  16.527   4.204
84940W        W53345   2.750  27.637   3.623
84941W        W53346  26.862   4.697   4.093
84942W        W53347  38.996  43.216  11.922
84943W        W53348  40.967  28.248  13.813
84944W        W53349  22.635  24.311   2.272
84945W        W53350  23.140  26.643   0.868
84946W        W53351  41.570   6.644  13.027
84947W        W53352   9.918   6.495  12.006
84948W        W53353   7.698   7.150  13.421
84949W        W53354  38.878  22.959  11.082
84950W        W53355  39.212  36.482  13.863
84951W        W53356   4.411  18.167  11.874
84952W        W53357   6.355  16.168   9.843
84953W        W53358  41.479  19.161   0.926
84954W        W53359   1.400  36.489  10.441
84955W        W53360  10.100  37.601  12.647
84956W        W53361   9.167   2.740   4.186
84957W        W53362  33.181  28.564  10.067
84958W        W53363  11.100  32.558  11.946
84959W        W53364  20.029  43.881   0.344
84960W        W53365  29.667  10.240   2.237
84961W        W53366  18.246  42.755   0.951
84962W        W53367  36.462  17.142   1.162
84963W        W53368  40.029   0.586   2.850
84964W        W53369  15.707  41.349   1.007
84965W        W53370  31.970   9.237  14.392
84966W        W53371  25.070  37.465  11.477
84967W        W53372  30.669  40.126   9.783
84968W        W53373  33.609  16.249   4.184
84969W        W53374   1.153  22.635   1.748
84970W        W53375  21.998   9.849   2.801
84971W        W53376  14.303   0.433   1.760
84972W        W53377  25.696   9.743   3.844
84973W        W53378  42.488  38.454  12.139
84974W        W53379   0.865  15.280  11.839
84975W        W53380  44.783   7.289   1.478
84976W        W53381   9.890   1.898   2.940
84977W        W53382  31.471  37.482  13.997
84978W        W53383   0.990  14.745   1.026
84979W        W53384  14.044  17.330   4.507
84980W        W53385  32.280  24.285   2.846
84981W        W53386  36.202  15.993   2.860
84982W        W53387  39.563  37.455  12.932
84983W        W53388  10.914  30.437   3.362
84984W        W53389  44.847  18.977  14.485
84985W        W53390  12.813  34.578   1.251
84986W        W53391   3.688  43.251  12.497
84987W        W53392  41.887   4.483  14.339
84988W        W53393   3.732  42.224  11.745
84989W        W53394   3.386  19.059   3.233
84990W        W53395  15.748   0.026   0.358
84991W        W53396  40.362  23.632  11.726
84992W        W53397  35.779  36.764  13.859
84993W        W53398  14.139  40.087  13.449
84994W        W53399   3.412  31.954  11.843
84995W        W53400  33.366  24.325  12.857
84996W        W53401   1.906  20.627   4.404
84997W        W53402  25.266  15.010   0.937
84998W        W53403  38.551  25.037  13.951
84999W        W53404  33.475  19.854   4.288
85000W        W53405  30.985  44.249   0.668
85001W        W53406  41.311  16.819   2.875
85002W        W53407  20.226  23.767  14.732
85003W        W53408  41.009  11.850   0.997
85004W        W53409  23.527   1.356   4.565
85005W        W53410  14.247  27.925  13.424
85006W        W53411  20.556  39.252  11.627
85007W        W53412   7.195  31.366   4.568
85008W        W53413  39.085  14.638   3.133
85009W        W53414  15.117  42.059  12.225
85010W        W53415   0.785  28.001  14.468
85011W        W53416  33.986   7.212  14.902
85012W        W53417   6.322  23.882   3.870
85013W        W53418  25.344  44.733  13.875
85014W        W53419  38.223  42.963  11.268
85015W        W53420  20.644   1.742  12.880
85016W        W53421   2.948  36.487   4.999
85017W        W53422  14.508  14.652  14.360
85018W        W53423  37.373  16.023   3.190
85019W        W53424  40.823   8.835   0.580
85020W        W53425  29.405   7.160   3.639
85021W        W53426   2.383   9.599  13.922
85022W        W53427  17.714  38.627   1.343
85023W        W53428  27.044  37.751  13.412
85024W        W53429  19.143  34.434   1.679
85025W        W53430  10.721  34.447  11.206
85026W        W53431  43.760  42.157   3.390
85027W        W53432  36.777  31.296   2.882
85028W        W53433  24.563  25.203  14.133
85029W        W53434   1.992  15.389  11.546
85030W        W53435   4.747   0.017  12.396
85031W        W53436  29.343  26.654  13.542
85032W        W53437  17.061  33.603  11.880
85033W        W53438   8.596  30.188  12.148
85034W        W53439  18.804  39.754   0.138
85035W        W53440  22.916  41.999   1.346
85036W        W53441  19.789  23.185   3.122
85037W        W53442  12.959  18.485  13.441
85038W        W53443  27.735  19.716   0.867
85039W        W53444   0.003   4.701   4.246
85040W        W53445  14.766  25.114   4.897
85041W        W53446  15.176  10.818   0.476
85042W        W53447  23.564   8.455   4.255
85043W        W53448  28.206  16.516   3.088
85044W        W53449  13.251  28.262   2.116
85045W        W53450  44.286  30.657   1.020
85046W        W53451  32.616  19.763  14.917
85047W        W53452  11.661   5.186   2.653
85048W        W53453  42.244   0.832   0.370
85049W        W53454  23.717   2.363  11.392
85050W        W53455   7.179  27.175   4.188
85051W        W53456  25.769  14.364   3.109
85052W        W53457   2.475  26.926   1.304
85053W        W53458  39.854  44.686   1.743
85054W        W53459   0.375   7.245   2.578
85055W        W53460  17.433  17.233  12.968
85056W        W53461   2.351  28.684  11.964
85057W        W53462   6.734  27.634  12.977
85058W        W53463  34.933  11.221   4.370
85059W        W53464   6.472  29.231  11.875
85060W        W53465  21.528  22.123   4.546
85061W        W53466  37.424  25.216   4.114
85062W        W53467  11.170  37.282  14.375
85063W        W53468  24.773  14.205  12.952
85064W        W53469  33.365   7.163  12.906
85065W        W53470  25.177  10.104  13.463
85066W        W53471  31.985  43.458  11.994
85067W        W53472  36.350  14.116  12.410
85068W        W53473  21.750   2.871   1.552
85069W        W53474  34.589  34.391  11.917
85070W        W53475  33.091  15.112  12.562
85071W        W53476  10.543   4.902   1.291
85072W        W53477   6.767  44.772   0.966
85073W        W53478  42.323   1.423  12.883
85074W        W53479  22.169  18.676  11.725
85075W        W53480  15.103  27.009   2.265
85076W        W53481  28.917   9.112   3.204
85077W        W53482  25.146  31.665   2.253
85078W        W53483  32.243   0.420  12.715
85079W        W53484  39.498  36.956   3.113
85080W        W53485   4.791   7.856   2.468
85081W        W53486  26.752  31.900   5.184
85082W        W53487   9.425  31.442   2.243
85083W        W53488  25.978  33.577   0.742
85084W        W53489  33.870  37.589   0.769
85085W        W53490  20.649  14.907   1.246
85086W        W53491  13.258   9.986  10.707
85087W        W53492  29.806  35.304   1.318
85088W        W53493  12.743  24.623  14.998
85089W        W53494  16.286  21.767  13.832
85090W        W53495  31.521  42.438  11.797
85091W        W53496  42.812   4.637  12.950
85092W        W53497   6.838  25.663  13.685
85093W        W53498   2.910   2.010  14.755
85094W        W53499  17.101  23.984   1.651
85095W        W53500  18.094  14.308   3.173
85096W        W53501   4.222  26.742  14.409
85097W        W53502  12.296   3.004  12.389
85098W        W53503   7.651  14.096  14.184
85099W        W53504  21.754   3.878  13.084
85100W        W53505  11.630  15.358   2.389
85101W        W53506  34.973   0.491   2.848
85102W        W53507   8.041   1.881   2.472
85103W        W53508  35.098  32.185   3.804
85104W        W53509  37.621  13.811   2.842
85105W        W53510   4.953  19.670   2.188
85106W        W53511  42.767  31.161  14.299
85107W        W53512   1.243  27.359  11.499
85108W        W53513  20.520  11.306  13.392
85109W        W53514  13.141  35.624   3.794
85110W        W53515  18.185  33.852   0.084
85111W        W53516  36.055   4.263   0.952
85112W        W53517  42.283  26.424  11.077
85113W        W53518  36.313  18.742   3.332
85114W        W53519  25.727  12.601   3.725
85115W        W53520  44.421  27.684   3.253
85116W        W53521   4.113  22.702   3.040
85117W        W53522  18.759  12.468  14.767
85118W        W53523  14.103  19.014  14.499
85119W        W53524   8.101  14.447   1.277
85120W        W53525  31.488  27.227  11.775
85121W        W53526  12.437  31.492   2.181
85122W        W53527  39.750   2.539   4.539
85123W        W53528  22.009  11.604  14.432
85124W        W53529  15.711  25.060   1.360
85125W        W53530  41.658  11.286   0.964
85126W        W53531  25.611  13.132   4.877
85127W        W53532   7.806  15.831   1.670
85128W        W53533   9.400  32.133  10.732
85129W        W53534  13.640  27.772  11.716
85130W        W53535  43.730  24.902  14.540
85131W        W53536  24.034  28.884   2.685
85132W        W53537  23.440  30.137   2.147
85133W        W53538  36.907  30.613  13.417
85134W        W53539   0.401  42.932   4.552
85135W        W53540  30.666  19.557   1.460
85136W        W53541  17.704  44.456  11.420
85137W        W53542   0.217   4.194   0.851
85138W        W53543  12.599  22.638  14.529
85139W        W53544  18.085   9.826   2.904
85140W        W53545  13.766   6.907  11.647
85141W        W53546  25.487  37.449  12.253
85142W        W53547  32.077   8.690  13.395
85143W        W53548  25.293  38.513  14.231
85144W        W53549  17.272  18.684   0.513
85145W        W53550   0.674  11.153   4.282
85146W        W53551  31.009  42.304  10.222
85147W        W53552  36.825  26.995   0.987
85148W        W53553  40.372  44.381  10.510
85149W        W53554  11.111  42.568   2.965
85150W        W53555  20.524  12.489  12.976
85151W        W53556  41.386  23.250  12.501
85152W        W53557  22.722  29.738  14.466
85153W        W53558  37.990  33.782  13.474
85154W        W53559  28.214  23.140   2.571
85155W        W53560  41.927  22.991   0.313
85156W        W53561  18.421  39.786  11.926
85157W        W53562  17.241  44.014  10.990
85158W        W53563   2.710  41.817   2.335
85159W        W53564  28.701  19.543   4.135
85160W        W53565  14.907   7.421   4.178
85161W        W53566   9.690  12.120  12.069
85162W        W53567  28.122  39.368  11.623
85163W        W53568  14.608   0.927  11.218
85164W        W53569   9.586  41.212  14.952
85165W        W53570   5.247  44.396   1.440
85166W        W53571  41.929  21.320  14.466
85167W        W53572   5.812   8.152  11.081
85168W        W53573  20.343   6.324  14.346
85169W        W53574   7.031  31.436  10.376
85170W        W53575  30.604  40.088  14.027
85171W        W53576  21.100  41.496   1.453
85172W        W53577  27.228  14.874   2.369
85173W        W53578  12.286  38.877   1.908
85174W        W53579  27.137  38.520  10.624
85175W        W53580  38.743   4.783   2.751
85176W        W53581   8.838  22.557   0.809
85177W        W53582  44.049   6.396  11.518
85178W        W53583  35.475  40.313  13.276
85179W        W53584  11.430   0.047   1.749
85180W        W53585  42.132  23.586  13.006
85181W        W53586  38.858  29.833   4.028
85182W        W53587  15.961  41.161  14.523
85183W        W53588  35.898  28.377   0.917
85184W        W53589   9.838  26.053   2.870
85185W        W53590  40.255  22.567   2.953
85186W        W53591  29.147  42.687   1.691
85187W        W53592   2.348  25.678  14.377
85188W        W53593  41.809  24.807   5.035
85189W        W53594  21.497  33.097  13.049
85190W        W53595  42.608  37.429  10.774
85191W        W53596  10.749  26.447  10.844
85192W        W53597  30.959  10.387  13.873
85193W        W53598  27.920  30.824  10.360
85194W        W53599   6.802  29.125   4.040
85195W        W53600  44.462  38.425  13.433
85196W        W53601  21.724  37.547  13.526
85197W        W53602   7.863  12.844   4.444
85198W        W53603   3.198  25.901   0.822
85199W        W53604  10.070   3.261  14.544
85200W        W53605  43.977  42.631  10.702
85201W        W53606  16.789  22.566   0.962
85202W        W53607   0.466  17.846  12.822
85203W        W53608  29.570  38.115  14.287
85204W        W53609  38.290  27.534  10.710
85205W        W53610  28.059  36.067   1.812
85206W        W53611  12.684  36.569  11.172
85207W        W53612   7.429  31.482  12.319
85208W        W53613  11.196  15.767  14.936
85209W        W53614  34.959  41.095  13.463
85210W        W53615  10.887   3.845   3.136
85211W        W53616  19.525  33.897  14.892
85212W        W53617  33.572  25.579   0.871
85213W        W53618  44.334   6.341  13.605
85214W        W53619   8.804   4.475  14.217
85215W        W53620  33.619  15.081   1.339
85216W        W53621  24.896  30.002  11.654
85217W        W53622   8.409  12.595  11.719
85218W        W53623  43.313  11.078   2.124
85219W        W53624  35.301  23.710  13.815
85220W        W53625   9.614  26.599   1.747
85221W        W53626  22.486   7.413   3.536
85222W        W53627  33.816  30.838   4.383
85223W        W53628  44.051  19.090  11.052
85224W        W53629   5.537   0.788  10.836
85225W        W53630  44.593  20.022   1.938
85226W        W53631  10.190  43.947   1.374
85227W        W53632  24.942  29.067  11.700
85228W        W53633  36.267  33.536  11.502
85229W        W53634  39.987  37.809   4.355
85230W        W53635  38.595  37.825   3.016
85231W        W53636   2.974  13.246  14.784
85232W        W53637  39.641   4.810   2.954
85233W        W53638  42.093  23.159   2.814
85234W        W53639  44.773  38.091   3.514
85235W        W53640  18.733  28.222   4.494
85236W        W53641  23.084  33.812   3.314
85237W        W53642  36.910  43.061   0.408
85238W        W53643  42.586  27.948  11.067
85239W        W53644  43.999  33.340   1.381
85240W        W53645   2.876  33.200   3.292
85241W        W53646   8.614  31.042  11.061
85242W        W53647  31.965  36.809  12.078
85243W        W53648  27.892  42.850   3.656
85244W        W53649  37.113  18.638   3.770
85245W        W53650  35.830  16.201  12.872
85246W        W53651   3.723   9.710  14.832
85247W        W53652  14.917  27.118  11.169
85248W        W53653  39.955  44.921   4.249
85249W        W53654  11.732  38.323   3.824
85250W        W53655  39.849  38.678  11.913
85251W        W53656  26.502  12.732   0.188
85252W        W53657  42.908  39.422   1.738
85253W        W53658  30.898  15.320  14.368
85254W        W53659  42.329  12.855  11.500
85255W        W53660  31.520  29.596  12.563
85256W        W53661   2.049  14.226  10.580
85257W        W53662  32.977  17.729   3.821
85258W        W53663  31.586   4.424  10.829
85259W        W53664  30.997  29.872   0.534
85260W        W53665   7.634  37.889   3.267
85261W        W53666  11.350   8.342   3.318
85262W        W53667  27.263  34.107   3.755
85263W        W53668  38.292  26.562  10.646
85264W        W53669  30.979   6.264  13.423
85265W        W53670  29.903  43.991   4.190
85266W        W53671   9.636  24.014  14.698
85267W        W53672  26.163  14.804  13.923
85268W        W53673   3.451  27.909   1.186
85269W        W53674  23.968  38.577  12.974
85270W        W53675  20.740   0.779   3.843
85271W        W53676  19.154  22.624  14.801
85272W        W53677  10.200  44.789   1.992
85273W        W53678   3.884  34.516  11.002
85274W        W53679  42.083  15.661   1.170
85275W        W53680   9.750   1.386  14.909
85276W        W53681   2.785  16.224   0.764
85277W        W53682  34.165  15.863  13.372
85278W        W53683  36.332  16.565   1.858
85279W        W53684  40.014  17.023   3.603
85280W        W53685   4.444  13.424   2.262
85281W        W53686  27.567  21.813  14.353
85282W        W53687  44.963  30.727  12.039
85283W        W53688  40.481  19.684   1.841
85284W        W53689  39.545  20.137  12.537
85285W        W53690  26.240  10.126  10.492
85286W        W53691  39.326  25.253  11.209
85287W        W53692  19.550  11.162  12.412
85288W        W53693   1.709   3.713   5.023
85289W        W53694  30.597  29.079   3.309
85290W        W53695   4.758   5.661  14.863
85291W        W53696   3.429  36.382  14.312
85292W        W53697  24.144  31.177  13.208
85293W        W53698   0.763  42.729   1.766
85294W        W53699   8.986  18.062   5.673
85295W        W53700  12.011  31.928   3.024
85296W        W53701  13.189  15.341   0.517
85297W        W53702  30.935  37.375  13.896
85298W        W53703  27.138  18.119   3.206
85299W        W53704   0.890  23.713  14.726
85300W        W53705  40.939   4.854   5.041
85301W        W53706  12.622  26.971   0.435
85302W        W53707  15.055   7.461  14.939
85303W        W53708   4.934  32.085   1.292
85304W        W53709   3.673  22.355   3.094
85305W        W53710   3.036  20.804   1.891
85306W        W53711   0.446  32.628   0.742
85307W        W53712  14.712  41.896   3.144
85308W        W53713  18.678  20.706   3.202
85309W        W53714   1.347  35.341  13.504
85310W        W53715  10.486   6.991  10.267
85311W        W53716  33.343  38.571   2.093
85312W        W53717  14.833  13.860  11.108
85313W        W53718  18.159  17.407   4.064
85314W        W53719  37.428  24.560  14.342
85315W        W53720   2.809  25.061   4.238
85316W        W53721   5.598   4.467  11.914
85317W        W53722  39.024  26.273   1.336
85318W        W53723  32.925   3.697  13.053
85319W        W53724  37.631  11.686   0.366
85320W        W53725  22.011  24.719  11.021
85321W        W53726  23.472   1.933  10.709
85322W        W53727   4.200  29.616   2.879
85323W        W53728  22.570   7.902   1.980
85324W        W53729  10.858  36.263   2.735
85325W        W53730  30.442  20.166  12.522
85326W        W53731  29.981  42.064  13.357
85327W        W53732  41.414   0.429   0.411
85328W        W53733  12.829  22.807   2.318
85329W        W53734  40.799  18.669   3.677
85330W        W53735  17.462   7.119   1.225
85331W        W53736   1.309  27.641   2.353
85332W        W53737  17.130   2.511   1.038
85333W        W53738  19.627  32.640  10.522
85334W        W53739  35.131  12.186  12.498
85335W        W53740  26.904  17.928  10.671
85336W        W53741  28.151  17.655   3.339
85337W        W53742   5.626  33.692  14.482
85338W        W53743   8.139   9.646   3.217
85339W        W53744  16.322  40.888  14.801
85340W        W53745  30.163  19.498  10.609
85341W        W53746  40.321  32.851   2.688
85342W        W53747   2.518  41.348   1.405
85343W        W53748   4.646  43.241  12.358
85344W        W53749  38.242   2.253  10.289
85345W        W53750  19.544  22.004   4.153
85346W        W53751  40.337  22.860  14.964
85347W        W53752   2.648  25.242  11.062
85348W        W53753  21.785  20.089  11.642
85349W        W53754  41.883  30.407   1.395
85350W        W53755  33.954  17.239  14.277
85351W        W53756  25.528  38.885   3.797
85352W        W53757  36.937   8.176   0.200
85353W        W53758   9.092  23.020  11.243
85354W        W53759  44.796  42.659   1.301
85355W        W53760   7.615  30.336   2.856
85356W        W53761  31.311  39.432   3.081
85357W        W53762  21.274  30.497  10.704
85358W        W53763  40.906   7.837   4.602
85359W        W53764  27.170  11.714   4.193
85360W        W53765  28.189  31.863  14.063
85361W        W53766  30.079  12.523  14.679
85362W        W53767  44.990   0.986  10.684
85363W        W53768  12.008  36.529   3.936
85364W        W53769  11.643  30.210   1.852
85365W        W53770  31.741  28.453   1.807
85366W        W53771  33.161  25.764   2.068
85367W        W53772  22.435  44.560   3.384
85368W        W53773  23.233   8.486  11.642
85369W        W53774  33.985  29.105  13.437
85370W        W53775  18.015  27.198   0.373
85371W        W53776  14.723  36.895  10.480
85372W        W53777  37.604  22.978  11.417
85373W        W53778  24.191  25.929  14.018
85374W        W53779  41.467   3.922  14.197
85375W        W53780  26.164  20.037   2.152
85376W        W53781  18.869  37.274   3.787
85377W        W53782  32.159  23.918  14.155
85378W        W53783  15.128   8.341   1.332
85379W        W53784  12.837  23.007  11.667
85380W        W53785  34.334  13.385  13.735
85381W        W53786  33.512  21.236   1.858
85382W        W53787  17.866  22.236  10.687
85383W        W53788  39.397   1.513  12.082
85384W        W53789  26.168  33.471   1.677
85385W        W53790  34.939  43.678   0.165
85386W        W53791  41.561   4.921   4.322
85387W        W53792  16.180   1.407   2.547
85388W        W53793  30.971  40.214   1.768
85389W        W53794  23.463  43.101   0.905
85390W        W53795  18.851  43.429   4.579
85391W        W53796  19.574  16.051   0.851
85392W        W53797  33.888  40.482  11.134
85393W        W53798  37.628  14.829   1.640
85394W        W53799  43.060  26.892   1.827
85395W        W53800   2.820  20.602   0.477
85396W        W53801  31.485  29.614   3.766
85397W        W53802  32.292  21.437  11.049
85398W        W53803  30.882  35.948   3.724
85399W        W53804   2.891   8.019   4.187
85400W        W53805   8.683  40.871  11.573
85401W        W53806  17.734   5.024  13.558
85402W        W53807   2.233  43.421   3.235
85403W        W53808   1.953   7.380   0.160
85404W        W53809  12.902  17.871   4.035
85405W        W53810  28.529  13.371  14.389
85406W        W53811  23.832  13.789  12.297
85407W        W53812  42.401   6.325   1.201
85408W        W53813  26.445  43.428   2.730
85409W        W53814  43.871  42.121   4.675
85410W        W53815   0.469  18.893   2.286
85411W        W53816  21.628  17.781  14.052
85412W        W53817  26.620   1.323  12.649
85413W        W53818  21.706  19.003  14.818
85414W        W53819  23.202  21.510  13.561
85415W        W53820  16.399  35.564   3.283
85416W        W53821  44.504  29.440  11.615
85417W        W53822  31.716  20.995  13.048
85418W        W53823  17.205  23.300  14.338
85419W        W53824   9.307  25.453   4.688
85420W        W53825   0.484  24.902  11.991
85421W        W53826  33.885   1.443   0.543
85422W        W53827  18.763  42.351   0.839
85423W        W53828  35.219   5.832  10.330
85424W        W53829   7.219   8.627  14.917
85425W        W53830  44.529  12.797  12.507
85426W        W53831  36.301  42.883   1.417
85427W        W53832   3.251   7.314   1.773
85428W        W53833  40.927  41.333  11.565
85429W        W53834  27.740  37.053   1.329
85430W        W53835  10.163  14.376   1.218
85431W        W53836  29.271  41.267  12.339
85432W        W53837  29.018  12.218  13.447
85433W        W53838  23.784  10.794  13.091
85434W        W53839  31.889   5.477   3.672
85435W        W53840   8.968   7.931   1.860
85436W        W53841   5.839  44.979   1.225
85437W        W53842  21.658  41.118   3.841
85438W        W53843  20.070  22.025  13.509
85439W        W53844   0.083  25.043  11.230
85440W        W53845  23.747  27.239  14.392
85441W        W53846   6.741  32.695   4.508
85442W        W53847  30.902   4.974  13.258
85443W        W53848  38.860  20.028   2.335
85444W        W53849  17.922   7.162   1.431
85445W        W53850  24.649  44.779   4.679
85446W        W53851  21.205  34.697  13.906
85447W        W53852  18.036  24.647   1.933
85448W        W53853  22.014  24.115   4.480
85449W        W53854  43.449   7.810  14.384
85450W        W53855  16.523   0.730   3.746
85451W        W53856   2.646  15.350  12.127
85452W        W53857  24.286  39.929  12.894
85453W        W53858  34.552  34.480   3.201
85454W        W53859  21.530  12.759  12.152
85455W        W53860  43.565  44.995   0.898
85456W        W53861  13.608  23.051  13.813
85457W        W53862   0.853  26.683  14.419
85458W        W53863  22.207  13.043  13.503
85459W        W53864   6.876   8.180   4.641
85460W        W53865   9.937  37.012  10.530
85461W        W53866  20.103   6.460  10.688
85462W        W53867  27.556  10.357   0.417
85463W        W53868   7.482  30.416  13.806
85464W        W53869  43.761   7.820  10.706
85465W        W53870  30.595  20.734   4.209
85466W        W53871   6.325  39.950   4.370
85467W        W53872  34.914  22.154  11.441
85468W        W53873   8.927  20.541  12.494
85469W        W53874  38.362  25.137   1.438
85470W        W53875  29.283  20.854   0.811
85471W        W53876   9.410  13.895  12.069
85472W        W53877  43.953  35.587   3.000
85473W        W53878   6.978  33.677  12.842
85474W        W53879  19.306  24.311  12.508
85475W        W53880  15.800  14.583  13.894
85476W        W53881   0.468  43.929  13.953
85477W        W53882  19.967   3.375   2.107
85478W        W53883  19.562  33.102  13.829
85479W        W53884  41.348  38.786  13.341
85480W        W53885  18.255  41.420   4.527
85481W        W53886  12.428  37.540  14.380
85482W        W53887  10.160  40.231   3.200
85483W        W53888   8.455  15.250   2.648
85484W        W53889  28.190   8.512  12.865
85485W        W53890   0.484  40.016  14.943
85486W        W53891  24.986  39.099   0.557
85487W        W53892  36.271  16.193  11.191
85488W        W53893  13.310  43.042   1.814
85489W        W53894  14.719  12.068  14.928
85490W        W53895   4.983  38.863   4.606
85491W        W53896  38.882   1.215   3.331
85492W        W53897  18.435  11.765   1.320
85493W        W53898  35.396   5.205   0.305
85494W        W53899  44.461  33.570  14.782
85495W        W53900  22.669  15.039   1.413
85496W        W53901  10.679   1.428   2.656
85497W        W53902  26.932   7.126  12.421
85498W        W53903  41.443   5.182  10.263
85499W        W53904  39.124   9.777  13.162
85500W        W53905  26.243   9.706  11.702
85501W        W53906  20.765  26.431   2.115
85502W        W53907  25.884  16.091   0.769
85503W        W53908  34.897  42.493   3.320
85504W        W53909  38.632   5.503   3.001
85505W        W53910   6.965  34.573  11.575
85506W        W53911  14.228  43.940  13.604
85507W        W53912  43.293  30.007   2.231
85508W        W53913  33.950   5.775   1.595
85509W        W53914  29.976  16.469   2.209
85510W        W53915  15.701  43.935   1.456
85511W        W53916  24.574  44.408   0.813
85512W        W53917  20.472   1.996   0.516
85513W        W53918  31.425   6.917  11.782
85514W        W53919  32.357   6.083  13.848
85515W        W53920  22.724   0.345   4.018
85516W        W53921  22.018  37.090  11.582
85517W        W53922  23.830  41.846  11.932
85518W        W53923  17.753  18.318  13.905
85519W        W53924  25.407   9.150   0.393
85520W        W53925  30.222  42.834   0.413
85521W        W53926  27.472   3.764   3.614
85522W        W53927  43.727  16.095  11.499
85523W        W53928  26.261  39.352   3.705
85524W        W53929  22.600   8.802  12.389
85525W        W53930   8.948  10.700  14.484
85526W        W53931  19.917  31.940  13.399
85527W        W53932  43.946  43.770  12.496
85528W        W53933  41.014  17.992   1.807
85529W        W53934  14.882  23.399  14.875
85530W        W53935  25.982  31.661  14.212
85531W        W53936  41.847  13.854  12.431
85532W        W53937  26.260  26.699  13.327
85533W        W53938  14.633  43.024   4.091
85534W        W53939  33.429  42.782   0.810
85535W        W53940  31.102  13.857   1.346
85536W        W53941  42.962  37.443  14.082
85537W        W53942  13.745  32.573   5.062
85538W        W53943  30.907  28.070   0.446
85539W        W53944   8.661  37.932  13.858
85540W        W53945  23.882  28.373   9.734
85541W        W53946  30.974  15.975   4.681
85542W        W53947  39.507   1.733  11.635
85543W        W53948  29.403  31.486  13.415
85544W        W53949  28.690  30.973  14.425
85545W        W53950   7.693  35.561  12.860
85546W        W53951  44.827  17.757   0.894
85547W        W53952  38.456  17.916  14.602
85548W        W53953  18.060  30.315  12.472
85549W        W53954  26.705   4.647  12.160
85550W        W53955  13.854  20.599  13.072
85551W        W53956   5.496   3.498  11.120
85552W        W53957  41.483  38.990   1.501
85553W        W53958   9.965   3.470  14.059
85554W        W53959  28.521  26.090   4.486
85555W        W53960  34.238  40.963   4.962
85556W        W53961  17.652  19.219   1.105
85557W        W53962  11.538  34.465   2.324
85558W        W53963  35.794  33.037   0.088
85559W        W53964  15.397  32.137   0.554
85560W        W53965  19.403  29.113   0.806
85561W        W53966  32.631  18.612   1.353
85562W        W53967   3.367  11.608  13.547
85563W        W53968  37.361   3.830  10.997
85564W        W53969  20.305  12.692   0.232
85565W        W53970  29.917  43.353   1.615
85566W        W53971  32.876  12.626  12.439
85567W        W53972  13.145  26.924  11.137
85568W        W53973  42.932   3.909   4.977
85569W        W53974  28.273   4.767  14.833
85570W        W53975  33.402   2.216   0.056
85571W        W53976  29.527  15.148  13.333
85572W        W53977  36.335  22.176   1.921
85573W        W53978   2.429  16.792   3.721
85574W        W53979  28.494   0.791   2.819
85575W        W53980  27.487   1.412  12.099
85576W        W53981  14.937  27.232   4.182
85577W        W53982  24.889  37.845   0.072
85578W        W53983  22.986  20.713  14.767
85579W        W53984  32.065  36.403   4.533
85580W        W53985  35.006   9.913  11.143
85581W        W53986   0.767  29.956   4.574
85582W        W53987  27.622  25.495  12.437
85583W        W53988  25.515  15.312  12.136
85584W        W53989  37.550  40.050   1.910
85585W        W53990   2.989  15.042  12.320
85586W        W53991   8.604  18.862  11.166
85587W        W53992  19.292   4.481  11.556
85588W        W53993  39.446  24.222   3.323
85589W        W53994  10.770  27.018   4.090
85590W        W53995   7.169  14.090  11.604
85591W        W53996  33.080  25.091   0.248
85592W        W53997   3.945   8.334   2.292
85593W        W53998  19.743  17.074   3.780
85594W        W53999   6.502  28.627  14.491
85595W        W54000  25.516  39.461   4.149
85596W        W54001  24.478  41.013   2.707
85597W        W54002   2.895  26.531  11.718
85598W        W54003  34.078   1.001  14.785
85599W        W54004  35.023  38.240  14.961
85600W        W54005  42.751  19.146  12.425
85601W        W54006  38.767   3.098  12.990
85602W        W54007   4.010  38.891   4.864
85603W        W54008  40.023  32.982  14.742
85604W        W54009  32.482  16.321  14.783
85605W        W54010  22.122  23.931   0.375
85606W        W54011   8.195  43.085  11.189
85607W        W54012   9.656  43.397   2.335
85608W        W54013  24.570   4.946  13.903
85609W        W54014   5.437   0.414  14.996
85610W        W54015  11.088   0.934  11.881
85611W        W54016  15.210   2.499   5.028
85612W        W54017   9.140  21.473  13.046
85613W        W54018  25.495  39.144   2.306
85614W        W54019  23.555  12.118  13.827
85615W        W54020  34.431  21.676  12.961
85616W        W54021  33.970  35.622   0.264
85617W        W54022  27.009   9.211   0.401
85618W        W54023  25.943   3.758   4.770
85619W        W54024  42.899   9.136  14.073
85620W        W54025  14.486  36.145   3.357
85621W        W54026   8.357  36.773   0.799
85622W        W54027  34.157  44.506  14.799
85623W        W54028  34.141  34.935  14.915
85624W        W54029  12.380  44.485   0.302
85625W        W54030   1.767  16.387  11.752
85626W        W54031   6.570   2.332   3.311
85627W        W54032  26.094  15.805  13.764
85628W        W54033  37.448  18.779  13.743
85629W        W54034  21.829  24.981   2.378
85630W        W54035  40.080  42.487   0.723
85631W        W54036  35.943  33.506   4.304
85632W        W54037  29.260  20.820  11.215
85633W        W54038   6.635  17.646  11.179
85634W        W54039  40.427  38.101  11.663
85635W        W54040   6.323  29.107   0.355
85636W        W54041  36.403  38.550  14.946
85637W        W54042  14.911  41.246   4.491
85638W        W54043  18.209   1.429   2.102
85639W        W54044  17.263  36.059   2.214
85640W        W54045  18.389  22.234  10.677
85641W        W54046  27.046  24.737   1.408
85642W        W54047  20.279   5.608  12.009
85643W        W54048  43.225  33.038   0.052
85644W        W54049  42.837   4.321   0.443
85645W        W54050  32.843  42.855   3.819
85646W        W54051  12.276  41.278   0.800
85647W        W54052  32.519  22.236  14.620
85648W        W54053  30.099  11.009  11.153
85649W        W54054  28.362  13.828   4.351
85650W        W54055   6.439  44.026  13.403
85651W        W54056  20.479  17.874  11.083
85652W        W54057  33.909  19.071   1.225
85653W        W54058   7.694  18.135  11.667
85654W        W54059  41.382  37.817  12.587
85655W        W54060   0.255  28.941  12.638
85656W        W54061  34.858  43.030   3.225
85657W        W54062  37.397  11.662  12.599
85658W        W54063   3.983  22.249  13.860
85659W        W54064  40.447  27.544  13.875
85660W        W54065   1.545   0.051   1.652
85661W        W54066  18.752   5.885   1.954
85662W        W54067   9.620   6.111  12.203
85663W        W54068   6.261   4.412   4.033
85664W        W54069   0.509  17.695  10.595
85665W        W54070  25.151  24.099  14.274
85666W        W54071   7.454   6.234  13.326
85667W        W54072  28.042  20.980   0.307
85668W        W54073   0.081  24.028  11.314
85669W        W54074  17.651  44.437  14.389
85670W        W54075   0.867  26.763  12.197
85671W        W54076  21.078  44.462   0.864
85672W        W54077   4.706  21.827   4.539
85673W        W54078  23.179  44.408  11.582
85674W        W54079  11.480  15.200   0.789
85675W        W54080   3.872  17.838  13.990
85676W        W54081   6.577  41.587  11.986
85677W        W54082  43.402   7.412   4.106
85678W        W54083  16.959  12.224  14.420
85679W        W54084  40.398   2.994   0.342
85680W        W54085  39.451  28.217  14.310
85681W        W54086  21.754  10.384   0.997
85682W        W54087  18.108   7.869  14.927
85683W        W54088  37.529   7.061   2.745
85684W        W54089  18.338  24.931  14.933
85685W        W54090  39.338  10.839   3.199
85686W        W54091  17.665  15.350   2.816
85687W        W54092  30.671  26.289  11.519
85688W        W54093  27.661  29.213  10.962
85689W        W54094  29.575  42.414   0.522
85690W        W54095  12.322  40.791   2.804
85691W        W54096  20.073  39.104   1.380
85692W        W54097   6.173  14.663   2.825
85693W        W54098  20.442   4.595   3.682
85694W        W54099  39.578  44.432   1.357
85695W        W54100   8.755   4.906  11.655
85696W        W54101  22.258  13.365   4.366
85697W        W54102  17.675  26.729   0.803
85698W        W54103  43.677  36.998  13.267
85699W        W54104   9.844  19.329   2.754
85700W        W54105   6.186   5.940  14.055
85701W        W54106  25.400  30.909   1.919
85702W        W54107   3.898   3.780   2.919
85703W        W54108   1.471  41.036   3.322
85704W        W54109   3.677  30.744  10.181
85705W        W54110  32.549  27.106   0.032
85706W        W54111  30.478  33.898  13.310
85707W        W54112  17.762   7.918  13.915
85708W        W54113   6.953  12.408   3.247
85709W        W54114  13.110  36.045  10.031
85710W        W54115  12.646  43.219  13.880
85711W        W54116  38.051  12.870   2.873
85712W        W54117  25.070  18.909   4.171
85713W        W54118  41.955  20.110  11.805
85714W        W54119  42.324   8.617   1.462
85715W        W54120  15.641  22.554  12.519
85716W        W54121  20.848  29.988  11.124
85717W        W54122  17.161  10.158   3.381
85718W        W54123   2.206  15.340   0.285
85719W        W54124  38.219  38.565  10.585
85720W        W54125   8.709  32.325  11.064
85721W        W54126  25.570  11.731   4.200
85722W        W54127  25.143  33.044  11.285
85723W        W54128  14.359  12.271   0.910
85724W        W54129  42.030  18.306  13.928
85725W        W54130  28.207  10.718   4.208
85726W        W54131  13.113  41.319  10.672
85727W        W54132   5.895  30.393  11.514
85728W        W54133  14.415   8.793  10.747
85729W        W54134  26.434  30.576  12.140
85730W        W54135  39.932  16.715   4.768
85731W        W54136  14.708  41.282   3.605
85732W        W54137  19.756  31.902   5.004
85733W        W54138  18.015   2.216  12.062
85734W        W54139   1.364   2.420   2.695
85735W        W54140  14.147   9.042   2.943
85736W        W54141  34.972  16.978   1.655
85737W        W54142  12.878  43.032   2.714
85738W        W54143  25.524  18.148   1.824
85739W        W54144  11.388  18.783   4.111
85740W        W54145   2.001  10.921  13.088
85741W        W54146  33.325  38.131   1.722
85742W        W54147   4.258  44.244   2.692
85743W        W54148  33.102  18.324   0.719
85744W        W54149   5.381   5.967  11.054
85745W        W54150  15.261  36.315   2.231
85746W        W54151  19.606   9.630  12.365
85747W        W54152  27.023  33.488  14.794
85748W        W54153  25.588  42.812   3.703
85749W        W54154  41.335  36.568  11.138
85750W        W54155  23.373  36.525  11.460
85751W        W54156   3.264  19.156  13.914
85752W        W54157  12.859  40.873  12.551
85753W        W54158   4.202  37.975   4.628
85754W        W54159  44.458  19.372   4.919
85755W        W54160   1.793   8.987  12.147
85756W        W54161  24.530  34.611   1.261
85757W        W54162  24.411  17.155  11.622
85758W        W54163  43.183  37.100  13.332
85759W        W54164   8.944  21.131  14.544
85760W        W54165  37.864  32.019   2.885
85761W        W54166  44.395   4.677  13.964
85762W        W54167  37.165   6.770   4.119
85763W        W54168  30.752  10.201   4.584
85764W        W54169  38.891  11.002  12.367
85765W        W54170  41.078   3.495   3.688
85766W        W54171  33.546  26.246  11.576
85767W        W54172  15.671   6.439  12.903
85768W        W54173  39.741  30.126   2.732
85769W        W54174  27.617   3.952  13.969
85770W        W54175  43.886   4.459   2.285
85771W        W54176  15.531  40.875   3.735
85772W        W54177  25.432   1.936  13.943
85773W        W54178  17.693  29.623   3.830
85774W        W54179  34.340   8.400   4.618
85775W        W54180  35.085   3.920  11.137
85776W        W54181  27.964  10.735   3.724
85777W        W54182  22.475  24.151   2.741
85778W        W54183  10.128  29.992  10.934
85779W        W54184  43.217   2.894  13.048
85780W        W54185  28.975  18.460  13.922
85781W        W54186  32.189  16.169  14.358
85782W        W54187  32.335   9.710   1.245
85783W        W54188  11.522  10.580   4.178
85784W        W54189  36.013   0.973   4.600
85785W        W54190  41.116  11.400   2.647
85786W        W54191  13.927  34.850  12.807
85787W        W54192  42.315   9.218   2.857
85788W        W54193  37.061  44.927  14.511
85789W        W54194  30.029  26.150  10.766
85790W        W54195  10.501   0.758   2.799
85791W        W54196  23.957  17.783  12.472
85792W        W54197  28.067  37.861   2.347
85793W        W54198  28.508  30.370   3.280
85794W        W54199  23.855  35.515  14.416
85795W        W54200  10.814  39.778   1.618
85796W        W54201   2.139  17.225  11.535
85797W        W54202  41.961  37.085   4.261
85798W        W54203  10.279   8.087  14.947
85799W        W54204  21.546  14.013  12.457
85800W        W54205  21.065  27.889   0.418
85801W        W54206  37.821  44.405  11.291
85802W        W54207   8.068  38.354  13.342
85803W        W54208  30.481   5.991   1.271
85804W        W54209   3.371  16.741  14.327
85805W        W54210  32.173  18.174  11.163
85806W        W54211   3.868  22.790  11.187
85807W        W54212   6.736  43.019   2.755
85808W        W54213   8.328  16.276  14.178
85809W        W54214  42.177  41.531   0.308
85810W        W54215  27.726  23.060  11.181
85811W        W54216  28.674  38.132  12.380
85812W        W54217  24.120   5.951  14.312
85813W        W54218  14.856  16.118   1.709
85814W        W54219   4.930  35.786  11.974
85815W        W54220  38.875   0.289   0.731
85816W        W54221   6.459  39.321   3.121
85817W        W54222  13.838  36.652   3.223
85818W        W54223   5.472   5.772  12.055
85819W        W54224   3.605  29.256   4.725
85820W        W54225   3.972  16.144   3.224
85821W        W54226  18.230   5.410  13.910
85822W        W54227  44.529   5.119   2.616
85823W        W54228  28.088  11.624  14.815
85824W        W54229   6.632  12.326   2.832
85825W        W54230  25.761  41.587   4.600
85826W        W54231  10.472  42.302  14.897
85827W        W54232  10.366   7.488  13.117
85828W        W54233   6.769  31.621   4.701
85829W        W54234  44.207  32.857  14.359
85830W        W54235  12.724  41.889  11.067
85831W        W54236  36.455  42.669   3.633
85832W        W54237  40.792  27.956  14.452
85833W        W54238   6.406   8.964  14.769
85834W        W54239  40.904  35.408  12.864
85835W        W54240  21.554  21.277   0.448
85836W        W54241  12.626  25.360  12.548
85837W        W54242  10.633  37.000   4.876
85838W        W54243  19.486  14.341  12.109
85839W        W54244  11.759  23.030   2.661
85840W        W54245  39.490   1.046   0.807
85841W        W54246  35.025  12.485  12.087
85842W        W54247  34.859  27.454   0.327
85843W        W54248  30.276  38.968   5.095
85844W        W54249  33.888  25.204   3.465
85845W        W54250  40.344  19.385   4.920
85846W        W54251   7.423  39.476   1.737
85847W        W54252  34.660  30.630  14.976
85848W        W54253  11.357   9.706   0.706
85849W        W54254   6.408  34.931  12.827
85850W        W54255  10.448   7.863  13.494
85851W        W54256  39.973  35.839  12.478
85852W        W54257  20.775  42.480   0.454
85853W        W54258  41.775  12.849   0.239
85854W        W54259  43.345  14.639  12.815
85855W        W54260  10.611   6.442   3.391
85856W        W54261  17.732  28.208   1.716
85857W        W54262  22.493  14.357  14.565
85858W        W54263  30.727  21.028   1.923
85859W        W54264  40.750   7.611  13.066
85860W        W54265   5.914  19.222  13.859
85861W        W54266   1.172  14.341  14.136
85862W        W54267   8.113   9.652  11.872
85863W        W54268   1.330   7.626   4.075
85864W        W54269  16.970  21.504   3.905
85865W        W54270   2.545  29.954   1.823
85866W        W54271  13.215  27.504  14.946
85867W        W54272  33.865   2.837  11.035
85868W        W54273  16.621  11.412   5.429
85869W        W54274   0.768  44.007  12.172
85870W        W54275  32.511  42.235  11.693
85871W        W54276  22.802   0.650   0.898
85872W        W54277  10.366  17.819   4.644
85873W        W54278  26.541  25.234  11.586
85874W        W54279  12.243   8.191  13.328
85875W        W54280  13.206  12.791   3.142
85876W        W54281  34.626  17.380  12.772
85877W        W54282  38.900  40.247   3.254
85878W        W54283  24.608  20.720  10.763
85879W        W54284  27.560  37.167  14.042
85880W        W54285  39.696  43.509  11.674
85881W        W54286  14.560  28.114  13.927
85882W        W54287   6.941  42.527  13.380
85883W        W54288   6.565  27.686  13.463
85884W        W54289  35.489  20.719  13.340
85885W        W54290   1.524   9.621   2.862
85886W        W54291  13.561  17.124  13.754
85887W        W54292  44.859  16.696   3.327
85888W        W54293  33.143  24.018   1.209
85889W        W54294  35.561  40.991  14.848
85890W        W54295  22.675  20.980  10.451
85891W        W54296  16.756  38.435  13.312
85892W        W54297  32.982  34.126   1.754
85893W        W54298  34.971  13.804  13.114
85894W        W54299  30.887  21.475  12.298
85895W        W54300  15.613  10.006  14.340
85896W        W54301  26.073  23.784  10.688
85897W        W54302  42.485  32.909   0.214
85898W        W54303  27.993  21.901  12.409
85899W        W54304  26.515  21.720  13.483
85900W        W54305  18.116   5.862   1.270
85901W        W54306  33.907  12.829  11.959
85902W        W54307  42.972   7.314   3.788
85903W        W54308  13.766  42.985   3.740
85904W        W54309   6.834  22.496  10.616
85905W        W54310  35.482  23.161   0.440
85906W        W54311  39.934   7.413  13.628
85907W        W54312  37.028  29.565  10.697
85908W        W54313   6.152   4.974   1.794
85909W        W54314  11.350  22.572  10.557
85910W        W54315  41.419   6.763  14.809
85911W        W54316  42.940  32.559  10.742
85912W        W54317   2.826  34.114   2.329
85913W        W54318  20.514  23.733   3.089
85914W        W54319  30.579  18.767  12.468
85915W        W54320  25.457  27.452  14.825
85916W        W54321  28.510  14.412   0.540
85917W        W54322  10.411  20.872   2.644
85918W        W54323  24.426  23.005   0.129
85919W        W54324  14.772  36.415   3.994
85920W        W54325  37.025  37.119  11.997
85921W        W54326  31.495  30.413  11.095
85922W        W54327  13.139  15.620   2.412
85923W        W54328  33.525  26.537  12.013
85924W        W54329  43.614  25.450   4.192
85925W        W54330  27.183  11.895   2.844
85926W        W54331  37.271  37.531   3.130
85927W        W54332   6.235   0.995   3.172
85928W        W54333  30.562  21.072  12.283
85929W        W54334  25.965  27.603  13.747
85930W        W54335  40.717  20.954   3.829
85931W        W54336  22.014  35.140   0.199
85932W        W54337   7.094  33.066   4.091
85933W        W54338  21.257  10.414   3.619
85934W        W54339   3.046   5.161   1.416
85935W        W54340  28.466  25.187   1.868
85936W        W54341  23.801  12.951   5.152
85937W        W54342  17.313  32.524   3.198
85938W        W54343  23.150  43.482  13.831
85939W        W54344   2.990   0.246  12.982
85940W        W54345  11.623  24.724  13.850
85941W        W54346  42.546  14.887   0.820
85942W        W54347  41.315  38.043  11.251
85943W        W54348   8.180   4.009   0.216
85944W        W54349  20.751  44.442  12.947
85945W        W54350  22.565   6.134   0.023
85946W        W54351  33.075  37.117  13.371
85947W        W54352  28.995   4.357   0.205
85948W        W54353  44.308  18.973   1.666
85949W        W54354  33.869  43.524  11.518
85950W        W54355  11.524  32.265   1.375
85951W        W54356  15.290  23.179   5.540
85952W        W54357  26.876   7.757   0.529
85953W        W54358   9.276  12.898  11.979
85954W        W54359  20.126   2.235  13.770
85955W        W54360  29.747  18.808   2.401
85956W        W54361  39.374  42.530  11.470
85957W        W54362  26.468  10.868   2.794
85958W        W54363  35.165   9.146   4.825
85959W        W54364  36.233  13.080  13.965
85960W        W54365  43.328  10.416  12.553
85961W        W54366  29.494  44.478  11.840
85962W        W54367  11.777  18.051   2.673
85963W        W54368  29.042  35.314  13.409
85964W        W54369  25.896  32.079   0.075
85965W        W54370  14.240   0.051   3.392
85966W        W54371  31.113   9.396   4.665
85967W        W54372  16.283  32.412  12.881
85968W        W54373   6.065  34.036  14.327
85969W        W54374  19.813   4.722  13.461
85970W        W54375  42.029   4.592   1.433
85971W        W54376  32.113  12.850  12.926
85972W        W54377  14.801   5.717   1.861
85973W        W54378  24.263  10.125  10.313
85974W        W54379  28.605  38.068   0.326
85975W        W54380  37.597   8.229  13.034
85976W        W54381  20.740   7.578  13.738
85977W        W54382  41.159  21.919  13.517
85978W        W54383  24.363  44.009  12.846
85979W        W54384  18.282  28.940  14.958
85980W        W54385  21.161   3.857  11.661
85981W        W54386  10.866  20.800   2.859
85982W        W54387  14.727  30.049  13.122
85983W        W54388  31.672  16.209  12.978
85984W        W54389  29.444   5.353   4.211
85985W        W54390   3.272   5.435   2.923
85986W        W54391   1.479   5.067  13.005
85987W        W54392  22.723  35.104  11.624
85988W        W54393  44.787  33.318  10.102
85989W        W54394  14.792  29.151   0.288
85990W        W54395   4.336  26.158   3.388
85991W        W54396  41.468  15.610  10.217
85992W        W54397  33.497   9.886   3.241
85993W        W54398  22.960  38.905  12.469
85994W        W54399   0.775  11.934   4.923
85995W        W54400  23.655  17.092   4.109
85996W        W54401  40.079  20.920  12.431
85997W        W54402   6.347  18.630  12.558
85998W        W54403  41.293  33.892   1.812
85999W        W54404  22.162  30.749   1.260
86000W        W54405   6.450  44.502  11.126
86001W        W54406  15.128   6.748   5.000
86002W        W54407  30.585   1.497  10.804
86003W        W54408  37.333  33.702  10.789
86004W        W54409  33.053  27.286  13.876
86005W        W54410   5.923  33.454   2.361
86006W        W54411  15.953  29.546  14.801
86007W        W54412   2.241  30.280   1.194
86008W        W54413   2.391  34.385   2.350
86009W        W54414  15.241  27.180  11.549
86010W        W54415  33.155   9.731   4.645
86011W        W54416   9.339  41.978   1.270
86012W        W54417  43.006  21.294   3.435
86013W        W54418  26.173  42.893  13.019
86014W        W54419  18.582  42.974  10.602
86015W        W54420  12.781  17.960  11.560
86016W        W54421   6.607  15.236   2.278
86017W        W54422   2.941  33.812   3.317
86018W        W54423  25.847  34.651  11.524
86019W        W54424   5.401  33.059  13.578
86020W        W54425  36.879  30.938  12.505
86021W        W54426  41.434  16.842   2.361
86022W        W54427  19.232  13.556  11.162
86023W        W54428  21.506  34.378  11.596
86024W        W54429  17.824  32.975   1.806
86025W        W54430  27.930  44.578   4.157
86026W        W54431  11.133  29.182   2.187
86027W        W54432  19.697   9.573   1.377
86028W        W54433  39.348  25.951   5.032
86029W        W54434  21.664   6.774   3.150
86030W        W54435   1.579  29.082   0.103
86031W        W54436  21.014   2.939   2.738
86032W        W54437  30.488  10.278  14.792
86033W        W54438   0.878  23.074   2.932
86034W        W54439  37.943  19.026  12.427
86035W        W54440  38.303  21.463   0.868
86036W        W54441  25.101  26.188  12.015
86037W        W54442  24.043  26.914  13.858
86038W        W54443  12.470  43.893  12.024
86039W        W54444  42.462  26.666  11.494
86040W        W54445  20.280  12.589  11.039
86041W        W54446  31.141  11.499  14.515
86042W        W54447  13.111   4.856  13.620
86043W        W54448  11.792  21.546   0.942
86044W        W54449   4.243  22.146   2.319
86045W        W54450  39.570  34.925   1.678
86046W        W54451   9.431  18.313   4.794
86047W        W54452  41.306  16.191  12.946
86048W        W54453  28.162  12.160   4.342
86049W        W54454  25.315  24.499   0.518
86050W        W54455  27.704  41.814  11.990
86051W        W54456  39.285  21.241   0.248
86052W        W54457   2.045  33.371  14.480
86053W        W54458   5.478  38.288  14.220
86054W        W54459   6.402   6.209  12.487
86055W        W54460  38.351  43.902   1.438
86056W        W54461   4.915  40.506   2.035
86057W        W54462  33.998  38.764  13.056
86058W        W54463  38.052  20.732  12.022
86059W        W54464   2.507   0.539  13.846
86060W        W54465   4.562  14.396   4.245
86061W        W54466  14.783  10.103  13.953
86062W        W54467  24.736  32.168   2.870
86063W        W54468  30.473  16.196  13.411
86064W        W54469  42.045  36.887   2.829
86065W        W54470  24.778  23.041   3.784
86066W        W54471  33.871  23.658   3.219
86067W        W54472  14.213  29.287  13.337
86068W        W54473   6.125  29.359   1.877
86069W        W54474  32.403  25.044   0.850
86070W        W54475   0.704  32.000  13.325
86071W        W54476  23.986  31.245  12.725
86072W        W54477  15.223  37.141  14.985
86073W        W54478   2.543  37.457  14.747
86074W        W54479  21.510  11.715   1.449
86075W        W54480   7.274  40.023   2.305
86076W        W54481  16.145  16.600   1.302
86077W        W54482  40.008  22.787  11.850
86078W        W54483  31.142  20.291  12.999
86079W        W54484   4.648  42.025   1.163
86080W        W54485  10.010  33.937  14.528
86081W        W54486  25.138  16.820   9.878
86082W        W54487  31.478  19.082   4.188
86083W        W54488  12.045   0.012  11.210
86084W        W54489  38.897   2.201   1.242
86085W        W54490  39.726   4.848  14.726
86086W        W54491  39.813  23.181  10.563
86087W        W54492   2.837   4.979   0.442
86088W        W54493  21.543   4.290  12.190
86089W        W54494   6.953  31.702   3.186
86090W        W54495  38.613   3.459   1.839
86091W        W54496  34.323  34.057   2.414
86092W        W54497  12.958  11.955   3.265
86093W        W54498  37.900  12.172   0.476
86094W        W54499  21.139  27.181   4.654
86095W        W54500  17.355  38.059   3.251
86096W        W54501   2.697  34.955   3.796
86097W        W54502   1.294  15.766   1.236
86098W        W54503  32.536   9.134  13.430
86099W        W54504  15.592  16.675   1.478
86100W        W54505   2.015   9.311  10.726
86101W        W54506  28.017   1.315   1.794
86102W        W54507  17.681  35.304   3.177
86103W        W54508   8.451  34.311   2.824
86104W        W54509  36.996  34.979   4.941
86105W        W54510  42.271  40.337   0.417
86106W        W54511  43.806   5.250  12.155
86107W        W54512  19.498  10.888  12.857
86108W        W54513   4.729   2.513   0.262
86109W        W54514  44.340  25.264   0.116
86110W        W54515  10.141  21.961   4.060
86111W        W54516  43.671   1.332   1.626
86112W        W54517  11.633  44.917   3.626
86113W        W54518   8.405  17.133   3.216
86114W        W54519  35.582  35.844  11.227
86115W        W54520   7.221  31.284   3.744
86116W        W54521  13.843  41.751  10.783
86117W        W54522  21.389  38.285   4.159
86118W        W54523   8.088  14.340  14.348
86119W        W54524  42.960  24.224   2.319
86120W        W54525  27.627  14.759   1.721
86121W        W54526  32.708  37.515   2.300
86122W        W54527   2.007   9.448  12.000
86123W        W54528   0.488  36.114  12.592
86124W        W54529  40.548  31.721   1.291
86125W        W54530   4.706   0.413  14.396
86126W        W54531   1.816   4.453  10.711
86127W        W54532  31.889  13.344   3.172
86128W        W54533  36.701  11.290  10.801
86129W        W54534  31.672   9.443  13.955
86130W        W54535  11.099  38.220  12.990
86131W        W54536  27.538  23.290   2.255
86132W        W54537  39.266  18.317   2.089
86133W        W54538   4.934  30.017  11.050
86134W        W54539  37.113  26.205  11.995
86135W        W54540  23.132  39.588   0.253
86136W        W54541  23.616   7.406  13.857
86137W        W54542   4.673  36.000   2.968
86138W        W54543  42.675   7.882  11.561
86139W        W54544   0.111   8.401  13.882
86140W        W54545  31.904  43.727  11.255
86141W        W54546  30.609  44.466  14.410
86142W        W54547  34.185   4.829   0.822
86143W        W54548  43.027  38.293   3.642
86144W        W54549  25.070  12.609   4.379
86145W        W54550  22.227  22.152  13.844
86146W        W54551   5.483  26.023  13.554
86147W        W54552   0.941  38.751   2.853
86148W        W54553  13.584  31.888   4.027
86149W        W54554  16.258  43.321   1.741
86150W        W54555  15.076   6.526  13.464
86151W        W54556  18.809  17.605   2.839
86152W        W54557   6.918  25.780   0.185
86153W        W54558  14.384   7.335   4.163
86154W        W54559  34.048   6.720  10.729
86155W        W54560  27.546  28.580  11.703
86156W        W54561   7.662   3.250  10.673
86157W        W54562  44.350  36.993   1.904
86158W        W54563  31.631  32.955   3.905
86159W        W54564  37.946  39.396   2.287
86160W        W54565  21.238  13.038  14.342
86161W        W54566  22.747   6.270  12.922
86162W        W54567  13.321   6.271  13.655
86163W        W54568  12.336  16.800   5.840
86164W        W54569  26.050  12.223  10.862
86165W        W54570  26.521  23.596   4.061
86166W        W54571  11.084  35.318   0.985
86167W        W54572  24.053  26.649   0.750
86168W        W54573  21.992   0.850  10.617
86169W        W54574  35.345  32.537   1.771
86170W        W54575  15.156  28.587   3.802
86171W        W54576  39.544   9.764  12.827
86172W        W54577  13.836  30.963  13.109
86173W        W54578  27.150  32.125   0.441
86174W        W54579  13.439  14.294  12.861
86175W        W54580  41.700  37.973  13.005
86176W        W54581  40.265  25.692  13.441
86177W        W54582  19.455  31.263  10.673
86178W        W54583   1.548  17.330  13.420
86179W        W54584   0.431  19.192   1.796
86180W        W54585  12.793  38.815   0.725
86181W        W54586  33.794  33.341   4.167
86182W        W54587  10.691  41.863   4.707
86183W        W54588  23.778  10.201  11.004
86184W        W54589   6.862   1.088   0.415
86185W        W54590  21.158  39.577  14.911
86186W        W54591  41.556  13.953   1.773
86187W        W54592  17.080  36.853  10.539
86188W        W54593  27.969  44.278   1.433
86189W        W54594  43.584  24.245  11.157
86190W        W54595  43.222  42.531  13.336
86191W        W54596  15.870  11.598  10.022
86192W        W54597  44.473  26.651  14.540
86193W        W54598   4.819  36.081  10.615
86194W        W54599   4.475  27.227  13.496
86195W        W54600  33.404  24.771  12.597
86196W        W54601   5.047  13.225   3.231
86197W        W54602  43.867  14.583   4.322
86198W        W54603  37.836   9.291   4.621
86199W        W54604  26.224  38.378   0.944
86200W        W54605  15.303   8.450  10.325
86201W        W54606   3.703   1.978  11.991
86202W        W54607  23.617  43.999  13.976
86203W        W54608  29.844  33.888  14.943
86204W        W54609  41.428   9.557  11.110
86205W        W54610  37.071  26.158  11.138
86206W        W54611  38.326  30.544  11.176
86207W        W54612  37.545  39.128  11.286
86208W        W54613  40.151  41.005  13.019
86209W        W54614  20.755  36.423  10.800
86210W        W54615  27.349   1.385  14.825
86211W        W54616  44.567  16.922   2.350
86212W        W54617   7.852  10.174  12.441
86213W        W54618   3.806   6.834   4.178
86214W        W54619   1.192  13.868  14.853
86215W        W54620  14.762  35.538  13.888
86216W        W54621  32.126  13.344  12.219
86217W        W54622  14.839  13.299  10.533
86218W        W54623  11.769   8.905   1.048
86219W        W54624  30.631  28.892   1.484
86220W        W54625  27.500  38.465  11.011
86221W        W54626  22.568  33.389   0.915
86222W        W54627  44.827  32.209  10.574
86223W        W54628   1.856  41.082  14.570
86224W        W54629  43.023  10.321  14.288
86225W        W54630   2.207  39.943   3.852
86226W        W54631   3.919  15.887   4.636
86227W        W54632  29.524   3.633   0.038
86228W        W54633   8.765  20.765   0.919
86229W        W54634  40.338  10.134  13.053
86230W        W54635   9.777  44.847  10.732
86231W        W54636  27.100  20.357   1.717
86232W        W54637  26.125   8.300   1.627
86233W        W54638  16.545  21.215  11.657
86234W        W54639  39.419   1.221  10.136
86235W        W54640  35.925   4.818   2.813
86236W        W54641  22.209  28.572   2.302
86237W        W54642  42.472  15.782   1.518
86238W        W54643   2.958  20.729   2.679
86239W        W54644  29.617  32.656  14.026
86240W        W54645  36.799  39.958   3.743
86241W        W54646  15.919  41.439  12.087
86242W        W54647  35.109  20.114   3.703
86243W        W54648  41.679  22.049   4.523
86244W        W54649   4.286  40.387  13.365
86245W        W54650  13.773  40.757  14.234
86246W        W54651  13.223  13.686   3.651
86247W        W54652  16.276  40.380   2.675
86248W        W54653  28.666   1.886  13.593
86249W        W54654  28.081  20.556  10.248
86250W        W54655  31.550  39.353  11.044
86251W        W54656  39.324  43.217   1.903
86252W        W54657  35.146   6.759   0.996
86253W        W54658  12.260  26.897   0.820
86254W        W54659   2.519  24.026  12.531
86255W        W54660  28.511  25.864  12.879
86256W        W54661   8.241  10.337   4.352
86257W        W54662  24.792   5.708  12.536
86258W        W54663  26.123  22.449   1.821
86259W        W54664  31.201  18.011   5.035
86260W        W54665  27.152   5.932   2.243
86261W        W54666  43.278  14.702   1.759
86262W        W54667  18.914  32.566   2.687
86263W        W54668  27.262  29.564   3.127
86264W        W54669  16.609   8.674  11.136
86265W        W54670  31.415  12.311  12.456
86266W        W54671  27.989  18.534  13.893
86267W        W54672   3.975  10.204  14.895
86268W        W54673  26.382  32.292   5.018
86269W        W54674  26.693  20.661  14.421
86270W        W54675  42.820   0.506   0.438
86271W        W54676  13.168  19.788   3.623
86272W        W54677  35.803  27.546  12.039
86273W        W54678   7.901  34.415  10.652
86274W        W54679  30.294  26.531  11.125
86275W        W54680   0.796  13.528   1.541
86276W        W54681   0.669  37.299  11.891
86277W        W54682  20.301  21.412  13.523
86278W        W54683  17.324  30.905  12.873
86279W        W54684   7.909  44.919  11.030
86280W        W54685  40.856  44.765   3.275
86281W        W54686  33.869  13.791  14.408
86282W        W54687  41.725  35.479   4.622
86283W        W54688  12.230   3.914  10.355
86284W        W54689  37.425  17.421   5.088
86285W        W54690  39.301   7.981  14.253
86286W        W54691  29.941  41.216  14.881
86287W        W54692  32.095  38.073   1.459
86288W        W54693  40.678  31.645  13.274
86289W        W54694  19.702  43.538   5.031
86290W        W54695   3.697   1.789  13.333
86291W        W54696  29.390  43.211   5.441
86292W        W54697  36.159  26.507   1.615
86293W        W54698  43.462  28.363  12.397
86294W        W54699   3.425  44.244   0.862
86295W        W54700  36.513   3.389   4.606
86296W        W54701   8.715  40.192  10.780
86297W        W54702   9.866  30.600   1.165
86298W        W54703   4.276   4.693  10.552
86299W        W54704  35.529  19.851   1.337
86300W        W54705  32.833  40.393  13.954
86301W        W54706  32.434  14.798   2.356
86302W        W54707  16.328   2.433   2.123
86303W        W54708  36.504  17.325  10.583
86304W        W54709  39.862  14.016   3.011
86305W        W54710   1.784  29.692  14.474
86306W        W54711   3.366   9.508   2.865
86307W        W54712   3.737  29.589   0.997
86308W        W54713  24.652  40.810  11.376
86309W        W54714  25.964  31.184  14.413
86310W        W54715  40.025  15.625   2.196
86311W        W54716  17.183  15.563   2.740
86312W        W54717   3.419   8.033   4.130
86313W        W54718  32.961   0.954  13.388
86314W        W54719  13.300  28.771   2.241
86315W        W54720  29.030  38.096   3.675
86316W        W54721  25.155  22.054   3.671
86317W        W54722  19.628  43.996   4.734
86318W        W54723  22.590   8.343   1.204
86319W        W54724  17.246  31.064   4.100
86320W        W54725  40.451  36.663  13.535
86321W        W54726  40.073  28.916   1.391
86322W        W54727  23.979  37.581   4.473
86323W        W54728  32.679   4.846  14.746
86324W        W54729  39.239   9.529  10.700
86325W        W54730   0.186  31.366  12.851
86326W        W54731   7.323   8.929   1.320
86327W        W54732  39.082  26.563   4.169
86328W        W54733  19.833  18.746  13.457
86329W        W54734   2.007   1.746  14.878
86330W        W54735  34.209   3.075   0.916
86331W        W54736   3.796  19.042   1.748
86332W        W54737  21.999  39.412  11.531
86333W        W54738  19.609  36.265   4.655
86334W        W54739  25.403  34.786  12.361
86335W        W54740   1.977  21.173  13.993
86336W        W54741  10.354  13.247   3.328
86337W        W54742  40.570  25.959  11.168
86338W        W54743   0.379   4.249  14.017
86339W        W54744  15.723  17.660   4.270
86340W        W54745  17.007  40.539   2.827
86341W        W54746  24.265  19.978   0.031
86342W        W54747  10.600  12.726   3.199
86343W        W54748  18.924  10.162   4.007
86344W        W54749  20.182  44.864   0.979
86345W        W54750   6.323  24.596   2.040
86346W        W54751  40.801  24.226  13.071
86347W        W54752  23.487  28.691   0.421
86348W        W54753  23.688   1.337  13.887
86349W        W54754  13.809  19.016   3.525
86350W        W54755  13.575  26.448  12.376
86351W        W54756  31.319  22.250  10.971
86352W        W54757  21.183   8.194   4.303
86353W        W54758  30.415   3.229   2.049
86354W        W54759   3.263  32.540   2.613
86355W        W54760  31.097  30.718   2.672
86356W        W54761   2.355  43.268  13.840
86357W        W54762  21.301  23.040   4.770
86358W        W54763  39.075  13.230  12.600
86359W        W54764   6.125  20.588   4.649
86360W        W54765   4.237  16.292  14.666
86361W        W54766  25.001  38.508  12.934
86362W        W54767  16.653  16.775   3.368
86363W        W54768  14.380  32.121   0.247
86364W        W54769  25.630  15.639   2.356
86365W        W54770   9.909  27.701  12.324
86366W        W54771  16.199   2.732  12.626
86367W        W54772  28.126   1.759  10.067
86368W        W54773  29.877   6.248   4.604
86369W        W54774   9.337  34.084   2.361
86370W        W54775  25.537  28.194   2.024
86371W        W54776   1.576  11.620  13.452
86372W        W54777  31.108  14.654   0.011
86373W        W54778   4.772   2.356   0.760
86374W        W54779   4.950  14.661  12.868
86375W        W54780   3.756  26.126  10.305
86376W        W54781  34.441  17.039   3.793
86377W        W54782  25.166  35.978   3.681
86378W        W54783  22.270  34.002   4.476
86379W        W54784  12.393  43.414   4.162
86380W        W54785  36.435   9.315   4.040
86381W        W54786  35.974  14.605   3.800
86382W        W54787  28.373  44.477   2.870
86383W        W54788  11.846  18.013  11.617
86384W        W54789  44.678  20.286   4.031
86385W        W54790  32.785  20.584  11.150
86386W        W54791  24.805  39.805  12.005
86387W        W54792   9.829  29.961   2.914
86388W        W54793  35.947   4.175  14.470
86389W        W54794  40.896   7.923   2.682
86390W        W54795   0.387  23.093  14.344
86391W        W54796  44.415  34.538   0.173
86392W        W54797  15.074  11.867  12.535
86393W        W54798  18.905  22.129  10.664
86394W        W54799  12.762   6.730  11.312
86395W        W54800  21.079  13.763   3.791
86396W        W54801  17.690  20.015  13.450
86397W        W54802   8.591  19.739  10.281
86398W        W54803  38.023  11.192   1.283
86399W        W54804  20.431  15.081  11.936
86400W        W54805  13.695  29.331  14.754
86401W        W54806   6.780   4.252   1.734
86402W        W54807  28.102   6.886   3.149
86403W        W54808  33.266  31.558   5.003
86404W        W54809  43.700  42.995   0.141
86405W        W54810  43.031  29.572   0.292
86406W        W54811   6.953  35.675   4.740
86407W        W54812  19.050   6.329  11.977
86408W        W54813   8.890  27.125   1.868
86409W        W54814  21.004  30.045   5.183
86410W        W54815  28.017   9.333   0.280
86411W        W54816  25.094   1.966  13.545
86412W        W54817  26.598  34.666  12.023
86413W        W54818   3.957  43.013   0.367
86414W        W54819  32.174  27.398   4.193
86415W        W54820  19.520  20.620  10.953
86416W        W54821  34.144   9.646   4.495
86417W        W54822  18.200  12.222   1.271
86418W        W54823  12.404  28.684   2.262
86419W        W54824  41.289   2.432   4.467
86420W        W54825   9.034  38.602   1.916
86421W        W54826  18.482  26.217  12.529
86422W        W54827  24.599   1.714   2.161
86423W        W54828  37.548   2.519   3.017
86424W        W54829  30.484  12.819  13.829
86425W        W54830  32.071   3.845  11.063
86426W        W54831  32.704  15.270   1.623
86427W        W54832  16.996  17.098  11.679
86428W        W54833  11.743  12.114  12.437
86429W        W54834   5.441  15.615  12.504
86430W        W54835  15.056   1.211   0.452
86431W        W54836  33.189  35.523   1.973
86432W        W54837  24.476  14.783   2.286
86433W        W54838   9.367  27.386   5.000
86434W        W54839  38.570   0.606   3.773
86435W        W54840  28.643   9.517  12.831
86436W        W54841  37.974   3.196  12.262
86437W        W54842   7.283  23.991   2.364
86438W        W54843  20.697  21.080  13.559
86439W        W54844  37.323  23.260  12.139
86440W        W54845  35.959   0.495  10.592
86441W        W54846  26.734  29.549   1.280
86442W        W54847  20.770   2.837   3.316
86443W        W54848  34.883  27.216   0.784
86444W        W54849   1.381  32.056   3.696
86445W        W54850  21.661  31.083   3.982
86446W        W54851  33.351  12.437  12.605
86447W        W54852  20.154  10.355  14.848
86448W        W54853   8.708  29.109  14.467
86449W        W54854  41.489  25.054   3.675
86450W        W54855  40.211   1.910  13.375
86451W        W54856  18.638  40.339   5.369
86452W        W54857  13.930   9.114  14.780
86453W        W54858   1.038   0.078   2.714
86454W        W54859  15.548   0.497   0.288
86455W        W54860  34.759  38.750  13.872
86456W        W54861  10.025   5.929  13.991
86457W        W54862  23.018  10.566  10.369
86458W        W54863   7.247  14.814   0.783
86459W        W54864  35.391   0.923   2.245
86460W        W54865  36.681  11.233  11.609
86461W        W54866  23.705  34.785   4.585
86462W        W54867   5.386  24.469   0.730
86463W        W54868  15.537  29.153   4.150
86464W        W54869  26.898  24.214   3.115
86465W        W54870  37.069  35.815   2.337
86466W        W54871  19.484  34.986   0.831
86467W        W54872  27.692  19.173   1.516
86468W        W54873  37.553  14.884  12.518
86469W        W54874  13.404  34.868  14.437
86470W        W54875  15.441  32.582  12.158
86471W        W54876  29.245  31.065  12.160
86472W        W54877  24.490  35.905  14.019
86473W        W54878  39.973  31.559  10.638
86474W        W54879  33.208  29.091  11.618
86475W        W54880  35.534   4.247   2.642
86476W        W54881   2.930  28.633   1.502
86477W        W54882  32.362  42.083  13.441
86478W        W54883   2.609  25.065  14.004
86479W        W54884  21.137  40.841  12.387
86480W        W54885   9.361  18.305   1.412
86481W        W54886   0.677   1.260   1.878
86482W        W54887  36.314  31.551   1.391
86483W        W54888  35.640  11.455  13.969
86484W        W54889   8.287  26.620   3.142
86485W        W54890  32.155  42.574   3.289
86486W        W54891  12.087   7.341  11.664
86487W        W54892   5.695  36.871  12.022
86488W        W54893  32.145  11.199   2.403
86489W        W54894  41.764  12.776   3.198
86490W        W54895   2.504  17.996   1.165
86491W        W54896  25.970  41.371  12.610
86492W        W54897  33.116  43.218  10.546
86493W        W54898   6.107  36.341  12.655
86494W        W54899  12.260   3.140   3.124
86495W        W54900  20.458  29.544   2.688
86496W        W54901  14.295  38.393  12.792
86497W        W54902  26.923  43.448  12.583
86498W        W54903  36.232  26.507  13.093
86499W        W54904  33.636  38.523  13.976
86500W        W54905  32.093  11.027  10.321
86501W        W54906  38.333  44.023   0.382
86502W        W54907  39.460   5.655   4.987
86503W        W54908  30.066   9.155  14.343
86504W        W54909  13.511   1.268   3.238
86505W        W54910  38.596   7.133   4.598
86506W        W54911  40.129  30.578   3.750
86507W        W54912  24.683   3.913   4.339
86508W        W54913   8.858  30.857  12.847
86509W        W54914  13.558  37.999  10.868
86510W        W54915  16.124  14.671   0.450
86511W        W54916  35.412  19.311  13.345
86512W        W54917   8.803  15.110  10.016
86513W        W54918  41.023  40.287  12.971
86514W        W54919  32.333  44.046  14.535
86515W        W54920   1.328  19.638   3.594
86516W        W54921  14.370  44.223   3.753
86517W        W54922  21.238  20.035   1.391
86518W        W54923  38.080  43.830  14.413
86519W        W54924  28.738  25.237   3.903
86520W        W54925  25.296  16.173  13.011
86521W        W54926  43.457  41.914   0.313
86522W        W54927  32.378   5.757   2.841
86523W        W54928  19.790  13.982  12.349
86524W        W54929   2.889   3.134  10.969
86525W        W54930  37.553   9.942   0.843
86526W        W54931  12.727   7.917   3.842
86527W        W54932   1.600  23.552   2.625
86528W        W54933  40.387  37.692   0.441
86529W        W54934  16.480  31.557   2.713
86530W        W54935  19.884   8.384   4.098
86531W        W54936  18.942  26.567  11.145
86532W        W54937  13.138   8.631   4.204
86533W        W54938  11.184  17.269   3.314
86534W        W54939  28.216   3.499   4.202
86535W        W54940   8.850  16.531   2.706
86536W        W54941  16.459  29.583   4.508
86537W        W54942   4.653  44.451  10.744
86538W        W54943   2.025   6.109  13.415
86539W        W54944  30.673  14.779   1.923
86540W        W54945  40.594  34.427   0.552
86541W        W54946  39.371  24.670   2.681
86542W        W54947  10.060   5.971  13.017
86543W        W54948   0.936  36.602  10.697
86544W        W54949  38.369  24.497   0.812
86545W        W54950  13.322  32.950   0.487
86546W        W54951  15.277   1.487   9.884
86547W        W54952   6.720  42.946   0.352
86548W        W54953   8.515  29.749   3.194
86549W        W54954  29.393   4.873  11.190
86550W        W54955  28.117  16.441   2.137
86551W        W54956  14.310   5.638  12.600
86552W        W54957  34.053  44.251  14.349
86553W        W54958  36.271  17.631   0.864
86554W        W54959  31.691  31.117  14.425
86555W        W54960   6.923   7.414   0.401
86556W        W54961   8.333  13.925  12.060
86557W        W54962   6.650  21.699   0.918
86558W        W54963  20.304  13.923  14.484
86559W        W54964  42.450  18.038   3.311
86560W        W54965  23.023   6.347  13.362
86561W        W54966  30.870  20.829  14.185
86562W        W54967   7.136  15.920  10.302
86563W        W54968  38.105  31.078   0.291
86564W        W54969  38.729  10.280  13.388
86565W        W54970  10.714   9.431   1.121
86566W        W54971  35.238  23.302   0.888
86567W        W54972   5.078  20.413   0.472
86568W        W54973  41.441  14.260   1.247
86569W        W54974   2.207  29.212   2.306
86570W        W54975  37.156  41.815  11.032
86571W        W54976  15.212  44.423  13.048
86572W        W54977  12.724  24.657  14.439
86573W        W54978  18.670  30.169  13.856
86574W        W54979  12.370  30.991   2.800
86575W        W54980  42.288   7.955   5.007
86576W        W54981  36.193  44.407   2.780
86577W        W54982  28.070  41.881  11.054
86578W        W54983  12.781  40.689  13.043
86579W        W54984  44.394  21.277   0.507
86580W        W54985  36.540   0.792  12.125
86581W        W54986  43.946  14.681   2.424
86582W        W54987   1.852  41.350  11.750
86583W        W54988  39.504  16.358   4.792
86584W        W54989  25.015  19.814  12.023
86585W        W54990  34.860  37.874   0.807
86586W        W54991  14.827  32.595  13.317
86587W        W54992  40.707   6.159  13.134
86588W        W54993  38.383  22.694   1.372
86589W        W54994  20.550   3.243  13.011
86590W        W54995  24.147  18.102  12.105
86591W        W54996   3.210   9.563   1.473
86592W        W54997   5.021  20.923  13.553
86593W        W54998  28.101  15.139   2.559
86594W        W54999  35.902  12.646  12.500
86595W        W55000  34.145  21.160   0.987
86596W        W55001  40.881  44.545   4.575
86597W        W55002  18.207  15.939  13.918
86598W        W55003  34.850  10.665   0.300
86599W        W55004  20.258  14.137  12.057
86600W        W55005  16.251  11.304   1.018
86601W        W55006  15.974  34.859  14.106
86602W        W55007   9.318  34.626   2.472
86603W        W55008  39.743  13.272  13.821
86604W        W55009  43.659   7.141  14.695
86605W        W55010  16.799  29.594  12.975
86606W        W55011  38.857  22.538   3.176
86607W        W55012   7.025  42.915   3.160
86608W        W55013  35.460  25.913  14.509
86609W        W55014  44.802  39.869  14.553
86610W        W55015   7.195  35.470  10.700
86611W        W55016  29.417  32.926   4.637
86612W        W55017  27.482   4.124   3.236
86613W        W55018  28.464  26.390  12.935
86614W        W55019  40.114  24.420  12.649
86615W        W55020  33.008  34.181  11.081
86616W        W55021  18.760  36.012   0.412
86617W        W55022  29.137  39.456  12.861
86618W        W55023  25.670  15.529  12.594
86619W        W55024  31.436  44.342   2.103
86620W        W55025  35.728  31.420   1.353
86621W        W55026  16.512  15.076  11.100
86622W        W55027  32.113  10.818  14.083
86623W        W55028  42.748   5.896  14.666
86624W        W55029  40.472  30.230   1.258
86625W        W55030  37.570  38.519   0.989
86626W        W55031  43.951  22.529   1.038
86627W        W55032   2.360  42.237  13.917
86628W        W55033  44.979   0.292  11.079
86629W        W55034  36.554  29.250   2.995
86630W        W55035  21.631  10.186  10.281
86631W        W55036  44.084  32.513   1.496
86632W        W55037   7.139  28.536   2.669
86633W        W55038  41.548  36.310  10.732
86634W        W55039  28.073  38.857   2.155
86635W        W55040  16.919  31.945  13.868
86636W        W55041  29.592  27.935   9.871
86637W        W55042  18.587  41.281  10.977
86638W        W55043  32.026  36.423   3.691
86639W        W55044  44.574  15.310  13.303
86640W        W55045  15.579   4.152  11.891
86641W        W55046   3.752  12.451   3.522
86642W        W55047  19.023   5.813  10.782
86643W        W55048   6.720  28.073   1.205
86644W        W55049  35.269  28.310   4.399
86645W        W55050  27.614  22.022  12.020
86646W        W55051  15.073  12.206  13.298
86647W        W55052  31.686   0.423  12.347
86648W        W55053   4.675  30.687  13.517
86649W        W55054  12.164  39.027   3.398
86650W        W55055  24.132  21.348   3.786
86651W        W55056   5.812  41.803   0.453
86652W        W55057  37.811  43.370   0.944
86653W        W55058  11.698   6.409   1.821
86654W        W55059   9.057  17.508   2.184
86655W        W55060  37.298  32.636  11.290
86656W        W55061  21.363  29.094  11.085
86657W        W55062  27.002  43.829  10.796
86658W        W55063  32.428  19.575  11.088
86659W        W55064  42.545   8.214  12.964
86660W        W55065  28.994   7.790   0.012
86661W        W55066  23.475  20.616   4.141
86662W        W55067  37.091   5.711   2.323
86663W        W55068   4.831  34.297   2.337
86664W        W55069  20.184  16.604  13.347
86665W        W55070  32.957  40.012   1.277
86666W        W55071  21.590  15.480  12.522
86667W        W55072  15.481  42.790   3.719
86668W        W55073  29.882  28.870   2.303
86669W        W55074  20.643  18.092   3.901
86670W        W55075  29.620   4.404   1.440
86671W        W55076  24.348  27.599   4.601
86672W        W55077  14.953   0.975  13.946
86673W        W55078  31.249   8.345   3.919
86674W        W55079   0.015  42.887  12.444
86675W        W55080  25.628  35.866  14.170
86676W        W55081  42.834  26.444   1.992
86677W        W55082  38.921  35.817   4.490
86678W        W55083  38.516  12.202  10.580
86679W        W55084  11.868  11.134  11.020
86680W        W55085   5.270  14.909  14.857
86681W        W55086   8.167  31.483  14.368
86682W        W55087  40.345  11.310  12.590
86683W        W55088  38.278   2.437   4.493
86684W        W55089  34.409  41.838   2.933
86685W        W55090  12.119  32.011  14.900
86686W        W55091  33.919  14.649  14.760
86687W        W55092  18.010  15.917   4.161
86688W        W55093   2.479  23.176   2.779
86689W        W55094   3.224  35.408  13.295
86690W        W55095   3.041  27.607  11.442
86691W        W55096  20.688   3.618  12.671
86692W        W55097   3.902   7.787  13.338
86693W        W55098  37.932  14.795   4.045
86694W        W55099   7.787   6.653  13.323
86695W        W55100  35.355  20.093  10.824
86696W        W55101   0.659  22.529  11.690
86697W        W55102  19.821  23.134  14.529
86698W        W55103   0.886  34.451   0.423
86699W        W55104  27.788  42.743   2.170
86700W        W55105   2.063  23.138  11.610
86701W        W55106  25.554  13.721   0.227
86702W        W55107  42.449  34.694  14.319
86703W        W55108  42.284  22.025   3.547
86704W        W55109  15.871  37.461  12.904
86705W        W55110  40.123  12.713  10.471
86706W        W55111  26.621   4.271   3.659
86707W        W55112  43.569   7.757  13.495
86708W        W55113  43.515  26.187   3.717
86709W        W55114  25.459  18.502   0.718
86710W        W55115  36.058  30.299  13.504
86711W        W55116  15.992   0.335  12.847
86712W        W55117   1.094  33.061  11.113
86713W        W55118  17.837   8.260   4.523
86714W        W55119  10.239   6.112   3.636
86715W        W55120   9.965  37.096   0.475
86716W        W55121   4.326   6.147   1.265
86717W        W55122  20.750  30.886   2.869
86718W        W55123  25.146  41.681  13.261
86719W        W55124  14.856  35.090  12.173
86720W        W55125  20.929  14.627   4.233
86721W        W55126  43.364  33.893   4.125
86722W        W55127   6.760  13.565   3.532
86723W        W55128  37.993  17.950  10.702
86724W        W55129  30.894  18.324   2.939
86725W        W55130  16.882  27.530  14.211
86726W        W55131   5.775   2.250  12.139
86727W        W55132  31.304  20.266  13.573
86728W        W55133  25.070   7.408   3.403
86729W        W55134  35.777  28.419   4.444
86730W        W55135  23.021  36.680   1.765
86731W        W55136   7.740  29.756  14.998
86732W        W55137  10.368  28.136   3.306
86733W        W55138  32.618  37.388  10.717
86734W        W55139  38.099   6.156   4.117
86735W        W55140   5.343  34.111  14.832
86736W        W55141  24.994  20.675   2.419
86737W        W55142   7.647  10.333  11.475
86738W        W55143  12.389  16.273   4.267
86739W        W55144  24.184  18.054   0.753
86740W        W55145  23.701  17.590   4.135
86741W        W55146  35.147  25.201   2.867
86742W        W55147   9.158  21.059   0.751
86743W        W55148   5.943   7.254  11.130
86744W        W55149   9.100  22.976  12.178
86745W        W55150  35.807   6.454  12.552
86746W        W55151  31.346  14.458  13.896
86747W        W55152  14.604  35.835   1.736
86748W        W55153  11.724  21.506  12.866
86749W        W55154  31.077  43.652  14.186
86750W        W55155  23.815  11.468   1.341
86751W        W55156  19.833  40.991  13.780
86752W        W55157  22.245  27.402  12.379
86753W        W55158  38.597  30.202  11.494
86754W        W55159  12.650  37.487   0.814
86755W        W55160  10.395  24.994   1.798
86756W        W55161   9.970  21.114  13.158
86757W        W55162  29.706  11.097   0.703
86758W        W55163  29.839  40.785   3.571
86759W        W55164  32.545   9.789  12.671
86760W        W55165  39.942   1.819  14.568
86761W        W55166  41.943  28.994   4.551
86762W        W55167   1.702  18.251   4.222
86763W        W55168  13.051   1.582   0.157
86764W        W55169  32.454  13.973   2.702
86765W        W55170  23.246  18.060  14.487
86766W        W55171  11.203   2.444  11.144
86767W        W55172  37.957  13.226   1.490
86768W        W55173   6.168  38.277  13.523
86769W        W55174  36.525  16.069  10.719
86770W        W55175  21.776  29.227  10.829
86771W        W55176  32.512  32.559   0.912
86772W        W55177  27.558  33.196   0.890
86773W        W55178  27.123  11.883  11.417
86774W        W55179  16.445  25.872   0.671
86775W        W55180   0.288  13.258  10.708
86776W        W55181  28.500  26.756   1.552
86777W        W55182   9.670  20.801   1.162
86778W        W55183  31.453  13.353  11.629
86779W        W55184  36.300  37.119  12.492
86780W        W55185  37.618  30.079   2.737
86781W        W55186   0.206  11.136  13.469
86782W        W55187   7.851  31.643   1.462
86783W        W55188  10.802  10.559   0.599
86784W        W55189  22.194  12.987   0.308
86785W        W55190  31.009   9.183   1.002
86786W        W55191  19.652  13.352   0.109
86787W        W55192   3.592  34.392  13.184
86788W        W55193  42.738  24.483  11.093
86789W        W55194   9.986  13.855   4.199
86790W        W55195  38.347  41.010  14.439
86791W        W55196  29.547  16.253   0.596
86792W        W55197  27.765  30.481  12.644
86793W        W55198  16.768   1.479  13.096
86794W        W55199   7.887  30.666  10.645
86795W        W55200   9.301   5.863  11.896
86796W        W55201  25.663  39.520  13.646
86797W        W55202   1.347  20.170  11.554
86798W        W55203  39.367  31.684  13.329
86799W        W55204  23.218  12.703  11.508
86800W        W55205  16.164  41.485   3.264
86801W        W55206   8.918  20.710  11.139
86802W        W55207  21.669   4.193  12.681
86803W        W55208  13.640  36.203  12.627
86804W        W55209   7.251  39.333  14.978
86805W        W55210  40.061   9.213  13.772
86806W        W55211  41.549  32.583  12.113
86807W        W55212  18.155  33.669  12.396
86808W        W55213  15.157  35.366  14.652
86809W        W55214  38.479  11.342  13.330
86810W        W55215  30.598  36.354   4.336
86811W        W55216  28.483  15.604  12.031
86812W        W55217  16.207   5.939  14.921
86813W        W55218   0.787  28.592  10.928
86814W        W55219  32.965  34.268   0.424
86815W        W55220  33.833  19.131   4.631
86816W        W55221   8.923  42.583  14.364
86817W        W55222  18.342  10.793   0.170
86818W        W55223   5.462   4.245  11.452
86819W        W55224  21.979   7.263  14.428
86820W        W55225   8.282  30.211   3.141
86821W        W55226   3.280  15.811  10.659
86822W        W55227   6.385  44.908   0.491
86823W        W55228   9.653  18.633   5.353
86824W        W55229  29.115   2.283  13.018
86825W        W55230  14.392   5.139  12.461
86826W        W55231   6.985  19.179   2.851
86827W        W55232  42.975  14.628  14.903
86828W        W55233  23.094   1.243  11.041
86829W        W55234   4.078   1.157   2.263
86830W        W55235   8.473  13.388   2.650
86831W        W55236  32.046  39.189  11.661
86832W        W55237  30.187  19.038   2.248
86833W        W55238  41.615  37.969  14.851
86834W        W55239  17.222  30.549   4.043
86835W        W55240  27.735  43.265  11.737
86836W        W55241  29.552  41.281  14.536
86837W        W55242  27.220  35.577  14.001
86838W        W55243  18.418  42.387  10.683
86839W        W55244  37.462   0.834   1.031
86840W        W55245  20.751  10.491  12.204
86841W        W55246  26.154  43.744   1.914
86842W        W55247  38.083  24.572  12.432
86843W        W55248   7.310  22.480   3.265
86844W        W55249   6.893  36.884   2.876
86845W        W55250   9.917  16.146  12.641
86846W        W55251  32.430  30.595  12.017
86847W        W55252  29.683   6.371  13.811
86848W        W55253  26.874  19.307   5.060
86849W        W55254  31.468  32.388   2.621
86850W        W55255   3.978  32.033  10.725
86851W        W55256  24.215  31.716   2.323
86852W        W55257   1.013   2.610  12.057
86853W        W55258  13.302  10.790  10.401
86854W        W55259   7.709  19.671  13.514
86855W        W55260  35.067  38.588   4.114
86856W        W55261   4.598   0.032  14.767
86857W        W55262  27.024  18.293   2.713
86858W        W55263  29.539  43.009   4.550
86859W        W55264  13.473   2.837   4.196
86860W        W55265  13.725  30.452   0.927
86861W        W55266  28.709  38.450   1.766
86862W        W55267   7.438  15.961   1.997
86863W        W55268  20.245  33.785   1.829
86864W        W55269  32.438   2.751  10.903
86865W        W55270  29.718  19.579   4.656
86866W        W55271   1.182  41.396   1.811
86867W        W55272  39.513  29.116  14.101
86868W        W55273  13.660   8.373   3.397
86869W        W55274  20.915   3.478  14.761
86870W        W55275  26.589  16.975   2.768
86871W        W55276  10.815   9.712   0.716
86872W        W55277   2.725  43.821  11.653
86873W        W55278   0.722  13.037  14.816
86874W        W55279  42.005  29.388   3.716
86875W        W55280  20.119  19.606   0.155
86876W        W55281  44.460  33.224  11.944
86877W        W55282  30.361  17.607  11.813
86878W        W55283  16.517  18.146   4.071
86879W        W55284  33.405   1.267  11.630
86880W        W55285   4.409  30.598  10.497
86881W        W55286   0.697  29.056  11.225
86882W        W55287   5.890  40.819   3.859
86883W        W55288   2.383  34.138  12.488
86884W        W55289  20.273  37.208  14.291
86885W        W55290  22.559   6.910   4.672
86886W        W55291  33.185  32.977  10.675
86887W        W55292  12.171  27.782   1.091
86888W        W55293   2.692  13.990  11.146
86889W        W55294  26.292  16.593   4.495
86890W        W55295   0.975   6.421   2.295
86891W        W55296  36.990  10.389   4.865
86892W        W55297  42.969   0.800  12.925
86893W        W55298  36.903  27.491   3.248
86894W        W55299  39.090  40.373   4.770
86895W        W55300  36.193  37.032  13.628
86896W        W55301  33.367  37.312  14.810
86897W        W55302  19.087  39.464  14.149
86898W        W55303   6.032  44.397   4.543
86899W        W55304  28.689  40.364   4.427
86900W        W55305  15.877  23.176  14.658
86901W        W55306  34.640  39.644   4.183
86902W        W55307   2.011  39.328  12.337
86903W        W55308  24.557   1.779  12.523
86904W        W55309   2.314   3.254   4.243
86905W        W55310   8.781  34.278   4.224
86906W        W55311  16.714  15.812   3.709
86907W        W55312   7.427  14.268   3.303
86908W        W55313  17.517   2.809  11.260
86909W        W55314  19.342  24.041   0.705
86910W        W55315  31.000  41.858  11.123
86911W        W55316  17.257  19.487   4.021
86912W        W55317  17.755  11.143   1.482
86913W        W55318  15.179   5.487   3.291
86914W        W55319  30.887  34.948   1.932
86915W        W55320  14.142  24.738  12.234
86916W        W55321  26.076  42.919  14.495
86917W        W55322   2.625  38.336  10.771
86918W        W55323  29.499   1.180  14.747
86919W        W55324   3.929   3.305   3.111
86920W        W55325  31.213  19.847   4.199
86921W        W55326  32.475  25.683  10.714
86922W        W55327  33.342   6.610  14.299
86923W        W55328  26.096  30.138   0.078
86924W        W55329  34.031  15.063  13.894
86925W        W55330  14.793  15.540   0.252
86926W        W55331  21.761  17.064  14.930
86927W        W55332   3.708   1.425  14.944
86928W        W55333   1.559  39.566  12.089
86929W        W55334  41.608   4.444   4.082
86930W        W55335  12.940   5.733   0.928
86931W        W55336  31.565  29.495   1.890
86932W        W55337  43.617  13.779   0.947
86933W        W55338  31.545  24.741  12.888
86934W        W55339  26.150  42.024   0.011
86935W        W55340  32.703  42.558   2.764
86936W        W55341  26.103  13.796   4.963
86937W        W55342  30.696  17.533  13.913
86938W        W55343  10.372  37.940  10.638
86939W        W55344   6.271  18.165   5.490
86940W        W55345  30.258  22.047  12.557
86941W        W55346   1.281  38.465  10.497
86942W        W55347  22.591  35.735  10.737
86943W        W55348   5.910   3.650   3.820
86944W        W55349   1.427   2.870  11.363
86945W        W55350  25.660  35.119   2.473
86946W        W55351  43.750  37.596  14.330
86947W        W55352  15.135  18.547  13.113
86948W        W55353   4.606   4.707  14.876
86949W        W55354   7.940  32.484  12.947
86950W        W55355  29.754  11.967   0.947
86951W        W55356   3.171   6.868  11.647
86952W        W55357  18.697   1.360   4.699
86953W        W55358  13.640  44.977   1.151
86954W        W55359   0.763  16.069   2.171
86955W        W55360   8.963   7.314  12.888
86956W        W55361  26.845   6.688  10.603
86957W        W55362  26.380  16.353   4.962
86958W        W55363  25.902   8.185   0.283
86959W        W55364  15.838  32.379   1.826
86960W        W55365  16.924   8.091   0.404
86961W        W55366   4.266   9.366   2.925
86962W        W55367  36.141  34.083  12.800
86963W        W55368  10.868   4.196  12.618
86964W        W55369  19.566  26.486  14.014
86965W        W55370  42.329  43.426   1.650
86966W        W55371  25.557  17.858   2.248
86967W        W55372   9.714  17.564   0.335
86968W        W55373  17.240  41.479   0.824
86969W        W55374  13.044  32.882  10.717
86970W        W55375  35.118  32.083  14.381
86971W        W55376  25.734   8.221  14.414
86972W        W55377   3.693   1.862   3.439
86973W        W55378  33.453   7.537  11.586
86974W        W55379  15.203  41.574  13.255
86975W        W55380  40.365  40.232  12.450
86976W        W55381  14.241  15.042  13.174
86977W        W55382  43.949  15.291   4.798
86978W        W55383  29.359  41.963   5.013
86979W        W55384  42.876   1.865   1.538
86980W        W55385  19.190  19.319  13.285
86981W        W55386   6.748  39.878   0.369
86982W        W55387   6.180  21.630  11.956
86983W        W55388  41.493  41.761  14.721
86984W        W55389  34.859  44.013  13.418
86985W        W55390   8.195  44.897   4.244
86986W        W55391  16.024  28.998   1.916
86987W        W55392  24.201  37.017  12.404
86988W        W55393   3.812  21.480   0.214
86989W        W55394  41.314  23.941   3.091
86990W        W55395  31.397  37.353   2.885
86991W        W55396  10.862   7.429   3.174
86992W        W55397  35.990  36.569   2.787
86993W        W55398  41.979  40.244   3.976
86994W        W55399  24.995   8.899  10.533
86995W        W55400  12.894  41.550   1.508
86996W        W55401  13.310  31.163   1.858
86997W        W55402  27.194  21.370   0.846
86998W        W55403  10.771  15.962   1.298
86999W        W55404  37.610   4.153   0.279
87000W        W55405  11.041  31.087  14.733
87001W        W55406   8.050  19.574  14.921
87002W        W55407  32.084  12.086  13.428
87003W        W55408   0.806  25.489  12.485
87004W        W55409   3.213   9.282  12.850
87005W        W55410   9.415  42.779   1.804
87006W        W55411  36.122  12.274  10.609
87007W        W55412  28.608  19.141  14.327
87008W        W55413  25.085   3.002   2.747
87009W        W55414  10.185  19.031   3.168
87010W        W55415  14.334  22.753   2.741
87011W        W55416  44.485   4.164  13.931
87012W        W55417  18.167  16.088   0.376
87013W        W55418  19.817   0.278   1.660
87014W        W55419  28.120  31.055   2.357
87015W        W55420   3.209   8.181   1.395
87016W        W55421  15.683  43.339   1.881
87017W        W55422  22.104  38.136   0.645
87018W        W55423   3.927  15.754   0.586
87019W        W55424  19.127  29.904   1.387
87020W        W55425   7.349  11.387  10.623
87021W        W55426   1.595  23.015   0.342
87022W        W55427  32.465   0.771  13.847
87023W        W55428  44.112  19.514  14.151
87024W        W55429  39.524   4.759   3.449
87025W        W55430  24.701  22.420   3.290
87026W        W55431  39.912  33.693  14.415
87027W        W55432  29.718   2.323   1.910
87028W        W55433  28.422  11.729   2.372
87029W        W55434  29.888  13.710  13.007
87030W        W55435  20.150  23.725   4.288
87031W        W55436  16.639   7.744  12.590
87032W        W55437  23.093  40.119  14.139
87033W        W55438  30.863  38.946  14.733
87034W        W55439  33.033  21.355  11.557
87035W        W55440  43.931   3.057   4.771
87036W        W55441  44.745  30.987   0.367
87037W        W55442  32.439  29.584  12.408
87038W        W55443  26.213   8.413   2.634
87039W        W55444  19.135  36.475   1.410
87040W        W55445  42.398  30.172  10.568
87041W        W55446   9.148  12.446  10.623
87042W        W55447  14.603  11.620  12.569
87043W        W55448  24.172   4.174  13.838
87044W        W55449   2.936  43.809   3.130
87045W        W55450  25.128   2.051   0.468
87046W        W55451  43.779   5.848   2.697
87047W        W55452  39.305  29.817   2.703
87048W        W55453  15.127  22.493  14.537
87049W        W55454  38.874  34.874   1.018
87050W        W55455  42.248  26.398  10.523
87051W        W55456  40.510  43.420   0.998
87052W        W55457  33.921  27.857   0.431
87053W        W55458  37.762  42.908   3.983
87054W        W55459   6.175  19.023  11.651
87055W        W55460  40.400  44.556   5.028
87056W        W55461   1.416  33.080   0.324
87057W        W55462  22.027  33.617  13.780
87058W        W55463  44.974  35.684  12.030
87059W        W55464  43.340  20.685  12.364
87060W        W55465  14.872   6.414   1.269
87061W        W55466   1.415  24.393   2.428
87062W        W55467  15.156   1.201  12.499
87063W        W55468  36.284  28.592   3.708
87064W        W55469  41.284  41.496  13.791
87065W        W55470  18.437  24.187  10.778
87066W        W55471  26.196  44.726   0.379
87067W        W55472  27.919  11.134   4.097
87068W        W55473  14.669  24.131   3.841
87069W        W55474  36.559  39.565  13.964
87070W        W55475  25.162  18.201  11.191
87071W        W55476  38.317   3.256  13.584
87072W        W55477  39.463  26.214  12.041
87073W        W55478  40.253  42.753   0.262
87074W        W55479  21.290  14.338   1.045
87075W        W55480  43.068   3.959   3.986
87076W        W55481   2.011  21.684   0.723
87077W        W55482  26.486   8.181  11.447
87078W        W55483   4.601  35.506  12.273
87079W        W55484  24.615  40.562   3.754
87080W        W55485  26.599   7.866   2.651
87081W        W55486  40.693  24.372  11.321
87082W        W55487  40.322  24.703   1.832
87083W        W55488  23.529   7.426   1.401
87084W        W55489  23.685   7.952   4.169
87085W        W55490  25.473  37.401  13.586
87086W        W55491  30.913  13.450  11.565
87087W        W55492  42.478  10.696   3.287
87088W        W55493  33.450  29.538  10.628
87089W        W55494  26.184  16.196  10.239
87090W        W55495  24.244   5.203  14.796
87091W        W55496  13.292   6.786   0.314
87092W        W55497   4.845  42.306   1.890
87093W        W55498   2.436  21.217   5.023
87094W        W55499   7.249   3.831  13.920
87095W        W55500  24.024  44.886   3.213
87096W        W55501  34.531  20.822   3.904
87097W        W55502   2.948  38.364  14.854
87098W        W55503  43.278  12.434  12.283
87099W        W55504  17.457   0.333   0.862
87100W        W55505  44.866  26.103  13.034
87101W        W55506  23.186  34.446  10.676
87102W        W55507  33.341  28.515   0.457
87103W        W55508  36.414  21.631   2.038
87104W        W55509  41.868  21.079  11.644
87105W        W55510  34.154  27.667   2.360
87106W        W55511  37.864   2.263  12.633
87107W        W55512  40.946  10.599  14.844
87108W        W55513  17.203   4.462   2.359
87109W        W55514  23.562  35.091  14.387
87110W        W55515   1.515  31.139  12.644
87111W        W55516   6.166  29.057   0.846
87112W        W55517   3.254  13.688   3.736
87113W        W55518  41.509  38.302   4.618
87114W        W55519   8.822   6.454  13.526
87115W        W55520   2.925  35.956  10.811
87116W        W55521   8.632   4.435  14.704
87117W        W55522   6.152  30.747   2.828
87118W        W55523   9.307  38.052  12.433
87119W        W55524  37.121  23.110   2.860
87120W        W55525  16.693  35.608  13.548
87121W        W55526  14.662  15.580  10.485
87122W        W55527  31.655  30.631   0.107
87123W        W55528  20.835   1.299   0.763
87124W        W55529   8.757  23.667  13.611
87125W        W55530  25.688   3.738  14.038
87126W        W55531  30.497  10.659  13.963
87127W        W55532  25.988  34.333  13.015
87128W        W55533  26.165  26.175  13.388
87129W        W55534  32.929   8.421  13.056
87130W        W55535  40.530  44.587  13.036
87131W        W55536  34.606  13.766   0.000
87132W        W55537  17.241  26.543   3.891
87133W        W55538   6.436  30.408  10.633
87134W        W55539   8.271  35.054  13.391
87135W        W55540   6.426   3.200   9.847
87136W        W55541  21.639   3.479   0.281
87137W        W55542  18.563  42.554  13.858
87138W        W55543  32.107  38.869  11.249
87139W        W55544   3.182  34.332  12.062
87140W        W55545  22.665  29.236  11.708
87141W        W55546  24.536  34.920   3.240
87142W        W55547   7.627  16.205  12.912
87143W        W55548   1.813  15.577  12.017
87144W        W55549  15.017  28.750  13.462
87145W        W55550   9.617  26.081   0.437
87146W        W55551  18.171  36.659  11.816
87147W        W55552  26.674  17.261   1.773
87148W        W55553  43.599  17.703   1.461
87149W        W55554  38.130  36.378   3.273
87150W        W55555   6.724  10.923   4.147
87151W        W55556  20.483  11.783   1.265
87152W        W55557  12.058  19.266   3.073
87153W        W55558  27.013  44.006  12.940
87154W        W55559   4.655  11.706  14.935
87155W        W55560  23.472   1.915  13.104
87156W        W55561   8.370  19.626   4.910
87157W        W55562  21.086  22.615  13.891
87158W        W55563  14.343  26.888   0.321
87159W        W55564  21.169  15.096   4.156
87160W        W55565  28.003  34.102  10.382
87161W        W55566  31.443  38.327  13.211
87162W        W55567  31.694  34.192   4.029
87163W        W55568  38.161  13.738  11.161
87164W        W55569  26.095  32.673   2.139
87165W        W55570  35.340  43.338   4.488
87166W        W55571  34.960   2.752   0.815
87167W        W55572  22.012  17.547  14.926
87168W        W55573  16.550  41.921  13.253
87169W        W55574  28.325   4.703   2.837
87170W        W55575  17.854   9.754   3.353
87171W        W55576  40.662  18.094  10.721
87172W        W55577  36.354  37.432  13.102
87173W        W55578   6.445  23.716   3.022
87174W        W55579  20.195  44.532   2.901
87175W        W55580  34.933  39.040  12.997
87176W        W55581  24.246  18.314  14.419
87177W        W55582  15.316  27.636   3.321
87178W        W55583  30.945  12.313   1.291
87179W        W55584  14.335   4.712   4.136
87180W        W55585  28.440  36.113  11.600
87181W        W55586  33.240  13.349  13.446
87182W        W55587  34.387  21.585  11.138
87183W        W55588  24.112  23.073  14.280
87184W        W55589  41.074  25.935   0.368
87185W        W55590  15.719  25.163  12.405
87186W        W55591  10.499  38.813  13.958
87187W        W55592   7.342  17.917   2.960
87188W        W55593  30.130   1.246  11.583
87189W        W55594  23.787  14.773   0.738
87190W        W55595  38.802  23.655   4.195
87191W        W55596  44.007  15.822   1.744
87192W        W55597   0.034  34.067  11.156
87193W        W55598   4.948  39.448  11.402
87194W        W55599  11.872  21.793  12.444
87195W        W55600  22.669   8.854   2.006
87196W        W55601  12.622  26.578   1.733
87197W        W55602   1.048  18.673   4.609
87198W        W55603  19.038   5.636  14.368
87199W        W55604  21.675  37.978   0.376
87200W        W55605   7.449  14.226  11.177
87201W        W55606   6.819  24.701   1.792
87202W        W55607  41.264  36.016  14.682
87203W        W55608  23.158  20.264  11.455
87204W        W55609  20.668  28.976   3.367
87205W        W55610   4.374  17.687  12.930
87206W        W55611  23.670  15.944   4.725
87207W        W55612  17.052  35.482  12.292
87208W        W55613  40.667  40.229   1.387
87209W        W55614  31.662  35.999  12.443
87210W        W55615  33.143  27.227  12.539
87211W        W55616  13.442   1.901   0.947
87212W        W55617  42.114  36.307   3.175
87213W        W55618  35.887  21.767  14.122
87214W        W55619  22.017   1.363  10.859
87215W        W55620  39.870   7.197   4.482
87216W        W55621  43.754  31.134   1.853
87217W        W55622  41.836  28.056   2.701
87218W        W55623  17.188  35.186   1.952
87219W        W55624  17.316  44.410  10.026
87220W        W55625  19.007  32.009   2.278
87221W        W55626  43.007  30.536  13.175
87222W        W55627  43.287  21.256  13.112
87223W        W55628  20.929   7.880  11.718
87224W        W55629  34.305  14.250   3.630
87225W        W55630  29.339  30.023   2.519
87226W        W55631   6.273  26.919   1.202
87227W        W55632  36.531  31.064  14.957
87228W        W55633  25.134   7.315  14.454
87229W        W55634  10.790  25.966   1.202
87230W        W55635  41.941  41.433   3.979
87231W        W55636   4.741  11.689  12.968
87232W        W55637  15.665   5.135  14.935
87233W        W55638   9.126  40.355   2.352
87234W        W55639  10.789  26.564  14.432
87235W        W55640  16.957   3.999  11.092
87236W        W55641  17.458   5.060   5.035
87237W        W55642   5.159   9.875  11.207
87238W        W55643  23.478  28.152  11.548
87239W        W55644   6.253  32.632  11.223
87240W        W55645   9.551  21.210  10.653
87241W        W55646   1.411  18.648   0.460
87242W        W55647  25.822   0.249   4.600
87243W        W55648  37.855   3.974   3.754
87244W        W55649   3.504  39.104   4.212
87245W        W55650   7.030  28.269   9.720
87246W        W55651   8.541  42.358   0.246
87247W        W55652  35.868   0.992  10.600
87248W        W55653  27.031  44.838   2.867
87249W        W55654  44.535  17.824   2.699
87250W        W55655  25.637  25.134   4.308
87251W        W55656  27.645   5.456  14.585
87252W        W55657   6.421  31.181   2.661
87253W        W55658  15.558  10.800   2.337
87254W        W55659  35.142  36.045  10.344
87255W        W55660  43.371   0.421  12.855
87256W        W55661  30.202  11.402   2.904
87257W        W55662  28.530   8.165   1.364
87258W        W55663   6.031  41.305   5.041
87259W        W55664   2.494  35.931   2.269
87260W        W55665  16.045   7.196   2.343
87261W        W55666  25.613   5.404  11.326
87262W        W55667  44.275  33.484   3.164
87263W        W55668  19.088  38.334   0.088
87264W        W55669  33.181   4.695   1.006
87265W        W55670  12.531  31.018  12.514
87266W        W55671   5.376  14.156  11.247
87267W        W55672  27.730   8.445  14.462
87268W        W55673  44.292  12.809  13.907
87269W        W55674  32.094  20.735  10.650
87270W        W55675  26.127   9.382  12.091
87271W        W55676  27.973  34.891  12.399
87272W        W55677   5.781  12.157  11.810
87273W        W55678  17.354  13.651  13.113
87274W        W55679   7.868  30.610  14.101
87275W        W55680  15.351   7.236  14.311
87276W        W55681  11.299  41.336   4.962
87277W        W55682  13.781   4.422  14.769
87278W        W55683   2.318  39.303   4.450
87279W        W55684   4.358  28.306  13.483
87280W        W55685  35.437  25.245   0.718
87281W        W55686   7.947   0.874   4.266
87282W        W55687  43.244  24.474   4.308
87283W        W55688  15.810  23.224  11.600
87284W        W55689  21.984  44.905   0.064
87285W        W55690  15.259  13.704   1.012
87286W        W55691  31.581  24.719   3.453
87287W        W55692  12.906  41.370   1.987
87288W        W55693  37.003  21.951  14.365
87289W        W55694  24.653  34.608  14.376
87290W        W55695  36.468  38.460   3.760
87291W        W55696   9.942  41.344  10.710
87292W        W55697  32.088   5.420  11.981
87293W        W55698   9.247  29.216  11.679
87294W        W55699  27.715  36.759   4.509
87295W        W55700  44.503  19.389  14.439
87296W        W55701  11.004  10.616   2.313
87297W        W55702  31.974  27.705   4.575
87298W        W55703  33.998  36.666   3.391
87299W        W55704  16.149  14.679   1.932
87300W        W55705  44.915  29.722  11.469
87301W        W55706   0.456  43.042   0.336
87302W        W55707  13.694  10.455  14.985
87303W        W55708   7.188  10.766   1.701
87304W        W55709  26.429  21.586  12.965
87305W        W55710  34.593  19.575   1.276
87306W        W55711  42.172  32.471   0.208
87307W        W55712  11.130  19.174   4.330
87308W        W55713  14.097  42.533  10.740
87309W        W55714  41.658  20.679   0.249
87310W        W55715  44.275  27.674   0.890
87311W        W55716  12.306   5.406   2.336
87312W        W55717   6.268  23.202  11.847
87313W        W55718  31.185   6.433  11.612
87314W        W55719   4.279  11.336   4.958
87315W        W55720  30.514   6.405  14.215
87316W        W55721  43.426  16.113   4.245
87317W        W55722  31.580   7.511   2.984
87318W        W55723   3.871   9.942  10.441
87319W        W55724  34.675  34.526  13.358
87320W        W55725  19.050  39.895   4.000
87321W        W55726  38.491  37.106  14.484
87322W        W55727   9.577  28.439   2.395
87323W        W55728  25.520  44.515   4.367
87324W        W55729   8.774  39.031  12.872
87325W        W55730   6.318  21.585   4.576
87326W        W55731  43.946  20.553   3.700
87327W        W55732   0.910  20.470  11.732
87328W        W55733  13.437  32.840  14.607
87329W        W55734   0.007  38.343  10.983
87330W        W55735   4.473  18.325   1.363
87331W        W55736  41.980  38.567   3.737
87332W        W55737  24.638  43.995  11.088
87333W        W55738  34.926  37.037   0.237
87334W        W55739  18.762  18.343   1.653
87335W        W55740  17.097  14.557   0.181
87336W        W55741   5.548  16.093   4.417
87337W        W55742   8.000   9.865  13.036
87338W        W55743  21.154   3.419   4.591
87339W        W55744  26.594   6.625   1.861
87340W        W55745  38.778  29.883   2.054
87341W        W55746  35.306  41.358  14.191
87342W        W55747   9.465  41.919   3.672
87343W        W55748  29.891  31.722  14.371
87344W        W55749   9.673  32.545   2.722
87345W        W55750  42.469   3.449  12.810
87346W        W55751  20.710   1.019   5.034
87347W        W55752   2.147  18.552  11.085
87348W        W55753  44.405  44.367   5.108
87349W        W55754  44.976  38.573   1.823
87350W        W55755  42.783   4.330  12.545
87351W        W55756  15.575  29.445   1.049
87352W        W55757  44.691  18.321  10.753
87353W        W55758  41.039   6.150   5.696
87354W        W55759  39.379  29.903  11.858
87355W        W55760  43.702  19.583  14.451
87356W        W55761  41.291  42.421  10.491
87357W        W55762  28.506  21.772  13.934
87358W        W55763  42.794  43.371  11.835
87359W        W55764  42.423  15.740   3.933
87360W        W55765   5.931  16.706  10.816
87361W        W55766   7.305  10.849  13.515
87362W        W55767  24.243  40.930  14.620
87363W        W55768  22.683   2.705  13.485
87364W        W55769   2.974  29.009   2.638
87365W        W55770  38.875  12.096  11.155
87366W        W55771  27.979   5.158   1.840
87367W        W55772  34.357  20.308  13.458
87368W        W55773  16.950  22.516  12.949
87369W        W55774  16.391  34.517   3.292
87370W        W55775   9.629  17.525  14.430
87371W        W55776  11.006  14.133   5.066
87372W        W55777   2.518   0.941   4.101
87373W        W55778  31.676  21.458   0.493
87374W        W55779  20.373  32.794   0.072
87375W        W55780  33.056  44.756   1.483
87376W        W55781   7.708  12.911   0.404
87377W        W55782  38.497  12.279  13.675
87378W        W55783  12.785  34.714  11.451
87379W        W55784   5.283  24.795   0.334
87380W        W55785  13.421  35.620   4.998
87381W        W55786  22.129   1.776  14.766
87382W        W55787  11.090  14.234  12.639
87383W        W55788  40.572  19.152  14.197
87384W        W55789  16.891  11.250  12.976
87385W        W55790  20.860   5.519   1.495
87386W        W55791   9.347  39.924   1.588
87387W        W55792  13.843  32.424  10.666
87388W        W55793  42.984   6.929  13.331
87389W        W55794  11.251   8.660  12.932
87390W        W55795  18.213  16.589   2.500
87391W        W55796  26.281  35.659  13.785
87392W        W55797  26.474  11.912   2.336
87393W        W55798  44.809  13.409   3.407
87394W        W55799  14.262  17.681   2.430
87395W        W55800  22.652  18.486   3.759
87396W        W55801  33.941   4.641   2.736
87397W        W55802  24.545  30.889   4.278
87398W        W55803  15.170  36.652   5.219
87399W        W55804  27.539  16.330   3.152
87400W        W55805  29.081  29.228  12.855
87401W        W55806   9.746  12.428  13.348
87402W        W55807  38.247  26.542  11.923
87403W        W55808  37.988   0.386   2.992
87404W        W55809  34.084  41.480  14.573
87405W        W55810  38.883  28.126   3.673
87406W        W55811  19.739  25.227  13.152
87407W        W55812  28.016  39.288  13.624
87408W        W55813   3.783  41.241  10.694
87409W        W55814   6.269   6.587   3.274
87410W        W55815  21.613   1.835   2.674
87411W        W55816  33.412  25.190   2.822
87412W        W55817  39.588   8.009  11.945
87413W        W55818  14.927  31.995   0.389
87414W        W55819  10.165  40.923   1.727
87415W        W55820  39.471  27.560   1.269
87416W        W55821  33.348   2.751  10.813
87417W        W55822  25.983  40.792  13.058
87418W        W55823  38.639  23.305   9.980
87419W        W55824  26.433  31.676   2.505
87420W        W55825  25.699  16.947   4.122
87421W        W55826  24.001  32.382  14.010
87422W        W55827  41.888  10.717   1.492
87423W        W55828  34.154  10.612  14.558
87424W        W55829  24.111  43.326  13.493
87425W        W55830   5.176  10.244   1.323
87426W        W55831  10.211   6.942   1.707
87427W        W55832  26.603   3.238  11.523
87428W        W55833  44.857  10.752  10.374
87429W        W55834  23.528  28.540   1.832
87430W        W55835  28.007  20.258  12.024
87431W        W55836  33.367  44.982   5.005
87432W        W55837  39.052  32.410  13.910
87433W        W55838   0.818  32.011   4.564
87434W        W55839  22.234   1.682   2.661
87435W        W55840  26.746  39.202   3.687
87436W        W55841  43.977  39.457   3.697
87437W        W55842  42.230   4.145   1.742
87438W        W55843  19.993  41.425  14.062
87439W        W55844  31.856  15.272  12.962
87440W        W55845  33.171  23.229   0.659
87441W        W55846  23.071  31.116  13.390
87442W        W55847   3.735  38.817  10.259
87443W        W55848  24.184   6.385   3.378
87444W        W55849  18.132  28.054  13.276
87445W        W55850  31.209  14.868  12.433
87446W        W55851   6.409   1.445  13.036
87447W        W55852  15.150  14.067   2.153
87448W        W55853  25.201  44.409   3.315
87449W        W55854  19.874   8.321  12.691
87450W        W55855   3.153   3.548   4.602
87451W        W55856  11.262  34.463   0.299
87452W        W55857  25.753  31.005   2.881
87453W        W55858  39.992   3.611   1.283
87454W        W55859  25.763  38.527  13.364
87455W        W55860  44.908  17.513  11.648
87456W        W55861  22.429  38.514  12.057
87457W        W55862   3.418  14.382   2.306
87458W        W55863  31.613  44.499  14.825
87459W        W55864  33.232   6.454   1.434
87460W        W55865  36.264  38.298  12.060
87461W        W55866  13.143  42.881  12.414
87462W        W55867  13.581  40.482  11.121
87463W        W55868   2.361  35.615  11.194
87464W        W55869   9.254  32.195   2.753
87465W        W55870  29.930  30.931   4.212
87466W        W55871  33.853  23.548   0.975
87467W        W55872  43.847  43.393   3.696
87468W        W55873   4.817  42.925  12.762
87469W        W55874  29.497  11.334   0.287
87470W        W55875   9.227  43.416   2.662
87471W        W55876  41.510  36.947   4.023
87472W        W55877  13.838  42.261   0.391
87473W        W55878  24.073  34.635   0.911
87474W        W55879   6.849  21.262   1.647
87475W        W55880  23.525   9.923  12.281
87476W        W55881  35.547  11.404   0.944
87477W        W55882  25.986  39.566  13.244
87478W        W55883  35.261  27.507  13.805
87479W        W55884  18.592  13.706   4.086
87480W        W55885   9.741  15.657  14.313
87481W        W55886  30.152  38.774   0.404
87482W        W55887  17.067  23.454  11.408
87483W        W55888  15.277  33.735  12.851
87484W        W55889  12.111   0.781  11.597
87485W        W55890  20.985  21.727   2.309
87486W        W55891  42.108  20.658   1.159
87487W        W55892  10.649  23.794   0.352
87488W        W55893  35.915  32.244   2.616
87489W        W55894  20.932  30.672  11.970
87490W        W55895  30.017  20.149  11.435
87491W        W55896  34.603  21.823   2.347
87492W        W55897  29.626  44.063   3.744
87493W        W55898  33.629  18.776   2.708
87494W        W55899  20.286  41.028  14.270
87495W        W55900  23.316  31.710  12.412
87496W        W55901  16.649   2.501  12.150
87497W        W55902  30.484  41.560  14.218
87498W        W55903  33.566  20.760  13.023
87499W        W55904  41.832  21.264   1.916
87500W        W55905  36.147  15.074  12.481
87501W        W55906  33.430  20.212  11.615
87502W        W55907  22.175   8.740   4.734
87503W        W55908   7.011  15.918   4.621
87504W        W55909  39.085   6.475  11.483
87505W        W55910  42.052  27.165   1.257
87506W        W55911  35.384  42.562  11.186
87507W        W55912  42.763  36.609   3.724
87508W        W55913   9.428  32.831  12.431
87509W        W55914  28.182  26.149  11.826
87510W        W55915   0.813   4.787   2.640
87511W        W55916  21.540  28.439  11.596
87512W        W55917  37.859  14.903  13.010
87513W        W55918  43.035  38.616  14.043
87514W        W55919  32.830  11.849   4.475
87515W        W55920  28.489  17.029  12.933
87516W        W55921  14.706  13.792  13.122
87517W        W55922   5.443  28.693  13.122
87518W        W55923  36.869   2.438   5.066
87519W        W55924  15.730  15.798  13.131
87520W        W55925   3.816  17.377  10.374
87521W        W55926   5.458  34.738  14.419
87522W        W55927  15.467  20.759  14.682
87523W        W55928  16.953  11.572  12.510
87524W        W55929  37.575  43.610   0.527
87525W        W55930  23.744   9.235  10.693
87526W        W55931  37.948  41.096  11.556
87527W        W55932  11.747  39.917   2.659
87528W        W55933  12.242  44.817   1.294
87529W        W55934  16.821  12.145   1.745
87530W        W55935  40.785  13.183   2.601
87531W        W55936  31.776   1.660  10.127
87532W        W55937  33.855  19.122  11.729
87533W        W55938  18.185  39.983   3.926
87534W        W55939   9.393  29.047   3.176
87535W        W55940  22.823  21.185   2.794
87536W        W55941   2.268   8.369  14.764
87537W        W55942  16.246   2.791   1.694
87538W        W55943   7.089  36.602  11.559
87539W        W55944  32.962  22.459  14.902
87540W        W55945  26.588  17.649  12.123
87541W        W55946   3.531   7.589  12.372
87542W        W55947  13.203   8.190   3.234
87543W        W55948  22.921  36.772  11.857
87544W        W55949  14.741   3.390   0.216
87545W        W55950  17.588  43.808  12.126
87546W        W55951  38.030   9.291   2.236
87547W        W55952  28.048  23.004   1.584
87548W        W55953   1.476   0.678  11.141
87549W        W55954   0.728  32.757  12.889
87550W        W55955  17.689  34.404   4.683
87551W        W55956  37.325  13.191   2.935
87552W        W55957  27.976  30.344   3.948
87553W        W55958  18.666  10.124  11.069
87554W        W55959  24.156  23.774  10.712
87555W        W55960  17.395  40.296  10.174
87556W        W55961  30.573  40.924  13.056
87557W        W55962   4.913  39.067  14.946
87558W        W55963   3.296  16.103  12.557
87559W        W55964  36.394  40.007   4.268
87560W        W55965  31.473  30.341   4.938
87561W        W55966  36.882  16.310   0.354
87562W        W55967  44.918   2.391  12.964
87563W        W55968   7.829   0.906  13.944
87564W        W55969  10.818  19.695  14.437
87565W        W55970   9.215  40.797  11.589
87566W        W55971  20.545  36.639  13.926
87567W        W55972  10.634  37.378  12.837
87568W        W55973  24.637  42.771  12.586
87569W        W55974  44.043  31.361   4.876
87570W        W55975  25.476  27.374   2.399
87571W        W55976   0.353  30.160   2.464
87572W        W55977  30.957  17.547  10.574
87573W        W55978  20.979  22.651  12.958
87574W        W55979   7.710  30.259   4.534
87575W        W55980  36.278  14.645  10.763
87576W        W55981  20.622  26.360  11.927
87577W        W55982  28.757   0.949  12.704
87578W        W55983  10.437  30.226   3.358
87579W        W55984  42.057   0.952   3.686
87580W        W55985  21.040  20.008   3.737
87581W        W55986  27.502  28.962   2.700
87582W        W55987  13.623  27.778  11.208
87583W        W55988  33.381  21.888   0.719
87584W        W55989  19.553  10.738   3.837
87585W        W55990  15.692  19.167   4.418
87586W        W55991   9.645  25.949   4.215
87587W        W55992  35.543  17.517   0.526
87588W        W55993   6.541  33.559   1.896
87589W        W55994  36.995   2.712  11.032
87590W        W55995  43.809  21.532   3.988
87591W        W55996  14.297   9.290   9.944
87592W        W55997  33.634  31.349   4.094
87593W        W55998  38.841  40.326   1.464
87594W        W55999  24.173  42.423   1.015
87595W        W56000  35.138   7.177  12.547
87596W        W56001   1.505  15.173  10.681
87597W        W56002   0.274  44.277   3.640
87598W        W56003  23.212  21.069  11.616
87599W        W56004  32.612  31.840   0.322
87600W        W56005  20.334   1.730  11.692
87601W        W56006   9.765  40.752   4.141
87602W        W56007  32.604  30.259   2.349
87603W        W56008  22.717  31.895   0.713
87604W        W56009  15.627  32.458   3.659
87605W        W56010  44.966  19.720   4.399
87606W        W56011  17.799  29.621   1.766
87607W        W56012  21.465   8.591   4.142
87608W        W56013  41.324  33.515  14.222
87609W        W56014  30.997   5.936   0.341
87610W        W56015   2.516   2.854  11.870
87611W        W56016  22.986  42.487  11.656
87612W        W56017  19.643  18.745   4.119
87613W        W56018   1.291   5.113  13.964
87614W        W56019   9.654   2.079   3.805
87615W        W56020  10.249  30.260   0.349
87616W        W56021  36.825  11.808   0.836
87617W        W56022  16.109  22.617  10.842
87618W        W56023  40.798  27.138   2.718
87619W        W56024  23.813   9.076  11.803
87620W        W56025  44.747  12.399   4.324
87621W        W56026  16.359   7.467  12.955
87622W        W56027  25.746  17.071   3.171
87623W        W56028   9.105  34.162  14.711
87624W        W56029  13.706  43.183  11.437
87625W        W56030  13.498  28.915  13.836
87626W        W56031  27.055   0.960  12.523
87627W        W56032  22.441  15.802  14.125
87628W        W56033  27.938  16.086  13.837
87629W        W56034  38.313  19.701  13.017
87630W        W56035  41.801  29.964  12.523
87631W        W56036   8.864  33.561   3.041
87632W        W56037  26.887  17.222   0.823
87633W        W56038  21.431  13.602  11.218
87634W        W56039  21.007  40.924  10.978
87635W        W56040  33.044  36.357   2.356
87636W        W56041  43.740  39.455  13.060
87637W        W56042  17.246  15.485  12.474
87638W        W56043  14.013  26.522   4.530
87639W        W56044  13.333  18.546  12.244
87640W        W56045  17.983  26.486   4.520
87641W        W56046   4.806  31.608   2.386
87642W        W56047   4.752  35.803   0.630
87643W        W56048  42.076   7.494   4.929
87644W        W56049  18.559   7.983  13.342
87645W        W56050  11.844  23.669  11.263
87646W        W56051  23.102  44.015  12.408
87647W        W56052  39.624  26.546  11.660
87648W        W56053  19.806   0.756   3.243
87649W        W56054  34.888   9.176   3.904
87650W        W56055  13.746  12.104  14.306
87651W        W56056  26.188  11.374  11.187
87652W        W56057  39.011   6.727   3.191
87653W        W56058   0.386  17.088   0.891
87654W        W56059  25.700  32.970   2.800
87655W        W56060  19.076  24.661   5.217
87656W        W56061  38.088  41.999   0.737
87657W        W56062  24.870  23.360  11.993
87658W        W56063  28.034   0.067   2.266
87659W        W56064  22.957  42.246   3.174
87660W        W56065  23.504  24.604   2.238
87661W        W56066  19.666   6.350  11.012
87662W        W56067   2.230  20.312  14.553
87663W        W56068  28.960  12.031   1.180
87664W        W56069  39.567  37.016   4.618
87665W        W56070  13.092  19.698  10.352
87666W        W56071   6.246   5.706   2.285
87667W        W56072  11.892  41.257   0.453
87668W        W56073   6.664  26.636   2.746
87669W        W56074   6.218  41.380  11.623
87670W        W56075  13.817  36.395  10.756
87671W        W56076   2.977  38.751  13.542
87672W        W56077  44.999  17.800  13.068
87673W        W56078   6.327  17.844  12.058
87674W        W56079   2.252  10.023  11.023
87675W        W56080   5.737  36.420   0.476
87676W        W56081  31.135  40.782  12.365
87677W        W56082  28.987  14.005   4.639
87678W        W56083  20.249  15.505   0.761
87679W        W56084  16.877  32.017   0.828
87680W        W56085  26.172   0.270   2.102
87681W        W56086  13.304  22.022  12.209
87682W        W56087   6.994  22.232   4.086
87683W        W56088   1.537  12.824   0.645
87684W        W56089  38.535  31.914   3.397
87685W        W56090  12.699  21.564   3.493
87686W        W56091  12.386  41.945  12.555
87687W        W56092  11.165  21.618   3.344
87688W        W56093  41.383  16.099  10.387
87689W        W56094  15.285   7.707   1.831
87690W        W56095  23.970  15.166  14.898
87691W        W56096   5.744  28.892   2.750
87692W        W56097  13.717  28.596   1.776
87693W        W56098  22.088  18.027  13.997
87694W        W56099  27.621  43.917  10.575
87695W        W56100  30.177  26.678   3.639
87696W        W56101  34.033  40.240   1.494
87697W        W56102  31.900  32.628   1.383
87698W        W56103  26.463  44.911  11.794
87699W        W56104  13.174  25.426   0.807
87700W        W56105  15.690   7.847   4.008
87701W        W56106  15.135  19.959   1.752
87702W        W56107   4.186   9.790  13.016
87703W        W56108  15.009  17.818  12.531
87704W        W56109  42.440  21.726   4.129
87705W        W56110   6.363  37.677   0.847
87706W        W56111  13.405  41.582  11.991
87707W        W56112  38.415   3.410   2.313
87708W        W56113  34.344  25.707  13.435
87709W        W56114  41.282   1.467  12.795
87710W        W56115   3.382   8.633  13.968
87711W        W56116  29.726  25.690   2.721
87712W        W56117  39.338   2.275  12.544
87713W        W56118   8.125  15.272   2.247
87714W        W56119  32.019  40.478   0.400
87715W        W56120  19.278  26.068   4.680
87716W        W56121  18.144  19.355   1.218
87717W        W56122  13.900  19.868   3.255
87718W        W56123   2.752  16.101  11.634
87719W        W56124  27.960   2.348  12.146
87720W        W56125  31.375  37.571   4.177
87721W        W56126   4.231   0.568  14.504
87722W        W56127  22.958  20.647   3.343
87723W        W56128   5.633   0.088  12.099
87724W        W56129  31.090  16.853  13.539
87725W        W56130   2.160  30.281   1.716
87726W        W56131  13.713  37.569   2.745
87727W        W56132   9.339  14.266   2.123
87728W        W56133  12.999   4.810   3.229
87729W        W56134   5.744  13.395   2.028
87730W        W56135  10.296  31.443  14.058
87731W        W56136  43.683  32.446  12.376
87732W        W56137  21.628  18.031   2.208
87733W        W56138  39.873   3.040   4.423
87734W        W56139   8.247  17.226   3.731
87735W        W56140  14.736  23.556  13.862
87736W        W56141  18.943  19.880   0.866
87737W        W56142   3.972   8.305  14.717
87738W        W56143   8.444   6.602  12.034
87739W        W56144   4.850  29.774   1.369
87740W        W56145   4.820   9.438   3.824
87741W        W56146   2.305  40.990  14.339
87742W        W56147  26.652   6.521   1.287
87743W        W56148  17.312  31.020  10.601
87744W        W56149  44.202  34.316  14.369
87745W        W56150   1.070  38.974   0.557
87746W        W56151  15.703  44.555  13.160
87747W        W56152  11.798  37.512   4.429
87748W        W56153  40.249   8.625  14.016
87749W        W56154   3.524   4.919  11.688
87750W        W56155  14.500  23.131  13.116
87751W        W56156  32.527  32.525  12.323
87752W        W56157   5.033  18.274   3.004
87753W        W56158  16.287  31.383   4.340
87754W        W56159  29.589  25.078   4.157
87755W        W56160  40.910  34.186  13.367
87756W        W56161   1.480  22.291  11.493
87757W        W56162  13.193  31.990   4.634
87758W        W56163  42.512  20.147  11.148
87759W        W56164   2.782  43.284  12.599
87760W        W56165  27.550  16.647   3.666
87761W        W56166  14.306  23.937   3.524
87762W        W56167  12.456  21.574   2.992
87763W        W56168  28.984  14.630  13.730
87764W        W56169   8.561  16.297  14.625
87765W        W56170  26.611  19.791   2.250
87766W        W56171  13.527  24.769   2.099
87767W        W56172   1.867   2.991  11.621
87768W        W56173   3.973  23.645   1.346
87769W        W56174  17.311   0.778   3.213
87770W        W56175   6.138  19.312   1.742
87771W        W56176  23.245  28.373   2.246
87772W        W56177  42.285   2.761  12.131
87773W        W56178  12.217   8.663   0.341
87774W        W56179  22.789  26.200   3.100
87775W        W56180  21.747  21.031  14.473
87776W        W56181  40.078  18.266  12.878
87777W        W56182  41.394  18.356   2.048
87778W        W56183  17.337  36.250   4.540
87779W        W56184  10.630  25.109   3.682
87780W        W56185  12.749  21.224   3.881
87781W        W56186  34.433  17.180  14.508
87782W        W56187  21.172  23.584   4.232
87783W        W56188  14.547  44.718   2.641
87784W        W56189   7.090  16.753  14.387
87785W        W56190   0.958  33.925   0.667
87786W        W56191  32.523  39.542   0.417
87787W        W56192  33.513   0.337  11.841
87788W        W56193  17.228  26.710  13.847
87789W        W56194  31.580  16.641   1.328
87790W        W56195  26.224   5.822   0.422
87791W        W56196  16.301  19.227   2.821
87792W        W56197  11.851   5.535   4.683
87793W        W56198   4.395  29.979  11.126
87794W        W56199   6.397  31.369  10.342
87795W        W56200  16.393  14.267   5.011
87796W        W56201   3.972  43.346   0.788
87797W        W56202   6.733  10.273  11.015
87798W        W56203  16.743   2.258  14.935
87799W        W56204   8.971  44.382   4.096
87800W        W56205  38.795  22.454  11.162
87801W        W56206  13.140   3.023  10.174
87802W        W56207  14.191  44.622   0.351
87803W        W56208  44.162  44.499  13.057
87804W        W56209  30.719  39.271  11.546
87805W        W56210  39.836   8.717   3.652
87806W        W56211  39.961  40.907   0.306
87807W        W56212  33.843  20.385   0.332
87808W        W56213  41.603  27.093   2.356
87809W        W56214  39.480   0.975  12.112
87810W        W56215  11.488  27.493   2.657
87811W        W56216   7.870   6.009  12.647
87812W        W56217  30.627  17.751  12.752
87813W        W56218   8.857  13.697  12.075
87814W        W56219  32.119  38.846  13.870
87815W        W56220  15.522  21.186  12.819
87816W        W56221  41.059  25.731  13.916
87817W        W56222  38.314  28.625   3.666
87818W        W56223  34.667   2.971  10.756
87819W        W56224  39.090  11.936  13.072
87820W        W56225  24.696  18.591  10.551
87821W        W56226  10.075  13.379   1.794
87822W        W56227  24.719  36.088  11.056
87823W        W56228  23.554  13.879  13.947
87824W        W56229  25.942  19.432  13.901
87825W        W56230  13.285   1.937  10.707
87826W        W56231  10.743  20.258  12.481
87827W        W56232  30.144  28.439  11.936
87828W        W56233  20.228   7.788   5.076
87829W        W56234  38.955  21.669  10.121
87830W        W56235  28.143   5.693   3.786
87831W        W56236  19.754  14.526  10.345
87832W        W56237  15.370   6.409   2.232
87833W        W56238  28.310  24.702   3.335
87834W        W56239   2.514  15.701  12.465
87835W        W56240  44.927  19.068   1.788
87836W        W56241  36.381  16.115   1.240
87837W        W56242  31.362   5.568   3.643
87838W        W56243  11.702  19.574   1.455
87839W        W56244  17.060  13.557   2.999
87840W        W56245  10.676   4.579   0.892
87841W        W56246  10.647   9.740  10.433
87842W        W56247  33.128  28.531   4.185
87843W        W56248  24.562  33.897   1.435
87844W        W56249   2.328  11.852   0.973
87845W        W56250  30.987  27.704   4.630
87846W        W56251  25.012   4.221   0.592
87847W        W56252  12.760  24.034   4.596
87848W        W56253  26.455  38.339  11.973
87849W        W56254  42.863  42.185  13.525
87850W        W56255   8.148  42.818  12.172
87851W        W56256  42.360  41.156  14.978
87852W        W56257   4.949   7.218  11.145
87853W        W56258  18.793  30.127   0.094
87854W        W56259   6.679  28.813  12.622
87855W        W56260  34.984  17.550  12.444
87856W        W56261  11.760  33.387   2.281
87857W        W56262  38.945  37.580  11.196
87858W        W56263   2.877  21.682   1.384
87859W        W56264   3.918  36.149  10.680
87860W        W56265   1.730  12.058  13.755
87861W        W56266  19.066  43.389  11.602
87862W        W56267  23.443   7.356   3.796
87863W        W56268  21.519   9.271  14.083
87864W        W56269  41.257   6.965   1.215
87865W        W56270  42.042   7.269   1.394
87866W        W56271  43.276  41.118   0.755
87867W        W56272  20.270  24.436   0.871
87868W        W56273  38.455   0.370  11.829
87869W        W56274  23.517  16.670  14.881
87870W        W56275   0.921   9.027  11.361
87871W        W56276  39.507  38.301  11.902
87872W        W56277  25.135  19.338  11.903
87873W        W56278  20.237  19.986   1.308
87874W        W56279  41.373  30.064   2.654
87875W        W56280   3.066   3.729   4.058
87876W        W56281  12.610  33.358   2.132
87877W        W56282  35.049  17.789   4.802
87878W        W56283  20.708   9.863   4.021
87879W        W56284  22.712  28.033   4.504
87880W        W56285   3.951  32.911  14.437
87881W        W56286  34.123  12.051  10.941
87882W        W56287  21.143   7.829  13.963
87883W        W56288  13.176   5.862   2.703
87884W        W56289   5.232   8.007   9.594
87885W        W56290  11.615  42.934  12.588
87886W        W56291  17.645  37.337   2.340
87887W        W56292  26.249  22.916  13.407
87888W        W56293  23.194   7.784   0.266
87889W        W56294   4.921  17.718  14.423
87890W        W56295  33.067  24.531   1.337
87891W        W56296  35.817  22.109  13.380
87892W        W56297  40.818  36.233  12.660
87893W        W56298  34.072   7.342  12.357
87894W        W56299  20.738  41.968   3.393
87895W        W56300  32.660  37.336   3.176
87896W        W56301  41.995  15.720   1.681
87897W        W56302  37.993  23.564   0.667
87898W        W56303  36.673   5.184   3.140
87899W        W56304  10.844  32.054  12.149
87900W        W56305   1.981  42.519   4.893
87901W        W56306  18.614  29.017  13.799
87902W        W56307  33.470  26.991  13.798
87903W        W56308  39.918  23.921   0.374
87904W        W56309   0.007  43.236   3.140
87905W        W56310  18.580   4.663   3.592
87906W        W56311  21.254  22.127  12.193
87907W        W56312   4.127  34.685  14.289
87908W        W56313   2.333  15.444  14.242
87909W        W56314  41.020  38.137   3.597
87910W        W56315  34.501  25.110   0.460
87911W        W56316  35.530  34.435  11.015
87912W        W56317  28.041   0.986   2.263
87913W        W56318  24.270  39.273   2.753
87914W        W56319  37.689  33.062  11.237
87915W        W56320  33.595  21.157  12.119
87916W        W56321  35.847  30.641   3.147
87917W        W56322  15.373  26.292  14.902
87918W        W56323   3.902  23.715   3.178
87919W        W56324  39.602  13.869  12.098
87920W        W56325  35.554  16.170   0.004
87921W        W56326  12.242  21.491   0.405
87922W        W56327  15.710   3.801  11.549
87923W        W56328  17.168   3.440  12.816
87924W        W56329  17.276  21.267   4.698
87925W        W56330  31.896  19.540  11.092
87926W        W56331  16.473   1.911  13.111
87927W        W56332  25.548  17.253  11.889
87928W        W56333  30.850  21.464   2.191
87929W        W56334  12.387  20.243   0.696
87930W        W56335   3.902  23.248  13.960
87931W        W56336  42.793  13.398  13.968
87932W        W56337  30.041  41.735  14.906
87933W        W56338   8.817   9.742  13.553
87934W        W56339  36.456   7.767   4.000
87935W        W56340  19.399  27.755  13.055
87936W        W56341  20.656  41.032  12.458
87937W        W56342  22.068  31.687  12.042
87938W        W56343  15.201  18.305  11.636
87939W        W56344  21.758  15.451  13.582
87940W        W56345  44.868   8.366  11.692
87941W        W56346   4.696  12.234  12.431
87942W        W56347  14.650   0.225   2.708
87943W        W56348  41.331  33.572   2.640
87944W        W56349  31.963   6.931   0.531
87945W        W56350   8.247  38.913  14.343
87946W        W56351  24.627  21.693  12.471
87947W        W56352   2.949  21.396  14.836
87948W        W56353  23.627   5.249   0.424
87949W        W56354  41.013  21.334  14.372
87950W        W56355  14.518  30.253   0.996
87951W        W56356  26.105   9.448  14.829
87952W        W56357  38.470  39.868  12.887
87953W        W56358  25.510  18.015   4.165
87954W        W56359  26.752  22.858   3.694
87955W        W56360  35.972  35.366  14.900
87956W        W56361  30.913  25.655   0.375
87957W        W56362  23.001  33.956   1.326
87958W        W56363  22.513   5.721  14.133
87959W        W56364  14.865   5.220  10.201
87960W        W56365  36.015  43.074  13.056
87961W        W56366  10.444  36.537   1.285
87962W        W56367  34.289  39.558  14.876
87963W        W56368   7.618  21.526   4.066
87964W        W56369  15.743  18.958   1.314
87965W        W56370  39.440  34.369   3.690
87966W        W56371   9.097   7.895   0.960
87967W        W56372  21.697   3.441   4.003
87968W        W56373  15.173  19.072  12.955
87969W        W56374  12.644  38.313   1.449
87970W        W56375  21.793  40.399  14.724
87971W        W56376  14.322  43.376  10.821
87972W        W56377   1.898  42.253   2.648
87973W        W56378  21.522  15.780   4.616
87974W        W56379  36.233  40.094   0.281
87975W        W56380  30.229   7.097   3.387
87976W        W56381  35.638  23.654   2.357
87977W        W56382  35.797   9.651  10.735
87978W        W56383  13.266   9.731   1.253
87979W        W56384  14.070  37.987   0.349
87980W        W56385  11.360  12.321   4.641
87981W        W56386  44.830  34.332  13.196
87982W        W56387  43.908  21.718   1.903
87983W        W56388  38.582   7.652   4.611
87984W        W56389  30.117   8.780  11.937
87985W        W56390   7.485   7.975  11.210
87986W        W56391  20.118  25.164   3.298
87987W        W56392  14.344  17.533   3.878
87988W        W56393   9.485  24.012   1.366
87989W        W56394  41.558   2.713   3.407
87990W        W56395  14.546  29.563  13.028
87991W        W56396  12.325   8.683   3.394
87992W        W56397  26.047  33.528   3.806
87993W        W56398  27.223  36.999   1.921
87994W        W56399  38.476   1.422   1.237
87995W        W56400  39.193  36.271  12.951
87996W        W56401   8.140  30.317   0.834
87997W        W56402   8.194  22.856  11.687
87998W        W56403  35.853  25.045  14.892
87999W        W56404  44.856  16.226   4.155
88000W        W56405  13.955  10.750   3.470
88001W        W56406  33.372  27.629   1.348
88002W        W56407  18.955  16.195   2.163
88003W        W56408  30.497  20.523  12.151
88004W        W56409  34.875  20.612   4.824
88005W        W56410  30.502  25.815  11.613
88006W        W56411  19.557  27.203  11.495
88007W        W56412  34.090   8.197   2.598
88008W        W56413  44.751  41.507  14.890
88009W        W56414  38.544  42.093  11.512
88010W        W56415  23.367  38.544   0.682
88011W        W56416  29.021  15.680   1.471
88012W        W56417  25.171  39.316   2.808
88013W        W56418  18.667  33.131  14.413
88014W        W56419  23.786  24.096   3.261
88015W        W56420  41.232  43.571  12.915
88016W        W56421  15.086  35.973  12.123
88017W        W56422  21.973  35.539  11.612
88018W        W56423  25.217  14.348  12.022
88019W        W56424  32.446  38.975  10.279
88020W        W56425  30.404  25.226   1.797
88021W        W56426  22.013  27.782   3.441
88022W        W56427  29.436  38.676  12.605
88023W        W56428  17.341  39.507   4.922
88024W        W56429   6.397   4.200   2.219
88025W        W56430  12.750   9.735   1.400
88026W        W56431  43.607  26.786  13.970
88027W        W56432  25.504  33.878   3.346
88028W        W56433  44.717   0.783   2.883
88029W        W56434   0.323  43.312  12.120
88030W        W56435  38.483  12.138  11.483
88031W        W56436  40.001  36.890  13.352
88032W        W56437  32.127  38.281   0.719
88033W        W56438  32.480  36.854   0.851
88034W        W56439   5.110  31.582  14.272
88035W        W56440  34.379  27.608   1.904
88036W        W56441  43.460  13.247  14.318
88037W        W56442  41.926  40.063   0.123
88038W        W56443  24.513  37.907   0.681
88039W        W56444  34.971  27.908  12.002
88040W        W56445  16.421  44.288  11.161
88041W        W56446   8.245   4.742  14.843
88042W        W56447   9.386  36.207  11.175
88043W        W56448  41.356  44.351   4.646
88044W        W56449   4.966  33.147  13.851
88045W        W56450  34.214  35.063   1.252
88046W        W56451  14.379  10.452  13.371
88047W        W56452  22.921   1.377   3.865
88048W        W56453  43.999  38.839  13.840
88049W        W56454   7.820  36.020   3.259
88050W        W56455   7.855  13.624   4.435
88051W        W56456  27.890  35.675   2.690
88052W        W56457   6.425  39.997  13.559
88053W        W56458   6.771   9.163   1.560
88054W        W56459  11.730  22.690   4.542
88055W        W56460  18.413  40.131   4.908
88056W        W56461  35.389   6.627   3.103
88057W        W56462   9.345  21.553   0.753
88058W        W56463   7.284   9.217   3.954
88059W        W56464  26.500  39.341  10.338
88060W        W56465   4.713   8.801   0.779
88061W        W56466  41.920  35.957   4.521
88062W        W56467  16.532  43.498   4.190
88063W        W56468   4.681  14.330  11.064
88064W        W56469  26.681  24.097   1.475
88065W        W56470  42.526  33.557   2.375
88066W        W56471  21.953  18.157   1.767
88067W        W56472   9.829  21.956   4.582
88068W        W56473  16.383   5.161   2.277
88069W        W56474  15.763   0.061  13.269
88070W        W56475  29.666  26.816  14.881
88071W        W56476  34.579   9.442  13.565
88072W        W56477  34.173  31.724  11.125
88073W        W56478  14.734  37.632  14.506
88074W        W56479  36.854  12.867  11.913
88075W        W56480  39.405  16.749  12.552
88076W        W56481   1.785  18.596  12.333
88077W        W56482  36.449   6.166   2.889
88078W        W56483  42.991  25.257   2.647
88079W        W56484  29.163  32.481  14.785
88080W        W56485  14.309  10.899   2.619
88081W        W56486   5.921  34.530   0.377
88082W        W56487  10.176  24.310   0.880
88083W        W56488  21.636  34.434  13.862
88084W        W56489  25.208  37.996  12.896
88085W        W56490  42.861   2.308   0.766
88086W        W56491   4.216   2.702   4.668
88087W        W56492  26.015  41.254   4.224
88088W        W56493  12.694  36.062   2.930
88089W        W56494  25.403  34.371  11.573
88090W        W56495  22.332   4.455  12.748
88091W        W56496  29.203  27.676  13.121
88092W        W56497   2.077  11.208   2.429
88093W        W56498   7.271  13.100  11.653
88094W        W56499  37.982  41.037   2.784
88095W        W56500  16.811  38.365   4.092
88096W        W56501   9.224  21.904   3.968
88097W        W56502  43.994   9.141   3.165
88098W        W56503  22.627  35.178  10.722
88099W        W56504  29.491  44.282   1.465
88100W        W56505  19.211  37.866   2.841
88101W        W56506   9.654  14.830  14.886
88102W        W56507  22.758  18.645   4.241
88103W        W56508  29.681  11.407  13.453
88104W        W56509  26.587  16.665  14.873
88105W        W56510  17.166   0.966  11.189
88106W        W56511   0.494  34.516   2.125
88107W        W56512  21.739  44.505   1.654
88108W        W56513  44.331   6.412  11.054
88109W        W56514  38.034   9.677   1.865
88110W        W56515  36.925  26.484  14.262
88111W        W56516  37.354  18.878   2.204
88112W        W56517   4.774  33.816  13.356
88113W        W56518  30.738  43.755   3.142
88114W        W56519  32.034  42.102  12.285
88115W        W56520   4.657   7.956   1.235
88116W        W56521  32.523  43.326   0.790
88117W        W56522  20.027  44.972   3.885
88118W        W56523  11.033  37.764  11.202
88119W        W56524  36.946  10.514   4.060
88120W        W56525  27.967   3.542   1.169
88121W        W56526  17.694  23.719   0.613
88122W        W56527   6.161   8.646  14.392
88123W        W56528  28.521  44.976   4.956
88124W        W56529  21.841  24.583  14.328
88125W        W56530  43.752  39.282  10.646
88126W        W56531  34.326   7.352  11.223
88127W        W56532  22.383  23.431   2.360
88128W        W56533  37.262  37.381   2.639
88129W        W56534  35.430   7.185   3.119
88130W        W56535  16.067  10.542  14.125
88131W        W56536  40.301  16.325  14.410
88132W        W56537  26.396  22.992  10.432
88133W        W56538   1.760  21.202   1.631
88134W        W56539  25.282  44.525  10.739
88135W        W56540  31.051   4.334  10.810
88136W        W56541  17.453  34.987  11.942
88137W        W56542  42.440  42.437  11.971
88138W        W56543   6.651  12.671  12.977
88139W        W56544  37.505   4.968   0.087
88140W        W56545  35.363  34.049  13.496
88141W        W56546  44.902  44.540  14.780
88142W        W56547  11.509  31.323  14.777
88143W        W56548  29.655  11.091  14.447
88144W        W56549  29.572  43.537   3.672
88145W        W56550  44.553  43.277   0.087
88146W        W56551   6.985  13.917  11.168
88147W        W56552  11.905  21.441   3.972
88148W        W56553  39.334  29.589  11.037
88149W        W56554  43.167   5.014   0.000
88150W        W56555  12.544  26.244  10.692
88151W        W56556  35.562  11.336   3.618
88152W        W56557  36.282   2.015   2.776
88153W        W56558  42.265   0.997  12.108
88154W        W56559  40.173  36.460   1.166
88155W        W56560  31.464  29.949  10.827
88156W        W56561  40.476  43.291   2.885
88157W        W56562  22.752   0.587   1.708
88158W        W56563  14.408  16.988  13.996
88159W        W56564   8.387   3.133   3.182
88160W        W56565  32.144  27.478   3.298
88161W        W56566  35.452  25.129  12.085
88162W        W56567  42.756  19.144   4.988
88163W        W56568  14.603  20.730   3.783
88164W        W56569  17.182  44.686  11.541
88165W        W56570  21.708  30.808   2.981
88166W        W56571  32.854   6.810   1.345
88167W        W56572  34.946  12.526  11.232
88168W        W56573  35.477  40.207  10.495
88169W        W56574  42.945  17.988   3.220
88170W        W56575   9.410  34.069  14.306
88171W        W56576  22.427  31.956   1.147
88172W        W56577   5.273  32.451  12.378
88173W        W56578  25.626   2.757   2.376
88174W        W56579  12.286   8.203   1.124
88175W        W56580   6.267  14.964   0.700
88176W        W56581  40.527  16.616   0.282
88177W        W56582   2.871   0.920  14.009
88178W        W56583   5.634   5.291  13.030
88179W        W56584  41.769  39.330  13.687
88180W        W56585  15.369  13.246  10.476
88181W        W56586  42.204  12.495   5.246
88182W        W56587  21.963   2.645   2.851
88183W        W56588  13.175  25.913   1.509
88184W        W56589  35.987  42.030  13.370
88185W        W56590  10.361  26.950   3.044
88186W        W56591  36.790  23.923  12.178
88187W        W56592  11.834  22.527  10.724
88188W        W56593  43.849   0.940  10.665
88189W        W56594  11.177  36.124   4.826
88190W        W56595   0.412  27.216   4.131
88191W        W56596   4.384  43.012   3.301
88192W        W56597  27.174   7.541   4.974
88193W        W56598  13.589  41.860   2.326
88194W        W56599  28.646  13.131  11.131
88195W        W56600   9.128   8.175  12.241
88196W        W56601  28.566  13.378   1.388
88197W        W56602   4.283   1.653   1.342
88198W        W56603  21.850  36.061   4.209
88199W        W56604  38.060  22.332   3.687
88200W        W56605  20.963   9.125   3.710
88201W        W56606  15.641  20.743  10.686
88202W        W56607   8.297  42.476   0.728
88203W        W56608  12.821  14.122   3.241
88204W        W56609  12.130  10.795   0.558
88205W        W56610  38.155  40.816   3.314
88206W        W56611  29.434   0.377   1.324
88207W        W56612  23.349   2.794  12.152
88208W        W56613  33.328  40.527  12.041
88209W        W56614  22.679  16.647   2.413
88210W        W56615  10.775  32.800  12.882
88211W        W56616  20.995  23.080  10.429
88212W        W56617  35.304   2.736  12.508
88213W        W56618  20.994  18.281   1.242
88214W        W56619  13.745  29.223  11.607
88215W        W56620  43.420  43.288  13.883
88216W        W56621  44.675  23.321   4.516
88217W        W56622  42.515  34.809  13.033
88218W        W56623  19.032  43.427  12.509
88219W        W56624  17.647  20.779  10.281
88220W        W56625   6.761  43.030   4.092
88221W        W56626  39.440   6.587  10.583
88222W        W56627  20.709  41.855   1.009
88223W        W56628  35.688  39.776   0.256
88224W        W56629  19.803  35.571   4.125
88225W        W56630   7.700  24.509   3.866
88226W        W56631  33.135   7.234   0.751
88227W        W56632  33.448  14.142   3.392
88228W        W56633   1.486   9.300   0.372
88229W        W56634  19.158   4.946   4.864
88230W        W56635  12.760  25.566  14.871
88231W        W56636  30.490  34.140  10.743
88232W        W56637   8.509  39.088   1.675
88233W        W56638  34.458  27.123  10.757
88234W        W56639  20.899  38.693   1.673
88235W        W56640  34.567   9.001   1.328
88236W        W56641  31.501  11.199  14.698
88237W        W56642  41.075   2.419   2.279
88238W        W56643  12.667  34.537  10.971
88239W        W56644  14.793  26.497  11.167
88240W        W56645  32.692  43.734   4.237
88241W        W56646  30.858  39.792   3.661
88242W        W56647  14.109   5.036  11.344
88243W        W56648   7.609  28.478  11.915
88244W        W56649  21.141  11.235   3.273
88245W        W56650   7.615  19.616  12.991
88246W        W56651  39.784  32.612  14.481
88247W        W56652  37.194  30.049  10.597
88248W        W56653  27.572   1.311  14.061
88249W        W56654  17.189   3.032   1.190
88250W        W56655   7.186  29.662  13.280
88251W        W56656   3.198  23.787  12.972
88252W        W56657   2.001   5.348   2.562
88253W        W56658  41.551   4.354   2.296
88254W        W56659  24.104  23.771   1.159
88255W        W56660  31.179  38.857   4.634
88256W        W56661  42.946  23.940  14.433
88257W        W56662  22.056  20.966   2.134
88258W        W56663  43.677  39.301   0.609
88259W        W56664  22.882  14.373   2.677
88260W        W56665  13.396   3.203  11.658
88261W        W56666  23.259  23.478  14.609
88262W        W56667  27.055   5.247  13.857
88263W        W56668  24.152  15.377   2.104
88264W        W56669  24.884  19.618   2.455
88265W        W56670  39.640  34.489   1.392
88266W        W56671  37.049  34.576   3.792
88267W        W56672  31.935  42.130   2.258
88268W        W56673  28.412  25.475  10.292
88269W        W56674  30.413  28.247   2.169
88270W        W56675  44.267   9.403  11.642
88271W        W56676  20.536   2.263  12.842
88272W        W56677  41.966   3.580   4.668
88273W        W56678   5.174  24.942   2.039
88274W        W56679   6.293  19.705   1.459
88275W        W56680  35.889  33.913  11.546
88276W        W56681  43.816  25.714   4.602
88277W        W56682  29.930  27.430  11.038
88278W        W56683  33.590  20.678  14.502
88279W        W56684  32.782  14.413   1.424
88280W        W56685   8.838  44.795   2.749
88281W        W56686   0.921  35.436   1.746
88282W        W56687  42.944   7.380   4.365
88283W        W56688  18.759   0.186  12.621
88284W        W56689  20.693  18.737  13.054
88285W        W56690  30.061  36.784  10.956
88286W        W56691  30.242   6.450   0.495
88287W        W56692  35.158  10.991  12.050
88288W        W56693  42.534  33.107  12.752
88289W        W56694   5.897   6.362  12.462
88290W        W56695  37.422  28.270   0.641
88291W        W56696  41.875  29.021   0.254
88292W        W56697  43.233  36.436   3.819
88293W        W56698   5.493   1.430  14.478
88294W        W56699   8.163  12.237   0.693
88295W        W56700  35.001  20.009  14.010
88296W        W56701  39.803   2.535  12.470
88297W        W56702  35.279  36.614  13.890
88298W        W56703  21.063   0.422  12.799
88299W        W56704  12.618  38.943  14.317
88300W        W56705   9.115  24.585  11.559
88301W        W56706  37.961  20.549   1.995
88302W        W56707  23.552   4.236   1.926
88303W        W56708  21.213  40.021   2.731
88304W        W56709  29.937  23.684  11.585
88305W        W56710  24.445  33.014   1.268
88306W        W56711  40.311   2.694  13.353
88307W        W56712  38.896  15.098   3.899
88308W        W56713  34.582  14.222   1.748
88309W        W56714  37.953  39.302  11.050
88310W        W56715  41.829  34.861   0.741
88311W        W56716  32.522  29.952   1.902
88312W        W56717   1.834  35.982   1.843
88313W        W56718  10.914  40.767   4.416
88314W        W56719  31.637   4.692  14.966
88315W        W56720  43.174  20.643   4.861
88316W        W56721  24.722   0.412  13.966
88317W        W56722  42.427  42.525  13.535
88318W        W56723  33.769  32.126   3.385
88319W        W56724  43.431  26.395   5.090
88320W        W56725  18.710  15.737  14.250
88321W        W56726  26.165  25.228  12.464
88322W        W56727   8.532  27.433   5.289
88323W        W56728   5.717  35.894   0.367
88324W        W56729  23.991  42.523   0.526
88325W        W56730  11.594   2.140  10.450
88326W        W56731  12.875  32.213  13.346
88327W        W56732   3.846   9.684   3.817
88328W        W56733   5.184  43.564  11.389
88329W        W56734  40.390  11.277  13.117
88330W        W56735   7.806  31.685  13.574
88331W        W56736  19.603  40.353  12.991
88332W        W56737  36.906  29.691  11.195
88333W        W56738   2.213  38.114   3.616
88334W        W56739  43.973   5.342   3.154
88335W        W56740  19.588  33.243   0.247
88336W        W56741   2.880   0.886  11.247
88337W        W56742   6.881  40.862  13.264
88338W        W56743   3.099   3.145  10.222
88339W        W56744  28.701  38.680  12.333
88340W        W56745  16.311   1.004  11.693
88341W        W56746  43.239  44.273  12.831
88342W        W56747  21.053  42.568  11.680
88343W        W56748  40.826  20.748  13.824
88344W        W56749  41.132  22.072   4.484
88345W        W56750  27.948  41.524   0.792
88346W        W56751  10.169   1.502   2.732
88347W        W56752  21.505  29.451   2.894
88348W        W56753  37.812  40.231  14.428
88349W        W56754  38.373  43.801  10.768
88350W        W56755  24.086   7.182  14.778
88351W        W56756  43.046  35.958  14.201
88352W        W56757  13.741  42.293  14.505
88353W        W56758  40.040  13.582   3.311
88354W        W56759  22.657  16.308   1.823
88355W        W56760  17.057  20.743  10.620
88356W        W56761  10.253  25.615  11.900
88357W        W56762  15.545  28.273   3.643
88358W        W56763  36.887  19.720  13.065
88359W        W56764  13.360  25.743   3.623
88360W        W56765   6.806  35.081   1.257
88361W        W56766   8.722  27.434   2.282
88362W        W56767   9.624  41.939  13.549
88363W        W56768  20.951  36.119   0.085
88364W        W56769  22.437  27.219  11.460
88365W        W56770  19.098  40.063   3.482
88366W        W56771   1.543  16.311   4.419
88367W        W56772   0.700   4.427   0.848
88368W        W56773  23.054  32.487  13.125
88369W        W56774  15.999  16.351   3.628
88370W        W56775  28.256  26.607  12.068
88371W        W56776  18.210   8.412   0.901
88372W        W56777  40.958  14.826  10.741
88373W        W56778  34.080  39.077  10.867
88374W        W56779   8.206  18.163  11.817
88375W        W56780  41.024  28.958   3.318
88376W        W56781  16.744  37.942  12.159
88377W        W56782  34.557  28.548   1.957
88378W        W56783  38.588  22.467   3.613
88379W        W56784  44.251  30.274   1.380
88380W        W56785  30.894  36.975  10.681
88381W        W56786   8.030  17.911  12.618
88382W        W56787  23.149  35.920   4.695
88383W        W56788  33.606  41.767  13.847
88384W        W56789  17.693  28.448  13.904
88385W        W56790  28.949  41.259  12.738
88386W        W56791  18.183  13.903   4.322
88387W        W56792  29.627  10.564  14.533
88388W        W56793  11.088  12.017   2.981
88389W        W56794  10.403  39.920   1.309
88390W        W56795   7.356  17.703   3.996
88391W        W56796  42.619  37.483   4.941
88392W        W56797  16.365  44.294  10.114
88393W        W56798  16.586  36.160  14.428
88394W        W56799  13.608   3.480   2.860
88395W        W56800   4.453  25.094  13.372
88396W        W56801  11.602   1.735  10.818
88397W        W56802   9.778  32.914  12.084
88398W        W56803   8.729  18.701  13.539
88399W        W56804   5.405  18.054  13.361
88400W        W56805   7.840  14.635  11.997
88401W        W56806  37.848  38.405  13.014
88402W        W56807   5.109   0.330  11.040
88403W        W56808  44.820  29.156  12.817
88404W        W56809  26.988  40.925   2.928
88405W        W56810   5.749  42.159  13.506
88406W        W56811  19.861  40.583  14.572
88407W        W56812  33.456   6.149  14.525
88408W        W56813  20.112  27.015  14.362
88409W        W56814   7.119   4.466   4.180
88410W        W56815   3.897   0.317  11.567
88411W        W56816  18.126  32.344  14.275
88412W        W56817  27.007  18.816  12.454
88413W        W56818  39.276  18.240  13.329
88414W        W56819   3.656  27.724  10.852
88415W        W56820  41.298  10.150  13.990
88416W        W56821  21.304  37.811   2.797
88417W        W56822  42.989  35.694   3.233
88418W        W56823  12.277  12.753   1.306
88419W        W56824  32.380  15.073   4.038
88420W        W56825  32.628   9.325   2.222
88421W        W56826  31.564  13.600  12.062
88422W        W56827  10.717  44.404   4.897
88423W        W56828   3.220  26.154   2.218
88424W        W56829   7.796  14.749  14.506
88425W        W56830  42.973  44.737  10.711
88426W        W56831  42.482   3.814  12.002
88427W        W56832  29.326  37.885  11.545
88428W        W56833  18.641  41.420  11.478
88429W        W56834  27.103  13.701   1.007
88430W        W56835  35.802  21.991   0.479
88431W        W56836  37.799  34.993  12.058
88432W        W56837  34.674  12.184   3.153
88433W        W56838  41.988  10.276  11.157
88434W        W56839  34.461  14.709   1.459
88435W        W56840  40.137  38.897  12.611
88436W        W56841   7.161  42.808   1.825
88437W        W56842  10.227  42.019  13.782
88438W        W56843  32.569  22.022   4.624
88439W        W56844   2.436  30.394   0.467
88440W        W56845  31.656  22.747  14.428
88441W        W56846  33.547   3.891   2.315
88442W        W56847   5.063  16.042  13.058
88443W        W56848  29.511  40.345   3.599
88444W        W56849  44.764  30.694  11.570
88445W        W56850  12.777   1.132   2.149
88446W        W56851  29.207  42.435   5.058
88447W        W56852  31.644  29.992  12.889
88448W        W56853   2.389   5.391   3.420
88449W        W56854   8.291  34.110   4.163
88450W        W56855  10.214   9.444   0.302
88451W        W56856  20.313  32.442   4.625
88452W        W56857   9.960   4.754  11.591
88453W        W56858   4.999   8.361   4.120
88454W        W56859  10.796  42.003  12.356
88455W        W56860  32.356   1.439  13.067
88456W        W56861  26.470   5.452  10.932
88457W        W56862  25.190  17.006  14.309
88458W        W56863  42.006  14.316  12.629
88459W        W56864  35.172  36.773  13.379
88460W        W56865   7.104  36.093   2.559
88461W        W56866  31.078  19.316  13.878
88462W        W56867  32.992  10.061   3.247
88463W        W56868   7.283  37.883  12.020
88464W        W56869  31.631  19.375  12.385
88465W        W56870  16.785  35.813   2.380
88466W        W56871  30.131  44.284   4.567
88467W        W56872  32.823   5.414   1.456
88468W        W56873  26.585  14.585   4.511
88469W        W56874  34.020   6.482  12.527
88470W        W56875  10.674  40.243  13.624
88471W        W56876   7.957  43.657   3.780
88472W        W56877  19.691   4.127   2.766
88473W        W56878   1.204  43.103  14.757
88474W        W56879   4.205  36.623   2.877
88475W        W56880  38.354  26.746  13.055
88476W        W56881  22.045   3.651   1.273
88477W        W56882  34.128  36.477   1.743
88478W        W56883   7.949  30.815   0.845
88479W        W56884  35.831  30.897   3.643
88480W        W56885  43.012   1.260  10.738
88481W        W56886  15.849   1.486   3.080
88482W        W56887  43.873  26.521  11.769
88483W        W56888  41.250  19.166   0.443
88484W        W56889  24.454  39.747  11.650
88485W        W56890  15.807   4.844   0.685
88486W        W56891  29.115  39.079   1.210
88487W        W56892  44.944  31.988  10.112
88488W        W56893   9.288  39.470  11.683
88489W        W56894  16.376  37.601  12.889
88490W        W56895  29.864  10.600  13.342
88491W        W56896  20.204  39.291   0.104
88492W        W56897  40.347   1.570  11.407
88493W        W56898  31.820  17.786   0.792
88494W        W56899  28.675  29.288  11.260
88495W        W56900  23.666  32.412  13.401
88496W        W56901  12.395  25.925   4.504
88497W        W56902  35.990  11.894   4.832
88498W        W56903  42.518   0.476  10.706
88499W        W56904   5.828  26.165   1.350
88500W        W56905   9.896  19.722  12.495
88501W        W56906   6.626   2.470  11.438
88502W        W56907  38.343  31.285  11.968
88503W        W56908  40.466   7.332  13.511
88504W        W56909  39.596  37.920   4.008
88505W        W56910  20.072  37.492   1.825
88506W        W56911   6.638  26.967   3.189
88507W        W56912  15.586  33.067   2.355
88508W        W56913  22.867  18.159  11.559
88509W        W56914  40.370  42.459   2.365
88510W        W56915  12.722  32.418  13.803
88511W        W56916  27.883  24.180   4.098
88512W        W56917  24.918  27.062   1.177
88513W        W56918  21.384   8.124  11.644
88514W        W56919  21.664  32.993   1.777
88515W        W56920  25.937  14.584  11.594
88516W        W56921  26.154  39.627   2.624
88517W        W56922   2.402   6.786   2.749
88518W        W56923   4.423  36.115  14.818
88519W        W56924   0.847  31.149  14.899
88520W        W56925  11.415  11.649   3.322
88521W        W56926  40.840   8.238  14.697
88522W        W56927   6.207   0.826  11.411
88523W        W56928   9.749   3.963  14.861
88524W        W56929  26.169   0.618   4.548
88525W        W56930  33.951   6.599  10.215
88526W        W56931  13.693  35.827  14.836
88527W        W56932  14.331   0.471   3.064
88528W        W56933   8.247  25.175   1.943
88529W        W56934   3.826   2.554  10.645
88530W        W56935   2.922  20.346   4.149
88531W        W56936  35.087  29.391   2.392
88532W        W56937   5.236  19.807   1.744
88533W        W56938  39.044  41.969  10.338
88534W        W56939   4.646  31.195  11.602
88535W        W56940  37.859  22.681   3.143
88536W        W56941  17.838  27.138   2.585
88537W        W56942  38.338   4.714   1.314
88538W        W56943  23.734  20.954  10.428
88539W        W56944  16.638   4.881  11.403
88540W        W56945   8.659  32.981  11.966
88541W        W56946  40.816  10.222   0.638
88542W        W56947  36.541  19.190   3.146
88543W        W56948  17.801   2.179   0.392
88544W        W56949  16.473  19.948  12.576
88545W        W56950  19.942  30.490   2.379
88546W        W56951  32.673  26.083   2.834
88547W        W56952   2.672  43.928   4.081
88548W        W56953  18.418  33.515   5.122
88549W        W56954  35.962  30.456  12.368
88550W        W56955   2.757  16.553   1.190
88551W        W56956   7.143  26.105  14.532
88552W        W56957   3.808  15.729  10.516
88553W        W56958   6.446  40.725  12.463
88554W        W56959   2.706  30.780  11.136
88555W        W56960  27.490   4.643   3.350
88556W        W56961  26.059  17.637   4.733
88557W        W56962  29.645  14.326  12.061
88558W        W56963  15.830   9.110  13.840
88559W        W56964   7.735  41.348   3.231
88560W        W56965  43.509  14.259   4.493
88561W        W56966   1.898  18.127   3.755
88562W        W56967   5.366  28.055  11.939
88563W        W56968  27.468  23.101   4.148
88564W        W56969   2.145  36.158  10.409
88565W        W56970  18.272  26.048   4.415
88566W        W56971   7.469  32.013  14.943
88567W        W56972   3.431   8.969   2.929
88568W        W56973   9.469   7.275  12.179
88569W        W56974  34.347  18.111  10.921
88570W        W56975  17.788  22.400   2.461
88571W        W56976  41.219  34.381  12.505
88572W        W56977  23.700  40.015  14.870
88573W        W56978  31.125  36.245   3.357
88574W        W56979  24.015  43.514   0.916
88575W        W56980  19.239   0.055   2.924
88576W        W56981   7.722  34.456   0.873
88577W        W56982  23.225  26.439  11.508
88578W        W56983  12.921  33.691   9.799
88579W        W56984  40.571  35.694   0.851
88580W        W56985   3.448  15.661   4.600
88581W        W56986  20.566  34.847  13.422
88582W        W56987  34.753  40.310   0.341
88583W        W56988  23.478   6.967  14.077
88584W        W56989  41.268  42.533   2.292
88585W        W56990  24.595  29.399  12.087
88586W        W56991  37.401  39.867   4.522
88587W        W56992   9.690  34.359  14.631
88588W        W56993  24.764  24.373  12.044
88589W        W56994  18.057   2.602   4.763
88590W        W56995  38.299  13.554  11.638
88591W        W56996  29.122   9.388   0.640
88592W        W56997  26.327  11.344   1.773
88593W        W56998  29.190  30.686  11.242
88594W        W56999  33.500  12.768  10.760
88595W        W57000  21.962  27.742   2.350
88596W        W57001   0.805  28.664   1.924
88597W        W57002  13.698  15.861   3.631
88598W        W57003  10.249  38.953  14.496
88599W        W57004  43.878   1.986  12.430
88600W        W57005  24.650  31.602  14.784
88601W        W57006  12.369  40.460  14.984
88602W        W57007  40.023  44.722  14.415
88603W        W57008  24.399  20.706   0.438
88604W        W57009  38.354  16.642   4.231
88605W        W57010   9.573  27.178  11.103
88606W        W57011  41.826   9.607  13.944
88607W        W57012  22.764  35.908  12.003
88608W        W57013   0.221   3.279  14.996
88609W        W57014  14.316   9.333   4.692
88610W        W57015  42.717  15.548   4.306
88611W        W57016  19.163  42.967  12.330
88612W        W57017  17.327  11.205  13.922
88613W        W57018  37.835  38.520   4.069
88614W        W57019  19.646  11.667  11.286
88615W        W57020  36.879  22.975   3.306
88616W        W57021  21.636  15.296   3.144
88617W        W57022  40.883   1.286  14.447
88618W        W57023   5.884  36.828  13.498
88619W        W57024  34.604  12.273   4.490
88620W        W57025  16.711  24.837   1.760
88621W        W57026  13.666  32.686  12.861
88622W        W57027  20.056  37.179   4.185
88623W        W57028  15.743   6.758  12.509
88624W        W57029  15.684   1.049  12.477
88625W        W57030  33.082   0.784   4.679
88626W        W57031  20.213   6.512  13.549
88627W        W57032  42.872  16.869   2.212
88628W        W57033   8.029  30.327  12.100
88629W        W57034  13.257  33.856   3.130
88630W        W57035  22.136  34.602  11.247
88631W        W57036  42.937  14.379  12.587
88632W        W57037   9.951   2.292   2.259
88633W        W57038   4.158   8.886  12.200
88634W        W57039  11.943  13.088   4.652
88635W        W57040  36.074  40.093  13.152
88636W        W57041  32.516   9.383  12.351
88637W        W57042   8.633  36.861  14.954
88638W        W57043   0.971  22.012   0.285
88639W        W57044   1.172  41.200   0.348
88640W        W57045  31.157   1.658  12.390
88641W        W57046   4.184  30.445   3.794
88642W        W57047  33.395  38.351   0.770
88643W        W57048  41.556  44.351   2.529
88644W        W57049  34.867  34.426  12.732
88645W        W57050   3.070  39.487  11.560
88646W        W57051   9.315  26.000   4.639
88647W        W57052  15.277  40.363   4.446
88648W        W57053   8.208   1.770   4.590
88649W        W57054   5.159   1.280   1.411
88650W        W57055   8.432  19.983  14.798
88651W        W57056  18.819  13.284  10.468
88652W        W57057  13.531   2.350   4.068
88653W        W57058  24.651  22.095   0.422
88654W        W57059  20.264  38.826   2.721
88655W        W57060  38.287   8.872  13.531
88656W        W57061  38.777  17.700  12.934
88657W        W57062  33.567  25.116  14.483
88658W        W57063   8.107   3.440   4.057
88659W        W57064  15.246  28.572  13.033
88660W        W57065  22.077  32.257   0.794
88661W        W57066   2.680  15.233   0.101
88662W        W57067   5.785  15.639  14.271
88663W        W57068   9.477   4.649  10.284
88664W        W57069  27.886  37.403   4.055
88665W        W57070   2.588  29.931  12.602
88666W        W57071   0.911  41.409  13.417
88667W        W57072  32.152  36.532  12.519
88668W        W57073  18.884  42.178   0.329
88669W        W57074  12.725   1.857  12.909
88670W        W57075  33.153   3.785  10.670
88671W        W57076  15.330   0.451   0.761
88672W        W57077  21.583  38.355   4.629
88673W        W57078   2.642   2.379   2.835
88674W        W57079  40.125  12.492  12.595
88675W        W57080  24.975  27.847   2.868
88676W        W57081  27.407  37.880  10.140
88677W        W57082  35.052  40.407   4.532
88678W        W57083  22.746  27.762  14.288
88679W        W57084  39.211  26.165   1.829
88680W        W57085  41.217  32.831   4.246
88681W        W57086  38.051  18.693   3.679
88682W        W57087   0.559  12.751   5.233
88683W        W57088  24.999  12.195   0.842
88684W        W57089   3.679  34.598   4.388
88685W        W57090   7.616  17.086   2.520
88686W        W57091  18.963  12.782  11.869
88687W        W57092  12.787   8.804  13.433
88688W        W57093  28.934  38.543  14.924
88689W        W57094   1.426  20.376   1.805
88690W        W57095  41.117   4.297   4.031
88691W        W57096  34.486  13.136   2.199
88692W        W57097  38.059  29.513   4.584
88693W        W57098  22.571  29.892  10.499
88694W        W57099   3.975  22.023   1.815
88695W        W57100  15.766  42.344  11.998
88696W        W57101  27.632  32.501   1.444
88697W        W57102  12.215  17.819  13.559
88698W        W57103   0.939  10.071  12.857
88699W        W57104  31.167  37.632   0.382
88700W        W57105  22.017  31.653   0.975
88701W        W57106  36.181  42.233  11.991
88702W        W57107  22.111  13.742  14.805
88703W        W57108  37.469   5.253  11.544
88704W        W57109  28.452  31.512  12.030
88705W        W57110  28.931  18.683   3.260
88706W        W57111  28.377  19.238  10.727
88707W        W57112  11.950  36.173  14.444
88708W        W57113  16.974  28.714   0.912
88709W        W57114  24.728   6.268  14.214
88710W        W57115  40.536  18.852   1.304
88711W        W57116  44.462  21.659   1.733
88712W        W57117  34.458   7.022  13.070
88713W        W57118  44.660  26.148  12.548
88714W        W57119  38.455  13.632  13.066
88715W        W57120  17.023  17.998   0.065
88716W        W57121  26.335  10.787  14.993
88717W        W57122  41.653  12.098   0.544
88718W        W57123   0.189  11.083   4.455
88719W        W57124  20.419   3.202   0.642
88720W        W57125  35.669  33.658   1.770
88721W        W57126  22.976  44.825  14.329
88722W        W57127   2.841  15.957   0.325
88723W        W57128  22.237  27.005   1.900
88724W        W57129  30.424  17.051   4.039
88725W        W57130  27.877  20.522   0.520
88726W        W57131  34.451  30.764  12.301
88727W        W57132  30.282  40.592  11.215
88728W        W57133  41.932  42.848  13.845
88729W        W57134  39.765   6.265   2.455
88730W        W57135  14.092  27.953   2.807
88731W        W57136  10.105  21.515   3.158
88732W        W57137   4.688   8.655   4.453
88733W        W57138  35.454  42.811   2.313
88734W        W57139  35.973  32.750  14.190
88735W        W57140  31.003  39.555   0.423
88736W        W57141  13.777  20.323   4.620
88737W        W57142  40.998  14.625   2.400
88738W        W57143  44.035  12.741  10.712
88739W        W57144  13.745   0.345   2.887
88740W        W57145  26.670  27.633   4.254
88741W        W57146  36.435   0.416  11.796
88742W        W57147  30.122  32.174   0.117
88743W        W57148  40.120  33.605   1.351
88744W        W57149  39.457  21.795  11.404
88745W        W57150  34.559  16.321   0.039
88746W        W57151  37.757  19.169  10.700
88747W        W57152  22.194  11.103   3.266
88748W        W57153  34.888  40.436  13.748
88749W        W57154   7.903  26.493   0.599
88750W        W57155  16.577  22.840  10.122
88751W        W57156  43.654  17.707  11.249
88752W        W57157  44.598  19.787  12.465
88753W        W57158  39.196  41.787   0.729
88754W        W57159  24.182  28.005   1.456
88755W        W57160   2.455  27.696  12.876
88756W        W57161   5.197  34.945   1.552
88757W        W57162   0.122   8.865   9.648
88758W        W57163   9.818  20.239  13.858
88759W        W57164  25.938  13.981   1.414
88760W        W57165  33.610  10.132   0.310
88761W        W57166  44.096  16.153  13.839
88762W        W57167  27.597   5.266   4.532
88763W        W57168  32.358   7.674  14.827
88764W        W57169  32.923  17.755   4.354
88765W        W57170  15.716  42.044   1.332
88766W        W57171  33.939  11.862   0.050
88767W        W57172  44.847  13.787   4.857
88768W        W57173  31.664  14.688   4.199
88769W        W57174  23.141  31.413  11.599
88770W        W57175  41.719  42.069  13.190
88771W        W57176  16.219  43.372  12.672
88772W        W57177  44.010  15.671   2.272
88773W        W57178  15.860  11.753  11.646
88774W        W57179  15.107  28.077  14.681
88775W        W57180   3.089  38.853   4.378
88776W        W57181  19.076  33.214   2.721
88777W        W57182  32.829   9.892  13.257
88778W        W57183  28.730  32.505  11.467
88779W        W57184  32.993   5.181   3.238
88780W        W57185  10.277   2.888  13.460
88781W        W57186  22.282  15.316   1.641
88782W        W57187  19.699   9.725  13.325
88783W        W57188  22.748  41.962  13.464
88784W        W57189  39.366   5.973   9.832
88785W        W57190  28.568  15.067  12.886
88786W        W57191  44.304  36.296   0.825
88787W        W57192  36.890   9.563  12.209
88788W        W57193  22.556   4.734   0.897
88789W        W57194   5.492  25.617  14.894
88790W        W57195  36.047  10.461  14.600
88791W        W57196  42.365  40.926   3.413
88792W        W57197  32.039  20.072  12.848
88793W        W57198  38.615  23.229   2.476
88794W        W57199  12.839  34.831  10.586
88795W        W57200   2.960   8.900   4.660
88796W        W57201  19.012  43.332  13.606
88797W        W57202  18.830  29.350  11.310
88798W        W57203   6.847  43.809   3.076
88799W        W57204  22.979  40.032  10.588
88800W        W57205  33.602  18.829  13.448
88801W        W57206  10.721  19.889   2.611
88802W        W57207  27.653  30.922   0.356
88803W        W57208  22.537  16.502  12.871
88804W        W57209  29.663  32.352   0.866
88805W        W57210  43.774   8.707   2.218
88806W        W57211  41.550  41.972   3.970
88807W        W57212  18.313  21.039   3.344
88808W        W57213  16.609  42.158  12.380
88809W        W57214   3.464  28.762   4.698
88810W        W57215   7.157  15.289   3.309
88811W        W57216  25.703  23.705   0.183
88812W        W57217   5.231  20.127  11.240
88813W        W57218  36.881  30.426  12.378
88814W        W57219  16.111  26.127   3.734
88815W        W57220  26.582  23.736  11.579
88816W        W57221  43.172  18.247  10.642
88817W        W57222   1.061   9.047   4.554
88818W        W57223  40.339   8.361  13.259
88819W        W57224  15.570  10.141  13.004
88820W        W57225  24.942  30.420  11.977
88821W        W57226  34.566  42.261   3.666
88822W        W57227   7.152  30.841   4.602
88823W        W57228   5.865  37.026   0.707
88824W        W57229  22.819  41.838   2.890
88825W        W57230  44.032  35.591   2.003
88826W        W57231  15.637  32.109   1.426
88827W        W57232  32.082  21.580  13.799
88828W        W57233  35.005   5.487  12.927
88829W        W57234  33.687  41.044  14.560
88830W        W57235  24.067  42.063   0.280
88831W        W57236  27.651  32.410  13.521
88832W        W57237  18.494  35.057  13.297
88833W        W57238  37.578   8.134  14.468
88834W        W57239  39.327  39.840  11.683
88835W        W57240   4.142   3.458   1.732
88836W        W57241   1.022  26.880   2.118
88837W        W57242  33.685  11.879   3.134
88838W        W57243  42.261  10.371  13.810
88839W        W57244  18.769  15.260   4.830
88840W        W57245   9.723   9.760  10.431
88841W        W57246   8.644   4.891  14.456
88842W        W57247  27.981  17.086  13.035
88843W        W57248  14.361   3.457  11.056
88844W        W57249   8.911   9.643  14.637
88845W        W57250  29.516  37.942  13.812
88846W        W57251  42.068  36.513  11.603
88847W        W57252  29.597  15.841  11.517
88848W        W57253   2.758  39.125   4.657
88849W        W57254   4.198  13.142   4.130
88850W        W57255   5.413   1.452  12.049
88851W        W57256  29.985   3.127   1.358
88852W        W57257  31.527   6.782   1.916
88853W        W57258  28.069  42.528  14.905
88854W        W57259  29.362   6.651  12.365
88855W        W57260  34.375  12.480   0.075
88856W        W57261  16.776  32.964   0.964
88857W        W57262  15.516   0.776   4.214
88858W        W57263  28.056  13.647  11.700
88859W        W57264  30.338  43.865  13.376
88860W        W57265  14.101   0.061  14.726
88861W        W57266  12.746  17.134  11.937
88862W        W57267  33.060  31.032  12.503
88863W        W57268  41.001   0.330   4.113
88864W        W57269  31.727  11.221   4.800
88865W        W57270  20.775   3.050  12.019
88866W        W57271  40.842  40.794   2.394
88867W        W57272  16.456   5.310  13.335
88868W        W57273  20.254   4.731  11.412
88869W        W57274  44.578  18.073  12.820
88870W        W57275  33.577  41.609  10.767
88871W        W57276  10.356  44.616  12.163
88872W        W57277  11.900  44.573   0.433
88873W        W57278   6.643  32.430  12.542
88874W        W57279   6.973  23.529   4.393
88875W        W57280  16.192   4.871   4.588
88876W        W57281  33.482  40.382   0.888
88877W        W57282   2.947   7.154   1.372
88878W        W57283  32.659   1.232   0.989
88879W        W57284  14.683  43.551  10.489
88880W        W57285  29.591  37.500  10.717
88881W        W57286  33.715  32.106  13.955
88882W        W57287  10.222  20.657  14.047
88883W        W57288   8.889   8.432   3.199
88884W        W57289  14.148  34.562   1.971
88885W        W57290  14.054  27.481   1.174
88886W        W57291  33.000  42.838  11.518
88887W        W57292  20.195  34.388  12.236
88888W        W57293  18.204   1.317   3.577
88889W        W57294  19.289  36.740  12.556
88890W        W57295  12.304  22.638  11.476
88891W        W57296   3.288   6.758   1.404
88892W        W57297  14.316  34.122  11.396
88893W        W57298  28.238  43.926  11.619
88894W        W57299  27.908   5.921   2.297
88895W        W57300  23.219  38.067  10.625
88896W        W57301  40.749   0.975  14.885
88897W        W57302  13.279  12.770  14.572
88898W        W57303   4.123   1.169   1.349
88899W        W57304  16.797  28.061   4.628
88900W        W57305  11.162   9.832  13.398
88901W        W57306   3.888   3.741   3.490
88902W        W57307  22.051  30.866   1.756
88903W        W57308   9.415   0.887   2.144
88904W        W57309  35.451   2.438   2.727
88905W        W57310  40.530   4.471  12.530
88906W        W57311  33.138  43.130  14.900
88907W        W57312  25.045  13.294  12.567
88908W        W57313  25.612  30.672  10.776
88909W        W57314  24.423  26.116  13.130
88910W        W57315  43.957  21.714   0.695
88911W        W57316  15.273  30.462   3.835
88912W        W57317  43.085  21.728  13.396
88913W        W57318  41.352   8.819   2.366
88914W        W57319  20.529   7.368   5.034
88915W        W57320  44.007  27.451   2.671
88916W        W57321  36.391  30.650  14.475
88917W        W57322   4.622  15.405   2.290
88918W        W57323  10.852  14.509   0.184
88919W        W57324  30.642  23.319   2.973
88920W        W57325  14.747  21.614   3.955
88921W        W57326  34.403   0.456   4.218
88922W        W57327   6.929  37.539  14.847
88923W        W57328   9.445  41.223  10.844
88924W        W57329  14.780  11.555   3.647
88925W        W57330  18.116  12.647   1.580
88926W        W57331  26.661   6.563  13.210
88927W        W57332  42.864  36.943  11.242
88928W        W57333  30.053   5.183   1.327
88929W        W57334  27.268  43.651   1.159
88930W        W57335  16.590  19.019  14.308
88931W        W57336   8.612   3.687  14.475
88932W        W57337  34.051   8.134   3.726
88933W        W57338   5.641  10.511  11.586
88934W        W57339   7.753  43.943   3.402
88935W        W57340  14.946   7.852   1.134
88936W        W57341  13.580   6.201  14.494
88937W        W57342  11.114  25.410  13.389
88938W        W57343   5.235  21.097  14.318
88939W        W57344  44.269  37.223   5.000
88940W        W57345  30.155  19.610  14.864
88941W        W57346  39.169   3.454  13.057
88942W        W57347  15.029  26.213   2.944
88943W        W57348   4.981   6.828  11.889
88944W        W57349  43.043  29.418   4.027
88945W        W57350  17.723   4.393  13.582
88946W        W57351  17.122  40.148   0.696
88947W        W57352  26.065  33.632   3.295
88948W        W57353  10.457  37.712   4.130
88949W        W57354   7.656  31.667   1.942
88950W        W57355   9.721   7.296   0.663
88951W        W57356  34.681  43.423  14.301
88952W        W57357   8.103  27.126  14.433
88953W        W57358  39.709  17.205  10.448
88954W        W57359  17.229   6.185   3.204
88955W        W57360  28.229  38.166   9.929
88956W        W57361  39.074  20.486   3.259
88957W        W57362  13.317  31.859  11.921
88958W        W57363  36.996   3.423   2.174
88959W        W57364  38.159  17.320  12.765
88960W        W57365  32.357  30.689   4.980
88961W        W57366  21.116  44.049  11.802
88962W        W57367  25.704  33.521   0.291
88963W        W57368  19.470  12.894   4.326
88964W        W57369  13.125  21.031  10.612
88965W        W57370  10.830   5.701  12.478
88966W        W57371  37.571  34.645  12.634
88967W        W57372   1.454  43.873   0.259
88968W        W57373  41.431  32.638   3.225
88969W        W57374  32.494  12.694   1.410
88970W        W57375  16.931  10.518   2.660
88971W        W57376   1.838  36.122   2.714
88972W        W57377  11.889  11.684   0.093
88973W        W57378  10.711  44.412  13.347
88974W        W57379  14.109  33.190  11.607
88975W        W57380  12.751  31.801   1.882
88976W        W57381  11.672  18.068  12.855
88977W        W57382  43.890  21.248   9.819
88978W        W57383  19.740   8.850  14.055
88979W        W57384  16.803  44.282  10.796
88980W        W57385  16.724   7.930  13.809
88981W        W57386  40.822  29.293   4.223
88982W        W57387  20.064  26.275  12.112
88983W        W57388  43.252  39.406  12.923
88984W        W57389  38.354  12.610   1.163
88985W        W57390   6.550  43.872   0.390
88986W        W57391  37.043  26.601  13.787
88987W        W57392  38.924   0.250  12.069
88988W        W57393  25.540  16.613   4.957
88989W        W57394  20.246  37.442  12.195
88990W        W57395  35.592  27.060   4.419
88991W        W57396  31.487  34.833  10.368
88992W        W57397  12.436  17.794   1.755
88993W        W57398  12.341  24.572  11.164
88994W        W57399  27.641  22.499  14.052
88995W        W57400  10.439   9.026  11.696
88996W        W57401   9.138  31.442  13.374
88997W        W57402  23.003  14.113   0.223
88998W        W57403  16.125  11.706  10.455
88999W        W57404  39.041   1.728   3.315
89000W        W57405  36.434  33.960  12.389
89001W        W57406  38.997  18.634   0.438
89002W        W57407  35.366  39.983   3.348
89003W        W57408  39.789  12.625  11.870
89004W        W57409  19.004   5.796   1.446
89005W        W57410  42.950  39.445  13.459
89006W        W57411  14.384  43.767   2.834
89007W        W57412  15.642  31.533  13.989
89008W        W57413   5.810  42.025  10.713
89009W        W57414  12.939  37.421  14.264
89010W        W57415  40.923  36.004  11.604
89011W        W57416  41.912  42.751   4.300
89012W        W57417  34.416  42.583  12.651
89013W        W57418  26.619  30.095   3.853
89014W        W57419  10.919   2.714   0.470
89015W        W57420  32.201  21.576   1.378
89016W        W57421   1.865  25.690   0.814
89017W        W57422  27.485   5.890  10.640
89018W        W57423   5.643  42.296   0.815
89019W        W57424  41.607  26.404   2.727
89020W        W57425   6.136  17.752  11.160
89021W        W57426   1.426  11.737  12.448
89022W        W57427  37.840  43.359   2.568
89023W        W57428  32.322  31.620  12.397
89024W        W57429  32.460   2.339  11.662
89025W        W57430  32.788   5.924  11.965
89026W        W57431   5.938   0.612  14.348
89027W        W57432   6.783  35.039   4.222
89028W        W57433  26.039   2.834   3.652
89029W        W57434  23.128  19.816  12.374
89030W        W57435  22.702   0.920   3.738
89031W        W57436  18.296  36.662   1.324
89032W        W57437  30.922  33.790  13.592
89033W        W57438  36.796  21.018  13.446
89034W        W57439  13.334  19.651   2.284
89035W        W57440  17.726  21.712  12.682
89036W        W57441  38.453  18.091  12.134
89037W        W57442  12.221  38.759   2.964
89038W        W57443  43.374   4.381   2.667
89039W        W57444   7.333   1.747   2.767
89040W        W57445  39.493  15.829  13.277
89041W        W57446  36.866  44.651   3.823
89042W        W57447  16.849  34.218   3.198
89043W        W57448   0.956  40.491   2.429
89044W        W57449   0.176   5.828  13.034
89045W        W57450  40.945   4.199   0.506
89046W        W57451  12.179  30.237   3.629
89047W        W57452  33.616  42.531  10.844
89048W        W57453  31.474   5.206   0.771
89049W        W57454  18.531  43.414  11.561
89050W        W57455  20.133   6.808   5.110
89051W        W57456  35.398  25.733   3.627
89052W        W57457  17.811  30.074   2.924
89053W        W57458  24.963  13.256  12.066
89054W        W57459  12.347  42.060   0.419
89055W        W57460  20.789  17.840  14.381
89056W        W57461  43.574   8.193   3.608
89057W        W57462   2.727  29.516   0.965
89058W        W57463  22.150  17.154  11.625
89059W        W57464  29.724   0.302  10.749
89060W        W57465  41.342   2.707  12.111
89061W        W57466  16.222  12.767  12.036
89062W        W57467  20.597   6.338  10.720
89063W        W57468   2.829   1.447   1.262
89064W        W57469  27.453  20.465   3.244
89065W        W57470  23.314  37.669   1.221
89066W        W57471  42.536  44.973  10.890
89067W        W57472  12.491  23.241   0.381
89068W        W57473   7.587  23.656  11.236
89069W        W57474  31.960  11.197   0.475
89070W        W57475  12.700  29.858  11.178
89071W        W57476   5.468   4.148   1.308
89072W        W57477   1.255   6.695  11.186
89073W        W57478  22.690  24.770   4.096
89074W        W57479  41.336  16.305   2.881
89075W        W57480  21.155  16.849   0.400
89076W        W57481  23.732  17.149   2.832
89077W        W57482  27.499  32.906  11.737
89078W        W57483   0.034  34.620  12.371
89079W        W57484   9.933  32.552  12.447
89080W        W57485  39.361  39.678   4.265
89081W        W57486  41.735  20.682   0.793
89082W        W57487   0.402   8.477   4.869
89083W        W57488  21.200  19.276   0.868
89084W        W57489   7.488  34.404   0.343
89085W        W57490  21.162  37.511  10.737
89086W        W57491   0.599  35.593  11.406
89087W        W57492  41.195  28.387  11.207
89088W        W57493   0.357  44.287   0.851
89089W        W57494  19.975  13.686  14.852
89090W        W57495  42.070  13.463   2.353
89091W        W57496   0.831  12.840   3.549
89092W        W57497  17.275  43.343   4.617
89093W        W57498  38.589   5.968   4.085
89094W        W57499  13.262  10.246  14.194
89095W        W57500  18.578   7.106  14.345
89096W        W57501  22.891  15.020   2.313
89097W        W57502   9.476  15.155   1.672
89098W        W57503  23.678   5.176  11.155
89099W        W57504   4.381  30.927   3.675
89100W        W57505  28.101   1.372   4.927
89101W        W57506  25.388  10.401   0.008
89102W        W57507  37.361  43.747   2.802
89103W        W57508  29.553   5.883  13.080
89104W        W57509  23.225  15.019  13.537
89105W        W57510  15.822  27.395   1.307
89106W        W57511  29.116  41.714  11.979
89107W        W57512  28.626  36.627   3.076
89108W        W57513  40.942  18.685  13.422
89109W        W57514  30.742  38.336   0.808
89110W        W57515  20.537  21.452   2.293
89111W        W57516  34.528  24.988  14.001
89112W        W57517  26.672  27.103  14.435
89113W        W57518   7.896  44.855   4.676
89114W        W57519  43.880  18.481   2.677
89115W        W57520   4.168  11.145   0.475
89116W        W57521  17.586  41.211   2.285
89117W        W57522  38.146  37.393   0.920
89118W        W57523  32.174  25.684   1.240
89119W        W57524  40.054  26.368   3.395
89120W        W57525  28.189  12.420  11.146
89121W        W57526  36.978  38.001   3.178
89122W        W57527  40.760   3.917   3.679
89123W        W57528  32.506  18.074   2.168
89124W        W57529  37.277  24.636  13.324
89125W        W57530   7.258  38.100   5.139
89126W        W57531  42.953  14.664   2.322
89127W        W57532   0.684  41.777  11.079
89128W        W57533  43.548  10.267   3.136
89129W        W57534   3.767  30.025   2.278
89130W        W57535  32.934  39.112   4.401
89131W        W57536  22.166  38.492  10.685
89132W        W57537  22.693  40.443  14.282
89133W        W57538  30.928  43.159   3.578
89134W        W57539  23.597  22.534   4.881
89135W        W57540  35.457  10.658  12.998
89136W        W57541  23.292  25.195  11.895
89137W        W57542   4.904  28.010  12.564
89138W        W57543   8.155  31.106  10.744
89139W        W57544   7.387  16.666   4.039
89140W        W57545  20.613   8.806   2.596
89141W        W57546  39.318   3.198   4.068
89142W        W57547  32.833  24.927  10.713
89143W        W57548   8.656  33.014   0.425
89144W        W57549  41.500  34.861   4.081
89145W        W57550   0.665  33.030  13.343
89146W        W57551  38.589  24.672  11.534
89147W        W57552  17.491  34.371   2.382
89148W        W57553  39.036  14.073   4.652
89149W        W57554   8.380  23.928   4.811
89150W        W57555  18.241  41.391   2.772
89151W        W57556  17.343   6.702   3.177
89152W        W57557  16.853  40.127  13.346
89153W        W57558  41.259  36.957   2.359
89154W        W57559   9.136   8.771  12.199
89155W        W57560  18.776  20.564  14.500
89156W        W57561  44.203  27.481   3.677
89157W        W57562   0.347   7.123  12.061
89158W        W57563  44.893  21.613   4.401
89159W        W57564  12.782  42.415  10.905
89160W        W57565  16.099  34.878  11.693
89161W        W57566   1.867  31.889   4.503
89162W        W57567  17.187   1.644  10.105
89163W        W57568   0.315  21.093  13.567
89164W        W57569  44.776   4.490   3.814
89165W        W57570   6.102  35.859  11.421
89166W        W57571  30.856  20.517  13.391
89167W        W57572   1.109  38.245  12.104
89168W        W57573  32.903  23.987  11.607
89169W        W57574   3.732  29.593   1.938
89170W        W57575   5.460  12.614  13.634
89171W        W57576  44.243  33.713  12.059
89172W        W57577  21.591  36.091   3.397
89173W        W57578  24.260   2.266   3.298
89174W        W57579  26.875  34.896   4.884
89175W        W57580  22.950  30.091   4.148
89176W        W57581  11.198   8.867  10.680
89177W        W57582  38.043   1.058   3.728
89178W        W57583  31.011  30.601   1.385
89179W        W57584  29.301  12.607  11.827
89180W        W57585  14.540   4.443   2.992
89181W        W57586   7.160  34.443  13.947
89182W        W57587  39.008   7.168  10.105
89183W        W57588   4.138  31.716   0.438
89184W        W57589  16.389  13.243   4.395
89185W        W57590  11.044  28.739  11.940
89186W        W57591  12.748   5.293   1.643
89187W        W57592  23.127  43.033   4.222
89188W        W57593  28.183  17.762  14.873
89189W        W57594   1.839  35.526  14.634
89190W        W57595  10.307   1.900   2.108
89191W        W57596  20.716  42.616   0.977
89192W        W57597   1.803  13.064   2.975
89193W        W57598   5.268   2.749  11.575
89194W        W57599  42.261  13.668  10.640
89195W        W57600  44.527   0.839   2.400
89196W        W57601  15.110  11.808   0.193
89197W        W57602  44.224  34.107  11.576
89198W        W57603  26.850   1.069  11.167
89199W        W57604  44.262  40.395  12.996
89200W        W57605  15.185  37.868  14.413
89201W        W57606  18.685  22.203  14.514
89202W        W57607  39.033   5.574   3.306
89203W        W57608  11.332   3.163  14.014
89204W        W57609   5.672  18.730   0.158
89205W        W57610  33.998  16.526   1.063
89206W        W57611  24.107  22.537   1.780
89207W        W57612  18.228  30.828   1.246
89208W        W57613  19.319   1.656  14.881
89209W        W57614  15.842   4.237  14.979
89210W        W57615  28.239  42.805  14.479
89211W        W57616  36.555  42.277  10.625
89212W        W57617  41.147   9.633   2.356
89213W        W57618  27.219  40.803   4.135
89214W        W57619   7.725  17.673   1.829
89215W        W57620  31.355  31.405   1.687
89216W        W57621  31.604  12.374  11.537
89217W        W57622   6.622  37.081  12.872
89218W        W57623  21.392   9.109   0.405
89219W        W57624  38.537  39.607  13.318
89220W        W57625   5.534  36.777  13.905
89221W        W57626   7.665   3.373  12.889
89222W        W57627   7.616  13.219   4.188
89223W        W57628  21.412  11.145  11.026
89224W        W57629   5.123  15.133  13.154
89225W        W57630  26.725  39.123  10.752
89226W        W57631   6.954   8.711  11.660
89227W        W57632  16.153  29.580   3.593
89228W        W57633  24.047  39.475   1.887
89229W        W57634  21.155   3.852  12.648
89230W        W57635  33.075  36.377   4.740
89231W        W57636  30.118  36.563   1.774
89232W        W57637  35.026   9.794  14.694
89233W        W57638  14.375  31.910  12.904
89234W        W57639   5.486   0.163   2.726
89235W        W57640  12.994  15.123  13.049
89236W        W57641  34.946  28.516   4.756
89237W        W57642  38.707  44.408   4.107
89238W        W57643  18.022   2.717  14.940
89239W        W57644  36.886   3.681   3.769
89240W        W57645  22.056  32.587   2.182
89241W        W57646   3.460  41.809   3.695
89242W        W57647  22.500  24.608  14.997
89243W        W57648   1.949  27.341  12.032
89244W        W57649  27.422  14.244   1.658
89245W        W57650  18.348  17.076   3.035
89246W        W57651   7.289   5.282   0.912
89247W        W57652  23.005  38.565   0.302
89248W        W57653  24.523   5.776   2.887
89249W        W57654  16.805  39.303  13.615
89250W        W57655  41.525  44.945   0.032
89251W        W57656  42.437   2.689   1.824
89252W        W57657  26.603   8.625  12.160
89253W        W57658  19.222  28.419   4.429
89254W        W57659   3.047  14.543   2.675
89255W        W57660  16.778  35.495   1.109
89256W        W57661  23.217  22.311   2.394
89257W        W57662  43.511  36.794  11.038
89258W        W57663  43.005  13.561  14.410
89259W        W57664   5.726  23.029   4.597
89260W        W57665  20.235  19.014   0.957
89261W        W57666   4.750  42.386  13.528
89262W        W57667  42.529  16.334   0.179
89263W        W57668  39.331  33.068   0.451
89264W        W57669  12.325  35.822   4.242
89265W        W57670  22.515  12.651  10.212
89266W        W57671  21.144   1.318  11.805
89267W        W57672  14.611  15.034   0.325
89268W        W57673  38.955  41.120   3.161
89269W        W57674  11.096  21.948   2.076
89270W        W57675  25.122   1.237  14.102
89271W        W57676  30.998  38.394   4.789
89272W        W57677  41.986   1.379   3.393
89273W        W57678  33.680   4.167  11.892
89274W        W57679  15.654  32.904  13.387
89275W        W57680   1.201   5.353   0.841
89276W        W57681  28.644   2.451  12.884
89277W        W57682  29.690  40.313   0.841
89278W        W57683  35.361   9.576  12.864
89279W        W57684  16.081  28.187   3.029
89280W        W57685  30.859  13.232  11.102
89281W        W57686  34.522   2.856   0.538
89282W        W57687   2.902  17.965  13.617
89283W        W57688  17.585  14.044   2.662
89284W        W57689  15.574  32.360  11.606
89285W        W57690  19.538  32.469   2.351
89286W        W57691  34.345   5.985   3.792
89287W        W57692  10.573  21.581  14.344
89288W        W57693  35.570  42.493   1.888
89289W        W57694  31.101  40.183  14.776
89290W        W57695   3.245   5.223   2.282
89291W        W57696  17.277  16.196   0.013
89292W        W57697  38.756  22.642   1.908
89293W        W57698  13.101   4.736  14.583
89294W        W57699  24.370   6.265  10.792
89295W        W57700  36.459  36.646  12.569
89296W        W57701  16.824  38.250   2.681
89297W        W57702   3.297  20.808   0.396
89298W        W57703  12.296  41.015  10.490
89299W        W57704  40.072  10.435  12.222
89300W        W57705  33.290  25.032   1.710
89301W        W57706  41.798  10.941   1.952
89302W        W57707  15.021  32.431  12.874
89303W        W57708  16.252  37.808  13.813
89304W        W57709  25.124  15.575  14.433
89305W        W57710  21.257  30.645   0.227
89306W        W57711  38.955  35.009   9.915
89307W        W57712  30.945   4.372  12.480
89308W        W57713  41.588  36.424  13.048
89309W        W57714  33.823  33.822   1.919
89310W        W57715  40.688  17.415   4.165
89311W        W57716  25.243  44.794  12.209
89312W        W57717  33.470  26.052  12.944
89313W        W57718  33.929  15.959   3.875
89314W        W57719   5.994   4.442   4.847
89315W        W57720  41.013  14.646   1.881
89316W        W57721  18.308  32.537   5.439
89317W        W57722   9.323   7.627   0.563
89318W        W57723   1.620  40.283   1.278
89319W        W57724  12.674  40.054   0.114
89320W        W57725   3.979   8.136  10.829
89321W        W57726  29.207  27.685  11.522
89322W        W57727  23.120  13.377  14.711
89323W        W57728  32.113   7.320   0.851
89324W        W57729  40.507  34.159   2.800
89325W        W57730  19.731   3.506   3.807
89326W        W57731  35.733   1.461   0.924
89327W        W57732  27.603  15.144  10.465
89328W        W57733  15.127  30.562  11.722
89329W        W57734  23.060  42.728  12.511
89330W        W57735  11.750  17.401  10.245
89331W        W57736  18.657  18.473   0.333
89332W        W57737  16.489   3.748   0.013
89333W        W57738  40.720  34.378  12.584
89334W        W57739   7.892  30.991   2.254
89335W        W57740  27.112  16.128  12.778
89336W        W57741  41.965  25.964   1.328
89337W        W57742  37.570  35.039   5.141
89338W        W57743   9.363  41.698  11.549
89339W        W57744  16.786  30.933   1.678
89340W        W57745   8.562  44.056  12.000
89341W        W57746  22.189  30.399   0.116
89342W        W57747  37.560  43.857  14.545
89343W        W57748  39.917  36.610   3.297
89344W        W57749  19.726  11.947   0.525
89345W        W57750  40.508  31.713   4.611
89346W        W57751  22.629   7.305  12.384
89347W        W57752  25.106   8.128   2.303
89348W        W57753  37.781  22.601  10.135
89349W        W57754   9.102   2.848  12.758
89350W        W57755   0.742  41.543   0.302
89351W        W57756  26.644  11.642   4.208
89352W        W57757  16.843  18.942   3.297
89353W        W57758   1.992  36.427   3.667
89354W        W57759  33.817  32.654   3.318
89355W        W57760  38.139  37.050   4.542
89356W        W57761   4.974   7.372  13.025
89357W        W57762   6.937  16.107   1.864
89358W        W57763  13.892  31.639  11.610
89359W        W57764   0.779  32.586  11.990
89360W        W57765  16.034  30.460   1.921
89361W        W57766   1.931  36.417   1.447
89362W        W57767  34.420  26.225  13.390
89363W        W57768   2.519  44.641   3.144
89364W        W57769  40.145  28.628  13.487
89365W        W57770  11.721  12.948  10.337
89366W        W57771   3.884  15.268  14.311
89367W        W57772  31.888   3.719   1.586
89368W        W57773   0.811  19.652   4.371
89369W        W57774  33.521  39.855   0.887
89370W        W57775  33.584  25.691  11.609
89371W        W57776  19.092  29.850   2.183
89372W        W57777  21.598  33.953  13.107
89373W        W57778  29.749  28.073  14.567
89374W        W57779  17.650  35.043  10.600
89375W        W57780   0.797  34.801   2.867
89376W        W57781  18.307  14.729   3.452
89377W        W57782  13.598  43.311   1.162
89378W        W57783  28.975   6.249   4.376
89379W        W57784  12.970  21.704  13.999
89380W        W57785  25.175  17.300  10.637
89381W        W57786  30.174  30.951  11.978
89382W        W57787  24.166  43.800   5.028
89383W        W57788   8.124  33.514   0.973
89384W        W57789  40.059  31.237   2.383
89385W        W57790   4.178  42.395  14.896
89386W        W57791   3.906  36.304   4.007
89387W        W57792  34.435  20.855   2.234
89388W        W57793  10.774   8.128   0.414
89389W        W57794  24.085   3.471  13.345
89390W        W57795  17.583   4.746   3.783
89391W        W57796  10.162  10.551  13.320
89392W        W57797  27.110  39.148   0.477
89393W        W57798   3.440   3.661  11.546
89394W        W57799  16.548   5.282   5.112
89395W        W57800  20.762  35.920   2.393
89396W        W57801   8.878  23.651  14.102
89397W        W57802  35.110  26.759   0.783
89398W        W57803  44.532  40.802   1.886
89399W        W57804  20.690   5.444  11.614
89400W        W57805   9.267  25.794   2.957
89401W        W57806  11.498  42.413  10.673
89402W        W57807  24.044  29.676  13.465
89403W        W57808   3.561  23.300  14.901
89404W        W57809  10.895   1.373   0.334
89405W        W57810  36.782   2.341   1.520
89406W        W57811  13.222  12.122  13.827
89407W        W57812  37.983  24.087  14.269
89408W        W57813  28.492  39.100   0.507
89409W        W57814  13.200   8.056   2.145
89410W        W57815  38.995  40.308   0.848
89411W        W57816  40.739  18.319   3.258
89412W        W57817  23.288  28.919   2.153
89413W        W57818   1.954  15.696  14.491
89414W        W57819  40.017   3.895   0.832
89415W        W57820  24.648  19.825   3.231
89416W        W57821  38.341  24.661  13.361
89417W        W57822  34.377  42.337   1.189
89418W        W57823  20.023  40.790  11.647
89419W        W57824  40.113  19.832   0.801
89420W        W57825  20.984  25.175   2.823
89421W        W57826  16.755  40.221   1.812
89422W        W57827  43.290   4.533   1.321
89423W        W57828   8.323  22.161  12.807
89424W        W57829  17.203   6.385   1.688
89425W        W57830  13.372  34.630   3.734
89426W        W57831  24.208   2.159   0.362
89427W        W57832  19.803  38.687   1.203
89428W        W57833  32.007   6.999  11.338
89429W        W57834  12.184  28.332   3.760
89430W        W57835  38.964  43.667   0.928
89431W        W57836  15.058  11.389  11.624
89432W        W57837  30.580  39.169   4.281
89433W        W57838   1.690  42.213   4.183
89434W        W57839  37.914  41.206   0.474
89435W        W57840  20.135  10.713   3.190
89436W        W57841   9.705   0.678  12.214
89437W        W57842   5.762   5.873   4.553
89438W        W57843   1.840  40.310  10.757
89439W        W57844  26.673  33.385   0.931
89440W        W57845  29.650   4.866  10.727
89441W        W57846  35.096  21.693   0.234
89442W        W57847  27.941  41.971   2.769
89443W        W57848  29.485   6.941   3.151
89444W        W57849  29.007  26.433  13.953
89445W        W57850  23.723   2.906   2.671
89446W        W57851  26.652  38.882  12.918
89447W        W57852  26.677  11.344   2.823
89448W        W57853  24.930  25.691  12.033
89449W        W57854  23.814  32.682  14.809
89450W        W57855  18.853  17.257  13.083
89451W        W57856   6.226  14.841   4.568
89452W        W57857  12.697  34.492  14.779
89453W        W57858  30.222  43.760   3.007
89454W        W57859  19.024  39.684   1.649
89455W        W57860  31.662  13.688   2.217
89456W        W57861   2.215  37.578  11.163
89457W        W57862  37.573  36.973   2.453
89458W        W57863   6.439   4.304   1.323
89459W        W57864  19.147  22.212   1.395
89460W        W57865  10.354  34.952   1.678
89461W        W57866  20.641  40.743   2.821
89462W        W57867  29.931  33.013  13.503
89463W        W57868  11.931  20.811   2.742
89464W        W57869  14.030  40.749   4.200
89465W        W57870  24.084  31.666   4.070
89466W        W57871  15.511  34.448  14.457
89467W        W57872  32.406  29.900   4.083
89468W        W57873  37.498  37.255   9.840
89469W        W57874  22.643  44.962  12.467
89470W        W57875  24.828  33.768  13.974
89471W        W57876  34.714  23.478   4.238
89472W        W57877  22.724  34.139   4.196
89473W        W57878  22.050  14.025  12.502
89474W        W57879  12.321  18.180  11.603
89475W        W57880  27.663   0.952  12.295
89476W        W57881   6.311  35.936   2.154
89477W        W57882  38.086  41.381   4.590
89478W        W57883   0.798  35.296   2.793
89479W        W57884  40.522  36.463  14.881
89480W        W57885  29.435  21.041   1.404
89481W        W57886  24.656  21.664   2.713
89482W        W57887  41.026  34.836  13.976
89483W        W57888   8.400   4.443   4.735
89484W        W57889   7.196  33.927   0.296
89485W        W57890   8.234   4.992  11.643
89486W        W57891  44.201  44.544  11.066
89487W        W57892  38.034  20.979   3.400
89488W        W57893  39.889   1.655  12.071
89489W        W57894  21.039  11.098   1.873
89490W        W57895  40.841  14.901  12.412
89491W        W57896   8.817  33.341  13.694
89492W        W57897  44.064  21.231   4.927
89493W        W57898  27.132  28.209   3.691
89494W        W57899  34.548  32.822  14.466
89495W        W57900  38.764  41.605   3.201
89496W        W57901  37.478  18.258   1.856
89497W        W57902  38.757  41.774  11.843
89498W        W57903  37.231  26.722  11.900
89499W        W57904  31.253   0.721   2.607
89500W        W57905   2.449  12.807  13.330
89501W        W57906   6.344  12.852   3.519
89502W        W57907  36.064  23.035   3.722
89503W        W57908  20.857   1.234   2.846
89504W        W57909  39.511  42.259  11.875
89505W        W57910   2.035  17.536  13.487
89506W        W57911  32.967  36.513   2.858
89507W        W57912  40.969  23.105   3.022
89508W        W57913  11.789  13.727   4.142
89509W        W57914  32.894  15.641  10.704
89510W        W57915   6.198  14.609   0.224
89511W        W57916  35.403  36.103  11.693
89512W        W57917  32.715  28.425   2.748
89513W        W57918   0.273   6.305   0.872
89514W        W57919   9.465   0.230  10.562
89515W        W57920   4.420  28.235   2.249
89516W        W57921   2.264   8.887   2.490
89517W        W57922   4.873   7.458   1.048
89518W        W57923  10.846  14.201  11.741
89519W        W57924  23.687  11.768   1.766
89520W        W57925   4.028  23.992  11.867
89521W        W57926  29.417  31.391   3.347
89522W        W57927  13.747  41.200   0.447
89523W        W57928  39.924   6.134   4.323
89524W        W57929   0.033  29.383   0.389
89525W        W57930  24.198  42.448   2.855
89526W        W57931   8.603  38.376   3.772
89527W        W57932  13.349  31.051   4.046
89528W        W57933  30.890  32.435   1.185
89529W        W57934  27.190  41.763   1.442
89530W        W57935  11.776  20.591  14.897
89531W        W57936   2.860  16.575   4.629
89532W        W57937   3.655   7.782   3.223
89533W        W57938  25.615  21.542  12.381
89534W        W57939  29.339   7.129  13.672
89535W        W57940   2.782  25.055   1.404
89536W        W57941   1.210  35.991  10.447
89537W        W57942  10.223   3.547   3.703
89538W        W57943  19.789  30.126   2.829
89539W        W57944  19.184  29.484  12.867
89540W        W57945  27.643  33.605  14.356
89541W        W57946  33.174  37.103  11.149
89542W        W57947   6.709  31.641   0.380
89543W        W57948   3.114  34.073  11.628
89544W        W57949  16.544  37.367   1.704
89545W        W57950   2.967  44.555  12.073
89546W        W57951  41.452  33.377  11.534
89547W        W57952   6.093  11.378  12.398
89548W        W57953  13.677  23.490  11.396
89549W        W57954  42.620  33.858  10.994
89550W        W57955  38.142  32.399  11.915
89551W        W57956  43.802  24.034   2.809
89552W        W57957   0.242  34.367   3.594
89553W        W57958  24.307   0.990   0.917
89554W        W57959  29.868   1.780   2.767
89555W        W57960  20.310   1.607  10.527
89556W        W57961  42.978  24.625  11.524
89557W        W57962  25.210  14.709   2.690
89558W        W57963   3.294  18.828  14.600
89559W        W57964  27.393   0.250   9.919
89560W        W57965   7.695  31.150  13.386
89561W        W57966  15.216  24.843  14.930
89562W        W57967   3.772   6.946  13.534
89563W        W57968  17.005  40.293   3.285
89564W        W57969  27.430  15.680   0.402
89565W        W57970   4.903  17.109   2.302
89566W        W57971   7.744  28.636  12.651
89567W        W57972  37.123  13.774  13.416
89568W        W57973  25.467  24.940   0.747
89569W        W57974  20.528  23.092   1.434
89570W        W57975  13.287  20.132  11.439
89571W        W57976   9.315  21.370  13.978
89572W        W57977   5.879  24.855   3.129
89573W        W57978  19.914  14.611  11.999
89574W        W57979  35.612  15.437   4.731
89575W        W57980  42.521  19.269   2.187
89576W        W57981  27.200  15.163  12.841
89577W        W57982  38.859  37.852  13.419
89578W        W57983   7.165  32.434   4.719
89579W        W57984  39.022   4.734   3.539
89580W        W57985  13.197  33.088   3.585
89581W        W57986  39.686  14.339   3.739
89582W        W57987   7.198  18.260  11.564
89583W        W57988  33.603  28.405   3.270
89584W        W57989  28.964   0.144   1.220
89585W        W57990   5.245   5.929   4.494
89586W        W57991  25.014  20.766  14.283
89587W        W57992  42.582  44.802   0.863
89588W        W57993  19.580  40.796  11.974
89589W        W57994  40.068  16.521  14.005
89590W        W57995   0.168  20.889   2.393
89591W        W57996  23.445  22.048   2.900
89592W        W57997  33.583  29.616  13.509
89593W        W57998   6.852   7.016   2.214
89594W        W57999   2.748  24.225  13.366
89595W        W58000  32.841  10.166  14.913
89596W        W58001  32.074  11.341  13.016
89597W        W58002   2.720  14.235  13.283
89598W        W58003  32.396  26.603  12.513
89599W        W58004  12.212  42.300   3.591
89600W        W58005  12.595  34.088   4.173
89601W        W58006  44.503  25.417  14.185
89602W        W58007  33.600  40.787  13.604
89603W        W58008  36.012  11.927   3.805
89604W        W58009  21.599   6.926   0.435
89605W        W58010  17.972   6.869   0.980
89606W        W58011  22.986  12.376  11.158
89607W        W58012  25.366  30.970   4.621
89608W        W58013  10.890  21.492   1.941
89609W        W58014  41.944  32.952  14.358
89610W        W58015  37.597  21.965  12.427
89611W        W58016  29.874   1.511   4.501
89612W        W58017  32.511  39.409   2.283
89613W        W58018   4.259   6.494  13.059
89614W        W58019  36.618   5.731   4.251
89615W        W58020   2.764  20.093   0.335
89616W        W58021  23.224  39.333   3.696
89617W        W58022  27.519  21.482   3.107
89618W        W58023  27.038  26.999  10.879
89619W        W58024  20.544  11.095  11.661
89620W        W58025  34.912   6.681   4.266
89621W        W58026  12.667  26.931  10.222
89622W        W58027   8.906  14.590  13.534
89623W        W58028  11.399  16.391  14.735
89624W        W58029  19.199  23.979  11.533
89625W        W58030  16.039  17.303  13.124
89626W        W58031  34.065  34.366  10.525
89627W        W58032  42.650  18.800  14.889
89628W        W58033   3.411  28.734  13.575
89629W        W58034  11.671   6.346   3.116
89630W        W58035  33.641  28.468   4.822
89631W        W58036  40.950   9.063  14.312
89632W        W58037  29.939  25.092   1.634
89633W        W58038   7.240  40.264   0.482
89634W        W58039  31.509  32.649   1.779
89635W        W58040  40.323   9.190   3.650
89636W        W58041   4.762  21.623  11.873
89637W        W58042  39.308  42.687   4.927
89638W        W58043   6.825  40.009  10.826
89639W        W58044   9.593   4.525   0.447
89640W        W58045  38.502  23.136   0.807
89641W        W58046  17.371  38.577  12.193
89642W        W58047  36.899  33.357  14.385
89643W        W58048  24.805  29.641  12.495
89644W        W58049  15.928  36.143  11.965
89645W        W58050  27.997   3.275   2.901
89646W        W58051  12.539  33.406  12.899
89647W        W58052  10.433  28.770  13.418
89648W        W58053  26.604  10.127   2.251
89649W        W58054   5.354  16.774  13.948
89650W        W58055  27.399   9.940  12.415
89651W        W58056  12.352  31.450  11.465
89652W        W58057   9.113  16.032   3.641
89653W        W58058  23.608  14.632   4.876
89654W        W58059   4.410  32.917  14.911
89655W        W58060  13.578  28.070   2.640
89656W        W58061   7.302  27.100  10.763
89657W        W58062   4.194  27.710  10.793
89658W        W58063  10.824  32.874  14.888
89659W        W58064  11.860  44.435   3.353
89660W        W58065  10.866  30.127   2.185
89661W        W58066  21.177  14.037  14.520
89662W        W58067  40.431  29.718   1.283
89663W        W58068  11.417  39.091   1.873
89664W        W58069  21.172   8.805   3.351
89665W        W58070  21.248  21.013   0.789
89666W        W58071  25.896  40.248  13.906
89667W        W58072   5.795  42.795   0.084
89668W        W58073  33.415  26.235  14.539
89669W        W58074   4.765  19.994   1.806
89670W        W58075   0.337  41.847  13.841
89671W        W58076  20.639  35.246   0.014
89672W        W58077  31.083   5.475   4.118
89673W        W58078  19.257  40.350  14.012
89674W        W58079  30.688   2.431  10.726
89675W        W58080   1.532  39.267   4.259
89676W        W58081  16.957  43.318  10.584
89677W        W58082  30.369  18.374   3.809
89678W        W58083  14.741   9.866   3.110
89679W        W58084  44.252  41.358   3.622
89680W        W58085  29.877  20.251   4.233
89681W        W58086  11.251  10.659   4.617
89682W        W58087  25.131  29.650  10.891
89683W        W58088  13.688  18.103   0.340
89684W        W58089  32.060  38.811  13.025
89685W        W58090  22.120   9.142   4.353
89686W        W58091   9.680  18.585  14.358
89687W        W58092  10.600  17.068  13.335
89688W        W58093  23.693  21.297   4.054
89689W        W58094  10.672  12.113   3.328
89690W        W58095  42.789   1.711  10.656
89691W        W58096  42.453  11.377   2.630
89692W        W58097   2.959  33.605  10.461
89693W        W58098   7.594  33.440   0.925
89694W        W58099  43.213  20.785  12.862
89695W        W58100  22.200   6.723  11.563
89696W        W58101  20.990   9.965  13.007
89697W        W58102  26.249  28.041   4.708
89698W        W58103  41.421   3.349   0.491
89699W        W58104   9.472  17.066   3.400
89700W        W58105   6.602   8.314  11.653
89701W        W58106  11.268   2.856  14.474
89702W        W58107  16.604   7.222  12.582
89703W        W58108  10.235   2.821   1.261
89704W        W58109   6.599  35.494   2.990
89705W        W58110  15.996  23.190   4.729
89706W        W58111  19.597  35.273  13.307
89707W        W58112  31.989  38.336  13.902
89708W        W58113  43.603  11.689  14.843
89709W        W58114  32.715  21.285   2.197
89710W        W58115  34.325  33.948   1.905
89711W        W58116  24.631   8.822  13.954
89712W        W58117   0.025   7.210  14.959
89713W        W58118  11.201   8.281  10.676
89714W        W58119   3.443  43.811   4.591
89715W        W58120   6.918  41.976   2.283
89716W        W58121  19.774  36.610   4.281
89717W        W58122  14.848  23.578   2.733
89718W        W58123  20.455  32.645  11.894
89719W        W58124  26.169  39.987  14.269
89720W        W58125  25.407  44.079   1.824
89721W        W58126  31.660  14.825   0.944
89722W        W58127  43.040   2.703   3.263
89723W        W58128  17.285  26.044   0.488
89724W        W58129  37.624  10.711  12.867
89725W        W58130   5.424   1.967   4.115
89726W        W58131  14.349  32.332   1.194
89727W        W58132  27.333  34.822   2.544
89728W        W58133  37.123  25.137   2.659
89729W        W58134  44.054  23.776  13.419
89730W        W58135  36.421  20.706  14.868
89731W        W58136  17.256  15.035   2.831
89732W        W58137  42.276  30.390  13.813
89733W        W58138  21.943  22.143  14.880
89734W        W58139  39.526  10.128  14.973
89735W        W58140  28.407  24.729   1.191
89736W        W58141  40.395  37.681   1.857
89737W        W58142  20.410  31.855  11.160
89738W        W58143   4.626  28.053  13.957
89739W        W58144   1.231  43.906   2.702
89740W        W58145  11.125   4.492  12.933
89741W        W58146  33.588  15.643   1.326
89742W        W58147  15.537  39.056  12.439
89743W        W58148  23.309  39.780   3.492
89744W        W58149  15.839  35.528   2.745
89745W        W58150  40.464  22.112  14.758
89746W        W58151  20.862  25.088  14.898
89747W        W58152  33.029  25.678  10.823
89748W        W58153  21.102  27.597  11.466
89749W        W58154  41.845  18.666  12.392
89750W        W58155  44.741  27.505   3.685
89751W        W58156  12.922  27.631   3.089
89752W        W58157   9.163  43.854   0.326
89753W        W58158  37.229  42.784  12.404
89754W        W58159  24.805  30.553   0.286
89755W        W58160  10.183  26.619  10.806
89756W        W58161  12.171  28.165  10.818
89757W        W58162  22.000  34.293  11.627
89758W        W58163  33.983  44.492  10.506
89759W        W58164  29.605  20.269   3.720
89760W        W58165  21.209  32.185  12.151
89761W        W58166  10.294  43.326  12.460
89762W        W58167  24.461  24.630  12.431
89763W        W58168  43.846  10.304   4.612
89764W        W58169  26.042  17.521   3.483
89765W        W58170   6.629  16.597   2.171
89766W        W58171  29.478  26.675   1.829
89767W        W58172  22.126  25.649  13.909
89768W        W58173  20.698  29.126   2.862
89769W        W58174  13.296  30.415   3.297
89770W        W58175  30.410  28.375   3.579
89771W        W58176  14.618   4.251   4.820
89772W        W58177   5.434  13.866  14.081
89773W        W58178  36.387  32.263   4.754
89774W        W58179   0.675  14.018   3.721
89775W        W58180   8.036  13.557   2.414
89776W        W58181  31.413  30.084   3.198
89777W        W58182  25.873  28.198  12.599
89778W        W58183   0.819  18.193  11.580
89779W        W58184  14.728  33.087   2.326
89780W        W58185  40.126   8.429  12.066
89781W        W58186  20.491  38.309  11.849
89782W        W58187  11.419  25.192   4.172
89783W        W58188  38.862  16.164   0.271
89784W        W58189   9.844  16.603  13.847
89785W        W58190  17.030  18.119  14.409
89786W        W58191  16.334  40.997  11.734
89787W        W58192  16.291  14.657  13.931
89788W        W58193   3.285  22.993  11.139
89789W        W58194  15.627  11.766   4.114
89790W        W58195   0.173   9.069   1.341
89791W        W58196  32.743  14.826   1.905
89792W        W58197  10.429  21.024   0.267
89793W        W58198   1.426  34.022  13.038
89794W        W58199  36.505  15.610   4.608
89795W        W58200  42.141  44.338  14.733
89796W        W58201  30.180   7.812   2.349
89797W        W58202  21.541  12.322  12.589
89798W        W58203   1.697  26.061  12.380
89799W        W58204  44.215  39.908   3.665
89800W        W58205  36.861  29.886  14.900
89801W        W58206  30.482  35.016  10.499
89802W        W58207  28.508  40.173   2.086
89803W        W58208  37.797  42.910  13.818
89804W        W58209  18.578  41.002  11.766
89805W        W58210   4.817  40.491  11.148
89806W        W58211  19.993  10.122  10.673
89807W        W58212  40.964   3.705   0.402
89808W        W58213  43.324  29.945  11.905
89809W        W58214  12.709  27.081  13.457
89810W        W58215  32.043  31.088  13.976
89811W        W58216  37.085  39.361  11.192
89812W        W58217  31.669  30.169   2.697
89813W        W58218  23.506  16.687   2.850
89814W        W58219  23.696  38.402  12.548
89815W        W58220   4.279  31.023  10.766
89816W        W58221  19.687  38.196  11.211
89817W        W58222  18.684  10.636   2.245
89818W        W58223  32.460  21.788   4.151
89819W        W58224  15.660  39.801  12.531
89820W        W58225  26.552  25.783   0.742
89821W        W58226  43.608  14.296   4.998
89822W        W58227   3.776  31.328   0.778
89823W        W58228   9.334   4.252   0.047
89824W        W58229  34.801  35.853  12.579
89825W        W58230   4.503  21.159   3.412
89826W        W58231  15.527  11.417  11.863
89827W        W58232   8.201  40.118   2.615
89828W        W58233  38.003  15.253  12.615
89829W        W58234  26.085  11.693  11.595
89830W        W58235  14.429   7.747  12.033
89831W        W58236   9.729  19.094  14.481
89832W        W58237  23.549  10.398   4.122
89833W        W58238  43.655  17.617   2.706
89834W        W58239   3.365  38.419   2.761
89835W        W58240  40.919  35.207   1.509
89836W        W58241   4.318  19.107  13.564
89837W        W58242  21.738  22.602  10.599
89838W        W58243   4.715  44.354  13.326
89839W        W58244  17.075  30.962   2.137
89840W        W58245  33.123  27.561   2.309
89841W        W58246  25.988   7.213  10.895
89842W        W58247  39.436  28.888  12.166
89843W        W58248  14.223  18.213  13.589
89844W        W58249  10.345  10.322  12.886
89845W        W58250   8.196  33.174   4.314
89846W        W58251  18.179  15.096  12.315
89847W        W58252  10.664  17.823  14.398
89848W        W58253  10.849   9.004   1.402
89849W        W58254  23.252  42.700   4.590
89850W        W58255  15.297  23.706  11.126
89851W        W58256  40.479  39.716  10.628
89852W        W58257  10.843  20.210  11.583
89853W        W58258  28.057  15.317  10.694
89854W        W58259   6.610   6.369  10.643
89855W        W58260  15.348  17.149  10.611
89856W        W58261  43.037   4.836  13.680
89857W        W58262   4.096  13.069  11.465
89858W        W58263  12.876  21.492  10.746
89859W        W58264   7.796   2.323  12.056
89860W        W58265   7.558   1.864   3.232
89861W        W58266   9.399  15.599   3.674
89862W        W58267   5.402  31.161  14.295
89863W        W58268   7.646  44.268   1.171
89864W        W58269  42.646  11.870   0.356
89865W        W58270  42.828  42.890  12.041
89866W        W58271   5.445  21.287   1.667
89867W        W58272  44.210   6.399   1.817
89868W        W58273  17.024  38.836  13.516
89869W        W58274  40.896  27.092   4.614
89870W        W58275  35.970   2.322   4.491
89871W        W58276   9.078  33.474  10.712
89872W        W58277  35.041   7.915   0.869
89873W        W58278   1.452   7.143   0.469
89874W        W58279  17.511  27.952  12.512
89875W        W58280  16.174  24.157  12.210
89876W        W58281  10.964  43.273  14.999
89877W        W58282   0.937   8.942   1.260
89878W        W58283  33.009   0.617  13.826
89879W        W58284   1.837   0.997   4.599
89880W        W58285  21.030  32.680  12.080
89881W        W58286  23.798   4.202   3.933
89882W        W58287  31.549   6.169  13.390
89883W        W58288  36.855  36.298  12.491
89884W        W58289  32.577  38.889   2.234
89885W        W58290  31.235  15.926   2.811
89886W        W58291  21.872  23.435  10.203
89887W        W58292  40.321  30.994   2.788
89888W        W58293  11.783  24.786   3.684
89889W        W58294  27.144  29.193   3.565
89890W        W58295  40.505   7.116  13.051
89891W        W58296  27.690  14.370  10.611
89892W        W58297  26.087   8.139   3.764
89893W        W58298  29.579  16.930  13.869
89894W        W58299   2.713  29.547  10.720
89895W        W58300   9.943  24.429  12.446
89896W        W58301  41.779  16.299  13.121
89897W        W58302  16.103  32.895   1.334
89898W        W58303  18.013   7.242  12.117
89899W        W58304  34.915  38.376   0.962
89900W        W58305  42.831   3.714  11.609
89901W        W58306  44.342  21.217   3.213
89902W        W58307  36.372   4.878  12.090
89903W        W58308  32.313  21.090   0.802
89904W        W58309  29.047  17.265  14.825
89905W        W58310  12.023   6.692  12.480
89906W        W58311  15.134  15.124  14.805
89907W        W58312  29.488  31.000   1.608
89908W        W58313  37.133   5.131  12.420
89909W        W58314  43.884  15.722  12.934
89910W        W58315  42.544  23.526  11.210
89911W        W58316  24.699  40.528  12.572
89912W        W58317  25.735  40.006  13.400
89913W        W58318  32.009   2.327   3.379
89914W        W58319  13.101   4.770   0.894
89915W        W58320   1.902  16.061   1.815
89916W        W58321  20.348  25.329  12.338
89917W        W58322   1.911  22.992  14.404
89918W        W58323  31.377  38.676  10.563
89919W        W58324  16.062  33.518   0.681
89920W        W58325  43.240  22.291   2.557
89921W        W58326  41.940  26.497  11.657
89922W        W58327  11.082  40.520   1.641
89923W        W58328  11.706  18.390  10.067
89924W        W58329  15.016   4.352   4.427
89925W        W58330  13.057  37.776   3.073
89926W        W58331  34.081  33.855   2.803
89927W        W58332  30.159  26.988  12.025
89928W        W58333  12.797  34.125  13.568
89929W        W58334  10.783  25.766  13.160
89930W        W58335  11.712  21.049  10.693
89931W        W58336  17.318  13.743   1.019
89932W        W58337   1.310  43.843   4.778
89933W        W58338  28.562  25.538  12.427
89934W        W58339  43.540  10.972  10.764
89935W        W58340  32.381   2.606   4.906
89936W        W58341  25.677  31.438   3.189
89937W        W58342  15.486  26.737   3.433
89938W        W58343  20.772  15.039  11.069
89939W        W58344  14.787  42.641  13.573
89940W        W58345  28.098  40.899   4.235
89941W        W58346  10.184  33.044   3.807
89942W        W58347   7.539  38.868   9.703
89943W        W58348  30.636  44.135  14.837
89944W        W58349  31.724   8.104   3.962
89945W        W58350  36.849  16.989  12.386
89946W        W58351  40.146  40.473  13.881
89947W        W58352  24.242  35.209  13.058
89948W        W58353  40.665   5.224   9.789
89949W        W58354  33.372  10.426  12.980
89950W        W58355  41.945  18.609   2.360
89951W        W58356  21.082  13.373  13.907
89952W        W58357   2.824   7.489   0.999
89953W        W58358  23.477  38.587  14.753
89954W        W58359  18.343  37.420   4.755
89955W        W58360   3.112   2.638  11.601
89956W        W58361  19.239   3.360  12.556
89957W        W58362  21.485  30.956   1.774
89958W        W58363  43.842  17.944   0.981
89959W        W58364   1.077   3.285  14.524
89960W        W58365  19.758   1.907  12.904
89961W        W58366  30.751  18.313   5.012
89962W        W58367   7.808  25.637  14.614
89963W        W58368  21.550  26.168  14.301
89964W        W58369  20.443  31.364   1.255
89965W        W58370  34.783  36.948   4.805
89966W        W58371   1.704  28.067  14.594
89967W        W58372  33.212  15.598  13.443
89968W        W58373   5.462   5.656  10.549
89969W        W58374   1.251  31.162  11.613
89970W        W58375  41.806  36.412   2.777
89971W        W58376  30.187  37.423  13.487
89972W        W58377  34.125  43.966  11.408
89973W        W58378  20.918  22.893   1.957
89974W        W58379  26.266   9.387   2.428
89975W        W58380  40.033  17.103   1.694
89976W        W58381  17.649  13.332  14.809
89977W        W58382   4.304   2.781   0.064
89978W        W58383  22.115  23.234   0.982
89979W        W58384  33.732  35.825  14.857
89980W        W58385  14.860  43.409  13.716
89981W        W58386  34.331  36.087  12.533
89982W        W58387  11.050   4.454  10.348
89983W        W58388   1.790  24.442  13.334
89984W        W58389   8.836  36.391  14.866
89985W        W58390  24.471  18.816   3.656
89986W        W58391  13.349  26.122   4.930
89987W        W58392  17.215  20.486  11.091
89988W        W58393  39.605  24.107  12.196
89989W        W58394   6.456  16.225  13.537
89990W        W58395  34.963  36.103   1.911
89991W        W58396  34.342  43.380   2.219
89992W        W58397   6.747  35.369  12.529
89993W        W58398   8.303   1.325  11.592
89994W        W58399  12.095  20.876   2.118
89995W        W58400  44.434  25.517  13.127
89996W        W58401  15.641   0.965   0.084
89997W        W58402  24.384  27.227  14.056
89998W        W58403  42.373  33.409   0.336
89999W        W58404  13.263  11.903  11.439
90000W        W58405  23.997  35.491   0.739
90001W        W58406  23.043  44.794  11.882
90002W        W58407  43.840   9.661   3.210
90003W        W58408  39.046  28.030   4.546
90004W        W58409  15.916  30.155   3.829
90005W        W58410  34.801  24.968  12.357
90006W        W58411  21.717  20.596  14.823
90007W        W58412  14.373  21.699   4.305
90008W        W58413  27.950  17.257  13.563
90009W        W58414  42.811  15.496  14.740
90010W        W58415  43.459  33.431  13.033
90011W        W58416  13.697   6.994   2.881
90012W        W58417  35.501   9.680  11.146
90013W        W58418  28.113  44.493  14.908
90014W        W58419  26.376  34.966   5.014
90015W        W58420  20.636  11.215   2.175
90016W        W58421  18.692  21.769   0.923
90017W        W58422  19.680  44.948  12.868
90018W        W58423  40.372   8.055   1.710
90019W        W58424  22.278   0.435   2.826
90020W        W58425  33.967  21.017  13.863
90021W        W58426  10.004  26.573  11.376
90022W        W58427  37.472  23.234   4.268
90023W        W58428  11.091  13.096   2.605
90024W        W58429  24.288  14.389  14.184
90025W        W58430  18.302  26.122   0.328
90026W        W58431   0.760   1.741   1.664
90027W        W58432  21.679  34.467   4.615
90028W        W58433   2.826  33.358  12.594
90029W        W58434  44.505  36.471   3.137
90030W        W58435  40.253   4.381   0.270
90031W        W58436  10.121  24.799   1.049
90032W        W58437  22.056   2.208  13.001
90033W        W58438   0.916   3.429  11.744
90034W        W58439  43.199  14.263  12.127
90035W        W58440  28.468  29.005  10.890
90036W        W58441  18.630  41.477  13.349
90037W        W58442   4.699  12.761  10.764
90038W        W58443  42.881  41.237   0.406
90039W        W58444   5.905  22.991  10.589
90040W        W58445  42.124  21.343   4.043
90041W        W58446  44.322   8.824  13.379
90042W        W58447   8.057  27.670   4.510
90043W        W58448  24.573   6.869   1.283
90044W        W58449   4.340  24.688   2.241
90045W        W58450  13.862  30.536   3.417
90046W        W58451   3.217   1.195  11.853
90047W        W58452  43.217  18.351  11.522
90048W        W58453  27.160  28.842  13.900
90049W        W58454  14.065   7.341   2.123
90050W        W58455  37.144  20.613   3.651
90051W        W58456  38.334  10.663  10.610
90052W        W58457  11.847   6.992   4.092
90053W        W58458  28.537   4.975  11.113
90054W        W58459  23.632   3.403  10.206
90055W        W58460  14.189  30.551   3.819
90056W        W58461   1.303   1.796   1.720
90057W        W58462   4.875   6.134  11.153
90058W        W58463  20.028  22.207   1.463
90059W        W58464   1.830  27.229   0.037
90060W        W58465  22.512  13.241  11.443
90061W        W58466   8.777  40.743  13.001
90062W        W58467   6.996  28.959  11.229
90063W        W58468  17.471   5.055   4.281
90064W        W58469   8.870  10.816   0.987
90065W        W58470  29.018  18.575   1.401
90066W        W58471   9.659  15.727  12.851
90067W        W58472  17.738  14.260  13.888
90068W        W58473  18.819   7.352   1.834
90069W        W58474   8.467  28.525  11.539
90070W        W58475  18.831  14.191   0.298
90071W        W58476  31.075  26.659   3.308
90072W        W58477  10.690   8.926  10.461
90073W        W58478   7.279  15.764   2.437
90074W        W58479  37.618  11.268  12.178
90075W        W58480  10.403  28.130  10.704
90076W        W58481  16.176  40.772  12.997
90077W        W58482  20.119   6.812  10.305
90078W        W58483   1.913   2.494   1.375
90079W        W58484  25.582  24.183  12.867
90080W        W58485  40.417   4.942   4.948
90081W        W58486  13.747  23.977  10.677
90082W        W58487  35.447  16.161  10.889
90083W        W58488  29.428  37.756   2.346
90084W        W58489   7.220   6.818   4.587
90085W        W58490  10.179  31.075  13.048
90086W        W58491  16.833  35.864   3.266
90087W        W58492  12.429  21.189  12.073
90088W        W58493  19.666  28.661   0.479
90089W        W58494  14.274   7.442   4.994
90090W        W58495  35.489  27.158   0.298
90091W        W58496  34.537   4.526  11.621
90092W        W58497  43.771  12.382  12.453
90093W        W58498  21.148   4.374  12.525
90094W        W58499  11.225  40.045   4.775
90095W        W58500  42.682  40.864   3.006
90096W        W58501   6.349   8.186  14.522
90097W        W58502  38.380  19.828  14.111
90098W        W58503  38.955  41.355  11.053
90099W        W58504  30.177  12.116   2.205
90100W        W58505  11.245  29.762  13.785
90101W        W58506  15.238  42.377   4.579
90102W        W58507  17.167  10.395  13.515
90103W        W58508  27.060   0.477  11.938
90104W        W58509  33.876   9.177   0.878
90105W        W58510   5.787  26.923   2.428
90106W        W58511  37.514  31.179  10.587
90107W        W58512   0.955   0.264   3.193
90108W        W58513   4.446  17.065   3.658
90109W        W58514  27.701  40.628   4.069
90110W        W58515  16.145  33.658  12.412
90111W        W58516  18.315  32.038   1.811
90112W        W58517  37.459  32.911  11.683
90113W        W58518  36.428  31.769   1.968
90114W        W58519  29.982  29.626  13.964
90115W        W58520  36.932  40.733  14.371
90116W        W58521  26.396   5.844  14.922
90117W        W58522  14.274  18.039   4.763
90118W        W58523  25.547   2.397  11.929
90119W        W58524  44.135   8.363   2.750
90120W        W58525  32.613   3.242  11.274
90121W        W58526   3.946  17.082   1.926
90122W        W58527   2.399  35.873   4.079
90123W        W58528   7.126  11.175  11.032
90124W        W58529  24.116  21.987  13.004
90125W        W58530   7.920  15.141  11.110
90126W        W58531  40.365   8.375   3.147
90127W        W58532  31.578  37.326   0.451
90128W        W58533  23.067   6.246  11.598
90129W        W58534   5.908  23.206   4.129
90130W        W58535  11.278  38.575   3.695
90131W        W58536   0.374  12.118  14.976
90132W        W58537  41.490   6.291   3.325
90133W        W58538  34.045  36.569  14.339
90134W        W58539   0.555  24.506  13.080
90135W        W58540  32.978   2.925   0.332
90136W        W58541  28.632  34.504  12.898
90137W        W58542   4.525  30.975  13.043
90138W        W58543  10.830   8.699  14.484
90139W        W58544  44.358  23.511  12.909
90140W        W58545  18.118   5.227   9.544
90141W        W58546  19.348   6.186   0.200
90142W        W58547  21.077   2.475   1.809
90143W        W58548  14.099  43.174  12.275
90144W        W58549   3.010   2.434  13.994
90145W        W58550  14.357  30.947  10.507
90146W        W58551  29.951  34.358   1.348
90147W        W58552   6.673  23.799  14.416
90148W        W58553  15.241  19.994  12.266
90149W        W58554  35.872  18.663   2.600
90150W        W58555  13.865  32.305   4.206
90151W        W58556   7.448   7.762   1.862
90152W        W58557  22.223  25.117   3.386
90153W        W58558  12.807  23.769   4.162
90154W        W58559  39.623   9.237  14.574
90155W        W58560  28.332  23.511  14.387
90156W        W58561   8.976  30.600  13.671
90157W        W58562  12.536  37.219  13.948
90158W        W58563  41.030  33.907   4.708
90159W        W58564   4.745  39.055   4.163
90160W        W58565  35.996   3.306   4.637
90161W        W58566  11.413  24.020   0.402
90162W        W58567  17.057  42.304  14.887
90163W        W58568  21.744  30.262  10.634
90164W        W58569  25.418   7.378  13.383
90165W        W58570  44.821  32.080  13.483
90166W        W58571  17.779  21.392   5.411
90167W        W58572  10.173  40.356   1.483
90168W        W58573  23.128   3.330  13.965
90169W        W58574  27.943  22.659   4.490
90170W        W58575  40.026  14.348  10.944
90171W        W58576  13.265  15.777  12.561
90172W        W58577  34.874  25.430   4.321
90173W        W58578  38.349  28.427  12.501
90174W        W58579  21.289  11.865  10.617
90175W        W58580  10.174  44.987   3.923
90176W        W58581  10.281   0.741   0.451
90177W        W58582  30.847  10.390  13.004
90178W        W58583  10.074  10.209   1.662
90179W        W58584  39.684  19.148  11.487
90180W        W58585  37.718  29.046  12.517
90181W        W58586  20.040   0.458  13.493
90182W        W58587  22.535   4.255  10.671
90183W        W58588   5.831  12.751   3.322
90184W        W58589   2.166  21.979  13.883
90185W        W58590   7.204  13.785   0.703
90186W        W58591  11.151  19.339   3.452
90187W        W58592   8.885   7.934  14.269
90188W        W58593  26.159  28.553   0.946
90189W        W58594  29.072  33.075   2.150
90190W        W58595  13.547  24.344  11.348
90191W        W58596  10.161   6.434   4.918
90192W        W58597   9.719  12.836   0.421
90193W        W58598  15.780  22.654   3.648
90194W        W58599  44.483   0.708  13.423
90195W        W58600  17.388  23.561   1.464
90196W        W58601  37.823  39.174   1.649
90197W        W58602  35.545   0.530  11.477
90198W        W58603   1.704  12.163   2.886
90199W        W58604  26.234  40.050   4.182
90200W        W58605  15.350  13.785  11.100
90201W        W58606  10.323   9.488   2.745
90202W        W58607   2.893  31.094   4.083
90203W        W58608   1.627  25.484  13.149
90204W        W58609  26.749   2.985  12.600
90205W        W58610  28.689  30.959   0.306
90206W        W58611   3.874  19.350   2.166
90207W        W58612  39.138  40.592  12.421
90208W        W58613   0.511  38.978   2.092
90209W        W58614  40.153  30.578  13.871
90210W        W58615  40.834  14.292   4.571
90211W        W58616   9.243   8.558   2.719
90212W        W58617  10.131  19.764   4.951
90213W        W58618  33.932  14.157  11.640
90214W        W58619  37.274  37.786   3.591
90215W        W58620  33.973  33.620  13.525
90216W        W58621  39.050  32.661   1.310
90217W        W58622  42.433  28.075   4.392
90218W        W58623  37.753  23.727  12.013
90219W        W58624   4.823  39.256   0.456
90220W        W58625  10.929  26.973   9.802
90221W        W58626  17.214  15.186   3.788
90222W        W58627   5.306  19.329  10.638
90223W        W58628  14.035   2.331  11.314
90224W        W58629  21.244   0.453   1.821
90225W        W58630  24.362  36.458   0.840
90226W        W58631  36.630   9.659   2.788
90227W        W58632  30.820   9.941   1.449
90228W        W58633  37.953  36.586  12.785
90229W        W58634  33.378   9.753  14.042
90230W        W58635  41.275  10.131   2.373
90231W        W58636  20.378  44.258   0.376
90232W        W58637  10.657   6.617  11.675
90233W        W58638  36.235  43.417   0.098
90234W        W58639   6.251  44.762   3.710
90235W        W58640  11.389   1.667   3.192
90236W        W58641  38.127  42.943  13.410
90237W        W58642  18.968  11.587   0.714
90238W        W58643  26.614  23.536   0.316
90239W        W58644  19.060  10.850  12.083
90240W        W58645  18.630   9.421  12.419
90241W        W58646  23.365  21.135   1.660
90242W        W58647   2.279  22.257   3.804
90243W        W58648  44.735  17.672   4.843
90244W        W58649   2.264  23.805   1.245
90245W        W58650  42.274  27.720  11.943
90246W        W58651  40.059  28.168   2.732
90247W        W58652   8.120  21.488  11.583
90248W        W58653  29.462   5.416  13.335
90249W        W58654  14.245   9.313  11.896
90250W        W58655  27.669  30.137  11.866
90251W        W58656  23.362  19.791   2.332
90252W        W58657  15.636  18.282  11.981
90253W        W58658  24.338  40.976   0.135
90254W        W58659   9.747  21.479   2.353
90255W        W58660   1.108   3.038  10.907
90256W        W58661  18.010  30.112  12.013
90257W        W58662  42.803  26.941  14.973
90258W        W58663  41.406   4.343  13.888
90259W        W58664  13.549  15.164   1.351
90260W        W58665  27.171  36.290   2.378
90261W        W58666  10.370   5.871  11.606
90262W        W58667  32.035  35.910  10.775
90263W        W58668  40.112  29.059  12.651
90264W        W58669  34.556  22.248   3.695
90265W        W58670  39.809  10.196  13.106
90266W        W58671  21.276  10.156  11.123
90267W        W58672  20.032  19.797   0.816
90268W        W58673   3.175   9.058   1.487
90269W        W58674   8.125   3.746  13.583
90270W        W58675  31.840   3.504   0.815
90271W        W58676  38.091   5.429  13.338
90272W        W58677   3.287  33.461   4.635
90273W        W58678  23.019   1.829  14.811
90274W        W58679  22.289  17.597   0.770
90275W        W58680  18.588  37.402  12.367
90276W        W58681  28.605  32.578  14.947
90277W        W58682  11.160  22.967  13.934
90278W        W58683  40.370  27.950   0.800
90279W        W58684  27.488   3.727   1.861
90280W        W58685  44.447   8.712   2.521
90281W        W58686   0.966  20.235   2.008
90282W        W58687  16.378  22.134   1.917
90283W        W58688   0.838   5.132  11.379
90284W        W58689  25.524  20.018  13.462
90285W        W58690  19.134  43.906   1.543
90286W        W58691  18.644  24.537  10.449
90287W        W58692   8.328  25.881   1.394
90288W        W58693  15.748  11.125  12.870
90289W        W58694  19.755  27.055   2.148
90290W        W58695  11.586  36.835   2.819
90291W        W58696  30.651  18.736  14.283
90292W        W58697  26.525   1.961  10.762
90293W        W58698  27.686  42.441   2.817
90294W        W58699   1.765   9.751  12.340
90295W        W58700  35.016  27.552   2.749
90296W        W58701   9.972  32.365  10.079
90297W        W58702  33.303  10.113   3.670
90298W        W58703  41.958  28.201   4.237
90299W        W58704   0.035  29.717   2.530
90300W        W58705  10.688   9.650   0.232
90301W        W58706  28.963   2.691   2.318
90302W        W58707  28.719  13.652  13.961
90303W        W58708  29.622  27.333  14.887
90304W        W58709  14.297  12.283   4.645
90305W        W58710   0.649  15.083  11.008
90306W        W58711  35.067  28.171   0.700
90307W        W58712  38.371  19.946   0.027
90308W        W58713  18.624  35.945  12.175
90309W        W58714  12.912  35.000   0.964
90310W        W58715  13.212  11.121  13.894
90311W        W58716  14.427   2.566  13.353
90312W        W58717  44.725  22.912  10.795
90313W        W58718  34.294   1.010  11.991
90314W        W58719  19.861  32.978   3.382
90315W        W58720  19.326   5.846   3.305
90316W        W58721  18.490  16.750   4.580
90317W        W58722  35.537  29.557   0.770
90318W        W58723   4.608  31.496  14.187
90319W        W58724  37.450   4.119  11.414
90320W        W58725  27.004  21.263   4.096
90321W        W58726  34.042  13.156   1.804
90322W        W58727  34.569   3.150   3.840
90323W        W58728   3.313  43.394  11.986
90324W        W58729  13.432  29.236  10.318
90325W        W58730  27.918  27.999  14.855
90326W        W58731  38.034   1.546   3.832
90327W        W58732  33.466  18.764   4.575
90328W        W58733   9.070  21.667  11.287
90329W        W58734  11.655  28.979  14.164
90330W        W58735  25.256  30.807   2.751
90331W        W58736   8.361  21.769  13.631
90332W        W58737  22.416  11.609   1.168
90333W        W58738  16.661  42.287   1.622
90334W        W58739  31.715   0.476   2.625
90335W        W58740  32.496   8.260   0.752
90336W        W58741  34.519   8.434   2.455
90337W        W58742   9.803  13.437  12.469
90338W        W58743  34.970  25.365  13.305
90339W        W58744  38.144  43.423   1.327
90340W        W58745   7.326  34.919  12.122
90341W        W58746  29.951  17.335  13.004
90342W        W58747  28.089  23.546   0.191
90343W        W58748  44.186  32.372   3.570
90344W        W58749  35.628   0.263  12.422
90345W        W58750   4.332  31.407  12.838
90346W        W58751  11.340   6.736   0.012
90347W        W58752  16.257  42.095  11.601
90348W        W58753   9.256   2.234   5.061
90349W        W58754  40.488  20.581  12.369
90350W        W58755  42.910  41.575  12.919
90351W        W58756  21.744  30.496   0.387
90352W        W58757   5.467   9.823   0.400
90353W        W58758  44.479  18.510   1.285
90354W        W58759  44.261  14.697  14.507
90355W        W58760  39.809   9.922   2.469
90356W        W58761  11.153  23.522   3.101
90357W        W58762  38.355  44.725  13.631
90358W        W58763  14.316  26.925   4.642
90359W        W58764  15.727  26.891  10.645
90360W        W58765  16.653  21.108  13.514
90361W        W58766  36.012  22.929   1.145
90362W        W58767   2.721  24.270  11.003
90363W        W58768  12.224  37.789   1.811
90364W        W58769  32.565  20.193   1.802
90365W        W58770  23.300   4.303  13.120
90366W        W58771  21.192  31.405  12.492
90367W        W58772   8.710  38.084  12.955
90368W        W58773  43.211  39.001   1.874
90369W        W58774   1.252  19.577   4.106
90370W        W58775   4.459   2.382  12.541
90371W        W58776   5.342  35.205  14.202
90372W        W58777  26.776  29.412   3.214
90373W        W58778   3.066  36.497  13.883
90374W        W58779   9.198   9.085  11.077
90375W        W58780   8.485  35.122  13.890
90376W        W58781   4.996  33.667  13.810
90377W        W58782   8.358  31.062   1.051
90378W        W58783  38.209  33.402   1.142
90379W        W58784  33.959  15.123  14.526
90380W        W58785  23.990  33.535  13.051
90381W        W58786  18.406  15.122   1.379
90382W        W58787  12.695  19.144   2.837
90383W        W58788  39.490  24.328   1.754
90384W        W58789   2.205  31.543  11.876
90385W        W58790  27.593  43.025  10.839
90386W        W58791  25.056  42.215  11.951
90387W        W58792  40.571  40.249   3.765
90388W        W58793   6.502  29.002   5.003
90389W        W58794  29.262  13.252   0.955
90390W        W58795  20.160  34.359  11.715
90391W        W58796  14.701  31.968  11.237
90392W        W58797  24.108   5.884   1.991
90393W        W58798  10.626   3.125  11.383
90394W        W58799   0.896  24.593  13.457
90395W        W58800  34.844   9.308  14.986
90396W        W58801  17.848  31.022  12.959
90397W        W58802  41.931  38.810   1.249
90398W        W58803   4.439  25.974  13.858
90399W        W58804  27.649  31.917  13.296
90400W        W58805  20.625  16.627   4.088
90401W        W58806  25.264   2.353   2.297
90402W        W58807  36.054  13.881   0.516
90403W        W58808  40.809  21.411   1.906
90404W        W58809  36.630  16.691  13.443
90405W        W58810  38.040  10.197  13.914
90406W        W58811  29.009  27.248   3.539
90407W        W58812  18.179   5.683  12.390
90408W        W58813  11.046  10.255   1.838
90409W        W58814  36.526  37.432  14.400
90410W        W58815  37.703  42.927  11.183
90411W        W58816  41.142  23.760   1.436
90412W        W58817  15.899  31.889   2.835
90413W        W58818  34.877   0.317  12.955
90414W        W58819  15.633  14.303   2.333
90415W        W58820  41.248  25.435   4.522
90416W        W58821  18.690  39.126  14.271
90417W        W58822  23.507  35.517   2.219
90418W        W58823  18.827  17.226   0.791
90419W        W58824  32.660   4.659  13.921
90420W        W58825  39.969  43.449   4.618
90421W        W58826  37.252  37.103   3.408
90422W        W58827  20.676  23.513  14.956
90423W        W58828  27.719  33.265   3.254
90424W        W58829  21.151  40.996   5.058
90425W        W58830  38.447  41.289   1.245
90426W        W58831  26.954  42.142  12.324
90427W        W58832  14.244   0.869   3.367
90428W        W58833  11.862   8.265   2.823
90429W        W58834  37.990  31.974   0.865
90430W        W58835   9.856  34.052  12.097
90431W        W58836  31.424   3.347  13.999
90432W        W58837   0.354   2.833   2.167
90433W        W58838  41.328   7.282  14.940
90434W        W58839   5.710  32.504   2.277
90435W        W58840   1.867  17.662   0.959
90436W        W58841  25.690  27.685  12.597
90437W        W58842  38.619   9.716   3.745
90438W        W58843  21.598   6.444   3.826
90439W        W58844  20.385  12.874   3.279
90440W        W58845   8.440  41.440   1.746
90441W        W58846   9.904  37.278  14.513
90442W        W58847  10.999  41.358  13.455
90443W        W58848   1.756  28.621   3.603
90444W        W58849  20.873  36.753  11.166
90445W        W58850  29.258  41.993   3.739
90446W        W58851  33.415  44.852  12.450
90447W        W58852  10.191  42.468  14.036
90448W        W58853  38.588   5.338   4.907
90449W        W58854  15.582   1.232   1.299
90450W        W58855  35.387   9.626  12.001
90451W        W58856   1.836  21.512   4.320
90452W        W58857  13.875  31.952  13.789
90453W        W58858  41.084  44.094  11.746
90454W        W58859  44.309  34.437  10.186
90455W        W58860  30.999   2.356  14.064
90456W        W58861   6.435  43.705   1.193
90457W        W58862   7.785  10.309  14.462
90458W        W58863  41.793   0.225   0.948
90459W        W58864  16.651  11.758  10.529
90460W        W58865   5.529  35.171  12.316
90461W        W58866  30.034  37.125  11.920
90462W        W58867  44.049  16.735   3.191
90463W        W58868  28.077  36.303   2.364
90464W        W58869  37.330  13.860   2.251
90465W        W58870  27.697  19.622  13.555
90466W        W58871   4.492  13.818  11.130
90467W        W58872  43.999  36.922   2.842
90468W        W58873  27.653  24.122  12.700
90469W        W58874  32.124  38.604   4.334
90470W        W58875  25.592   9.214  12.591
90471W        W58876   7.653  22.591  11.788
90472W        W58877  33.010  14.401  12.059
90473W        W58878   7.375  24.126  11.466
90474W        W58879  17.011  25.610   4.858
90475W        W58880   0.565  24.774   2.745
90476W        W58881   3.022   1.586   3.761
90477W        W58882  36.471  29.691  12.453
90478W        W58883   1.722  30.065  12.954
90479W        W58884  14.100  11.110   0.340
90480W        W58885  28.605  25.101   2.364
90481W        W58886  35.492   7.411   2.252
90482W        W58887  39.795  35.464   2.804
90483W        W58888  12.312  21.484  12.495
90484W        W58889  22.955  22.536   5.015
90485W        W58890  25.706  11.793  14.753
90486W        W58891  44.572  10.439   1.826
90487W        W58892  25.063  36.819   2.200
90488W        W58893   4.331  10.816   2.619
90489W        W58894  12.477  30.523   1.825
90490W        W58895  23.485  31.266  12.567
90491W        W58896   6.230  26.911   3.511
90492W        W58897  38.564  20.177  12.852
90493W        W58898  14.970  30.971   0.674
90494W        W58899  13.101  15.001  14.487
90495W        W58900  43.112  37.402   5.054
90496W        W58901   7.846   5.805  13.483
90497W        W58902  43.479  23.972   3.810
90498W        W58903  38.480  10.151  10.557
90499W        W58904  33.531  29.985  14.347
90500W        W58905  32.941  36.893  10.741
90501W        W58906  37.767  16.608   3.573
90502W        W58907  18.180  15.569   3.690
90503W        W58908  18.191   9.387   3.197
90504W        W58909  30.469   1.806  13.982
90505W        W58910   2.958   8.156   3.688
90506W        W58911  43.491  12.722  13.167
90507W        W58912  37.477  23.482   0.735
90508W        W58913  27.357  20.550   0.431
90509W        W58914   9.820  43.096   1.818
90510W        W58915  40.072   5.386   3.727
90511W        W58916   5.712  40.481  11.175
90512W        W58917  18.750  11.231   1.428
90513W        W58918   3.075  14.702  11.938
90514W        W58919  39.595  33.042  12.425
90515W        W58920  31.398  36.042   3.803
90516W        W58921  26.864  17.033  11.005
90517W        W58922  38.358  43.985   2.783
90518W        W58923  22.553  10.270   4.577
90519W        W58924  42.567  36.918  10.653
90520W        W58925  13.771  13.113  13.566
90521W        W58926  32.500   3.366   2.676
90522W        W58927   9.191  24.938   4.663
90523W        W58928  31.343  13.551  13.772
90524W        W58929  33.770  17.851   4.199
90525W        W58930   9.349  19.776   0.341
90526W        W58931  19.961  29.635   2.769
90527W        W58932  33.656   6.863  14.636
90528W        W58933   3.800   3.327  14.736
90529W        W58934  32.082   3.924   3.633
90530W        W58935  36.965   4.171   3.636
90531W        W58936  28.493  32.402   4.086
90532W        W58937  30.625  37.296  14.357
90533W        W58938   0.785  20.534  11.015
90534W        W58939   4.735  14.287   3.781
90535W        W58940  19.653  32.359  12.417
90536W        W58941  35.734  26.761  11.747
90537W        W58942  43.025  34.410  12.210
90538W        W58943  42.145  11.941   0.465
90539W        W58944  38.137  38.186   1.673
90540W        W58945  35.521  31.811  12.988
90541W        W58946  28.647  14.196  10.705
90542W        W58947  31.148  39.326  14.952
90543W        W58948  36.970  43.517  13.468
90544W        W58949   0.383   5.115  12.025
90545W        W58950  10.958  26.607  11.284
90546W        W58951  22.084  14.641  13.483
90547W        W58952  44.370   8.346   3.325
90548W        W58953  17.772  20.533   2.811
90549W        W58954  11.429  14.136   3.297
90550W        W58955  39.559   8.291   0.439
90551W        W58956   3.140  29.033   3.488
90552W        W58957  21.064  20.314   4.614
90553W        W58958  19.011   1.918   0.297
90554W        W58959  24.608  17.218   3.170
90555W        W58960  13.167  41.046  14.307
90556W        W58961  21.140  20.764  12.957
90557W        W58962  38.486   0.295   2.058
90558W        W58963  13.109  19.279  11.542
90559W        W58964  26.758  34.394  12.416
90560W        W58965  21.803   2.117   1.263
90561W        W58966   1.760   4.656  12.040
90562W        W58967   0.720   8.941  10.359
90563W        W58968  28.392   8.134  10.764
90564W        W58969  28.716   8.201  13.708
90565W        W58970  29.828  13.175  12.971
90566W        W58971  41.351  11.122  12.251
90567W        W58972   1.242  18.509   3.911
90568W        W58973  19.171  26.566   1.751
90569W        W58974  21.066  19.820   0.013
90570W        W58975   3.297   7.976  12.118
90571W        W58976  38.795  18.017  12.508
90572W        W58977  25.145   0.763  13.881
90573W        W58978  11.775  14.993  11.837
90574W        W58979  12.557   6.396  14.779
90575W        W58980  37.836  23.360  12.940
90576W        W58981   9.923  36.016   2.422
90577W        W58982  42.109  36.171  10.277
90578W        W58983  15.582   1.216   2.691
90579W        W58984   5.013  44.335   5.299
90580W        W58985  34.793  21.815   1.106
90581W        W58986  34.900  26.812  10.080
90582W        W58987   7.767  37.103  12.013
90583W        W58988  14.394  16.229   1.510
90584W        W58989  29.831  11.525  11.906
90585W        W58990  42.263   5.878  10.467
90586W        W58991  41.626  34.688   1.516
90587W        W58992  24.984  25.669   3.381
90588W        W58993  12.157  41.313  13.118
90589W        W58994  42.381   9.339  10.728
90590W        W58995  36.286   2.871   2.699
90591W        W58996  40.008  37.996  12.412
90592W        W58997  21.472  31.531  12.023
90593W        W58998  10.141  21.041   3.704
90594W        W58999  10.148  26.528  12.392
90595W        W59000  13.469  29.116  11.173
90596W        W59001  10.515   9.603   2.243
90597W        W59002  33.924  12.412  13.846
90598W        W59003  22.161   3.742  14.490
90599W        W59004   8.954  20.523   0.423
90600W        W59005  38.371  14.266   2.791
90601W        W59006   8.206  42.927   1.466
90602W        W59007   0.365   3.704  13.301
90603W        W59008  26.587  27.651   4.816
90604W        W59009  35.343   2.054   2.405
90605W        W59010  24.578  28.121  11.155
90606W        W59011  13.286  36.998  11.613
90607W        W59012  29.942  12.854  12.556
90608W        W59013  30.111  39.576  13.394
90609W        W59014  44.841  17.179   4.626
90610W        W59015  20.559  23.527  12.983
90611W        W59016   7.797  15.352   1.851
90612W        W59017  34.775  43.596  12.016
90613W        W59018   0.405  33.257   0.479
90614W        W59019  30.382  33.866  12.823
90615W        W59020  43.026  14.778  11.519
90616W        W59021  19.035   9.732   3.686
90617W        W59022  18.035  35.978  10.499
90618W        W59023  41.974  40.337   0.851
90619W        W59024  43.466  21.194   3.198
90620W        W59025  27.014  16.063   4.793
90621W        W59026  27.027  27.621  14.434
90622W        W59027  26.693  13.385   3.346
90623W        W59028  22.135  11.047   4.161
90624W        W59029   1.773  33.338  12.312
90625W        W59030   4.677   3.259  13.448
90626W        W59031   6.848   1.915   2.652
90627W        W59032  40.273  38.056  13.834
90628W        W59033   8.109  40.436  11.118
90629W        W59034  24.147  34.470  12.120
90630W        W59035   3.025  16.545  14.728
90631W        W59036   8.314   9.427  10.651
90632W        W59037   2.345  29.637  14.808
90633W        W59038  26.787  28.108  12.342
90634W        W59039   4.386  12.148  12.927
90635W        W59040  15.285   8.657  14.342
90636W        W59041  33.603  29.484   1.028
90637W        W59042  13.304   9.363   4.637
90638W        W59043  36.520  26.628  13.536
90639W        W59044  28.930  14.807   3.207
90640W        W59045  30.206  20.517   1.426
90641W        W59046  21.556  18.513  12.920
90642W        W59047  36.012  29.087   0.354
90643W        W59048  27.230  22.620  14.829
90644W        W59049  22.291  12.607   3.631
90645W        W59050  29.506  11.592  12.301
90646W        W59051   3.946  25.270   0.603
90647W        W59052  36.629  41.021   1.035
90648W        W59053  43.434  42.858  12.521
90649W        W59054  26.299  20.464   5.162
90650W        W59055  35.996  33.958   4.561
90651W        W59056   5.798   2.865   1.430
90652W        W59057  22.342   5.111   1.394
90653W        W59058  12.085  30.301  14.309
90654W        W59059   1.252   3.249   1.395
90655W        W59060   2.241   5.239  14.331
90656W        W59061   2.190  28.517   1.718
90657W        W59062  17.018   2.699  11.288
90658W        W59063  40.044   6.242   1.639
90659W        W59064   5.171  26.283   3.318
90660W        W59065  21.302  15.785  11.109
90661W        W59066   9.822   4.662   1.820
90662W        W59067  28.451  32.828   3.189
90663W        W59068  20.754  12.754  12.582
90664W        W59069  24.945  16.625   4.191
90665W        W59070  27.954  33.024  13.474
90666W        W59071  18.932  29.572  14.263
90667W        W59072   1.389  10.224  14.084
90668W        W59073  22.236  19.954   3.162
90669W        W59074  10.231  12.303  13.443
90670W        W59075  31.164  17.206   0.698
90671W        W59076  27.465  38.812  11.374
90672W        W59077  19.121  22.496   2.226
90673W        W59078  26.037  37.827  13.364
90674W        W59079  10.047  24.516  10.697
90675W        W59080   1.297  38.924  10.752
90676W        W59081  13.006   3.552  12.771
90677W        W59082  16.126  26.072   2.839
90678W        W59083  41.652  40.056  12.143
90679W        W59084  40.387  24.813  14.881
90680W        W59085  12.181  24.617   3.409
90681W        W59086  33.512  19.635  12.402
90682W        W59087  16.857   2.361   4.201
90683W        W59088   9.377  44.796   2.857
90684W        W59089  16.214  38.505   1.659
90685W        W59090  14.630   3.019   2.288
90686W        W59091   2.175   1.485  11.026
90687W        W59092  39.192  43.473   1.374
90688W        W59093   4.124  39.700   4.503
90689W        W59094   0.885  10.833   0.299
90690W        W59095  26.692  23.613  13.888
90691W        W59096  41.729  37.435  12.493
90692W        W59097   4.888  41.285   0.350
90693W        W59098  28.019  26.951   1.944
90694W        W59099   7.961   1.978   0.612
90695W        W59100  31.458  33.941  12.983
90696W        W59101  13.391  25.095  14.480
90697W        W59102  32.856  22.036  13.788
90698W        W59103  33.698   2.544  12.812
90699W        W59104  29.035  28.821  10.476
90700W        W59105  20.218   9.680   1.360
90701W        W59106  19.735  35.463   1.653
90702W        W59107   2.785   4.623  14.492
90703W        W59108   2.031  36.031  13.024
90704W        W59109   6.195  28.657   1.269
90705W        W59110  43.550  38.358   3.509
90706W        W59111  25.195  10.214  10.291
90707W        W59112   4.287  33.498   0.491
90708W        W59113  29.196  12.716   0.910
90709W        W59114  44.733   0.554   4.135
90710W        W59115  33.012  15.296   3.579
90711W        W59116  43.849  17.917  14.826
90712W        W59117  12.683  16.796   2.737
90713W        W59118   9.758   7.209   1.691
90714W        W59119  33.578  31.090  10.744
90715W        W59120  14.405   6.891  14.959
90716W        W59121   1.411  26.320   1.878
90717W        W59122   2.929  41.062   0.469
90718W        W59123  37.570  39.571  10.838
90719W        W59124  32.390  28.976  13.887
90720W        W59125  32.925  23.552  12.351
90721W        W59126  16.202  42.830   1.449
90722W        W59127  13.160   8.682   2.335
90723W        W59128  12.108  26.025  12.458
90724W        W59129  21.234  42.474   0.851
90725W        W59130  24.145  41.276   1.864
90726W        W59131  17.486  41.382  14.539
90727W        W59132  27.298  29.395   1.323
90728W        W59133  14.303   3.681  13.897
90729W        W59134  17.111  40.881  12.609
90730W        W59135   3.889   9.872  11.828
90731W        W59136  16.624  23.228  14.734
90732W        W59137   9.191  36.421   1.401
90733W        W59138  10.797  26.108  11.836
90734W        W59139  29.674  10.792   3.902
90735W        W59140  14.816  39.481  14.905
90736W        W59141  29.983   5.405   2.726
90737W        W59142  31.932  25.056  12.208
90738W        W59143   8.762   2.430  14.857
90739W        W59144  41.061  19.412  12.959
90740W        W59145   7.650  18.278   0.913
90741W        W59146  26.644  20.143  11.611
90742W        W59147   0.700   3.345  10.813
90743W        W59148  13.368  26.053  13.144
90744W        W59149  22.639  25.211  11.559
90745W        W59150  36.068   8.184  13.846
90746W        W59151  26.365  11.220   4.284
90747W        W59152  14.115   9.593  14.879
90748W        W59153   3.950  32.717   4.024
90749W        W59154  20.024   2.295   3.213
90750W        W59155  29.418  17.521   1.410
90751W        W59156  42.362  25.406   4.592
90752W        W59157  40.272   5.349   5.238
90753W        W59158  20.119  21.167   0.741
90754W        W59159  35.784  29.849  13.547
90755W        W59160   7.202  11.678  11.032
90756W        W59161   7.819   6.803  11.522
90757W        W59162   6.257  13.401  11.651
90758W        W59163  24.244  37.402  10.664
90759W        W59164  28.841  17.575  11.303
90760W        W59165   0.379   1.460  10.926
90761W        W59166  42.232  25.714   1.696
90762W        W59167  25.931  43.204  11.838
90763W        W59168   9.506  32.389  12.688
90764W        W59169  35.122  33.555   3.755
90765W        W59170  24.165  25.957   1.953
90766W        W59171  29.692  11.271   4.805
90767W        W59172   7.524   2.139  11.637
90768W        W59173   3.769   0.770  11.263
90769W        W59174  20.117  15.486   4.804
90770W        W59175  12.304  41.135  12.367
90771W        W59176  32.129  35.240  12.919
90772W        W59177  12.300  27.137   2.832
90773W        W59178  37.238   4.344   4.092
90774W        W59179  21.726  36.438   1.617
90775W        W59180   6.212   3.680  10.558
90776W        W59181  40.773  38.030  13.978
90777W        W59182  27.227  39.929  10.954
90778W        W59183   9.290  40.421   1.396
90779W        W59184  27.358  43.463  10.736
90780W        W59185  35.013  40.330   3.690
90781W        W59186  33.070  35.989  12.677
90782W        W59187  25.407  28.202  11.697
90783W        W59188   7.069   9.331   1.971
90784W        W59189   7.900  41.574  14.226
90785W        W59190  12.438  32.406  14.751
90786W        W59191  33.918  35.888   3.858
90787W        W59192  22.555   3.334   4.942
90788W        W59193  12.812  13.132  11.885
90789W        W59194  30.629  29.608  12.920
90790W        W59195   5.754   6.510   3.640
90791W        W59196   3.607  28.030  13.904
90792W        W59197  35.063  14.361   1.855
90793W        W59198  12.649  20.240   0.242
90794W        W59199  14.292  40.413  10.402
90795W        W59200  21.609  32.487   1.932
90796W        W59201  19.833  28.102  14.805
90797W        W59202  18.079   8.894   3.267
90798W        W59203   8.270  20.715  13.034
90799W        W59204  26.690  39.849   0.007
90800W        W59205  28.076  14.418  14.392
90801W        W59206  43.941   9.754   0.928
90802W        W59207  24.634  37.908   3.804
90803W        W59208  30.478   3.384   0.216
90804W        W59209  32.193   2.404   0.403
90805W        W59210  42.793  18.096   1.308
90806W        W59211  25.390  44.964   1.698
90807W        W59212  29.531  39.714  12.597
90808W        W59213   7.352  11.322  13.781
90809W        W59214  29.355  42.795   2.806
90810W        W59215  30.024   1.748  11.521
90811W        W59216   9.338  25.600  13.811
90812W        W59217  35.911  36.615  14.668
90813W        W59218  44.165  35.576  12.356
90814W        W59219   0.929   5.657  12.641
90815W        W59220  14.224   1.433  11.158
90816W        W59221  36.913   9.424  12.994
90817W        W59222   9.305  13.438  12.943
90818W        W59223  36.035   0.021   0.847
90819W        W59224  27.730  41.394   2.821
90820W        W59225   6.275  17.285  10.248
90821W        W59226  40.407  33.553  14.756
90822W        W59227  43.774  35.972  11.623
90823W        W59228  23.667   9.742  13.448
90824W        W59229  15.140  32.977   0.010
90825W        W59230  30.267  44.574   0.561
90826W        W59231  33.616  21.883  11.080
90827W        W59232  37.426  43.125   0.471
90828W        W59233  43.897  28.554  10.608
90829W        W59234  16.552   8.932   0.385
90830W        W59235  26.037   0.832   3.452
90831W        W59236  37.269  27.050   2.748
90832W        W59237   1.400  33.034  13.907
90833W        W59238  39.845  11.862  10.723
90834W        W59239   2.352  36.223   2.698
90835W        W59240  30.904  18.569  11.021
90836W        W59241   9.893  12.281   0.737
90837W        W59242  16.834  30.939   2.608
90838W        W59243  17.037  16.176  12.974
90839W        W59244  31.441  44.500   0.763
90840W        W59245  28.220  44.449  11.838
90841W        W59246   6.207  35.115   2.613
90842W        W59247  41.958   5.362  10.265
90843W        W59248  39.789  28.350  13.759
90844W        W59249  43.204  33.571  13.883
90845W        W59250  16.659  32.349   4.378
90846W        W59251  18.083  26.835  14.151
90847W        W59252  25.412  25.951   2.174
90848W        W59253  34.564  20.932   1.225
90849W        W59254   6.938   1.481  13.021
90850W        W59255  19.814  30.179  12.847
90851W        W59256   1.717   3.855   2.608
90852W        W59257  40.684  43.937   4.236
90853W        W59258   6.192  34.500   0.847
90854W        W59259   0.746  24.771  14.759
90855W        W59260  15.402  33.879  14.957
90856W        W59261   7.356  43.241  12.187
90857W        W59262  26.039   5.192   2.869
90858W        W59263   1.214  20.821  12.059
90859W        W59264  12.717  25.037   4.523
90860W        W59265  38.889  19.721   2.807
90861W        W59266  34.659  26.083  11.089
90862W        W59267  30.164  18.203   3.381
90863W        W59268   9.421  40.382   0.897
90864W        W59269  22.805   7.790   3.818
90865W        W59270  27.479   5.396  13.569
90866W        W59271  15.812  21.727   0.699
90867W        W59272  25.930  28.517   1.891
90868W        W59273  17.665  14.309  14.849
90869W        W59274  29.956  18.768  11.598
90870W        W59275   5.245   0.065  11.769
90871W        W59276  19.252   4.428   0.401
90872W        W59277  40.266   1.430   1.940
90873W        W59278  18.965  14.729  14.859
90874W        W59279  10.950   0.224   1.869
90875W        W59280   3.805  17.053  13.584
90876W        W59281   5.727  12.206   0.410
90877W        W59282   8.754  31.405   3.351
90878W        W59283   1.463   5.740   1.631
90879W        W59284  33.171  10.158   2.378
90880W        W59285  15.581  34.590   5.368
90881W        W59286  27.231  36.960   2.885
90882W        W59287  27.140  15.672  10.935
90883W        W59288  27.841  39.368  12.496
90884W        W59289  11.087  13.269  13.493
90885W        W59290  30.014  19.088  14.923
90886W        W59291  25.553  27.428   0.887
90887W        W59292  36.788  23.645   3.641
90888W        W59293  34.490  12.758  11.239
90889W        W59294  27.200  24.661  10.775
90890W        W59295  29.991  23.946   2.607
90891W        W59296  19.343   0.149  14.792
90892W        W59297   3.828  40.708  10.691
90893W        W59298   0.516  26.188  11.705
90894W        W59299  42.935  20.279   0.741
90895W        W59300  10.967  34.121   1.647
90896W        W59301  34.405   5.316   3.105
90897W        W59302  19.669  29.362  13.307
90898W        W59303  16.069  43.471  11.144
90899W        W59304  30.809  10.204   3.663
90900W        W59305  35.505  16.408   2.117
90901W        W59306  39.801  30.523  10.414
90902W        W59307  33.558  30.046  13.809
90903W        W59308  42.260  31.067   0.407
90904W        W59309  33.735   4.779   4.465
90905W        W59310  24.892  41.282   1.363
90906W        W59311  16.252  24.658   4.605
90907W        W59312  18.363  13.084   3.927
90908W        W59313  27.008  12.408  11.477
90909W        W59314  34.699  15.671  11.466
90910W        W59315   4.675   2.409   4.672
90911W        W59316   4.038   2.173  13.436
90912W        W59317  25.066  18.681   0.405
90913W        W59318  37.583  23.917   2.150
90914W        W59319   7.955  11.186   1.839
90915W        W59320  13.395  16.840  12.543
90916W        W59321   5.908  27.504   1.819
90917W        W59322   2.396   3.328   3.691
90918W        W59323   6.796   1.543   3.616
90919W        W59324  16.332  11.066  14.882
90920W        W59325  37.495  18.253  11.601
90921W        W59326  15.320   9.766   1.004
90922W        W59327   9.705  25.079   3.595
90923W        W59328  29.976  32.047   1.620
90924W        W59329  42.540  12.606  12.514
90925W        W59330   3.389  17.557   2.427
90926W        W59331  26.014  14.824   3.106
90927W        W59332  28.217   2.104  12.953
90928W        W59333  34.951   5.978  11.691
90929W        W59334  40.814   5.889  10.131
90930W        W59335  21.185  25.472  11.927
90931W        W59336  20.046  12.491   0.772
90932W        W59337  39.002  40.850   0.783
90933W        W59338  41.931  18.788   0.990
90934W        W59339  29.943  33.656   0.648
90935W        W59340  15.548  24.704  10.307
90936W        W59341  33.026   0.570  11.569
90937W        W59342  31.718  25.902   1.835
90938W        W59343  39.011   6.519  14.538
90939W        W59344  12.611  27.047   2.386
90940W        W59345  43.301  34.631  12.571
90941W        W59346  37.482  41.121   1.572
90942W        W59347  22.540  18.558  14.781
90943W        W59348   3.864   2.707  14.186
90944W        W59349  39.435  36.378  11.345
90945W        W59350   6.886  25.421   4.168
90946W        W59351  10.617   2.936  10.194
90947W        W59352   7.925  39.278   2.842
90948W        W59353   9.029  10.161  11.056
90949W        W59354  19.712  19.031  11.210
90950W        W59355  16.648  38.087  14.430
90951W        W59356   9.304  38.427   4.891
90952W        W59357  15.299  29.563  11.991
90953W        W59358  23.823   5.194  14.483
90954W        W59359   6.344   8.651   3.233
90955W        W59360   3.759  43.989  11.725
90956W        W59361  13.043  33.519  10.250
90957W        W59362   4.459  28.773   2.377
90958W        W59363  34.206  29.726  13.941
90959W        W59364   8.369  38.000  10.705
90960W        W59365   9.884   8.133   0.312
90961W        W59366  31.873  14.131  12.514
90962W        W59367  14.875   2.955  14.982
90963W        W59368  24.541  13.078  11.162
90964W        W59369  16.304  40.849  14.256
90965W        W59370  10.274  43.816  12.613
90966W        W59371  35.632   1.268  13.294
90967W        W59372  43.962  39.256  13.514
90968W        W59373  40.772  32.310   2.244
90969W        W59374   8.175  21.720  12.993
90970W        W59375  18.017   2.940  11.266
90971W        W59376  29.354   7.661  12.009
90972W        W59377   2.144  31.700   0.493
90973W        W59378  34.983  36.107   1.268
90974W        W59379  31.797  21.538  11.181
90975W        W59380  28.417  16.067   4.169
90976W        W59381   8.116  29.189  13.441
90977W        W59382  40.984  30.664   3.774
90978W        W59383   4.924   1.062  13.681
90979W        W59384   0.771  27.953  14.998
90980W        W59385   9.396  16.529   2.106
90981W        W59386  15.313   1.029  10.765
90982W        W59387  39.800  35.347  11.071
90983W        W59388  24.930  44.655  11.287
90984W        W59389   0.463  21.039  13.072
90985W        W59390  21.769  41.563  11.216
90986W        W59391   5.284  34.502  13.401
90987W        W59392  38.551  44.248   2.392
90988W        W59393   2.888   6.779   2.564
90989W        W59394   5.713  12.089   2.691
90990W        W59395   6.408  40.399  14.331
90991W        W59396  39.470  27.536  11.709
90992W        W59397  44.478  26.982  11.955
90993W        W59398   6.797  18.629  12.336
90994W        W59399  21.598  41.071  12.354
90995W        W59400  24.987  40.213  13.851
90996W        W59401  36.216  20.076   4.161
90997W        W59402  23.483  38.594  12.097
90998W        W59403   1.731   2.794   2.723
90999W        W59404  41.079  12.642  14.170
91000W        W59405  34.517   3.658  12.043
91001W        W59406  29.718  25.704   0.758
91002W        W59407  16.167  13.402  12.679
91003W        W59408   4.670  32.437  13.479
91004W        W59409   9.161  33.742  11.550
91005W        W59410  21.573  24.460  12.585
91006W        W59411  21.795  30.096  11.112
91007W        W59412  14.970  36.849   0.866
91008W        W59413  17.299  10.200  10.560
91009W        W59414   7.995   2.237   4.434
91010W        W59415  22.982   7.017  14.205
91011W        W59416  23.170  32.721  14.088
91012W        W59417   2.463   0.081  11.158
91013W        W59418  20.063  41.024  14.741
91014W        W59419  40.022   4.830   2.094
91015W        W59420  43.021  17.613  14.426
91016W        W59421  26.492  39.697  10.728
91017W        W59422  19.476  33.721   0.410
91018W        W59423  14.824  33.940  14.088
91019W        W59424  26.004   7.439  14.906
91020W        W59425  29.125  34.880  11.525
91021W        W59426  12.206  21.658  13.563
91022W        W59427  44.883  39.398   4.113
91023W        W59428  40.390  34.529   0.079
91024W        W59429  18.094   7.718  13.477
91025W        W59430  42.421  27.547   3.093
91026W        W59431  15.117  16.869   0.239
91027W        W59432  30.034  18.713   2.818
91028W        W59433  21.247   4.942  10.507
91029W        W59434  34.897  39.912   3.123
91030W        W59435  34.179  44.861   3.224
91031W        W59436   3.754   8.188  12.876
91032W        W59437  27.190  31.442   3.638
91033W        W59438  35.266  11.493  12.092
91034W        W59439   3.475   4.990   2.689
91035W        W59440  42.548  16.128   4.669
91036W        W59441  23.115   2.111  14.395
91037W        W59442  30.608  20.212  13.013
91038W        W59443   6.152  28.230   4.996
91039W        W59444  43.503  16.716  13.321
91040W        W59445   0.762  16.328   3.124
91041W        W59446  22.246  40.751  14.060
91042W        W59447  33.123  27.073  10.920
91043W        W59448  24.253  10.583  12.933
91044W        W59449  27.442   4.281   0.245
91045W        W59450   7.447  30.477   1.441
91046W        W59451  16.450   3.467   0.467
91047W        W59452  28.165  28.468  11.399
91048W        W59453   0.794   5.275  13.471
91049W        W59454  19.589  31.957   4.528
91050W        W59455   6.177  10.193   3.164
91051W        W59456  30.422  15.324  13.020
91052W        W59457  30.048   1.587  12.005
91053W        W59458  19.554  36.548  13.008
91054W        W59459  23.500   3.867   0.513
91055W        W59460  18.312  12.222  13.833
91056W        W59461  15.834  33.458   3.209
91057W        W59462   2.467   0.593  11.380
91058W        W59463  29.693  32.657  12.992
91059W        W59464  34.748  10.340  10.219
91060W        W59465  31.205   8.362  12.349
91061W        W59466  24.265  44.305   4.091
91062W        W59467  25.128  37.558   1.768
91063W        W59468   6.329   0.783   2.303
91064W        W59469  14.336  29.544   2.840
91065W        W59470  29.730   8.906   4.173
91066W        W59471  33.263  14.296   0.453
91067W        W59472  17.761  38.639   4.130
91068W        W59473  15.483  14.292   3.275
91069W        W59474  10.910  15.507  10.426
91070W        W59475   7.484   2.912  12.715
91071W        W59476  12.236  44.198  11.502
91072W        W59477  39.024  35.680  11.727
91073W        W59478   5.208  19.176  12.176
91074W        W59479   1.282  44.568  13.828
91075W        W59480  13.662  10.972   0.041
91076W        W59481  42.868  13.714   3.496
91077W        W59482  39.068   7.020  14.343
91078W        W59483  23.582  18.808   0.809
91079W        W59484  13.604   3.954  14.884
91080W        W59485  23.193  11.319   4.128
91081W        W59486   3.454  15.274  14.002
91082W        W59487   8.905   7.126  11.560
91083W        W59488  28.122  19.208  14.173
91084W        W59489  11.809  25.163  10.739
91085W        W59490   4.346  37.995  12.926
91086W        W59491  43.662   4.472  12.471
91087W        W59492   0.678  34.955   2.380
91088W        W59493  14.298   3.443   1.485
91089W        W59494  22.335  32.092   2.223
91090W        W59495   7.703  20.523  12.000
91091W        W59496  32.136  44.408   3.847
91092W        W59497  22.716  27.919  10.998
91093W        W59498  26.057   4.180   4.469
91094W        W59499  17.649  25.012  13.785
91095W        W59500  42.173   1.753  12.395
91096W        W59501  40.367   5.296   0.187
91097W        W59502   6.190  30.202  11.935
91098W        W59503   4.484  10.339   2.827
91099W        W59504   2.196  33.954   3.156
91100W        W59505  14.197  42.951  13.189
91101W        W59506  18.395  42.445  12.070
91102W        W59507  15.874   0.431   0.704
91103W        W59508   9.068  13.157   1.925
91104W        W59509  11.411  37.592   1.029
91105W        W59510  44.841   8.504  10.167
91106W        W59511  17.746  10.405   9.857
91107W        W59512   9.146   5.474   3.641
91108W        W59513  13.490   0.857   2.058
91109W        W59514  21.076  25.777  11.516
91110W        W59515  10.600  21.596   3.322
91111W        W59516   7.386  16.652  12.687
91112W        W59517  41.965  41.900   3.681
91113W        W59518   3.200  12.286   2.677
91114W        W59519  25.397  14.766  13.521
91115W        W59520  16.426  21.547  11.279
91116W        W59521  17.046  24.645  14.958
91117W        W59522  37.026  37.055  13.643
91118W        W59523  40.908  32.033   4.557
91119W        W59524   0.249  13.134  13.300
91120W        W59525   6.437   0.414   0.667
91121W        W59526  11.331  18.160   0.909
91122W        W59527  28.562  38.648   2.226
91123W        W59528  19.137   7.775   4.176
91124W        W59529  23.497  31.615   0.211
91125W        W59530  15.552  24.151  12.437
91126W        W59531   0.165  39.825   4.011
91127W        W59532  14.200  14.226   1.801
91128W        W59533  21.199  10.332   5.020
91129W        W59534  43.534  22.545   1.423
91130W        W59535  28.059  13.563   1.369
91131W        W59536  36.632  26.606   0.697
91132W        W59537  23.127  23.685  13.139
91133W        W59538  42.862  37.010  14.364
91134W        W59539  44.162  10.715   1.850
91135W        W59540  33.809   1.732   3.113
91136W        W59541  40.818  12.422  11.646
91137W        W59542   2.258  32.974  13.971
91138W        W59543  21.125  35.897   2.751
91139W        W59544  42.169  17.785   1.448
91140W        W59545  15.660  28.271  12.443
91141W        W59546  10.484   0.208  11.912
91142W        W59547  13.378  43.930   2.825
91143W        W59548  24.174  22.176  11.740
91144W        W59549  27.909  38.844  12.547
91145W        W59550  20.632   8.300   0.404
91146W        W59551   1.943  15.877  12.970
91147W        W59552   3.147   7.744  13.606
91148W        W59553  27.614  37.615   2.234
91149W        W59554  42.132  32.979   1.189
91150W        W59555  27.496  40.451  11.021
91151W        W59556  27.127   2.120   1.308
91152W        W59557   5.725  38.153  13.776
91153W        W59558  40.736  12.777  14.598
91154W        W59559  19.322  44.702   1.050
91155W        W59560  34.897   4.384   4.818
91156W        W59561   7.521  41.907  12.894
91157W        W59562   9.868  28.608   0.833
91158W        W59563  26.023  32.147  10.726
91159W        W59564  23.079  24.013  13.564
91160W        W59565  16.383  25.605   2.839
91161W        W59566  22.219   5.460  12.254
91162W        W59567   5.669  21.421   1.083
91163W        W59568  23.292  11.281  11.954
91164W        W59569   1.406  19.163  12.934
91165W        W59570   9.385   6.786   3.362
91166W        W59571  41.587   5.442  10.681
91167W        W59572  32.105  13.685   0.402
91168W        W59573  17.332  14.521   2.656
91169W        W59574  26.875  31.612  13.306
91170W        W59575  42.833  27.528  14.407
91171W        W59576   1.509  14.637   0.333
91172W        W59577  27.028  39.064  12.102
91173W        W59578  12.629  32.474   0.680
91174W        W59579  26.118  34.834  11.953
91175W        W59580  44.843  14.281   3.670
91176W        W59581  22.763  39.832   0.519
91177W        W59582   6.378  36.953  13.881
91178W        W59583   9.247  31.144   4.368
91179W        W59584   1.361  14.221   4.874
91180W        W59585  26.752  39.469  11.497
91181W        W59586   4.401  42.419  10.427
91182W        W59587  35.654   1.235  12.387
91183W        W59588  13.720   9.828  13.431
91184W        W59589  11.805  33.706  12.471
91185W        W59590  27.923  20.197   4.094
91186W        W59591  32.537  32.707   2.718
91187W        W59592  17.568  24.089   4.040
91188W        W59593  15.692  10.166   1.462
91189W        W59594   7.979  43.384  14.392
91190W        W59595   4.788  10.478   4.743
91191W        W59596  39.660  30.875  13.016
91192W        W59597   5.945  14.577  12.947
91193W        W59598  28.139  29.012  13.576
91194W        W59599   7.887  27.155   3.744
91195W        W59600  35.885  20.633  11.526
91196W        W59601  26.243  16.472  13.237
91197W        W59602  40.869  13.802   0.717
91198W        W59603  35.476  29.084   0.504
91199W        W59604  18.110  35.176  10.317
91200W        W59605  13.364  15.936  13.045
91201W        W59606  19.849   5.408   1.489
91202W        W59607  12.926  16.655   0.895
91203W        W59608  41.532  43.410  12.511
91204W        W59609   3.807  10.399  11.706
91205W        W59610  26.252   0.290   4.165
91206W        W59611  32.980  17.736  12.324
91207W        W59612  34.216  18.075  11.409
91208W        W59613  38.632  40.916  13.985
91209W        W59614  33.656  22.357  12.862
91210W        W59615   5.180  40.504   1.023
91211W        W59616  29.518   3.583   5.023
91212W        W59617  10.235  26.850   2.554
91213W        W59618   8.755  20.697  11.632
91214W        W59619  40.952  10.988  11.949
91215W        W59620   9.715   8.089   1.148
91216W        W59621  41.278  17.155   4.754
91217W        W59622  16.014  34.301  14.451
91218W        W59623  15.415  14.195  10.760
91219W        W59624   5.154  34.968   0.586
91220W        W59625  39.080   4.884   2.382
91221W        W59626  38.282  44.488  11.992
91222W        W59627  19.763  33.532   4.554
91223W        W59628  34.083  17.670   0.198
91224W        W59629  39.123  18.800   3.776
91225W        W59630  39.059  19.757   4.628
91226W        W59631  31.539   8.874  13.451
91227W        W59632  30.198  35.527   4.456
91228W        W59633  10.821  16.105   1.807
91229W        W59634   6.316   8.138  10.949
91230W        W59635  39.640   6.262  12.956
91231W        W59636  12.166   3.907   1.772
91232W        W59637  15.103  44.947   1.059
91233W        W59638  31.640  38.841  11.015
91234W        W59639  21.673  26.872   2.368
91235W        W59640  14.807  19.027  13.334
91236W        W59641  19.090  12.636  12.337
91237W        W59642   4.103   1.910  11.168
91238W        W59643  28.203   9.864   4.157
91239W        W59644  38.322  13.347   4.645
91240W        W59645  23.888   9.736  11.738
91241W        W59646   5.384  40.710  14.023
91242W        W59647   7.418  19.646   2.391
91243W        W59648  36.932   8.196   3.128
91244W        W59649  23.295  29.019  12.454
91245W        W59650  15.873  13.338  10.377
91246W        W59651  38.256  34.089  12.232
91247W        W59652  27.124  34.869   1.307
91248W        W59653  42.841  14.521  14.412
91249W        W59654  23.435  12.698   1.857
91250W        W59655  23.935   7.386  13.467
91251W        W59656  12.033  38.509   2.253
91252W        W59657   9.260  32.281   5.421
91253W        W59658  20.703  39.366  10.683
91254W        W59659   0.794  35.731  12.779
91255W        W59660  34.495   6.561  14.831
91256W        W59661  24.956  30.652   4.490
91257W        W59662  42.568  33.510   4.929
91258W        W59663   0.739  24.747   1.407
91259W        W59664  28.682  39.437   3.332
91260W        W59665   9.279   9.844  13.301
91261W        W59666  24.401  27.902  13.005
91262W        W59667  28.009   6.561  11.622
91263W        W59668  15.076  11.194   4.707
91264W        W59669  14.914  24.445   3.012
91265W        W59670   9.918  32.851  10.744
91266W        W59671   0.762  34.416  14.913
91267W        W59672  27.674  22.476  13.127
91268W        W59673  13.274   9.923   2.783
91269W        W59674   4.242   5.647  11.706
91270W        W59675  13.213  34.427  13.440
91271W        W59676   7.123  39.490  12.591
91272W        W59677   7.506  25.446  11.050
91273W        W59678  31.067  32.353  14.736
91274W        W59679  43.787  33.166  14.403
91275W        W59680   0.647  34.847   0.181
91276W        W59681   8.148  37.600   4.112
91277W        W59682  10.180  28.476  13.784
91278W        W59683  31.547   2.139  11.859
91279W        W59684  10.435  25.491   3.358
91280W        W59685   8.439   5.364   2.451
91281W        W59686  39.827   7.910  12.980
91282W        W59687  17.638  16.331   0.368
91283W        W59688   4.870  42.061  11.137
91284W        W59689   2.868  31.357   0.835
91285W        W59690  29.120  11.540  12.637
91286W        W59691  42.078  43.124   1.991
91287W        W59692   8.013  25.165   0.989
91288W        W59693  14.132  10.572  11.417
91289W        W59694  38.505  29.005   2.998
91290W        W59695  25.719  27.778   3.860
91291W        W59696   0.464   6.137  12.101
91292W        W59697   2.056  24.830  13.588
91293W        W59698  43.277  22.137   1.704
91294W        W59699   6.365   8.899   5.141
91295W        W59700  20.243  41.260   4.500
91296W        W59701  37.099   7.237  12.961
91297W        W59702   7.254   2.512  14.326
91298W        W59703   2.761  24.930   3.238
91299W        W59704  35.488  31.024   4.224
91300W        W59705  21.705  26.735   0.675
91301W        W59706  26.008  17.228  14.213
91302W        W59707  40.952  31.476  12.448
91303W        W59708  42.267  26.610   1.199
91304W        W59709  42.707  32.351   2.672
91305W        W59710  16.527  34.634  10.790
91306W        W59711  24.172   4.562   3.141
91307W        W59712   5.621  39.143   1.468
91308W        W59713   0.198  25.593   0.479
91309W        W59714  42.217   8.244   2.854
91310W        W59715  35.092  21.155  12.077
91311W        W59716   0.764  27.585  13.742
91312W        W59717   1.026  39.033  11.633
91313W        W59718  41.201  21.813   4.032
91314W        W59719   6.594  39.902  13.084
91315W        W59720   4.061  11.586  11.756
91316W        W59721  39.542   2.182  10.711
91317W        W59722  33.594   0.329   0.870
91318W        W59723   0.896  37.748  12.895
91319W        W59724  39.986  15.102  10.459
91320W        W59725  19.278   8.671   0.726
91321W        W59726  28.940  10.063   4.549
91322W        W59727   6.126  37.505   3.656
91323W        W59728  30.386  30.214   3.180
91324W        W59729   5.698  41.004  14.293
91325W        W59730  41.984  11.245   2.371
91326W        W59731  24.192  36.610   0.289
91327W        W59732  31.164  42.190   5.082
91328W        W59733  11.919  32.570  12.465
91329W        W59734   9.977  38.875   4.212
91330W        W59735  26.421  20.222  13.920
91331W        W59736  39.411  15.567  11.961
91332W        W59737  39.167  28.028  12.471
91333W        W59738  16.807  35.001   1.280
91334W        W59739  26.166  30.396  13.516
91335W        W59740  33.520  28.683  11.665
91336W        W59741  11.684  31.848  11.186
91337W        W59742  12.056  20.263  13.461
91338W        W59743  37.117  16.055   3.930
91339W        W59744   6.266   0.354   0.180
91340W        W59745  43.488  43.733  14.611
91341W        W59746   6.458   7.688  14.565
91342W        W59747   0.586  24.966  13.680
91343W        W59748   6.863   7.695  13.323
91344W        W59749  39.687   8.269  10.769
91345W        W59750  32.833  27.606   1.178
91346W        W59751  19.985  15.277   3.155
91347W        W59752  20.989  43.912  12.826
91348W        W59753   8.611  14.989   0.451
91349W        W59754  42.299   4.255   3.628
91350W        W59755  28.659  23.581  11.141
91351W        W59756   6.539  41.286  14.137
91352W        W59757  31.091  36.429   1.476
91353W        W59758  35.204  40.356   5.016
91354W        W59759  11.928  29.035   1.099
91355W        W59760  44.169  41.404   4.477
91356W        W59761  12.398  23.931   1.400
91357W        W59762  37.239  32.547   3.251
91358W        W59763  22.607  37.125  12.468
91359W        W59764   4.323  16.600   3.958
91360W        W59765  30.091  42.358   0.690
91361W        W59766   7.651  26.004  14.312
91362W        W59767  30.958  41.098  11.549
91363W        W59768  20.153  16.464   3.479
91364W        W59769  20.174  25.619  12.898
91365W        W59770  17.673  39.854  10.292
91366W        W59771  10.941  17.725  14.834
91367W        W59772  10.793   0.469  14.981
91368W        W59773  29.139  23.834  12.390
91369W        W59774   9.722  36.582  11.266
91370W        W59775  29.644   9.495   1.888
91371W        W59776   1.413  31.464   4.570
91372W        W59777  22.244  11.745  14.858
91373W        W59778   8.797   0.896   3.632
91374W        W59779  27.402  15.332   2.187
91375W        W59780  38.049   7.254   0.527
91376W        W59781  43.366   9.298   3.803
91377W        W59782  17.122   5.121  11.666
91378W        W59783  24.056  25.015   2.792
91379W        W59784  36.648  33.381   1.278
91380W        W59785  43.040   0.433   3.192
91381W        W59786  15.625  36.458   0.332
91382W        W59787  35.937   4.510  12.323
91383W        W59788  40.807   8.526   3.444
91384W        W59789  21.658   1.649  12.482
91385W        W59790  42.847  16.205  14.230
91386W        W59791  44.933  14.711   3.933
91387W        W59792  20.462   3.497  14.400
91388W        W59793  17.388  12.394   4.201
91389W        W59794  40.306  17.645  14.373
91390W        W59795  25.288  43.286  14.852
91391W        W59796  27.168  10.725   0.416
91392W        W59797  13.582   2.940  13.398
91393W        W59798  31.853   4.682   1.231
91394W        W59799  36.895  17.555  13.953
91395W        W59800  24.006  15.720   0.887
91396W        W59801   6.727  41.811   1.322
91397W        W59802  17.958  19.041   3.617
91398W        W59803   4.391  21.024  14.955
91399W        W59804  11.863  26.922   1.927
91400W        W59805  20.134  44.026  13.415
91401W        W59806  26.579  23.096   4.300
91402W        W59807  23.960  42.238  14.123
91403W        W59808  21.519  28.982   3.300
91404W        W59809  27.348  38.760   1.755
91405W        W59810  21.308  20.791   4.510
91406W        W59811  35.518   3.678  12.342
91407W        W59812  10.201  15.344   0.354
91408W        W59813  18.746   7.339   9.875
91409W        W59814  18.336  29.426  11.600
91410W        W59815  29.953  44.816   0.167
91411W        W59816   9.770  11.318   2.089
91412W        W59817  33.531   8.512  11.759
91413W        W59818  18.487  40.982   2.420
91414W        W59819  26.087   2.901   4.174
91415W        W59820  27.700  12.883  13.492
91416W        W59821  28.980  42.618   5.481
91417W        W59822  15.775  44.254   1.871
91418W        W59823  34.492  20.274  11.127
91419W        W59824  36.587  40.927   3.264
91420W        W59825  17.711  32.045   0.093
91421W        W59826   6.949  38.591   0.099
91422W        W59827   3.660  35.476   0.760
91423W        W59828   9.481  44.255  12.027
91424W        W59829   8.940  12.198   4.279
91425W        W59830   6.815  27.638   3.448
91426W        W59831  32.269   6.196  12.794
91427W        W59832  10.421  30.993   0.885
91428W        W59833  41.348  40.030   2.565
91429W        W59834  13.411   6.229   2.392
91430W        W59835  35.673  39.952  14.363
91431W        W59836  33.544   6.440   3.349
91432W        W59837  27.373  29.579   4.417
91433W        W59838  17.542  12.878   4.169
91434W        W59839   6.644  35.477  11.578
91435W        W59840  25.766  33.657  11.809
91436W        W59841  12.962   8.625  13.912
91437W        W59842  24.136  19.509  11.619
91438W        W59843  31.275   2.763  13.882
91439W        W59844  18.152  38.126   1.980
91440W        W59845  17.540  40.517   0.832
91441W        W59846  38.605   6.464   4.059
91442W        W59847  37.042  30.829   2.804
91443W        W59848  23.751  20.569  13.559
91444W        W59849  19.032  20.730   4.765
91445W        W59850  41.459  14.902   2.633
91446W        W59851  10.203  10.530  12.445
91447W        W59852  22.034   5.870  11.237
91448W        W59853  11.111   6.960   1.400
91449W        W59854   9.407  26.618   2.235
91450W        W59855  44.772  38.418   2.282
91451W        W59856   7.377   1.825  11.222
91452W        W59857  27.656  20.637  10.536
91453W        W59858  12.852  18.441   4.171
91454W        W59859  23.218  30.211  11.883
91455W        W59860  43.536  42.507   0.353
91456W        W59861  11.594   9.856   3.459
91457W        W59862  30.089  40.831   4.008
91458W        W59863  44.813  25.152  12.581
91459W        W59864  39.372  29.746  13.297
91460W        W59865  10.781  35.229   4.595
91461W        W59866   4.171  25.587   3.275
91462W        W59867  24.438  31.081   4.752
91463W        W59868   2.028  44.538  14.749
91464W        W59869  11.822  13.796  12.403
91465W        W59870  15.251  28.114   1.185
91466W        W59871  25.968  22.348   0.851
91467W        W59872  41.219  20.612   4.626
91468W        W59873   1.419  34.493   0.356
91469W        W59874  36.428  21.511  13.980
91470W        W59875   3.564  10.340   4.151
91471W        W59876  26.683  29.940   3.341
91472W        W59877  10.195   1.708   4.585
91473W        W59878   6.295   1.988   1.417
91474W        W59879  34.104  25.451  14.845
91475W        W59880  18.249  11.187  11.626
91476W        W59881  20.201  40.988   2.717
91477W        W59882  32.336  19.306  14.431
91478W        W59883  43.927  23.483   2.319
91479W        W59884  12.652  18.936  13.348
91480W        W59885  28.403  43.346  14.328
91481W        W59886  16.185  33.479  11.380
91482W        W59887  40.797  41.735  13.975
91483W        W59888   4.246  23.728   3.988
91484W        W59889  13.980   9.654   4.879
91485W        W59890   0.279  23.129   3.664
91486W        W59891  16.372   3.396   2.440
91487W        W59892  21.290  23.034   1.252
91488W        W59893  20.146  39.965  12.030
91489W        W59894  34.929   4.610  11.965
91490W        W59895   1.507  31.623  14.338
91491W        W59896  16.267  44.020   3.940
91492W        W59897  15.206  11.281   3.795
91493W        W59898  14.698  34.465  14.872
91494W        W59899  19.913  22.607   4.957
91495W        W59900  38.530   6.966  11.500
91496W        W59901   8.693   6.259  11.516
91497W        W59902  29.879  20.056  13.941
91498W        W59903  20.252  40.107  14.873
91499W        W59904   0.846  21.967  13.848
91500W        W59905  25.500  34.024   4.303
91501W        W59906  39.396  23.204  14.101
91502W        W59907  21.794  19.291  11.194
91503W        W59908   2.305  43.444  13.354
91504W        W59909   6.426  23.621  11.606
91505W        W59910  18.978   5.173  11.170
91506W        W59911  18.665   1.179  14.220
91507W        W59912  42.305  24.685   0.804
91508W        W59913  12.585  37.739  13.905
91509W        W59914  43.740  15.116   2.904
91510W        W59915  25.447  25.938   2.688
91511W        W59916  16.238  29.918  14.487
91512W        W59917  39.534  11.734  12.913
91513W        W59918  38.127  11.559  12.180
91514W        W59919  38.116  22.802   0.268
91515W        W59920  21.319   2.759  10.717
91516W        W59921   8.411  33.439   2.347
91517W        W59922  35.805  10.791  12.581
91518W        W59923  12.256  35.326   4.271
91519W        W59924  33.870  22.029  11.508
91520W        W59925  39.905   9.092  12.402
91521W        W59926  14.717  10.297   3.893
91522W        W59927  33.524  30.463   0.663
91523W        W59928   9.891  43.057   4.160
91524W        W59929   4.179  29.656   3.742
91525W        W59930  42.936  22.571  13.976
91526W        W59931  14.764  38.177  14.308
91527W        W59932   3.927   1.006   4.267
91528W        W59933  42.765  18.098  11.578
91529W        W59934   5.667  16.342   3.658
91530W        W59935  42.790  25.949   0.777
91531W        W59936  35.064  40.873   4.266
91532W        W59937  40.885  11.787   2.868
91533W        W59938  44.425  23.819   0.299
91534W        W59939   2.256  13.271   3.097
91535W        W59940  21.172  37.012  14.538
91536W        W59941   9.202  38.544   2.435
91537W        W59942  34.958  33.681  13.259
91538W        W59943  10.687   7.577  13.848
91539W        W59944  40.907  14.124   0.301
91540W        W59945  35.611   4.216  14.042
91541W        W59946  37.271  26.255   4.506
91542W        W59947  20.715  20.190   1.169
91543W        W59948   9.653   9.308  11.134
91544W        W59949  35.333  30.100  13.448
91545W        W59950  40.496  26.662   1.388
91546W        W59951   4.813   2.514  11.573
91547W        W59952   6.391  40.911  10.715
91548W        W59953   7.300  43.456  13.456
91549W        W59954  42.086  43.429   0.684
91550W        W59955  17.146  20.828  11.461
91551W        W59956  16.358  44.041  13.998
91552W        W59957   5.653  12.756  13.183
91553W        W59958  14.665  21.284  13.333
91554W        W59959   7.447  13.185   1.926
91555W        W59960  26.987   4.818   4.906
91556W        W59961   3.838   2.691   2.468
91557W        W59962  32.201   0.623  14.277
91558W        W59963  34.099  32.609  10.989
91559W        W59964  20.102  44.076   2.691
91560W        W59965  41.396   5.834   4.511
91561W        W59966  42.431   6.776   4.569
91562W        W59967   9.055  33.764   1.476
91563W        W59968  12.817  26.734  11.500
91564W        W59969  10.901  13.396   2.161
91565W        W59970  33.725   4.248   3.724
91566W        W59971  20.667  21.208   4.035
91567W        W59972  39.500  29.612  14.273
91568W        W59973   8.765  39.050  13.401
91569W        W59974   7.842   0.392  11.681
91570W        W59975  11.176  44.405  13.778
91571W        W59976   6.510  38.286  13.906
91572W        W59977  31.684  42.903  11.967
91573W        W59978  12.699  29.853  13.685
91574W        W59979   7.808  44.326  12.687
91575W        W59980  17.342  33.944  13.329
91576W        W59981  25.184   6.471  13.303
91577W        W59982  24.191  13.597  10.798
91578W        W59983  37.963   8.298  13.715
91579W        W59984  15.517   5.617  13.336
91580W        W59985  42.853  42.862  12.591
91581W        W59986  20.739  19.213   1.326
91582W        W59987  33.475  10.786   4.683
91583W        W59988  31.000  34.832  14.109
91584W        W59989  42.575   4.250   3.206
91585W        W59990  10.596  31.855  14.885
91586W        W59991  39.960  14.295   4.471
91587W        W59992  41.987   8.947   1.738
91588W        W59993  29.002   6.122  11.559
91589W        W59994   7.859  39.985  12.509
91590W        W59995  13.482  14.299  11.005
91591W        W59996   5.022   1.718  14.326
91592W        W59997  19.981  35.843   0.547
91593W        W59998  35.622  35.639  11.685
91594W        W59999   7.001  19.983   1.272
91595W        W60000  28.694  28.003  11.973
91596W        W60001  15.120   6.972   3.688
91597W        W60002  13.911  27.462  14.250
91598W        W60003  11.429   1.903   2.730
91599W        W60004  21.766  35.389   3.846
91600W        W60005   9.924  35.828  11.629
91601W        W60006  19.306  35.945  14.250
91602W        W60007  31.382  23.376   3.265
91603W        W60008  31.553   7.178  12.808
91604W        W60009  40.792  20.256  14.950
91605W        W60010   7.433  32.633  14.399
91606W        W60011  30.751  16.839  12.261
91607W        W60012   4.405  35.719  10.217
91608W        W60013  25.268  36.250  12.449
91609W        W60014  10.233  34.593  12.437
91610W        W60015  35.332  37.883   3.695
91611W        W60016   5.032  36.396  13.491
91612W        W60017  43.746   9.192   4.492
91613W        W60018   4.766  15.266   3.716
91614W        W60019  17.590  23.666  13.685
91615W        W60020   2.375  32.046  11.437
91616W        W60021  16.310   2.772   3.783
91617W        W60022  43.477   2.407   1.312
91618W        W60023  27.231  29.758   2.168
91619W        W60024  28.335  14.587  10.566
91620W        W60025  30.620  42.278   2.461
91621W        W60026   2.725  14.635   3.171
91622W        W60027  31.868  19.742  14.227
91623W        W60028  20.307  10.186   1.377
91624W        W60029  29.834  11.669   2.073
91625W        W60030  31.075  19.662  11.553
91626W        W60031   3.366  43.366  13.939
91627W        W60032  41.881  13.326  10.537
91628W        W60033  33.005   7.151  10.820
91629W        W60034   7.649  38.912   1.928
91630W        W60035  42.227  23.037   1.498
91631W        W60036  40.111  34.704  11.797
91632W        W60037   3.318  38.843   0.864
91633W        W60038   6.469  30.480  13.349
91634W        W60039  34.162  40.279   0.378
91635W        W60040  17.313  32.770   3.662
91636W        W60041  24.024   3.790  11.120
91637W        W60042  36.844  17.736   4.501
91638W        W60043  41.064   0.554   4.561
91639W        W60044  16.863  34.559  14.221
91640W        W60045  14.351   3.852   5.014
91641W        W60046  16.850  27.624   3.326
91642W        W60047  12.595  13.251   2.648
91643W        W60048  23.726  31.550   3.259
91644W        W60049   5.723  20.156  14.415
91645W        W60050  13.103  36.857  12.912
91646W        W60051  40.689   6.417   2.279
91647W        W60052  29.956  20.713   4.463
91648W        W60053  39.247  26.974  14.750
91649W        W60054   0.262   5.823   3.584
91650W        W60055   7.776   7.670  13.375
91651W        W60056  41.220   1.771  11.101
91652W        W60057  35.161  24.501   0.407
91653W        W60058   7.185  32.171   3.190
91654W        W60059  13.160  29.608   2.724
91655W        W60060  12.605  36.973  12.094
91656W        W60061  31.422   3.796  14.254
91657W        W60062   7.372  28.558  11.455
91658W        W60063   9.716  35.944  12.092
91659W        W60064  39.940  42.535  12.652
91660W        W60065  10.479  21.026  12.878
91661W        W60066  34.605   9.537  14.567
91662W        W60067  14.558  17.778   0.687
91663W        W60068  32.802   7.200  13.463
91664W        W60069  11.380  43.097   4.969
91665W        W60070  31.272  34.690   4.009
91666W        W60071  35.394  43.200  14.881
91667W        W60072  22.950  41.795  10.719
91668W        W60073  35.888  26.920   3.578
91669W        W60074  40.803  27.720  12.052
91670W        W60075  35.276   6.763   4.612
91671W        W60076  41.234  33.321   4.044
91672W        W60077  35.691  11.748  12.130
91673W        W60078  31.562   8.925   3.952
91674W        W60079  15.398  34.632   1.840
91675W        W60080  38.072  12.587   4.639
91676W        W60081  24.975   4.870   1.151
91677W        W60082  44.780  42.933   3.768
91678W        W60083  42.940  31.984  12.068
91679W        W60084  16.346  40.185   2.184
91680W        W60085   1.925  17.618  12.520
91681W        W60086   3.640   9.819   1.682
91682W        W60087  13.765  17.692  11.639
91683W        W60088  17.475  11.559   1.339
91684W        W60089  40.620  30.507   4.097
91685W        W60090  24.441  22.933  11.768
91686W        W60091  43.192  29.281   2.782
91687W        W60092  34.047   5.436   0.392
91688W        W60093  30.105   6.815  12.100
91689W        W60094  31.576   1.917  12.555
91690W        W60095  10.051  11.224  13.935
91691W        W60096  15.710  16.674  13.574
91692W        W60097   1.278  13.093  12.751
91693W        W60098   3.217  17.635  11.983
91694W        W60099  39.732  32.281   4.228
91695W        W60100  15.207  16.753   4.068
91696W        W60101  15.234  27.662  11.738
91697W        W60102   0.350  33.859  12.059
91698W        W60103  21.579   7.619  12.411
91699W        W60104  14.564  25.452   4.530
91700W        W60105   7.136   1.381  14.993
91701W        W60106  20.697  13.311   3.894
91702W        W60107  41.306  17.717   1.058
91703W        W60108  39.429   1.770   0.255
91704W        W60109  15.717   7.938   0.854
91705W        W60110   2.936  15.583   4.643
91706W        W60111   6.692  14.759  13.845
91707W        W60112  39.065   1.097  12.838
91708W        W60113  39.412  44.249   2.274
91709W        W60114  44.178  41.143  13.007
91710W        W60115   2.169   8.632  11.552
91711W        W60116  31.443  25.147  10.734
91712W        W60117  14.148  34.121   2.872
91713W        W60118   9.869  32.988  14.929
91714W        W60119   4.235  35.316   1.820
91715W        W60120  38.067  19.263   1.658
91716W        W60121  42.035  19.443  10.744
91717W        W60122  27.522   0.276  13.809
91718W        W60123  44.795  43.007   0.884
91719W        W60124  33.585  21.555  13.553
91720W        W60125  20.824  15.248  11.536
91721W        W60126  15.790  27.923   1.758
91722W        W60127  39.322  33.005   3.742
91723W        W60128  42.345  24.216   3.156
91724W        W60129   0.431  35.766  12.218
91725W        W60130  36.169  25.081  14.463
91726W        W60131  41.908  15.659   2.707
91727W        W60132   3.050   7.215  10.939
91728W        W60133   4.439   7.207   2.162
91729W        W60134  23.257  27.475   0.416
91730W        W60135   8.332  19.538   3.903
91731W        W60136  17.293  38.013   1.809
91732W        W60137  25.981   8.850  13.002
91733W        W60138   0.826   3.737   0.318
91734W        W60139  16.807  20.481   0.520
91735W        W60140  37.090  34.752   0.613
91736W        W60141  41.947  30.960   3.193
91737W        W60142  38.894  41.251  14.854
91738W        W60143  42.696  25.116  11.584
91739W        W60144  28.535   0.948   5.055
91740W        W60145  33.010  25.097  13.391
91741W        W60146  18.584   0.068   1.380
91742W        W60147  10.776  10.135   0.332
91743W        W60148   0.178   5.316  12.448
91744W        W60149  40.239   0.554   3.444
91745W        W60150   0.354   2.341   2.771
91746W        W60151  39.536   7.631   1.299
91747W        W60152   6.593  26.958  14.518
91748W        W60153   3.521  24.177   3.267
91749W        W60154   8.239  15.016  13.602
91750W        W60155  37.992   4.903   3.313
91751W        W60156  27.453   7.117   0.011
91752W        W60157  16.699  11.285   3.285
91753W        W60158  32.480   5.554   0.398
91754W        W60159   8.437  18.107  13.339
91755W        W60160  10.107  23.204   4.239
91756W        W60161  20.965  22.529  11.950
91757W        W60162   5.944  34.588  14.449
91758W        W60163  43.917  37.383   3.046
91759W        W60164  30.520  25.728   1.704
91760W        W60165  13.521  11.971  13.040
91761W        W60166  24.558   5.368   0.216
91762W        W60167  34.267  12.393   1.286
91763W        W60168   5.401  37.553  14.303
91764W        W60169  14.952   0.382  12.943
91765W        W60170   5.248   3.268  11.512
91766W        W60171  42.492  12.092   3.380
91767W        W60172   4.460   4.282   5.473
91768W        W60173  40.326  28.249  14.451
91769W        W60174  33.836   4.854  11.143
91770W        W60175  38.262  31.955   4.665
91771W        W60176   0.717  24.215  14.724
91772W        W60177  29.537  25.984   2.337
91773W        W60178  27.207  14.327  11.245
91774W        W60179  15.653  41.321   0.422
91775W        W60180  36.321  11.276   1.286
91776W        W60181  44.148  20.876  14.586
91777W        W60182  23.044   1.128   0.252
91778W        W60183  21.463   0.797   2.702
91779W        W60184  35.582   1.758   1.713
91780W        W60185   8.323  39.852   0.600
91781W        W60186   5.216  28.159   4.219
91782W        W60187  33.440  17.701  10.272
91783W        W60188  39.421  28.209  13.401
91784W        W60189  40.559  23.370  12.133
91785W        W60190  34.084  21.582   0.052
91786W        W60191  24.168  13.737  13.902
91787W        W60192  44.401  12.850   2.180
91788W        W60193   0.315  30.866  12.976
91789W        W60194  24.595  22.714  12.636
91790W        W60195  40.242   1.466   3.466
91791W        W60196   1.301  32.457  14.309
91792W        W60197  31.414   8.312   3.271
91793W        W60198  20.697  23.457  11.589
91794W        W60199  28.583  10.997  13.326
91795W        W60200  20.942   9.746  12.540
91796W        W60201   7.843  28.998  11.202
91797W        W60202  24.980  12.324  14.955
91798W        W60203  11.862  16.647  14.209
91799W        W60204  38.986  38.452  12.004
91800W        W60205  12.980  28.979  11.207
91801W        W60206  39.430   1.205  11.662
91802W        W60207  32.501  40.602   1.711
91803W        W60208  33.537  28.660   0.020
91804W        W60209  41.899   3.382   0.288
91805W        W60210  22.144  43.753  12.543
91806W        W60211  40.001  35.883  13.325
91807W        W60212  12.033  37.577  10.361
91808W        W60213   7.726   5.740   2.923
91809W        W60214  18.099  17.045  13.711
91810W        W60215  23.349  29.965  12.325
91811W        W60216   2.816  13.222  13.840
91812W        W60217  35.336  26.205   3.438
91813W        W60218   9.099  23.514  13.003
91814W        W60219  15.731  32.206  13.086
91815W        W60220  42.847  10.854  14.353
91816W        W60221   8.914  19.882   2.567
91817W        W60222  43.313   1.560   0.712
91818W        W60223  25.189  40.878   1.254
91819W        W60224   6.485  25.208  11.179
91820W        W60225   1.640   3.920   2.073
91821W        W60226  19.843  21.570  13.355
91822W        W60227  17.794  28.621   3.296
91823W        W60228  26.557  26.598   2.422
91824W        W60229   0.924   9.459   0.311
91825W        W60230  28.820  19.215   5.337
91826W        W60231   8.470   6.385   4.887
91827W        W60232  14.606  36.351  13.606
91828W        W60233  22.549  28.751  11.548
91829W        W60234  28.933  21.662   2.223
91830W        W60235  34.207  40.904   3.949
91831W        W60236  15.243  37.259   1.299
91832W        W60237   4.982  25.298   3.016
91833W        W60238  18.739  21.189  12.798
91834W        W60239  33.843  26.644   1.265
91835W        W60240  18.082   6.720   5.393
91836W        W60241  12.815  25.987   0.429
91837W        W60242  43.312  15.963  10.352
91838W        W60243  19.439  42.637   2.292
91839W        W60244  36.628  10.900  12.172
91840W        W60245  17.392  11.555  11.673
91841W        W60246  24.823   4.897  10.717
91842W        W60247   2.820  35.178   0.520
91843W        W60248  35.412  13.535   0.239
91844W        W60249   3.052  28.346  10.711
91845W        W60250  39.443  21.122   1.751
91846W        W60251  28.965  42.480   0.395
91847W        W60252  22.198  43.511   0.834
91848W        W60253   2.294  34.089   1.867
91849W        W60254  13.723  18.947  13.970
91850W        W60255  29.884  12.330  10.633
91851W        W60256  17.208  36.637  11.673
91852W        W60257   2.235  26.883   0.209
91853W        W60258  22.085   8.252  13.035
91854W        W60259   7.675  43.134  10.786
91855W        W60260  44.053  31.455  14.403
91856W        W60261  13.552  10.183   1.405
91857W        W60262  40.496  28.888  11.134
91858W        W60263  36.709  41.930   2.404
91859W        W60264  40.513  16.240   1.816
91860W        W60265   1.955  33.910   0.864
91861W        W60266  38.817   5.148   4.248
91862W        W60267  10.821  28.947  13.141
91863W        W60268  13.753  35.009  11.944
91864W        W60269  13.672  23.611   1.336
91865W        W60270  10.379  44.046  13.069
91866W        W60271   1.072   0.333  11.143
91867W        W60272  21.994  37.382   0.748
91868W        W60273  28.639  38.791   5.008
91869W        W60274   1.766  43.757  14.374
91870W        W60275  31.310  15.533   4.658
91871W        W60276  31.552  40.628  10.756
91872W        W60277  36.089  35.335  12.442
91873W        W60278   1.344   8.650  12.073
91874W        W60279   5.327  31.883  13.765
91875W        W60280  19.657  33.400  12.537
91876W        W60281   2.072  11.677  13.635
91877W        W60282  20.781  21.931  11.419
91878W        W60283  16.209  39.996  10.731
91879W        W60284   9.213  43.612   2.155
91880W        W60285  27.971   4.141  12.127
91881W        W60286  24.656  11.764  10.731
91882W        W60287  28.195   7.738   1.313
91883W        W60288  44.840   9.335  14.246
91884W        W60289  41.114  28.945  14.235
91885W        W60290   8.342  33.452  13.899
91886W        W60291   3.410   0.702  14.125
91887W        W60292  30.891  14.675  13.791
91888W        W60293  16.920  34.406   1.973
91889W        W60294  22.099  11.292   0.885
91890W        W60295  22.940  40.625   3.749
91891W        W60296  31.482  38.844   0.963
91892W        W60297  23.760  39.059  14.794
91893W        W60298   7.628  21.389  11.643
91894W        W60299  44.077  18.426   0.104
91895W        W60300  14.210  11.634  10.652
91896W        W60301  40.541   8.158   3.673
91897W        W60302  28.472  35.796   1.651
91898W        W60303   6.223  14.256   1.235
91899W        W60304  21.613  39.429  14.623
91900W        W60305  17.505  25.993  13.340
91901W        W60306   6.368  28.235  11.110
91902W        W60307  25.512  15.081   4.872
91903W        W60308  23.943  43.254  13.995
91904W        W60309  31.433  16.272  12.420
91905W        W60310  39.880  42.960   0.567
91906W        W60311  39.904  18.274  11.843
91907W        W60312  22.326  29.205   1.921
91908W        W60313  42.284  26.168   3.271
91909W        W60314   9.228  30.114  12.824
91910W        W60315   4.224  31.451  12.349
91911W        W60316   8.837  26.181   3.829
91912W        W60317  41.493  33.059   0.438
91913W        W60318  13.552  27.596  13.799
91914W        W60319  14.798  36.354   0.809
91915W        W60320  27.543  39.269   5.209
91916W        W60321  37.712  18.843   3.300
91917W        W60322   3.772  21.021   0.435
91918W        W60323  33.577  24.633  11.634
91919W        W60324  12.851  23.906   1.728
91920W        W60325  10.225  31.982   3.768
91921W        W60326  14.163   1.496   2.174
91922W        W60327  24.177  39.279  13.925
91923W        W60328   4.414   7.352  11.156
91924W        W60329   2.076  38.205   3.123
91925W        W60330  34.560   3.368   0.372
91926W        W60331  39.341   1.301   3.106
91927W        W60332  35.288  19.100  10.706
91928W        W60333  27.637  29.949   3.223
91929W        W60334  41.404  14.221   2.189
91930W        W60335  22.490  21.232  13.879
91931W        W60336  25.190  12.635   2.872
91932W        W60337  32.122  43.940   2.920
91933W        W60338   9.130  23.056  10.719
91934W        W60339  36.108  30.500   0.926
91935W        W60340  35.911  25.686  13.796
91936W        W60341  37.990   0.789   3.302
91937W        W60342  40.786  11.745   4.289
91938W        W60343  20.630  26.492  14.662
91939W        W60344  33.344   4.366   2.373
91940W        W60345  26.566  39.316   2.595
91941W        W60346   2.544  43.915  13.188
91942W        W60347   0.774  32.993  14.990
91943W        W60348   2.497  41.476  14.346
91944W        W60349  25.162  14.923  12.031
91945W        W60350  21.037   5.803  11.225
91946W        W60351  40.501   0.113   3.398
91947W        W60352  22.169   3.527   4.151
91948W        W60353   2.263  37.531   0.560
91949W        W60354  14.703  19.300  13.791
91950W        W60355  17.290  10.765  11.268
91951W        W60356  18.316   8.284   0.235
91952W        W60357  30.147  15.082  11.601
91953W        W60358  27.759  14.934   2.199
91954W        W60359   9.460  42.823   3.151
91955W        W60360  13.804  35.992  12.185
91956W        W60361  22.308  40.075   5.059
91957W        W60362  37.306  40.895  10.446
91958W        W60363  18.801  30.501  12.081
91959W        W60364  39.061  25.899  10.110
91960W        W60365  39.223  41.873  12.077
91961W        W60366  33.259   3.583   4.173
91962W        W60367  40.319  22.159  13.782
91963W        W60368  29.739  34.597  13.599
91964W        W60369  34.168  31.213  11.102
91965W        W60370  36.317   9.911  13.392
91966W        W60371  10.873  27.924  10.606
91967W        W60372  31.435  16.272   4.295
91968W        W60373  26.475  18.736   1.527
91969W        W60374  12.256  13.671  10.921
91970W        W60375  35.547  35.592  13.849
91971W        W60376   7.492   6.231   2.132
91972W        W60377  14.658  18.503  13.359
91973W        W60378  37.643  10.394  11.154
91974W        W60379  14.269  40.385  14.837
91975W        W60380   9.341  35.540   3.379
91976W        W60381  31.402  13.732  14.762
91977W        W60382  30.639   8.516   2.390
91978W        W60383  13.820   1.927  13.772
91979W        W60384  29.052  22.608  13.141
91980W        W60385   2.760  42.798   2.760
91981W        W60386  39.863  16.543  12.672
91982W        W60387  11.306   4.484   0.570
91983W        W60388  13.174  11.222  14.901
91984W        W60389  43.206   8.745  10.858
91985W        W60390  12.252   9.851  12.997
91986W        W60391   8.180  13.941   1.205
91987W        W60392  44.435   1.390  12.360
91988W        W60393  12.684  12.451   1.305
91989W        W60394  33.850  13.422  11.135
91990W        W60395  28.683  16.618   3.299
91991W        W60396  13.650  30.074  11.444
91992W        W60397  42.984  21.618   4.650
91993W        W60398   9.269  38.560  10.637
91994W        W60399  25.698  28.021  13.503
91995W        W60400  12.132  27.627  14.864
91996W        W60401  44.833  36.938   3.926
91997W        W60402  44.595  17.902  11.523
91998W        W60403   6.740  15.640   1.658
91999W        W60404   1.826  39.668   0.067
92000W        W60405  30.428   5.376   0.422
92001W        W60406  14.770  27.041   3.734
92002W        W60407  25.122  28.149   2.358
92003W        W60408  18.196  36.653  13.909
92004W        W60409  35.649  24.169   2.206
92005W        W60410  35.800  18.083  13.433
92006W        W60411  22.103  21.643   2.880
92007W        W60412  37.965  16.724   4.588
92008W        W60413   5.544  42.481  10.642
92009W        W60414  41.774   0.949   4.107
92010W        W60415  32.135  36.137   3.274
92011W        W60416  34.986  39.233   2.336
92012W        W60417  35.407  14.314   0.822
92013W        W60418  41.097  42.155   4.134
92014W        W60419   7.877  21.243  13.853
92015W        W60420  22.751  32.677  11.455
92016W        W60421  34.505  21.427   1.349
92017W        W60422  38.000  28.462  13.351
92018W        W60423   5.527   2.922   0.464
92019W        W60424  20.290  25.557  14.398
92020W        W60425  32.020  42.050   3.225
92021W        W60426   7.948  15.289   2.759
92022W        W60427  40.320  20.357   1.411
92023W        W60428  23.603  42.014   2.455
92024W        W60429  41.451   9.273   2.125
92025W        W60430  44.871  13.859  14.405
92026W        W60431  38.564  39.163  11.724
92027W        W60432   8.390  21.076  12.500
92028W        W60433   5.930  35.399  12.114
92029W        W60434  31.978  21.999   4.008
92030W        W60435   6.439  43.402  11.882
92031W        W60436  37.512  17.171   0.652
92032W        W60437  16.776  12.342   2.233
92033W        W60438  20.686  25.966   1.854
92034W        W60439  29.159  38.426  13.519
92035W        W60440  35.362  27.438  10.634
92036W        W60441  19.703  35.019  12.836
92037W        W60442  32.460  40.392   3.047
92038W        W60443   2.371  34.651  14.816
92039W        W60444  44.319  44.115   4.139
92040W        W60445  41.103  30.472  12.681
92041W        W60446   8.279  37.008  12.216
92042W        W60447  37.345  37.551   4.638
92043W        W60448  23.968  14.890   2.349
92044W        W60449   9.193   2.774   2.143
92045W        W60450   4.848   9.701   2.921
92046W        W60451  43.439  17.714  13.466
92047W        W60452  36.504  20.116   3.729
92048W        W60453   4.447  43.511  14.014
92049W        W60454  33.055   3.951   2.406
92050W        W60455  22.247   9.203  12.060
92051W        W60456  24.744  21.474  13.363
92052W        W60457  29.246   1.476   0.080
92053W        W60458  14.171  26.096  11.590
92054W        W60459  12.327  22.141  13.326
92055W        W60460   4.098   3.734  14.870
92056W        W60461  30.387  35.917   4.109
92057W        W60462  16.781  41.697   1.510
92058W        W60463  22.708  29.674  12.626
92059W        W60464  28.012  43.696   0.640
92060W        W60465  17.353  37.069   1.334
92061W        W60466  34.947   9.208   0.480
92062W        W60467  11.653  43.829   4.169
92063W        W60468  15.117  10.363  12.841
92064W        W60469  36.530   6.600  11.392
92065W        W60470  14.604  20.655   4.323
92066W        W60471   4.817  14.741   2.594
92067W        W60472  14.603  35.322  13.458
92068W        W60473  34.041  15.578   1.117
92069W        W60474  40.645   0.138  11.062
92070W        W60475  25.177  38.257   0.198
92071W        W60476  26.657  43.526   4.050
92072W        W60477  14.325  14.094   2.369
92073W        W60478  24.938  15.056   2.382
92074W        W60479  10.852  34.146   0.355
92075W        W60480  34.392  42.700  11.661
92076W        W60481  13.963  18.282  11.092
92077W        W60482  10.669  39.855  11.512
92078W        W60483  38.403   1.614  11.085
92079W        W60484  41.142   3.904  13.041
92080W        W60485  19.911  34.625  13.788
92081W        W60486   4.607   5.068   2.920
92082W        W60487  20.780   9.233   2.350
92083W        W60488  22.928   3.739  14.739
92084W        W60489  22.745  30.101   1.785
92085W        W60490  42.550  19.595   2.592
92086W        W60491  37.410  12.574  12.912
92087W        W60492   6.520  43.716  14.489
92088W        W60493  20.503  39.805   0.773
92089W        W60494  44.745  29.569   0.014
92090W        W60495  31.640  19.560   4.158
92091W        W60496  19.636  16.644  12.426
92092W        W60497  13.097  16.947   2.376
92093W        W60498  29.494   7.795  10.140
92094W        W60499  39.292  41.593   2.280
92095W        W60500  23.755  21.608  14.699
92096W        W60501  23.066  18.789   0.875
92097W        W60502   0.879  32.970   0.500
92098W        W60503  31.559  41.010  14.072
92099W        W60504   5.287   8.148  14.978
92100W        W60505  40.570  34.334   1.358
92101W        W60506  42.836  39.487  10.566
92102W        W60507  10.228  15.864   2.890
92103W        W60508  22.937  35.535  13.405
92104W        W60509  11.219   0.496  12.878
92105W        W60510   9.058  14.729   4.196
92106W        W60511  27.129  29.692  10.429
92107W        W60512   8.636  28.485  13.830
92108W        W60513  10.419   0.620   2.304
92109W        W60514  25.269  26.062  14.117
92110W        W60515  24.553  44.617  14.798
92111W        W60516  26.586  12.927   3.665
92112W        W60517  28.489   5.354   3.585
92113W        W60518  26.455  11.872   3.792
92114W        W60519   7.056  26.769   0.758
92115W        W60520  15.262  16.692   3.169
92116W        W60521  12.784   3.226  10.604
92117W        W60522  30.620  42.147  11.449
92118W        W60523  28.570  13.188  12.655
92119W        W60524   5.845  44.940  13.836
92120W        W60525  31.992  19.051   4.294
92121W        W60526  38.809  22.691  14.597
92122W        W60527  27.160  16.731   2.388
92123W        W60528   4.089   0.788   0.365
92124W        W60529  19.746  17.291   1.760
92125W        W60530  43.897  36.943  13.741
92126W        W60531  22.812  24.567   3.625
92127W        W60532  18.039  41.953  11.443
92128W        W60533  29.450  18.299   3.859
92129W        W60534  20.803   7.289   2.693
92130W        W60535  21.680  10.256   4.541
92131W        W60536  21.115  11.049   0.988
92132W        W60537  39.358  11.618  13.391
92133W        W60538   5.181  21.725   1.781
92134W        W60539  22.913  21.606   0.819
92135W        W60540  18.620  38.405   0.356
92136W        W60541  36.103  35.339  13.843
92137W        W60542  10.640  24.268   2.663
92138W        W60543   7.860  43.859  10.880
92139W        W60544  16.649   3.025  11.316
92140W        W60545  20.773  22.431  14.330
92141W        W60546  21.466  15.519   2.691
92142W        W60547  35.157  43.842   2.263
92143W        W60548  16.014  39.523  12.856
92144W        W60549  22.220  21.750   4.801
92145W        W60550  35.143  13.120   1.102
92146W        W60551  31.573   5.943  12.043
92147W        W60552  15.422  43.378  12.941
92148W        W60553  43.035   1.246   0.411
92149W        W60554  14.384  40.402   3.475
92150W        W60555  27.601  19.221   3.741
92151W        W60556  10.291  39.199  12.978
92152W        W60557   5.996  22.608  12.522
92153W        W60558  13.319   7.607   2.344
92154W        W60559  42.390   1.771   1.362
92155W        W60560  43.936  31.061  12.579
92156W        W60561  30.508  25.727   3.675
92157W        W60562  29.153  39.446   1.813
92158W        W60563  43.323   6.210   2.654
92159W        W60564  35.080  28.123  11.151
92160W        W60565  34.130  34.961  13.952
92161W        W60566  32.696  17.317  14.908
92162W        W60567  17.880   2.437   2.356
92163W        W60568  28.491  33.473   1.879
92164W        W60569  39.337   2.223  13.333
92165W        W60570  33.081   7.023  12.008
92166W        W60571  17.521   0.656   2.765
92167W        W60572  12.216  37.732  10.827
92168W        W60573  39.887  24.521   1.456
92169W        W60574   9.982  23.492   1.050
92170W        W60575  10.245  36.854  14.544
92171W        W60576  33.364  38.922  14.249
92172W        W60577  12.240  29.189  12.403
92173W        W60578  28.799  41.536   2.009
92174W        W60579  40.840  33.027   4.551
92175W        W60580   9.822  36.326   2.825
92176W        W60581  18.277  37.065  11.526
92177W        W60582  41.838  26.761   1.949
92178W        W60583   2.870  35.682   0.576
92179W        W60584   3.495   3.441  11.095
92180W        W60585  33.046  43.281   3.549
92181W        W60586  18.056   3.393   1.893
92182W        W60587   1.299  28.377   4.516
92183W        W60588  16.921   3.523  14.570
92184W        W60589  20.029   6.413  14.786
92185W        W60590  10.103  14.635   3.122
92186W        W60591  27.821   4.438   0.566
92187W        W60592  15.392  12.415  11.215
92188W        W60593  44.562  28.543  11.470
92189W        W60594  40.011  19.174  13.915
92190W        W60595  42.240   1.652  14.712
92191W        W60596  44.417   6.695   2.282
92192W        W60597  36.620  38.567  12.387
92193W        W60598  22.538  10.419  14.522
92194W        W60599  31.170  33.691   0.049
92195W        W60600  30.632  21.960  13.367
92196W        W60601  25.637   8.574  11.194
92197W        W60602  12.549  30.015  14.288
92198W        W60603  20.796   7.955  12.296
92199W        W60604  39.589  43.804  14.213
92200W        W60605  13.626  12.745   0.829
92201W        W60606  22.866  21.685  10.820
92202W        W60607  10.388  36.612  14.983
92203W        W60608  30.921  25.706   4.007
92204W        W60609  14.937  24.034  13.669
92205W        W60610  23.176  38.020  14.426
92206W        W60611  30.556   2.677   0.875
92207W        W60612   3.174  11.924   0.806
92208W        W60613  21.553  34.889   0.245
92209W        W60614  41.871  27.477  13.092
92210W        W60615  33.985  32.766  14.500
92211W        W60616  22.481  32.564  10.517
92212W        W60617  29.603  23.639   0.215
92213W        W60618  14.832  29.399  12.172
92214W        W60619  19.753  28.670   1.477
92215W        W60620  22.616  32.376  12.336
92216W        W60621  33.834   8.666   4.586
92217W        W60622  33.882  17.997  13.892
92218W        W60623   0.408  21.194  10.245
92219W        W60624  29.690  13.393   4.069
92220W        W60625   4.458  18.742   2.287
92221W        W60626   1.685  28.073   4.312
92222W        W60627  21.516  42.752  14.414
92223W        W60628   0.452  11.149   0.365
92224W        W60629  24.608  29.629   1.824
92225W        W60630  35.029  27.738   3.794
92226W        W60631  18.071  35.063   0.340
92227W        W60632  27.512  41.309  14.458
92228W        W60633   3.940  13.894  10.643
92229W        W60634  29.925  42.826   0.868
92230W        W60635  36.819   6.734  13.292
92231W        W60636  32.493   8.830   1.506
92232W        W60637  43.713  27.288  13.951
92233W        W60638  33.915  11.313   2.243
92234W        W60639  19.283  43.963   4.194
92235W        W60640  40.296  32.979  13.024
92236W        W60641   5.749  27.478  14.312
92237W        W60642  26.502  30.958  14.643
92238W        W60643  40.383  12.715   3.563
92239W        W60644  19.649  42.798  12.390
92240W        W60645  42.459   7.739   2.855
92241W        W60646   4.922  31.019  12.016
92242W        W60647   0.063  24.201  14.059
92243W        W60648   5.665  28.217  13.973
92244W        W60649  38.438   4.939  13.949
92245W        W60650  29.938  10.342   1.799
92246W        W60651  44.070  29.650  12.901
92247W        W60652  26.492  36.278  11.598
92248W        W60653   1.723   1.691  11.175
92249W        W60654  31.350  35.886  13.344
92250W        W60655  15.607  26.158   5.093
92251W        W60656  28.467   2.189   0.430
92252W        W60657  36.047  29.665  13.950
92253W        W60658   0.073   6.347   3.606
92254W        W60659  22.717  15.643   3.822
92255W        W60660  18.255  39.943   2.485
92256W        W60661  12.808  29.449  13.375
92257W        W60662  41.877  31.849   2.336
92258W        W60663  38.473  20.747   2.177
92259W        W60664  20.707   6.675   0.253
92260W        W60665   3.917   9.652   1.259
92261W        W60666  21.815  35.980  13.025
92262W        W60667  16.711  42.806  11.602
92263W        W60668  27.603  43.359   4.563
92264W        W60669  44.424   0.377  11.040
92265W        W60670  30.917  31.660  12.295
92266W        W60671  28.496   9.025   5.041
92267W        W60672  40.250  31.621   3.326
92268W        W60673  39.581  40.315   4.595
92269W        W60674  42.043  12.854   4.033
92270W        W60675   6.424  32.545   2.954
92271W        W60676  24.277  18.109  11.224
92272W        W60677  44.336   9.286  10.433
92273W        W60678   9.107   6.675  11.231
92274W        W60679  25.057  30.853  13.513
92275W        W60680   9.333   5.885  14.427
92276W        W60681  33.462  21.088  10.276
92277W        W60682  36.074  23.650  14.364
92278W        W60683  44.050   2.151  14.758
92279W        W60684  39.988  30.007   1.348
92280W        W60685  41.510   9.763  12.108
92281W        W60686  42.383  39.406   1.676
92282W        W60687  17.249  22.523  10.956
92283W        W60688  38.599  22.690  12.098
92284W        W60689   1.060  12.129  14.771
92285W        W60690  44.476  13.830  13.777
92286W        W60691  34.900  32.130   4.658
92287W        W60692  36.872  22.206  11.979
92288W        W60693  19.180  17.742  10.702
92289W        W60694   9.063  33.125  11.607
92290W        W60695  41.913  44.445   1.212
92291W        W60696  41.553  19.951   3.214
92292W        W60697  16.571  26.574  12.618
92293W        W60698   4.384   7.415  10.291
92294W        W60699  28.989   8.342  13.124
92295W        W60700  25.730   6.746  11.634
92296W        W60701  19.350  24.956   0.879
92297W        W60702   5.674  16.551  12.652
92298W        W60703   1.763   0.248   2.415
92299W        W60704  23.862   7.204   4.656
92300W        W60705  22.737   0.408  14.979
92301W        W60706  12.953  24.294   4.174
92302W        W60707  23.197  16.694  13.606
92303W        W60708  12.323  24.370   1.134
92304W        W60709  33.734  22.775  12.066
92305W        W60710  21.010  10.599   0.744
92306W        W60711  10.650   6.379   1.878
92307W        W60712  29.292  22.105  12.995
92308W        W60713  16.359  15.594   2.311
92309W        W60714   1.764  37.835   3.286
92310W        W60715  38.813  25.418   1.392
92311W        W60716  30.436  19.831  13.479
92312W        W60717  22.826  43.260   1.625
92313W        W60718  31.247  17.527  11.908
92314W        W60719  22.133  25.764   1.471
92315W        W60720  44.340  14.523  11.967
92316W        W60721  31.102  42.193   0.697
92317W        W60722  14.624  23.117  12.109
92318W        W60723  21.602  14.301  14.251
92319W        W60724  30.999  11.264  13.091
92320W        W60725   2.665  10.685  11.147
92321W        W60726  30.904   6.131  10.241
92322W        W60727  43.737  25.238  11.635
92323W        W60728   6.048   9.271   4.929
92324W        W60729  44.998  26.025   3.555
92325W        W60730  34.158  20.734  12.478
92326W        W60731  12.229  12.253   4.228
92327W        W60732  25.156  14.131   2.374
92328W        W60733  31.618  16.401   3.596
92329W        W60734  12.667  17.469  14.326
92330W        W60735   9.438  41.297   1.619
92331W        W60736  16.487  15.549  13.971
92332W        W60737  42.478  10.057   3.150
92333W        W60738  15.864  28.509   1.787
92334W        W60739  33.816  40.931   3.632
92335W        W60740  32.068  21.855   1.798
92336W        W60741   0.385  43.768  11.892
92337W        W60742   5.212  28.298   0.647
92338W        W60743  40.136  29.534  14.926
92339W        W60744  32.534  43.803   3.226
92340W        W60745   6.867  20.260   0.799
92341W        W60746  41.366   0.768  11.148
92342W        W60747  36.152  44.741   3.239
92343W        W60748   7.013  38.582   1.892
92344W        W60749  37.627  13.831   0.855
92345W        W60750  32.543  15.325  13.848
92346W        W60751   3.993  33.247   3.979
92347W        W60752  37.839   6.835   2.162
92348W        W60753  14.781   7.611   4.928
92349W        W60754   2.754   2.666   0.744
92350W        W60755   9.219   0.458   1.551
92351W        W60756  38.902  40.367  12.853
92352W        W60757   7.744  20.887  14.719
92353W        W60758  28.497  44.872   2.493
92354W        W60759  15.812  26.976   1.751
92355W        W60760  13.289   3.554  14.847
92356W        W60761   7.782  28.951  14.396
92357W        W60762   0.545  27.640   0.388
92358W        W60763  22.223  40.258   1.513
92359W        W60764  38.711   7.047   9.710
92360W        W60765  42.378  31.555  14.900
92361W        W60766  42.844  31.048   3.687
92362W        W60767  38.444  25.545  14.532
92363W        W60768  37.558  15.210   3.534
92364W        W60769  36.885  20.697  13.897
92365W        W60770  14.186  24.483   2.331
92366W        W60771   6.020  18.700  14.262
92367W        W60772   8.655  15.265  14.417
92368W        W60773  10.776   4.143   0.633
92369W        W60774  22.561   2.905  14.342
92370W        W60775   2.861  11.127  10.961
92371W        W60776  28.676  40.258  10.400
92372W        W60777  23.950   1.980   1.740
92373W        W60778   4.853  19.957  13.522
92374W        W60779  34.031  42.929  10.589
92375W        W60780   3.952  36.079  13.909
92376W        W60781  38.984  17.348  13.386
92377W        W60782   9.754  43.976   2.721
92378W        W60783  29.622  17.033   3.139
92379W        W60784   0.506  31.871   1.941
92380W        W60785  12.252   4.633   2.847
92381W        W60786   5.281  20.275  13.491
92382W        W60787  35.552   8.530   4.235
92383W        W60788  13.653  32.662  11.987
92384W        W60789  17.497   4.161  11.049
92385W        W60790   3.522   7.233   3.612
92386W        W60791  28.924   6.860  13.824
92387W        W60792  32.389   9.297  11.868
92388W        W60793  17.704   3.765  10.746
92389W        W60794   2.990  44.345   4.267
92390W        W60795   7.299  35.850   4.113
92391W        W60796  26.960  13.639   4.389
92392W        W60797   3.551  15.722  12.352
92393W        W60798  25.819  44.493  13.869
92394W        W60799  24.990  38.787  14.568
92395W        W60800  31.825  23.993   1.853
92396W        W60801  13.748  40.494  10.614
92397W        W60802  23.074  18.597  10.450
92398W        W60803  43.308  21.084   4.198
92399W        W60804  11.672  23.031   0.764
92400W        W60805  40.843  21.443   3.693
92401W        W60806  31.273  39.583   5.300
92402W        W60807  20.221   0.120   9.962
92403W        W60808  22.150  32.650   1.122
92404W        W60809  18.681  20.107  14.291
92405W        W60810  28.349  14.646   5.168
92406W        W60811   0.769  27.754  10.937
92407W        W60812   2.730  12.298   3.786
92408W        W60813  15.679  29.063  11.209
92409W        W60814   7.195   8.739   0.838
92410W        W60815  39.121  33.175   3.238
92411W        W60816  25.070  42.227  13.356
92412W        W60817   9.226  27.578  13.580
92413W        W60818  43.926   5.634   1.777
92414W        W60819   0.383  22.230   2.760
92415W        W60820  20.631   6.340  13.273
92416W        W60821  38.776  14.192  13.554
92417W        W60822  18.260   1.750   1.090
92418W        W60823  15.800  41.015   1.651
92419W        W60824   8.116  32.974  12.826
92420W        W60825  30.401   9.663  12.612
92421W        W60826  29.446  28.950  11.276
92422W        W60827  10.783  38.894   4.795
92423W        W60828  28.778   9.093  10.603
92424W        W60829  26.040  12.786  14.432
92425W        W60830  23.117  42.408   1.043
92426W        W60831  11.900   4.343   1.639
92427W        W60832  29.422  33.557  13.964
92428W        W60833  34.777  17.587   4.116
92429W        W60834  14.858  18.582   0.205
92430W        W60835  14.855   9.595   0.269
92431W        W60836  17.594  31.649   0.389
92432W        W60837  23.951  35.036  14.025
92433W        W60838  40.687   2.066  12.598
92434W        W60839  15.011  44.462   1.415
92435W        W60840  43.247  36.433  10.782
92436W        W60841   9.828  27.610  13.704
92437W        W60842   1.240  22.798  13.085
92438W        W60843  10.784   3.531  13.252
92439W        W60844  24.057   7.871  13.380
92440W        W60845  42.067   2.901   3.357
92441W        W60846   3.766  30.041  13.987
92442W        W60847  36.168  13.138  13.092
92443W        W60848  26.120  24.237  12.542
92444W        W60849  15.870   0.047   3.158
92445W        W60850   9.146   0.855   0.952
92446W        W60851  41.274  11.322  11.131
92447W        W60852  10.185  30.847  10.258
92448W        W60853  22.070  40.318  13.833
92449W        W60854  29.389  38.830  14.824
92450W        W60855  33.278  11.080  11.956
92451W        W60856   6.376   2.452  14.411
92452W        W60857   2.939  25.270   2.791
92453W        W60858  14.627  26.932  14.625
92454W        W60859  36.944  41.830  14.252
92455W        W60860  28.553  28.538   3.935
92456W        W60861   8.518  22.052   0.826
92457W        W60862   8.343  23.676  13.936
92458W        W60863  24.809  24.625   1.763
92459W        W60864  37.458  11.113  13.164
92460W        W60865  10.425  11.167   0.683
92461W        W60866   1.173  20.084   3.878
92462W        W60867   9.294  10.675  13.620
92463W        W60868   2.509  43.875   3.427
92464W        W60869  27.527   6.022  11.979
92465W        W60870   1.045  11.674   0.188
92466W        W60871  26.663  23.080   4.856
92467W        W60872   5.644  22.591  14.279
92468W        W60873  29.185  29.711   1.671
92469W        W60874  30.688  29.474  12.427
92470W        W60875  32.164  26.104  10.493
92471W        W60876  28.202   1.796  13.368
92472W        W60877  40.004   4.877  11.744
92473W        W60878   9.890  28.109   2.687
92474W        W60879  29.501  17.103  11.551
92475W        W60880  16.363   6.164   2.176
92476W        W60881  42.415  24.189  11.827
92477W        W60882  33.182  19.081   3.671
92478W        W60883  25.925  38.447  11.162
92479W        W60884   7.009   3.803  13.425
92480W        W60885  31.403   7.296  10.634
92481W        W60886   7.147   6.330  11.184
92482W        W60887  26.804   4.462  13.537
92483W        W60888  25.756  42.790   4.518
92484W        W60889  35.700  27.119  13.521
92485W        W60890  12.787  31.714   0.644
92486W        W60891  33.287   5.486   4.213
92487W        W60892   5.965   9.798   0.371
92488W        W60893  16.316  32.204   1.802
92489W        W60894   7.524  22.225   1.823
92490W        W60895   3.011   8.517   4.970
92491W        W60896   5.206   5.653  13.034
92492W        W60897  40.053  44.553  13.915
92493W        W60898  27.645  34.112   1.198
92494W        W60899   9.224   5.115   0.466
92495W        W60900  26.856  36.560  13.914
92496W        W60901   6.270   3.266  12.513
92497W        W60902  43.989  27.653  10.927
92498W        W60903  30.639  29.988  12.467
92499W        W60904   3.802  38.383   4.613
92500W        W60905   4.176  28.232  12.994
92501W        W60906  43.656  22.139  10.534
92502W        W60907  26.603  29.041  13.311
92503W        W60908  30.457  41.508   0.252
92504W        W60909  17.532   1.954  12.041
92505W        W60910  28.897   9.646  11.617
92506W        W60911   3.438   0.255  13.852
92507W        W60912   7.698  38.899   0.586
92508W        W60913  38.887  32.944  12.998
92509W        W60914  36.889  40.245  11.127
92510W        W60915  17.264  33.842  13.836
92511W        W60916  29.199  28.844   1.213
92512W        W60917  10.323  33.390  12.478
92513W        W60918  11.015  20.978  12.801
92514W        W60919  12.540  10.240   1.418
92515W        W60920   6.370  36.984   0.452
92516W        W60921  19.316  19.560  12.836
92517W        W60922  31.202  38.413   4.330
92518W        W60923  22.163   5.866  14.551
92519W        W60924  42.527   4.816  13.774
92520W        W60925  10.236   0.239  13.681
92521W        W60926  27.653  37.556  11.087
92522W        W60927   7.762  26.996  13.404
92523W        W60928  37.947  23.075   4.137
92524W        W60929   4.967  37.628  10.704
92525W        W60930  41.597  14.319  12.325
92526W        W60931  44.804  28.498  13.877
92527W        W60932  21.710  24.009  10.918
92528W        W60933   4.683  38.188   1.927
92529W        W60934  28.017  18.010  13.931
92530W        W60935  14.316  10.078   0.692
92531W        W60936  43.339  33.515   4.566
92532W        W60937  17.091  24.859   0.427
92533W        W60938  12.669   1.458   3.510
92534W        W60939  37.608  18.754   1.761
92535W        W60940   4.894  39.294   3.721
92536W        W60941   4.357  41.190   4.520
92537W        W60942  23.223  24.720  14.037
92538W        W60943  36.957  10.460   3.174
92539W        W60944  14.279   2.815  12.440
92540W        W60945  41.274  23.184   2.447
92541W        W60946  19.309  43.803  11.394
92542W        W60947  17.868  21.576  13.170
92543W        W60948  30.896  13.568  12.420
92544W        W60949  10.883  28.316   4.659
92545W        W60950  20.308  37.947  11.525
92546W        W60951   8.327  12.677   3.049
92547W        W60952  43.123  33.327  13.440
92548W        W60953  11.500   4.309   0.123
92549W        W60954   8.215  30.243  13.415
92550W        W60955  16.337  11.197  12.930
92551W        W60956  31.148  22.166   2.734
92552W        W60957   8.723  43.974   3.876
92553W        W60958  43.027  38.040  12.329
92554W        W60959   2.355  20.615  11.894
92555W        W60960  36.938  14.715   1.306
92556W        W60961  12.741   8.694   4.542
92557W        W60962  38.119  29.666  12.042
92558W        W60963   1.992  26.909  13.003
92559W        W60964  29.039   6.693   3.045
92560W        W60965  33.097  19.990  14.521
92561W        W60966  20.603  31.950   4.842
92562W        W60967  20.012  16.777  11.518
92563W        W60968  39.185  41.837  13.367
92564W        W60969  10.508  18.196  12.729
92565W        W60970  43.140  33.564  14.798
92566W        W60971  25.426  40.912   1.771
92567W        W60972   8.619   9.967  11.289
92568W        W60973  30.919  32.247  14.233
92569W        W60974   6.343   0.007  14.783
92570W        W60975  43.767  38.535   2.111
92571W        W60976  41.520   6.143  13.101
92572W        W60977  17.288   3.567   1.833
92573W        W60978  19.588   3.609   0.536
92574W        W60979  35.082  16.595  13.554
92575W        W60980  21.298  14.045  11.972
92576W        W60981  11.336  29.908  12.399
92577W        W60982  18.576   5.618   2.379
92578W        W60983  19.157   3.175  14.873
92579W        W60984  29.930  27.977  11.046
92580W        W60985  36.361  15.568  10.652
92581W        W60986  37.489  32.831  13.154
92582W        W60987  24.545   0.801   3.314
92583W        W60988  25.608  16.722  10.644
92584W        W60989  31.703  37.770   2.916
92585W        W60990  33.854  19.503  14.923
92586W        W60991  23.152  19.096  13.911
92587W        W60992  43.930  42.090   0.458
92588W        W60993  44.959  40.289  13.789
92589W        W60994  41.632  32.464   0.241
92590W        W60995  31.918   5.505   2.916
92591W        W60996  25.511   1.790  10.604
92592W        W60997  39.092  44.270  14.016
92593W        W60998  21.126  14.745   3.781
92594W        W60999  41.983  25.714  14.932
92595W        W61000  27.925  15.980   2.128
92596W        W61001  15.795  40.259  12.351
92597W        W61002  28.213  34.905   0.392
92598W        W61003  20.266  44.733   0.498
92599W        W61004   4.413  27.697  14.560
92600W        W61005  40.704  24.706   3.106
92601W        W61006  31.860   7.767   5.257
92602W        W61007  20.049  42.884   2.793
92603W        W61008  28.665  36.822   4.736
92604W        W61009  20.252  24.010  14.168
92605W        W61010  34.480  30.107  13.726
92606W        W61011  43.777  19.724  14.966
92607W        W61012  39.418  16.682  14.437
92608W        W61013  28.971  36.595   1.757
92609W        W61014   5.361  13.755   4.390
92610W        W61015  30.825   1.485  14.655
92611W        W61016  44.800   8.440   9.644
92612W        W61017  40.879   9.065  11.598
92613W        W61018  31.942   6.964  13.403
92614W        W61019  34.226  36.003   4.282
92615W        W61020   2.610  10.549   0.645
92616W        W61021  28.319  44.453  10.103
92617W        W61022  31.941   5.382  12.473
92618W        W61023  31.439  17.342   9.620
92619W        W61024   4.666   4.470  12.989
92620W        W61025  40.409  21.031  11.239
92621W        W61026  27.994  18.247  14.798
92622W        W61027  42.607  38.282  13.923
92623W        W61028  23.118  29.410   3.641
92624W        W61029  14.672  22.632  12.949
92625W        W61030  17.673  16.017  12.116
92626W        W61031  21.106   4.877   3.597
92627W        W61032  33.339  19.807   1.818
92628W        W61033  41.231  14.572  12.061
92629W        W61034  10.653  20.746   0.777
92630W        W61035  27.650  43.239   4.064
92631W        W61036  19.531  20.621   1.291
92632W        W61037  18.743  42.670  12.390
92633W        W61038  39.880  17.084  13.396
92634W        W61039   0.705  40.417   1.453
92635W        W61040  25.170  16.250  13.857
92636W        W61041   7.922  21.772  12.511
92637W        W61042  13.259  28.742  10.429
92638W        W61043  13.872  23.147   3.679
92639W        W61044  26.592   0.456   1.871
92640W        W61045   9.065  44.376   1.668
92641W        W61046  33.138   7.451  10.393
92642W        W61047  11.163   2.686  13.984
92643W        W61048  36.867  16.499  10.732
92644W        W61049   9.246   7.191  11.184
92645W        W61050  15.768  35.612  10.439
92646W        W61051   7.876  12.780  14.680
92647W        W61052  16.207  42.461   1.857
92648W        W61053  20.240  40.521  11.265
92649W        W61054  25.170  22.060  11.256
92650W        W61055  25.875  37.448  12.597
92651W        W61056  34.160  39.530  13.106
92652W        W61057   4.320   4.632  12.621
92653W        W61058  14.411  29.069   3.790
92654W        W61059  12.865  28.445   2.435
92655W        W61060   3.766  11.042  12.599
92656W        W61061   4.440  36.460   0.468
92657W        W61062   5.209   2.692   0.071
92658W        W61063  17.594   3.192   2.736
92659W        W61064   0.061  38.465   3.265
92660W        W61065  41.786  13.558   2.778
92661W        W61066  37.509  35.457   1.450
92662W        W61067  40.862  27.205   0.918
92663W        W61068  26.578  26.305  11.186
92664W        W61069  31.946  23.272   4.478
92665W        W61070  43.538  39.054  13.718
92666W        W61071   0.541  28.362  11.588
92667W        W61072  30.028  22.617  13.576
92668W        W61073  26.047  11.904  14.371
92669W        W61074  27.024  29.845  13.060
92670W        W61075  12.338  20.376  10.682
92671W        W61076  24.290  26.926  12.983
92672W        W61077  44.359  20.432   4.908
92673W        W61078  21.732  20.372  12.614
92674W        W61079   1.968  10.882   1.641
92675W        W61080  28.454  36.984  13.792
92676W        W61081  17.114   1.736  12.445
92677W        W61082  40.517  11.658   0.952
92678W        W61083   7.382  30.702  13.369
92679W        W61084  40.505  24.071   2.398
92680W        W61085   5.180  14.154   3.114
92681W        W61086   2.156  41.425   3.681
92682W        W61087  11.582   2.180   0.469
92683W        W61088  12.534  28.875  14.225
92684W        W61089  11.323  44.786   4.053
92685W        W61090   8.608  32.322  12.386
92686W        W61091  27.562  10.225   1.312
92687W        W61092  40.005  22.486   0.139
92688W        W61093  26.526  20.665  12.455
92689W        W61094  10.398  38.779   2.904
92690W        W61095   9.318  31.138  10.716
92691W        W61096  36.428   3.974   3.756
92692W        W61097  38.950   1.955  12.310
92693W        W61098   2.568  40.900  13.493
92694W        W61099  22.538   8.339   3.192
92695W        W61100  29.144  43.313  13.019
92696W        W61101  17.195   6.292  10.342
92697W        W61102  13.435   8.799  14.023
92698W        W61103  35.651  21.059  14.500
92699W        W61104   6.679  36.589  12.025
92700W        W61105   9.349  30.805  13.346
92701W        W61106  32.170  15.560   4.124
92702W        W61107  44.121  25.186  10.835
92703W        W61108  40.850  13.069   4.140
92704W        W61109  25.185  31.979   2.688
92705W        W61110  44.537  26.232   3.398
92706W        W61111  23.947  17.400  12.842
92707W        W61112  33.871  23.677  11.319
92708W        W61113  44.049  40.564  14.319
92709W        W61114  16.208  26.003   2.325
92710W        W61115   8.032  43.309   1.180
92711W        W61116  15.768   7.929  13.030
92712W        W61117   9.203  27.107  13.336
92713W        W61118  25.512  36.081  12.030
92714W        W61119   5.655  33.068   1.705
92715W        W61120  43.013  41.057  12.113
92716W        W61121  19.801  16.259  11.707
92717W        W61122  33.695  20.941  11.199
92718W        W61123  42.275  22.647  12.781
92719W        W61124  31.867   6.984  12.449
92720W        W61125  19.592  27.208   0.257
92721W        W61126  37.965  22.850   2.114
92722W        W61127  38.839  26.201   2.874
92723W        W61128  22.041  34.760   1.637
92724W        W61129  15.260  28.509  11.702
92725W        W61130  44.312  23.902  14.457
92726W        W61131  20.182  37.995   0.921
92727W        W61132  24.164   3.364  10.276
92728W        W61133  17.979  37.734  11.962
92729W        W61134  39.139  10.965  13.771
92730W        W61135  20.879  42.490   4.130
92731W        W61136  31.042   9.180   2.731
92732W        W61137  44.567  31.043  11.153
92733W        W61138  13.649   9.308   2.785
92734W        W61139  32.552  20.522   0.803
92735W        W61140  44.033   2.441   4.345
92736W        W61141  41.459  28.736   4.651
92737W        W61142  13.263  25.933   1.018
92738W        W61143  10.644  20.685  11.616
92739W        W61144  21.063   4.247  13.501
92740W        W61145  18.002  12.380  11.100
92741W        W61146  11.496  43.791  12.098
92742W        W61147  24.060  31.122   3.167
92743W        W61148  12.139  28.675   1.811
92744W        W61149  25.716  42.492   1.644
92745W        W61150  42.727   5.924  12.143
92746W        W61151  26.048   5.340  10.571
92747W        W61152   2.762  29.920   4.740
92748W        W61153  34.498   0.508   0.549
92749W        W61154   0.906   1.223  12.881
92750W        W61155   4.834  29.062   4.151
92751W        W61156  12.437  31.101  10.494
92752W        W61157  40.692   7.953   2.183
92753W        W61158  18.858  33.495  11.612
92754W        W61159  14.764  12.876   3.224
92755W        W61160  36.406   3.860  10.310
92756W        W61161   6.508  22.291  11.449
92757W        W61162  37.852  28.426   3.683
92758W        W61163  10.934   0.346  10.616
92759W        W61164   6.253  43.574   2.937
92760W        W61165  32.077   2.871   1.606
92761W        W61166  33.586  43.044  14.648
92762W        W61167  15.306   9.205  11.643
92763W        W61168  27.456  19.735  14.943
92764W        W61169  22.200  23.994  14.272
92765W        W61170  26.938   9.688   0.180
92766W        W61171  23.494  37.871  13.372
92767W        W61172  27.104  19.277   0.335
92768W        W61173  40.339   8.845   0.322
92769W        W61174  25.998  15.833   5.042
92770W        W61175  41.582   7.627   0.440
92771W        W61176  41.504  15.597   5.080
92772W        W61177  35.555  32.947   2.301
92773W        W61178   6.751   4.139  10.982
92774W        W61179  36.104  42.224  14.212
92775W        W61180  33.002  42.000  12.379
92776W        W61181  27.109  37.506  11.976
92777W        W61182  37.023  19.729  10.791
92778W        W61183  38.853   1.497   3.760
92779W        W61184  33.522  14.248   2.876
92780W        W61185  16.759   1.028  11.462
92781W        W61186   5.629   3.268   5.095
92782W        W61187   9.245  16.492  12.133
92783W        W61188   8.677  39.759   3.427
92784W        W61189  43.506  36.444  14.836
92785W        W61190   9.347   5.306   5.034
92786W        W61191  44.748   8.844  14.403
92787W        W61192  31.477  34.959  14.285
92788W        W61193  34.029   4.447  14.291
92789W        W61194  38.665   1.650   5.513
92790W        W61195  39.062  39.628   3.202
92791W        W61196  15.878  39.789  13.520
92792W        W61197   3.424  29.966   0.108
92793W        W61198  39.609  16.121   0.803
92794W        W61199  18.628   6.989   2.892
92795W        W61200  13.464  27.636  12.305
92796W        W61201  37.044   8.287   4.539
92797W        W61202  33.972  20.503   4.631
92798W        W61203  13.709   3.178   2.131
92799W        W61204  39.381   4.175  10.730
92800W        W61205  15.178  31.259  12.357
92801W        W61206  17.230  42.243  10.211
92802W        W61207  11.286  29.235  13.876
92803W        W61208   0.793   9.952   2.167
92804W        W61209  12.219  43.589   0.336
92805W        W61210  30.526  32.386   2.709
92806W        W61211  31.278   7.383   2.591
92807W        W61212  34.412   4.851   1.806
92808W        W61213   1.024  29.450   4.628
92809W        W61214   9.862  23.039   0.828
92810W        W61215   6.317  38.844   2.692
92811W        W61216  19.692  25.223   2.170
92812W        W61217  42.146  43.914   1.669
92813W        W61218  17.257  17.970  11.334
92814W        W61219  35.393  27.609   1.840
92815W        W61220   9.349  44.315  10.621
92816W        W61221  35.089  33.747  10.614
92817W        W61222   9.306  24.837   0.024
92818W        W61223  15.361  23.534   2.773
92819W        W61224  12.932  27.117   4.274
92820W        W61225   8.934  15.647  11.431
92821W        W61226  12.675  32.052   9.720
92822W        W61227  38.036  11.823  14.453
92823W        W61228  21.997  36.997   3.194
92824W        W61229   5.799  37.472   4.058
92825W        W61230  14.872  23.680   4.972
92826W        W61231  37.906  24.031  13.406
92827W        W61232  38.108  30.262   2.899
92828W        W61233   3.462  38.362   0.770
92829W        W61234  38.852  43.978   0.337
92830W        W61235   1.864  20.293   0.696
92831W        W61236  43.978  13.140   1.320
92832W        W61237   4.889   1.914   3.826
92833W        W61238   2.344  16.617  11.147
92834W        W61239  18.982  14.648  10.909
92835W        W61240  10.408  24.250  14.850
92836W        W61241  28.095  29.775   0.742
92837W        W61242   6.163  36.991   3.450
92838W        W61243   7.896  33.093   1.774
92839W        W61244  41.848  43.026   2.456
92840W        W61245   2.830  14.575  10.666
92841W        W61246  37.426  34.677   0.213
92842W        W61247  34.999  41.791  10.795
92843W        W61248  21.240  34.807  14.833
92844W        W61249  15.744   0.321   4.298
92845W        W61250  38.537  25.226   0.970
92846W        W61251  23.236  29.106   2.649
92847W        W61252  29.482  24.736  13.386
92848W        W61253  13.097  40.373   4.190
92849W        W61254   1.235  13.520   4.402
92850W        W61255  26.014  33.058  10.755
92851W        W61256  28.372  44.787   1.973
92852W        W61257  30.718  26.711   0.939
92853W        W61258  15.172  42.447  10.786
92854W        W61259   3.921  43.081  11.506
92855W        W61260  24.522  14.550   0.456
92856W        W61261  35.376  39.894  11.421
92857W        W61262  24.240  19.069  14.736
92858W        W61263  31.704  28.612  11.173
92859W        W61264  18.852   8.406   0.515
92860W        W61265   2.796  22.453   3.228
92861W        W61266  23.807  26.205   1.435
92862W        W61267  36.350   5.525   0.447
92863W        W61268  36.337  39.032   1.307
92864W        W61269  28.741  18.153  13.443
92865W        W61270  37.015  11.328  14.031
92866W        W61271   9.262   9.882  14.356
92867W        W61272   0.080  13.589  12.880
92868W        W61273   5.690  30.313  14.372
92869W        W61274  30.413  10.183   1.713
92870W        W61275  28.409  25.173   3.506
92871W        W61276  38.617  16.480   0.943
92872W        W61277  18.594  16.252   4.709
92873W        W61278  10.211  14.030  14.965
92874W        W61279  10.422  15.178   1.838
92875W        W61280   1.463  41.882   3.376
92876W        W61281  30.159  11.658   0.201
92877W        W61282  27.635  14.421  14.935
92878W        W61283  14.873  32.294   1.730
92879W        W61284  16.778  20.608   1.030
92880W        W61285  38.601  19.003   1.044
92881W        W61286   6.113   6.709   4.806
92882W        W61287  33.155  41.312  10.722
92883W        W61288  30.095  11.301   1.842
92884W        W61289  35.359  42.538   0.559
92885W        W61290  12.819  25.202  11.573
92886W        W61291  15.613  13.608   4.743
92887W        W61292  18.840   0.510   1.439
92888W        W61293  41.837  25.019   1.800
92889W        W61294  31.055  38.048  13.476
92890W        W61295  19.221  37.786  14.878
92891W        W61296  40.956   4.083  14.456
92892W        W61297  31.289   0.420  13.056
92893W        W61298   0.424  36.571   5.180
92894W        W61299  16.541  10.180  11.111
92895W        W61300  41.836   5.004  13.504
92896W        W61301  13.281  10.786  12.044
92897W        W61302  21.316  25.693   3.994
92898W        W61303  18.724   3.670   1.557
92899W        W61304   5.868  29.842  12.598
92900W        W61305   9.056  36.399  13.446
92901W        W61306  41.004  43.467   4.603
92902W        W61307  19.562  22.568  13.210
92903W        W61308   6.233   1.576  13.519
92904W        W61309  32.850  16.568   4.822
92905W        W61310  16.207  35.206  14.409
92906W        W61311  34.073  23.440   3.710
92907W        W61312   0.736  40.728  13.858
92908W        W61313   4.729  29.699  14.976
92909W        W61314  33.454   4.462   4.132
92910W        W61315  20.319  39.421  11.110
92911W        W61316  33.895  44.233  10.962
92912W        W61317  17.302  18.227  10.893
92913W        W61318  36.476   0.231  14.983
92914W        W61319  30.400  18.110  13.550
92915W        W61320  37.445  39.467  12.194
92916W        W61321  27.577  17.697   1.186
92917W        W61322  19.539   3.994  12.019
92918W        W61323  41.097   8.803   0.121
92919W        W61324  43.565  23.578  13.436
92920W        W61325  13.058  34.729   0.309
92921W        W61326   8.359  14.809   2.229
92922W        W61327  31.210  16.983  14.835
92923W        W61328  17.300  19.274   4.573
92924W        W61329  16.542  19.974  14.059
92925W        W61330  44.448   9.717   0.488
92926W        W61331  32.934  43.277   4.084
92927W        W61332  23.952  16.388  12.450
92928W        W61333  34.415  17.146  14.005
92929W        W61334  21.123  26.016   2.187
92930W        W61335  28.506  37.771  14.900
92931W        W61336  36.004  37.448  14.376
92932W        W61337  27.289  44.394   2.144
92933W        W61338  25.501   1.344   2.402
92934W        W61339   7.767  39.272   0.936
92935W        W61340  34.918  17.395  11.014
92936W        W61341  20.767   7.007  12.497
92937W        W61342  23.364  21.582  10.907
92938W        W61343  43.501   5.254  13.022
92939W        W61344  35.427   6.933  12.219
92940W        W61345   5.638  41.903  14.982
92941W        W61346   0.937   1.322  11.518
92942W        W61347  30.700  14.072  10.259
92943W        W61348  27.277   1.740  11.531
92944W        W61349  44.717  25.179  14.600
92945W        W61350  34.793  40.358  14.774
92946W        W61351   8.332  37.299   0.848
92947W        W61352   2.862  17.719   0.882
92948W        W61353  16.893   7.800   0.803
92949W        W61354  10.741  27.825   4.580
92950W        W61355  44.801  10.797   4.243
92951W        W61356  19.995  26.662   2.374
92952W        W61357  20.459  18.808   0.446
92953W        W61358  33.101  44.046   4.284
92954W        W61359  20.108  34.754  13.018
92955W        W61360  42.243   7.775  13.885
92956W        W61361  19.465  14.637  11.079
92957W        W61362  20.237  14.144  14.973
92958W        W61363   3.658  10.791   4.401
92959W        W61364  24.352  30.384  12.885
92960W        W61365   6.787  41.570   3.901
92961W        W61366  41.387  11.669  13.046
92962W        W61367  26.493   4.858   0.854
92963W        W61368  21.256  32.413  13.448
92964W        W61369  25.399  12.088  13.462
92965W        W61370  25.307  31.078  10.776
92966W        W61371  43.213   1.008   2.856
92967W        W61372  28.505  28.214   4.659
92968W        W61373  16.369  41.342  11.167
92969W        W61374  28.198  36.444   4.302
92970W        W61375   8.738  38.118   4.183
92971W        W61376  18.673  19.795   2.198
92972W        W61377   4.729  15.876  10.748
92973W        W61378  23.310   7.176  11.731
92974W        W61379   5.158  39.340  12.551
92975W        W61380  16.103  26.980  13.073
92976W        W61381  18.793   7.964   3.737
92977W        W61382  41.621  33.843   2.299
92978W        W61383  44.731  43.471  13.889
92979W        W61384  26.141  10.384   4.085
92980W        W61385   8.368  41.905   2.719
92981W        W61386  29.156  44.189  12.606
92982W        W61387  21.021  11.238  13.320
92983W        W61388   1.061  13.238   3.840
92984W        W61389  13.714  12.491   1.860
92985W        W61390   5.712   2.003   2.395
92986W        W61391   1.796  36.529   1.940
92987W        W61392  43.411   8.640   0.633
92988W        W61393   3.255  20.475  10.930
92989W        W61394   7.066  23.404   0.327
92990W        W61395  40.561  17.447   2.441
92991W        W61396   9.685  27.536   4.639
92992W        W61397  29.501  24.558   0.576
92993W        W61398  13.262   7.927  13.588
92994W        W61399  36.095  40.178   3.319
92995W        W61400  16.046  36.940   4.594
92996W        W61401  13.259  29.312   2.306
92997W        W61402  37.172   1.354  10.624
92998W        W61403  18.294  26.698  11.360
92999W        W61404   3.637   7.134  11.631
93000W        W61405  43.819  40.391   1.722
93001W        W61406  40.245  35.468   3.767
93002W        W61407   4.282   3.259  12.424
93003W        W61408  15.653  34.577   9.803
93004W        W61409  22.451   7.844  10.753
93005W        W61410  41.660  43.011  11.847
93006W        W61411  18.212  27.638  13.923
93007W        W61412  10.599   4.766  10.289
93008W        W61413  26.692  40.686   1.684
93009W        W61414  23.690  21.124  14.882
93010W        W61415  24.602   0.327  12.606
93011W        W61416  41.567  21.026  13.504
93012W        W61417  14.602  17.343   3.263
93013W        W61418  44.472  10.752   1.396
93014W        W61419   0.962   1.527   4.740
93015W        W61420  10.790  28.235  10.214
93016W        W61421  32.640   0.219  13.002
93017W        W61422  29.530  21.043  14.952
93018W        W61423  39.750   2.250   4.098
93019W        W61424  33.083  44.540  12.692
93020W        W61425   6.775  17.827   0.293
93021W        W61426   7.390  40.747  11.536
93022W        W61427   8.643  22.057  11.167
93023W        W61428  43.978  36.458   3.045
93024W        W61429  12.083  10.664  11.650
93025W        W61430  25.063  21.958   2.666
93026W        W61431  33.919  14.763  12.496
93027W        W61432   6.261  37.022   1.961
93028W        W61433  24.418  23.754  11.155
93029W        W61434  20.733  25.742   0.885
93030W        W61435  27.217  41.936   2.252
93031W        W61436  11.312  30.123  14.970
93032W        W61437  39.904   2.271   0.472
93033W        W61438   2.845  10.075  13.301
93034W        W61439   0.740  14.010   1.374
93035W        W61440  33.539   3.505   3.288
93036W        W61441  13.058  13.583   5.017
93037W        W61442  22.679  12.601   4.585
93038W        W61443   3.414  38.982   1.946
93039W        W61444  40.991  23.484  11.199
93040W        W61445   0.484   8.863  11.563
93041W        W61446  17.274  32.605  14.222
93042W        W61447  42.368   2.925  10.710
93043W        W61448  40.294   2.288   0.079
93044W        W61449  11.852  35.320  10.157
93045W        W61450  17.975  34.643  10.365
93046W        W61451   9.474  43.570  13.351
93047W        W61452  41.169  33.488  10.881
93048W        W61453  29.178  31.073   4.444
93049W        W61454  14.988  43.447  13.204
93050W        W61455  34.853   3.298   2.264
93051W        W61456  27.704  24.657   3.924
93052W        W61457   1.503  40.098   3.033
93053W        W61458  27.008  33.872   4.164
93054W        W61459  38.312   5.926   1.760
93055W        W61460  26.465  32.663   3.285
93056W        W61461  29.216  26.971   2.195
93057W        W61462  19.573  43.709  12.884
93058W        W61463  31.610  11.662  12.911
93059W        W61464   1.249  36.413   4.875
93060W        W61465  35.449  39.975   4.375
93061W        W61466  42.944  20.053   4.678
93062W        W61467  38.004  38.409   2.120
93063W        W61468   4.952  20.783   2.176
93064W        W61469  37.525  39.672  12.671
93065W        W61470  44.806  16.776  12.906
93066W        W61471  44.714   3.784   2.802
93067W        W61472   2.704  28.114   2.226
93068W        W61473  12.420  17.180  11.529
93069W        W61474  36.435  30.030   1.472
93070W        W61475  17.224   4.453  14.929
93071W        W61476   3.493  14.682  12.246
93072W        W61477  10.334  12.971   2.674
93073W        W61478  26.225  27.549  13.321
93074W        W61479  27.908  42.479  12.605
93075W        W61480  34.375   8.314  10.825
93076W        W61481   9.418   0.751  10.591
93077W        W61482  15.844  35.980   0.458
93078W        W61483  18.195  43.071  14.337
93079W        W61484  14.358   2.999   4.825
93080W        W61485  20.700  23.869   0.335
93081W        W61486  42.014  26.524   3.541
93082W        W61487  27.104   2.521   4.076
93083W        W61488  34.919   6.647  13.504
93084W        W61489  11.271   3.425  11.211
93085W        W61490  37.067  34.459  12.536
93086W        W61491   1.776  20.116   3.155
93087W        W61492   5.942  35.367   4.638
93088W        W61493  29.116  39.752  13.644
93089W        W61494  22.051  43.766  10.733
93090W        W61495   6.694  28.599  10.999
93091W        W61496  36.314  44.518   1.481
93092W        W61497  36.972  15.555   1.810
93093W        W61498  42.341  18.336   4.242
93094W        W61499  18.509  22.775   0.354
93095W        W61500   5.779  41.662   4.249
93096W        W61501  36.613  23.199   1.042
93097W        W61502  28.691  16.320  14.328
93098W        W61503  28.577   8.639  11.902
93099W        W61504  40.462   7.185   1.507
93100W        W61505  11.734   4.010  10.087
93101W        W61506  32.905  24.922   0.744
93102W        W61507  17.583  22.992   1.823
93103W        W61508  36.226  37.670  14.801
93104W        W61509  25.444  38.055   3.224
93105W        W61510  32.907   5.121   4.115
93106W        W61511  15.137  33.668  12.341
93107W        W61512  14.244  30.620   1.351
93108W        W61513  44.357   6.644  12.340
93109W        W61514  39.742  43.466  14.906
93110W        W61515  13.288  42.744   4.685
93111W        W61516  44.457  36.695  10.831
93112W        W61517  17.845  34.920  12.439
93113W        W61518  17.801  28.041   3.606
93114W        W61519  16.857  38.575   4.600
93115W        W61520  27.474  43.419  12.562
93116W        W61521  17.746   1.285  10.685
93117W        W61522  35.248  36.957   1.897
93118W        W61523  32.514  31.021  11.641
93119W        W61524  33.012  25.449  13.769
93120W        W61525  31.668  29.984  11.348
93121W        W61526  22.475   4.721   3.601
93122W        W61527  44.049  43.599   2.083
93123W        W61528  26.438  31.583  13.965
93124W        W61529  18.107  15.416   4.183
93125W        W61530  26.043  19.187   3.269
93126W        W61531  38.929   0.568   2.227
93127W        W61532  32.024   2.370   1.948
93128W        W61533   0.077  36.984   4.411
93129W        W61534  36.513  21.679   4.620
93130W        W61535  32.909  43.288  12.902
93131W        W61536  29.081   1.193  13.966
93132W        W61537  28.602  16.658  14.738
93133W        W61538  32.541  24.004  13.395
93134W        W61539  23.491  32.465   2.608
93135W        W61540  16.729  18.288   3.093
93136W        W61541  37.869  39.850   0.873
93137W        W61542   1.750   4.683   0.911
93138W        W61543  16.776  18.047  11.118
93139W        W61544  11.661  27.562  13.079
93140W        W61545  38.040  19.678   4.408
93141W        W61546  29.145  22.321  13.554
93142W        W61547   7.122  17.051   2.688
93143W        W61548  40.872  43.316  11.245
93144W        W61549  17.799  30.956   3.725
93145W        W61550  19.858  29.529   0.480
93146W        W61551  43.612   8.051  13.951
93147W        W61552  22.372  23.483  14.349
93148W        W61553   3.861  31.616   3.187
93149W        W61554  27.500  24.712  13.473
93150W        W61555  44.958  14.274  11.557
93151W        W61556   4.328  36.552  14.531
93152W        W61557   8.593   0.314  13.717
93153W        W61558   2.388   0.377   2.711
93154W        W61559  38.999  41.110   4.275
93155W        W61560   8.659  19.774   3.031
93156W        W61561  18.744  34.011   2.770
93157W        W61562  14.640  28.343  13.455
93158W        W61563  34.950   2.462  11.552
93159W        W61564   1.002   2.137  11.225
93160W        W61565  21.562  39.926  14.843
93161W        W61566  29.161  26.935   3.142
93162W        W61567  32.598  17.101   2.362
93163W        W61568  22.750  40.182   1.428
93164W        W61569  43.090  32.349  13.007
93165W        W61570  31.977  24.626   0.414
93166W        W61571  42.835  19.142  14.213
93167W        W61572  32.678  25.692  11.201
93168W        W61573   4.359  12.311  11.132
93169W        W61574  34.032  25.560  11.389
93170W        W61575   4.952   4.379  10.580
93171W        W61576  22.644  19.087  14.743
93172W        W61577  20.713   9.667   3.163
93173W        W61578  26.078  30.907   4.086
93174W        W61579   8.781  40.404   1.220
93175W        W61580  25.278  16.284  11.998
93176W        W61581  18.753  11.947  14.783
93177W        W61582   2.834  22.152  12.040
93178W        W61583  12.290  33.999   2.188
93179W        W61584  15.126  18.314  12.644
93180W        W61585  11.285   1.743   1.014
93181W        W61586  40.314  10.863  12.348
93182W        W61587  28.110  34.409   0.452
93183W        W61588  26.186  20.479  10.708
93184W        W61589  41.890  41.382  14.907
93185W        W61590  41.929  37.512  12.959
93186W        W61591   7.661  23.005   5.066
93187W        W61592   9.707  15.269  12.624
93188W        W61593   4.323  25.569   0.373
93189W        W61594  21.833  34.912   0.697
93190W        W61595  33.510  15.396  14.577
93191W        W61596  40.353  35.143   0.933
93192W        W61597  18.251  31.632   0.898
93193W        W61598   9.271  36.697   0.947
93194W        W61599   7.859  35.627  14.324
93195W        W61600  41.512  43.071   0.115
93196W        W61601  13.822  10.474   1.795
93197W        W61602  32.767  39.958   3.125
93198W        W61603  21.102  28.423   4.107
93199W        W61604  40.903  11.556   0.588
93200W        W61605  38.425  14.697  11.608
93201W        W61606  30.169  22.485   0.930
93202W        W61607  33.529  40.326  13.406
93203W        W61608  19.670  36.794   4.746
93204W        W61609  31.362  19.566  11.073
93205W        W61610  36.025   8.048   4.347
93206W        W61611  33.504  28.066   0.158
93207W        W61612  43.971  42.998  11.556
93208W        W61613  35.966  20.554  12.055
93209W        W61614   1.491  43.195   1.860
93210W        W61615  13.349  42.314   2.381
93211W        W61616  36.930  23.157   4.172
93212W        W61617  30.914   7.047   2.737
93213W        W61618   6.111  20.023  11.524
93214W        W61619  41.185  18.094  10.712
93215W        W61620  27.265  33.057   2.692
93216W        W61621  13.793  34.355   3.703
93217W        W61622  41.114   7.439   0.396
93218W        W61623  29.431  42.223   4.177
93219W        W61624  31.593   2.923  12.529
93220W        W61625  25.551   3.810  11.078
93221W        W61626  20.576   1.007   0.220
93222W        W61627  30.375  24.647  13.456
93223W        W61628   2.248  13.301  10.579
93224W        W61629  22.141  20.691  13.295
93225W        W61630  10.736  38.128  10.964
93226W        W61631  30.368   7.828  14.491
93227W        W61632  13.531  34.646  12.214
93228W        W61633  20.534  18.687   1.267
93229W        W61634  38.575  22.234   2.214
93230W        W61635   4.918  37.390   4.583
93231W        W61636  22.915  12.714   1.787
93232W        W61637  17.857  37.493   4.581
93233W        W61638  17.289  10.300  12.567
93234W        W61639  10.129  31.544   0.773
93235W        W61640  12.235  34.401  12.888
93236W        W61641  16.895   5.644   4.735
93237W        W61642  19.197  35.648  13.318
93238W        W61643  31.577  19.527   0.981
93239W        W61644  16.120  19.175   2.338
93240W        W61645  35.400  22.663   0.327
93241W        W61646  40.868  32.309   2.934
93242W        W61647  29.982  22.497   3.733
93243W        W61648  22.297   0.997   0.819
93244W        W61649  40.723   1.874  13.396
93245W        W61650   7.630   1.961   2.162
93246W        W61651  24.434  29.600   2.406
93247W        W61652  19.521   2.416  11.024
93248W        W61653  24.123  22.189   1.355
93249W        W61654  18.553  27.509  13.570
93250W        W61655  18.443  28.703   1.787
93251W        W61656  22.271  42.893   0.035
93252W        W61657  24.712  18.570  13.380
93253W        W61658  35.829  38.025   1.784
93254W        W61659   6.962  14.741  12.963
93255W        W61660   6.175  16.673  13.428
93256W        W61661  21.096  13.153   4.172
93257W        W61662   9.313  15.648  10.645
93258W        W61663  28.944  34.934   0.853
93259W        W61664   3.457  39.253   3.731
93260W        W61665   8.231   5.815   4.589
93261W        W61666  41.502  16.622  12.787
93262W        W61667  37.885  15.716   2.935
93263W        W61668   0.984  29.709   4.177
93264W        W61669  12.118  43.302  13.448
93265W        W61670  16.770  42.271   3.514
93266W        W61671  40.028  11.598  12.971
93267W        W61672  10.337  39.090  11.097
93268W        W61673   9.199  26.233   4.185
93269W        W61674  31.507   9.383   1.600
93270W        W61675  39.353  26.146  14.529
93271W        W61676  44.856  24.864  13.597
93272W        W61677   1.840  25.211   3.131
93273W        W61678   6.753  30.068   2.135
93274W        W61679   3.882   0.928  14.235
93275W        W61680  22.221  39.463  12.466
93276W        W61681   2.957   8.377   2.295
93277W        W61682  15.903  34.572   1.669
93278W        W61683  23.526  33.048  14.614
93279W        W61684  41.274  35.773   0.718
93280W        W61685  16.853  14.717  14.756
93281W        W61686  36.289  14.923   5.035
93282W        W61687  34.616  15.659   3.355
93283W        W61688  33.163  19.324  12.608
93284W        W61689  32.775  43.254   2.688
93285W        W61690  37.520  18.060   3.248
93286W        W61691  26.139  12.803  13.483
93287W        W61692  33.007  20.083   2.759
93288W        W61693   1.937  31.508   0.927
93289W        W61694  35.942  22.226  12.367
93290W        W61695  21.550  34.709  14.350
93291W        W61696  20.638   6.827  13.413
93292W        W61697  22.135  41.252  10.975
93293W        W61698   1.451   2.419  11.155
93294W        W61699  34.079   7.880  14.271
93295W        W61700   7.299   9.899  12.267
93296W        W61701  32.358  24.331   0.245
93297W        W61702  43.895  17.128  10.689
93298W        W61703  34.136  38.613  11.086
93299W        W61704  14.757   3.310   4.145
93300W        W61705  23.829  11.311  11.946
93301W        W61706  32.437  10.797   3.752
93302W        W61707  24.612   9.114  12.093
93303W        W61708  34.314  19.289  10.654
93304W        W61709  43.815  15.083   4.335
93305W        W61710  27.591   4.819  12.545
93306W        W61711  43.149  29.024   1.342
93307W        W61712   9.937   7.412   2.791
93308W        W61713   2.825  10.607   3.534
93309W        W61714   6.846  29.928  10.342
93310W        W61715  21.603   0.203   4.136
93311W        W61716  41.775  15.379  14.705
93312W        W61717  25.994  20.554  13.911
93313W        W61718  31.888   3.962   2.825
93314W        W61719  16.355  32.525  11.888
93315W        W61720  35.898   3.205  10.279
93316W        W61721  30.042   8.832   0.792
93317W        W61722  18.071  23.320   3.836
93318W        W61723  23.946  39.735  11.567
93319W        W61724  10.200  23.475  14.407
93320W        W61725  24.047  10.095   1.310
93321W        W61726  14.564  14.620  10.641
93322W        W61727   9.789  11.764  10.893
93323W        W61728   5.709   6.873  13.557
93324W        W61729  25.631  28.859  12.876
93325W        W61730   1.691   2.286   3.090
93326W        W61731  44.046  38.192  13.233
93327W        W61732  25.310  27.061  13.091
93328W        W61733  23.099  35.062  13.549
93329W        W61734  29.922  11.833  12.736
93330W        W61735  18.739  20.982   3.653
93331W        W61736   2.787  23.247  12.102
93332W        W61737   6.398   4.734  14.448
93333W        W61738  19.743   1.439  10.650
93334W        W61739   5.392  17.475   1.653
93335W        W61740  23.523   0.261  14.456
93336W        W61741   2.418   1.525  12.360
93337W        W61742  37.783  23.233   5.035
93338W        W61743  18.170  24.715  10.790
93339W        W61744  44.246  42.940  12.909
93340W        W61745  26.080   5.822  13.965
93341W        W61746  38.309  27.966   0.007
93342W        W61747   5.999  29.342  12.552
93343W        W61748   7.252  22.486   1.186
93344W        W61749   7.023  35.887   1.705
93345W        W61750  18.656  11.220  14.298
93346W        W61751   3.451   8.874  11.171
93347W        W61752  39.608  28.464  11.887
93348W        W61753  36.316  40.871   3.726
93349W        W61754  16.092   1.782  10.168
93350W        W61755  17.285  37.426   2.795
93351W        W61756  41.159  11.197   0.853
93352W        W61757  15.850  32.355   4.121
93353W        W61758   5.062   0.235  10.173
93354W        W61759  23.728  39.846  13.436
93355W        W61760  36.293  32.170  11.883
93356W        W61761   2.788   3.322   0.232
93357W        W61762  19.343  26.978  11.922
93358W        W61763   7.287  41.010   0.682
93359W        W61764   9.733  40.366  14.344
93360W        W61765  21.806  22.356   0.939
93361W        W61766  14.633  29.116   2.888
93362W        W61767  41.920   6.001  13.557
93363W        W61768  21.731  29.608   0.858
93364W        W61769   7.244  34.039  13.599
93365W        W61770  25.639  32.336   3.410
93366W        W61771  22.322  38.018  11.549
93367W        W61772  41.540  10.351   1.353
93368W        W61773  10.280  14.857   2.664
93369W        W61774  14.013  25.921   2.775
93370W        W61775   1.883   3.431   4.609
93371W        W61776   2.312   7.962   1.948
93372W        W61777  26.055  29.178   3.209
93373W        W61778  16.207  40.690   2.249
93374W        W61779  27.467  33.510   2.883
93375W        W61780  10.757  31.881   2.913
93376W        W61781  42.927  28.145   4.535
93377W        W61782  19.648   2.050  14.950
93378W        W61783  26.020   4.988   1.023
93379W        W61784  17.716  36.903   0.300
93380W        W61785  27.038  32.341   2.219
93381W        W61786  12.586  22.678   4.141
93382W        W61787  26.965   6.340   1.639
93383W        W61788  33.279  13.196  14.794
93384W        W61789  13.636  43.466  12.458
93385W        W61790   3.334  40.278   0.297
93386W        W61791  28.842  12.405   2.604
93387W        W61792  24.169  11.097  12.911
93388W        W61793  38.382  29.611  14.507
93389W        W61794  29.604  36.566  14.371
93390W        W61795  23.914  17.032  13.215
93391W        W61796  15.617  27.802  10.312
93392W        W61797  17.733   0.278  12.892
93393W        W61798  25.260   2.383   1.186
93394W        W61799  28.437  11.087  14.012
93395W        W61800   6.929  31.048   2.532
93396W        W61801   6.745  10.396   1.460
93397W        W61802   4.345   3.962   1.831
93398W        W61803  22.012   0.327   0.430
93399W        W61804  25.104  22.661  13.565
93400W        W61805   5.884  23.597   3.720
93401W        W61806  21.098  41.568   2.730
93402W        W61807  22.670  21.653   2.591
93403W        W61808  34.944  38.924   1.903
93404W        W61809  25.229   3.063   4.186
93405W        W61810  43.356   6.755  10.764
93406W        W61811  23.353  30.908   0.836
93407W        W61812   9.194  25.557  14.454
93408W        W61813  17.596  35.027   0.674
93409W        W61814  35.491  14.631   0.202
93410W        W61815   7.530  14.226   0.671
93411W        W61816  35.217  13.487  13.847
93412W        W61817   0.063  30.094  11.131
93413W        W61818  17.422  40.269   2.976
93414W        W61819  32.382  23.596   3.590
93415W        W61820  30.940  28.462  11.596
93416W        W61821  21.005   5.027   1.487
93417W        W61822  13.043  14.550  14.107
93418W        W61823   0.534  21.718  12.427
93419W        W61824   9.323  29.734  11.760
93420W        W61825   5.694  32.904   2.631
93421W        W61826  12.701  11.952  12.632
93422W        W61827  27.683   4.316  13.312
93423W        W61828  18.132  38.465   3.263
93424W        W61829  40.182   9.761  14.501
93425W        W61830   8.908  32.393   1.262
93426W        W61831  44.527  29.561   4.213
93427W        W61832  43.472  37.397   3.800
93428W        W61833   9.646  15.368   4.514
93429W        W61834   6.510  30.069  12.868
93430W        W61835   2.315  12.812   3.347
93431W        W61836  26.493  10.924  12.583
93432W        W61837  14.745  32.628   1.366
93433W        W61838  20.320  25.571   4.164
93434W        W61839  31.148  31.234  13.939
93435W        W61840  24.471  12.122  13.709
93436W        W61841  41.914   1.271   0.388
93437W        W61842  31.494  22.459   0.128
93438W        W61843   2.844  28.901  11.986
93439W        W61844  31.307  37.777  11.763
93440W        W61845  16.744  32.472   1.867
93441W        W61846   6.655  20.622   4.561
93442W        W61847  31.629  25.277  12.994
93443W        W61848  24.163  40.966  14.081
93444W        W61849  26.135  16.956   5.380
93445W        W61850  15.675  12.111   2.666
93446W        W61851   9.693  13.949   2.358
93447W        W61852  33.600  11.274   4.917
93448W        W61853  18.973   9.094   0.752
93449W        W61854  19.023  27.976   2.250
93450W        W61855  36.828  32.639  11.085
93451W        W61856  42.430  42.800   2.216
93452W        W61857  27.121   9.906   4.193
93453W        W61858  28.131   0.650  12.726
93454W        W61859   3.200  11.306   3.311
93455W        W61860  33.966   4.716  13.331
93456W        W61861   4.897  10.094   2.596
93457W        W61862  36.208  24.027   5.227
93458W        W61863   2.224  12.619   2.289
93459W        W61864  19.433  41.345   4.041
93460W        W61865  30.242  17.905   4.259
93461W        W61866   3.433  10.134  14.047
93462W        W61867  26.718  43.262   3.214
93463W        W61868  41.410  32.353   0.971
93464W        W61869  30.754  43.848   1.621
93465W        W61870  12.123  42.833  12.632
93466W        W61871  14.180  42.780   2.697
93467W        W61872  11.258  35.861  14.395
93468W        W61873  12.826  42.190  13.811
93469W        W61874  22.697   5.136   1.774
93470W        W61875  36.873  41.473  13.858
93471W        W61876  24.098   0.409  13.591
93472W        W61877  22.797  29.475  10.764
93473W        W61878   9.136   7.733   3.786
93474W        W61879  38.766  29.933  14.332
93475W        W61880  33.848   1.170  11.327
93476W        W61881   4.561   3.108   4.697
93477W        W61882  33.950   5.958   2.675
93478W        W61883  36.623   5.159  10.095
93479W        W61884   4.469  32.899   2.240
93480W        W61885  11.715  30.677   4.564
93481W        W61886  37.646  34.513  14.760
93482W        W61887  39.398  10.042   2.162
93483W        W61888  28.606   9.617   2.590
93484W        W61889  19.998  19.804   5.074
93485W        W61890  23.271   3.983  11.399
93486W        W61891  30.182  23.122  12.284
93487W        W61892  44.873  17.297   3.122
93488W        W61893  11.649   2.236  10.950
93489W        W61894  15.004  28.046  10.911
93490W        W61895   5.524   5.636   4.163
93491W        W61896  16.779  26.410   1.232
93492W        W61897  20.088   4.282  11.206
93493W        W61898   1.514  17.884  14.742
93494W        W61899   1.714   8.658   2.628
93495W        W61900  44.272  17.776  13.741
93496W        W61901  30.547  19.832  11.395
93497W        W61902  22.030  32.299  14.060
93498W        W61903  28.667  15.772   2.423
93499W        W61904  23.157   8.355   3.895
93500W        W61905  21.997  39.883   0.778
93501W        W61906  11.643  28.642  12.996
93502W        W61907   2.755   3.702   2.621
93503W        W61908  38.249  11.219   2.294
93504W        W61909  27.237  41.427  11.209
93505W        W61910  11.135  20.976   4.544
93506W        W61911  30.610   9.314   1.838
93507W        W61912  43.809  36.152   0.833
93508W        W61913  16.292   1.732  13.601
93509W        W61914  27.730  21.297  14.405
93510W        W61915  38.095  34.576   1.492
93511W        W61916  43.506  23.737  11.647
93512W        W61917  26.872  28.108   1.860
93513W        W61918  21.149  11.730   3.209
93514W        W61919  24.378  28.704   4.035
93515W        W61920  12.859  11.772   3.731
93516W        W61921  44.093  22.215   4.694
93517W        W61922  39.219  21.036  13.749
93518W        W61923   4.775   7.064   1.372
93519W        W61924   0.731  11.740   0.588
93520W        W61925  16.900  39.912  12.876
93521W        W61926  10.446  30.375  13.868
93522W        W61927   6.668  38.806   1.261
93523W        W61928  23.251  29.643   4.092
93524W        W61929   3.857   3.729  14.405
93525W        W61930  41.681  32.503   4.186
93526W        W61931  12.241  20.807  10.952
93527W        W61932   1.740  29.650  10.804
93528W        W61933  34.938   6.725   0.506
93529W        W61934  20.774  16.705  10.971
93530W        W61935   1.327  10.294   4.608
93531W        W61936  29.945  36.066  10.603
93532W        W61937  15.616  37.675  10.675
93533W        W61938  32.325  35.955   4.531
93534W        W61939  22.176  28.470  13.420
93535W        W61940  14.201  18.764   0.822
93536W        W61941  22.453  20.740  11.641
93537W        W61942  19.515  38.218   3.660
93538W        W61943  10.453   1.650  13.819
93539W        W61944  14.272   7.585   0.478
93540W        W61945  13.247   2.449   2.202
93541W        W61946  26.961  39.546  14.417
93542W        W61947  23.458  21.549   2.284
93543W        W61948  42.375  21.654  11.117
93544W        W61949  37.246  41.355   0.708
93545W        W61950  30.688  38.451  10.306
93546W        W61951  31.122  17.550  13.541
93547W        W61952  36.501  43.508   2.579
93548W        W61953  27.837  29.378  11.434
93549W        W61954   4.947  31.337  12.905
93550W        W61955  31.434   4.029  12.472
93551W        W61956   6.190  13.307  14.396
93552W        W61957  42.802  10.920  11.339
93553W        W61958  36.090  36.680  12.196
93554W        W61959   8.473   2.227   3.215
93555W        W61960   2.783   0.707   0.237
93556W        W61961  26.423  37.797  14.398
93557W        W61962  33.168  18.752   2.277
93558W        W61963  19.710  13.448  10.998
93559W        W61964   9.140  38.316   3.871
93560W        W61965  39.439  44.766  13.845
93561W        W61966  12.773  20.729   3.766
93562W        W61967  17.194  36.057  13.920
93563W        W61968  21.135  40.454  10.599
93564W        W61969  20.255  24.853  12.532
93565W        W61970  20.236  35.541  14.822
93566W        W61971  21.823  14.231   3.673
93567W        W61972  21.321   0.823  11.129
93568W        W61973  13.996  16.726   2.155
93569W        W61974  18.418  26.075  14.323
93570W        W61975  22.645  16.168   3.613
93571W        W61976   3.469  35.085  12.951
93572W        W61977  11.933  12.661   1.663
93573W        W61978  43.503  21.531   2.189
93574W        W61979  24.186  36.492  11.957
93575W        W61980  28.064  30.880  13.994
93576W        W61981  43.478  17.346  11.544
93577W        W61982   5.816  40.720   0.214
93578W        W61983  25.728  39.795  12.864
93579W        W61984   5.912   7.827   4.185
93580W        W61985  40.037   3.234  13.410
93581W        W61986  19.745  25.777  13.123
93582W        W61987  35.504  31.639  10.807
93583W        W61988  11.836   4.867   3.045
93584W        W61989  28.495  32.005  14.439
93585W        W61990   8.130  40.027  14.059
93586W        W61991  31.382  39.269  14.172
93587W        W61992  40.973  13.252  13.366
93588W        W61993  15.192  34.314  14.075
93589W        W61994  33.549  27.120   2.708
93590W        W61995  23.206  21.075  12.129
93591W        W61996  43.364  13.769   2.707
93592W        W61997  28.575   7.595  14.229
93593W        W61998  16.757   7.857   2.314
93594W        W61999  37.730  20.320  12.057
93595W        W62000  43.483  22.683  14.059
93596W        W62001  21.153  33.880  14.345
93597W        W62002  12.557  19.988   4.074
93598W        W62003  13.833  44.060  11.132
93599W        W62004   0.888  38.047   2.373
93600W        W62005  19.712  23.962  12.571
93601W        W62006   2.180  38.401  14.346
93602W        W62007  22.795   2.907   2.650
93603W        W62008   3.321  12.592  11.625
93604W        W62009  27.211   9.331  14.942
93605W        W62010   1.213  10.018   2.908
93606W        W62011  37.774   3.546   4.035
93607W        W62012  32.597   0.255  13.843
93608W        W62013  21.541   5.868  11.026
93609W        W62014   7.866  38.049   0.142
93610W        W62015  41.971  36.507  12.093
93611W        W62016  10.278  13.310   4.328
93612W        W62017  35.816  18.565   4.534
93613W        W62018  19.186  41.699   2.166
93614W        W62019  31.498  23.562   1.724
93615W        W62020  18.791   6.192   0.960
93616W        W62021  18.905  40.987  10.263
93617W        W62022  24.225  31.942  14.879
93618W        W62023  44.415  38.456  10.176
93619W        W62024  34.383   8.839  12.466
93620W        W62025   7.748  32.135   1.734
93621W        W62026   9.705  13.772   1.798
93622W        W62027  33.619  15.412   3.185
93623W        W62028   3.451  32.439   1.707
93624W        W62029  31.066   5.849   3.256
93625W        W62030   4.435  11.873  13.410
93626W        W62031  41.401  12.475  12.530
93627W        W62032  21.411  12.046   1.831
93628W        W62033   9.990  38.648  13.612
93629W        W62034  38.070   6.926  14.702
93630W        W62035  10.316  10.422   1.239
93631W        W62036   9.969  39.077  12.583
93632W        W62037  27.995  27.477  11.137
93633W        W62038  26.995   3.773   1.263
93634W        W62039  13.692  23.203   1.781
93635W        W62040  32.218  28.300  13.411
93636W        W62041  25.228  20.560   1.961
93637W        W62042  29.199  29.423  11.136
93638W        W62043  20.909  22.924  13.484
93639W        W62044   4.230  20.735   3.279
93640W        W62045   7.386   9.087   2.333
93641W        W62046  38.455  19.407   2.670
93642W        W62047  37.884   2.606  14.338
93643W        W62048  36.886  21.739  13.907
93644W        W62049  41.155  39.432  11.648
93645W        W62050   5.216  28.566  14.688
93646W        W62051   3.264  11.405  12.603
93647W        W62052  21.189  24.811   0.792
93648W        W62053  26.087  23.093  12.929
93649W        W62054  39.086  28.577  13.550
93650W        W62055  22.622  30.179  11.380
93651W        W62056  40.731  25.122   1.034
93652W        W62057  17.329   8.658  13.902
93653W        W62058  23.999  13.822   2.794
93654W        W62059  16.300  20.089   4.089
93655W        W62060  19.605  10.145   2.763
93656W        W62061   1.927  30.091  11.037
93657W        W62062  24.641  15.742  14.296
93658W        W62063  18.526  22.700  14.486
93659W        W62064  38.928  26.929  13.045
93660W        W62065  22.310  27.521   3.797
93661W        W62066  10.485  26.437  11.590
93662W        W62067  32.906  12.019  11.645
93663W        W62068  38.895  39.165  12.495
93664W        W62069   1.960  40.036   4.315
93665W        W62070  24.719  20.200   0.229
93666W        W62071  16.938  40.560  13.889
93667W        W62072   0.757  14.768   2.387
93668W        W62073  43.474  41.266   4.112
93669W        W62074  21.253  21.601   3.359
93670W        W62075  29.885  11.011   1.425
93671W        W62076   5.475  30.430   3.370
93672W        W62077  39.517   0.312   4.107
93673W        W62078  25.670  21.225   2.331
93674W        W62079   3.432  34.410  13.730
93675W        W62080  35.819  42.904  14.960
93676W        W62081  34.435  33.302   0.233
93677W        W62082   6.051   9.251  14.496
93678W        W62083   1.308  25.552   4.336
93679W        W62084  22.513  41.936   0.334
93680W        W62085  14.185   6.632  11.236
93681W        W62086  41.606   2.225  11.210
93682W        W62087  32.411  36.042  12.017
93683W        W62088  28.139  44.168  12.270
93684W        W62089  40.402  13.110   3.901
93685W        W62090   2.919  18.170   4.815
93686W        W62091   4.266  39.930   2.027
93687W        W62092  44.519   0.071  12.602
93688W        W62093  13.049   3.069   9.666
93689W        W62094   2.769  35.536  10.540
93690W        W62095  28.461  38.010   1.677
93691W        W62096  17.719  41.796  13.346
93692W        W62097  26.101  24.236  14.329
93693W        W62098  28.551  37.890  11.926
93694W        W62099  25.932  36.605  13.691
93695W        W62100  29.504  29.119  10.775
93696W        W62101   9.851   5.841   3.846
93697W        W62102  30.969   8.252   0.875
93698W        W62103   9.456  38.312   3.446
93699W        W62104  26.095  12.288  10.359
93700W        W62105   6.537  37.467   0.362
93701W        W62106  20.441  37.990  13.454
93702W        W62107  26.266   2.426   4.894
93703W        W62108  16.272  15.304   2.746
93704W        W62109  26.646  20.576   1.858
93705W        W62110  40.935   2.553  13.930
93706W        W62111  21.943   7.702  10.848
93707W        W62112   8.700  25.049   2.170
93708W        W62113  31.539  41.512   2.741
93709W        W62114   1.768  36.996   2.168
93710W        W62115  27.780  26.880   3.696
93711W        W62116  23.619  32.962   4.273
93712W        W62117  22.062  16.660  11.629
93713W        W62118   1.811  23.793  11.067
93714W        W62119  30.610  44.064  12.700
93715W        W62120  25.967  32.483  13.642
93716W        W62121  33.312  20.007  13.327
93717W        W62122  28.389  28.450  13.819
93718W        W62123  15.997  24.671   1.818
93719W        W62124  13.256  35.997  13.943
93720W        W62125   9.808  23.592   0.556
93721W        W62126  20.251  32.073  14.682
93722W        W62127  23.761  27.514  11.108
93723W        W62128  26.828  32.386  10.622
93724W        W62129  42.364  10.591   0.808
93725W        W62130  42.930  33.482  10.618
93726W        W62131   2.718   5.681  11.928
93727W        W62132  30.391  20.697   2.168
93728W        W62133  22.726  33.633   3.712
93729W        W62134  10.421   2.861   0.314
93730W        W62135  25.623   3.693  10.538
93731W        W62136   9.981  15.260   1.579
93732W        W62137  32.563  44.823   1.327
93733W        W62138  42.820  26.836   4.113
93734W        W62139   5.943  31.532   3.366
93735W        W62140  37.498  28.292  10.742
93736W        W62141  41.282  23.018  11.111
93737W        W62142  21.734   6.414   0.359
93738W        W62143  29.001  13.356  12.978
93739W        W62144  41.542  28.446   1.360
93740W        W62145  30.512  39.501   2.041
93741W        W62146   7.778  27.199  14.841
93742W        W62147  35.713  26.488  13.090
93743W        W62148  12.620  44.221   1.741
93744W        W62149  23.759  15.266  13.107
93745W        W62150  33.584  33.085   0.962
93746W        W62151  35.979  13.180   1.018
93747W        W62152  21.209  24.615  10.505
93748W        W62153   6.901   0.059   0.510
93749W        W62154  23.696  29.955  11.059
93750W        W62155  41.812  26.414   3.999
93751W        W62156   5.841  11.316  13.429
93752W        W62157  44.490  21.205  13.997
93753W        W62158  33.605   4.640  13.736
93754W        W62159  19.067  44.276  14.308
93755W        W62160  10.051  39.043  14.008
93756W        W62161  36.558  18.028  12.645
93757W        W62162  26.985   7.161  12.938
93758W        W62163  24.498  42.345   0.264
93759W        W62164  10.723  32.364  13.134
93760W        W62165  42.586  28.231  10.649
93761W        W62166   2.432  35.072  12.371
93762W        W62167  25.693   9.904   1.328
93763W        W62168  19.457   9.356   0.951
93764W        W62169  18.624  36.898  12.550
93765W        W62170  20.598  35.551   1.475
93766W        W62171  44.540  39.507  14.908
93767W        W62172  30.063  21.252  14.481
93768W        W62173  18.450  38.912   0.184
93769W        W62174  15.145  36.318   4.807
93770W        W62175   5.286   6.627  12.785
93771W        W62176  28.071  15.774  13.010
93772W        W62177  13.136  21.984   0.350
93773W        W62178   6.662   4.673   4.292
93774W        W62179  21.003  19.085   2.755
93775W        W62180   5.945   2.963   4.458
93776W        W62181  42.945  39.640  13.940
93777W        W62182   5.213  14.990   2.798
93778W        W62183  34.056  16.220  14.919
93779W        W62184  27.922  20.083  13.734
93780W        W62185  27.943  37.430  11.491
93781W        W62186  27.876  12.609   4.538
93782W        W62187  32.983   1.811  12.646
93783W        W62188  17.274  24.529   5.041
93784W        W62189  42.527  22.009   2.285
93785W        W62190  29.321  43.338  10.674
93786W        W62191  28.159  14.153   3.112
93787W        W62192   6.721  19.617  12.101
93788W        W62193   0.236  14.072   1.237
93789W        W62194  12.887  30.832   4.189
93790W        W62195  25.542   6.657   3.299
93791W        W62196  28.633  19.348  13.798
93792W        W62197   9.250  30.413   3.741
93793W        W62198  10.403  26.166  13.968
93794W        W62199   5.447  40.511  10.731
93795W        W62200  31.144  13.450   3.571
93796W        W62201  21.029  38.359   3.806
93797W        W62202  37.907  19.270   3.044
93798W        W62203   4.710  24.154   1.140
93799W        W62204  17.243  14.667  11.949
93800W        W62205  35.120  27.415   2.226
93801W        W62206  38.482  16.700   4.762
93802W        W62207  33.710  34.102   1.124
93803W        W62208   5.963  43.574   1.007
93804W        W62209  41.357  11.301  11.763
93805W        W62210  44.334   5.244   3.995
93806W        W62211   9.185  36.274  10.706
93807W        W62212  33.795  29.496   2.394
93808W        W62213  12.269   0.328   3.107
93809W        W62214  35.683   4.025   0.698
93810W        W62215   4.489  23.687   3.274
93811W        W62216  29.484  42.582   3.294
93812W        W62217  15.703   2.722  12.863
93813W        W62218  44.251   3.816   4.433
93814W        W62219   2.633  12.732  12.084
93815W        W62220   7.415  21.355   4.572
93816W        W62221  25.466  42.241  12.530
93817W        W62222   2.125  43.004   0.992
93818W        W62223  29.111   4.739  12.864
93819W        W62224   5.117   5.400   5.125
93820W        W62225  11.216  35.472  12.977
93821W        W62226   0.405  41.861   1.935
93822W        W62227  43.799  14.843   3.880
93823W        W62228  31.261  16.012  10.807
93824W        W62229   3.312  15.711  14.365
93825W        W62230  36.918  28.536   1.806
93826W        W62231  27.584  40.891   0.697
93827W        W62232  17.772  25.958   2.095
93828W        W62233  40.402  23.476  13.271
93829W        W62234  31.524  39.887   2.863
93830W        W62235  20.486  10.832  11.033
93831W        W62236   5.489  28.369   9.873
93832W        W62237  16.545  27.492  13.827
93833W        W62238  34.920  34.200  10.427
93834W        W62239  41.718   8.431   2.976
93835W        W62240  17.156  43.232   2.294
93836W        W62241  36.340  32.053  13.585
93837W        W62242  15.752  29.152  14.529
93838W        W62243  42.549  34.968   2.937
93839W        W62244  20.985  39.916   2.254
93840W        W62245  16.591   5.420  12.857
93841W        W62246  12.231  17.845   3.371
93842W        W62247   8.537  17.549   2.217
93843W        W62248  34.575  40.503   3.211
93844W        W62249  41.808  28.211   1.713
93845W        W62250  30.601  18.712  14.810
93846W        W62251   2.995   4.832  11.017
93847W        W62252  34.630  31.421  11.128
93848W        W62253   7.122  23.092   0.798
93849W        W62254   7.591  44.743  14.931
93850W        W62255   0.894  25.662  11.192
93851W        W62256  11.130  29.844  14.529
93852W        W62257   6.329  11.152  13.297
93853W        W62258  40.059  28.089   4.568
93854W        W62259  32.965  11.417  13.294
93855W        W62260  34.437  12.404  10.403
93856W        W62261  27.782  44.225  11.667
93857W        W62262   5.112  10.432   2.233
93858W        W62263   1.015   7.919   0.390
93859W        W62264  23.262   3.184  12.986
93860W        W62265  37.499   8.233   1.891
93861W        W62266   2.417  42.196  14.927
93862W        W62267  31.806  26.514   2.718
93863W        W62268  40.766  11.576   3.327
93864W        W62269   2.146  41.353   2.749
93865W        W62270  24.584   0.264   1.897
93866W        W62271  10.817  22.529   4.551
93867W        W62272   3.987  16.827  12.527
93868W        W62273   0.509  30.461   4.172
93869W        W62274  25.620   6.215  14.418
93870W        W62275  31.446  17.302   4.602
93871W        W62276  15.721  26.755  12.160
93872W        W62277  35.425   2.288   4.217
93873W        W62278  34.714  30.419   1.920
93874W        W62279  35.369  39.280  14.359
93875W        W62280  10.814   1.008   2.349
93876W        W62281  16.003   9.857  13.109
93877W        W62282   3.260  44.425  11.040
93878W        W62283   2.520   3.687  13.365
93879W        W62284  44.526   4.211   0.387
93880W        W62285  43.420  10.882   4.397
93881W        W62286  36.407  40.015  11.280
93882W        W62287  20.760  15.364  12.593
93883W        W62288  18.901   3.646   2.429
93884W        W62289  30.578  12.815  12.136
93885W        W62290   5.478  13.769  12.058
93886W        W62291  40.574   7.891   3.125
93887W        W62292  17.578  42.232  13.966
93888W        W62293   1.312  41.262   4.238
93889W        W62294  18.352  13.206   0.400
93890W        W62295  12.925   9.087  14.123
93891W        W62296  25.639  14.664  11.127
93892W        W62297  38.869  36.516   1.777
93893W        W62298  31.595  27.516  13.098
93894W        W62299   4.844  21.652  13.994
93895W        W62300  28.606  40.293  11.779
93896W        W62301  32.254   0.916   0.973
93897W        W62302  11.818  20.064  14.761
93898W        W62303   3.303  25.120  12.434
93899W        W62304  24.104  29.123  11.085
93900W        W62305  43.925  26.524  14.896
93901W        W62306  38.137  29.901  11.569
93902W        W62307  33.906  22.935   2.224
93903W        W62308  36.595  11.116  13.818
93904W        W62309  32.176  29.246  14.320
93905W        W62310   3.083  24.589  13.503
93906W        W62311  34.839  31.100  12.403
93907W        W62312  11.869  41.717   4.141
93908W        W62313  22.198  12.362  12.361
93909W        W62314  28.234  17.305  14.339
93910W        W62315  29.658   7.646   2.335
93911W        W62316   3.648  36.024  13.493
93912W        W62317  29.534  23.793   3.754
93913W        W62318  32.204  21.523   0.538
93914W        W62319   8.716   2.842   4.420
93915W        W62320   9.190   4.794   0.888
93916W        W62321  40.936  26.450  14.432
93917W        W62322   9.894   2.459  11.660
93918W        W62323  32.426  19.317  11.543
93919W        W62324   5.291  26.415  11.561
93920W        W62325  23.583  42.092   1.057
93921W        W62326  14.716  14.035  10.371
93922W        W62327  15.644   9.195  10.172
93923W        W62328  44.482   0.089   0.324
93924W        W62329  15.413  32.923   3.793
93925W        W62330  41.455  20.126  14.007
93926W        W62331  30.167  19.184  12.909
93927W        W62332   8.218   7.799  13.614
93928W        W62333  37.936  11.591  13.979
93929W        W62334  38.608  20.566  13.417
93930W        W62335  37.412  39.936  10.459
93931W        W62336   3.442  14.318   4.256
93932W        W62337  30.188  30.457   4.244
93933W        W62338  12.110  37.436  11.612
93934W        W62339  39.716  18.328   0.355
93935W        W62340  30.421   1.783  14.889
93936W        W62341  17.164  34.300   2.781
93937W        W62342  12.130  10.788   4.152
93938W        W62343  14.237   3.840   4.079
93939W        W62344   3.912   9.873   3.292
93940W        W62345  29.038  35.496   3.725
93941W        W62346  30.656  20.621   1.165
93942W        W62347   4.162  33.684  13.459
93943W        W62348  38.586  26.748   4.260
93944W        W62349  34.525  34.867  14.263
93945W        W62350  17.675  14.334   2.237
93946W        W62351  30.605   0.547  11.657
93947W        W62352  23.563  39.380  11.554
93948W        W62353  16.807  24.859  11.089
93949W        W62354  36.004  34.602  11.091
93950W        W62355   1.274   5.959  12.382
93951W        W62356  35.613  27.124  11.026
93952W        W62357   4.818  12.600   0.566
93953W        W62358  25.293  22.594  14.734
93954W        W62359  29.683   6.755  14.905
93955W        W62360  30.335  38.004  14.931
93956W        W62361  16.134  31.448   3.156
93957W        W62362   0.739  42.799   0.709
93958W        W62363   4.961   5.678  13.500
93959W        W62364  31.773  25.835  12.533
93960W        W62365  41.920  19.401  13.203
93961W        W62366  13.587  19.231  12.876
93962W        W62367   8.912  13.065   2.494
93963W        W62368   7.708  41.650   3.681
93964W        W62369  44.782  31.412   3.244
93965W        W62370  19.261  12.688   2.697
93966W        W62371  38.887  10.586   3.194
93967W        W62372  27.970   2.471   3.270
93968W        W62373  17.300   1.674   0.684
93969W        W62374  37.471  34.324  13.003
93970W        W62375  17.679  16.690   2.593
93971W        W62376   4.033  37.280   4.309
93972W        W62377  24.077   9.367   0.929
93973W        W62378  16.928  18.827  12.861
93974W        W62379  24.379   8.793   4.094
93975W        W62380  21.954   7.344   0.381
93976W        W62381   6.180  13.668   1.891
93977W        W62382  29.683  44.880   2.591
93978W        W62383  10.835  29.009  14.229
93979W        W62384  30.422  41.246   2.252
93980W        W62385  31.687  26.866   3.781
93981W        W62386  20.272  37.555   3.266
93982W        W62387   0.406  15.552   3.124
93983W        W62388   9.858  24.237   0.463
93984W        W62389  38.011   8.135  14.717
93985W        W62390  37.759  25.464   3.277
93986W        W62391  34.667  39.865  11.017
93987W        W62392  20.089  36.542   0.909
93988W        W62393  44.164  38.839   0.570
93989W        W62394  10.695   0.213   1.405
93990W        W62395  18.900  31.282  13.032
93991W        W62396  16.802   8.190  14.919
93992W        W62397  32.626  39.910   2.179
93993W        W62398   1.980  30.742   1.555
93994W        W62399  30.941   8.130   1.793
93995W        W62400  13.564  42.768   4.168
93996W        W62401  44.997  43.238   2.629
93997W        W62402  13.353  26.942  13.063
93998W        W62403  32.134  41.906  11.473
93999W        W62404  41.070  25.216  13.826
94000W        W62405   7.434   8.680  13.441
94001W        W62406  41.819  43.495   1.681
94002W        W62407  31.260   6.445   0.217
94003W        W62408  16.904   0.058   4.173
94004W        W62409  34.986  33.724  11.123
94005W        W62410  24.000  24.253  13.382
94006W        W62411   3.837   7.312   0.260
94007W        W62412  12.074  38.897  12.090
94008W        W62413   1.365  18.013   3.045
94009W        W62414  12.784  24.553   0.956
94010W        W62415   6.445  20.582   0.416
94011W        W62416  28.464  14.104  11.203
94012W        W62417  37.731  40.265  11.180
94013W        W62418  11.314  39.872   1.409
94014W        W62419  24.502   7.745  11.533
94015W        W62420  39.567  39.921   1.698
94016W        W62421  30.657  17.820   9.854
94017W        W62422  12.128  37.614  12.520
94018W        W62423  38.304  42.930  14.554
94019W        W62424  27.690   6.756   1.053
94020W        W62425  19.142  22.958  12.956
94021W        W62426  15.221  22.298   4.136
94022W        W62427   5.895  31.145   2.639
94023W        W62428  42.173  28.668  12.001
94024W        W62429  28.613  35.515  13.196
94025W        W62430  29.777  36.928   3.366
94026W        W62431  39.977  17.801   1.228
94027W        W62432   0.846  24.052   3.697
94028W        W62433   7.816  31.198   1.764
94029W        W62434  20.545  13.692   4.727
94030W        W62435  16.684  35.586   4.585
94031W        W62436  36.065  34.378  11.547
94032W        W62437  26.752  40.433  12.637
94033W        W62438   3.513  19.245  10.486
94034W        W62439  33.971  40.927   2.680
94035W        W62440  28.107  28.523  14.873
94036W        W62441   7.214  33.046   3.581
94037W        W62442   1.638  35.648  13.811
94038W        W62443  38.392  26.421  13.974
94039W        W62444  19.697   7.031  12.959
94040W        W62445  34.461  28.532   3.922
94041W        W62446  10.786   9.738   2.672
94042W        W62447   2.262   7.820   1.151
94043W        W62448  15.409  25.737   4.357
94044W        W62449  37.931   6.739   2.685
94045W        W62450  12.189  24.521  14.422
94046W        W62451  33.563   0.980   4.593
94047W        W62452  36.317  17.902   1.747
94048W        W62453  27.148  35.897  11.992
94049W        W62454  37.684  21.309   0.867
94050W        W62455  14.021  37.042   3.621
94051W        W62456   5.507  22.598  13.364
94052W        W62457  20.265  16.726  10.658
94053W        W62458  19.160  13.290  14.930
94054W        W62459  28.773   3.852   4.897
94055W        W62460   8.459  33.756   2.793
94056W        W62461  15.052  18.147   2.241
94057W        W62462  38.904  21.539   2.343
94058W        W62463  29.452  18.992  10.267
94059W        W62464  42.857  33.766  13.525
94060W        W62465  30.627  17.072   5.226
94061W        W62466  18.118  11.915  12.047
94062W        W62467  39.300   8.495  10.533
94063W        W62468  39.571  43.250   4.346
94064W        W62469   0.295   9.428  14.501
94065W        W62470  44.008  36.365   1.269
94066W        W62471  28.941  14.236  11.139
94067W        W62472  38.310  14.530  13.945
94068W        W62473  38.138   4.427   3.126
94069W        W62474   0.858  19.673   3.799
94070W        W62475  27.909   5.259  13.295
94071W        W62476  24.072  35.076   0.354
94072W        W62477  27.036  13.649   2.946
94073W        W62478   1.435  13.857  13.410
94074W        W62479  27.134   1.330  14.355
94075W        W62480   3.933  15.137   3.123
94076W        W62481  34.821  44.781  12.880
94077W        W62482  12.828  34.219  11.625
94078W        W62483  17.634  38.098  12.079
94079W        W62484  25.440  13.114  14.668
94080W        W62485  17.397  16.214   0.913
94081W        W62486  44.170  41.000  11.205
94082W        W62487  38.367  39.892   1.080
94083W        W62488   7.373  10.862   2.572
94084W        W62489  19.183  17.144   3.315
94085W        W62490  11.488   8.552  10.339
94086W        W62491   8.864   9.673   3.776
94087W        W62492  37.845  16.600  11.521
94088W        W62493  24.642   0.924  14.095
94089W        W62494  10.858  38.013   0.743
94090W        W62495  14.886   5.908   0.946
94091W        W62496  31.098  20.754   4.127
94092W        W62497   2.007  15.550  13.353
94093W        W62498  35.755  14.384  11.189
94094W        W62499   2.516  29.641   2.269
94095W        W62500  16.044  11.394   0.482
94096W        W62501   2.758  40.467   1.348
94097W        W62502  12.450  16.998   3.152
94098W        W62503   0.363  29.660  14.795
94099W        W62504  16.872  35.398  12.757
94100W        W62505   8.146  17.642   3.071
94101W        W62506  29.075  44.689  12.577
94102W        W62507   4.860  12.451  11.165
94103W        W62508  33.257  33.378   4.156
94104W        W62509  13.190  11.170  11.108
94105W        W62510  32.347   4.816  14.335
94106W        W62511  32.340  21.705   2.309
94107W        W62512  23.228  19.207   2.747
94108W        W62513  38.326  43.208  12.980
94109W        W62514   2.960   8.299   5.423
94110W        W62515  40.946   7.485   0.877
94111W        W62516  14.338  24.263   3.124
94112W        W62517   2.844  17.555  12.607
94113W        W62518   3.896   1.907   0.284
94114W        W62519   6.803   3.777   4.541
94115W        W62520  28.309  16.263  11.115
94116W        W62521  27.549  40.157   3.303
94117W        W62522  42.725  19.029  13.725
94118W        W62523   5.196   8.736   3.788
94119W        W62524  25.571   0.825  10.779
94120W        W62525  17.013  17.548  12.832
94121W        W62526  39.029  31.302  13.323
94122W        W62527  29.047  13.561   3.788
94123W        W62528   0.897  32.671   1.988
94124W        W62529  18.359  17.820  14.040
94125W        W62530  44.257  32.862   3.779
94126W        W62531  26.764  20.677   2.793
94127W        W62532  33.939  34.037  13.203
94128W        W62533  18.040  30.132   0.499
94129W        W62534  26.610  33.513   2.415
94130W        W62535  43.440  33.107  12.642
94131W        W62536  39.904  29.177   2.717
94132W        W62537  35.614  35.881  12.133
94133W        W62538  37.090  15.120  10.698
94134W        W62539  39.667  40.986   3.181
94135W        W62540  38.120  21.012  12.482
94136W        W62541  10.239  33.476  14.363
94137W        W62542   8.970  15.599   2.333
94138W        W62543   4.339  24.934  12.087
94139W        W62544  41.467  41.096   2.465
94140W        W62545  38.298  35.518  10.630
94141W        W62546  17.617  35.905   0.379
94142W        W62547  30.437  23.379  13.888
94143W        W62548  41.488  11.103   2.350
94144W        W62549  23.527  12.257   3.860
94145W        W62550  29.496  14.085  14.441
94146W        W62551  26.911  11.555  11.815
94147W        W62552  38.779  27.710   5.177
94148W        W62553   6.879  27.271  14.836
94149W        W62554  11.233  39.426  14.452
94150W        W62555  24.439   9.775  13.926
94151W        W62556  29.703  13.445  13.707
94152W        W62557  31.783  39.247  14.947
94153W        W62558  30.075  26.060   2.625
94154W        W62559  19.213   3.668   3.791
94155W        W62560  26.681  18.306  10.933
94156W        W62561   1.537   7.298   3.739
94157W        W62562  20.226   1.880  14.601
94158W        W62563  32.809   5.956   0.568
94159W        W62564  22.250  34.427   1.325
94160W        W62565  19.697  20.942   0.386
94161W        W62566  14.215   3.724   2.672
94162W        W62567  21.167  30.513   1.660
94163W        W62568   6.980   1.330   1.903
94164W        W62569   6.433  28.137   4.160
94165W        W62570  11.409   6.857   1.813
94166W        W62571  36.064  19.093  14.371
94167W        W62572  10.705  44.485  14.903
94168W        W62573  39.078  43.476  11.014
94169W        W62574  29.667   0.832  14.366
94170W        W62575   1.537  25.199   2.722
94171W        W62576  33.808   9.193  14.726
94172W        W62577  27.549  44.518  13.433
94173W        W62578  12.357  16.650  14.028
94174W        W62579   1.860  24.639   0.660
94175W        W62580  13.784  11.174   2.273
94176W        W62581  31.814  24.178   2.686
94177W        W62582   5.628  36.813  10.615
94178W        W62583  17.440  29.530  14.480
94179W        W62584  30.378  35.840   3.603
94180W        W62585  15.027  42.558   4.038
94181W        W62586  40.554  22.489  10.565
94182W        W62587  43.678   7.750  11.706
94183W        W62588   0.811   8.843  14.374
94184W        W62589  15.823  18.302   4.634
94185W        W62590  16.198  44.281   0.225
94186W        W62591  11.800  28.982   0.567
94187W        W62592  39.417  19.996  11.019
94188W        W62593  30.440  17.862   3.777
94189W        W62594  10.690   6.350   0.454
94190W        W62595  39.733  12.658  14.318
94191W        W62596  31.203  44.868  10.546
94192W        W62597  26.949  18.775   0.293
94193W        W62598  28.846   1.767   2.855
94194W        W62599  38.875  41.786   1.722
94195W        W62600   4.815  24.546   3.729
94196W        W62601  30.031  25.280  10.823
94197W        W62602  32.898  33.788  12.145
94198W        W62603  35.562  17.397  10.535
94199W        W62604  18.686  20.926  12.359
94200W        W62605  10.892  30.187  12.493
94201W        W62606  11.288  24.932  14.968
94202W        W62607  27.513  21.745  12.509
94203W        W62608  33.849  24.735  13.533
94204W        W62609  36.790  17.367   2.300
94205W        W62610  16.555   6.057   2.666
94206W        W62611  40.404  43.036  11.213
94207W        W62612   6.760  17.566   3.337
94208W        W62613  41.051  36.475  11.549
94209W        W62614  37.000  21.672   1.961
94210W        W62615   8.754  38.331   2.278
94211W        W62616  12.623  19.095  11.475
94212W        W62617  12.217   7.685  13.086
94213W        W62618  42.317  34.461   3.758
94214W        W62619  44.058  33.698   0.080
94215W        W62620   7.399  37.035  11.607
94216W        W62621   3.157  33.012  11.676
94217W        W62622   1.764  44.674   4.188
94218W        W62623   3.449  30.109  14.588
94219W        W62624  43.606  25.717   2.004
94220W        W62625  37.968  22.023   4.097
94221W        W62626  19.568   6.372  12.049
94222W        W62627  21.605   0.698   3.339
94223W        W62628  10.885  26.068   2.007
94224W        W62629  26.052  40.803   3.277
94225W        W62630  10.432   6.221  10.902
94226W        W62631  21.335  17.540   2.299
94227W        W62632  16.804  44.914  12.864
94228W        W62633  10.388  11.191  11.561
94229W        W62634  38.114   5.732   4.703
94230W        W62635  35.382  13.186   2.344
94231W        W62636  41.905  10.804   3.291
94232W        W62637   1.644  10.813   3.124
94233W        W62638  39.067  20.229  12.756
94234W        W62639  19.280   1.955   1.260
94235W        W62640  19.341   2.878  13.830
94236W        W62641  30.458  20.714  12.641
94237W        W62642  19.175  33.491   1.773
94238W        W62643  36.387  25.581  14.550
94239W        W62644  36.617  27.691  14.425
94240W        W62645  41.301   9.359  11.543
94241W        W62646  44.427  32.961   3.319
94242W        W62647   9.932  40.680   2.309
94243W        W62648   7.866  14.124  11.983
94244W        W62649  40.340  30.967   4.116
94245W        W62650   9.376  23.073   0.218
94246W        W62651   6.273   4.717   2.244
94247W        W62652  36.776  22.266   3.930
94248W        W62653  39.215  24.326   0.772
94249W        W62654  20.460  26.487   4.236
94250W        W62655   4.328  21.773   0.729
94251W        W62656  38.839  34.018   4.245
94252W        W62657  28.065  33.994  11.409
94253W        W62658  31.112  13.298  12.006
94254W        W62659  27.526  31.695  12.349
94255W        W62660  32.493   0.756  11.520
94256W        W62661  25.699   6.656  12.468
94257W        W62662  11.159  10.188  13.029
94258W        W62663   9.824  17.108  12.382
94259W        W62664  14.390  41.318  12.046
94260W        W62665  27.713  20.523  12.989
94261W        W62666   9.884  26.084  13.873
94262W        W62667  44.855  11.853   2.112
94263W        W62668  12.586  23.260   0.900
94264W        W62669  20.581  34.556  11.940
94265W        W62670   6.717  30.502   0.320
94266W        W62671  14.020  15.188   3.228
94267W        W62672   0.253   2.336   0.892
94268W        W62673  32.401  12.388  12.521
94269W        W62674  28.609  19.467  14.754
94270W        W62675   8.802  43.770   1.399
94271W        W62676   2.028   0.473  14.516
94272W        W62677  20.524  34.732   0.892
94273W        W62678  17.112  44.425   4.512
94274W        W62679  29.095  36.171   2.831
94275W        W62680  30.863   4.469   4.206
94276W        W62681   5.000  43.372   0.196
94277W        W62682   2.872  41.947  11.690
94278W        W62683   6.082  16.092  14.054
94279W        W62684   5.664   7.703  11.821
94280W        W62685  37.459   7.421  12.531
94281W        W62686   0.397  24.068   4.479
94282W        W62687  20.452  24.003   2.644
94283W        W62688  16.893   6.155  12.580
94284W        W62689   0.948   3.283   0.534
94285W        W62690   6.366  29.112  12.956
94286W        W62691  14.489  36.089  13.015
94287W        W62692   6.251  34.309   4.304
94288W        W62693   3.766  12.670   0.964
94289W        W62694  13.698  42.565  11.064
94290W        W62695  30.886   1.807   2.256
94291W        W62696  32.737  43.804  11.583
94292W        W62697  12.513  11.246   2.769
94293W        W62698  17.209   7.375  14.903
94294W        W62699   6.813  11.778   4.310
94295W        W62700   0.625  21.135   2.337
94296W        W62701  42.735  11.924  12.016
94297W        W62702   4.143  40.223   4.523
94298W        W62703  26.604  19.066   2.869
94299W        W62704  28.187   6.362  11.195
94300W        W62705  38.625  14.188   3.786
94301W        W62706  12.202  15.260   4.148
94302W        W62707  16.760  30.695   0.761
94303W        W62708  42.454  41.479   1.203
94304W        W62709  43.136  39.037  14.968
94305W        W62710  24.970   9.688   4.873
94306W        W62711   5.336   9.781  14.400
94307W        W62712  40.928  37.736  12.903
94308W        W62713  42.808  35.044   1.007
94309W        W62714  19.265  37.958   4.096
94310W        W62715  32.022  38.583   1.601
94311W        W62716  17.214  31.469   3.282
94312W        W62717  35.542  39.610  14.007
94313W        W62718   5.943  22.187   2.728
94314W        W62719  43.550  28.497   2.430
94315W        W62720  12.689  14.649   2.153
94316W        W62721   9.572   6.872   3.891
94317W        W62722  40.572  43.424   1.513
94318W        W62723  27.539   7.900  12.850
94319W        W62724   3.396  37.965  12.977
94320W        W62725  20.945  19.336  13.842
94321W        W62726  12.083   7.746  14.049
94322W        W62727  31.884  36.483  13.483
94323W        W62728  28.826   8.093   3.680
94324W        W62729   3.468  16.502  14.998
94325W        W62730   3.768  39.335  11.034
94326W        W62731  35.820  18.854   1.166
94327W        W62732  43.886  16.511  14.740
94328W        W62733  29.601  13.351  14.829
94329W        W62734   7.411  41.355   3.979
94330W        W62735  43.234   6.708   1.319
94331W        W62736  14.266  36.704   4.015
94332W        W62737  17.873  41.600  12.155
94333W        W62738  14.022  23.096  11.073
94334W        W62739  20.505  19.260  12.423
94335W        W62740   9.646  28.096   1.763
94336W        W62741  32.007  22.835   3.397
94337W        W62742  38.256   6.791   3.115
94338W        W62743  40.822  11.802   3.778
94339W        W62744  42.960  16.530  11.162
94340W        W62745  18.223   3.828   1.658
94341W        W62746  36.698  24.921   5.248
94342W        W62747  14.031  18.496   0.368
94343W        W62748  16.216   2.216   4.571
94344W        W62749  14.632  21.227   3.615
94345W        W62750   9.612  39.550   1.155
94346W        W62751  43.313   8.184   1.560
94347W        W62752   4.338  21.094   4.297
94348W        W62753  20.924  20.361   4.128
94349W        W62754   6.223  16.082   2.626
94350W        W62755   2.374  16.909   5.218
94351W        W62756   4.043  43.917  12.139
94352W        W62757  38.425  26.274  11.088
94353W        W62758  27.929  32.862  14.414
94354W        W62759   5.625  33.621  13.591
94355W        W62760   0.008   5.332  11.439
94356W        W62761  32.539   2.285   3.928
94357W        W62762  43.919  28.580   4.121
94358W        W62763  32.124  44.609  12.821
94359W        W62764   7.264  33.390  11.149
94360W        W62765   4.114  37.979  11.386
94361W        W62766  15.688  10.609   0.517
94362W        W62767  26.718  38.129  13.631
94363W        W62768   2.323  10.489  10.826
94364W        W62769  17.825  19.097  10.388
94365W        W62770  37.098  13.659   3.742
94366W        W62771  44.927  19.099  13.629
94367W        W62772   9.320  41.787  14.441
94368W        W62773   9.693  38.850  12.186
94369W        W62774  43.344  13.656  11.489
94370W        W62775   0.339  16.331   0.400
94371W        W62776   0.196  31.097   2.772
94372W        W62777   4.821  13.853   9.937
94373W        W62778  35.879  24.127   1.177
94374W        W62779  27.099  24.144  12.664
94375W        W62780   8.608  35.114  14.415
94376W        W62781  21.766  35.136  11.257
94377W        W62782  33.398  35.604  12.507
94378W        W62783  16.830  16.798  11.114
94379W        W62784  28.352  13.440  10.831
94380W        W62785  17.787  22.181  12.437
94381W        W62786  31.320   1.089  14.008
94382W        W62787  44.384  31.977   3.832
94383W        W62788   6.687  15.616   1.143
94384W        W62789  35.084  34.329   1.022
94385W        W62790  37.132  12.271  10.741
94386W        W62791  41.078  40.820  12.885
94387W        W62792  22.473  12.462   3.055
94388W        W62793   4.155   4.474   1.771
94389W        W62794  24.447  39.280   2.169
94390W        W62795  15.729   3.876   4.488
94391W        W62796   6.554   7.849   2.837
94392W        W62797  11.186  36.928   4.655
94393W        W62798   6.838  25.728  14.696
94394W        W62799  29.747  21.451   1.316
94395W        W62800  20.910   5.905   4.932
94396W        W62801  33.737  17.889   3.102
94397W        W62802  43.306  32.435   2.296
94398W        W62803  15.570  19.193   1.751
94399W        W62804  31.854  22.673   2.917
94400W        W62805  41.399  26.463  13.843
94401W        W62806  30.331   0.856   0.747
94402W        W62807  38.610   5.656   4.502
94403W        W62808  15.715  34.367   2.155
94404W        W62809  25.583  30.198   1.242
94405W        W62810   4.394  28.579  12.662
94406W        W62811  21.218  32.148  11.230
94407W        W62812   3.234  20.319   0.358
94408W        W62813  33.249  44.597   2.193
94409W        W62814  38.872  18.202   0.716
94410W        W62815  44.063  21.458  13.769
94411W        W62816  14.616  29.991   4.598
94412W        W62817  39.802  31.749   4.246
94413W        W62818  19.642  40.820   3.915
94414W        W62819   3.477  12.042   2.313
94415W        W62820  35.583  24.495   1.775
94416W        W62821  32.567   6.012   3.290
94417W        W62822  37.640  15.196   2.233
94418W        W62823  37.777  30.986   0.679
94419W        W62824  24.220  35.494  13.855
94420W        W62825   4.726  33.079  10.549
94421W        W62826  28.750  37.405  12.937
94422W        W62827  42.286   0.722  14.856
94423W        W62828  11.135   5.998  11.154
94424W        W62829  15.633   1.064  13.312
94425W        W62830  25.648  17.080  12.969
94426W        W62831   2.745  34.386   0.887
94427W        W62832   9.662  23.283  12.989
94428W        W62833  19.055  29.163   0.430
94429W        W62834  30.826  39.256  12.354
94430W        W62835   2.413  17.658  12.350
94431W        W62836  16.059  34.034   0.814
94432W        W62837  14.627  38.222  13.806
94433W        W62838  42.828  25.004  14.804
94434W        W62839  33.976  36.641   0.253
94435W        W62840   7.198   0.863  11.663
94436W        W62841   6.288   0.789   3.650
94437W        W62842  16.275   3.148  10.572
94438W        W62843   8.114  21.973   4.844
94439W        W62844  38.558  21.635  11.836
94440W        W62845   7.722  40.397   3.128
94441W        W62846  33.799  19.302  12.175
94442W        W62847  26.446  12.908  14.129
94443W        W62848  23.078   2.832   3.769
94444W        W62849  18.671   1.990   1.377
94445W        W62850   6.698  30.759   0.824
94446W        W62851  19.619  26.985  14.239
94447W        W62852  13.254  22.217   4.535
94448W        W62853  18.201  31.324  10.341
94449W        W62854  44.560   7.916  11.281
94450W        W62855   8.197   8.242  12.518
94451W        W62856  42.864  27.180   2.282
94452W        W62857  10.113   1.713   3.747
94453W        W62858  26.551  40.519  12.065
94454W        W62859  24.295   7.258  11.656
94455W        W62860  19.735  30.389   0.672
94456W        W62861   8.728  15.307   9.525
94457W        W62862   4.750   0.046   3.685
94458W        W62863   3.169   8.143  13.927
94459W        W62864  42.328  17.609  11.460
94460W        W62865  17.210  19.804   4.449
94461W        W62866  38.505  36.650   3.828
94462W        W62867  14.826  10.649  12.485
94463W        W62868  19.433  17.550   0.414
94464W        W62869  31.642  32.330   4.660
94465W        W62870  35.343  14.792  12.830
94466W        W62871  24.054   5.446   1.216
94467W        W62872  44.434   6.545  10.558
94468W        W62873  13.324  11.854  14.502
94469W        W62874  35.347  28.679   2.750
94470W        W62875  31.601  28.651  14.967
94471W        W62876   8.164  23.039   1.303
94472W        W62877  12.012   1.693   2.038
94473W        W62878  27.559  27.004   0.259
94474W        W62879   8.290  15.714   1.800
94475W        W62880   0.359   5.918   3.081
94476W        W62881  24.912  33.879  11.190
94477W        W62882  37.372  11.835   0.796
94478W        W62883  38.095  14.705   3.040
94479W        W62884  32.491  44.931  10.983
94480W        W62885  27.009  19.702   4.109
94481W        W62886  19.239  10.857   4.227
94482W        W62887  16.889  39.231  12.603
94483W        W62888  19.152  33.051  11.895
94484W        W62889  36.860  27.125   2.421
94485W        W62890   1.419  22.305  12.998
94486W        W62891   0.973  42.968  13.463
94487W        W62892  18.310  10.713   3.195
94488W        W62893  16.477  43.323  10.868
94489W        W62894   7.507  35.912   0.313
94490W        W62895  16.807  17.026  13.410
94491W        W62896  15.646  40.603   3.223
94492W        W62897  35.581  29.054   3.271
94493W        W62898  36.532  42.993  14.355
94494W        W62899  15.086  30.007   2.701
94495W        W62900  32.426  39.844  12.825
94496W        W62901   9.173  24.108  10.731
94497W        W62902  36.571  13.705  12.621
94498W        W62903  42.315  38.524   0.981
94499W        W62904  19.985  26.782  13.921
94500W        W62905  18.465  16.640   3.803
94501W        W62906  14.822  16.298  14.018
94502W        W62907  15.716  30.556   3.116
94503W        W62908  25.482  34.115   4.849
94504W        W62909   5.359  30.465   1.310
94505W        W62910  29.121   9.818  14.774
94506W        W62911  16.024   9.449  13.502
94507W        W62912   6.052   7.902   2.825
94508W        W62913  43.467  19.491   1.770
94509W        W62914  43.015  27.343  12.139
94510W        W62915  33.859  44.265   3.790
94511W        W62916  40.788  35.877  10.745
94512W        W62917   1.284  10.395  13.126
94513W        W62918  38.302  31.128  14.071
94514W        W62919  31.620  15.834   4.998
94515W        W62920   7.042  29.162  12.671
94516W        W62921  16.654  33.104   3.233
94517W        W62922   6.810  40.447  11.497
94518W        W62923  22.254  12.103   1.032
94519W        W62924  28.240  21.449  12.344
94520W        W62925   4.868  12.659  12.658
94521W        W62926  31.306  25.134   3.316
94522W        W62927   2.980  43.321   2.875
94523W        W62928  11.320  14.879  11.474
94524W        W62929  19.674  10.728  13.318
94525W        W62930  31.297  12.543   0.350
94526W        W62931  39.950   9.444   4.325
94527W        W62932  28.930  14.131  13.950
94528W        W62933  36.615  18.866   1.833
94529W        W62934  21.305  16.271   4.548
94530W        W62935  27.014  34.053   0.353
94531W        W62936  37.970  39.900   2.295
94532W        W62937   1.963  14.091   4.900
94533W        W62938  16.805  30.901  11.963
94534W        W62939  35.341  37.874   4.494
94535W        W62940  20.027  17.688  13.405
94536W        W62941  31.519  37.386  14.535
94537W        W62942  42.849  22.642  12.089
94538W        W62943   0.266  23.722   3.104
94539W        W62944  44.797  26.599   3.672
94540W        W62945  43.942   3.664   3.516
94541W        W62946  39.224  13.122   1.764
94542W        W62947  43.542   4.964  13.613
94543W        W62948   1.465  37.446  10.700
94544W        W62949  40.509  33.917   4.595
94545W        W62950  26.437  44.823   0.826
94546W        W62951   4.236   7.905   0.924
94547W        W62952  10.242  29.562   0.857
94548W        W62953  34.999  10.640   0.816
94549W        W62954  43.212  27.950  14.396
94550W        W62955  36.356  41.378   1.335
94551W        W62956  29.377  31.436   1.918
94552W        W62957  17.671  27.259   1.716
94553W        W62958  43.656  41.442   3.659
94554W        W62959  14.777  12.340   2.410
94555W        W62960  41.989  43.904  12.806
94556W        W62961  33.613  10.577  14.476
94557W        W62962  28.981  12.261   0.722
94558W        W62963  16.843  44.988   3.172
94559W        W62964  15.694  40.242  10.116
94560W        W62965  13.683  43.528   2.836
94561W        W62966   9.716  12.634  11.994
94562W        W62967  13.274   0.556  12.286
94563W        W62968   9.536  29.038  12.549
94564W        W62969  15.047  27.937  14.148
94565W        W62970  19.806  21.194  11.932
94566W        W62971  40.402  33.429  12.783
94567W        W62972  26.176  23.118   4.678
94568W        W62973   4.351  37.849   0.041
94569W        W62974   7.492  33.765   4.782
94570W        W62975  12.733  16.271   0.037
94571W        W62976   1.492  35.889   0.454
94572W        W62977   0.031  18.604   2.716
94573W        W62978  25.524  12.666  11.963
94574W        W62979  13.449  26.775   1.348
94575W        W62980  20.223   2.854  12.969
94576W        W62981  11.553  18.665   5.004
94577W        W62982  44.985  14.111   2.238
94578W        W62983  38.047  25.078  13.320
94579W        W62984  41.590  11.144   1.464
94580W        W62985  35.874   9.148  10.653
94581W        W62986  27.725  19.246   4.654
94582W        W62987  36.506   3.986  13.904
94583W        W62988  27.928  33.623  10.617
94584W        W62989  20.041   5.429   2.727
94585W        W62990  32.206  37.193   4.196
94586W        W62991  42.006  40.057  14.304
94587W        W62992   2.349  36.182   1.789
94588W        W62993  15.301  44.460   4.665
94589W        W62994  11.835  11.146   0.829
94590W        W62995   7.406  10.325  13.427
94591W        W62996  29.048  12.004   2.826
94592W        W62997  17.290  25.426  12.014
94593W        W62998  21.559  26.235   1.989
94594W        W62999  41.717  37.811   1.701
94595W        W63000  19.491  29.447   3.381
94596W        W63001   1.304   6.142   2.878
94597W        W63002  19.303  32.617  14.414
94598W        W63003  35.054  43.321  10.635
94599W        W63004  26.786  26.833   0.759
94600W        W63005  17.230   7.856   0.060
94601W        W63006   9.412  41.810   1.751
94602W        W63007  36.980   7.231   4.553
94603W        W63008  24.765   8.423   2.021
94604W        W63009  12.786  23.893  12.128
94605W        W63010   9.733  44.848   3.226
94606W        W63011  32.761  44.519  10.058
94607W        W63012  29.089  28.160   3.420
94608W        W63013   7.310  35.466   2.742
94609W        W63014  20.772  26.941  14.888
94610W        W63015  12.972  35.499  12.982
94611W        W63016  14.040  22.660   4.062
94612W        W63017   2.515  15.835   1.892
94613W        W63018  20.502  12.317  12.447
94614W        W63019  28.178   9.154  11.198
94615W        W63020   4.988  25.641   2.629
94616W        W63021  35.858   5.678   2.245
94617W        W63022  27.477  20.648   1.491
94618W        W63023  40.498  38.859   1.068
94619W        W63024  10.290  19.573   2.525
94620W        W63025  33.815   1.331  14.109
94621W        W63026  41.038   8.068  11.866
94622W        W63027   7.751  27.144  10.498
94623W        W63028  18.357  39.942  14.945
94624W        W63029  42.474   3.866  10.614
94625W        W63030  28.033   6.224  10.235
94626W        W63031  24.977  37.686  12.483
94627W        W63032  42.237  26.548   0.690
94628W        W63033  17.055  27.570   1.745
94629W        W63034   2.437  39.442  10.759
94630W        W63035  36.401  17.575   5.107
94631W        W63036   0.771  17.623   4.588
94632W        W63037   1.800  26.197  10.835
94633W        W63038  21.006  15.850   4.575
94634W        W63039  11.631   6.687   3.612
94635W        W63040  37.361   9.140  12.917
94636W        W63041  43.967  35.078   2.773
94637W        W63042  22.832  18.600   4.773
94638W        W63043  28.022  14.590   1.389
94639W        W63044   8.109  20.963  13.461
94640W        W63045  26.453  22.165   1.092
94641W        W63046   0.164  32.475   3.697
94642W        W63047  40.892  12.024  13.020
94643W        W63048  37.045   3.854  14.967
94644W        W63049  38.677   1.276   0.769
94645W        W63050  28.541  24.470  10.928
94646W        W63051  23.674  37.594   0.852
94647W        W63052   6.525  32.730  12.959
94648W        W63053  32.597   1.477  13.562
94649W        W63054   7.283  10.416   2.806
94650W        W63055  16.107  42.057  10.724
94651W        W63056   2.366   6.268  10.754
94652W        W63057  16.360  40.038   0.465
94653W        W63058  30.878   9.834  13.607
94654W        W63059   8.873   7.339   4.896
94655W        W63060   4.160   0.954   0.885
94656W        W63061  20.308  34.385  12.730
94657W        W63062  23.096   0.206   1.003
94658W        W63063  23.202  13.124  11.825
94659W        W63064   8.912   2.993  13.782
94660W        W63065  13.132  22.513   3.609
94661W        W63066  36.466  37.944  11.153
94662W        W63067  13.815  40.667   0.554
94663W        W63068   6.685  42.089  13.247
94664W        W63069   8.875  16.709   4.016
94665W        W63070  39.944  18.114   4.341
94666W        W63071  23.004  28.593   1.843
94667W        W63072  26.275  20.480   3.794
94668W        W63073  10.142  27.791  13.266
94669W        W63074  21.051  17.746  11.316
94670W        W63075  14.506   4.315   0.446
94671W        W63076   5.264   4.224   0.276
94672W        W63077  35.577  38.473   0.327
94673W        W63078  30.990  13.796  14.438
94674W        W63079   8.820  44.462  14.129
94675W        W63080  31.868  37.615   1.488
94676W        W63081  10.823  44.249  10.654
94677W        W63082  36.032  27.944   4.982
94678W        W63083  24.640  10.275   2.404
94679W        W63084  16.192  18.171   1.303
94680W        W63085  27.652   5.259  11.607
94681W        W63086  40.495   2.228   1.500
94682W        W63087  34.643   5.999   4.221
94683W        W63088  35.160  20.716   0.326
94684W        W63089  18.289  23.112   2.963
94685W        W63090  15.864  26.129  15.000
94686W        W63091  35.994   8.427   3.981
94687W        W63092  21.165   2.930  14.785
94688W        W63093  11.349   5.451   4.587
94689W        W63094  43.906   3.465   2.249
94690W        W63095  24.762  28.861   0.833
94691W        W63096  43.884  38.058   1.587
94692W        W63097  27.300  32.965   0.486
94693W        W63098  11.859  40.224  14.444
94694W        W63099  12.304  10.578   3.728
94695W        W63100  18.759  12.826   3.713
94696W        W63101  17.600  28.921  14.015
94697W        W63102  44.913   3.245   0.459
94698W        W63103  16.839   9.695   1.690
94699W        W63104  41.340  41.915   0.671
94700W        W63105   1.371  37.636  13.057
94701W        W63106   1.221  37.078  13.656
94702W        W63107  17.555  13.739  10.409
94703W        W63108   7.827  37.907  13.451
94704W        W63109  22.061   7.963   2.882
94705W        W63110  25.199  26.651   1.269
94706W        W63111  29.646   0.400   0.861
94707W        W63112  28.151  14.037  12.643
94708W        W63113  11.612  23.224  11.130
94709W        W63114  11.398  36.041   4.379
94710W        W63115  29.494  22.573  10.878
94711W        W63116  29.594  18.292   4.968
94712W        W63117  21.136  12.201  11.566
94713W        W63118  18.251   3.178   3.349
94714W        W63119   3.284  34.433   1.663
94715W        W63120  30.236  31.775  14.790
94716W        W63121   6.797  11.184  14.526
94717W        W63122  15.618   1.207  14.289
94718W        W63123   4.657  31.463  12.053
94719W        W63124   0.262   4.703   0.767
94720W        W63125  24.589  13.806   1.200
94721W        W63126  21.304  16.313  12.959
94722W        W63127  37.052   4.201   3.112
94723W        W63128   2.841   2.979   1.715
94724W        W63129  43.990  13.577  12.048
94725W        W63130  39.588  22.455  11.902
94726W        W63131  15.214  20.048   4.584
94727W        W63132  20.817  40.821   4.672
94728W        W63133  34.831  16.250  12.093
94729W        W63134  34.489   2.012   2.518
94730W        W63135  22.151  24.239  11.068
94731W        W63136   7.752   0.796   0.005
94732W        W63137  34.577  34.676  14.749
94733W        W63138  13.117  20.985  12.982
94734W        W63139  10.369  27.054   2.094
94735W        W63140   8.138  23.065  12.161
94736W        W63141  16.896  29.583   9.992
94737W        W63142  13.116  29.576  11.034
94738W        W63143  28.093   7.676  14.513
94739W        W63144  37.749  33.621   9.955
94740W        W63145  15.151  21.802   3.224
94741W        W63146  30.963  18.206  12.211
94742W        W63147  22.556  22.130   1.447
94743W        W63148  11.805  27.645  11.606
94744W        W63149  33.826   2.298   4.202
94745W        W63150  14.464  17.150   4.214
94746W        W63151  24.140  42.146  13.273
94747W        W63152  30.309   2.047  11.941
94748W        W63153  13.836  17.493  14.064
94749W        W63154  25.722  42.002   5.351
94750W        W63155  42.457  35.061  12.594
94751W        W63156  38.525  26.560  12.546
94752W        W63157  36.778  30.995  14.300
94753W        W63158  12.241  20.385   1.190
94754W        W63159  18.121  14.406   0.934
94755W        W63160  16.605   9.863  13.979
94756W        W63161  13.083  25.089  11.133
94757W        W63162   1.290  26.077   0.537
94758W        W63163   4.274  17.711  10.672
94759W        W63164   0.602   7.997   5.079
94760W        W63165  32.342  41.825   2.370
94761W        W63166   6.096  18.363  14.858
94762W        W63167   2.628  38.402  13.799
94763W        W63168  41.972   6.890  10.980
94764W        W63169   3.444   5.350   4.979
94765W        W63170  25.281  21.226  12.089
94766W        W63171   2.900  27.333  11.869
94767W        W63172  13.118  34.460  12.920
94768W        W63173  23.319  39.956   1.146
94769W        W63174  10.276  13.212  12.445
94770W        W63175  13.786  34.450   4.673
94771W        W63176  33.368  33.969  10.204
94772W        W63177  44.284  28.972  11.681
94773W        W63178   9.242  36.950  14.257
94774W        W63179   3.989  21.476  11.559
94775W        W63180  35.846   1.374   0.102
94776W        W63181   7.464   4.873  11.132
94777W        W63182  43.398  27.450  11.726
94778W        W63183  36.178  16.061   1.744
94779W        W63184  37.017  44.803   4.330
94780W        W63185   3.000  28.484   4.266
94781W        W63186  15.760   6.382  10.411
94782W        W63187   9.333  39.246  12.158
94783W        W63188  13.427  16.226   2.685
94784W        W63189   8.399  37.450   3.223
94785W        W63190  29.557   9.648  14.985
94786W        W63191  29.967  42.056  11.976
94787W        W63192  25.799  14.219   0.262
94788W        W63193  41.781  16.706  11.590
94789W        W63194  20.128  24.516  13.471
94790W        W63195  23.362  23.286   1.954
94791W        W63196  39.956  44.766  10.621
94792W        W63197  33.480   3.253  11.664
94793W        W63198   9.624  20.971   3.773
94794W        W63199  23.748  27.192   4.661
94795W        W63200  36.448  30.120   0.900
94796W        W63201   2.505  22.660  14.773
94797W        W63202  12.779  39.077   5.068
94798W        W63203  12.923  39.421   1.852
94799W        W63204   2.710  13.685  14.965
94800W        W63205  12.527  23.725  14.917
94801W        W63206  34.193  34.125   1.276
94802W        W63207   8.709  20.330  13.945
94803W        W63208  30.942  16.021  13.177
94804W        W63209  18.181  13.565   3.821
94805W        W63210  17.718  30.658   1.317
94806W        W63211  17.268   4.844  12.073
94807W        W63212  22.563  25.278   4.147
94808W        W63213  36.193  36.475  12.975
94809W        W63214  27.118  39.223   2.694
94810W        W63215   9.779  18.567   4.521
94811W        W63216  25.953  25.090   0.832
94812W        W63217   7.270   9.384  12.431
94813W        W63218  16.729  36.421   3.255
94814W        W63219  34.340   5.198  14.781
94815W        W63220  18.031   5.369  11.974
94816W        W63221  33.311  11.700   4.417
94817W        W63222  33.496  32.407   4.394
94818W        W63223  32.182  28.679   1.953
94819W        W63224  20.718  28.210  14.441
94820W        W63225  25.516  11.105  12.845
94821W        W63226   4.986   7.910   1.997
94822W        W63227  21.593   3.141   1.960
94823W        W63228  30.938  19.178  14.360
94824W        W63229  22.968  23.658   4.516
94825W        W63230  39.431   0.763  12.583
94826W        W63231  24.574  35.831   4.195
94827W        W63232   4.372  33.190   0.903
94828W        W63233  13.798  11.100  12.803
94829W        W63234  25.872  28.414  12.035
94830W        W63235  10.405  25.790  14.816
94831W        W63236  12.092  20.266  14.351
94832W        W63237  26.931  25.590   3.560
94833W        W63238  44.364  35.406   4.894
94834W        W63239  31.414  16.741  13.935
94835W        W63240   4.917  13.170   1.811
94836W        W63241  42.751  33.874  13.001
94837W        W63242   5.400  15.693   0.486
94838W        W63243   5.320  37.377   3.876
94839W        W63244  43.237  23.104  13.473
94840W        W63245  17.224  34.860   1.532
94841W        W63246  14.162  10.876   0.886
94842W        W63247  23.571  32.535   3.612
94843W        W63248   2.003   7.757  12.979
94844W        W63249  38.600  17.303   0.281
94845W        W63250   8.604   8.743   5.023
94846W        W63251   0.410   9.151   0.482
94847W        W63252  21.063  41.695  12.852
94848W        W63253  11.681   4.786  14.953
94849W        W63254  12.415   8.476  11.095
94850W        W63255  35.045  32.984   1.788
94851W        W63256   3.266  20.333  14.455
94852W        W63257  35.392   6.224  11.705
94853W        W63258  41.034  11.636  12.685
94854W        W63259  12.137   3.783  12.844
94855W        W63260  23.972  24.019  11.127
94856W        W63261   4.956  39.617  12.182
94857W        W63262  22.060  32.446   2.720
94858W        W63263  26.603  41.005   0.733
94859W        W63264  40.780  11.662   1.421
94860W        W63265   4.927  39.908  13.854
94861W        W63266  39.305   8.979   2.808
94862W        W63267   9.337  13.393  11.056
94863W        W63268  42.021  13.609  14.667
94864W        W63269  15.403   3.234  10.766
94865W        W63270  35.443  30.512  11.658
94866W        W63271  13.530  20.117   1.345
94867W        W63272   8.905  41.868  11.677
94868W        W63273   7.715  40.005   4.670
94869W        W63274  22.475  23.558  13.846
94870W        W63275  43.260  16.109   1.890
94871W        W63276  18.803  10.952  14.983
94872W        W63277  38.473  36.037   4.666
94873W        W63278  39.430  16.493   1.156
94874W        W63279  18.190  24.931  13.808
94875W        W63280  30.949  41.418  11.992
94876W        W63281   2.945  25.088  13.326
94877W        W63282   2.499  11.375  14.859
94878W        W63283  14.102  36.044   4.746
94879W        W63284  40.448  18.014   1.129
94880W        W63285  29.661  42.242   0.998
94881W        W63286  35.103  14.278  14.441
94882W        W63287  21.221  28.727  12.906
94883W        W63288  24.777  19.590  10.901
94884W        W63289  18.000  44.900  10.417
94885W        W63290  35.388   8.013   0.302
94886W        W63291  19.564  25.257   1.255
94887W        W63292  19.248  17.314  10.417
94888W        W63293  31.863  17.210  12.990
94889W        W63294  44.417  32.833  12.445
94890W        W63295  29.183   2.205  10.520
94891W        W63296  15.647   5.820   4.182
94892W        W63297   3.935  24.505  11.730
94893W        W63298  23.314  10.353  12.070
94894W        W63299  31.985  41.018   0.355
94895W        W63300  36.050   0.369  12.128
94896W        W63301  21.304  12.400  13.794
94897W        W63302  29.311  11.381  11.854
94898W        W63303   5.375   1.991   3.610
94899W        W63304   5.781  42.451  12.913
94900W        W63305   2.488  40.135  11.542
94901W        W63306   1.733  13.371   4.454
94902W        W63307   2.244  30.002   5.006
94903W        W63308  18.593  13.272   2.298
94904W        W63309  29.499  40.820  13.347
94905W        W63310  29.618  22.260   1.712
94906W        W63311  41.036  24.221   2.459
94907W        W63312  39.080   0.230  14.462
94908W        W63313   3.412   8.233   5.105
94909W        W63314   5.141  25.433   2.174
94910W        W63315   2.436   8.695  14.057
94911W        W63316  14.516  30.869   4.830
94912W        W63317  37.584  11.303   3.341
94913W        W63318  20.640  19.153   3.894
94914W        W63319  11.818  41.131   0.945
94915W        W63320   5.354  24.691  13.587
94916W        W63321   4.433  30.915   1.344
94917W        W63322   2.544  14.396   2.722
94918W        W63323  35.624  11.664   3.998
94919W        W63324   1.795  38.400   3.527
94920W        W63325  27.649  26.324   2.894
94921W        W63326  30.440   0.762  14.957
94922W        W63327  31.976  34.925  10.522
94923W        W63328  37.067  23.302   1.909
94924W        W63329  29.580  37.854   3.252
94925W        W63330  16.219  21.670   1.726
94926W        W63331  29.174  43.298   1.012
94927W        W63332   6.895  10.502  11.476
94928W        W63333  35.415  12.213   1.810
94929W        W63334  31.056  11.383  11.614
94930W        W63335  36.835  36.995  11.354
94931W        W63336  16.420  39.786   1.378
94932W        W63337  17.648  25.484  10.743
94933W        W63338   4.733   4.977   0.317
94934W        W63339  18.657   0.492   4.511
94935W        W63340  14.310  11.244  14.876
94936W        W63341  16.083  10.297  12.337
94937W        W63342   6.710  32.190  10.700
94938W        W63343  24.306  25.512  12.854
94939W        W63344  40.819  16.288  11.654
94940W        W63345  32.348  30.218   0.099
94941W        W63346  10.188  21.003   0.731
94942W        W63347   5.174  35.900  13.524
94943W        W63348  27.679   2.923   2.666
94944W        W63349  27.225   1.662   0.265
94945W        W63350  36.778   7.761  11.144
94946W        W63351  30.398  33.182   3.424
94947W        W63352  36.750  14.006   1.943
94948W        W63353  41.530  42.834  14.658
94949W        W63354   5.181  41.255   2.350
94950W        W63355  37.249  36.781   2.084
94951W        W63356  33.680  38.868  14.887
94952W        W63357  20.807   9.905  11.034
94953W        W63358  18.540  40.018  11.492
94954W        W63359   1.943  35.507   3.547
94955W        W63360  26.561   4.014   1.446
94956W        W63361  10.835   4.749  10.753
94957W        W63362   1.466   1.483  11.583
94958W        W63363  19.378  38.452  13.368
94959W        W63364  42.038   0.757   0.894
94960W        W63365  13.145  36.880   2.692
94961W        W63366  23.194  18.606   3.936
94962W        W63367  19.001  38.339   2.911
94963W        W63368  23.292  44.848   4.546
94964W        W63369  28.043  20.311   1.729
94965W        W63370  19.084  33.567  11.145
94966W        W63371  25.768  20.551  13.397
94967W        W63372  34.056  17.839  13.440
94968W        W63373   2.782   3.446   1.487
94969W        W63374   6.933   8.266   3.710
94970W        W63375  34.708  38.359  11.082
94971W        W63376  24.953   4.181   2.600
94972W        W63377  37.072  16.820  11.063
94973W        W63378  19.637  24.737   1.268
94974W        W63379  28.594  13.647   4.759
94975W        W63380   2.302  31.054  11.683
94976W        W63381  32.388  30.415  13.612
94977W        W63382  22.610  40.241   3.643
94978W        W63383   7.826  12.716   3.206
94979W        W63384  14.386  26.219  12.046
94980W        W63385  38.549  31.925  10.779
94981W        W63386  44.844  37.177  13.869
94982W        W63387  21.578  33.376  13.838
94983W        W63388  42.441  18.603   0.324
94984W        W63389   1.422   0.905   1.968
94985W        W63390   0.478   7.481   4.083
94986W        W63391  38.141  20.998   4.367
94987W        W63392  31.922   2.927   3.590
94988W        W63393  15.080   9.805   4.420
94989W        W63394  41.352   6.562   5.602
94990W        W63395  31.509  16.849   0.403
94991W        W63396   7.412  24.999   0.793
94992W        W63397  33.518   1.398   3.685
94993W        W63398  12.322  40.578   2.301
94994W        W63399  36.047  21.484   4.752
94995W        W63400  20.621  34.521  11.414
94996W        W63401  22.674  22.173   2.408
94997W        W63402  24.541  23.200   2.815
94998W        W63403  40.938   2.847  13.057
94999W        W63404  27.130  43.969   2.626
95000W        W63405  34.324  32.861  13.999
95001W        W63406  36.422  35.074   2.194
95002W        W63407  21.222   0.227   4.547
95003W        W63408  33.056   9.420  13.082
95004W        W63409   2.831  21.642  11.891
95005W        W63410  20.370  21.816   3.346
95006W        W63411  25.154  27.244  10.780
95007W        W63412  41.638   9.568  14.868
95008W        W63413  13.057  16.009  10.931
95009W        W63414  12.581  35.856  14.783
95010W        W63415  21.486  39.508  11.579
95011W        W63416  35.669  34.470  13.540
95012W        W63417  25.909  27.185  14.915
95013W        W63418  22.325  18.675   4.519
95014W        W63419  19.797   1.190  14.908
95015W        W63420  36.019  41.762   4.385
95016W        W63421  34.148  24.293  13.477
95017W        W63422  44.329  26.442  13.589
95018W        W63423   7.756  12.895  13.360
95019W        W63424  17.271   5.674  14.049
95020W        W63425   8.939  31.572   9.982
95021W        W63426  24.414  40.513  13.064
95022W        W63427  32.267  14.706  10.507
95023W        W63428  34.576   7.474   0.890
95024W        W63429  37.431  27.630  14.583
95025W        W63430   1.116  25.534   0.113
95026W        W63431  30.009   1.063  12.074
95027W        W63432  22.049  18.325   1.285
95028W        W63433  19.122  10.132   2.077
95029W        W63434  15.565  11.987  13.415
95030W        W63435  15.764  26.857  13.986
95031W        W63436  20.116  43.364  11.701
95032W        W63437  44.695  33.137   2.910
95033W        W63438  31.909  10.293  10.777
95034W        W63439  42.763  43.352   1.403
95035W        W63440   1.007  36.192  12.771
95036W        W63441  44.592   5.941  10.145
95037W        W63442  22.432  36.351  14.322
95038W        W63443  11.248  24.045  10.694
95039W        W63444  20.240   8.019  14.912
95040W        W63445  17.040   4.952  13.875
95041W        W63446  42.424  14.101   1.875
95042W        W63447  42.785  37.859  12.852
95043W        W63448   8.687  10.396  14.866
95044W        W63449  29.876  15.318   1.727
95045W        W63450  38.392  33.743   2.177
95046W        W63451  17.284   6.846  12.108
95047W        W63452  17.649  31.077  11.421
95048W        W63453  27.131  37.869   1.336
95049W        W63454  34.099  32.071  12.211
95050W        W63455   6.850  10.705   4.590
95051W        W63456  23.207   0.597   2.780
95052W        W63457   9.151  19.594   0.795
95053W        W63458  35.553   6.244   3.823
95054W        W63459  13.418  33.882   4.059
95055W        W63460  19.277  35.421  11.960
95056W        W63461  42.462  19.519   0.887
95057W        W63462   1.018  17.051  14.395
95058W        W63463  14.623  29.897  11.252
95059W        W63464  31.631  42.558   3.242
95060W        W63465  14.670   9.605  12.585
95061W        W63466  18.782  20.144   1.283
95062W        W63467  11.029  30.161  10.011
95063W        W63468  41.265  42.503   3.790
95064W        W63469   2.451  36.981  14.979
95065W        W63470   5.796  13.354   0.682
95066W        W63471   5.460  36.091  14.921
95067W        W63472  30.026  26.030   2.113
95068W        W63473  34.182  14.232   1.434
95069W        W63474   8.455   5.003   2.823
95070W        W63475  31.949  40.856  11.315
95071W        W63476  44.738   3.259  10.504
95072W        W63477  13.146   0.787  14.870
95073W        W63478  11.436  30.635   5.002
95074W        W63479  40.269  16.140   0.325
95075W        W63480  10.649  37.898   4.618
95076W        W63481  28.714  26.846  12.038
95077W        W63482  14.777   5.772   2.797
95078W        W63483  33.868  14.692  14.242
95079W        W63484  39.939  33.017  10.720
95080W        W63485  28.951  28.636   3.630
95081W        W63486   2.269  27.364  12.436
95082W        W63487  14.124   7.811  12.994
95083W        W63488   2.755  23.747  11.062
95084W        W63489  37.361  22.639   0.878
95085W        W63490   5.085  44.528  14.146
95086W        W63491   9.558  36.511   3.229
95087W        W63492  19.460  41.419  14.345
95088W        W63493  14.199  15.064  14.212
95089W        W63494   4.725  43.280  13.635
95090W        W63495  31.087  38.961   3.123
95091W        W63496  15.358   2.583   0.857
95092W        W63497  15.185  38.343   1.571
95093W        W63498  34.495  24.150   3.604
95094W        W63499  15.624  20.185  11.474
95095W        W63500  30.954  11.901   3.917
95096W        W63501  13.690   4.715  12.797
95097W        W63502  26.716  19.646   0.387
95098W        W63503  19.302  18.983   1.925
95099W        W63504  18.789  37.162  11.489
95100W        W63505  37.905   1.867   1.444
95101W        W63506  39.389  16.857   3.104
95102W        W63507  20.648  10.238   4.819
95103W        W63508  33.837   5.904  11.019
95104W        W63509  39.006  11.311  13.175
95105W        W63510  35.426  26.726  14.377
95106W        W63511  10.446  16.777   1.346
95107W        W63512  16.079  41.621  14.055
95108W        W63513  24.597  26.069   4.583
95109W        W63514  12.135  15.842   1.839
95110W        W63515   1.772  32.613  12.880
95111W        W63516  44.054  16.530   0.981
95112W        W63517  15.309  12.256   1.144
95113W        W63518  29.139  33.808  12.618
95114W        W63519  25.420  41.868  14.806
95115W        W63520  25.670  18.060  12.462
95116W        W63521  20.589  24.154   4.087
95117W        W63522  14.076  24.243  12.425
95118W        W63523  40.363  15.403   3.425
95119W        W63524   1.213   6.777  11.718
95120W        W63525  29.680   2.511   3.275
95121W        W63526  25.248   3.866  12.592
95122W        W63527   6.968   0.837   4.101
95123W        W63528  34.228  43.104  13.928
95124W        W63529  41.015   1.331  11.846
95125W        W63530   7.834  29.221   0.004
95126W        W63531  25.760  28.308   3.796
95127W        W63532  24.548  32.355  13.714
95128W        W63533  10.630   2.405  10.303
95129W        W63534  38.008  35.508  14.226
95130W        W63535  28.683  29.751  13.544
95131W        W63536  27.488  42.054  11.129
95132W        W63537  31.022  20.061  14.717
95133W        W63538   9.200  10.417   1.939
95134W        W63539  30.706   1.999   4.064
95135W        W63540  29.009  28.962  13.364
95136W        W63541  29.472  10.792   4.812
95137W        W63542  12.828  13.703  14.916
95138W        W63543  23.597  15.100   1.437
95139W        W63544  19.288  22.115  11.972
95140W        W63545   4.195  17.521   3.671
95141W        W63546   4.965   5.816   1.855
95142W        W63547  29.619  26.437   1.366
95143W        W63548  25.356  32.476  13.874
95144W        W63549  33.315  20.269   0.265
95145W        W63550  32.299  18.288   4.956
95146W        W63551  21.189   8.206   4.976
95147W        W63552  22.863  25.939  14.282
95148W        W63553  14.860  10.721   4.635
95149W        W63554  23.821  23.217   2.223
95150W        W63555   4.335   1.868  11.642
95151W        W63556   6.878  17.352  11.544
95152W        W63557  30.036   7.868   0.738
95153W        W63558   5.759   8.404  14.634
95154W        W63559  11.435   3.805  14.389
95155W        W63560  12.390  10.545  13.716
95156W        W63561  34.944  17.694   0.858
95157W        W63562   7.555  39.702  12.796
95158W        W63563  27.427  20.505  13.923
95159W        W63564   8.009  34.907  13.829
95160W        W63565   0.838  32.621  11.071
95161W        W63566  10.048  34.474  10.107
95162W        W63567   9.299   4.996   4.564
95163W        W63568  38.664   7.405  12.614
95164W        W63569   1.121   5.400   4.127
95165W        W63570   9.752   2.383   3.202
95166W        W63571  40.220   9.368   3.197
95167W        W63572  25.533  22.129   2.609
95168W        W63573  16.539   4.291  11.104
95169W        W63574   7.279  40.282  14.884
95170W        W63575  14.953  38.809  13.254
95171W        W63576   2.869  43.396   0.784
95172W        W63577  12.366   0.203   2.614
95173W        W63578  24.721   7.437  14.044
95174W        W63579  22.873  40.531   2.147
95175W        W63580  14.664  44.503  13.383
95176W        W63581  33.381  35.302  11.112
95177W        W63582  34.774  20.067  12.598
95178W        W63583   8.476  11.036   4.876
95179W        W63584  11.767   8.443  12.789
95180W        W63585   4.748  36.423  12.486
95181W        W63586  10.797  28.515   2.221
95182W        W63587  36.376   3.935   1.198
95183W        W63588  28.536   0.895  14.708
95184W        W63589  34.726  43.540   1.480
95185W        W63590  34.475  10.295  13.088
95186W        W63591  23.998  38.568   1.867
95187W        W63592  43.636  30.806  11.836
95188W        W63593  26.120   3.056   0.020
95189W        W63594  25.144  19.632   0.969
95190W        W63595  17.961   0.745  12.893
95191W        W63596  13.048  32.637   2.647
95192W        W63597  24.117  38.277  13.812
95193W        W63598  26.079  32.097   2.871
95194W        W63599  11.306  18.590  11.940
95195W        W63600  25.207  33.814  10.735
95196W        W63601  18.029  40.380   0.723
95197W        W63602   1.822  18.839  12.809
95198W        W63603  31.768   4.944   0.402
95199W        W63604   2.100  26.590  10.974
95200W        W63605   2.268  32.562   2.141
95201W        W63606  41.399  29.207  13.877
95202W        W63607   0.263   6.608  12.099
95203W        W63608   6.852  39.542  11.604
95204W        W63609  26.373  33.076   1.430
95205W        W63610   8.107  35.754   3.818
95206W        W63611   1.074  10.727   1.741
95207W        W63612  14.568  18.144   2.461
95208W        W63613  41.719  33.953   3.236
95209W        W63614  35.872   3.421  12.012
95210W        W63615  34.026  40.619  14.461
95211W        W63616  25.997  11.072  12.625
95212W        W63617  42.413  25.708   1.222
95213W        W63618  24.574  43.917   1.990
95214W        W63619  27.130  14.594   2.809
95215W        W63620  34.109  22.455  11.906
95216W        W63621  16.757  15.395  12.940
95217W        W63622  21.828  32.885  11.587
95218W        W63623  22.073  40.859  12.455
95219W        W63624  15.510  19.347   3.507
95220W        W63625   9.090  24.369  13.409
95221W        W63626   8.503  11.394   3.738
95222W        W63627  33.156   5.589  11.942
95223W        W63628  41.944  19.569   1.404
95224W        W63629  42.105   9.816  10.790
95225W        W63630  32.985  24.199   3.302
95226W        W63631  34.207  36.848   2.943
95227W        W63632   2.488  40.902   0.249
95228W        W63633  14.752  41.715  10.710
95229W        W63634  29.178  13.846  13.062
95230W        W63635  40.910  17.553   1.454
95231W        W63636   1.578  40.008   1.750
95232W        W63637  19.073  27.074   1.790
95233W        W63638  36.825  43.007  13.558
95234W        W63639  10.604  20.995  13.849
95235W        W63640   7.402  23.090  12.499
95236W        W63641   6.773   6.620   4.285
95237W        W63642   9.783   2.470  13.846
95238W        W63643   4.935  17.698   1.536
95239W        W63644   6.697   9.862  14.883
95240W        W63645  44.302  42.364  11.039
95241W        W63646  22.955  40.074   3.295
95242W        W63647  42.061  28.101  14.783
95243W        W63648   9.223  33.307  10.232
95244W        W63649  37.882  36.187  13.655
95245W        W63650  28.997  26.716  11.621
95246W        W63651  38.358   6.326  10.884
95247W        W63652   6.363  12.843  10.787
95248W        W63653  44.488  35.514  14.824
95249W        W63654  10.686   8.149   2.019
95250W        W63655  18.352  44.278   1.840
95251W        W63656   3.671   2.207  13.023
95252W        W63657  17.356   2.207   0.672
95253W        W63658   5.354  28.796   0.718
95254W        W63659  44.540   9.665   1.502
95255W        W63660  18.084  43.777  11.921
95256W        W63661   6.231  42.699   1.305
95257W        W63662  11.279  35.381  10.882
95258W        W63663  22.950  39.413   1.672
95259W        W63664   1.821  15.314   3.146
95260W        W63665  23.635  42.315   0.177
95261W        W63666  17.838   4.598   0.216
95262W        W63667   2.458  42.031  10.739
95263W        W63668  33.184  33.789   2.525
95264W        W63669   5.983  29.642  12.109
95265W        W63670  19.115  39.009  11.688
95266W        W63671  16.307  27.410   4.159
95267W        W63672  24.725  11.162   2.376
95268W        W63673   5.649  31.634  13.394
95269W        W63674  34.469   5.128   0.296
95270W        W63675  21.765  21.641  14.915
95271W        W63676  10.321  17.216   2.367
95272W        W63677  11.715   6.714  11.998
95273W        W63678   8.547  32.829   4.172
95274W        W63679  40.777  30.067   1.640
95275W        W63680  27.939  29.524   3.228
95276W        W63681  40.469   4.994   2.742
95277W        W63682   4.658  16.860  14.092
95278W        W63683  15.575  20.307   0.953
95279W        W63684  43.267  24.833  12.891
95280W        W63685  32.386  35.883   1.783
95281W        W63686  24.104  23.128   3.725
95282W        W63687  25.220  17.154  12.683
95283W        W63688  32.225  38.030   0.248
95284W        W63689  33.506   0.528   4.877
95285W        W63690   5.396  25.134   4.257
95286W        W63691  13.129  15.795   3.399
95287W        W63692  44.862  25.608  12.846
95288W        W63693  13.561  42.846   0.378
95289W        W63694   4.828  23.086   1.937
95290W        W63695  12.868  14.082   2.199
95291W        W63696  39.080  27.081  10.947
95292W        W63697   3.375  33.270  14.547
95293W        W63698  27.955  25.233  10.402
95294W        W63699  11.685  17.285  14.609
95295W        W63700   2.396  21.351   2.400
95296W        W63701  12.032  18.701  12.595
95297W        W63702  44.033  43.188   1.762
95298W        W63703  43.023  14.651   0.839
95299W        W63704  40.078  31.023   1.488
95300W        W63705  31.778  37.896  11.645
95301W        W63706   1.009   7.414   3.689
95302W        W63707  28.190  24.454  14.461
95303W        W63708  16.212  17.812   0.317
95304W        W63709  20.922   8.375   3.385
95305W        W63710  29.559   7.897   4.149
95306W        W63711   2.946  37.306  14.349
95307W        W63712  44.914  10.838   1.102
95308W        W63713  35.524  44.065  11.967
95309W        W63714  13.223  16.195  11.394
95310W        W63715  32.683  20.681   1.926
95311W        W63716  25.839  12.101  13.838
95312W        W63717  38.765  20.338  11.895
95313W        W63718  31.884  40.485   0.911
95314W        W63719  19.558   9.131  12.301
95315W        W63720  12.096   0.529  13.864
95316W        W63721  28.056  40.260   1.837
95317W        W63722   0.005  11.662  14.896
95318W        W63723   8.881  30.996  13.343
95319W        W63724   1.972  26.842   4.177
95320W        W63725   3.840  37.539  11.117
95321W        W63726  17.125  37.548  11.777
95322W        W63727  12.475   5.945   0.963
95323W        W63728  20.519  21.246   4.528
95324W        W63729   9.088  17.518  14.476
95325W        W63730  12.720  13.657  11.171
95326W        W63731  23.168  14.632   4.559
95327W        W63732  42.262  34.370   4.602
95328W        W63733  31.217   8.956   1.442
95329W        W63734   9.974  10.901  14.415
95330W        W63735  16.466  32.843  13.096
95331W        W63736  34.535  43.787  13.770
95332W        W63737   8.888  34.054   2.753
95333W        W63738   0.795  13.268  10.427
95334W        W63739   7.930   5.374   4.648
95335W        W63740   1.854  30.975  10.827
95336W        W63741  26.205  16.150  12.835
95337W        W63742  18.789  43.434  14.889
95338W        W63743  42.670  35.624   3.658
95339W        W63744  42.725  27.159   2.843
95340W        W63745  10.842  16.940   2.345
95341W        W63746  26.670  29.133   4.847
95342W        W63747  33.792  37.117  14.461
95343W        W63748  39.344  35.775   4.785
95344W        W63749  34.272  18.094   2.963
95345W        W63750  12.329  11.274  11.195
95346W        W63751  26.122  42.454  14.221
95347W        W63752  42.989  11.767  12.423
95348W        W63753  23.216  31.131   4.383
95349W        W63754  10.385  20.364   1.444
95350W        W63755  28.174  44.877   9.820
95351W        W63756  30.198  44.323  11.119
95352W        W63757  24.974  18.258   3.267
95353W        W63758   3.795  24.052  13.293
95354W        W63759   3.906  12.643  12.510
95355W        W63760  17.064  34.124  11.192
95356W        W63761  44.893  37.338   2.756
95357W        W63762  44.495  34.031   1.505
95358W        W63763   7.308   8.185   4.050
95359W        W63764  12.954  29.891   1.946
95360W        W63765  34.176   9.362   1.274
95361W        W63766  37.858  41.586   1.860
95362W        W63767  14.811  33.674   1.217
95363W        W63768  38.519  36.091  14.431
95364W        W63769  33.342  30.625  12.974
95365W        W63770  29.480  10.527  10.409
95366W        W63771  20.478   1.001   1.657
95367W        W63772  13.586   6.647   4.747
95368W        W63773  16.131   9.366  14.727
95369W        W63774  41.972  37.430  12.014
95370W        W63775  32.663   6.662   2.743
95371W        W63776  35.493  19.042  12.026
95372W        W63777  15.945  25.033  11.139
95373W        W63778  28.190  40.175  13.369
95374W        W63779  15.524   5.869  10.687
95375W        W63780   7.317  27.037   0.021
95376W        W63781  43.040  22.153  12.684
95377W        W63782   6.758  42.487   2.985
95378W        W63783   6.336  18.515  10.559
95379W        W63784   6.200  12.297   4.319
95380W        W63785   9.393  29.454  14.922
95381W        W63786  34.545  17.383   0.961
95382W        W63787  32.008  13.264  14.221
95383W        W63788  27.559   6.609  14.913
95384W        W63789  10.349   1.470   1.388
95385W        W63790  11.104  38.916   0.870
95386W        W63791  38.616  13.830  14.465
95387W        W63792  15.758  36.588  10.015
95388W        W63793  44.334  14.294   1.413
95389W        W63794  43.740  12.201   2.654
95390W        W63795  22.718  12.329   0.847
95391W        W63796  19.658  42.304  11.063
95392W        W63797  16.569  17.563  11.089
95393W        W63798  19.442  19.730  11.014
95394W        W63799  14.416  27.809  10.093
95395W        W63800  28.587  34.826   1.217
95396W        W63801  21.788  27.077  14.799
95397W        W63802  35.368  13.992   2.866
95398W        W63803  33.560  20.164   4.737
95399W        W63804  40.253  15.888   2.550
95400W        W63805   7.141  19.391   2.024
95401W        W63806  19.853  29.856  12.446
95402W        W63807  23.229   0.335   2.319
95403W        W63808  17.079   2.728   4.536
95404W        W63809  30.385  21.196   0.403
95405W        W63810  30.538  12.703   3.766
95406W        W63811  17.559  18.230   3.208
95407W        W63812  10.370  10.461   0.256
95408W        W63813  12.141   0.699   1.839
95409W        W63814  34.530  16.187  10.730
95410W        W63815  30.906  33.958   1.691
95411W        W63816  13.411   2.800   0.553
95412W        W63817  44.813  26.472  11.312
95413W        W63818   6.039   4.647   0.770
95414W        W63819   3.250  30.664   2.733
95415W        W63820  39.510  28.534   4.091
95416W        W63821   3.219  23.677   2.166
95417W        W63822   5.405   3.941   1.783
95418W        W63823  41.429  26.609   2.241
95419W        W63824  15.815   9.357  10.630
95420W        W63825  30.578  26.572   2.231
95421W        W63826  24.201  22.046  10.755
95422W        W63827  27.571  30.834  14.834
95423W        W63828  41.371   4.790  13.590
95424W        W63829  30.652  35.507  11.236
95425W        W63830  24.971  11.972   2.239
95426W        W63831  30.078  38.072  13.147
95427W        W63832   3.737   5.028  13.449
95428W        W63833  14.738  12.763  14.856
95429W        W63834  42.248  33.920   0.401
95430W        W63835  13.871  26.844   4.115
95431W        W63836  29.880  35.154   4.244
95432W        W63837  27.116  33.412   0.661
95433W        W63838  14.686  14.443   4.443
95434W        W63839  30.561   7.849   2.010
95435W        W63840  23.707  22.202   3.967
95436W        W63841   6.675  11.183   3.699
95437W        W63842  41.508  40.992  11.468
95438W        W63843  43.161   9.247  10.749
95439W        W63844  39.052  39.836  11.241
95440W        W63845  27.720  18.178   0.253
95441W        W63846   8.197  26.760   2.640
95442W        W63847   4.530  10.153   0.851
95443W        W63848  24.226  20.884  14.105
95444W        W63849  43.946  23.657   0.437
95445W        W63850  39.029  26.783   1.360
95446W        W63851   3.749  44.348  13.328
95447W        W63852  21.505  26.183  12.881
95448W        W63853  27.420  19.588   1.307
95449W        W63854  18.733  12.221  11.121
95450W        W63855  28.492  18.676  14.101
95451W        W63856  39.673  12.202   0.799
95452W        W63857  32.972  36.775  12.081
95453W        W63858  17.553   8.558  10.292
95454W        W63859  23.268   8.293   2.485
95455W        W63860   3.174  16.857  10.632
95456W        W63861  27.173  28.623  14.398
95457W        W63862  38.879   3.342  11.172
95458W        W63863  43.979  40.565   2.706
95459W        W63864  35.776  44.957  12.022
95460W        W63865  44.929   1.523  13.102
95461W        W63866  22.177  13.256  12.885
95462W        W63867  18.655   8.695   4.222
95463W        W63868  27.657  25.078  14.009
95464W        W63869  28.456   0.235  14.438
95465W        W63870  44.109   7.778   4.196
95466W        W63871  23.011   0.961  10.609
95467W        W63872  15.692  27.278   4.577
95468W        W63873   6.478  14.540  14.272
95469W        W63874  13.434  40.923   3.655
95470W        W63875  22.212  12.275  14.774
95471W        W63876   1.298   0.459  10.702
95472W        W63877  38.562  20.605   3.206
95473W        W63878  44.634   1.947  13.013
95474W        W63879  36.325  10.305   2.795
95475W        W63880  18.168   0.705   2.035
95476W        W63881   2.471  37.650   3.699
95477W        W63882  37.457  40.442  10.698
95478W        W63883  42.294   6.065   2.600
95479W        W63884  31.749   4.708  13.092
95480W        W63885  33.375  21.423  11.154
95481W        W63886  40.402  21.008  10.730
95482W        W63887   1.394  10.359   1.384
95483W        W63888  26.789   4.904   0.093
95484W        W63889  11.827  32.316  12.028
95485W        W63890  20.177  23.408  12.361
95486W        W63891   9.316   8.935  14.480
95487W        W63892   9.905  41.880  11.427
95488W        W63893   5.116  17.537   4.056
95489W        W63894  38.401   1.826   5.101
95490W        W63895  23.606  38.304  14.307
95491W        W63896  12.774  26.092  14.881
95492W        W63897  13.165  13.735  13.402
95493W        W63898  13.065  23.746  13.441
95494W        W63899  31.733   3.871  10.672
95495W        W63900   8.948  13.206  13.903
95496W        W63901   7.120  22.491   0.198
95497W        W63902   4.532  30.375   2.471
95498W        W63903  38.649  34.190   2.194
95499W        W63904  33.536  13.669  14.799
95500W        W63905  13.298  18.223   4.220
95501W        W63906   1.622  13.382   5.278
95502W        W63907  12.289  23.541  10.605
95503W        W63908  27.283  32.593   1.842
95504W        W63909   2.244  42.144   4.627
95505W        W63910  11.871  39.992  11.655
95506W        W63911   6.861  30.576   2.288
95507W        W63912  30.538  37.319  13.118
95508W        W63913  10.599  13.011   0.532
95509W        W63914   4.948  16.740  10.781
95510W        W63915  27.974  25.604  13.464
95511W        W63916   6.462  12.878  14.392
95512W        W63917  18.653   6.932  13.458
95513W        W63918  11.581   8.325   4.666
95514W        W63919  29.179   2.675   3.697
95515W        W63920  32.415  29.463   3.747
95516W        W63921  31.179  12.453  12.899
95517W        W63922  24.551  42.022   0.948
95518W        W63923  31.037  31.943   0.050
95519W        W63924  40.325  11.727   4.516
95520W        W63925  29.546  24.302   3.725
95521W        W63926  21.205  28.730  13.901
95522W        W63927  33.526  25.717  10.663
95523W        W63928   8.227  36.479  11.651
95524W        W63929  38.973  22.176   1.825
95525W        W63930   6.904  32.601   3.156
95526W        W63931  20.319  15.375  11.510
95527W        W63932  29.110   7.196   2.889
95528W        W63933  37.418  37.343   3.817
95529W        W63934  12.097  16.996   2.726
95530W        W63935  40.783   7.905   0.093
95531W        W63936   2.373  10.139  13.889
95532W        W63937  35.912  31.970  11.588
95533W        W63938  41.290   0.273   1.770
95534W        W63939  41.438  31.601  11.241
95535W        W63940  21.260   5.526  12.642
95536W        W63941   5.629  32.691  13.285
95537W        W63942  32.529  14.425   4.686
95538W        W63943   9.478  19.523   3.581
95539W        W63944  26.112  27.204   3.111
95540W        W63945  15.840  39.404   4.740
95541W        W63946  25.550  31.252  12.057
95542W        W63947   0.731   9.734   3.629
95543W        W63948   8.632  16.636   3.165
95544W        W63949  30.830  15.064   3.275
95545W        W63950  30.121  24.507  11.074
95546W        W63951  31.950   9.113   0.473
95547W        W63952  30.296   6.377   4.877
95548W        W63953  16.427   5.785  14.440
95549W        W63954  22.657   6.691   4.202
95550W        W63955  10.927   8.104  11.101
95551W        W63956   5.724  33.559   4.224
95552W        W63957  12.580  34.481   2.331
95553W        W63958  34.557   2.692   0.055
95554W        W63959  33.639  40.944  12.084
95555W        W63960  14.348   8.497   4.898
95556W        W63961  36.566   2.454  10.428
95557W        W63962  19.237  23.553   1.928
95558W        W63963  13.386  38.065   0.909
95559W        W63964   4.889  42.087   2.734
95560W        W63965  24.749  21.282   1.267
95561W        W63966  22.736  13.349  14.310
95562W        W63967   1.517  33.249   2.351
95563W        W63968  32.134   0.238  10.709
95564W        W63969  31.425   6.622   3.399
95565W        W63970  41.977  25.639   4.027
95566W        W63971   2.370  20.023  14.968
95567W        W63972  37.812  34.951   3.376
95568W        W63973   3.260  17.138  13.837
95569W        W63974  16.758  23.606   1.595
95570W        W63975  25.265  28.357  14.590
95571W        W63976  25.539  29.061   1.964
95572W        W63977  21.159  27.032  12.369
95573W        W63978  28.097  40.450   0.955
95574W        W63979  16.995  22.828   1.401
95575W        W63980  35.406   8.185   4.590
95576W        W63981  26.092   2.687   0.917
95577W        W63982  27.329  12.262   1.787
95578W        W63983   2.307  14.424   0.843
95579W        W63984  11.516   7.132   4.936
95580W        W63985   2.046   9.228  12.530
95581W        W63986  24.238  44.001   0.897
95582W        W63987  11.579  20.739  14.025
95583W        W63988  26.684  38.107   2.156
95584W        W63989  12.051   4.216  13.976
95585W        W63990  18.222  29.595   4.623
95586W        W63991   2.171  26.134  11.188
95587W        W63992  19.014  10.648   3.805
95588W        W63993  26.814  26.258   0.682
95589W        W63994  18.263   8.734  12.026
95590W        W63995  11.399   6.471  11.059
95591W        W63996  44.358   7.521   5.177
95592W        W63997  18.077  28.480  10.713
95593W        W63998   4.338  17.262  14.354
95594W        W63999  20.106  26.660  14.761
95595W        W64000  32.496  23.694   1.348
95596W        W64001  41.809  16.915   3.537
95597W        W64002  26.220  30.796  10.716
95598W        W64003  32.096  32.995   3.590
95599W        W64004  27.998  36.410   0.923
95600W        W64005   4.984  12.734   4.225
95601W        W64006   8.538   6.899  12.869
95602W        W64007  27.056   6.931   0.817
95603W        W64008   6.526  17.860  14.565
95604W        W64009  42.389  34.165  14.358
95605W        W64010  23.620   1.407   0.907
95606W        W64011  31.746  17.979   5.059
95607W        W64012  33.758   4.799  12.862
95608W        W64013  22.202   3.971  12.442
95609W        W64014  35.568  30.065   3.870
95610W        W64015  20.477  34.463   2.390
95611W        W64016  34.918  28.384  12.937
95612W        W64017  38.582  40.045   1.842
95613W        W64018  34.613   5.846  12.031
95614W        W64019  28.963   4.446   2.202
95615W        W64020  26.989  25.587  13.579
95616W        W64021  26.574  14.068  12.459
95617W        W64022   6.264  14.322  11.709
95618W        W64023  13.820  14.308   4.141
95619W        W64024  35.345  35.594  12.506
95620W        W64025  31.146  44.375  12.629
95621W        W64026  12.294  18.463   0.228
95622W        W64027  36.047  27.517   1.425
95623W        W64028  30.470  27.868  12.520
95624W        W64029  30.795   9.075   0.134
95625W        W64030  35.881  40.808   4.651
95626W        W64031  15.868  37.590   0.432
95627W        W64032  19.182   9.634  13.563
95628W        W64033  16.271  43.302   4.815
95629W        W64034  14.232  24.142  10.690
95630W        W64035  31.074   4.788   2.230
95631W        W64036  29.379  32.501   0.435
95632W        W64037  33.565  34.823  11.272
95633W        W64038   5.301  39.366  14.716
95634W        W64039  17.541   7.229  11.905
95635W        W64040   2.339  30.648  11.974
95636W        W64041  33.016   8.702   1.300
95637W        W64042  35.832   8.951   1.716
95638W        W64043  20.799  16.925   2.729
95639W        W64044  44.434   0.813   5.238
95640W        W64045  22.132   3.211  14.326
95641W        W64046   3.122  15.184  14.810
95642W        W64047   2.508  21.221   4.503
95643W        W64048  43.406   0.956  10.398
95644W        W64049  14.693  15.066  13.448
95645W        W64050  35.843   1.881   1.252
95646W        W64051  44.901   5.411   2.433
95647W        W64052  30.938   5.493   4.626
95648W        W64053  31.387  29.661  11.652
95649W        W64054  43.337  25.198  14.881
95650W        W64055  38.461  22.967  14.884
95651W        W64056  15.541  14.650  13.440
95652W        W64057   5.665  29.169   0.967
95653W        W64058   0.302  27.421   0.801
95654W        W64059  44.585   7.629  10.294
95655W        W64060  24.469  38.453   4.217
95656W        W64061   6.929   7.265   0.893
95657W        W64062   6.206   2.236   0.448
95658W        W64063  29.531  41.377  11.921
95659W        W64064   8.352   6.302  13.803
95660W        W64065  25.540  12.648   4.691
95661W        W64066  37.822  36.226  11.311
95662W        W64067   2.720   4.144   4.006
95663W        W64068  11.230   0.047   1.012
95664W        W64069  24.430  23.042   1.429
95665W        W64070  15.099  14.189   1.170
95666W        W64071  23.597   7.375  14.903
95667W        W64072   4.977  37.582  11.549
95668W        W64073  10.141  17.390   0.595
95669W        W64074  38.279  23.687   4.063
95670W        W64075  18.003   7.889   3.773
95671W        W64076  23.722  35.360   1.208
95672W        W64077  12.265  22.864   3.708
95673W        W64078  41.022  14.324  11.650
95674W        W64079  39.920  30.076  12.542
95675W        W64080  29.492   7.665   3.679
95676W        W64081  17.595  44.833   0.240
95677W        W64082   6.433  38.787  13.969
95678W        W64083  41.079  42.946   1.632
95679W        W64084  22.104  14.855  14.017
95680W        W64085   1.895  14.110   0.795
95681W        W64086  11.170   7.826   3.258
95682W        W64087   2.810  44.501   2.719
95683W        W64088  43.717  39.018   1.867
95684W        W64089  32.402  31.608  10.725
95685W        W64090  41.544  40.372   2.223
95686W        W64091  23.130  43.318   2.181
95687W        W64092  14.052  26.143  10.747
95688W        W64093  42.652  22.366   2.674
95689W        W64094  38.056  24.540   3.110
95690W        W64095  42.427   7.325  14.074
95691W        W64096  28.359  15.118   5.497
95692W        W64097  15.893   9.688   2.823
95693W        W64098  27.049  25.717   2.393
95694W        W64099   9.141  13.285  11.524
95695W        W64100  36.606  26.256   4.296
95696W        W64101  20.377   1.031   4.578
95697W        W64102  35.268  42.390   1.043
95698W        W64103  36.785  18.573   4.189
95699W        W64104   4.224  32.365   1.177
95700W        W64105   6.060  18.053   2.215
95701W        W64106  15.792  10.649  11.604
95702W        W64107  24.126  44.788   0.022
95703W        W64108  39.869   1.549   2.324
95704W        W64109   0.895   2.569   4.855
95705W        W64110  27.214  38.244  13.472
95706W        W64111   8.874  40.159  13.807
95707W        W64112  11.311   9.456  12.445
95708W        W64113  26.146  41.333  14.805
95709W        W64114  38.996  34.152  10.635
95710W        W64115  14.413  21.195   1.003
95711W        W64116  22.078  14.535  12.421
95712W        W64117  11.068  43.127  13.448
95713W        W64118  23.132  26.880   3.642
95714W        W64119  18.091   8.092   1.801
95715W        W64120  39.013  23.899  11.194
95716W        W64121   9.963  35.484  12.031
95717W        W64122   4.890  13.621   4.139
95718W        W64123  13.883  21.754   3.572
95719W        W64124  16.261   9.143   3.655
95720W        W64125  26.439  42.463   0.189
95721W        W64126  44.329  22.184  10.122
95722W        W64127   7.313  28.154   4.487
95723W        W64128  25.406  40.943  13.771
95724W        W64129  10.424  33.326   1.219
95725W        W64130  35.956  38.089   2.653
95726W        W64131  31.877  17.564   4.768
95727W        W64132  23.147  39.250  13.865
95728W        W64133   4.745  25.037   4.904
95729W        W64134   5.683  31.615  14.819
95730W        W64135  36.937  14.456  12.871
95731W        W64136  43.491  34.335  12.941
95732W        W64137  38.616  32.043  13.597
95733W        W64138   2.511  28.415  11.544
95734W        W64139  30.220  21.673   2.594
95735W        W64140  23.705  12.120  12.407
95736W        W64141  42.043   0.447   1.343
95737W        W64142  18.207   3.773   3.619
95738W        W64143  21.615  12.181  13.128
95739W        W64144  35.125  11.304  11.635
95740W        W64145  37.387  15.817   2.717
95741W        W64146  41.527  31.049  11.880
95742W        W64147   4.271   3.216   3.858
95743W        W64148   2.159  38.620  13.853
95744W        W64149   9.813  38.993   3.742
95745W        W64150  19.078  24.490  14.434
95746W        W64151   0.866  26.169   2.542
95747W        W64152  38.413  44.804  11.571
95748W        W64153  12.127  34.637   3.221
95749W        W64154  26.198  34.770   4.246
95750W        W64155  16.096  41.964   0.984
95751W        W64156  36.619  14.643   0.904
95752W        W64157  43.054  13.740   2.083
95753W        W64158   5.769  12.335   4.039
95754W        W64159   2.257  41.579  11.039
95755W        W64160  23.499  44.037  13.013
95756W        W64161   3.284  30.896   0.227
95757W        W64162  27.061  43.019  14.998
95758W        W64163   2.366  11.418   3.701
95759W        W64164  23.833  28.963   0.831
95760W        W64165  12.577  38.070   4.112
95761W        W64166  24.967  34.557   0.934
95762W        W64167   7.645   5.871  13.958
95763W        W64168  43.943   1.282  14.246
95764W        W64169   9.777  16.640   3.369
95765W        W64170  30.965  24.583  13.848
95766W        W64171  29.088  32.645   0.873
95767W        W64172  24.926  41.849  14.982
95768W        W64173  28.007  33.666   5.131
95769W        W64174  16.963  29.707   4.600
95770W        W64175  39.500  20.191   3.108
95771W        W64176  44.730  26.988   2.824
95772W        W64177  15.664   3.369   2.768
95773W        W64178   6.912  19.345  14.447
95774W        W64179  19.182  38.367  12.087
95775W        W64180   6.284  12.708   2.141
95776W        W64181   4.143  23.457   3.561
95777W        W64182   3.852  36.519  11.044
95778W        W64183   8.172  26.073   0.417
95779W        W64184  40.453  13.828  13.808
95780W        W64185  30.181  43.726  14.273
95781W        W64186  21.280  43.786   2.014
95782W        W64187   0.776  32.357   2.899
95783W        W64188  23.804   3.547  10.685
95784W        W64189   6.854  14.216  12.000
95785W        W64190  32.192  43.090  14.809
95786W        W64191  24.714  15.324   1.425
95787W        W64192  44.015  42.428  11.484
95788W        W64193  27.123  23.891  13.996
95789W        W64194  36.626  37.472  11.274
95790W        W64195  39.821  36.988   0.024
95791W        W64196  13.207  37.596   2.593
95792W        W64197  38.930  33.494  11.755
95793W        W64198   2.949  40.485  13.571
95794W        W64199  11.344  17.655  14.486
95795W        W64200   7.319  38.040   4.111
95796W        W64201  27.677   7.338   2.883
95797W        W64202   1.480   9.951  11.473
95798W        W64203  35.963  38.574  13.419
95799W        W64204  41.299  41.298  12.336
95800W        W64205  17.420  40.022  12.814
95801W        W64206  41.482  26.734  13.409
95802W        W64207   5.255  20.620  13.893
95803W        W64208  12.307  34.939  11.502
95804W        W64209  37.008  25.680   0.381
95805W        W64210  21.108  37.291   1.813
95806W        W64211  41.019   7.261  10.843
95807W        W64212  34.586  17.630   1.442
95808W        W64213  12.387  13.369  13.882
95809W        W64214   6.610  23.113   0.832
95810W        W64215  35.643  35.486   1.330
95811W        W64216  18.024  27.122   4.187
95812W        W64217  38.727  27.091  12.540
95813W        W64218  27.452   0.955   3.641
95814W        W64219  38.097   0.043   2.289
95815W        W64220  32.964  18.149   1.173
95816W        W64221  12.822  24.206   3.273
95817W        W64222  16.479  14.086  12.771
95818W        W64223   3.449  43.850   1.343
95819W        W64224  26.635   1.430  14.564
95820W        W64225  38.364  16.371  13.079
95821W        W64226   9.424   3.006  12.067
95822W        W64227  15.762  11.250  13.900
95823W        W64228  14.840  39.394  12.063
95824W        W64229  36.645   0.792  12.974
95825W        W64230  39.281  31.682   1.734
95826W        W64231   7.351  22.645  14.764
95827W        W64232  39.657  26.647   3.558
95828W        W64233  29.527  42.374  13.409
95829W        W64234  37.383   1.077   2.706
95830W        W64235  15.769  15.261   0.502
95831W        W64236  11.290   6.897  11.676
95832W        W64237  15.262  26.112  13.136
95833W        W64238  42.244  42.416   3.205
95834W        W64239  23.982  15.156  12.286
95835W        W64240   6.338   4.299  12.545
95836W        W64241  25.221  20.019   1.868
95837W        W64242  16.646  18.643   4.380
95838W        W64243  34.847  15.098   3.737
95839W        W64244  32.368  17.343  13.078
95840W        W64245   3.283  35.761  11.120
95841W        W64246  29.166  35.472   4.216
95842W        W64247  10.873  36.983   2.369
95843W        W64248  12.652  14.617  10.888
95844W        W64249  12.817  36.024  11.136
95845W        W64250  29.566  43.773  13.995
95846W        W64251  32.847  10.384   2.771
95847W        W64252  31.988  42.877  10.781
95848W        W64253   7.189  13.086  12.450
95849W        W64254   7.911  28.979   1.704
95850W        W64255  11.716   8.750   2.587
95851W        W64256  33.055  35.531   4.269
95852W        W64257  42.024  39.126  11.906
95853W        W64258  39.493  14.399  11.085
95854W        W64259  21.060  18.330  14.959
95855W        W64260   6.863  30.262   0.763
95856W        W64261  44.534  32.440  11.571
95857W        W64262  42.967  42.567   1.688
95858W        W64263  39.926  38.474   0.390
95859W        W64264  16.906  35.320   2.370
95860W        W64265  15.717  36.604   1.834
95861W        W64266   9.713  22.246   1.828
95862W        W64267  20.240   2.738   3.387
95863W        W64268  28.658  41.607  13.513
95864W        W64269   7.306   1.750   3.673
95865W        W64270  27.474   5.249  12.981
95866W        W64271  20.097  37.053   3.152
95867W        W64272  37.949   3.606  14.429
95868W        W64273  22.753   4.347   3.842
95869W        W64274   1.549  43.017   3.579
95870W        W64275   1.920   3.033   1.392
95871W        W64276  27.401  27.523  14.089
95872W        W64277  22.036  31.117  14.951
95873W        W64278  20.525  20.786  12.230
95874W        W64279  17.510   9.279  14.535
95875W        W64280  17.810  19.996   2.715
95876W        W64281  11.260   7.681  11.198
95877W        W64282  15.070  34.076  12.037
95878W        W64283  11.374  23.649  11.017
95879W        W64284   2.443  24.339  11.663
95880W        W64285  14.265  41.867   0.707
95881W        W64286  14.475  14.638   3.798
95882W        W64287  38.993  42.268  13.164
95883W        W64288  44.935  18.074   3.707
95884W        W64289  31.157  12.961  10.786
95885W        W64290   2.429  38.941  11.451
95886W        W64291   1.070   1.971  14.795
95887W        W64292  22.268   8.782   2.329
95888W        W64293  19.262  40.589   2.146
95889W        W64294  33.099  29.726  12.890
95890W        W64295  28.147   4.271  14.767
95891W        W64296   5.270  40.736   2.325
95892W        W64297  39.064   6.431  12.490
95893W        W64298  32.933  31.718  14.339
95894W        W64299  16.183  28.139   2.538
95895W        W64300  32.023   2.207  12.796
95896W        W64301  18.784  23.701  12.999
95897W        W64302  18.326  33.636   3.741
95898W        W64303   3.519   3.909  12.581
95899W        W64304  34.442  16.969  11.526
95900W        W64305  12.603  33.504  12.017
95901W        W64306  20.629   2.528  11.931
95902W        W64307  37.009   8.851  14.746
95903W        W64308  11.261  14.644   2.394
95904W        W64309  23.669  27.569  13.481
95905W        W64310   6.284  42.815   4.549
95906W        W64311  44.574   1.006   0.932
95907W        W64312  13.186  28.623   4.180
95908W        W64313  44.720  30.111   1.308
95909W        W64314  21.958  42.410  13.410
95910W        W64315  32.194  11.210   2.928
95911W        W64316  36.100  42.713   2.786
95912W        W64317  18.267  17.646  10.732
95913W        W64318  12.314  10.290  10.199
95914W        W64319  10.736  27.537   2.884
95915W        W64320  22.388  27.924   3.111
95916W        W64321  33.318   2.778  11.897
95917W        W64322  26.035   1.757  12.634
95918W        W64323  24.270  41.746   4.119
95919W        W64324  44.081  43.368   0.241
95920W        W64325  23.171   7.576   4.168
95921W        W64326  36.157  32.605  12.811
95922W        W64327  16.349  39.492  13.451
95923W        W64328   0.305  18.159   2.727
95924W        W64329  41.162  43.941   2.058
95925W        W64330  19.197  27.548   0.216
95926W        W64331   1.795   8.431   3.149
95927W        W64332  10.070  11.398  11.184
95928W        W64333  36.977  23.496  12.456
95929W        W64334  43.255   5.838  14.007
95930W        W64335   8.273   5.216   0.875
95931W        W64336  15.070   9.314   4.162
95932W        W64337  42.738  29.267   1.170
95933W        W64338  19.718  31.766   2.717
95934W        W64339  40.272  17.170  14.608
95935W        W64340  34.883  39.298  13.463
95936W        W64341  33.593  38.676  11.986
95937W        W64342  24.157   9.142   3.775
95938W        W64343  13.662   4.373  13.948
95939W        W64344  36.432  20.531  12.285
95940W        W64345  22.785   2.343   3.790
95941W        W64346  38.606  23.158   1.306
95942W        W64347   8.407  34.676  12.433
95943W        W64348  20.080  14.148   4.327
95944W        W64349  15.103  42.609  11.502
95945W        W64350   1.475  43.332   0.263
95946W        W64351  33.454  23.334  13.008
95947W        W64352  39.664  26.472   3.031
95948W        W64353  37.046  29.058  13.568
95949W        W64354  26.386  34.492   3.639
95950W        W64355  37.034  44.899   2.379
95951W        W64356   1.013  16.097  12.945
95952W        W64357  12.221  36.789   0.291
95953W        W64358   1.299  16.775   2.333
95954W        W64359  21.073  27.263   1.119
95955W        W64360  21.185  11.564   0.781
95956W        W64361  13.285  27.859  10.407
95957W        W64362  26.124  17.637  14.857
95958W        W64363   6.731  10.560  10.573
95959W        W64364  21.220  36.327  12.246
95960W        W64365  31.509  44.513   2.612
95961W        W64366  38.819   7.596   4.166
95962W        W64367  31.032  43.901  12.438
95963W        W64368   4.014  19.130  11.613
95964W        W64369   1.691  42.687  11.795
95965W        W64370  24.954  41.470   0.585
95966W        W64371  19.195   7.499   2.178
95967W        W64372  26.997  19.333  12.471
95968W        W64373  14.797  23.006  10.685
95969W        W64374  23.091   1.740  12.402
95970W        W64375   4.663  23.017   2.821
95971W        W64376   1.436   6.692  14.306
95972W        W64377   7.216  17.163  10.687
95973W        W64378   8.791  18.508   2.207
95974W        W64379  29.023  33.801  14.451
95975W        W64380  41.889  19.718   5.335
95976W        W64381  44.387  20.293   3.586
95977W        W64382  33.165  32.815   0.878
95978W        W64383  41.031  14.267  13.470
95979W        W64384  35.271  41.157   0.450
95980W        W64385  31.789   0.101   1.414
95981W        W64386  13.745  27.579   0.205
95982W        W64387  30.414  23.352   3.891
95983W        W64388  11.574  44.550  11.131
95984W        W64389  17.751   5.445  12.519
95985W        W64390  17.655  38.110   1.397
95986W        W64391   6.241   8.622   0.783
95987W        W64392  40.870  44.017   3.765
95988W        W64393  16.102  12.450   2.814
95989W        W64394  33.701  13.843   2.187
95990W        W64395  16.109  36.439   4.614
95991W        W64396  16.280  19.805   0.428
95992W        W64397  38.261  15.274  14.338
95993W        W64398   8.683  37.453  11.853
95994W        W64399  24.510  10.253   4.253
95995W        W64400  15.872  35.499  12.968
95996W        W64401  12.118   3.026  12.866
95997W        W64402  14.633  18.247  14.900
95998W        W64403   7.415   1.626  13.263
95999W        W64404   2.579  23.696  11.964
96000W        W64405  12.310  19.947  12.626
96001W        W64406  19.193  39.555   3.623
96002W        W64407  27.200   1.257   3.267
96003W        W64408   3.348  30.653  10.606
96004W        W64409  19.024  13.933   2.019
96005W        W64410  10.126  44.405  14.191
96006W        W64411  15.289  41.011   3.284
96007W        W64412  42.898  10.471  13.129
96008W        W64413  26.944  24.609   0.913
96009W        W64414  22.089  16.774   3.188
96010W        W64415   9.712  12.199   4.758
96011W        W64416  16.414  10.698  11.124
96012W        W64417   2.768  40.555   1.864
96013W        W64418  37.924  33.078  10.753
96014W        W64419   5.244  41.428  13.406
96015W        W64420   0.743   0.289  13.847
96016W        W64421  31.663   1.365  12.514
96017W        W64422  27.903  43.790  11.992
96018W        W64423  35.123   8.438   0.890
96019W        W64424  16.788  42.207   2.997
96020W        W64425  14.272  13.092   0.903
96021W        W64426  10.717  40.906   2.826
96022W        W64427  16.796  37.097   0.529
96023W        W64428  12.307   4.762   4.329
96024W        W64429  42.369  31.065  12.528
96025W        W64430  44.406  20.561   4.388
96026W        W64431   5.702  13.154  14.406
96027W        W64432  26.023  25.790   1.515
96028W        W64433  41.813  40.820   0.801
96029W        W64434   1.452   9.795  10.221
96030W        W64435  44.785   8.274  13.099
96031W        W64436  15.128  25.236  12.216
96032W        W64437  26.917  28.756   2.151
96033W        W64438   5.526  35.516   3.709
96034W        W64439  43.864   8.149  14.397
96035W        W64440  10.296  44.807  10.834
96036W        W64441   5.901  36.103   4.144
96037W        W64442  43.897  44.519   2.357
96038W        W64443   1.477   8.596   3.817
96039W        W64444  16.958  37.790  12.643
96040W        W64445  43.474  32.894  11.119
96041W        W64446  14.185  18.100  12.583
96042W        W64447  34.049  37.581  14.407
96043W        W64448   4.449  36.065  13.020
96044W        W64449  22.918   9.994  11.977
96045W        W64450  33.022  39.804  14.697
96046W        W64451  30.981   4.141   1.389
96047W        W64452  35.645  26.567  13.924
96048W        W64453   8.781  30.828   9.712
96049W        W64454   9.516   7.607   1.037
96050W        W64455  31.441  31.903   2.823
96051W        W64456  29.884  15.831   1.759
96052W        W64457  44.690  14.211  14.973
96053W        W64458  32.789  13.941  12.512
96054W        W64459  27.266  26.129   0.396
96055W        W64460  17.595  12.322  11.462
96056W        W64461  36.422  14.360   0.516
96057W        W64462  11.288  28.857   0.504
96058W        W64463  41.910   4.958  12.346
96059W        W64464  30.128   5.222   2.264
96060W        W64465  26.131  25.224   2.368
96061W        W64466  37.965  25.636   0.448
96062W        W64467  18.184   4.938  12.922
96063W        W64468  28.256  37.072   1.217
96064W        W64469  40.799   3.270  12.777
96065W        W64470  23.684   3.959  12.497
96066W        W64471  41.751  32.614   2.780
96067W        W64472  25.716   3.507  10.054
96068W        W64473  44.106   5.409  11.194
96069W        W64474  18.936  43.066   0.373
96070W        W64475  25.590   3.683   3.895
96071W        W64476  16.174  30.444   3.378
96072W        W64477   9.607   9.878  14.761
96073W        W64478   5.148  28.401   5.062
96074W        W64479  22.231  26.896   0.622
96075W        W64480  21.388  42.415  14.788
96076W        W64481   3.699  15.069   1.950
96077W        W64482   9.108   4.140  11.441
96078W        W64483  31.094  14.800   3.698
96079W        W64484  44.781  21.064  13.491
96080W        W64485  15.255   1.388   0.915
96081W        W64486  11.403   3.722   3.277
96082W        W64487  43.365  34.494  14.485
96083W        W64488   9.355   7.267   3.601
96084W        W64489  13.469   8.983   0.891
96085W        W64490  27.950   0.873   3.650
96086W        W64491  16.483  21.239  10.345
96087W        W64492  16.448   8.618  13.519
96088W        W64493  24.522  27.781  14.763
96089W        W64494  19.652  25.889   4.092
96090W        W64495   2.964  25.192  12.831
96091W        W64496  27.260  40.055  13.030
96092W        W64497  36.080  14.892   0.410
96093W        W64498  12.348  17.039   9.617
96094W        W64499  12.398  44.476   3.653
96095W        W64500   7.285  15.735   5.014
96096W        W64501  32.112  20.009  11.099
96097W        W64502  34.361  16.041   0.437
96098W        W64503  38.399   2.710  12.350
96099W        W64504  42.073   1.354   1.399
96100W        W64505  33.939  11.043   4.139
96101W        W64506   1.248  14.705   1.907
96102W        W64507  19.513  13.376   2.348
96103W        W64508  32.231  43.074   1.544
96104W        W64509  21.903  26.982  10.615
96105W        W64510  18.363   5.360   4.949
96106W        W64511  42.012  24.330  11.587
96107W        W64512  28.046  37.507   1.964
96108W        W64513  43.289  14.674   4.777
96109W        W64514  30.971  30.036  12.077
96110W        W64515   4.806  21.115  13.996
96111W        W64516  30.908  42.343   4.605
96112W        W64517  35.001  20.820  11.180
96113W        W64518   5.090   4.580  11.917
96114W        W64519  43.926   2.966   2.420
96115W        W64520  42.578   0.800   1.748
96116W        W64521   1.494  36.379   3.865
96117W        W64522  40.369  29.042  10.265
96118W        W64523  14.352  14.361  12.109
96119W        W64524  15.704  42.401   1.717
96120W        W64525  15.397  19.116  12.030
96121W        W64526  19.191   2.749   0.924
96122W        W64527  21.017   2.774  11.651
96123W        W64528  11.598   2.279  12.000
96124W        W64529  21.655   9.423   3.858
96125W        W64530  14.268  22.409  12.668
96126W        W64531  28.373  41.842   1.825
96127W        W64532  43.473  14.606  11.824
96128W        W64533  33.948  31.788   1.358
96129W        W64534  41.526  18.611   4.629
96130W        W64535   5.399  25.766   4.880
96131W        W64536  38.459  25.286  11.230
96132W        W64537  18.609  38.470  13.406
96133W        W64538  21.193  33.547  11.708
96134W        W64539  14.490   0.111  12.832
96135W        W64540  44.814  15.771  11.950
96136W        W64541  27.706   4.284   3.672
96137W        W64542  22.641  14.254   4.972
96138W        W64543  38.085  24.170  12.946
96139W        W64544  10.393   6.211   2.286
96140W        W64545  13.805  24.945  11.916
96141W        W64546  16.593  44.430   0.515
96142W        W64547   6.685  18.186  12.582
96143W        W64548  15.781  40.102   3.245
96144W        W64549  17.152   0.246  10.605
96145W        W64550   1.367  42.252   0.422
96146W        W64551   6.256  32.428   0.587
96147W        W64552  35.200  22.513   1.817
96148W        W64553  30.953  25.943  10.664
96149W        W64554  15.292  30.103  12.343
96150W        W64555   6.635  12.123   0.913
96151W        W64556  12.656  40.926  12.073
96152W        W64557  43.098  34.359   4.127
96153W        W64558  19.608  35.859   2.455
96154W        W64559  31.306  22.536   4.182
96155W        W64560  38.619  41.689   2.151
96156W        W64561   9.042  12.757  13.291
96157W        W64562  12.520   5.150   4.618
96158W        W64563  11.859   2.246  14.974
96159W        W64564   2.766  41.729  12.531
96160W        W64565  26.696  11.053   1.976
96161W        W64566  37.445   2.384  14.931
96162W        W64567   1.997  16.294   4.128
96163W        W64568  25.575  14.320   2.128
96164W        W64569  42.226  36.372  13.793
96165W        W64570  41.375   5.251   1.033
96166W        W64571  43.257  29.880  10.889
96167W        W64572  31.953   2.815  12.089
96168W        W64573  31.300   6.383   1.205
96169W        W64574   2.636   7.268   2.800
96170W        W64575  44.833  22.549  14.102
96171W        W64576  19.324   1.721   3.558
96172W        W64577  20.987   4.940   4.916
96173W        W64578  26.129  33.588  13.499
96174W        W64579  31.887  16.537  11.099
96175W        W64580  40.620   7.929   5.029
96176W        W64581  44.029  37.576   1.729
96177W        W64582  27.913  28.086  13.069
96178W        W64583  43.465  43.050   3.836
96179W        W64584  43.212  27.803  12.077
96180W        W64585  42.276  33.544   4.294
96181W        W64586  25.123  34.007  14.870
96182W        W64587  15.840  15.986  10.578
96183W        W64588   8.324   2.318  14.020
96184W        W64589  21.719   8.469   3.714
96185W        W64590  35.338  18.026   2.397
96186W        W64591  38.633  22.673  13.549
96187W        W64592  11.742  44.010  13.095
96188W        W64593   7.316  21.998   1.348
96189W        W64594  20.105  21.082   4.284
96190W        W64595  15.365  40.443   1.889
96191W        W64596  26.544  35.496  10.901
96192W        W64597  36.916   4.702   3.266
96193W        W64598   6.637  33.952   3.264
96194W        W64599  20.951   0.899  12.514
96195W        W64600  44.682  43.108  11.093
96196W        W64601  41.791  25.881  13.380
96197W        W64602   1.894   1.902   1.919
96198W        W64603  43.950  14.765  13.181
96199W        W64604  22.927  21.312   2.274
96200W        W64605  30.495  38.529   4.795
96201W        W64606   3.540  29.173  14.750
96202W        W64607  20.511  17.109   2.340
96203W        W64608  10.629  30.492   0.854
96204W        W64609  32.660  13.935   2.205
96205W        W64610  27.466  43.520   1.697
96206W        W64611  13.614  33.141  13.325
96207W        W64612  10.279   2.204   0.885
96208W        W64613   9.897  32.403   1.432
96209W        W64614   9.058   8.140  14.888
96210W        W64615  35.956   6.503  13.419
96211W        W64616  38.596  18.258  14.244
96212W        W64617   8.131  42.035   4.302
96213W        W64618  23.883  41.019  11.716
96214W        W64619  44.925  28.443   0.326
96215W        W64620   7.128  34.314  11.133
96216W        W64621  29.328  14.624   5.004
96217W        W64622  20.618  24.969  13.957
96218W        W64623  12.710  40.870  14.989
96219W        W64624   6.294   0.800  10.180
96220W        W64625  30.155  40.382   1.079
96221W        W64626   5.142  30.362  14.780
96222W        W64627  10.267  39.284   3.612
96223W        W64628  40.437  34.904   0.435
96224W        W64629  26.067   9.865   4.198
96225W        W64630   1.045   1.893   0.714
96226W        W64631  33.395  23.433  14.079
96227W        W64632   5.576  25.662   2.017
96228W        W64633  20.124  41.009  11.143
96229W        W64634  42.191   5.907   0.313
96230W        W64635   1.719  15.091   2.680
96231W        W64636  11.902   2.823   2.850
96232W        W64637  21.070   3.734   2.318
96233W        W64638  10.740  24.769  12.980
96234W        W64639  41.191   0.449  11.708
96235W        W64640  21.065  36.550  14.312
96236W        W64641  27.828  34.356   2.361
96237W        W64642  38.931  21.626   0.409
96238W        W64643  13.839   7.362   3.264
96239W        W64644  13.344  34.864  13.161
96240W        W64645  12.983  11.282   1.789
96241W        W64646  25.967  33.467  14.837
96242W        W64647  15.130  12.616   0.788
96243W        W64648   7.362  24.147   0.469
96244W        W64649  30.725  12.058   2.284
96245W        W64650  40.427  12.632   4.106
96246W        W64651  29.703  24.448  12.882
96247W        W64652  22.655   2.945  10.696
96248W        W64653  38.330   1.941  13.660
96249W        W64654  18.832  26.294   1.231
96250W        W64655  14.183  32.566   3.903
96251W        W64656  39.324  31.948  13.941
96252W        W64657  23.652  18.349   4.578
96253W        W64658  18.554  13.203   1.327
96254W        W64659  20.207  29.594  14.468
96255W        W64660  29.969  27.581   0.181
96256W        W64661  13.160  25.150  13.849
96257W        W64662  33.968  16.604  14.573
96258W        W64663  12.884  36.858   4.147
96259W        W64664  44.532  18.728  14.831
96260W        W64665  21.297   6.381   1.478
96261W        W64666  15.177  30.046  12.839
96262W        W64667  34.695  42.668   2.864
96263W        W64668  27.672  25.198  13.521
96264W        W64669  38.352  14.293  14.435
96265W        W64670  32.959  14.545  12.582
96266W        W64671  19.314   8.098   1.431
96267W        W64672  38.683  23.448   1.972
96268W        W64673  26.725  35.434   0.220
96269W        W64674  17.276  18.588  12.536
96270W        W64675   8.215   9.353  14.299
96271W        W64676  13.608  20.320   0.408
96272W        W64677  42.171  40.092  12.184
96273W        W64678  36.129  27.136  10.855
96274W        W64679  34.554  18.125   4.123
96275W        W64680  22.726  33.057   3.680
96276W        W64681  21.955  23.682   4.198
96277W        W64682   7.833  32.991  13.261
96278W        W64683  35.940  23.654  11.522
96279W        W64684  24.639  38.826   2.387
96280W        W64685  31.453  43.278   1.359
96281W        W64686  38.476   6.645   4.512
96282W        W64687   5.662  10.299   2.228
96283W        W64688   4.345   6.159   2.167
96284W        W64689  34.960  38.482  13.069
96285W        W64690   2.247  44.972  14.969
96286W        W64691  32.338   3.723   5.109
96287W        W64692  27.489  29.385   1.830
96288W        W64693  32.448  29.717  14.982
96289W        W64694  38.360  26.195   0.795
96290W        W64695  21.496  39.879   3.185
96291W        W64696  34.344   9.190  14.864
96292W        W64697  15.760  26.071  10.989
96293W        W64698   3.033   0.755  13.076
96294W        W64699  24.269  43.903  14.221
96295W        W64700  18.174  25.644   1.331
96296W        W64701  30.290  18.615   1.806
96297W        W64702  42.409  17.641   2.993
96298W        W64703  34.993  10.790   2.148
96299W        W64704  35.528  35.142   0.951
96300W        W64705   7.269  34.792  11.143
96301W        W64706   5.483  14.251   4.026
96302W        W64707   8.682  20.084  12.421
96303W        W64708  11.781  31.481   3.650
96304W        W64709  34.600  23.758  12.020
96305W        W64710  40.370  11.833   2.999
96306W        W64711  15.343  20.701   2.633
96307W        W64712  13.394  31.666   1.956
96308W        W64713  10.298  23.221  12.025
96309W        W64714  15.751  30.006  11.168
96310W        W64715  13.325  15.231   4.885
96311W        W64716  39.011  35.906   1.303
96312W        W64717  38.997  12.446   3.652
96313W        W64718   1.222  35.947   5.191
96314W        W64719  31.383   8.902  11.525
96315W        W64720  31.433  42.009  10.174
96316W        W64721  14.674   9.129   0.356
96317W        W64722   1.779  25.090   2.273
96318W        W64723  41.358  38.144   2.768
96319W        W64724  10.808   4.986   1.750
96320W        W64725  42.254   5.886  11.928
96321W        W64726   4.229  27.136   4.065
96322W        W64727  18.072  31.468  13.970
96323W        W64728  31.048   5.679  14.875
96324W        W64729   9.828  41.183   2.444
96325W        W64730  39.860  21.022   2.044
96326W        W64731  22.091   3.963   4.395
96327W        W64732  29.119  40.755   0.277
96328W        W64733   5.361   2.980   3.221
96329W        W64734  34.145  18.781   2.596
96330W        W64735  34.967  21.633  10.713
96331W        W64736  11.724  35.181  10.732
96332W        W64737  39.935   6.414   1.123
96333W        W64738  21.358   8.896  14.933
96334W        W64739  20.736  20.610   3.210
96335W        W64740  11.959  35.124   3.836
96336W        W64741   3.038   4.899  11.511
96337W        W64742  23.564  33.862   4.200
96338W        W64743   8.817  42.187   2.765
96339W        W64744  29.139  26.721   3.616
96340W        W64745  23.531  21.255  13.874
96341W        W64746  12.068  43.492   2.268
96342W        W64747  23.210   6.097  14.495
96343W        W64748  42.741  43.283   4.094
96344W        W64749  29.199  12.239  12.204
96345W        W64750  13.707  29.626   4.656
96346W        W64751  25.087  28.861  14.470
96347W        W64752  43.999   6.675  14.576
96348W        W64753  42.715  10.560  13.934
96349W        W64754  13.266   1.736   1.852
96350W        W64755  38.526  22.006   4.487
96351W        W64756   2.246  25.780  11.549
96352W        W64757   8.765  32.022   4.557
96353W        W64758  31.638  26.146   4.464
96354W        W64759  31.068  14.865  14.538
96355W        W64760   1.255  29.711   3.684
96356W        W64761  20.789   7.714  13.234
96357W        W64762  42.527  25.115  12.196
96358W        W64763  34.598   3.718  14.967
96359W        W64764  42.853   4.327   2.770
96360W        W64765   6.421   5.207   2.290
96361W        W64766  19.960  33.470   2.287
96362W        W64767  18.556  10.308   3.658
96363W        W64768  39.333  44.711  14.823
96364W        W64769   5.734  21.748  12.896
96365W        W64770  27.051  20.631  12.159
96366W        W64771  24.177  11.875   1.920
96367W        W64772  43.958  10.148   2.210
96368W        W64773  35.495  21.037  11.117
96369W        W64774   8.333  34.038  12.470
96370W        W64775  34.898  20.089   4.919
96371W        W64776   1.324  17.144  11.217
96372W        W64777   8.809  29.637   1.944
96373W        W64778  11.779   1.755   3.593
96374W        W64779  40.548  34.332   2.251
96375W        W64780   9.612  22.719   0.494
96376W        W64781  28.059  31.833  12.064
96377W        W64782  40.463  41.903   0.628
96378W        W64783  24.587  25.047  14.631
96379W        W64784   3.924  29.124   1.407
96380W        W64785  16.564  22.319  11.147
96381W        W64786   5.325  23.201   1.306
96382W        W64787  20.083  44.291   4.675
96383W        W64788  12.235   1.322  11.374
96384W        W64789  19.178   1.304  14.104
96385W        W64790   7.499  15.015   2.750
96386W        W64791  12.431  13.742   2.199
96387W        W64792  18.134  13.126  11.529
96388W        W64793  10.318   7.439   2.416
96389W        W64794  17.397  41.623  13.744
96390W        W64795  28.151  14.326   9.815
96391W        W64796  13.345  19.282   1.706
96392W        W64797   7.855   0.751   2.225
96393W        W64798  35.137  36.974  14.753
96394W        W64799  39.142  18.599  12.971
96395W        W64800  22.183   1.853  12.465
96396W        W64801  29.385  21.299  13.853
96397W        W64802  26.492  33.016   2.305
96398W        W64803   8.837  31.802  12.567
96399W        W64804  31.419  43.504  11.308
96400W        W64805  30.173  33.520   4.699
96401W        W64806  39.360  36.898   1.217
96402W        W64807   1.175  32.522  11.646
96403W        W64808  42.448   6.401   0.316
96404W        W64809   1.970  14.393   0.304
96405W        W64810  24.785  12.327  12.874
96406W        W64811  28.501   9.143   2.337
96407W        W64812   1.684   7.792  11.629
96408W        W64813  29.042   8.875  12.054
96409W        W64814   6.667  28.747  12.084
96410W        W64815   1.558   9.673   0.965
96411W        W64816  13.366   9.862   3.642
96412W        W64817  35.016  33.065  14.496
96413W        W64818  19.064  34.956   1.833
96414W        W64819  37.408  18.067   0.450
96415W        W64820  20.095  24.566   0.378
96416W        W64821  28.668  12.817  13.652
96417W        W64822  20.114  35.016  14.995
96418W        W64823  19.028   9.766  12.816
96419W        W64824  39.331  13.285   4.789
96420W        W64825  36.064   5.271   1.714
96421W        W64826  16.853   4.492  12.326
96422W        W64827  25.932  37.642  11.589
96423W        W64828  38.021  15.940  10.148
96424W        W64829  14.685  26.473  12.999
96425W        W64830  21.300  43.736   3.353
96426W        W64831  17.304  22.100   0.393
96427W        W64832  15.899  17.809   2.784
96428W        W64833  29.674  18.279  12.797
96429W        W64834  10.346  17.728   0.933
96430W        W64835  22.239   7.386   1.715
96431W        W64836  11.329  31.780   3.693
96432W        W64837  35.372  10.481   3.667
96433W        W64838  25.213  12.553   3.877
96434W        W64839  35.471  37.944   0.372
96435W        W64840  43.806   9.669  11.637
96436W        W64841   4.951  42.258  11.640
96437W        W64842  18.287  44.287  14.857
96438W        W64843  34.027  16.435   2.983
96439W        W64844  44.253  30.917  14.530
96440W        W64845  11.280  16.310  13.193
96441W        W64846  28.292  35.304  11.185
96442W        W64847  23.010  25.573   4.539
96443W        W64848   4.193  38.049   0.502
96444W        W64849  37.339  15.362  11.087
96445W        W64850  19.092  28.743  14.504
96446W        W64851  33.952   9.153  11.913
96447W        W64852  16.326   6.945   0.159
96448W        W64853   8.390   1.738  11.844
96449W        W64854  29.125  27.201  11.580
96450W        W64855  11.045  32.106   4.014
96451W        W64856  33.687  11.985  11.195
96452W        W64857   2.356  41.831   2.759
96453W        W64858   8.753   0.867  13.869
96454W        W64859  10.323  11.706   1.756
96455W        W64860  13.884  13.907   1.301
96456W        W64861  28.552  16.037  14.913
96457W        W64862  37.091  23.466   3.239
96458W        W64863  42.137  19.845   0.505
96459W        W64864  35.928   5.474  11.634
96460W        W64865  20.726   2.763  13.829
96461W        W64866  19.291  22.344   0.235
96462W        W64867  10.889  40.226   0.091
96463W        W64868  14.207  20.638   4.705
96464W        W64869  28.454  17.808  14.284
96465W        W64870   0.780  19.093   2.681
96466W        W64871  27.342   4.469   4.058
96467W        W64872   7.350  36.586  14.726
96468W        W64873  43.068  15.503  10.271
96469W        W64874  20.549  31.126   4.280
96470W        W64875  24.200  43.311   3.143
96471W        W64876  28.857  31.975   3.220
96472W        W64877   1.014  40.301  13.993
96473W        W64878   6.264  38.853  14.454
96474W        W64879   1.979  33.895   3.648
96475W        W64880  13.299  43.258   4.556
96476W        W64881   0.964  22.017  12.877
96477W        W64882  18.220  22.417  12.981
96478W        W64883  27.133  22.076   2.332
96479W        W64884  37.294   0.285   4.276
96480W        W64885  20.555  21.049  14.637
96481W        W64886  35.270  23.127  11.246
96482W        W64887  31.179   0.298  11.061
96483W        W64888  16.587  24.808  14.802
96484W        W64889   6.707  31.434   2.269
96485W        W64890  41.443  21.486   3.724
96486W        W64891  38.945   5.527   0.462
96487W        W64892  32.436  32.364   1.382
96488W        W64893  37.309   2.035   3.151
96489W        W64894  19.075   4.847   2.930
96490W        W64895  29.443  22.425   4.163
96491W        W64896   4.831  26.469  10.767
96492W        W64897   6.103  10.061   0.840
96493W        W64898  26.588  17.619  11.604
96494W        W64899   1.853  31.403   4.333
96495W        W64900   5.655   4.972   0.433
96496W        W64901  42.987  20.657   4.183
96497W        W64902  19.055  28.123   1.186
96498W        W64903  44.279  41.202   0.793
96499W        W64904  17.817  36.436  10.806
96500W        W64905   2.950  41.535  12.010
96501W        W64906  34.385   6.148  12.364
96502W        W64907  42.476  22.158  11.161
96503W        W64908  40.306  39.408   1.782
96504W        W64909   4.788  36.683   4.102
96505W        W64910  37.465  27.092  12.160
96506W        W64911  18.718  33.866  13.753
96507W        W64912  32.735  17.383  11.579
96508W        W64913  14.024   9.120   0.866
96509W        W64914  23.552  14.290   0.800
96510W        W64915  35.026  10.504  11.961
96511W        W64916  41.121   3.778  10.372
96512W        W64917   6.848   0.907  14.511
96513W        W64918  15.483  43.814   1.920
96514W        W64919  15.667  16.328   4.668
96515W        W64920  17.271  29.161   4.028
96516W        W64921  18.080   2.777  12.130
96517W        W64922  31.107  39.837  14.086
96518W        W64923  35.724  16.785   4.481
96519W        W64924   7.889   7.348   3.639
96520W        W64925  35.561  11.260  12.525
96521W        W64926   2.735  31.145   3.552
96522W        W64927   9.339  38.293  11.915
96523W        W64928  12.832  10.854   2.923
96524W        W64929  10.259  32.406  14.233
96525W        W64930  30.730  41.782   3.755
96526W        W64931   9.335  42.065   4.184
96527W        W64932   8.526   0.404   1.643
96528W        W64933  16.529  34.508   2.368
96529W        W64934  30.172  12.287   0.934
96530W        W64935  35.867  24.805  12.578
96531W        W64936  17.075  37.072  11.966
96532W        W64937  34.776  24.829   1.834
96533W        W64938  33.382   4.944   1.860
96534W        W64939   5.451  20.656   3.397
96535W        W64940  39.391  21.540  14.448
96536W        W64941   1.170  21.967   0.760
96537W        W64942  30.177  12.120   3.439
96538W        W64943  29.613  12.518  14.403
96539W        W64944  38.181  31.468  11.089
96540W        W64945   6.741  31.523  14.879
96541W        W64946  27.471  12.247  11.610
96542W        W64947  33.802   3.985   0.259
96543W        W64948  16.947  18.655  14.181
96544W        W64949  21.651  26.176   2.968
96545W        W64950  23.650   2.216  13.520
96546W        W64951  26.662  43.779   3.246
96547W        W64952  32.143   0.003   0.505
96548W        W64953   1.725  31.075   0.255
96549W        W64954  11.711  32.614   1.013
96550W        W64955  29.410  35.292   5.078
96551W        W64956  15.688  38.071   0.988
96552W        W64957  24.413  13.025   0.559
96553W        W64958  44.936  34.113   2.660
96554W        W64959  22.738   0.871  11.037
96555W        W64960  25.484   3.290  13.865
96556W        W64961  21.428  15.389   1.326
96557W        W64962  28.020  23.236  13.007
96558W        W64963  41.497  17.332   2.181
96559W        W64964   1.431  42.034  10.714
96560W        W64965   1.345  31.427  14.774
96561W        W64966  42.818  14.024  14.480
96562W        W64967   4.702  35.567   1.688
96563W        W64968   9.821   5.399   1.008
96564W        W64969  23.391  31.507   4.695
96565W        W64970  24.185  40.821   4.019
96566W        W64971  28.452  21.754   4.626
96567W        W64972  26.707  44.567   3.698
96568W        W64973  13.931  29.912   1.828
96569W        W64974  37.519  31.050  14.760
96570W        W64975  18.515  26.619   4.628
96571W        W64976  38.863  31.337   4.164
96572W        W64977  17.792  41.616   2.013
96573W        W64978  22.120  28.708  13.878
96574W        W64979  16.378   4.680  12.042
96575W        W64980  25.855  41.824   2.329
96576W        W64981   7.010   6.922  11.759
96577W        W64982  28.103  32.567  14.797
96578W        W64983  39.986  13.103   3.102
96579W        W64984   3.491  23.955  14.255
96580W        W64985  38.602  36.085  14.962
96581W        W64986  43.912  30.605  14.730
96582W        W64987   6.539  21.239  13.886
96583W        W64988  26.176  37.000  13.873
96584W        W64989   0.825  23.251   0.894
96585W        W64990  17.879  27.677   3.241
96586W        W64991  44.718  41.135  12.989
96587W        W64992  20.659  28.020  13.948
96588W        W64993  34.890  36.955  13.912
96589W        W64994  28.062  11.311   0.733
96590W        W64995  26.652  21.268   3.727
96591W        W64996  27.038  44.074  11.225
96592W        W64997  28.820   1.756  12.150
96593W        W64998  21.944   8.679   1.314
96594W        W64999  38.322  19.637   4.985
96595W        W65000  25.155  33.472  13.392
96596W        W65001  43.041  31.852  12.858
96597W        W65002  37.526  35.521   3.776
96598W        W65003  27.881   2.234  13.422
96599W        W65004   3.552  19.225   1.307
96600W        W65005   5.448  16.967  10.845
96601W        W65006  10.168  24.513   2.496
96602W        W65007  15.655   2.944   4.568
96603W        W65008  35.420  17.448   2.376
96604W        W65009   0.756   7.625  10.326
96605W        W65010  29.544   6.329  12.810
96606W        W65011  33.757   6.210   3.779
96607W        W65012   9.757  36.640  12.580
96608W        W65013   9.402  24.147  11.592
96609W        W65014  24.528   5.974  13.837
96610W        W65015  32.074  42.771   4.537
96611W        W65016  15.598   8.842   2.443
96612W        W65017  27.899  34.941   0.795
96613W        W65018   8.585  19.983   3.728
96614W        W65019   8.937  18.232  13.860
96615W        W65020  36.507  38.052   4.085
96616W        W65021  39.471   5.277   3.190
96617W        W65022  32.174  44.821  13.923
96618W        W65023  38.095  26.705   4.501
96619W        W65024  12.893   6.234   2.483
96620W        W65025  23.296  19.665  14.896
96621W        W65026   1.143  15.936   0.744
96622W        W65027  39.194  32.230   4.179
96623W        W65028  20.545  31.953  14.290
96624W        W65029  11.125  13.413   3.086
96625W        W65030  15.749  40.412   4.206
96626W        W65031   8.873  37.938  11.899
96627W        W65032  39.326  26.038   3.872
96628W        W65033   6.683   2.385   4.808
96629W        W65034  41.761  44.259  11.085
96630W        W65035  41.476  44.484   0.263
96631W        W65036   6.678  32.436  14.787
96632W        W65037  35.235  15.697  11.642
96633W        W65038  34.137   9.599  13.859
96634W        W65039  32.415  30.083  14.588
96635W        W65040  29.655  30.955  11.158
96636W        W65041  18.061  24.831   4.052
96637W        W65042   4.290  32.145  14.408
96638W        W65043   7.168  23.943   4.169
96639W        W65044   3.664  25.155  11.126
96640W        W65045  13.558  36.843  13.859
96641W        W65046  41.769  41.519  10.686
96642W        W65047   3.481  28.266   0.261
96643W        W65048   9.314  28.978  11.216
96644W        W65049  22.526  40.924  13.117
96645W        W65050  31.475  44.464  10.353
96646W        W65051  25.610   4.908  11.133
96647W        W65052  31.127  40.682   1.829
96648W        W65053  35.936  16.693   2.209
96649W        W65054   8.835  43.490  13.215
96650W        W65055  30.410  10.880   2.262
96651W        W65056  40.633   7.276   0.480
96652W        W65057  38.360  37.473   4.762
96653W        W65058   1.145  14.332  14.633
96654W        W65059   4.263  40.417   0.552
96655W        W65060   3.584  36.440  13.809
96656W        W65061  22.975  29.722   4.518
96657W        W65062  34.450  22.642   1.348
96658W        W65063  30.617  19.664  10.410
96659W        W65064  13.473  37.764  12.901
96660W        W65065   2.039  23.192  13.923
96661W        W65066  26.785  10.141   0.916
96662W        W65067  21.606  14.274   2.241
96663W        W65068   7.179   0.565   3.234
96664W        W65069  18.204   3.478   4.637
96665W        W65070  18.505   4.954  12.115
96666W        W65071  19.832   7.202   2.722
96667W        W65072  17.966  36.308   3.196
96668W        W65073  16.345  13.385   0.233
96669W        W65074   9.894  23.023   3.765
96670W        W65075  35.503  17.426   3.049
96671W        W65076  39.856  37.042  12.852
96672W        W65077   6.255  38.464   1.277
96673W        W65078  22.865   6.498   2.241
96674W        W65079  33.331  42.334  12.618
96675W        W65080  31.640  20.008   3.305
96676W        W65081  10.426   6.244  13.823
96677W        W65082  37.142  34.892  14.313
96678W        W65083  18.679  39.741   0.649
96679W        W65084  28.744  40.826  12.992
96680W        W65085  25.139  17.307  12.198
96681W        W65086  36.861  40.622  12.069
96682W        W65087  40.923  12.187  10.651
96683W        W65088  23.423   9.755  10.445
96684W        W65089  11.868  42.959   2.969
96685W        W65090  43.991  32.481   3.082
96686W        W65091  16.736   3.205   0.918
96687W        W65092  39.080  27.091   4.885
96688W        W65093   6.183   8.511  14.898
96689W        W65094  27.646  43.121   5.029
96690W        W65095  43.048  18.194  12.905
96691W        W65096  40.505   4.206   3.305
96692W        W65097   5.227  21.986  12.836
96693W        W65098  44.388   7.305   0.192
96694W        W65099  27.305  38.603  14.307
96695W        W65100  15.534  27.782   4.603
96696W        W65101  12.247   1.737   3.336
96697W        W65102  28.520  18.134  14.791
96698W        W65103  19.834  32.609   3.769
96699W        W65104   2.372  40.608   3.162
96700W        W65105  26.820  33.705   3.215
96701W        W65106  12.557  19.164   2.223
96702W        W65107  38.434  21.177   3.119
96703W        W65108   6.218  31.039   0.900
96704W        W65109   4.298  20.035  12.524
96705W        W65110  25.930  43.980   3.727
96706W        W65111  22.557  38.022   4.663
96707W        W65112  34.939  27.937   2.199
96708W        W65113  34.336  32.430   0.315
96709W        W65114   4.747  21.228  12.153
96710W        W65115  19.868  40.936   4.353
96711W        W65116   3.311   4.054  10.119
96712W        W65117  41.834  43.451  12.077
96713W        W65118  18.690   7.183  11.238
96714W        W65119   7.116   6.269  10.681
96715W        W65120  12.724  31.569   1.152
96716W        W65121   8.700  25.059   3.728
96717W        W65122   9.281   9.374   3.910
96718W        W65123  34.435   6.923   3.854
96719W        W65124  44.890  16.060   0.375
96720W        W65125  18.610  31.032  10.471
96721W        W65126  10.444  29.940  12.419
96722W        W65127  17.645  16.253  11.644
96723W        W65128  33.835  27.635  11.514
96724W        W65129  38.625  24.247   1.722
96725W        W65130  20.175  38.611  10.917
96726W        W65131  37.444  13.376  13.574
96727W        W65132  11.850  28.596   1.354
96728W        W65133  15.099  37.434   3.115
96729W        W65134  33.108   1.566  13.611
96730W        W65135  37.847  22.076  13.945
96731W        W65136  14.226   2.451   1.831
96732W        W65137   8.173   2.428  13.525
96733W        W65138  42.256  18.992  12.478
96734W        W65139  39.261  28.881   0.003
96735W        W65140   0.542   0.746   0.993
96736W        W65141  13.172  12.363  11.670
96737W        W65142  23.797  43.309  12.694
96738W        W65143  29.024  37.406   2.229
96739W        W65144  39.083  27.578  14.970
96740W        W65145  15.449   4.592   0.318
96741W        W65146   1.461  42.854  13.570
96742W        W65147  38.427   5.967  10.088
96743W        W65148  24.445  27.170  12.548
96744W        W65149  13.744  23.491  10.897
96745W        W65150   6.169   8.345   1.799
96746W        W65151  22.762   9.696   2.255
96747W        W65152  19.345  40.921   4.336
96748W        W65153  18.179  11.778  10.295
96749W        W65154  23.577  19.638   0.348
96750W        W65155  37.464  13.531   3.307
96751W        W65156  42.691  14.248   0.914
96752W        W65157  43.622  25.983   4.188
96753W        W65158  18.049  31.824  14.332
96754W        W65159   3.179  11.623  11.593
96755W        W65160  11.280  39.019   4.637
96756W        W65161   1.027   7.495   9.654
96757W        W65162  29.467  38.498   2.814
96758W        W65163  34.920  19.735   1.896
96759W        W65164  14.226   8.182   3.995
96760W        W65165  40.432  22.686   3.584
96761W        W65166   2.347  35.024  13.418
96762W        W65167  12.614  32.683   0.169
96763W        W65168  14.574  29.388  14.887
96764W        W65169  40.481  24.584   4.844
96765W        W65170  23.277  11.659  13.298
96766W        W65171  29.452  26.007  10.956
96767W        W65172  21.407  31.584   4.529
96768W        W65173  31.706   7.905  11.554
96769W        W65174  21.114   6.732  14.694
96770W        W65175  37.421  30.888   2.406
96771W        W65176  43.790   0.893   1.365
96772W        W65177  44.061   3.812  12.921
96773W        W65178  22.095  20.958   3.409
96774W        W65179  12.763  20.351   2.831
96775W        W65180   0.911  18.704  14.834
96776W        W65181  36.213   7.833   2.173
96777W        W65182   1.296  24.707   0.425
96778W        W65183  25.643  35.155  12.934
96779W        W65184  24.378  21.453  11.965
96780W        W65185  23.278  43.510   2.697
96781W        W65186  32.591  21.997   2.711
96782W        W65187  24.181   4.491  11.435
96783W        W65188   9.270  22.543   4.226
96784W        W65189   2.313  37.079   2.722
96785W        W65190  32.903  19.831   0.955
96786W        W65191   9.455  33.316  14.773
96787W        W65192   8.289  19.120   1.325
96788W        W65193  42.211  19.075   2.808
96789W        W65194  25.155  11.969  12.969
96790W        W65195   5.618  30.738   0.686
96791W        W65196  15.449  38.102  14.808
96792W        W65197  20.975  14.573   3.331
96793W        W65198  37.005  28.023  13.478
96794W        W65199   8.250  27.211   1.194
96795W        W65200  25.111   6.409   0.221
96796W        W65201  31.923  11.042  12.630
96797W        W65202  20.503  32.789  13.687
96798W        W65203  35.593  19.708  13.717
96799W        W65204  27.084   8.748   3.651
96800W        W65205  29.766   6.689  11.171
96801W        W65206  43.298  42.747   5.064
96802W        W65207   3.392  21.676   3.309
96803W        W65208   0.868  38.243   0.537
96804W        W65209  30.589  28.986  13.084
96805W        W65210  36.026  11.240  14.893
96806W        W65211  28.666  14.549  14.119
96807W        W65212  18.268  21.993   5.001
96808W        W65213  16.423  34.470   1.838
96809W        W65214  17.202  22.293  13.973
96810W        W65215  30.422   0.968  13.391
96811W        W65216  23.076   7.665   1.292
96812W        W65217  38.312   0.507   4.579
96813W        W65218  33.916   7.786  11.599
96814W        W65219  18.216  41.019  14.035
96815W        W65220  28.669  29.641   4.324
96816W        W65221  29.023  34.993   2.085
96817W        W65222  42.270   4.149   0.759
96818W        W65223   0.410  30.391  11.691
96819W        W65224  43.779  15.321  10.924
96820W        W65225  19.241  25.644  14.275
96821W        W65226  21.491   8.288  11.178
96822W        W65227  43.513   6.603  12.064
96823W        W65228  23.639  21.109  12.898
96824W        W65229  23.210   5.681   2.470
96825W        W65230  33.701  13.260   3.781
96826W        W65231  31.002  25.830   2.242
96827W        W65232   4.653  24.720  10.515
96828W        W65233  41.601   5.773   4.039
96829W        W65234  32.513  42.901   1.136
96830W        W65235   1.354  12.149  10.989
96831W        W65236  24.743  38.505   2.834
96832W        W65237  24.922  15.411  12.406
96833W        W65238  21.728  17.962  10.707
96834W        W65239  37.456  33.384   2.383
96835W        W65240   5.861  29.954   2.687
96836W        W65241  17.587  41.050   1.254
96837W        W65242   8.901  17.573   4.554
96838W        W65243  34.852  10.736   4.598
96839W        W65244  29.371  33.802   1.695
96840W        W65245  29.106  19.403  10.304
96841W        W65246  12.204  16.563   2.989
96842W        W65247   3.918  33.243   1.144
96843W        W65248  17.014   1.244  14.371
96844W        W65249  31.634  18.834  10.662
96845W        W65250  13.588   7.724   4.093
96846W        W65251  29.129  18.256  12.945
96847W        W65252  26.118  20.958  11.608
96848W        W65253  37.044  29.402   2.475
96849W        W65254  14.411  27.551   3.195
96850W        W65255  18.879   0.171   1.819
96851W        W65256  35.652  37.486  11.458
96852W        W65257  25.677  39.754   1.005
96853W        W65258  35.197  26.502  13.055
96854W        W65259  39.762  20.682   0.622
96855W        W65260  12.521  12.676   4.274
96856W        W65261  22.953  14.826   3.233
96857W        W65262  32.636  26.287   0.497
96858W        W65263  36.776  18.257  13.387
96859W        W65264  12.594  27.766   0.781
96860W        W65265  15.527  22.252   4.838
96861W        W65266   1.858  24.522  11.745
96862W        W65267  22.165  15.211  11.229
96863W        W65268  13.724  26.505   2.402
96864W        W65269   4.788  35.058  12.515
96865W        W65270  40.265   5.853   3.862
96866W        W65271  36.793  37.859   0.809
96867W        W65272  43.166  22.505  14.441
96868W        W65273  15.787  37.929   3.286
96869W        W65274  33.420  44.564   3.927
96870W        W65275  43.847  30.606  12.787
96871W        W65276  41.903  32.622  12.559
96872W        W65277  14.311  24.317  11.950
96873W        W65278   7.434   3.478   2.216
96874W        W65279  38.081  44.331  14.008
96875W        W65280  38.533  29.580   3.731
96876W        W65281  43.413  27.422   0.203
96877W        W65282   4.428  31.372  13.705
96878W        W65283  30.070   0.356  14.943
96879W        W65284  42.007   8.407   0.436
96880W        W65285  37.448  22.420  11.477
96881W        W65286   2.544  32.959  11.753
96882W        W65287  28.950   0.816  13.647
96883W        W65288   8.773   6.428  14.429
96884W        W65289   2.484  33.797  10.680
96885W        W65290  42.773  20.501  12.940
96886W        W65291  12.563  24.225  14.184
96887W        W65292   6.505  28.118  12.945
96888W        W65293   2.035   9.609   2.817
96889W        W65294  22.123  26.505   0.972
96890W        W65295   9.929  34.703   1.956
96891W        W65296  39.543   9.140   0.483
96892W        W65297  38.523   1.792  10.193
96893W        W65298   2.037  29.992  12.442
96894W        W65299  17.547   1.683  11.587
96895W        W65300  16.871   0.306   0.056
96896W        W65301  30.464  25.976  12.957
96897W        W65302   0.715  33.138   3.299
96898W        W65303  28.613  43.897   2.413
96899W        W65304   7.786   4.341  12.584
96900W        W65305   9.566  33.729  13.783
96901W        W65306  15.863   9.377  12.023
96902W        W65307  36.810   5.986  11.626
96903W        W65308  24.958  15.027  13.700
96904W        W65309  39.905  34.622   4.862
96905W        W65310  44.796  10.316   3.996
96906W        W65311  14.750  27.889  10.496
96907W        W65312   1.713  14.591  11.863
96908W        W65313  33.010   3.912  12.117
96909W        W65314  29.630  42.895  13.415
96910W        W65315   2.323  33.381   2.157
96911W        W65316  34.877  43.563   3.277
96912W        W65317  12.452   9.916   2.353
96913W        W65318  14.144  35.890   3.057
96914W        W65319  43.525  30.376  12.106
96915W        W65320  43.905  21.007   1.345
96916W        W65321  25.224   5.240   0.907
96917W        W65322  22.720  19.626   4.259
96918W        W65323  43.773  26.700  12.241
96919W        W65324  41.002  22.662   1.272
96920W        W65325  43.122  18.790  12.253
96921W        W65326  10.869  20.099   0.809
96922W        W65327  38.395  12.017  12.473
96923W        W65328  44.248  33.133  12.867
96924W        W65329  13.886  10.313  13.543
96925W        W65330   5.858   0.976   2.215
96926W        W65331  25.449  31.965  14.848
96927W        W65332  40.065   8.117  12.583
96928W        W65333  43.340  32.582  14.172
96929W        W65334  35.901  37.955  11.550
96930W        W65335  36.909  38.157   2.670
96931W        W65336   8.195   8.473  14.702
96932W        W65337  38.050   7.318   1.401
96933W        W65338  24.965  21.529  13.855
96934W        W65339  13.228   5.323  12.516
96935W        W65340  30.011  42.396   0.182
96936W        W65341  28.599  22.307  13.873
96937W        W65342  33.802  41.726  11.224
96938W        W65343  13.142   6.277  10.672
96939W        W65344  16.414  16.828   1.936
96940W        W65345  16.665   3.660   3.148
96941W        W65346  36.501   6.390  14.899
96942W        W65347   2.296  41.940   1.874
96943W        W65348   1.730  43.770   0.697
96944W        W65349  32.111  26.592   1.518
96945W        W65350   1.961  32.318  14.948
96946W        W65351  21.545  44.664  14.387
96947W        W65352  21.642  43.776   1.161
96948W        W65353  13.369  27.374  13.344
96949W        W65354  35.530  38.332   2.815
96950W        W65355  40.131  32.029  13.341
96951W        W65356   9.825  10.854  12.482
96952W        W65357  17.593  18.746  10.713
96953W        W65358   6.716  11.248  11.930
96954W        W65359   0.439  13.215  11.707
96955W        W65360  27.047  23.244  14.897
96956W        W65361  38.141  21.996  12.487
96957W        W65362  40.439  32.344   2.635
96958W        W65363  25.956  24.260   4.127
96959W        W65364  15.110  13.249   1.212
96960W        W65365  10.229   9.732   1.493
96961W        W65366  21.069   7.055  10.795
96962W        W65367  36.932  35.111  13.133
96963W        W65368   8.414  39.355  14.140
96964W        W65369   7.130  12.197   2.820
96965W        W65370  26.841  11.735   0.499
96966W        W65371   6.717   8.816   0.674
96967W        W65372   7.859   7.961   0.415
96968W        W65373   4.625  20.311  11.779
96969W        W65374  33.439  35.767  11.326
96970W        W65375  41.377  37.785  11.683
96971W        W65376   0.884  30.441  11.556
96972W        W65377  24.741  19.612   4.067
96973W        W65378   1.405  41.309  14.490
96974W        W65379  43.579  13.207  10.744
96975W        W65380  17.116  25.219  12.465
96976W        W65381  30.019  28.455   1.414
96977W        W65382  12.321  16.603   3.477
96978W        W65383  36.337  31.495   4.149
96979W        W65384  18.109  27.497   0.804
96980W        W65385  32.326  40.336   4.208
96981W        W65386  29.738  15.603   2.187
96982W        W65387  27.817  41.750  12.546
96983W        W65388  35.783  34.184   1.680
96984W        W65389  10.772  41.740   2.001
96985W        W65390  39.264  34.565  10.382
96986W        W65391  32.521   0.285   1.099
96987W        W65392  43.984  14.598  13.661
96988W        W65393   9.318  31.632   4.562
96989W        W65394   0.480   6.275   2.271
96990W        W65395   7.239   1.553   2.295
96991W        W65396  27.454   9.426  12.455
96992W        W65397  39.864   5.292  14.481
96993W        W65398   2.984  42.426   0.294
96994W        W65399  12.671  37.435  10.805
96995W        W65400  40.904  15.102   1.637
96996W        W65401  28.448  14.923   1.456
96997W        W65402   7.062  20.484   1.292
96998W        W65403  11.784   2.984   3.757
96999W        W65404  10.403   7.950  11.123
97000W        W65405  38.768   0.767   4.240
97001W        W65406   1.746  22.751   3.036
97002W        W65407  30.426   2.429  13.344
97003W        W65408  33.512   0.872  14.010
97004W        W65409  28.418  36.520  14.018
97005W        W65410  40.892  35.652  11.959
97006W        W65411  29.683  26.487  10.929
97007W        W65412  18.793  10.638  13.816
97008W        W65413   5.312   8.657  12.424
97009W        W65414  25.295  41.661   1.421
97010W        W65415  38.947  35.917   3.573
97011W        W65416  17.658  34.816   4.066
97012W        W65417  26.138  41.565  14.334
97013W        W65418  23.451  13.346   3.793
97014W        W65419  39.011  25.105   2.288
97015W        W65420   7.270  27.949  14.517
97016W        W65421   4.918   9.017  12.363
97017W        W65422  29.380  12.364   2.642
97018W        W65423   6.110  13.169   4.178
97019W        W65424  18.040  27.689  11.524
97020W        W65425  22.763  15.738   4.864
97021W        W65426  11.571  10.817  13.525
97022W        W65427  13.347  42.455   1.491
97023W        W65428  26.386   4.942  10.590
97024W        W65429  22.701  10.286  10.699
97025W        W65430   5.912  32.791   3.081
97026W        W65431  25.060   0.916   3.233
97027W        W65432  15.775   6.096  13.861
97028W        W65433  41.660  32.520   1.756
97029W        W65434  31.589  22.047   5.009
97030W        W65435  28.295  30.013  13.805
97031W        W65436  10.160  32.993  11.152
97032W        W65437  12.579  12.975   3.841
97033W        W65438  11.318   6.134   4.036
97034W        W65439  33.952   0.532  10.666
97035W        W65440  15.096  28.667   1.908
97036W        W65441   3.286  39.509  12.878
97037W        W65442  34.225   4.738   4.310
97038W        W65443  42.424   6.369   3.289
97039W        W65444  12.883   1.447  13.198
97040W        W65445  33.531  10.822  14.932
97041W        W65446  20.835  23.920   4.479
97042W        W65447  28.117  28.411   2.176
97043W        W65448   0.746  27.300   4.512
97044W        W65449  33.146   6.463   2.740
97045W        W65450  24.252  38.197  14.303
97046W        W65451  35.608   4.257  11.655
97047W        W65452  43.190  39.441   0.437
97048W        W65453  38.086   9.774   3.760
97049W        W65454  14.529   8.172  12.941
97050W        W65455  40.010   0.805  10.524
97051W        W65456  38.360  30.746  12.028
97052W        W65457  20.949   4.408   3.744
97053W        W65458  39.435  36.312   1.839
97054W        W65459   8.045   5.292  10.564
97055W        W65460  16.051   5.896  10.987
97056W        W65461  12.577  44.335   2.698
97057W        W65462  18.500  36.892  11.099
97058W        W65463  36.988   0.435   1.809
97059W        W65464  39.416  43.950   3.608
97060W        W65465  26.141  18.193  14.488
97061W        W65466  42.814  30.040  12.501
97062W        W65467   7.391  24.512  14.956
97063W        W65468  28.558  10.170   0.489
97064W        W65469  17.731   1.364  14.855
97065W        W65470  36.908  17.745  11.939
97066W        W65471  41.461  23.696  10.692
97067W        W65472  11.938  44.929   3.197
97068W        W65473  34.287   7.715   4.243
97069W        W65474  20.768   5.255   0.613
97070W        W65475  16.872  31.965  12.155
97071W        W65476  31.413  27.040   3.381
97072W        W65477  12.263  11.828   4.547
97073W        W65478   5.242  21.871   0.301
97074W        W65479   0.434  42.544   3.701
97075W        W65480  29.007  36.036   4.673
97076W        W65481  34.608  14.665   0.448
97077W        W65482  13.334  33.070  12.861
97078W        W65483  36.278  28.436   4.548
97079W        W65484  28.673   4.219   4.526
97080W        W65485   7.188   0.381  12.525
97081W        W65486   7.589  44.400  10.258
97082W        W65487  25.043  26.084   4.316
97083W        W65488  41.019  15.790  11.671
97084W        W65489  31.233  29.072  12.381
97085W        W65490   8.590  26.068  14.152
97086W        W65491   5.971  29.141  11.969
97087W        W65492  37.606  11.430  11.181
97088W        W65493  44.342  31.425  13.814
97089W        W65494  27.185  12.087   4.971
97090W        W65495   5.854  34.034  14.799
97091W        W65496  37.090  42.891   0.858
97092W        W65497  43.289  29.904   3.909
97093W        W65498   1.101   4.868  13.351
97094W        W65499   9.397   4.408  12.034
97095W        W65500   8.936   2.223  12.006
97096W        W65501  20.190  40.377  10.770
97097W        W65502  12.780  41.102  11.613
97098W        W65503  17.035  11.823   3.049
97099W        W65504  27.770  32.498   1.996
97100W        W65505   0.069   0.727  11.511
97101W        W65506  26.481   7.821   0.904
97102W        W65507  37.533  18.516   0.214
97103W        W65508   3.332  31.594   0.825
97104W        W65509  37.830  18.650   2.308
97105W        W65510  26.788   7.871  13.416
97106W        W65511  30.985  33.416   2.675
97107W        W65512  39.471  40.587  14.438
97108W        W65513  14.579  35.663   3.186
97109W        W65514  30.603  19.809   3.360
97110W        W65515  16.462  25.111  12.004
97111W        W65516  31.984   2.093  10.361
97112W        W65517   5.863  13.611   4.249
97113W        W65518   5.929  37.084   2.720
97114W        W65519  28.054  31.036  13.492
97115W        W65520  18.850   2.700  11.722
97116W        W65521  25.073  16.367   4.876
97117W        W65522   8.265  21.050   0.949
97118W        W65523  34.344   8.057  11.305
97119W        W65524  40.953  12.296   4.675
97120W        W65525   5.953  31.996   0.049
97121W        W65526  19.107   8.214  11.257
97122W        W65527   9.095  31.811   5.314
97123W        W65528  23.868  36.387  11.422
97124W        W65529  44.952  43.777  12.651
97125W        W65530  14.311   3.401  14.911
97126W        W65531  18.339  37.447   3.837
97127W        W65532  43.255   8.618   2.323
97128W        W65533  42.492   3.470   1.307
97129W        W65534   2.688   1.549  11.047
97130W        W65535  12.056  17.212   4.562
97131W        W65536  26.806  36.486   3.299
97132W        W65537   2.257  41.836  12.479
97133W        W65538   5.956  20.687  13.298
97134W        W65539  20.018  18.102   0.624
97135W        W65540  11.541  27.490  11.182
97136W        W65541  20.526  43.983  13.054
97137W        W65542  23.447   9.524   4.511
97138W        W65543  15.636  27.954   0.358
97139W        W65544  11.849  39.377   2.722
97140W        W65545  42.834  43.510   2.442
97141W        W65546  24.523   5.640   1.205
97142W        W65547  32.442  11.742  11.688
97143W        W65548  20.074  23.061   2.706
97144W        W65549  28.932  13.681  11.465
97145W        W65550  27.583  32.391  11.827
97146W        W65551   1.088   5.822   9.973
97147W        W65552  14.143  17.633  12.856
97148W        W65553   4.832  13.866  10.477
97149W        W65554   4.636   4.362  11.925
97150W        W65555  29.190  31.683   2.969
97151W        W65556  10.815  43.136  12.924
97152W        W65557   8.615  27.700   2.723
97153W        W65558  26.152   4.223   3.389
97154W        W65559   3.614  36.146  12.996
97155W        W65560  10.681  32.905   1.365
97156W        W65561  26.540  12.821   1.878
97157W        W65562  23.722  12.222  10.747
97158W        W65563  18.824  13.310   3.863
97159W        W65564  24.929  26.403  14.845
97160W        W65565  18.538  43.001   4.601
97161W        W65566  36.321   3.874   4.717
97162W        W65567  42.929  32.093   0.408
97163W        W65568  36.986  39.380   0.250
97164W        W65569  33.974  34.333   2.715
97165W        W65570  26.066  37.983  10.960
97166W        W65571  29.454  12.623   3.586
97167W        W65572  15.544   9.066   1.914
97168W        W65573  25.124  19.051   1.787
97169W        W65574  20.285   7.272   4.580
97170W        W65575  10.107  38.295   1.407
97171W        W65576  16.148   4.009  14.295
97172W        W65577  13.345  41.771   0.713
97173W        W65578  29.649   6.230  14.849
97174W        W65579  22.685  27.694  12.384
97175W        W65580   7.796  17.763  14.411
97176W        W65581  17.081  18.769   4.642
97177W        W65582   7.889   0.109   2.809
97178W        W65583  26.896  12.564   1.597
97179W        W65584  36.107  27.375   3.714
97180W        W65585  22.738  15.143  12.876
97181W        W65586  37.701  29.413   4.932
97182W        W65587  13.098   3.606   1.026
97183W        W65588  32.059  19.510   4.558
97184W        W65589  21.057  22.208  14.748
97185W        W65590  21.373  18.646  13.423
97186W        W65591  42.169   8.848  10.680
97187W        W65592   0.389  40.809   4.373
97188W        W65593  22.713  19.285   2.819
97189W        W65594  13.436  27.949   4.802
97190W        W65595  44.770  11.199   1.428
97191W        W65596  43.967  15.810  11.026
97192W        W65597  29.118  34.029  11.206
97193W        W65598  21.845   1.366   2.602
97194W        W65599  20.746  14.806  14.604
97195W        W65600   2.764  19.797   0.757
97196W        W65601  42.761   2.528  13.956
97197W        W65602  27.637  19.536   1.886
97198W        W65603  11.302  39.820  11.162
97199W        W65604  20.213  35.637   4.869
97200W        W65605  21.661  34.470   1.899
97201W        W65606  15.813   5.887   0.872
97202W        W65607  26.793  27.493  10.688
97203W        W65608  22.595  10.743   4.369
97204W        W65609  26.180   3.362   3.943
97205W        W65610  14.653  29.751   0.871
97206W        W65611  17.157  27.456   0.723
97207W        W65612  32.392  19.734   3.649
97208W        W65613  36.798   7.196  11.120
97209W        W65614   9.531   0.314   2.916
97210W        W65615  44.021  23.255  12.325
97211W        W65616   7.507  11.720   0.763
97212W        W65617  42.409  41.471   2.216
97213W        W65618   3.520   5.282  13.856
97214W        W65619  34.664   1.315   2.871
97215W        W65620  23.233  35.491   3.290
97216W        W65621  16.951   5.847   5.595
97217W        W65622  19.975   4.382   3.753
97218W        W65623  31.575  23.307   4.113
97219W        W65624  24.694  19.402  12.214
97220W        W65625  19.317  29.934   4.172
97221W        W65626   1.414  29.455   4.235
97222W        W65627  28.992  12.715  14.798
97223W        W65628  34.838   2.304   1.717
97224W        W65629  30.521   7.717   0.510
97225W        W65630   7.827  33.823  12.399
97226W        W65631  31.109  19.139   0.495
97227W        W65632  25.555  44.444   2.913
97228W        W65633  18.447  11.693  13.453
97229W        W65634  30.252  34.587  10.679
97230W        W65635   4.446   6.064  11.483
97231W        W65636  36.486  28.513  14.970
97232W        W65637  33.535   1.759   0.301
97233W        W65638  11.480   2.110  12.492
97234W        W65639  39.009   5.504   5.138
97235W        W65640  18.374  23.668   3.638
97236W        W65641  10.393  42.330   1.694
97237W        W65642   6.422  25.491  14.914
97238W        W65643  37.566  25.957   3.126
97239W        W65644  10.716  32.897   3.142
97240W        W65645  37.424  29.402  13.760
97241W        W65646  25.512   5.476  13.840
97242W        W65647  40.855  21.437   1.043
97243W        W65648  11.625  19.491   0.942
97244W        W65649   6.129  44.381  13.712
97245W        W65650  25.954  43.809   0.006
97246W        W65651  33.157  39.780   3.439
97247W        W65652  40.872  35.274  12.355
97248W        W65653  41.906  15.142   2.701
97249W        W65654  30.356  19.815   2.495
97250W        W65655  26.012  28.125   0.018
97251W        W65656   4.299  40.027  10.520
97252W        W65657  37.483  33.311  12.988
97253W        W65658  44.439   5.280   4.502
97254W        W65659   0.438  40.534  12.931
97255W        W65660  35.550  35.597  14.713
97256W        W65661  35.947   3.909  10.588
97257W        W65662  44.328  35.565   0.334
97258W        W65663  19.805  21.394   2.871
97259W        W65664  28.970  44.552   4.187
97260W        W65665  24.795  37.461   5.111
97261W        W65666  16.669   9.660   4.271
97262W        W65667  30.725   0.764   0.410
97263W        W65668   1.709  41.562  14.114
97264W        W65669  43.295  19.666  14.774
97265W        W65670  10.229   3.228   3.304
97266W        W65671  19.344  24.429   4.133
97267W        W65672   5.227   7.663   0.746
97268W        W65673  16.729  35.331  11.435
97269W        W65674  11.902  36.118   4.264
97270W        W65675  23.758  31.713  14.767
97271W        W65676  27.968  34.713   4.002
97272W        W65677   3.665  10.667   0.817
97273W        W65678  36.520   0.200  12.298
97274W        W65679  16.591  36.625   4.537
97275W        W65680  18.178  39.926  11.125
97276W        W65681  37.365  12.835  14.813
97277W        W65682   1.438   7.238  14.965
97278W        W65683  27.758  30.350  14.990
97279W        W65684  14.188  18.029   3.785
97280W        W65685  34.780  27.022   2.092
97281W        W65686  37.935  19.277  12.901
97282W        W65687  18.442  30.066   4.677
97283W        W65688   8.806  22.285  10.740
97284W        W65689  13.219  12.327   1.712
97285W        W65690   2.785  27.581  13.866
97286W        W65691  34.780  41.364   4.175
97287W        W65692   2.752  44.262  11.223
97288W        W65693  25.856  11.241   4.267
97289W        W65694  15.013  44.480  12.065
97290W        W65695  42.848  30.875   2.724
97291W        W65696  43.020  13.545  11.087
97292W        W65697   6.460   2.383  12.556
97293W        W65698  16.533   9.171   4.125
97294W        W65699  31.985  37.759   4.599
97295W        W65700  33.428   8.902   1.018
97296W        W65701  28.101  10.279  13.013
97297W        W65702  27.337   8.696  12.906
97298W        W65703  17.068  24.521   2.459
97299W        W65704  21.280  30.547  13.907
97300W        W65705  44.992  39.483   3.611
97301W        W65706  44.541   4.747  13.001
97302W        W65707  15.218  10.342   0.199
97303W        W65708  42.262  10.091   0.516
97304W        W65709  19.975  12.862   4.269
97305W        W65710  39.606  32.761   1.287
97306W        W65711  28.569  39.281   5.139
97307W        W65712  33.076  42.891  13.294
97308W        W65713  21.552  29.947   3.176
97309W        W65714  19.050  30.965  10.789
97310W        W65715  23.905  21.059   1.671
97311W        W65716  23.671  11.257  12.910
97312W        W65717  11.912  21.141  11.195
97313W        W65718   2.661  12.119  12.781
97314W        W65719  24.805   0.935   0.141
97315W        W65720   2.683  32.500   2.435
97316W        W65721  11.501   3.465  11.721
97317W        W65722  21.899  27.253   3.684
97318W        W65723   6.957  25.942  11.699
97319W        W65724  21.610  20.754   0.340
97320W        W65725  30.866   9.456   2.289
97321W        W65726  16.432  28.194   3.393
97322W        W65727  39.360  27.985   0.944
97323W        W65728  36.911  19.205  12.942
97324W        W65729   6.892  44.787  13.530
97325W        W65730   6.631  27.554   4.404
97326W        W65731  23.011   7.150  12.667
97327W        W65732  10.641  18.640   3.748
97328W        W65733   4.423  37.394  13.968
97329W        W65734  34.518  11.195   3.526
97330W        W65735  41.004  17.137   2.215
97331W        W65736  21.758  25.091  11.242
97332W        W65737  23.469  44.944  13.055
97333W        W65738   8.602  28.099   0.869
97334W        W65739  40.481  44.730  11.320
97335W        W65740   6.128  35.418  11.655
97336W        W65741  36.934   2.800   3.759
97337W        W65742  23.293  17.773   3.874
97338W        W65743  32.683   7.018  12.342
97339W        W65744   6.371   8.588   4.318
97340W        W65745  25.102  36.367   4.619
97341W        W65746  19.262   9.674   2.250
97342W        W65747  10.455  35.628   4.548
97343W        W65748   2.870   2.815   3.574
97344W        W65749  26.878  10.158   1.802
97345W        W65750   3.789  29.100  13.707
97346W        W65751  42.212  14.061   0.926
97347W        W65752  13.255   3.220  13.108
97348W        W65753   6.314  24.889   4.682
97349W        W65754  38.760  20.393   1.329
97350W        W65755  42.560  41.893   0.921
97351W        W65756   1.367  27.754  13.917
97352W        W65757  26.603  29.992  13.355
97353W        W65758  15.582  21.753  14.847
97354W        W65759  28.052  13.696   3.348
97355W        W65760  28.082  37.482  10.550
97356W        W65761  19.235  10.418   1.660
97357W        W65762  33.965  10.612  12.677
97358W        W65763  35.190   3.270  12.435
97359W        W65764  26.120   2.105   2.424
97360W        W65765  31.586  22.892   4.415
97361W        W65766   3.715  20.198   3.724
97362W        W65767  15.989  28.059  12.035
97363W        W65768  10.180   5.669   4.199
97364W        W65769  31.390  40.636   0.886
97365W        W65770   7.782  41.875  11.162
97366W        W65771  39.405  12.877   3.425
97367W        W65772   0.803  20.705  14.737
97368W        W65773  30.495  29.567  10.673
97369W        W65774   8.707   1.992   1.198
97370W        W65775   0.840  22.883   4.432
97371W        W65776  36.805   9.221   1.620
97372W        W65777   7.836  15.713   4.908
97373W        W65778  27.645  37.926   1.331
97374W        W65779  34.542  41.170  11.464
97375W        W65780  10.274  11.735   4.606
97376W        W65781  12.745  36.453  12.054
97377W        W65782   9.758  20.040   2.217
97378W        W65783  27.777  33.979  12.548
97379W        W65784  17.823  13.536   0.937
97380W        W65785  43.539  38.955   1.387
97381W        W65786  35.400  39.516   3.649
97382W        W65787  35.037  32.143   2.322
97383W        W65788   3.314  43.328   4.325
97384W        W65789  23.193   3.141  11.077
97385W        W65790  26.077  15.501  11.485
97386W        W65791   5.017  42.484  12.524
97387W        W65792  35.037   3.458   0.589
97388W        W65793  32.317  33.318   1.035
97389W        W65794  43.696  18.863  13.871
97390W        W65795   5.689  43.326  12.626
97391W        W65796  27.696  22.747  10.747
97392W        W65797  43.925   6.881  12.142
97393W        W65798  41.318  35.015   1.774
97394W        W65799   9.657  37.111   0.072
97395W        W65800   7.937  16.633   2.620
97396W        W65801   8.737  40.550  14.409
97397W        W65802  40.338  43.993   3.157
97398W        W65803   0.231   4.250   3.726
97399W        W65804  11.600  41.186   2.175
97400W        W65805  17.337  30.606  10.930
97401W        W65806   3.882  31.864  14.237
97402W        W65807  26.875  26.206   2.358
97403W        W65808   7.646  10.338  13.927
97404W        W65809  22.609  39.012  12.113
97405W        W65810   3.005  20.976   3.124
97406W        W65811  29.949   2.338   4.906
97407W        W65812  35.520   0.012  11.579
97408W        W65813  26.184  29.805  10.692
97409W        W65814  15.942  25.152   3.739
97410W        W65815  42.878   0.688  11.571
97411W        W65816  33.040  39.663   0.906
97412W        W65817   1.651  28.562  10.659
97413W        W65818  44.982  42.212  13.911
97414W        W65819  38.353  12.267   3.096
97415W        W65820   7.455   7.760  14.571
97416W        W65821  15.743  29.100  10.163
97417W        W65822  40.441  23.445  10.773
97418W        W65823  22.416  22.036   2.832
97419W        W65824  32.547  21.101  14.265
97420W        W65825  20.581   7.208  11.699
97421W        W65826  16.939  39.910   4.403
97422W        W65827  31.423  31.575  13.280
97423W        W65828  31.854   4.213   0.865
97424W        W65829  11.218  42.888   3.994
97425W        W65830  40.664  42.646  14.299
97426W        W65831  42.575  11.091   4.286
97427W        W65832  39.096  42.243  12.636
97428W        W65833  30.686  35.433   1.902
97429W        W65834  24.589  26.070  10.747
97430W        W65835   3.805  40.485   0.306
97431W        W65836  23.484   6.398   4.091
97432W        W65837  12.642  12.770  13.801
97433W        W65838   0.760  15.617   0.903
97434W        W65839  23.786  25.669   0.772
97435W        W65840   1.913  44.303   9.892
97436W        W65841   3.762  20.313  11.972
97437W        W65842  43.280   6.371  14.996
97438W        W65843  27.007  37.369   1.599
97439W        W65844  31.216  23.498  14.227
97440W        W65845  41.486  17.368  14.899
97441W        W65846  26.419  14.734  13.358
97442W        W65847  24.944  40.822   2.880
97443W        W65848   5.927  28.001  11.204
97444W        W65849  14.723  36.915   4.110
97445W        W65850  31.906  14.358  12.985
97446W        W65851  25.260  43.867   1.207
97447W        W65852  18.516   7.877   2.409
97448W        W65853  17.545  21.695   1.412
97449W        W65854  33.568  11.191  11.549
97450W        W65855  24.383  42.271  14.461
97451W        W65856   7.650  30.404   0.965
97452W        W65857  13.890   3.280   1.126
97453W        W65858  19.438  31.230   3.599
97454W        W65859  23.008   7.176   1.379
97455W        W65860  39.748  17.993   2.782
97456W        W65861  19.058  32.019   5.022
97457W        W65862  40.315  22.947  10.706
97458W        W65863   5.363   3.437  12.408
97459W        W65864  10.362  16.056  12.413
97460W        W65865  41.874  29.729  10.807
97461W        W65866  29.444  23.435  12.464
97462W        W65867   8.964  36.128   1.838
97463W        W65868  30.589  16.346   4.656
97464W        W65869   4.496  43.894   1.271
97465W        W65870  21.165  35.104   2.001
97466W        W65871  32.352  29.904   1.416
97467W        W65872  13.284  40.281  10.731
97468W        W65873  13.829  36.979  11.494
97469W        W65874  14.491   8.563   3.755
97470W        W65875  43.457  12.282  11.217
97471W        W65876  10.191   6.325  11.457
97472W        W65877  33.721   5.822   4.205
97473W        W65878  20.904  35.138   0.852
97474W        W65879  32.933   2.983  11.602
97475W        W65880   9.296  11.307   3.734
97476W        W65881  44.417   7.733   1.421
97477W        W65882   8.833  39.757  10.520
97478W        W65883  32.571   4.482  10.630
97479W        W65884  20.356  26.957  10.447
97480W        W65885  28.679  22.465  10.952
97481W        W65886   0.285  27.881   2.661
97482W        W65887  10.618  21.309   2.815
97483W        W65888   7.378  29.234  11.016
97484W        W65889   8.245  31.566  11.921
97485W        W65890  35.911  37.378  12.830
97486W        W65891  17.594  20.299   1.752
97487W        W65892  35.044  41.784   4.519
97488W        W65893  15.042  15.743   1.995
97489W        W65894   2.846   5.005  13.519
97490W        W65895  29.952   5.114  13.406
97491W        W65896  16.566  21.112   3.546
97492W        W65897  35.498  38.996   1.831
97493W        W65898  20.175   1.798   4.006
97494W        W65899  10.319   9.509  11.593
97495W        W65900   9.335  31.637  10.715
97496W        W65901  11.193  11.539   2.291
97497W        W65902  35.295  37.397   0.140
97498W        W65903  34.876  10.575  14.754
97499W        W65904   0.469   4.953  12.949
97500W        W65905   9.885   5.155  14.351
97501W        W65906  44.496  19.466   0.956
97502W        W65907  30.904   8.740  12.554
97503W        W65908  24.984  44.514  12.624
97504W        W65909  13.659   8.650  13.544
97505W        W65910   1.769  22.026  11.159
97506W        W65911  20.419  21.350   5.018
97507W        W65912   2.567  11.126  12.078
97508W        W65913   0.688  15.741   4.094
97509W        W65914  41.304  27.474   0.795
97510W        W65915  29.826  16.715   1.261
97511W        W65916  28.030   6.982   0.741
97512W        W65917  31.626  16.224   1.678
97513W        W65918  28.511   6.298  11.607
97514W        W65919  11.020  19.613   1.733
97515W        W65920  20.131  19.123   3.006
97516W        W65921  13.761  13.807   0.808
97517W        W65922  20.919  36.786   1.875
97518W        W65923  38.517  25.634  11.619
97519W        W65924  24.406  41.893  14.922
97520W        W65925  36.412  32.069   2.427
97521W        W65926  27.392  13.301   0.839
97522W        W65927   5.440  29.395   3.424
97523W        W65928   3.154  21.403  13.543
97524W        W65929  39.962  37.665   1.272
97525W        W65930  10.779  11.026  11.969
97526W        W65931   1.830  22.014  12.858
97527W        W65932  23.742  31.209  13.983
97528W        W65933  16.332   6.858  14.656
97529W        W65934  22.282  20.211  13.508
97530W        W65935  44.892  32.958   4.544
97531W        W65936  24.701   2.477  11.220
97532W        W65937  15.359  33.616  11.876
97533W        W65938  10.754  33.464   2.696
97534W        W65939  41.504  15.717  10.723
97535W        W65940  11.045  25.531  10.591
97536W        W65941  36.057  34.891  11.508
97537W        W65942  35.827   8.456   1.936
97538W        W65943  29.818  14.640  13.127
97539W        W65944  21.443  24.253   1.316
97540W        W65945  43.731  36.422   3.874
97541W        W65946  37.470  24.240  13.923
97542W        W65947  12.612  37.444   1.704
97543W        W65948  20.622  25.806   4.508
97544W        W65949  39.142  19.840  11.456
97545W        W65950  24.708  12.788  11.568
97546W        W65951   0.003  25.875  10.730
97547W        W65952  11.837  15.025  14.844
97548W        W65953   1.875  12.382  14.498
97549W        W65954  24.995   7.348  14.973
97550W        W65955  20.977   7.881   3.276
97551W        W65956  26.531   0.820  12.572
97552W        W65957  22.046  12.904   4.048
97553W        W65958   4.649  24.009  11.099
97554W        W65959  31.586  35.363   4.520
97555W        W65960  15.945  33.228  10.627
97556W        W65961  28.936  35.340  12.463
97557W        W65962  38.989   8.122  13.836
97558W        W65963  19.417  10.972   5.220
97559W        W65964  37.944  18.017  11.474
97560W        W65965  39.033  19.535   1.391
97561W        W65966   6.845  40.764   3.966
97562W        W65967   0.885   8.910   2.753
97563W        W65968   4.389  10.286  12.982
97564W        W65969  29.665  42.414  12.910
97565W        W65970  16.215  43.807   0.499
97566W        W65971  24.052  36.957   2.258
97567W        W65972   5.886  26.097   1.883
97568W        W65973  34.452  23.570  14.084
97569W        W65974  11.621  31.571   1.765
97570W        W65975  24.242  27.469   2.169
97571W        W65976   8.326  44.367  14.317
97572W        W65977  19.545  12.309   0.855
97573W        W65978   5.876   4.334   3.448
97574W        W65979  10.338  19.003   1.728
97575W        W65980  41.553  41.664  14.191
97576W        W65981  13.563  20.327  11.072
97577W        W65982  42.960  42.454  12.876
97578W        W65983   8.788  42.391   2.279
97579W        W65984  20.924  24.527   3.160
97580W        W65985  29.379  28.557   0.831
97581W        W65986  27.684  15.123   1.222
97582W        W65987  36.208  29.260  12.453
97583W        W65988   2.507  36.852   3.148
97584W        W65989  31.352  10.451   0.951
97585W        W65990   2.834  36.721   1.861
97586W        W65991  30.053  37.801  11.114
97587W        W65992  40.174  13.954  13.382
97588W        W65993  26.487   6.122  14.030
97589W        W65994  34.938  38.454   1.481
97590W        W65995  28.645  22.196   1.704
97591W        W65996   1.959  20.529  11.091
97592W        W65997   3.781  29.750  12.110
97593W        W65998   7.359   7.682   4.191
97594W        W65999  10.930  27.418   4.348
97595W        W66000  11.871  20.750  13.456
97596W        W66001   2.291  27.232   2.292
97597W        W66002  26.453   6.139   1.685
97598W        W66003   9.185  11.917   1.815
97599W        W66004  13.025  25.463  11.967
97600W        W66005  36.136  37.112  11.928
97601W        W66006  21.918   1.746  14.242
97602W        W66007   2.454  22.454  13.876
97603W        W66008   6.208  40.793   2.795
97604W        W66009  12.740  30.854  13.920
97605W        W66010  31.659  24.899  13.362
97606W        W66011  11.736  42.984   0.876
97607W        W66012  29.161  27.492  13.607
97608W        W66013  44.193  43.631   4.220
97609W        W66014  38.101  10.862   3.707
97610W        W66015  24.749  40.941  14.817
97611W        W66016   8.234  21.753   0.471
97612W        W66017  25.535   4.846  13.081
97613W        W66018  26.392   6.848  10.808
97614W        W66019  38.314   8.582   4.814
97615W        W66020  30.841  25.952  14.108
97616W        W66021  15.735  21.218  14.339
97617W        W66022  38.317  29.434  10.471
97618W        W66023  28.957  15.412  12.052
97619W        W66024  12.249  41.824   4.487
97620W        W66025  30.137  33.502   2.180
97621W        W66026  16.531  29.668   0.718
97622W        W66027   6.694   0.754   3.224
97623W        W66028   3.401   9.746   0.432
97624W        W66029  33.828   5.390  12.482
97625W        W66030  19.318  17.427  11.525
97626W        W66031   9.439  20.078  12.889
97627W        W66032  22.487   8.236   0.692
97628W        W66033  11.642  30.637   1.497
97629W        W66034  43.294  23.557  12.139
97630W        W66035   8.301  37.418  13.118
97631W        W66036  42.951  19.972  10.891
97632W        W66037  38.615   1.720  14.838
97633W        W66038  12.246  13.399  11.685
97634W        W66039  12.603  11.309   3.676
97635W        W66040   0.865  28.032  12.877
97636W        W66041  11.236  32.132   2.358
97637W        W66042  25.639  44.090   3.297
97638W        W66043  28.635  31.177  13.964
97639W        W66044  22.905  22.978  11.176
97640W        W66045  21.248  17.995  10.919
97641W        W66046  10.652   6.817   3.767
97642W        W66047   6.558   1.309   4.573
97643W        W66048   3.723  27.063   4.811
97644W        W66049  34.944  24.804  11.222
97645W        W66050  34.542   9.332   3.144
97646W        W66051  18.569  28.683   3.688
97647W        W66052  19.855  20.191  13.611
97648W        W66053   2.544   3.667   4.023
97649W        W66054  42.136  38.595   2.232
97650W        W66055  38.486  13.700  10.741
97651W        W66056  34.614   1.922  14.013
97652W        W66057  10.317  25.231   0.722
97653W        W66058  22.667  12.080  14.929
97654W        W66059  42.240   4.723  13.311
97655W        W66060  37.220  27.718  12.137
97656W        W66061  41.023  16.765  10.716
97657W        W66062  40.252  44.524  12.579
97658W        W66063  41.823   3.971  12.298
97659W        W66064  36.420  38.526   4.279
97660W        W66065  23.263  29.547  14.449
97661W        W66066   1.256   1.687  13.314
97662W        W66067  43.509  23.681   1.287
97663W        W66068  11.370   2.935   2.811
97664W        W66069  42.777  17.344   2.430
97665W        W66070  35.496  32.473   4.542
97666W        W66071   6.280  15.665   9.968
97667W        W66072  36.068   7.406  11.610
97668W        W66073  22.009  16.168  11.525
97669W        W66074   3.277  16.100   1.659
97670W        W66075   8.346  38.552   4.351
97671W        W66076  28.484   6.436   0.078
97672W        W66077  34.375  42.399  11.226
97673W        W66078  35.819  32.608   4.137
97674W        W66079  34.565  33.369  12.026
97675W        W66080   7.726  10.251   4.208
97676W        W66081  16.594  38.943   0.987
97677W        W66082  37.277  22.324   4.026
97678W        W66083   1.907  35.370  11.358
97679W        W66084   2.405  37.656   1.044
97680W        W66085   3.736  15.704  14.068
97681W        W66086  40.743  32.635   0.507
97682W        W66087  28.878   2.394   4.084
97683W        W66088   5.311  16.751  11.523
97684W        W66089  11.177  29.281  14.540
97685W        W66090  23.245  16.084  14.312
97686W        W66091   5.211  31.866  14.720
97687W        W66092  10.323  32.875  12.392
97688W        W66093   4.935  31.445   4.763
97689W        W66094  18.089  12.644  14.712
97690W        W66095   4.471   5.969  10.642
97691W        W66096  10.450  43.277  14.962
97692W        W66097  43.442  29.089   0.921
97693W        W66098  29.407  22.471  10.361
97694W        W66099   2.407  12.587  10.036
97695W        W66100  30.016   4.498   4.062
97696W        W66101   0.209   0.303   1.884
97697W        W66102  31.086  36.583   4.364
97698W        W66103  30.644  29.225   1.893
97699W        W66104  13.822  25.737  14.042
97700W        W66105  17.920  22.740   4.303
97701W        W66106  35.992   1.640  12.401
97702W        W66107  21.672  12.048  13.637
97703W        W66108  41.838  37.930   4.437
97704W        W66109  24.821  23.479  11.035
97705W        W66110  40.486  20.207   0.911
97706W        W66111  29.404  27.374   2.928
97707W        W66112  43.511  18.638   1.415
97708W        W66113   9.106  26.681  13.982
97709W        W66114  22.578  22.548   1.126
97710W        W66115  41.993  42.960  11.421
97711W        W66116  16.584   1.369  10.628
97712W        W66117   5.297  41.451   3.271
97713W        W66118   5.573  19.108   0.953
97714W        W66119  27.898  41.071  14.189
97715W        W66120  14.260  21.538  13.035
97716W        W66121  35.150  16.161   2.403
97717W        W66122   8.829  14.623  10.978
97718W        W66123  20.098  33.856   4.282
97719W        W66124  29.844  35.813  13.886
97720W        W66125   1.563  27.463   1.747
97721W        W66126  20.650  42.269   2.300
97722W        W66127  29.094  19.724  14.920
97723W        W66128  16.395  16.033  14.912
97724W        W66129  34.320  29.121   1.241
97725W        W66130  13.394  11.809   3.729
97726W        W66131  41.343   6.302   4.322
97727W        W66132  35.154  24.658  12.096
97728W        W66133   6.577  22.593  11.052
97729W        W66134  25.990  38.438  13.867
97730W        W66135  20.491  36.848   2.157
97731W        W66136  15.232  14.841  11.343
97732W        W66137  40.296  24.652   2.741
97733W        W66138  34.566  29.510  13.011
97734W        W66139  20.346  11.819   1.790
97735W        W66140  40.433  33.675  11.890
97736W        W66141  17.620   6.893  10.656
97737W        W66142  21.603  18.707  13.922
97738W        W66143  29.098  11.083  12.216
97739W        W66144  10.345  32.692   0.038
97740W        W66145  32.362  22.633  10.250
97741W        W66146  25.396  37.484   3.853
97742W        W66147  42.383   4.955  12.841
97743W        W66148  44.550  25.944   1.214
97744W        W66149   2.095  21.526   1.960
97745W        W66150   6.516  31.561   4.243
97746W        W66151   5.500   6.336  10.034
97747W        W66152  37.799  17.176  11.135
97748W        W66153  16.053  35.968  10.638
97749W        W66154  28.595  18.759  10.740
97750W        W66155  12.445  11.758   3.423
97751W        W66156  22.507  18.754   0.263
97752W        W66157  19.541   3.246   1.790
97753W        W66158  34.111  34.133  12.714
97754W        W66159  10.158  13.269  14.496
97755W        W66160   1.753  19.659  10.946
97756W        W66161  39.550  30.890  13.994
97757W        W66162  16.548  25.582  10.686
97758W        W66163  18.299  27.485  12.393
97759W        W66164  17.495  29.015   0.475
97760W        W66165   5.280  20.993  12.027
97761W        W66166  17.049  17.592  14.350
97762W        W66167  38.280  43.847  13.932
97763W        W66168   2.537  12.328   1.971
97764W        W66169  11.194  37.974  14.785
97765W        W66170  36.443  14.627   1.405
97766W        W66171  34.152  14.714   2.872
97767W        W66172   7.671   9.139  13.469
97768W        W66173  12.259  41.323   3.873
97769W        W66174  16.636  34.542   3.745
97770W        W66175  32.612  43.502  11.176
97771W        W66176  20.753  14.758  13.577
97772W        W66177  35.028   3.693  12.143
97773W        W66178  25.345   6.118  12.959
97774W        W66179  37.764   0.294   1.368
97775W        W66180  31.733  15.820   2.927
97776W        W66181   7.733  18.948   3.660
97777W        W66182  37.927   3.333   1.738
97778W        W66183  14.234   1.248  13.806
97779W        W66184  40.283   5.742   0.922
97780W        W66185  31.376   0.252   0.473
97781W        W66186  44.330  39.463   1.793
97782W        W66187  40.009   2.488   0.935
97783W        W66188  29.189   6.933  11.962
97784W        W66189  14.971  15.291  12.189
97785W        W66190   8.430  16.674  12.489
97786W        W66191  34.329   8.880  10.765
97787W        W66192  18.112  10.241   3.275
97788W        W66193  18.415   5.348  14.825
97789W        W66194   1.933  40.855   2.923
97790W        W66195  32.388  11.179  14.468
97791W        W66196  27.915  14.824  10.717
97792W        W66197  29.679  23.567  12.015
97793W        W66198  29.411  32.098   5.102
97794W        W66199  27.908  10.859   2.676
97795W        W66200  22.171  28.482  14.381
97796W        W66201  20.294  28.781   4.076
97797W        W66202  42.392  28.918  11.167
97798W        W66203   6.315   5.971   1.842
97799W        W66204  33.965   1.338   2.302
97800W        W66205  39.843  24.588   4.386
97801W        W66206  20.662  36.051  12.936
97802W        W66207  19.762  12.546   2.663
97803W        W66208  32.133   9.750  11.849
97804W        W66209  42.504   1.017  13.164
97805W        W66210   1.227  41.218   1.306
97806W        W66211  14.137   5.758  11.151
97807W        W66212  29.481  25.487  11.000
97808W        W66213  13.669  15.231  11.182
97809W        W66214  37.624   1.251  14.295
97810W        W66215  14.888   2.259  10.278
97811W        W66216  37.613  20.044  14.583
97812W        W66217  28.846  30.404  11.568
97813W        W66218   4.836  26.863   0.426
97814W        W66219  16.061  21.074  10.663
97815W        W66220   3.515  43.664   2.245
97816W        W66221  41.802  34.008   4.165
97817W        W66222  37.869  22.637   1.117
97818W        W66223  35.980  13.508   1.910
97819W        W66224  10.412  16.474  11.588
97820W        W66225  42.192  41.562   2.710
97821W        W66226  23.953  36.103  12.655
97822W        W66227  44.218  17.948   5.110
97823W        W66228  32.106  24.539   2.429
97824W        W66229   4.638   8.330  13.086
97825W        W66230   1.360   7.751   3.541
97826W        W66231  31.174   9.138  12.712
97827W        W66232  35.350  26.228  13.545
97828W        W66233  30.710  31.729   4.600
97829W        W66234  12.920  23.752  11.048
97830W        W66235  14.489  39.539  14.495
97831W        W66236   9.851  34.814   2.833
97832W        W66237  39.579   4.646  12.457
97833W        W66238  36.000   9.787   0.998
97834W        W66239   5.853  18.169  10.483
97835W        W66240   0.707  24.075  12.069
97836W        W66241   4.633   0.727  13.955
97837W        W66242  39.478  15.635   2.238
97838W        W66243  28.507  32.963  11.391
97839W        W66244  38.773  12.402  12.492
97840W        W66245  30.591  11.345   0.278
97841W        W66246  16.056  30.984   3.739
97842W        W66247  41.262   4.937  14.547
97843W        W66248  38.495  41.040   0.795
97844W        W66249  30.613  11.667  11.569
97845W        W66250  19.554  20.680  12.392
97846W        W66251   2.475  32.750  12.221
97847W        W66252  34.437  40.004   2.901
97848W        W66253   8.446  14.335   2.976
97849W        W66254  15.495  27.935  12.075
97850W        W66255  23.215  12.769  13.586
97851W        W66256   3.416  21.817  14.394
97852W        W66257  35.833  38.319  14.005
97853W        W66258  40.808  11.178  12.839
97854W        W66259   6.605  29.383   5.350
97855W        W66260  29.216  15.658  13.788
97856W        W66261   0.237  44.537   0.371
97857W        W66262  25.165  37.574  13.202
97858W        W66263  19.257  20.118   4.143
97859W        W66264   3.861  34.557   3.901
97860W        W66265  32.066  15.749  13.034
97861W        W66266  30.569  43.055   1.283
97862W        W66267   2.403  20.700   4.886
97863W        W66268  39.451   5.973   0.947
97864W        W66269   2.759  19.022   4.858
97865W        W66270   0.408  33.007   4.583
97866W        W66271  25.751  28.901   5.074
97867W        W66272  12.179  43.556  10.792
97868W        W66273  25.021  13.235   2.108
97869W        W66274  26.533   1.773  14.991
97870W        W66275   2.937   1.403  10.571
97871W        W66276  17.760  33.233   3.263
97872W        W66277  10.275   0.416  10.081
97873W        W66278  31.478  28.364  14.025
97874W        W66279  34.759  15.792   4.643
97875W        W66280  43.828  34.272  13.793
97876W        W66281  10.766  10.569   2.789
97877W        W66282  32.217  37.060   3.212
97878W        W66283   3.309  36.806   4.436
97879W        W66284  24.702  38.346  13.397
97880W        W66285   8.182  28.414  11.107
97881W        W66286   0.980  18.135   1.297
97882W        W66287  25.311  26.167   1.147
97883W        W66288  42.550  27.731   1.358
97884W        W66289  32.805   9.737   1.462
97885W        W66290  19.729  16.257   4.956
97886W        W66291  10.445  26.714   0.784
97887W        W66292   4.322  38.170   1.551
97888W        W66293   6.230  19.579  11.202
97889W        W66294   8.821   2.515  13.030
97890W        W66295  29.921   8.992  13.831
97891W        W66296  23.545  15.158  10.597
97892W        W66297  16.231  18.594  11.044
97893W        W66298   9.873  16.518   0.363
97894W        W66299  32.094   7.219   3.718
97895W        W66300  41.701  33.996  11.929
97896W        W66301  32.492   8.984   4.166
97897W        W66302  42.910  42.409   4.563
97898W        W66303  44.278  23.107   2.277
97899W        W66304  35.896   9.503   1.765
97900W        W66305   8.152  10.090  11.631
97901W        W66306   9.775  20.211   1.725
97902W        W66307  26.196  39.100  13.138
97903W        W66308  21.859   4.795   3.233
97904W        W66309  18.516  36.095  10.700
97905W        W66310  42.242   0.199  13.224
97906W        W66311  18.412   3.978  13.859
97907W        W66312  19.626  14.928   4.565
97908W        W66313   2.497  23.326  13.399
97909W        W66314  11.357   1.457  11.467
97910W        W66315   0.459  12.548   2.295
97911W        W66316  43.859  17.817   4.750
97912W        W66317  22.958   9.784  14.803
97913W        W66318   1.783  17.239  12.898
97914W        W66319  14.074   1.663  13.073
97915W        W66320   4.399  26.714  13.455
97916W        W66321  28.992  12.737   2.261
97917W        W66322  41.957  37.856   1.246
97918W        W66323  20.205  33.914  12.487
97919W        W66324  12.252  14.646  12.932
97920W        W66325  38.534   4.188  11.278
97921W        W66326   8.232   9.156   1.359
97922W        W66327  36.272  35.818   3.219
97923W        W66328   7.222   3.896   4.873
97924W        W66329  27.378  23.689  12.461
97925W        W66330  12.186   5.435  11.585
97926W        W66331  37.849   9.274   1.251
97927W        W66332  44.544  33.509  13.067
97928W        W66333  32.993  11.151   2.269
97929W        W66334  34.582  23.659  14.612
97930W        W66335   3.179  33.552  13.504
97931W        W66336  40.439   9.394   4.129
97932W        W66337  22.636  27.318   4.183
97933W        W66338   2.144  24.262   1.431
97934W        W66339   5.361  41.733   2.222
97935W        W66340   3.302   1.717  14.888
97936W        W66341   1.892  16.274   0.263
97937W        W66342  34.539  43.923   0.404
97938W        W66343  17.437  29.864   4.687
97939W        W66344  21.572  18.878  12.550
97940W        W66345  13.335  34.826   4.253
97941W        W66346  41.377  33.378   1.645
97942W        W66347  10.904  26.520  10.049
97943W        W66348  14.382  23.014   0.428
97944W        W66349  15.702  10.196  13.856
97945W        W66350  10.257  37.964   3.125
97946W        W66351   8.722  14.643   0.060
97947W        W66352  34.107  28.078  13.387
97948W        W66353  28.153  24.181  13.999
97949W        W66354   8.778   3.220   1.960
97950W        W66355  15.060  42.935   0.903
97951W        W66356  24.334  35.535  10.520
97952W        W66357  17.785  42.825  11.545
97953W        W66358  37.883  16.659   2.159
97954W        W66359  13.554  39.259  12.035
97955W        W66360  41.016  11.696  11.427
97956W        W66361  18.871   4.699  11.365
97957W        W66362   4.843   9.003   3.556
97958W        W66363  18.714  36.473  13.824
97959W        W66364  14.310   0.437   4.286
97960W        W66365   6.714  31.161   3.533
97961W        W66366  11.836   1.862  11.291
97962W        W66367   4.848  21.845  14.959
97963W        W66368  21.280  39.876  11.250
97964W        W66369   5.827  11.118   3.075
97965W        W66370  17.206  16.163  10.728
97966W        W66371  32.697  44.771  13.974
97967W        W66372   1.580  38.509   2.229
97968W        W66373  23.021   5.299   3.821
97969W        W66374  43.945  34.092   4.929
97970W        W66375  30.378  42.388   4.615
97971W        W66376  39.829  39.767   4.034
97972W        W66377  26.961  41.782   3.174
97973W        W66378  41.742  32.136  12.547
97974W        W66379   1.311  12.069  13.412
97975W        W66380  33.839  12.614   4.848
97976W        W66381  14.768   7.869  14.694
97977W        W66382  24.133  25.728  12.402
97978W        W66383  19.522   9.278  13.682
97979W        W66384   9.823   8.597  13.363
97980W        W66385  40.256   5.720  10.609
97981W        W66386  39.395   4.199   0.090
97982W        W66387  22.543  35.506   4.554
97983W        W66388  44.554  34.995  12.580
97984W        W66389  31.964  17.572   1.673
97985W        W66390  10.185  43.707  12.123
97986W        W66391   8.126  39.429   4.109
97987W        W66392  17.623  37.596   3.199
97988W        W66393   0.338  32.532  11.698
97989W        W66394  28.666  24.016   3.282
97990W        W66395  15.269   9.197   0.784
97991W        W66396  37.483   3.738  13.585
97992W        W66397  14.017  42.082   4.232
97993W        W66398  44.271  12.362  14.847
97994W        W66399  28.993  35.652   2.853
97995W        W66400  43.167  43.686   0.555
97996W        W66401   8.901   4.798   4.108
97997W        W66402  43.244  30.913   3.409
97998W        W66403   0.388  22.662   3.427
97999W        W66404  26.186  36.399   2.465
98000W        W66405  26.313  26.539  10.765
98001W        W66406  22.950  12.212   2.008
98002W        W66407  35.454  30.366   1.351
98003W        W66408  18.881  20.933   5.527
98004W        W66409  30.013   6.366   3.680
98005W        W66410  24.175   9.824   1.837
98006W        W66411   4.679  26.557   3.549
98007W        W66412  38.085  29.412  12.549
98008W        W66413  24.097  25.702   3.462
98009W        W66414  29.220  41.473   3.758
98010W        W66415  36.964  18.585  13.757
98011W        W66416  32.824  30.991   4.192
98012W        W66417  13.876  33.701  11.982
98013W        W66418  38.623  35.353  11.950
98014W        W66419  44.510  15.005  11.983
98015W        W66420  24.404  15.385  12.478
98016W        W66421   8.427  29.031   1.663
98017W        W66422  18.799  11.388  11.513
98018W        W66423  12.583  19.543  11.204
98019W        W66424  29.592   6.570  10.663
98020W        W66425  42.848  41.053  13.826
98021W        W66426  32.135  19.714  10.669
98022W        W66427  13.333  38.846  11.009
98023W        W66428   0.787  25.979  13.848
98024W        W66429   6.900  38.562  12.498
98025W        W66430  41.959   2.257   4.025
98026W        W66431  11.617   7.729   0.976
98027W        W66432  41.963  28.972   3.218
98028W        W66433  27.619  28.356  14.621
98029W        W66434  44.004   4.289  14.457
98030W        W66435  34.158  27.656  11.119
98031W        W66436  26.281   1.300   3.663
98032W        W66437  10.707  10.632  13.992
98033W        W66438  10.219   9.582   3.717
98034W        W66439  17.191  39.475   3.867
98035W        W66440  14.659  43.804  10.940
98036W        W66441  12.739  38.427  12.391
98037W        W66442  37.647  36.658   0.759
98038W        W66443  18.827   4.624   2.149
98039W        W66444  39.317  29.008  11.702
98040W        W66445  21.967  31.076   0.870
98041W        W66446  29.594  22.701   0.275
98042W        W66447   7.649  26.891  14.414
98043W        W66448  29.431  19.332   3.398
98044W        W66449   9.243  37.248   9.984
98045W        W66450  14.090  39.381   4.150
98046W        W66451  34.553  16.594  11.162
98047W        W66452  31.165  29.263   2.111
98048W        W66453  41.339  24.116  13.356
98049W        W66454  29.111  13.112  11.484
98050W        W66455  18.005   0.818  10.691
98051W        W66456  20.989  28.387   0.273
98052W        W66457  39.888  20.052  14.941
98053W        W66458  39.439  40.447   4.089
98054W        W66459  10.615  24.368  11.753
98055W        W66460  15.351   6.849  10.711
98056W        W66461   6.265  14.575   4.117
98057W        W66462  10.823  12.206   1.728
98058W        W66463   8.068  16.433   0.400
98059W        W66464   1.234  18.645  12.574
98060W        W66465  11.237  15.675   2.457
98061W        W66466  15.842  43.029  14.152
98062W        W66467  40.827  34.174   1.806
98063W        W66468  12.409   5.784  12.622
98064W        W66469  10.649  28.566   0.040
98065W        W66470   7.264  15.610  10.701
98066W        W66471   6.745  20.193   2.640
98067W        W66472   0.440   9.657   0.442
98068W        W66473   6.331  15.562  14.989
98069W        W66474  41.312   2.255   3.345
98070W        W66475  40.750  14.134  11.252
98071W        W66476  39.552   7.342  12.303
98072W        W66477  30.185  36.192  13.991
98073W        W66478   5.965  38.519  12.608
98074W        W66479  35.049  13.016  14.779
98075W        W66480  44.349  28.995   5.044
98076W        W66481  44.439  42.706  11.598
98077W        W66482  39.127  23.209   4.290
98078W        W66483  30.150  23.764   5.375
98079W        W66484   9.014  39.788   0.613
98080W        W66485  21.785  20.513   0.796
98081W        W66486  22.279  32.418  14.522
98082W        W66487  12.736  39.339   4.614
98083W        W66488  31.467  31.138   1.251
98084W        W66489   2.310  42.567  12.897
98085W        W66490  37.170  35.472   4.622
98086W        W66491  13.233  12.679  12.467
98087W        W66492   1.661  22.532  14.418
98088W        W66493  18.708  18.097   4.264
98089W        W66494  11.661   2.982   4.622
98090W        W66495  19.403   1.907  13.297
98091W        W66496  37.822  33.527  10.488
98092W        W66497  29.245   0.382   2.543
98093W        W66498  14.135   1.942  12.666
98094W        W66499   7.608  19.148   1.317
98095W        W66500  11.779  15.568  12.871
98096W        W66501  29.464  33.047  13.246
98097W        W66502  12.290  20.204   2.656
98098W        W66503  29.086   2.230  13.882
98099W        W66504  29.606  26.962   1.419
98100W        W66505  44.574   0.983  12.924
98101W        W66506  17.619  33.151   0.424
98102W        W66507   3.855  41.460   1.894
98103W        W66508  33.486  34.906   5.103
98104W        W66509  19.340  14.216  11.623
98105W        W66510  44.864  29.180   0.855
98106W        W66511  25.634  27.122  14.463
98107W        W66512  34.434  32.567  10.590
98108W        W66513  26.753   4.830  14.009
98109W        W66514  43.086  28.634   2.198
98110W        W66515  12.120  19.163  14.915
98111W        W66516   2.523  43.486   2.756
98112W        W66517  23.206   1.490  10.604
98113W        W66518   5.396  30.465  11.693
98114W        W66519  22.213  18.270  10.952
98115W        W66520   5.324  29.624  12.722
98116W        W66521  40.275  38.980   4.002
98117W        W66522   6.805  23.707  14.924
98118W        W66523   9.176  11.932  13.818
98119W        W66524  24.216   6.835   0.917
98120W        W66525  35.146  25.329   1.511
98121W        W66526   8.412   9.654   2.778
98122W        W66527   0.835  10.583  12.974
98123W        W66528  16.489   1.864   3.296
98124W        W66529  30.391  18.577  12.956
98125W        W66530  27.270  19.136  14.858
98126W        W66531  21.656   0.678   4.326
98127W        W66532  39.914   5.395   1.378
98128W        W66533  25.026  31.645  11.597
98129W        W66534  11.830   7.652   4.858
98130W        W66535   6.643  12.889  12.494
98131W        W66536  15.411   1.935   0.897
98132W        W66537  26.327  22.116  13.826
98133W        W66538  33.039   6.609   4.167
98134W        W66539  29.666  33.390   4.568
98135W        W66540  42.330  28.188  11.650
98136W        W66541   5.489  28.101  10.843
98137W        W66542  11.384  33.958  10.749
98138W        W66543  27.994  23.598  10.635
98139W        W66544  40.448  31.571   2.298
98140W        W66545  15.768  11.810   2.221
98141W        W66546  30.509   2.214   1.738
98142W        W66547  44.230  36.377   4.559
98143W        W66548   0.695   5.382   0.936
98144W        W66549   5.756  39.320   4.852
98145W        W66550  23.465  29.381  12.795
98146W        W66551  29.290  28.425  13.943
98147W        W66552  41.443  37.443  12.064
98148W        W66553  30.617  22.529   1.221
98149W        W66554  36.070  35.674  11.955
98150W        W66555  26.805  36.383   4.258
98151W        W66556  44.649  39.366   4.579
98152W        W66557  32.982  37.394  13.798
98153W        W66558   7.683  28.974   4.179
98154W        W66559  33.753  11.320  14.895
98155W        W66560   5.771  23.245  13.049
98156W        W66561  34.461  15.751   0.882
98157W        W66562  12.329  29.686  12.506
98158W        W66563   3.094   3.159   2.834
98159W        W66564  29.618  27.377  11.460
98160W        W66565  35.784   7.587  10.680
98161W        W66566  21.989  34.683  12.954
98162W        W66567  34.275   1.844  13.047
98163W        W66568  12.749  32.906   3.798
98164W        W66569  19.827  10.048   1.247
98165W        W66570  40.217   7.672  10.917
98166W        W66571  32.510  14.796  13.913
98167W        W66572  31.568  31.822   4.827
98168W        W66573  36.843  18.829   2.324
98169W        W66574  40.089   1.414   1.041
98170W        W66575   9.903  32.158  13.969
98171W        W66576  25.005  21.335   4.929
98172W        W66577  26.018  32.658   3.592
98173W        W66578  10.670  30.316  14.726
98174W        W66579  19.623  18.195  12.277
98175W        W66580  22.973   6.259   4.138
98176W        W66581  12.705   3.792  12.324
98177W        W66582  28.919   4.654  14.319
98178W        W66583  15.265  36.438   3.805
98179W        W66584   9.568  42.852  12.465
98180W        W66585   1.253  23.286  12.844
98181W        W66586  23.643   6.751   2.098
98182W        W66587  19.786   4.206   4.243
98183W        W66588  43.923  10.262   1.118
98184W        W66589  22.339  23.391   1.839
98185W        W66590   9.750  40.230  14.865
98186W        W66591   4.408  17.625   0.731
98187W        W66592   9.945  24.699  13.349
98188W        W66593   4.262  28.836  13.609
98189W        W66594  16.474   0.535   2.202
98190W        W66595  22.650  16.170   0.853
98191W        W66596  34.473   8.273  12.924
98192W        W66597  16.190  12.639  14.883
98193W        W66598  25.500   9.838  10.638
98194W        W66599  30.210  13.526  11.181
98195W        W66600  30.717  16.007   2.805
98196W        W66601  37.332  12.664   3.246
98197W        W66602  31.704  32.686   0.366
98198W        W66603  30.242  26.776   4.977
98199W        W66604  40.329  38.005  13.114
98200W        W66605  21.586  22.830   3.798
98201W        W66606   5.840  38.650  11.650
98202W        W66607  13.240  31.403  10.886
98203W        W66608  35.054   5.857  14.978
98204W        W66609  10.933  24.877   3.303
98205W        W66610  31.874  21.916  13.440
98206W        W66611   9.693  35.296   2.682
98207W        W66612  11.877   6.318  11.178
98208W        W66613  38.464  21.677  13.375
98209W        W66614  23.616  27.835   2.942
98210W        W66615   7.795  16.718  13.025
98211W        W66616  36.059  32.156   4.222
98212W        W66617  19.282   7.750   3.697
98213W        W66618  20.147  20.997  10.240
98214W        W66619   1.786  10.154   2.774
98215W        W66620  30.636  42.200   5.023
98216W        W66621  44.348  29.679   3.279
98217W        W66622  19.649  19.347  14.084
98218W        W66623  43.571  19.183  13.480
98219W        W66624  34.191  44.007  14.853
98220W        W66625  10.399  24.248   0.384
98221W        W66626  23.402  37.067   1.813
98222W        W66627  12.649   9.374   0.836
98223W        W66628  15.852  10.961   4.517
98224W        W66629  40.920  29.124  12.280
98225W        W66630  39.008  38.563  11.071
98226W        W66631  34.071  29.595  13.314
98227W        W66632  26.421  22.675   4.603
98228W        W66633  40.005  28.048  14.090
98229W        W66634  12.253  40.994  11.480
98230W        W66635   7.823   1.849  10.961
98231W        W66636  11.153  16.364   0.192
98232W        W66637   1.788  37.645   0.366
98233W        W66638   8.817  17.128   2.880
98234W        W66639   3.708  28.731  12.029
98235W        W66640  33.071  43.537  10.943
98236W        W66641  23.711  20.989  11.353
98237W        W66642   1.263  43.980   0.733
98238W        W66643  11.740   1.310   3.311
98239W        W66644   0.512  35.763   0.981
98240W        W66645   3.690  38.987   3.331
98241W        W66646  32.172  15.329   1.732
98242W        W66647  17.306   8.755  11.879
98243W        W66648  27.480  34.934  13.427
98244W        W66649  14.708  22.555  12.410
98245W        W66650   8.688  36.002   4.573
98246W        W66651  18.371  38.929  14.660
98247W        W66652  22.609  12.238  13.485
98248W        W66653  36.943   8.769   4.736
98249W        W66654   3.418  29.541   4.203
98250W        W66655  23.669   9.936   0.017
98251W        W66656   8.834  30.930   0.146
98252W        W66657  24.123  17.902   2.932
98253W        W66658  24.252   6.970  13.479
98254W        W66659  15.852  19.829  11.160
98255W        W66660  35.190  11.668  11.269
98256W        W66661  28.638  22.616  11.426
98257W        W66662  13.934  33.903   4.124
98258W        W66663  36.747  39.856  12.513
98259W        W66664  38.958  31.038   0.463
98260W        W66665  41.364  25.987   3.329
98261W        W66666  37.782   2.456   4.688
98262W        W66667   4.189  21.555   1.689
98263W        W66668  16.426   2.611   4.268
98264W        W66669  24.892  24.890  13.361
98265W        W66670   3.234  43.853   4.101
98266W        W66671  16.324  42.642   2.319
98267W        W66672  37.102  21.043  12.569
98268W        W66673  20.091   6.549  12.753
98269W        W66674   4.074   4.231   1.282
98270W        W66675  27.418  24.167  12.242
98271W        W66676  43.690  15.754   0.185
98272W        W66677   9.140  44.134   2.120
98273W        W66678  18.645  18.695   0.810
98274W        W66679   4.798  22.488  11.876
98275W        W66680   5.755  15.462   3.805
98276W        W66681  21.056  32.643  13.024
98277W        W66682  35.159  29.995   3.090
98278W        W66683  31.579  20.781   4.332
98279W        W66684  44.625  21.657   3.412
98280W        W66685  12.474   2.469  11.685
98281W        W66686   2.735   6.359   0.296
98282W        W66687  24.725   3.799   2.828
98283W        W66688   6.201  35.565   0.755
98284W        W66689  43.387  40.523  11.529
98285W        W66690  28.138  34.827  14.548
98286W        W66691  12.791   4.851  12.992
98287W        W66692   0.398   8.004   4.032
98288W        W66693   1.506  11.085   1.766
98289W        W66694  36.855  17.284  11.030
98290W        W66695  29.753   7.906   3.290
98291W        W66696   7.190  42.820   4.861
98292W        W66697  35.359  43.949   2.735
98293W        W66698  26.544  27.918  13.177
98294W        W66699  13.159   2.224   2.748
98295W        W66700  11.332  44.998  12.946
98296W        W66701  42.431  43.803  14.899
98297W        W66702  30.056  37.518   0.859
98298W        W66703  20.987  35.799  11.214
98299W        W66704   0.156  22.180   0.018
98300W        W66705  29.503  41.107   0.400
98301W        W66706  40.808   1.046  13.521
98302W        W66707  39.794  24.967  11.190
98303W        W66708  26.162  17.772  11.844
98304W        W66709  23.116  10.292   1.431
98305W        W66710  42.052  39.454   2.212
98306W        W66711  35.854   1.325  14.581
98307W        W66712   2.049   2.408   1.852
98308W        W66713  22.440  26.181  14.199
98309W        W66714  31.455  20.142   2.817
98310W        W66715  30.085  10.755  14.272
98311W        W66716  23.190  44.645  14.800
98312W        W66717  40.098  27.542   3.764
98313W        W66718   0.534  40.836   1.815
98314W        W66719  28.564  13.459   0.281
98315W        W66720  22.300  30.865   3.744
98316W        W66721  43.990   6.771   2.621
98317W        W66722  41.448   6.739   0.780
98318W        W66723  27.885  38.909   5.070
98319W        W66724  32.861  19.590   2.753
98320W        W66725   5.439  41.388  14.820
98321W        W66726  39.967  28.978   0.464
98322W        W66727  43.771  18.339  12.583
98323W        W66728  14.185  25.650  14.902
98324W        W66729   7.720  14.263  14.712
98325W        W66730  25.013   6.932  10.530
98326W        W66731  15.005   8.400   3.406
98327W        W66732  29.365  19.396   1.243
98328W        W66733  29.605   5.452   1.422
98329W        W66734  32.079  29.128   0.278
98330W        W66735  28.918  36.791  11.457
98331W        W66736   0.999  37.370   4.632
98332W        W66737  32.605  18.456   0.843
98333W        W66738  11.906  29.388  14.361
98334W        W66739   7.801  28.780   0.826
98335W        W66740  19.181  25.485   3.324
98336W        W66741  12.203  38.029   1.341
98337W        W66742  28.873  23.746   0.815
98338W        W66743  22.621  33.035  14.427
98339W        W66744   8.362  20.447   3.754
98340W        W66745   5.940  14.635   0.953
98341W        W66746  44.455  36.440   5.015
98342W        W66747  13.893   3.603   5.448
98343W        W66748  37.951  15.397  13.080
98344W        W66749  19.301  35.643  11.013
98345W        W66750  11.425  18.519  12.813
98346W        W66751   3.806   2.802  14.699
98347W        W66752  42.352  21.013  12.535
98348W        W66753  12.326   1.023  14.712
98349W        W66754   6.717  41.316   1.841
98350W        W66755  27.695  28.330  11.277
98351W        W66756  11.798  21.722   2.408
98352W        W66757   3.932  26.083   3.776
98353W        W66758   5.623  16.701  14.399
98354W        W66759  33.984  39.464  11.225
98355W        W66760   6.462  36.098   9.968
98356W        W66761  41.888  43.973   4.967
98357W        W66762  26.352  29.028   0.996
98358W        W66763   5.843  39.247   3.775
98359W        W66764  30.141   7.937   0.238
98360W        W66765  26.932  23.764   4.360
98361W        W66766   1.919   5.343   0.301
98362W        W66767  23.222   0.877   4.618
98363W        W66768  39.538  19.573  11.716
98364W        W66769   4.671  40.825  12.002
98365W        W66770  36.141  29.929  10.735
98366W        W66771  35.885  40.458   4.264
98367W        W66772  12.181  15.297  14.311
98368W        W66773  22.375   1.560   0.196
98369W        W66774  41.542  26.496   3.309
98370W        W66775  19.553  34.905   2.813
98371W        W66776  18.062  33.367  13.408
98372W        W66777  31.260   6.342  12.966
98373W        W66778  31.086   7.335   3.215
98374W        W66779  10.768  36.443  11.547
98375W        W66780   7.456  44.834   1.902
98376W        W66781  32.610   6.685  10.692
98377W        W66782  41.517  19.646   1.126
98378W        W66783  41.749  23.550   4.544
98379W        W66784  31.498  38.417  13.726
98380W        W66785  21.968  13.242  14.916
98381W        W66786   3.413  28.289   4.529
98382W        W66787   9.677  31.913   4.180
98383W        W66788  43.991  13.801   4.632
98384W        W66789   3.329  20.766   4.875
98385W        W66790   9.187  13.262  13.434
98386W        W66791  42.236   1.855   4.176
98387W        W66792  37.985  19.969  13.780
98388W        W66793  11.715  16.209  13.515
98389W        W66794   4.609  17.157  13.651
98390W        W66795  32.104  23.992  13.664
98391W        W66796  33.583  25.801   1.358
98392W        W66797  10.507  44.031  11.896
98393W        W66798  29.932   7.082  13.089
98394W        W66799  16.350  21.279  12.550
98395W        W66800  16.243  18.649  12.493
98396W        W66801  42.790  16.271  10.757
98397W        W66802  43.561  27.048   0.555
98398W        W66803  44.325  24.780   1.361
98399W        W66804   1.919  27.232  10.714
98400W        W66805  11.718  13.543   4.623
98401W        W66806  25.540   8.153   4.608
98402W        W66807  35.842  24.102  14.463
98403W        W66808  29.561  42.981   9.540
98404W        W66809   6.358  15.975   0.955
98405W        W66810   2.659   1.428  13.936
98406W        W66811  33.226   6.956   4.565
98407W        W66812  16.562  44.546   1.538
98408W        W66813  31.625   4.036   3.793
98409W        W66814  18.294  15.718  10.717
98410W        W66815   6.719   7.236   1.696
98411W        W66816  14.148  39.962   4.243
98412W        W66817  41.301  32.891   1.829
98413W        W66818   5.299   1.761   2.141
98414W        W66819  20.738   6.284  11.208
98415W        W66820  37.121  43.375  10.712
98416W        W66821  21.094  40.772  14.522
98417W        W66822  34.488  43.255  13.341
98418W        W66823  14.691  36.068   1.259
98419W        W66824  24.574  26.211   1.732
98420W        W66825  36.545   0.964   3.614
98421W        W66826   2.207   9.196   5.046
98422W        W66827   4.225  34.595  11.973
98423W        W66828  15.864  36.664  13.913
98424W        W66829   4.743  44.028   2.704
98425W        W66830  42.902  30.114  11.665
98426W        W66831  22.172  24.140  14.878
98427W        W66832   1.356  30.449   1.296
98428W        W66833  29.165   0.945  14.418
98429W        W66834   6.242  22.596   0.150
98430W        W66835  21.550  20.995  13.428
98431W        W66836  14.245  36.910   4.492
98432W        W66837  32.913  37.586  14.780
98433W        W66838  27.036  20.510   1.226
98434W        W66839   7.519   2.965  14.251
98435W        W66840   0.705  19.309   1.300
98436W        W66841   2.126  19.685  13.437
98437W        W66842  25.340  17.808   0.246
98438W        W66843   6.682  40.892  14.476
98439W        W66844   7.180   3.952   0.299
98440W        W66845  16.816  28.961  12.185
98441W        W66846  39.791  11.896  13.348
98442W        W66847  35.072  36.640  14.369
98443W        W66848   9.434  23.520  14.963
98444W        W66849  39.355  16.706   2.086
98445W        W66850   6.200  10.902  12.568
98446W        W66851  31.672  37.822  12.153
98447W        W66852  31.574  36.033  10.480
98448W        W66853  34.524  44.839  13.898
98449W        W66854  29.165   0.284  11.444
98450W        W66855  38.829   5.757  12.023
98451W        W66856  22.211  16.551  13.856
98452W        W66857  39.275  35.693  13.417
98453W        W66858  34.605  36.112  14.481
98454W        W66859  22.832  36.969  11.141
98455W        W66860  25.669  14.197  12.896
98456W        W66861  35.596   8.794   2.417
98457W        W66862  16.566  16.474   1.030
98458W        W66863  37.770  38.402   3.087
98459W        W66864  38.578  34.427  14.771
98460W        W66865  31.074  36.017  10.766
98461W        W66866   1.940  20.964   1.227
98462W        W66867  24.513   0.003  11.512
98463W        W66868  20.800  26.051   1.329
98464W        W66869   7.728  19.031  13.936
98465W        W66870  17.136   3.062   4.928
98466W        W66871  23.474  26.918   3.255
98467W        W66872  11.161   9.599  11.965
98468W        W66873  44.857  44.279  12.510
98469W        W66874  43.179  36.231  10.246
98470W        W66875  38.129  27.594   0.366
98471W        W66876  14.159  42.363  12.840
98472W        W66877   1.990  10.031  12.723
98473W        W66878  23.205  31.650   4.164
98474W        W66879   9.883   1.847   4.193
98475W        W66880  44.082  30.693   2.330
98476W        W66881   7.018  34.269  12.866
98477W        W66882  20.711   4.667   0.991
98478W        W66883  38.617  25.555  14.039
98479W        W66884  16.273   5.401   3.259
98480W        W66885  36.784   3.440   5.041
98481W        W66886  10.978  11.042  14.219
98482W        W66887  22.809   2.286   1.436
98483W        W66888  35.183  27.067  12.481
98484W        W66889  12.331  16.616  12.636
98485W        W66890  14.559  10.698   2.232
98486W        W66891  36.559  23.496  10.876
98487W        W66892   4.977   3.393   2.792
98488W        W66893  25.670  16.739  12.605
98489W        W66894   3.814  18.797  12.443
98490W        W66895  21.363  27.914  11.145
98491W        W66896   9.313  27.897   4.735
98492W        W66897  21.278  39.372  11.133
98493W        W66898  11.013  39.971  13.061
98494W        W66899  27.710  32.049   2.271
98495W        W66900  21.719  39.226  11.950
98496W        W66901  10.643  18.557  12.085
98497W        W66902  39.328  36.842   0.250
98498W        W66903  43.026  16.736   4.572
98499W        W66904  41.406   8.553  11.301
98500W        W66905   0.922   9.489  13.864
98501W        W66906  14.643   0.361   0.225
98502W        W66907  31.614  38.375   0.680
98503W        W66908   7.308  27.303  12.279
98504W        W66909  19.110  44.292   3.318
98505W        W66910   2.630  42.421  11.079
98506W        W66911  16.731  29.732   3.902
98507W        W66912  33.597  27.430   0.437
98508W        W66913  19.234  12.185   4.284
98509W        W66914   9.015   2.376  14.406
98510W        W66915  18.766   6.174  12.864
98511W        W66916  27.084   9.706   1.609
98512W        W66917  22.202  21.539  13.317
98513W        W66918  26.632   7.245  11.701
98514W        W66919  31.077  11.249   1.689
98515W        W66920  15.140  13.134  11.727
98516W        W66921  32.659   2.166   4.844
98517W        W66922  18.018  16.611   2.983
98518W        W66923  41.848  26.493  12.911
98519W        W66924  35.084  23.783  14.756
98520W        W66925   9.218   5.334  10.661
98521W        W66926  35.577  17.102  12.894
98522W        W66927   2.331  17.683  11.371
98523W        W66928   5.800   4.365   0.332
98524W        W66929   7.971  31.532  12.387
98525W        W66930  17.672  30.087  11.604
98526W        W66931  40.435   7.319   3.105
98527W        W66932  40.384   2.108  14.593
98528W        W66933  15.148  40.957   4.831
98529W        W66934   8.290  33.112   2.844
98530W        W66935  30.680  12.322  13.900
98531W        W66936  39.310  26.007  11.613
98532W        W66937  39.948  41.488   4.662
98533W        W66938   9.821  29.863  11.891
98534W        W66939  18.811   1.326   4.178
98535W        W66940  35.870  22.613  14.358
98536W        W66941  41.328  35.503   2.290
98537W        W66942  27.066  39.287   4.118
98538W        W66943  10.714   8.490   3.586
98539W        W66944   0.221  17.789  11.976
98540W        W66945   3.973   4.373  11.559
98541W        W66946  30.590  35.337  13.007
98542W        W66947  26.517   0.932  14.417
98543W        W66948  42.800  24.721   2.459
98544W        W66949   3.142  24.178  13.882
98545W        W66950   8.404  27.833  14.837
98546W        W66951  43.126  15.802  11.611
98547W        W66952  23.197  43.085  10.913
98548W        W66953  33.932  10.125  11.952
98549W        W66954  35.538  13.911  11.081
98550W        W66955  14.682   8.412   2.707
98551W        W66956  26.020  28.007  13.082
98552W        W66957  38.523   4.532   0.438
98553W        W66958  44.549  38.523   3.174
98554W        W66959  36.080  18.838  13.775
98555W        W66960  43.978  12.303   4.539
98556W        W66961  17.088  15.523  11.580
98557W        W66962  18.989  16.708   1.980
98558W        W66963  13.168  24.696  11.449
98559W        W66964   9.815  10.551   1.323
98560W        W66965  35.036  20.209   2.129
98561W        W66966  44.332  31.563   2.388
98562W        W66967  21.700  19.366  14.433
98563W        W66968  12.015  29.460  12.830
98564W        W66969   2.408  22.658  10.906
98565W        W66970  26.161  39.170   0.389
98566W        W66971  35.342   4.409   1.645
98567W        W66972  35.892  24.026  12.072
98568W        W66973  43.878  17.619   3.734
98569W        W66974  12.876   1.777  14.239
98570W        W66975  22.292  34.178  12.067
98571W        W66976   2.320  17.100  12.059
98572W        W66977  20.532  29.068  12.871
98573W        W66978   7.357  21.580   2.338
98574W        W66979   3.987  33.646  11.470
98575W        W66980  36.778  42.569   2.957
98576W        W66981  33.618  30.361  13.335
98577W        W66982  29.086  34.144   0.391
98578W        W66983   8.544  39.457  13.629
98579W        W66984  20.002  27.538  11.489
98580W        W66985  13.719  12.629  12.643
98581W        W66986  42.485  39.537   0.020
98582W        W66987  17.001  24.957  12.012
98583W        W66988  43.875  37.956   1.058
98584W        W66989   1.747   1.128   3.670
98585W        W66990  42.042   3.713   1.450
98586W        W66991  40.973  30.960  12.595
98587W        W66992  26.370  26.730   3.360
98588W        W66993  40.029  31.135  13.251
98589W        W66994  12.961  36.000   0.725
98590W        W66995  13.849  38.897   4.212
98591W        W66996  27.966  29.374  11.938
98592W        W66997   3.869  27.539   4.669
98593W        W66998  43.518  43.790  14.107
98594W        W66999  41.892  21.499   2.773
98595W        W67000  14.742  36.377   2.001
98596W        W67001  19.840  14.934  10.739
98597W        W67002  23.471   1.843  11.519
98598W        W67003  40.984  38.525  14.010
98599W        W67004  24.795  16.145  11.172
98600W        W67005  44.075  37.629   0.658
98601W        W67006  29.361  30.265  11.627
98602W        W67007   3.694   4.329   4.191
98603W        W67008  37.607   4.750   4.161
98604W        W67009  16.615  11.782   5.041
98605W        W67010  12.975  33.885  12.744
98606W        W67011   2.570  42.606   2.249
98607W        W67012   4.353  33.436  10.489
98608W        W67013  15.614  21.218  11.408
98609W        W67014  21.260   6.134   3.527
98610W        W67015  43.419  19.742  10.762
98611W        W67016   9.322  14.686   3.731
98612W        W67017  19.181  26.638  10.678
98613W        W67018   9.418  25.815  12.418
98614W        W67019   2.136  38.796   3.549
98615W        W67020   7.679  29.969  11.243
98616W        W67021  10.824  30.469  12.921
98617W        W67022   9.398  37.902   1.661
98618W        W67023   7.814  10.662  13.376
98619W        W67024  35.919   3.417   1.594
98620W        W67025  41.482   9.036   3.752
98621W        W67026  43.748  24.329   4.141
98622W        W67027  31.431  38.415   0.192
98623W        W67028  18.255  34.423   1.139
98624W        W67029  13.826  26.488  11.567
98625W        W67030   6.155   8.998  10.925
98626W        W67031   3.172   0.205   1.195
98627W        W67032  17.569  21.040  11.920
98628W        W67033  10.095  44.279  13.455
98629W        W67034   8.249  39.504   3.169
98630W        W67035   5.705  39.724   2.749
98631W        W67036  15.978  22.179   2.752
98632W        W67037  21.228  19.524   2.847
98633W        W67038  13.622  33.513   5.181
98634W        W67039   1.385  42.970   1.089
98635W        W67040  30.480  30.527   2.327
98636W        W67041  17.456   8.910  10.653
98637W        W67042   3.871  14.935   0.234
98638W        W67043  10.125  14.335  10.373
98639W        W67044   0.849  43.297   2.339
98640W        W67045  27.469  31.088   3.897
98641W        W67046  28.888  44.795   2.159
98642W        W67047  25.995  33.158   2.345
98643W        W67048  11.720  12.126   0.980
98644W        W67049  27.465   5.174  11.146
98645W        W67050  22.467  42.949   1.408
98646W        W67051  30.466   7.687  12.456
98647W        W67052  11.200   1.744  14.396
98648W        W67053  31.875  27.461   1.616
98649W        W67054   3.732  43.914   2.700
98650W        W67055  35.550  27.939   2.317
98651W        W67056  41.338  14.720  13.603
98652W        W67057   8.997   4.105  13.611
98653W        W67058  31.496   3.800  13.745
98654W        W67059  11.066  11.529   2.797
98655W        W67060  25.400  20.185  11.139
98656W        W67061   1.309  24.574   4.246
98657W        W67062  42.374  20.202   2.238
98658W        W67063  25.124  42.058  13.847
98659W        W67064   9.285  28.435   1.624
98660W        W67065  43.042  12.780   2.739
98661W        W67066  27.607  10.302  12.750
98662W        W67067  20.807  13.680   0.396
98663W        W67068  38.516  11.662   2.289
98664W        W67069  20.773  15.588  11.947
98665W        W67070   8.757  14.333   4.018
98666W        W67071  43.531  35.067   3.687
98667W        W67072  17.520   6.588   4.098
98668W        W67073  32.492  24.443  13.112
98669W        W67074   8.608  38.765  14.817
98670W        W67075   5.211  20.034   2.677
98671W        W67076   5.108  27.668  12.184
98672W        W67077   6.727   1.815  14.836
98673W        W67078  26.579  19.976   4.069
98674W        W67079  33.924   3.351  11.918
98675W        W67080  19.128  25.697  12.511
98676W        W67081  12.888  24.167  10.731
98677W        W67082   0.767  30.951  11.591
98678W        W67083  24.904  22.052  12.775
98679W        W67084  28.463   9.682   0.269
98680W        W67085  10.090   6.931  11.103
98681W        W67086  15.354  27.648  14.505
98682W        W67087  18.924  23.177   1.312
98683W        W67088   7.780   2.666   3.621
98684W        W67089   0.568  40.083   3.143
98685W        W67090  36.106   1.440  10.719
98686W        W67091  41.483  16.684   4.851
98687W        W67092  28.914  24.632  13.855
98688W        W67093  16.621  12.940  14.729
98689W        W67094  30.931   3.867   2.662
98690W        W67095   4.794  23.129  12.487
98691W        W67096  36.168   0.765  10.973
98692W        W67097  14.349  23.825  12.546
98693W        W67098  42.959  12.890  12.300
98694W        W67099  12.550  40.556   1.450
98695W        W67100  40.074  36.880  12.417
98696W        W67101  31.037   8.658   1.857
98697W        W67102  42.537  17.163   3.768
98698W        W67103  24.638  30.416   2.452
98699W        W67104  29.496  19.818  13.456
98700W        W67105  16.606   7.929   4.085
98701W        W67106  24.011  14.634  10.754
98702W        W67107   1.305   9.772   0.532
98703W        W67108  36.396  13.766   2.265
98704W        W67109  29.680  40.834   0.845
98705W        W67110  28.811   2.337   3.575
98706W        W67111   1.877  35.332  14.148
98707W        W67112  14.353   5.165  11.945
98708W        W67113  15.047  13.503  11.407
98709W        W67114  24.692  23.488   0.589
98710W        W67115   3.567  28.188   3.515
98711W        W67116  40.756  24.729   0.674
98712W        W67117  41.038  11.046   2.139
98713W        W67118  13.463  34.097  11.025
98714W        W67119  11.652  24.347  14.390
98715W        W67120   7.792  44.140  14.360
98716W        W67121  39.389  44.364  11.155
98717W        W67122  15.052  13.699  13.536
98718W        W67123  26.235   6.604  12.460
98719W        W67124  40.630  17.504  14.757
98720W        W67125  27.247   8.597   4.471
98721W        W67126  33.133   0.935  14.345
98722W        W67127  23.496  29.196  11.596
98723W        W67128  18.551  26.278  11.223
98724W        W67129  44.861   7.575   4.641
98725W        W67130  10.194  20.950  11.610
98726W        W67131   1.854   3.202  12.084
98727W        W67132  15.408  38.250  12.068
98728W        W67133   2.579   7.981  13.876
98729W        W67134  17.360  39.897   1.307
98730W        W67135  17.166  27.939   0.559
98731W        W67136  14.055  11.999   1.270
98732W        W67137  26.589   8.947   0.383
98733W        W67138  17.135   6.161  13.976
98734W        W67139  41.057  35.988  13.554
98735W        W67140  29.375   6.256   4.817
98736W        W67141  20.074  16.869   1.788
98737W        W67142  38.457   7.792  11.421
98738W        W67143  37.170   7.766   1.464
98739W        W67144  40.307   0.712  14.938
98740W        W67145   9.393  20.765  12.500
98741W        W67146  12.336  36.578  12.379
98742W        W67147  39.760  11.828  13.869
98743W        W67148  30.736   2.053  11.627
98744W        W67149  17.128  26.200   2.995
98745W        W67150  14.610  27.357  14.939
98746W        W67151  39.384   0.680  11.650
98747W        W67152  23.499   4.195  14.446
98748W        W67153  32.427  42.343   2.367
98749W        W67154  26.662  26.169   0.204
98750W        W67155  40.911  32.861  13.872
98751W        W67156  37.463  39.501   3.939
98752W        W67157   8.008  20.731  12.367
98753W        W67158  28.878  41.924   1.672
98754W        W67159  11.750   8.676  12.231
98755W        W67160  15.574   7.200  11.040
98756W        W67161   4.501  25.523   0.863
98757W        W67162  17.071  18.101  12.656
98758W        W67163  39.425  33.494  14.317
98759W        W67164  11.887   8.380   3.397
98760W        W67165  14.843  29.584   2.864
98761W        W67166  42.865  38.743   4.614
98762W        W67167  37.954  38.340   4.534
98763W        W67168  31.554  26.645   2.277
98764W        W67169  19.514  44.289   0.780
98765W        W67170  26.464  19.026   4.182
98766W        W67171   5.374  11.851  12.199
98767W        W67172  26.470   5.494   2.839
98768W        W67173  44.878  25.220   1.897
98769W        W67174   3.942  22.535  11.670
98770W        W67175  44.419  19.974   1.045
98771W        W67176  42.087  43.627   2.110
98772W        W67177  32.800  42.563  11.104
98773W        W67178   7.616  15.563   5.368
98774W        W67179  35.817  24.503  13.429
98775W        W67180  39.270  39.515   1.843
98776W        W67181   2.650   5.983   4.571
98777W        W67182  25.121  34.016   2.263
98778W        W67183  37.128  33.525  13.888
98779W        W67184  15.724  18.499   3.875
98780W        W67185  39.125  13.804  14.374
98781W        W67186  11.372   2.536  12.808
98782W        W67187  42.535  41.057  11.938
98783W        W67188  27.159  14.633  14.926
98784W        W67189  39.838  14.802   4.602
98785W        W67190  34.848  29.649  12.480
98786W        W67191   7.571  40.262  12.172
98787W        W67192  11.108  34.150   2.387
98788W        W67193  26.712  28.136  13.617
98789W        W67194  38.446  38.093   1.229
98790W        W67195   9.096  32.909   4.144
98791W        W67196   4.345  39.016  14.437
98792W        W67197  25.982   8.605   5.010
98793W        W67198  44.819  21.799  14.618
98794W        W67199  17.351   2.339  11.158
98795W        W67200  38.834  38.368  12.843
98796W        W67201  33.934  22.035   3.775
98797W        W67202  33.725  35.083   1.417
98798W        W67203  17.548  30.067  12.810
98799W        W67204   3.872  11.829  13.718
98800W        W67205  19.413  31.697   2.274
98801W        W67206  37.481   8.999   1.041
98802W        W67207  34.126  18.750  12.012
98803W        W67208  21.683  25.382   4.250
98804W        W67209  21.462   2.439  12.868
98805W        W67210   8.362   6.296  11.120
98806W        W67211  24.884  40.313  13.025
98807W        W67212  11.921  16.781   3.748
98808W        W67213  27.003  21.782   4.097
98809W        W67214  40.336  40.937  12.159
98810W        W67215   0.018   2.283  12.109
98811W        W67216  19.680  29.661  11.584
98812W        W67217  15.245  41.501   0.741
98813W        W67218   0.435  32.642   2.195
98814W        W67219  13.212  19.948  12.181
98815W        W67220  38.866  43.361  14.299
98816W        W67221  22.589  22.147   4.309
98817W        W67222  42.982  14.135   3.177
98818W        W67223  36.345  44.546   3.723
98819W        W67224  31.636  12.676  12.955
98820W        W67225  28.524  32.900  12.820
98821W        W67226  36.777  37.263  12.428
98822W        W67227  36.127  10.187   4.861
98823W        W67228  35.932  22.183   2.269
98824W        W67229  26.122   0.670   1.767
98825W        W67230  12.200  23.324  14.946
98826W        W67231  27.402  35.712  10.919
98827W        W67232  40.694   4.147  12.154
98828W        W67233  28.354  18.115   1.857
98829W        W67234  26.682   2.211   4.061
98830W        W67235  17.984  24.826   5.510
98831W        W67236   5.300  15.296   4.599
98832W        W67237  41.485  26.718   3.768
98833W        W67238  15.654   7.867   2.615
98834W        W67239  10.364  43.989   3.291
98835W        W67240  14.849  34.951  11.653
98836W        W67241  15.916  23.434  11.098
98837W        W67242   0.367  38.869   2.609
98838W        W67243  12.860  37.985  12.588
98839W        W67244  26.716  28.050  14.374
98840W        W67245   0.980  33.761   3.486
98841W        W67246  24.158   9.435  10.955
98842W        W67247  12.713   3.269   1.049
98843W        W67248  30.596   3.531  12.578
98844W        W67249  15.462   6.618   3.884
98845W        W67250   2.456  14.606   0.372
98846W        W67251   9.029  29.101  12.552
98847W        W67252  31.080   1.601  10.632
98848W        W67253   0.312  15.201   0.785
98849W        W67254  26.234   7.110  13.054
98850W        W67255  43.707  14.907   1.442
98851W        W67256   2.040  18.062  13.424
98852W        W67257  38.945  44.780   1.713
98853W        W67258  21.647  39.087  10.885
98854W        W67259  25.781  27.252   3.841
98855W        W67260   5.569  26.503   1.905
98856W        W67261  29.212  32.398  14.269
98857W        W67262  24.490  17.380  14.312
98858W        W67263   0.428  40.447  12.036
98859W        W67264  22.552  21.235   3.861
98860W        W67265  13.857   6.232  11.272
98861W        W67266  39.297  27.933   2.336
98862W        W67267  29.525  28.207   0.487
98863W        W67268  30.425  42.639  14.904
98864W        W67269  36.155  29.469   2.284
98865W        W67270  33.385   5.169  12.873
98866W        W67271  34.362  25.498  13.963
98867W        W67272  26.367  23.665   1.342
98868W        W67273   9.277  37.991  10.705
98869W        W67274   9.371   7.680  11.236
98870W        W67275  25.212  17.592  13.930
98871W        W67276  30.929  25.151  14.602
98872W        W67277  18.697  31.496   3.096
98873W        W67278  24.540   4.869   4.750
98874W        W67279  26.685  24.248  11.612
98875W        W67280  10.999  33.803  12.953
98876W        W67281  26.448  43.948   3.683
98877W        W67282  19.261   3.433   9.996
98878W        W67283  17.182  36.342  12.523
98879W        W67284  28.638  39.389  11.719
98880W        W67285  36.802   1.279  11.570
98881W        W67286  26.001  15.100  10.621
98882W        W67287  16.202   8.903  11.364
98883W        W67288  17.553  15.869   2.900
98884W        W67289   4.345  16.418   2.964
98885W        W67290  41.481  34.840   0.197
98886W        W67291  29.222  29.731  12.923
98887W        W67292  14.803  43.964  14.872
98888W        W67293  27.991  15.019   5.073
98889W        W67294   5.848   8.358   2.943
98890W        W67295   6.483  29.229   3.640
98891W        W67296  44.959  33.126  11.842
98892W        W67297  11.756  33.185  11.692
98893W        W67298   2.901  41.843   2.846
98894W        W67299   5.252  21.564   0.744
98895W        W67300  20.188  40.366   1.964
98896W        W67301  15.665  15.091  13.931
98897W        W67302  23.034  40.511  12.891
98898W        W67303   9.159  17.687  10.727
98899W        W67304   8.468   7.836   1.813
98900W        W67305  21.513  11.484  14.380
98901W        W67306   2.410  18.127   3.912
98902W        W67307  25.253  37.816   2.353
98903W        W67308   2.435  41.339  12.458
98904W        W67309  24.980  20.604   3.332
98905W        W67310  12.579  29.007   3.207
98906W        W67311  28.551  41.589   1.390
98907W        W67312  28.516  28.730  14.262
98908W        W67313  17.295  36.937   0.688
98909W        W67314  32.661  10.455   0.329
98910W        W67315   7.384  42.834  14.078
98911W        W67316   9.798   0.491   0.938
98912W        W67317  35.558   7.920  13.994
98913W        W67318   3.989  31.206   1.316
98914W        W67319  20.997  28.533   0.765
98915W        W67320  20.039  20.526  12.027
98916W        W67321   0.509  15.624   2.619
98917W        W67322   3.022  43.174   3.697
98918W        W67323  37.986  38.158   0.299
98919W        W67324  42.195  43.920   0.929
98920W        W67325  13.285  18.434  10.464
98921W        W67326  16.005   3.778   0.253
98922W        W67327  23.101  13.156  10.584
98923W        W67328  41.355   3.410   4.117
98924W        W67329   0.220  11.290  12.454
98925W        W67330  17.177  29.031  14.989
98926W        W67331  36.134  32.986   4.323
98927W        W67332  24.514  28.025  14.269
98928W        W67333  18.170  33.435  11.925
98929W        W67334   3.005  44.386  14.919
98930W        W67335  19.049  30.444  13.001
98931W        W67336   4.809  10.875   2.340
98932W        W67337   0.278  14.127   3.416
98933W        W67338  13.140   3.685   2.733
98934W        W67339  33.114  27.468  14.680
98935W        W67340   7.815  42.824   3.264
98936W        W67341  21.530  28.477   3.221
98937W        W67342   0.598  31.368   1.781
98938W        W67343   2.772  32.098  14.558
98939W        W67344  36.609   4.716   9.808
98940W        W67345  37.938   5.237   0.276
98941W        W67346  30.222  15.343  12.535
98942W        W67347  19.187  42.470  13.074
98943W        W67348  27.487  30.168  14.076
98944W        W67349  14.748  18.462  11.857
98945W        W67350  32.400   8.880   2.343
98946W        W67351  41.284  27.299   2.703
98947W        W67352   7.212  17.197  10.171
98948W        W67353  27.092  44.719   0.310
98949W        W67354  21.236  43.224  14.426
98950W        W67355  29.155  38.547   2.003
98951W        W67356  13.848   3.865   5.005
98952W        W67357   5.635  24.023   0.546
98953W        W67358  15.148  41.771   4.696
98954W        W67359   1.604   8.396   1.324
98955W        W67360  27.972  21.613   3.279
98956W        W67361   6.299   4.054   3.664
98957W        W67362  41.171  12.778  13.583
98958W        W67363   6.788   4.293   3.310
98959W        W67364  33.755  41.243   4.320
98960W        W67365  41.511  20.556  14.306
98961W        W67366   9.789  13.654   3.755
98962W        W67367  26.017  10.283   1.430
98963W        W67368   7.654  21.509   1.924
98964W        W67369  22.851   0.282  14.055
98965W        W67370  29.150   1.414   3.749
98966W        W67371  23.183  18.792  12.637
98967W        W67372  35.338   1.936   2.914
98968W        W67373  32.132   5.343  10.705
98969W        W67374  43.545  40.575   3.128
98970W        W67375  14.424  13.254   4.133
98971W        W67376  42.819  35.407   2.830
98972W        W67377  29.257  29.408   3.646
98973W        W67378   0.979  38.887  10.335
98974W        W67379  13.499   4.757  10.049
98975W        W67380   6.181  21.333   4.146
98976W        W67381  43.359  43.288  10.694
98977W        W67382  29.208  11.277   0.755
98978W        W67383   8.407  16.027  13.412
98979W        W67384  32.463   6.819  13.526
98980W        W67385  29.511  23.603   1.955
98981W        W67386  30.625  24.899   2.137
98982W        W67387  30.371  32.969   4.259
98983W        W67388   4.127  37.985  14.597
98984W        W67389  37.443  39.327   2.452
98985W        W67390  15.261  34.852   4.627
98986W        W67391  25.431  38.263  12.006
98987W        W67392  35.829   3.282   0.692
98988W        W67393  25.976   5.652  10.982
98989W        W67394   0.022   1.187  12.706
98990W        W67395  40.336  17.773  13.877
98991W        W67396  24.280  15.253   1.121
98992W        W67397  44.835   7.081  11.559
98993W        W67398  33.643   0.762  14.531
98994W        W67399   1.039  19.799   2.755
98995W        W67400   6.799  44.025   4.945
98996W        W67401   8.610  34.019   3.773
98997W        W67402  11.473  18.268   4.196
98998W        W67403   1.513  34.540  13.948
98999W        W67404  42.509  35.712   4.200
99000W        W67405  22.949  34.987   0.453
99001W        W67406  21.212  28.229  13.044
99002W        W67407  40.857   0.011  13.040
99003W        W67408  14.878  37.979   1.770
99004W        W67409   9.692  14.277  13.267
99005W        W67410  23.706  11.306  10.737
99006W        W67411  15.133  19.094  10.528
99007W        W67412  42.473  41.931   1.963
99008W        W67413  10.438  37.474   3.207
99009W        W67414  28.661  38.903   2.687
99010W        W67415  25.129  20.727  12.146
99011W        W67416  23.259  40.263   2.388
99012W        W67417  10.406  29.634  11.237
99013W        W67418  31.696  14.189   3.185
99014W        W67419  23.479  26.190   3.762
99015W        W67420  23.960  10.730  12.091
99016W        W67421  19.702  13.661   1.909
99017W        W67422  16.976  15.450  13.762
99018W        W67423   6.597  30.598  11.075
99019W        W67424  22.251  29.795   1.841
99020W        W67425  36.593  15.860   5.063
99021W        W67426  13.921   6.475  12.625
99022W        W67427  19.292   7.335  11.625
99023W        W67428  25.230  42.212   2.835
99024W        W67429  14.502  27.226  11.565
99025W        W67430  44.152  26.002  11.941
99026W        W67431  25.893  32.963  13.431
99027W        W67432  24.995  31.177  11.170
99028W        W67433  25.260   3.250   1.558
99029W        W67434   2.753  17.235  12.999
99030W        W67435  15.278  12.088  14.768
99031W        W67436  31.145   4.120  12.056
99032W        W67437  38.888  21.261  12.908
99033W        W67438  27.783   8.242   0.828
99034W        W67439  11.344   4.894   1.808
99035W        W67440  39.329   1.309   2.084
99036W        W67441  26.998  38.438  13.934
99037W        W67442   7.824  10.596  11.042
99038W        W67443   7.254  41.848  10.756
99039W        W67444  34.853   7.613  12.490
99040W        W67445  15.148  14.248   4.599
99041W        W67446  20.306   4.163   4.107
99042W        W67447  13.787  20.594   1.278
99043W        W67448   5.895  37.155  13.898
99044W        W67449   5.699  43.904   3.681
99045W        W67450   1.249  25.604   3.753
99046W        W67451  40.629  19.958  11.047
99047W        W67452  39.357  21.492  12.815
99048W        W67453   2.716   0.986  14.809
99049W        W67454  42.418   9.149  13.863
99050W        W67455  15.956  18.947  10.761
99051W        W67456  10.758  37.623  14.391
99052W        W67457  19.210   0.666   0.542
99053W        W67458   6.392  44.452  14.821
99054W        W67459  30.069   2.239  13.008
99055W        W67460  38.817  15.303  11.153
99056W        W67461  23.001  26.114   0.825
99057W        W67462  24.924  23.998  11.150
99058W        W67463  35.860  37.878   3.172
99059W        W67464  15.145  20.956  13.418
99060W        W67465  16.723  22.152   2.319
99061W        W67466   1.086  39.901   1.711
99062W        W67467  41.446  36.331  13.526
99063W        W67468  32.515  17.845  13.063
99064W        W67469   4.589  11.799  14.408
99065W        W67470  17.858  31.956  10.109
99066W        W67471  30.354  26.072   3.300
99067W        W67472  13.927  43.013  10.966
99068W        W67473   2.844  17.677  10.549
99069W        W67474  14.872   8.782  10.975
99070W        W67475  22.701  40.301   0.317
99071W        W67476  41.889  38.694   1.771
99072W        W67477   2.958   3.289   2.338
99073W        W67478  40.820  35.385  10.881
99074W        W67479  10.290   9.228   1.312
99075W        W67480  13.903  24.753  14.918
99076W        W67481  25.650  10.373  11.515
99077W        W67482  11.320  38.296   0.177
99078W        W67483  42.005  28.573  14.556
99079W        W67484  37.590   4.603   2.368
99080W        W67485   3.698   3.967   0.060
99081W        W67486   2.850  25.101  11.514
99082W        W67487  29.569  12.758  10.773
99083W        W67488  35.889  44.502  14.950
99084W        W67489  36.568  10.261   0.674
99085W        W67490  20.340  41.176  13.765
99086W        W67491  24.685  19.071  13.931
99087W        W67492  18.616   4.671  10.389
99088W        W67493  37.011  17.300  14.432
99089W        W67494  30.883  37.395   2.757
99090W        W67495  19.876  38.516  13.299
99091W        W67496  30.060  40.426   2.791
99092W        W67497   7.318   8.298   3.032
99093W        W67498   4.817  43.583  11.035
99094W        W67499   4.469  22.304  10.695
99095W        W67500  19.625  23.177  11.208
99096W        W67501   5.408  27.461  12.572
99097W        W67502  33.134  17.080   0.078
99098W        W67503  33.395   9.020  12.972
99099W        W67504  22.409  22.990  10.765
99100W        W67505  15.713   5.973   3.141
99101W        W67506  18.672  22.672  12.993
99102W        W67507  30.390   4.802  14.572
99103W        W67508  14.752   5.190  14.437
99104W        W67509  32.102  15.115  10.750
99105W        W67510  21.474  26.667   0.015
99106W        W67511  43.321  20.324   1.413
99107W        W67512  27.817  15.531  10.242
99108W        W67513   3.049  43.994   2.258
99109W        W67514  23.494  44.865   2.219
99110W        W67515   0.770  16.624  10.571
99111W        W67516  43.472   4.144   2.219
99112W        W67517  31.803  43.698   1.445
99113W        W67518  13.093  43.565   4.049
99114W        W67519  40.358  40.253  14.763
99115W        W67520  39.917  21.006  11.460
99116W        W67521  27.353  32.984   4.529
99117W        W67522  17.630   3.114   0.055
99118W        W67523   4.176  20.862  12.874
99119W        W67524  36.824   7.166   4.058
99120W        W67525  32.922  24.471   4.176
99121W        W67526   4.245   7.998   3.739
99122W        W67527  11.067  30.433  11.291
99123W        W67528  41.967  12.131   4.601
99124W        W67529  27.464   6.012   3.603
99125W        W67530  22.164  40.751   1.376
99126W        W67531  21.112  32.568   3.146
99127W        W67532  37.888   2.070  14.304
99128W        W67533  35.443  18.721  12.450
99129W        W67534  10.320  19.507   1.188
99130W        W67535  22.397  37.071   4.689
99131W        W67536  19.748  28.630  12.851
99132W        W67537   7.903  10.145  13.467
99133W        W67538  11.130  41.299   3.564
99134W        W67539  11.215  41.840  14.476
99135W        W67540  18.568  11.653   9.947
99136W        W67541  16.843  28.463  13.759
99137W        W67542  39.833  13.624   0.502
99138W        W67543  17.873  16.068  13.425
99139W        W67544  43.073  11.253  11.641
99140W        W67545  25.655  42.977   1.858
99141W        W67546  26.580   7.514  13.074
99142W        W67547  35.204  13.500  14.769
99143W        W67548   5.257  10.299  10.894
99144W        W67549  41.242  38.577  11.254
99145W        W67550  42.859  19.481   1.261
99146W        W67551  20.245  44.104  10.421
99147W        W67552  20.003   9.459   1.782
99148W        W67553  10.542  15.413  12.972
99149W        W67554   8.799  12.119  13.009
99150W        W67555  34.851  10.814   4.068
99151W        W67556  20.261  15.324  12.959
99152W        W67557   8.375  43.813  14.277
99153W        W67558  36.527   3.299   1.966
99154W        W67559  18.637  30.510   1.179
99155W        W67560  40.191  42.026  14.705
99156W        W67561   5.343  35.743   2.554
99157W        W67562  18.487  33.917   5.482
99158W        W67563   9.463  13.557   5.194
99159W        W67564  25.717  34.339   1.688
99160W        W67565  25.613   4.724  13.585
99161W        W67566  30.828   3.102  12.407
99162W        W67567  37.571  25.597   3.749
99163W        W67568   6.356  13.101  13.025
99164W        W67569  20.299   5.382   0.870
99165W        W67570  13.379  30.988  12.862
99166W        W67571  15.995  11.515   3.867
99167W        W67572  43.126  14.278  13.494
99168W        W67573  21.178  11.101   0.489
99169W        W67574  44.985   6.779  12.967
99170W        W67575  27.955   6.940   2.646
99171W        W67576  22.792  19.464  12.583
99172W        W67577   9.668  13.704  13.790
99173W        W67578  27.062  19.703   3.091
99174W        W67579  42.460  42.450  13.005
99175W        W67580   5.467  32.963   2.172
99176W        W67581   2.815  21.054   2.305
99177W        W67582  35.237   4.802  11.100
99178W        W67583  23.251  12.400   0.864
99179W        W67584  25.690   8.829  10.752
99180W        W67585  14.136  18.156   0.772
99181W        W67586  27.154  42.772  10.696
99182W        W67587  12.446  11.378  14.466
99183W        W67588   5.911  43.344   3.837
99184W        W67589  13.342   6.667  14.787
99185W        W67590  44.310   9.733  12.948
99186W        W67591   4.265  40.479  12.832
99187W        W67592  20.783  12.220   2.317
99188W        W67593  22.666  35.173   3.275
99189W        W67594  34.554   8.826   0.410
99190W        W67595   5.466  11.756  11.222
99191W        W67596  18.756  20.505  13.571
99192W        W67597  27.150  14.754   4.288
99193W        W67598  25.054  43.701   2.631
99194W        W67599  24.177   8.792   0.257
99195W        W67600  24.612  41.419   0.034
99196W        W67601  27.339  11.675   0.387
99197W        W67602  32.866  19.915   0.363
99198W        W67603  39.590  14.060   1.178
99199W        W67604  25.571   8.548  12.988
99200W        W67605  44.072   0.887   0.915
99201W        W67606  38.255  36.597   1.326
99202W        W67607   8.717   4.427  13.301
99203W        W67608  42.503  31.957   2.927
99204W        W67609   1.913  13.885  11.684
99205W        W67610  15.765   8.829   3.816
99206W        W67611  21.673  23.016   0.014
99207W        W67612   9.707  14.223  13.781
99208W        W67613  25.115  40.748   3.916
99209W        W67614  14.299  25.115  12.545
99210W        W67615  31.572  20.262  12.655
99211W        W67616  31.824  13.349  13.729
99212W        W67617   9.667  12.721   2.235
99213W        W67618  25.963   2.907  11.469
99214W        W67619   0.705  42.487  14.406
99215W        W67620  29.698  23.392   5.010
99216W        W67621  42.774  43.076   0.773
99217W        W67622   6.667  17.029   2.444
99218W        W67623  37.426   4.699   0.964
99219W        W67624  35.443  41.481  10.876
99220W        W67625  11.695   3.164  14.436
99221W        W67626  36.426  29.588  14.706
99222W        W67627  40.294   1.809  12.416
99223W        W67628  37.616  21.044  12.561
99224W        W67629   9.099   3.248   4.193
99225W        W67630  42.978  24.148   1.802
99226W        W67631  34.900  31.492   1.518
99227W        W67632  13.397  30.126   4.149
99228W        W67633  11.319   0.170  14.293
99229W        W67634  42.855  20.464  13.774
99230W        W67635  37.113  37.923  13.008
99231W        W67636  20.033  33.035   0.390
99232W        W67637  16.125  17.663  10.835
99233W        W67638  26.224  35.410   0.334
99234W        W67639  25.809  44.446   2.430
99235W        W67640  10.980  26.789  12.246
99236W        W67641  21.444   1.413   1.765
99237W        W67642  28.067   2.494  13.842
99238W        W67643  16.013  43.747   1.970
99239W        W67644  44.493   0.283  14.838
99240W        W67645  40.874  44.345   1.840
99241W        W67646   5.631  42.261   3.057
99242W        W67647  23.756  29.708  12.481
99243W        W67648   8.595  14.758   2.711
99244W        W67649  44.938  19.245  13.110
99245W        W67650  12.284  22.524   4.567
99246W        W67651   7.706   5.377  12.823
99247W        W67652  34.001   4.864  14.599
99248W        W67653  33.981  10.146  12.947
99249W        W67654  32.475   2.875   2.252
99250W        W67655  16.545   5.286   4.612
99251W        W67656  25.502  22.128  14.916
99252W        W67657  25.776  38.893  10.344
99253W        W67658  22.793   9.399  14.476
99254W        W67659  17.682  19.774  11.719
99255W        W67660  36.433  25.107   0.953
99256W        W67661  14.357  40.463   4.499
99257W        W67662  35.413  16.101   3.389
99258W        W67663   8.938  35.879  14.874
99259W        W67664  25.953  18.826   4.225
99260W        W67665  37.828  40.944   4.702
99261W        W67666  28.714  17.143  14.429
99262W        W67667  42.490  31.518   4.146
99263W        W67668  23.074  29.000   0.741
99264W        W67669  41.837  31.453   3.158
99265W        W67670  29.134  12.154   3.736
99266W        W67671  12.317  17.277   1.817
99267W        W67672   7.783  44.443  11.221
99268W        W67673   8.624  17.813  14.509
99269W        W67674  35.233  16.263   2.916
99270W        W67675  35.882  38.623  14.916
99271W        W67676  24.252  12.058  11.683
99272W        W67677  26.397  37.442   4.111
99273W        W67678  41.283  38.069  12.144
99274W        W67679  10.066  34.931  11.837
99275W        W67680  36.721   0.477   3.578
99276W        W67681  34.155   4.585  13.796
99277W        W67682  28.407  18.495  13.074
99278W        W67683  17.686  10.091  10.260
99279W        W67684  15.098  27.642  14.986
99280W        W67685  12.170  23.457   1.357
99281W        W67686  18.782   0.206   2.733
99282W        W67687  21.228  11.282  12.854
99283W        W67688  21.621  25.062  14.292
99284W        W67689  20.798   4.928   3.177
99285W        W67690  38.550  32.582   2.848
99286W        W67691   7.108  15.267   2.409
99287W        W67692  38.633   8.273  11.589
99288W        W67693  31.936  22.317   1.349
99289W        W67694   3.263  10.430   3.748
99290W        W67695   0.801  44.022  11.643
99291W        W67696  39.208  10.478   1.330
99292W        W67697  18.689  17.248   4.624
99293W        W67698  41.014  19.508  13.941
99294W        W67699   0.745  25.004   3.187
99295W        W67700  14.495  17.696  12.424
99296W        W67701  26.514  37.328  13.352
99297W        W67702  18.790  21.096   5.023
99298W        W67703   0.046   1.775   2.882
99299W        W67704   8.443  11.754  13.390
99300W        W67705  32.118  19.727   2.343
99301W        W67706  42.179  16.574   1.236
99302W        W67707  40.097  43.445   1.325
99303W        W67708   0.214  23.082  14.842
99304W        W67709  19.158   6.397   4.734
99305W        W67710  33.697  26.127   2.936
99306W        W67711   5.095  36.069   1.214
99307W        W67712   9.896  32.466  13.032
99308W        W67713  24.501  38.766  12.038
99309W        W67714  38.112  34.425   2.859
99310W        W67715  31.885  19.593   3.612
99311W        W67716  43.486  29.000   2.301
99312W        W67717  24.342  34.903  12.633
99313W        W67718   0.906  10.415  14.066
99314W        W67719  13.705  21.890   2.151
99315W        W67720  32.120  14.225   3.516
99316W        W67721   1.730   8.146   2.718
99317W        W67722  11.772  29.444  13.859
99318W        W67723  23.715   2.873  11.474
99319W        W67724  10.723  27.163   0.722
99320W        W67725  43.001  16.176   1.408
99321W        W67726  11.338  42.125  12.434
99322W        W67727   5.855   1.373  13.009
99323W        W67728  29.976  27.417  11.860
99324W        W67729  40.424  37.339   0.051
99325W        W67730  30.910   5.454   1.011
99326W        W67731  41.312  15.677  13.445
99327W        W67732   3.418  41.100  12.418
99328W        W67733  43.621  21.301   1.732
99329W        W67734   4.779  37.572  12.377
99330W        W67735  24.042  25.337  10.709
99331W        W67736  36.791  24.191   4.375
99332W        W67737  18.956  30.194  11.599
99333W        W67738  30.366  31.935  12.610
99334W        W67739   7.137   7.716   0.019
99335W        W67740  22.647  38.562  13.486
99336W        W67741  25.941  12.748  13.016
99337W        W67742  23.046  42.211   4.642
99338W        W67743   3.799  30.115   3.723
99339W        W67744  10.551  26.823  14.808
99340W        W67745   0.403  43.994   3.192
99341W        W67746  20.585  35.061  12.072
99342W        W67747  40.842   9.230   2.354
99343W        W67748   0.462   4.810  13.463
99344W        W67749  23.184  10.115  10.119
99345W        W67750  28.603   7.424   0.142
99346W        W67751  39.029  42.017   2.173
99347W        W67752  27.216  26.440  14.717
99348W        W67753  43.721  36.463  13.914
99349W        W67754  17.344   7.786   1.020
99350W        W67755  27.655   6.751   3.385
99351W        W67756  19.580  22.421  12.283
99352W        W67757  21.147  28.998   1.328
99353W        W67758  18.800   9.311  12.973
99354W        W67759   2.475  34.082   4.843
99355W        W67760   6.209  25.184  13.288
99356W        W67761   0.332  24.416  11.840
99357W        W67762  41.004  14.807   4.651
99358W        W67763   8.481  38.269  11.902
99359W        W67764  25.694  20.222   2.016
99360W        W67765  42.779  12.693   3.492
99361W        W67766  43.006  19.423   0.167
99362W        W67767  22.972  44.377   3.659
99363W        W67768   8.331  41.949   0.514
99364W        W67769   8.730  26.637   2.648
99365W        W67770  29.353  21.459   4.225
99366W        W67771  18.223  35.633  12.049
99367W        W67772  26.423  22.870  14.543
99368W        W67773  40.238  14.056  11.312
99369W        W67774  34.363  41.838   1.429
99370W        W67775  24.371  29.379  14.492
99371W        W67776   4.448  26.070  11.516
99372W        W67777  21.775  44.987   1.332
99373W        W67778  14.949  18.140  10.515
99374W        W67779  40.310  13.196  12.081
99375W        W67780  31.078  15.285  12.126
99376W        W67781  13.644  20.559   2.703
99377W        W67782  26.171  28.986  14.087
99378W        W67783  20.056  44.866  11.500
99379W        W67784  34.651  10.877  11.945
99380W        W67785  29.528  36.475   3.003
99381W        W67786  24.961  17.125   0.985
99382W        W67787  18.025  39.547   3.256
99383W        W67788  40.716  27.397  13.451
99384W        W67789  44.351  11.923   0.947
99385W        W67790   1.559  16.952   4.560
99386W        W67791  25.694  35.272   3.596
99387W        W67792  39.690  40.588   1.306
99388W        W67793  29.206   6.860   2.149
99389W        W67794  22.687  14.077   2.282
99390W        W67795  27.897   9.243  12.204
99391W        W67796  25.727  11.561   2.809
99392W        W67797  34.974  22.685   1.370
99393W        W67798   5.615  32.586  12.009
99394W        W67799   4.769  30.450   0.557
99395W        W67800  14.175  12.110  13.424
99396W        W67801  22.011  19.008   3.274
99397W        W67802  29.866   8.321  12.643
99398W        W67803  29.644  43.514   0.841
99399W        W67804  26.535  26.106   4.464
99400W        W67805   1.280  12.828  11.392
99401W        W67806  39.937  17.271   1.217
99402W        W67807   9.178  15.287  13.382
99403W        W67808   1.935   4.381   2.638
99404W        W67809  36.555  41.427   3.104
99405W        W67810  15.222  29.923   1.132
99406W        W67811  26.675  33.331   1.922
99407W        W67812   2.719   2.315   2.317
99408W        W67813   0.525  41.000  13.455
99409W        W67814  19.694  16.311   1.294
99410W        W67815  23.535  33.909  13.469
99411W        W67816  28.685  35.542   0.137
99412W        W67817  40.826  22.121  13.894
99413W        W67818  26.079  18.819   9.730
99414W        W67819  16.518  43.503  11.461
99415W        W67820   8.233   2.793   1.366
99416W        W67821  34.205  18.237  12.111
99417W        W67822  29.179  13.273   3.345
99418W        W67823  18.244  23.037  13.541
99419W        W67824   6.880  16.270   0.897
99420W        W67825   5.640   2.663  12.498
99421W        W67826   7.612  23.962  11.914
99422W        W67827  25.739  14.210  11.909
99423W        W67828  44.199   5.453   0.821
99424W        W67829   1.916  35.239   2.149
99425W        W67830  31.091  21.254  13.837
99426W        W67831   7.617   1.418  10.616
99427W        W67832  36.337  16.741  12.951
99428W        W67833  12.460  24.710  12.062
99429W        W67834  39.420  18.206   3.144
99430W        W67835   5.696   4.842   3.541
99431W        W67836   1.773  20.097  12.039
99432W        W67837   2.953  28.105  11.572
99433W        W67838  43.769   5.861  14.055
99434W        W67839  33.930  43.515   4.717
99435W        W67840  31.512  38.068   1.378
99436W        W67841  44.501  23.111   3.268
99437W        W67842  26.305  36.996  11.957
99438W        W67843  18.876  13.171   0.406
99439W        W67844  44.946  37.867  11.200
99440W        W67845  31.338  38.591   3.350
99441W        W67846   7.911  39.329  14.257
99442W        W67847  26.796  15.724  11.930
99443W        W67848  16.796  12.416  13.302
99444W        W67849  28.276  37.509   4.987
99445W        W67850  42.477   7.421  11.659
99446W        W67851  12.755  27.789  11.490
99447W        W67852  41.177   6.436  10.009
99448W        W67853  10.823  21.413  12.986
99449W        W67854  26.339  37.126  14.397
99450W        W67855   7.457  18.674  10.735
99451W        W67856   1.223  32.776  12.129
99452W        W67857   9.188  30.852  12.448
99453W        W67858  40.887  25.747   4.723
99454W        W67859  11.290   2.421   2.758
99455W        W67860  35.557  29.008   0.008
99456W        W67861   9.897  26.181  13.288
99457W        W67862  25.593  31.453  13.944
99458W        W67863  39.423  28.694   0.462
99459W        W67864  22.794  17.035   5.079
99460W        W67865  35.100  33.311  12.942
99461W        W67866  36.635  20.001   2.872
99462W        W67867  44.521   1.962   3.068
99463W        W67868  42.232  16.657   3.678
99464W        W67869  29.451   3.712   2.756
99465W        W67870   3.546   1.091   2.370
99466W        W67871   1.321  21.297  11.869
99467W        W67872  18.092  19.009   0.806
99468W        W67873  18.156  37.271  11.061
99469W        W67874  30.221  35.395  14.799
99470W        W67875  10.979  44.549  12.468
99471W        W67876  28.425  15.115   4.084
99472W        W67877  26.495  39.707  14.558
99473W        W67878   3.335  39.855   2.449
99474W        W67879  38.366  37.604   1.371
99475W        W67880  37.397  16.159   0.491
99476W        W67881  35.971  33.586   3.061
99477W        W67882  34.600   2.396  13.463
99478W        W67883  35.972   1.739  14.272
99479W        W67884  12.553  25.686  13.523
99480W        W67885   4.579  34.515  14.519
99481W        W67886   2.506  25.879  12.143
99482W        W67887  43.198  32.825  13.623
99483W        W67888  36.097  23.226  12.548
99484W        W67889   7.221   0.052   3.171
99485W        W67890  37.012  27.472  11.464
99486W        W67891  43.896  21.219   2.281
99487W        W67892  17.188  21.253  12.187
99488W        W67893  30.490  11.347  11.118
99489W        W67894  34.072  10.571   3.342
99490W        W67895  22.748  18.061  14.727
99491W        W67896  22.830  17.569   0.706
99492W        W67897  37.657  41.797   3.712
99493W        W67898  41.423  29.516  10.675
99494W        W67899  24.908   0.408   3.142
99495W        W67900  21.740  15.745   0.424
99496W        W67901  42.487  42.427  14.481
99497W        W67902  37.931  39.027   2.640
99498W        W67903   0.553  11.613  13.658
99499W        W67904  28.829  18.800   4.961
99500W        W67905  30.522  35.648   2.341
99501W        W67906  12.172  31.873  14.397
99502W        W67907  40.824  32.375  14.039
99503W        W67908  35.049  34.299   1.554
99504W        W67909  41.092  15.763   1.139
99505W        W67910  23.538  38.865  11.631
99506W        W67911   9.373   5.792   1.391
99507W        W67912  22.049  37.419  14.927
99508W        W67913  33.518  34.901   3.282
99509W        W67914  18.004   6.887  11.461
99510W        W67915  25.584  27.112   4.706
99511W        W67916   2.744  31.609  11.196
99512W        W67917  17.021  25.590  11.587
99513W        W67918  19.543  33.443  13.445
99514W        W67919  11.616  28.718   3.268
99515W        W67920  36.802   8.478   2.211
99516W        W67921  41.393  28.275   2.854
99517W        W67922  19.165  35.863   0.101
99518W        W67923  30.495  13.352  14.770
99519W        W67924   5.751  17.346   2.817
99520W        W67925  40.090   2.025  12.884
99521W        W67926  22.152  15.599  13.283
99522W        W67927  26.250  11.714  14.824
99523W        W67928   5.594  33.530   1.948
99524W        W67929  41.313  37.325  13.467
99525W        W67930  25.084  24.285  10.730
99526W        W67931  19.226  39.970  12.092
99527W        W67932  28.123  22.138  14.013
99528W        W67933   0.469  40.551  14.996
99529W        W67934  44.761  10.294  11.196
99530W        W67935  13.372   4.433  13.531
99531W        W67936   9.716  39.073   2.414
99532W        W67937   4.465   4.445   3.781
99533W        W67938   7.745  35.535   3.044
99534W        W67939  31.375  13.262  11.139
99535W        W67940   4.443  36.414  11.663
99536W        W67941  36.462  27.438   2.414
99537W        W67942  29.026  25.732  12.566
99538W        W67943  20.105  37.493   4.589
99539W        W67944  21.288  20.130  13.472
99540W        W67945  29.654  11.093  12.170
99541W        W67946  38.308   9.444   2.632
99542W        W67947  11.146   7.307   1.865
99543W        W67948   1.865  36.630   4.121
99544W        W67949  29.185  30.698  11.820
99545W        W67950  25.986   7.409   3.263
99546W        W67951  36.085  18.019  11.626
99547W        W67952  21.593   2.304  10.641
99548W        W67953  35.415  38.641   3.196
99549W        W67954  21.831   8.889  11.967
99550W        W67955  32.393  14.657  11.002
99551W        W67956  19.669  12.633  12.942
99552W        W67957  16.757   6.237  13.388
99553W        W67958   8.169  34.047  14.792
99554W        W67959   3.998  16.052  13.334
99555W        W67960  11.287  31.447  12.485
99556W        W67961  18.981  28.998  12.903
99557W        W67962  29.582  32.840   2.152
99558W        W67963   8.329   7.593   1.373
99559W        W67964  15.886  34.602   2.594
99560W        W67965  43.238  44.192   0.458
99561W        W67966  19.708  30.058  14.698
99562W        W67967  44.666  28.216  13.005
99563W        W67968   7.708  34.346   1.392
99564W        W67969   6.318  40.455   0.302
99565W        W67970  23.302  39.407  11.108
99566W        W67971  11.153   4.741  13.462
99567W        W67972  14.682  40.499   0.147
99568W        W67973  39.440  38.266   2.124
99569W        W67974   7.308  37.478   0.862
99570W        W67975  20.617  44.511  14.267
99571W        W67976  39.601  21.103  12.506
99572W        W67977  22.605  40.387  11.516
99573W        W67978  22.582  14.287   0.963
99574W        W67979  20.716   0.381   1.902
99575W        W67980  38.223   2.988  12.745
99576W        W67981  33.103   0.397   0.740
99577W        W67982  22.539  32.612   3.484
99578W        W67983  32.075  41.358   1.477
99579W        W67984  18.858  36.485  13.328
99580W        W67985   0.557   0.897   2.553
99581W        W67986  25.017  20.642   4.262
99582W        W67987  12.203  36.351  13.965
99583W        W67988  26.753  26.098   3.989
99584W        W67989   5.246   9.130  14.977
99585W        W67990  25.054  14.362   1.371
99586W        W67991  43.046  22.705   2.789
99587W        W67992  13.156  32.097  13.766
99588W        W67993  19.762   3.648  11.709
99589W        W67994   5.683  35.955  13.565
99590W        W67995  16.652   1.079  13.387
99591W        W67996  30.099   4.764   3.553
99592W        W67997  42.970   7.666  14.338
99593W        W67998  31.940  25.693   0.347
99594W        W67999  35.507  15.707   4.262
99595W        W68000  21.717  41.288  12.853
99596W        W68001   8.227  19.706  11.244
99597W        W68002  14.348  37.111   1.321
99598W        W68003  22.573  40.571   1.134
99599W        W68004   8.098   4.535   0.306
99600W        W68005   5.888   7.721  11.369
99601W        W68006  37.766   5.649  12.029
99602W        W68007  32.910  34.163   2.733
99603W        W68008  30.224  20.528  14.851
99604W        W68009  10.583  19.575   4.791
99605W        W68010   6.884   4.922   0.933
99606W        W68011  33.867  17.003  12.198
99607W        W68012  16.601  29.109  10.760
99608W        W68013  14.657   1.757   2.812
99609W        W68014  29.554  43.560  10.245
99610W        W68015  41.736  37.044  14.743
99611W        W68016   7.389  33.991   2.002
99612W        W68017   5.910  13.438   1.530
99613W        W68018  33.063  19.987   3.798
99614W        W68019  41.787   5.246  14.021
99615W        W68020  13.902   0.456   3.397
99616W        W68021  43.445  27.286   4.696
99617W        W68022   8.602  18.035  11.515
99618W        W68023  30.579  31.697   3.312
99619W        W68024  30.994  20.654  10.526
99620W        W68025  16.610   3.492   4.143
99621W        W68026   8.672  23.046   0.747
99622W        W68027  13.706  16.017  12.337
99623W        W68028  22.135   2.806   3.382
99624W        W68029  28.224  44.029  13.969
99625W        W68030  42.480  43.799  13.577
99626W        W68031   8.619   6.710   2.692
99627W        W68032  13.119  35.359  11.874
99628W        W68033  37.295  39.979   1.422
99629W        W68034  31.110   0.024  11.482
99630W        W68035  37.033   0.089  12.385
99631W        W68036  41.496  41.869   1.665
99632W        W68037   3.733  23.780   0.468
99633W        W68038  34.126   7.805   2.915
99634W        W68039  24.593  28.209   2.181
99635W        W68040   3.808  24.755   2.507
99636W        W68041  39.052   3.381   4.498
99637W        W68042  17.100   1.457  11.473
99638W        W68043  10.056  33.497  12.928
99639W        W68044  29.012   2.438  12.056
99640W        W68045  19.277  41.641  12.167
99641W        W68046  19.364   3.188   4.023
99642W        W68047  10.932  13.704  11.882
99643W        W68048  32.844  40.899   1.414
99644W        W68049  44.377  17.063  12.920
99645W        W68050  40.327  20.781  13.894
99646W        W68051  28.765  38.615   1.275
99647W        W68052   6.956  20.638  11.580
99648W        W68053  32.239  15.637   5.026
99649W        W68054  22.553   9.926   0.888
99650W        W68055  28.098  42.380  14.178
99651W        W68056  27.515  23.247  10.735
99652W        W68057   4.149   4.987   3.119
99653W        W68058  41.552   1.396   1.368
99654W        W68059  26.454   4.683   1.746
99655W        W68060  43.818  15.860   4.012
99656W        W68061  30.161   8.724  13.458
99657W        W68062  10.946  40.049  14.521
99658W        W68063  26.907  30.344  13.045
99659W        W68064  37.603  30.968  11.447
99660W        W68065  25.154  25.511  14.828
99661W        W68066   2.290   3.757   0.229
99662W        W68067  13.192   6.779   0.901
99663W        W68068  29.360   1.750   2.767
99664W        W68069   8.240   9.510   0.893
99665W        W68070  38.837  22.799   4.087
99666W        W68071  11.674  33.697  11.721
99667W        W68072  27.080  39.194   1.813
99668W        W68073  13.842  11.750   4.037
99669W        W68074  16.639  34.778  14.978
99670W        W68075   5.450   6.356   4.232
99671W        W68076  14.329  26.673  13.981
99672W        W68077  41.327  21.482   1.217
99673W        W68078  15.979  19.041  13.277
99674W        W68079  27.777  34.561   1.457
99675W        W68080  44.420  30.583   2.770
99676W        W68081  21.988  15.201  10.754
99677W        W68082  34.062  44.572  12.157
99678W        W68083  24.190  18.732   1.270
99679W        W68084  12.878  15.281   0.914
99680W        W68085  21.145   9.288  12.658
99681W        W68086  18.090   5.818  14.802
99682W        W68087   7.839   7.729  11.930
99683W        W68088  32.040   4.365  11.137
99684W        W68089  30.021  21.126  13.597
99685W        W68090  13.874  21.228   0.936
99686W        W68091  35.867  27.151  14.000
99687W        W68092  24.028  22.974  11.128
99688W        W68093  43.041  11.729   4.080
99689W        W68094  15.351  24.757   3.223
99690W        W68095  13.139  31.456  12.974
99691W        W68096  24.447  30.111  13.344
99692W        W68097  20.662   6.924   2.275
99693W        W68098  34.209  26.815   3.519
99694W        W68099  10.245  39.148   2.538
99695W        W68100  33.947  16.986  13.807
99696W        W68101  25.226  28.772  14.947
99697W        W68102  22.974  29.950   1.292
99698W        W68103   0.959  42.417  12.980
99699W        W68104  29.244  25.249   3.784
99700W        W68105   3.386  17.658  13.851
99701W        W68106  40.393  24.473   1.357
99702W        W68107  37.001   3.540  13.454
99703W        W68108  29.267   0.775  12.655
99704W        W68109  12.699  26.081  13.889
99705W        W68110  22.858  35.699  11.173
99706W        W68111  17.820  33.083  14.812
99707W        W68112  35.656  30.632   2.658
99708W        W68113  16.761  39.214   2.218
99709W        W68114  10.181   8.768  13.009
99710W        W68115  13.349  28.519  14.195
99711W        W68116   5.588  17.723  14.436
99712W        W68117  18.215  14.620   2.283
99713W        W68118  20.569  33.034   4.545
99714W        W68119  31.931  30.613  13.760
99715W        W68120  25.053   2.269  11.992
99716W        W68121  23.522   9.169  12.618
99717W        W68122   4.652   5.364  12.071
99718W        W68123   8.507  42.878   4.619
99719W        W68124  22.657  41.473  11.585
99720W        W68125  10.630  42.554   3.723
99721W        W68126  21.249   5.322   4.250
99722W        W68127  33.282   2.884  10.310
99723W        W68128   6.289   9.202  13.149
99724W        W68129   7.316  32.968   2.595
99725W        W68130  26.104  39.372  12.211
99726W        W68131  23.440  13.649  13.249
99727W        W68132  41.358  26.950   4.203
99728W        W68133  21.605  17.945  11.514
99729W        W68134  30.324  28.699   0.075
99730W        W68135   9.085  14.247  14.485
99731W        W68136   8.200  21.626  14.099
99732W        W68137  11.589  43.037   9.851
99733W        W68138  36.867  44.492  14.301
99734W        W68139  38.576  26.792   2.177
99735W        W68140  11.468  16.624   3.972
99736W        W68141  24.441  38.305   3.267
99737W        W68142   6.840  13.367   0.074
99738W        W68143  33.791  24.145  11.889
99739W        W68144  34.865  15.246   0.702
99740W        W68145   1.386  30.233   2.227
99741W        W68146  14.699  30.747   1.099
99742W        W68147  19.815  43.390  12.118
99743W        W68148  41.999  11.737  12.496
99744W        W68149  36.886  43.812  11.572
99745W        W68150   7.922   5.835  14.415
99746W        W68151  18.795  23.156   3.091
99747W        W68152  36.931  21.266  11.265
99748W        W68153  29.648  34.389   0.086
99749W        W68154   8.056   3.094   2.769
99750W        W68155  19.218  13.606   1.067
99751W        W68156  13.384  37.114   4.303
99752W        W68157  24.871   5.952   4.406
99753W        W68158  41.265  32.331  12.485
99754W        W68159  38.561   3.756  12.482
99755W        W68160  11.612  26.586   4.399
99756W        W68161   2.373  26.517   4.091
99757W        W68162  24.341  44.824   0.641
99758W        W68163  39.384  35.670  14.341
99759W        W68164   7.234  21.752  12.077
99760W        W68165   1.456   8.135  14.423
99761W        W68166   8.914  37.900   3.685
99762W        W68167   6.325  38.291   2.460
99763W        W68168   6.840   8.986   2.360
99764W        W68169  14.521  42.318   3.366
99765W        W68170  34.083  12.858  14.816
99766W        W68171  24.169  19.409   2.724
99767W        W68172  28.944  14.752   1.444
99768W        W68173  34.877   4.848   3.678
99769W        W68174   8.456  14.311   2.150
99770W        W68175  19.088   2.087  12.805
99771W        W68176  28.600   1.232  12.212
99772W        W68177  30.925  13.101   3.243
99773W        W68178  17.813  20.218   1.302
99774W        W68179  38.943  38.917   4.311
99775W        W68180  25.591  24.984  10.520
99776W        W68181  32.954  36.417   3.356
99777W        W68182  36.635   0.860   2.286
99778W        W68183  41.859   2.746  14.099
99779W        W68184  28.525   6.794  10.611
99780W        W68185  25.866  15.118   2.346
99781W        W68186  35.287  26.182  12.554
99782W        W68187  37.802  40.535   1.954
99783W        W68188  10.105  28.935   1.171
99784W        W68189   9.547  15.118  10.744
99785W        W68190  26.072  36.040  10.922
99786W        W68191  12.711  36.202  13.903
99787W        W68192  22.950   9.863   4.670
99788W        W68193  28.423  35.074  14.959
99789W        W68194   2.329  25.785   2.426
99790W        W68195  16.310   9.825  14.534
99791W        W68196   1.556  14.775  11.019
99792W        W68197   1.805  41.793   1.692
99793W        W68198  17.762  23.708   0.076
99794W        W68199  22.029  20.353   1.835
99795W        W68200  27.541  15.277   5.164
99796W        W68201  33.538  12.169  14.594
99797W        W68202  14.668   2.256   0.725
99798W        W68203  13.182  33.845   2.228
99799W        W68204  17.385  28.545  14.968
99800W        W68205  38.861  30.572  11.141
99801W        W68206   4.498  19.853   4.630
99802W        W68207  38.913   0.758   2.845
99803W        W68208  32.940   2.097  14.752
99804W        W68209  41.521  13.647   3.230
99805W        W68210  32.717  16.800  14.862
99806W        W68211   9.667  17.289   0.827
99807W        W68212  30.949   9.428   1.448
99808W        W68213  19.623  40.534  11.464
99809W        W68214  10.848  21.124  14.298
99810W        W68215  31.615   9.752   3.610
99811W        W68216  14.604  22.432  14.802
99812W        W68217  12.400  18.953  12.338
99813W        W68218  44.334  33.744   5.013
99814W        W68219  28.127  21.231  13.300
99815W        W68220  40.212  31.875   2.630
99816W        W68221  22.637  40.147  12.306
99817W        W68222  14.312  28.744  11.029
99818W        W68223  32.150  31.622   4.050
99819W        W68224   7.671  40.564  13.132
99820W        W68225  42.010  26.960   0.403
99821W        W68226  12.685   7.426   0.299
99822W        W68227  30.129  30.217   3.639
99823W        W68228  33.633  14.863  11.447
99824W        W68229  39.054  10.817   0.737
99825W        W68230   2.830   7.253  12.960
99826W        W68231  24.027  18.621  12.259
99827W        W68232  37.760  26.054   2.634
99828W        W68233   3.640  20.626  14.656
99829W        W68234  12.178  42.515   1.827
99830W        W68235  23.922  10.133  12.850
99831W        W68236  14.202   1.825  10.249
99832W        W68237   5.746   5.793  13.022
99833W        W68238  44.999   3.724  14.787
99834W        W68239   5.247  28.651  13.633
99835W        W68240  36.107  19.870   4.650
99836W        W68241  17.596   0.675   4.121
99837W        W68242   6.201  32.408   1.373
99838W        W68243  31.232  18.690   2.779
99839W        W68244   6.062  20.978  12.494
99840W        W68245  11.306   8.969  13.343
99841W        W68246  44.018  26.501  14.017
99842W        W68247  36.797  16.878   0.827
99843W        W68248  22.476   0.312   4.481
99844W        W68249  17.908  10.606   2.864
99845W        W68250   7.194   2.872  13.824
99846W        W68251  18.145  40.501   1.221
99847W        W68252  26.553  11.394   0.778
99848W        W68253  26.778  23.130  12.390
99849W        W68254  35.889  21.511   3.593
99850W        W68255  16.789   2.408  13.968
99851W        W68256  31.208  38.397  14.715
99852W        W68257  43.822  36.154   4.304
99853W        W68258   8.859  19.546   3.603
99854W        W68259  18.574  27.171   1.837
99855W        W68260  44.023  42.451  13.914
99856W        W68261  37.999  28.448   2.218
99857W        W68262   0.034  40.720  14.706
99858W        W68263   3.272  38.130  14.489
99859W        W68264  28.388  43.008   3.696
99860W        W68265  13.160  29.144  10.750
99861W        W68266  32.978  41.566  11.142
99862W        W68267  38.685   6.971   2.879
99863W        W68268  23.148  16.194   3.620
99864W        W68269   3.664   7.749   0.044
99865W        W68270  40.492  17.207   2.888
99866W        W68271  24.458  12.101   2.876
99867W        W68272  34.780  32.027   0.882
99868W        W68273  35.104  24.642   2.165
99869W        W68274  33.477  43.363  11.197
99870W        W68275  18.894   3.330   4.097
99871W        W68276  25.126   2.887  14.861
99872W        W68277  21.758  12.830  10.632
99873W        W68278  13.021  38.073   2.656
99874W        W68279  30.178  39.321  10.201
99875W        W68280  14.019  34.774   5.047
99876W        W68281  38.157  25.414  13.749
99877W        W68282  24.463   3.615   3.260
99878W        W68283  42.871   6.735   0.365
99879W        W68284   6.648  44.458  13.855
99880W        W68285  29.403  22.045  14.885
99881W        W68286   0.286  32.003   1.317
99882W        W68287  44.593  33.780   2.453
99883W        W68288  28.093   1.956   3.325
99884W        W68289  42.738  40.118  12.374
99885W        W68290  35.546  37.294   2.852
99886W        W68291   9.363   7.119  13.172
99887W        W68292  37.869   0.909   2.835
99888W        W68293   1.765  18.112  12.565
99889W        W68294  13.012  11.725   0.913
99890W        W68295  23.493  13.801   4.908
99891W        W68296  30.006  33.419   1.669
99892W        W68297  20.739  28.694   3.834
99893W        W68298   3.599  11.664   0.974
99894W        W68299  42.346  34.030  11.734
99895W        W68300  41.919  17.528  10.599
99896W        W68301  44.036  39.044  12.155
99897W        W68302  19.647  29.592  14.997
99898W        W68303  43.331  15.790   1.007
99899W        W68304  11.390   7.791   1.829
99900W        W68305   7.183  30.623   1.009
99901W        W68306   5.735   2.955  11.558
99902W        W68307   7.771  40.427  14.779
99903W        W68308   8.065  40.298  11.997
99904W        W68309   6.324  42.770  13.026
99905W        W68310  26.950  43.574   3.618
99906W        W68311  22.904  29.352   2.351
99907W        W68312  44.960  40.841  12.578
99908W        W68313   6.579  36.056   2.611
99909W        W68314  26.019  31.938   4.300
99910W        W68315  26.470  15.039   0.502
99911W        W68316   4.366  14.534   4.690
99912W        W68317  25.659  18.963   2.026
99913W        W68318  21.311  43.051  12.392
99914W        W68319  39.379   7.234   0.962
99915W        W68320  25.426  24.930   0.242
99916W        W68321   7.673   8.841   2.833
99917W        W68322  29.123  42.474  11.688
99918W        W68323  10.727  37.913  11.628
99919W        W68324  10.129   4.481   2.707
99920W        W68325   8.327   5.015   0.292
99921W        W68326  36.326  26.718   0.290
99922W        W68327   6.975   8.805   1.885
99923W        W68328  25.724  40.437  12.573
99924W        W68329  11.948  13.866  10.326
99925W        W68330  25.973   1.129   2.217
99926W        W68331  39.358  42.383   1.970
99927W        W68332  17.010  26.459   4.377
99928W        W68333  18.091  17.086   4.465
99929W        W68334  13.400  32.378   1.404
99930W        W68335  20.187  35.887  10.595
99931W        W68336   1.159  33.566  11.721
99932W        W68337  21.553  18.745   3.256
99933W        W68338  26.899  38.354   4.274
99934W        W68339  24.040  11.765   2.878
99935W        W68340  27.227  44.516   3.711
99936W        W68341  34.383  37.142  11.690
99937W        W68342  43.296   2.483  14.362
99938W        W68343  38.242  38.052  11.563
99939W        W68344  38.953  11.085  11.086
99940W        W68345  21.010   2.404   2.934
99941W        W68346  12.690  10.057   4.567
99942W        W68347  25.214  36.363   0.360
99943W        W68348  42.607   2.275   2.663
99944W        W68349  19.526  42.221   3.973
99945W        W68350  44.944  23.032  13.851
99946W        W68351  22.123  34.901   1.128
99947W        W68352  28.531  20.472  10.814
99948W        W68353  33.444  44.008   3.922
99949W        W68354  41.894  31.417  10.789
99950W        W68355  32.023  15.577  11.675
99951W        W68356  15.180  35.952   3.985
99952W        W68357  36.064   3.629   3.866
99953W        W68358   5.520  39.779   3.269
99954W        W68359   4.087  16.643   0.360
99955W        W68360  15.135  21.170   2.398
99956W        W68361  39.772  16.741   1.443
99957W        W68362  15.744  39.389   0.135
99958W        W68363  21.099   8.504  14.704
99959W        W68364  27.915   7.264   1.364
99960W        W68365  26.929  32.627  11.059
99961W        W68366   7.159  24.490  14.474
99962W        W68367  44.206   7.207   2.365
99963W        W68368   6.291  36.484  14.106
99964W        W68369  24.321   7.746   2.667
99965W        W68370  19.382  25.229   4.535
99966W        W68371   0.177  38.005   4.053
99967W        W68372  39.917  29.973  11.670
99968W        W68373  19.471  14.139   1.826
99969W        W68374  36.945  29.592  14.464
99970W        W68375  16.395   5.755   4.749
99971W        W68376  36.539   1.510   0.261
99972W        W68377   8.964   7.303   0.330
99973W        W68378  19.751  31.467  12.584
99974W        W68379  15.706   3.221  11.534
99975W        W68380  19.999  38.951   3.777
99976W        W68381  35.744  25.664   0.916
99977W        W68382  26.562  36.929   4.118
99978W        W68383  12.815  32.847   2.176
99979W        W68384  30.686  38.382  14.735
99980W        W68385  38.092  35.411  13.319
99981W        W68386  32.002   8.471  13.891
99982W        W68387  12.142  20.859  10.447
99983W        W68388  28.868  40.943   1.187
99984W        W68389  24.952  25.984   2.856
99985W        W68390  37.965  11.519   3.035
99986W        W68391   3.746  43.889   1.785
99987W        W68392  33.592   7.392  10.138
99988W        W68393  11.619  23.997   2.630
99989W        W68394  10.634  39.841  14.028
99990W        W68395  13.364  37.022   2.188
99991W        W68396   4.393  42.903  11.461
99992W        W68397  25.666  40.648  14.450
99993W        W68398  11.215  29.363   0.440
99994W        W68399  31.462  23.878   3.265
99995W        W68400  37.050   6.770   1.458
99996W        W68401  18.270  29.461   0.048
99997W        W68402  42.936   6.260   1.284
99998W        W68403  18.201  38.534   1.172
99999W        W68404  19.399  29.483  14.064
    0W        W68405  32.526   1.882   3.597
    1W        W68406  27.098  39.850  11.463
    2W        W68407  23.108  11.416   4.655
    3W        W68408   7.857  16.134   4.268
    4W        W68409  39.344  37.873   0.439
    5W        W68410  20.717  15.793   2.314
    6W        W68411   3.967  15.494  12.524
    7W        W68412  21.286  23.626   1.431
    8W        W68413  23.694  30.575   2.030
    9W        W68414  27.995  41.023   0.981
   10W        W68415  37.927  38.188  12.525
   11W        W68416  35.966  17.728  12.041
   12W        W68417  21.927  36.377  11.920
   13W        W68418  20.667   0.025  14.299
   14W        W68419  22.529  41.162   0.707
   15W        W68420  13.289  10.861   4.545
   16W        W68421  17.292  10.487   5.102
   17W        W68422  29.886  26.633  11.423
   18W        W68423  29.092  13.591   2.223
   19W        W68424  14.301  38.951  10.920
   20W        W68425  24.059   5.458   0.239
   21W        W68426  26.026  16.358   4.115
   22W        W68427  29.022  28.008   2.828
   23W        W68428   0.455   3.757   3.720
   24W        W68429  24.316  33.517  14.846
   25W        W68430  42.473  44.908   3.573
   26W        W68431  30.572   5.313  12.975
   27W        W68432  29.397  21.625   3.093
   28W        W68433  22.571  18.961   0.738
   29W        W68434  13.881   8.410  11.539
   30W        W68435   4.232   5.661  14.803
   31W        W68436  18.127  32.337   0.183
   32W        W68437  29.920  20.255  10.860
   33W        W68438   5.222   8.876  14.066
   34W        W68439   7.333  36.192   3.193
   35W        W68440   9.784   4.149   1.722
   36W        W68441   9.070  21.602  14.372
   37W        W68442  28.212  16.608  13.009
   38W        W68443  11.215  18.217   9.983
   39W        W68444  18.825   9.743   4.295
   40W        W68445  27.819   4.625   0.064
   41W        W68446  15.113   1.017   2.867
   42W        W68447   3.392  32.718  10.830
   43W        W68448  35.945  32.235   1.737
   44W        W68449   2.659  29.228   3.641
   45W        W68450   2.810  42.530  14.815
   46W        W68451  24.031  20.647  11.957
   47W        W68452   0.404  36.103   4.710
   48W        W68453   8.374  12.150   2.165
   49W        W68454  43.927  32.747   4.868
   50W        W68455  26.484  23.948   3.003
   51W        W68456  14.495  17.566   4.581
   52W        W68457  30.346  25.649  12.520
   53W        W68458  19.000  42.022  12.821
   54W        W68459  39.764   9.020   4.575
   55W        W68460  39.911  36.349   1.629
   56W        W68461  29.444  25.989  12.829
   57W        W68462  37.432   0.278  13.282
   58W        W68463  32.995  12.320  12.941
   59W        W68464  27.671  23.025  14.030
   60W        W68465  40.386  41.318  11.793
   61W        W68466  30.317   4.176   3.101
   62W        W68467  38.901  32.625  11.194
   63W        W68468   7.341   6.729  14.946
   64W        W68469  11.665   7.060  12.489
   65W        W68470  16.039  18.665   3.181
   66W        W68471  11.215  13.259  11.954
   67W        W68472  23.284  33.469   4.433
   68W        W68473  17.501  28.657   0.875
   69W        W68474   7.202  13.745  13.348
   70W        W68475  36.645  27.457   0.818
   71W        W68476   4.905  12.058   4.582
   72W        W68477   7.321  12.803  14.782
   73W        W68478  16.117  26.405   4.179
   74W        W68479  19.209   2.833   1.857
   75W        W68480   6.935  31.896   2.373
   76W        W68481   6.426   9.743  10.753
   77W        W68482  30.073  26.727   1.301
   78W        W68483  23.090  25.592  12.139
   79W        W68484  36.215  20.531   0.310
   80W        W68485  28.676   8.110  14.226
   81W        W68486  14.799  30.320   5.007
   82W        W68487   8.793   7.324   1.240
   83W        W68488  29.748  18.019  11.152
   84W        W68489   0.219   3.780   2.684
   85W        W68490   9.680   5.170  12.973
   86W        W68491  38.878  13.638  13.968
   87W        W68492  33.240  12.134   3.192
   88W        W68493  31.224  40.645  13.914
   89W        W68494  40.309   0.527  13.321
   90W        W68495  15.584   3.360  13.429
   91W        W68496  10.034   1.410  13.186
   92W        W68497  42.952   7.215  14.061
   93W        W68498  17.233   4.120   1.857
   94W        W68499   4.410   6.745  12.618
   95W        W68500   8.848  40.306  14.856
   96W        W68501  13.072   5.688  13.242
   97W        W68502  24.039  26.564   4.120
   98W        W68503  41.317  12.727   0.409
   99W        W68504  22.963  19.318   0.756
  100W        W68505  43.782  21.032   2.764
  101W        W68506  17.679  40.843  11.018
  102W        W68507  36.050   1.962   1.719
  103W        W68508   5.367  32.752   4.136
  104W        W68509  34.068  33.690   3.270
  105W        W68510  23.142  16.760  11.191
  106W        W68511  23.974   5.426   2.249
  107W        W68512  39.352   1.467   3.631
  108W        W68513   8.126  24.533   0.312
  109W        W68514  44.821   4.325  13.140
  110W        W68515  11.236  14.341   4.624
  111W        W68516   6.345  11.929  10.738
  112W        W68517  43.944  10.635   3.223
  113W        W68518  36.595   2.420  12.916
  114W        W68519  30.003  31.017   1.405
  115W        W68520  30.297   9.482   2.222
  116W        W68521  13.353  29.830   2.278
  117W        W68522  27.710  10.686   4.385
  118W        W68523  29.556  43.782  12.891
  119W        W68524  30.468  20.333  11.605
  120W        W68525  39.535   2.232  11.563
  121W        W68526   5.756  33.083   3.984
  122W        W68527   6.589  20.293  11.581
  123W        W68528  11.181  12.156   0.012
  124W        W68529  43.658   5.323   2.733
  125W        W68530  11.633  11.181  14.764
  126W        W68531  30.143  39.325  13.857
  127W        W68532  28.704  20.779   2.833
  128W        W68533   9.256  15.137   2.151
  129W        W68534  34.618   1.965   2.026
  130W        W68535   4.817  29.015  11.990
  131W        W68536  44.844  33.826   1.158
  132W        W68537  24.544   0.808   2.225
  133W        W68538  17.085  41.974  11.662
  134W        W68539  42.779  12.360  14.876
  135W        W68540  33.061  36.331   1.813
  136W        W68541  35.045   6.147  13.500
  137W        W68542   4.345  36.176   1.315
  138W        W68543   8.556  39.455  13.099
  139W        W68544  13.687  29.420   1.093
  140W        W68545  31.633   6.946   3.839
  141W        W68546  18.250  33.362  10.745
  142W        W68547   8.339  41.951   1.726
  143W        W68548  19.562  24.778  14.637
  144W        W68549  13.876  37.392  13.758
  145W        W68550   1.286  17.314  13.901
  146W        W68551  24.219  14.425  11.178
  147W        W68552  13.233   9.989  13.299
  148W        W68553  41.007  26.530  13.506
  149W        W68554  22.711  12.169   4.307
  150W        W68555  39.157  22.451  13.859
  151W        W68556  22.242  31.044   4.600
  152W        W68557   3.544  22.885  10.003
  153W        W68558   4.464  28.232   3.114
  154W        W68559   5.759  19.239  14.430
  155W        W68560   8.743  40.722  10.692
  156W        W68561  18.774  22.457  12.505
  157W        W68562   6.839  11.742  11.899
  158W        W68563   0.613   5.745  10.263
  159W        W68564   1.179  10.451  12.596
  160W        W68565  22.722  15.521   2.331
  161W        W68566  19.717  14.827   2.397
  162W        W68567  35.576   4.403   3.147
  163W        W68568  26.563   2.731   1.883
  164W        W68569  15.311  41.481   4.215
  165W        W68570   9.436  39.019  12.643
  166W        W68571  12.835  39.389  14.421
  167W        W68572  44.247  33.398  14.335
  168W        W68573  41.442  36.413   4.184
  169W        W68574  11.331  14.023  11.699
  170W        W68575  41.452  19.181  14.531
  171W        W68576   4.731  18.979   1.682
  172W        W68577   4.336   1.842   2.628
  173W        W68578  33.639  34.213  12.466
  174W        W68579  31.733  33.186   5.215
  175W        W68580   2.378  27.883  10.908
  176W        W68581  13.397  25.997   1.970
  177W        W68582  26.097  20.255  14.763
  178W        W68583  34.676  32.485  13.975
  179W        W68584  14.246  12.665  10.749
  180W        W68585  41.409  13.744  13.032
  181W        W68586  42.392   6.575   2.808
  182W        W68587  11.747  34.676  10.782
  183W        W68588  41.382  37.438   2.190
  184W        W68589   5.773  30.828  14.357
  185W        W68590   7.178   8.233  13.375
  186W        W68591  26.437  16.322   9.802
  187W        W68592  10.017  29.379  14.349
  188W        W68593  35.809  11.249   1.364
  189W        W68594  12.584   2.305   1.447
  190W        W68595  24.519  31.716   2.756
  191W        W68596  43.263   6.966   3.210
  192W        W68597  11.178  34.301   3.231
  193W        W68598   7.936  35.621   0.223
  194W        W68599  30.568  17.956  11.461
  195W        W68600  11.288  20.911   1.332
  196W        W68601  16.083   7.815   4.350
  197W        W68602  38.874   7.819   0.826
  198W        W68603  37.526   5.284   1.034
  199W        W68604  24.110  22.103  11.256
  200W        W68605   1.438  27.189   2.176
  201W        W68606  26.338  27.622   1.283
  202W        W68607  25.976   9.878  10.875
  203W        W68608  19.809   2.991   3.883
  204W        W68609  17.669  16.520  13.278
  205W        W68610  34.704  13.170   0.645
  206W        W68611  27.289   4.772   0.176
  207W        W68612   2.285   2.851  12.339
  208W        W68613  44.535  43.294   1.849
  209W        W68614  12.197  36.253   2.039
  210W        W68615   6.177  44.255   3.742
  211W        W68616  19.337  14.051   3.693
  212W        W68617  13.939  24.158   0.641
  213W        W68618  43.765   6.786   3.149
  214W        W68619  44.232   2.663  11.976
  215W        W68620  22.094   3.864   2.255
  216W        W68621   6.248  15.633  12.031
  217W        W68622  39.396  39.031  12.575
  218W        W68623  15.606  18.209   2.855
  219W        W68624  44.322  30.602  11.287
  220W        W68625  32.457  32.150  13.118
  221W        W68626  19.382   5.747  10.421
  222W        W68627  42.366   1.330   0.978
  223W        W68628  17.597   1.130  13.018
  224W        W68629  37.783  16.478  13.737
  225W        W68630  28.054  11.620   4.639
  226W        W68631  25.585  20.217   2.521
  227W        W68632  39.268  40.962   3.521
  228W        W68633  16.559  12.021  12.521
  229W        W68634   4.136  10.672   0.095
  230W        W68635  35.705  19.713  11.187
  231W        W68636  20.335  13.659  11.151
  232W        W68637  22.953  36.998   0.881
  233W        W68638  20.374  35.813   4.200
  234W        W68639  37.666  33.450   3.271
  235W        W68640  15.282   6.329  10.659
  236W        W68641  22.226  40.480   0.453
  237W        W68642  39.831  35.902  14.204
  238W        W68643  17.702   8.112   2.687
  239W        W68644  10.236  25.028   3.250
  240W        W68645  44.733  25.989  11.138
  241W        W68646  19.413  36.785  14.285
  242W        W68647   3.686  14.842  10.492
  243W        W68648  37.596  13.400   5.036
  244W        W68649  26.876  31.704   0.208
  245W        W68650  20.871  29.584  13.949
  246W        W68651  23.483  21.671   0.999
  247W        W68652  30.044  41.333   4.090
  248W        W68653  11.689  14.885   2.217
  249W        W68654   3.151   5.797   4.305
  250W        W68655  39.942  39.065   1.038
  251W        W68656  29.599  35.301  13.918
  252W        W68657  14.843   6.307   3.110
  253W        W68658  19.708  21.283   4.577
  254W        W68659  32.685  16.382   2.863
  255W        W68660  14.684  32.808   0.902
  256W        W68661  14.083  16.805  13.439
  257W        W68662  34.026  40.911  12.422
  258W        W68663   0.587  15.184  13.502
  259W        W68664  12.329  20.600   2.998
  260W        W68665  35.638  30.573  13.682
  261W        W68666  36.897  10.994  11.178
  262W        W68667  44.030  22.162   2.174
  263W        W68668  14.789  28.014   4.742
  264W        W68669  34.590   4.512   4.040
  265W        W68670   8.913  35.605  12.978
  266W        W68671  32.812  40.345   4.025
  267W        W68672  15.589  43.948  14.865
  268W        W68673  34.398  35.941   4.776
  269W        W68674  30.007  44.992   3.163
  270W        W68675  22.937  41.487  13.800
  271W        W68676   7.928  27.162   4.509
  272W        W68677  27.887  38.966   0.875
  273W        W68678  14.567  37.976   1.349
  274W        W68679   6.314  20.297   4.263
  275W        W68680  36.810  17.652  12.926
  276W        W68681  37.945  40.596   1.458
  277W        W68682  34.687   2.926  11.537
  278W        W68683   3.449  42.264  13.983
  279W        W68684  21.663  34.990   4.771
  280W        W68685  13.869  37.807   1.792
  281W        W68686  26.617  33.967   1.223
  282W        W68687  36.810  28.188  12.938
  283W        W68688   6.725  43.523   4.208
  284W        W68689  32.966  20.635   0.218
  285W        W68690  36.203   0.530   3.656
  286W        W68691   4.251  20.030   1.775
  287W        W68692  15.769  10.367   3.178
  288W        W68693  26.760   5.827  11.199
  289W        W68694  16.336   7.974  12.981
  290W        W68695  28.235  42.004  12.406
  291W        W68696  32.935  31.851   0.708
  292W        W68697   4.327  32.855   4.340
  293W        W68698   8.742  18.219  14.827
  294W        W68699   1.931  21.300   3.808
  295W        W68700  25.462  23.706  13.851
  296W        W68701  20.765  16.827  14.002
  297W        W68702  36.821   9.616   4.195
  298W        W68703  22.897  11.967  13.076
  299W        W68704  26.147  32.201   3.381
  300W        W68705  25.789  10.083   1.842
  301W        W68706   4.194  29.393  10.285
  302W        W68707  35.446  21.266   3.686
  303W        W68708  25.074  34.986  11.982
  304W        W68709  26.676  33.137   3.289
  305W        W68710  34.112   2.536   0.470
  306W        W68711  38.462   5.365  14.232
  307W        W68712  31.456  15.127   2.262
  308W        W68713  33.669   8.946  11.036
  309W        W68714  23.205  21.216  12.653
  310W        W68715  15.550   0.390  13.927
  311W        W68716  20.906   6.904  12.008
  312W        W68717  12.756  15.587   3.084
  313W        W68718   3.327  30.473  14.952
  314W        W68719  29.468  24.958   1.434
  315W        W68720  25.153  16.192   4.397
  316W        W68721  44.707  41.436  13.422
  317W        W68722  22.443  33.049   1.305
  318W        W68723  39.365  30.969   4.857
  319W        W68724   0.412  44.339  14.840
  320W        W68725  16.081   7.920   2.893
  321W        W68726  44.704  18.201   4.880
  322W        W68727  13.622  38.621  14.362
  323W        W68728   3.802  37.598   3.960
  324W        W68729  30.413  29.490   2.320
  325W        W68730  26.446  14.495  11.531
  326W        W68731   7.706  31.609  14.598
  327W        W68732   8.851  29.511  12.850
  328W        W68733   3.611  29.953   3.273
  329W        W68734  23.637  33.804   4.712
  330W        W68735  40.007  18.948   1.254
  331W        W68736  33.988   9.169   4.550
  332W        W68737  40.746  42.216   1.442
  333W        W68738  40.327  42.873  10.716
  334W        W68739  25.564  18.856   4.572
  335W        W68740  24.680  14.632  11.202
  336W        W68741  36.667   6.679   4.123
  337W        W68742  43.825  25.261  12.526
  338W        W68743   5.152  30.868  14.852
  339W        W68744  25.864   1.511  14.754
  340W        W68745  35.019  19.774   2.419
  341W        W68746  26.801  26.542  10.712
  342W        W68747  37.405  11.667  13.977
  343W        W68748  22.728  33.861  12.042
  344W        W68749  36.564   8.361   0.814
  345W        W68750   4.028  10.182  10.014
  346W        W68751  37.535   3.281  10.954
  347W        W68752  31.267  21.709  14.155
  348W        W68753  37.459  30.395  14.522
  349W        W68754  36.603  23.569   2.183
  350W        W68755   4.137  22.946   3.591
  351W        W68756  24.600  33.877   3.189
  352W        W68757  38.100  40.952   4.251
  353W        W68758  42.565  35.324  10.720
  354W        W68759  26.832   0.929   4.590
  355W        W68760  25.433  16.331   0.654
  356W        W68761   3.688  11.208   0.736
  357W        W68762   7.814  23.596   1.796
  358W        W68763  27.594   6.551  11.971
  359W        W68764  12.355  13.257   3.139
  360W        W68765  16.989  23.816  12.952
  361W        W68766  13.099  25.773   4.108
  362W        W68767   8.164  34.412   1.142
  363W        W68768   6.316  44.201   2.428
  364W        W68769   7.889  42.856   1.901
  365W        W68770   7.731   8.697  14.864
  366W        W68771   2.760  16.841  12.062
  367W        W68772  38.880   5.754  13.017
  368W        W68773  42.706  32.043  10.743
  369W        W68774  19.700  29.452  14.494
  370W        W68775   1.393   1.177  13.168
  371W        W68776  29.396   6.777   2.657
  372W        W68777  31.482   8.579  13.002
  373W        W68778   2.845  35.476  14.524
  374W        W68779  33.593  12.160   0.493
  375W        W68780  33.200   2.427   0.493
  376W        W68781  32.170  30.428   1.306
  377W        W68782  17.237   1.216  10.664
  378W        W68783  30.269  43.803  12.425
  379W        W68784   5.380  37.694  12.968
  380W        W68785  29.117  31.902   0.519
  381W        W68786  16.073  26.898   0.742
  382W        W68787  37.817  20.103   2.217
  383W        W68788  43.551  43.489  13.432
  384W        W68789   8.922  12.679   0.782
  385W        W68790   6.409  32.112   2.628
  386W        W68791  16.138  29.608  12.107
  387W        W68792  25.087   6.392   3.318
  388W        W68793   3.502   9.682   4.815
  389W        W68794   2.804  10.825   0.241
  390W        W68795  12.220  34.399  14.973
  391W        W68796  20.117  10.315   4.869
  392W        W68797  43.656  13.322  12.652
  393W        W68798   2.268  10.623   1.955
  394W        W68799  19.981   5.090  13.838
  395W        W68800  30.866  19.423  11.121
  396W        W68801   8.001  22.672   2.558
  397W        W68802   1.396   2.984  12.880
  398W        W68803   0.383  37.840   2.811
  399W        W68804  18.814  21.636   1.842
  400W        W68805   1.814   4.185  11.126
  401W        W68806  10.897  34.143  13.513
  402W        W68807  42.582  12.762  13.030
  403W        W68808  19.235  31.568  12.585
  404W        W68809  28.123  27.927   3.117
  405W        W68810  43.875  19.667  12.878
  406W        W68811  38.465  15.527   4.923
  407W        W68812   2.458   8.881   2.965
  408W        W68813   8.204  19.566   0.836
  409W        W68814  43.653   5.825   4.558
  410W        W68815  40.063  26.028  11.020
  411W        W68816  15.741  15.420   3.671
  412W        W68817  39.298  32.508  14.369
  413W        W68818  40.541  41.833   3.764
  414W        W68819  26.949  31.464  12.017
  415W        W68820  37.264  17.715   4.205
  416W        W68821  29.520  15.427  12.892
  417W        W68822   5.931  33.910   4.575
  418W        W68823  18.220  21.624   3.266
  419W        W68824  35.104  29.012  14.444
  420W        W68825   3.448  28.783  11.554
  421W        W68826   3.282  32.530   3.682
  422W        W68827   4.767  32.391  11.064
  423W        W68828   7.418   3.252   1.746
  424W        W68829   2.877  25.675   2.448
  425W        W68830  29.134  36.133  12.104
  426W        W68831  15.108  19.454   1.765
  427W        W68832  29.100   8.469   0.567
  428W        W68833   1.020  27.086  13.081
  429W        W68834  38.800  10.666   2.161
  430W        W68835  31.397  29.336  13.131
  431W        W68836   5.716  35.872   3.236
  432W        W68837   9.775  22.643  10.893
  433W        W68838   4.792  31.475   2.876
  434W        W68839  23.098   9.870   3.736
  435W        W68840  20.066  10.229  13.892
  436W        W68841  17.783  18.150   1.769
  437W        W68842  25.943  42.762  10.583
  438W        W68843   2.332  10.943   3.917
  439W        W68844   6.947  23.680  12.955
  440W        W68845  38.957  32.907  14.374
  441W        W68846  27.719  15.257   4.695
  442W        W68847  30.181   7.833  11.525
  443W        W68848  35.966  44.516  10.599
  444W        W68849  43.751  41.291  14.820
  445W        W68850  28.716   9.048  12.472
  446W        W68851   8.013   9.165   1.896
  447W        W68852   7.310  13.700   1.207
  448W        W68853   0.361   7.941  12.409
  449W        W68854  26.780  42.724   4.664
  450W        W68855  15.292  43.415   3.676
  451W        W68856   8.484  20.774   0.465
  452W        W68857  17.952   0.496   0.956
  453W        W68858  31.891   4.742   4.089
  454W        W68859  36.484   3.383   3.717
  455W        W68860  12.755  35.696   1.687
  456W        W68861  19.806  36.996   2.727
  457W        W68862  34.836  42.540   1.271
  458W        W68863   0.594  14.500   1.284
  459W        W68864  11.856  16.170   0.421
  460W        W68865  18.297  39.485   1.398
  461W        W68866   9.637  32.435   3.592
  462W        W68867  41.975   1.808   4.626
  463W        W68868  41.725  33.512   4.145
  464W        W68869  27.484  10.947   2.934
  465W        W68870  37.373  12.234   2.952
  466W        W68871   0.923  11.628  14.682
  467W        W68872  38.341  34.922  12.125
  468W        W68873   9.947  25.576  14.968
  469W        W68874   3.322   7.422   0.273
  470W        W68875  27.941  17.431  11.536
  471W        W68876   3.212  19.323   0.417
  472W        W68877  15.199  33.435   2.282
  473W        W68878   7.354  21.038   2.848
  474W        W68879  16.157   5.122  12.115
  475W        W68880  25.006  27.953  14.878
  476W        W68881   7.785  24.980  14.009
  477W        W68882  33.302  10.711  11.478
  478W        W68883  13.610  13.905  14.029
  479W        W68884  43.469  10.681  11.258
  480W        W68885  31.826  28.094  11.486
  481W        W68886  40.374  35.171  12.521
  482W        W68887   2.804   8.108  12.002
  483W        W68888  42.319  21.545   0.238
  484W        W68889  37.953   5.052  14.797
  485W        W68890  35.633  15.843  13.595
  486W        W68891   7.463  34.018   0.733
  487W        W68892  21.196  24.703   2.758
  488W        W68893  33.166  34.325  14.382
  489W        W68894  14.286   9.568   3.854
  490W        W68895   8.329   7.626  10.703
  491W        W68896  37.895  30.655   3.201
  492W        W68897  10.838  16.421   2.283
  493W        W68898  12.688  32.990   2.776
  494W        W68899  35.651  25.295  12.566
  495W        W68900  28.064  28.148   2.646
  496W        W68901  11.453  11.993   4.190
  497W        W68902  29.904  26.923  11.000
  498W        W68903  40.595  44.260   1.395
  499W        W68904  37.490  14.876   0.795
  500W        W68905  43.558  17.164   3.706
  501W        W68906   3.058  13.130   1.668
  502W        W68907  42.564  37.892  13.356
  503W        W68908  30.058  43.292   0.609
  504W        W68909   0.589  13.562   2.669
  505W        W68910  14.133   8.698   4.100
  506W        W68911  43.067  33.674   4.970
  507W        W68912  36.374  21.413   0.516
  508W        W68913  43.671  43.313  12.501
  509W        W68914  28.780   6.143  10.676
  510W        W68915   4.786  39.883   1.350
  511W        W68916  26.810  17.125  14.742
  512W        W68917  44.297  13.698  11.595
  513W        W68918   7.196  25.105   0.329
  514W        W68919  39.471   5.225   2.678
  515W        W68920  36.543   6.197   4.072
  516W        W68921   0.807   0.928   4.636
  517W        W68922  36.036  10.473  11.031
  518W        W68923  39.875   3.313  12.582
  519W        W68924  32.491  23.637   2.268
  520W        W68925  32.994   4.303  10.859
  521W        W68926  36.760  39.369  12.983
  522W        W68927  32.599  37.306  12.502
  523W        W68928   1.384  19.018   2.800
  524W        W68929   4.076  20.255   1.289
  525W        W68930  44.289   2.883  14.267
  526W        W68931  32.380  42.319  13.925
  527W        W68932  35.090  40.407   3.184
  528W        W68933  23.522  22.894   1.639
  529W        W68934  33.585   7.179   2.657
  530W        W68935  23.788  15.588   1.349
  531W        W68936  44.549  43.592  11.167
  532W        W68937  28.131   0.679  11.483
  533W        W68938  22.805  13.042   1.379
  534W        W68939  32.687  35.878   4.166
  535W        W68940  30.992  33.033  13.462
  536W        W68941   3.889  34.628  13.594
  537W        W68942  33.609  32.720  14.879
  538W        W68943  11.316  26.121  11.592
  539W        W68944  21.460  43.882  13.097
  540W        W68945  24.678  41.094  12.766
  541W        W68946  29.535   8.065  11.034
  542W        W68947   7.395  38.817  13.046
  543W        W68948  43.619  34.839  13.759
  544W        W68949  33.663  24.273  13.297
  545W        W68950  26.537  39.371  11.943
  546W        W68951  14.321  36.571   1.222
  547W        W68952  17.748   6.643   2.871
  548W        W68953  23.542  43.156  11.616
  549W        W68954  25.583   5.324  12.336
  550W        W68955  12.644  16.607  13.078
  551W        W68956   9.034  39.099   1.744
  552W        W68957   8.391  17.183  11.553
  553W        W68958  14.758  38.514   0.241
  554W        W68959  43.251  33.419   3.179
  555W        W68960  30.930  28.129  13.504
  556W        W68961  13.530   4.220  12.004
  557W        W68962  20.225  28.436   2.660
  558W        W68963   1.942  19.058   1.661
  559W        W68964   4.244  15.377   2.757
  560W        W68965  12.926  10.054   4.109
  561W        W68966  20.399   2.895   1.376
  562W        W68967   9.374  29.263   2.691
  563W        W68968  13.853  14.910   2.135
  564W        W68969   6.474  38.783   3.184
  565W        W68970  22.972  18.274   1.065
  566W        W68971   9.072   4.861  11.262
  567W        W68972  36.338  24.080  12.346
  568W        W68973  17.847  37.327   1.837
  569W        W68974  40.753  26.132   2.789
  570W        W68975  35.488  18.110   1.315
  571W        W68976  22.515  27.371   1.652
  572W        W68977  24.237  40.014  14.978
  573W        W68978  39.143  13.782  11.908
  574W        W68979  17.232  25.149  14.072
  575W        W68980  15.582  37.431   3.314
  576W        W68981   4.380  43.690  13.092
  577W        W68982  35.632  30.073  12.569
  578W        W68983  43.435  37.373   3.266
  579W        W68984  14.208  43.331  11.787
  580W        W68985   0.422  15.349  12.097
  581W        W68986  19.547  33.802   2.232
  582W        W68987  19.351  16.211  11.929
  583W        W68988   0.194  22.927  11.521
  584W        W68989  37.617   3.408   2.668
  585W        W68990  23.083  30.540  14.597
  586W        W68991   4.730  40.094   1.804
  587W        W68992   5.301   6.205  12.454
  588W        W68993  29.055  23.622   2.226
  589W        W68994  13.343  21.542   2.828
  590W        W68995  16.797   2.219   0.694
  591W        W68996  32.076  26.944  10.573
  592W        W68997   9.831   2.654  11.199
  593W        W68998  13.826   3.507   0.098
  594W        W68999  12.157  42.856   1.115
  595W        W69000  39.752  21.333   2.526
  596W        W69001  36.426  28.417   1.930
  597W        W69002  32.590  23.901  11.058
  598W        W69003  39.777  37.463  12.420
  599W        W69004  14.438  44.305   0.019
  600W        W69005  35.905  11.425   5.054
  601W        W69006   5.841  35.009  13.629
  602W        W69007  31.254  38.832  14.415
  603W        W69008   1.553  34.997   0.290
  604W        W69009  38.010   4.230   2.671
  605W        W69010  24.027  23.789  12.634
  606W        W69011  28.877  41.011   2.125
  607W        W69012  19.525  43.859   0.276
  608W        W69013  44.881  26.507  14.243
  609W        W69014  31.978  30.095   5.025
  610W        W69015  42.082   5.577   3.862
  611W        W69016  41.400   4.325  12.839
  612W        W69017  38.149  44.675  13.164
  613W        W69018   8.363  24.968  11.945
  614W        W69019  25.711   7.100   4.569
  615W        W69020  19.212  27.468  13.868
  616W        W69021  27.219  11.953   0.823
  617W        W69022  20.731   2.942   1.857
  618W        W69023  21.534   1.735   3.590
  619W        W69024  24.646  27.662  12.610
  620W        W69025  37.948  23.026  14.304
  621W        W69026  11.611  13.146  12.414
  622W        W69027   6.887  18.339   0.372
  623W        W69028   1.814  21.984  12.020
  624W        W69029  23.295  38.844   3.536
  625W        W69030   5.676  34.305  11.327
  626W        W69031  42.195  31.466  13.491
  627W        W69032  10.755  18.908   0.979
  628W        W69033  22.745  24.250   3.189
  629W        W69034   1.794  14.671  10.589
  630W        W69035  23.296  17.406   3.218
  631W        W69036  31.004   7.790  14.569
  632W        W69037   3.477   1.245   4.107
  633W        W69038   7.196  21.268  11.189
  634W        W69039  12.314  38.675  12.530
  635W        W69040  37.481  36.054  13.969
  636W        W69041  15.469  23.119   4.647
  637W        W69042   4.316   4.683   1.237
  638W        W69043  34.857  35.597  10.463
  639W        W69044  14.314  25.663   2.093
  640W        W69045  26.089  14.780  12.953
  641W        W69046  35.359  29.511   3.313
  642W        W69047   2.529  43.285  14.326
  643W        W69048  40.398  18.343   3.751
  644W        W69049   3.906   9.290  13.563
  645W        W69050  29.249   4.007   2.366
  646W        W69051  34.820  13.139  13.866
  647W        W69052  36.316  23.095  11.215
  648W        W69053  36.006  16.449   2.688
  649W        W69054   4.965  11.947  13.378
  650W        W69055  36.403  25.486   2.239
  651W        W69056  30.531   9.880   2.464
  652W        W69057  43.515   1.709  13.942
  653W        W69058  44.997  21.403  14.907
  654W        W69059  38.255  38.556  14.846
  655W        W69060  24.183  22.212   2.187
  656W        W69061  28.961   5.916   0.393
  657W        W69062  41.144  31.877   1.748
  658W        W69063  26.833   6.773   3.756
  659W        W69064  14.623   0.888   4.131
  660W        W69065  40.280  29.770   0.388
  661W        W69066   3.723  21.116  14.420
  662W        W69067  12.472  21.689   1.645
  663W        W69068  20.111  40.141  13.981
  664W        W69069  30.718  28.054   1.222
  665W        W69070   0.333  23.579   1.708
  666W        W69071  42.552  34.488   1.215
  667W        W69072   5.957   1.397  12.071
  668W        W69073  18.684  24.539   2.763
  669W        W69074  25.569  19.636   1.775
  670W        W69075  41.816   0.332   2.677
  671W        W69076  20.252  41.495  11.172
  672W        W69077   1.865   5.417   3.537
  673W        W69078  25.966   2.672   1.835
  674W        W69079   8.675  18.010   3.651
  675W        W69080  28.479  39.462  13.838
  676W        W69081   5.874  31.448  12.925
  677W        W69082  22.723  40.893   4.468
  678W        W69083  27.554  43.756  13.890
  679W        W69084  29.488  25.342   4.590
  680W        W69085  43.440  25.331  12.907
  681W        W69086  38.767  18.329  10.426
  682W        W69087  26.215  37.559  12.957
  683W        W69088  26.193  13.258   3.289
  684W        W69089  17.315  39.961   2.050
  685W        W69090  36.790  24.032  12.686
  686W        W69091   1.409  43.871   4.248
  687W        W69092   9.422   7.386   2.084
  688W        W69093  23.192  27.676  11.131
  689W        W69094  10.896  30.252  10.503
  690W        W69095  42.568   3.611   2.339
  691W        W69096  27.056  24.057  14.513
  692W        W69097   2.880  37.792  14.508
  693W        W69098  17.159   2.751  14.304
  694W        W69099  32.405  16.401   4.576
  695W        W69100  42.472  36.419  14.967
  696W        W69101  15.655   1.338   3.690
  697W        W69102  25.436   7.614   1.049
  698W        W69103  26.953  41.392   0.146
  699W        W69104  31.048  25.947  11.513
  700W        W69105  14.009  25.275   1.775
  701W        W69106  39.476   1.961   3.745
  702W        W69107  41.592   4.348  10.545
  703W        W69108  12.870  44.819  12.077
  704W        W69109  17.678  30.122   1.381
  705W        W69110   7.709  31.761  11.843
  706W        W69111  26.735   8.357   2.685
  707W        W69112  24.639  43.682   3.327
  708W        W69113  17.824   8.282  11.486
  709W        W69114  38.528  20.783  11.200
  710W        W69115  32.190  16.721   4.240
  711W        W69116  39.072  29.659   4.488
  712W        W69117   4.808  23.811  11.553
  713W        W69118  18.071  35.811   0.178
  714W        W69119  23.776  41.789   4.268
  715W        W69120   6.096  26.135  14.613
  716W        W69121  10.638  31.457   0.740
  717W        W69122   7.282  25.465   2.741
  718W        W69123  21.482   3.080  11.628
  719W        W69124   0.334  35.949  10.662
  720W        W69125  31.733  27.719  14.774
  721W        W69126  36.560  14.305   2.332
  722W        W69127   0.913   3.390   4.541
  723W        W69128  33.245   9.244  11.080
  724W        W69129  33.932   6.371   2.312
  725W        W69130  22.813  37.747  14.650
  726W        W69131  22.457   2.248   4.176
  727W        W69132  44.676  39.561   0.847
  728W        W69133  21.715  25.877   4.313
  729W        W69134  24.871  44.830   1.740
  730W        W69135  24.973  16.885   3.341
  731W        W69136  37.097  42.424   3.349
  732W        W69137  18.648   8.659   0.071
  733W        W69138  14.817  39.844   3.301
  734W        W69139  33.459  24.498   3.318
  735W        W69140   3.404   9.257   2.410
  736W        W69141  19.232  19.546   2.874
  737W        W69142  38.726  15.133  11.667
  738W        W69143  28.643  10.921   4.755
  739W        W69144   6.716  38.653   2.336
  740W        W69145  42.215  44.992   2.692
  741W        W69146  33.484  44.796   1.157
  742W        W69147  26.681   3.259  11.015
  743W        W69148  16.005  16.106   3.157
  744W        W69149  20.959  43.345  13.479
  745W        W69150  16.446  19.258   3.769
  746W        W69151  21.995  30.358   2.678
  747W        W69152  10.639  35.103   3.213
  748W        W69153  30.756  38.695   4.373
  749W        W69154  40.796  25.181   3.278
  750W        W69155  38.540  34.576  13.377
  751W        W69156   7.315  33.420   4.442
  752W        W69157   1.665  34.877   2.693
  753W        W69158  33.352  17.582   4.143
  754W        W69159   9.217  18.691   2.751
  755W        W69160  34.082   0.936  14.277
  756W        W69161  10.131  22.199  12.022
  757W        W69162  14.319  38.769  11.918
  758W        W69163  23.147  43.975  10.875
  759W        W69164  24.392  22.673   3.641
  760W        W69165  38.924  34.982  12.167
  761W        W69166  30.372  27.135  10.994
  762W        W69167  15.247   5.993   3.386
  763W        W69168  35.570  43.002   4.171
  764W        W69169  27.158  41.592  12.936
  765W        W69170   4.118   7.333  13.461
  766W        W69171  18.026   0.758   2.667
  767W        W69172  30.579  17.610  14.436
  768W        W69173  44.149  12.408   0.769
  769W        W69174  27.078  22.062   4.519
  770W        W69175  29.063  33.612   3.147
  771W        W69176  22.663  37.513   4.750
  772W        W69177   3.426  38.730   3.749
  773W        W69178  22.484   1.500   5.182
  774W        W69179   0.673  26.465   5.122
  775W        W69180  32.992  24.715   3.280
  776W        W69181  31.187  15.028  14.035
  777W        W69182  43.674   2.265  13.414
  778W        W69183   7.964  11.829   0.999
  779W        W69184  13.781   0.523   0.428
  780W        W69185  24.142  25.675   3.957
  781W        W69186  32.944  28.857   1.022
  782W        W69187  30.973   1.336  11.982
  783W        W69188  26.941  44.536   4.166
  784W        W69189   4.343  19.327   0.379
  785W        W69190   1.585  13.814   4.152
  786W        W69191  24.610   3.289   0.982
  787W        W69192  19.575  31.363  12.101
  788W        W69193   3.379  15.362   1.631
  789W        W69194  16.999  43.765  11.378
  790W        W69195  15.785  27.396  12.988
  791W        W69196  14.880   7.497  10.283
  792W        W69197  17.263   2.329   3.261
  793W        W69198  36.399  26.659   1.158
  794W        W69199  31.369  36.085   2.152
  795W        W69200  30.617   7.218  11.532
  796W        W69201  10.379   8.798   4.507
  797W        W69202  31.650   0.053   4.499
  798W        W69203  19.109  42.513   3.744
  799W        W69204  17.493  32.558  10.751
  800W        W69205  20.012  37.306  13.060
  801W        W69206  16.784   6.186  14.369
  802W        W69207  42.873   8.320   0.441
  803W        W69208  40.857  31.466   0.947
  804W        W69209  39.767  21.233  12.980
  805W        W69210  25.118   3.917   1.385
  806W        W69211  27.622  24.226   3.646
  807W        W69212  27.228  41.509   3.723
  808W        W69213  31.987  29.336  12.418
  809W        W69214  37.451  25.687  12.682
  810W        W69215  14.505  41.755   3.588
  811W        W69216  25.997  13.850   2.717
  812W        W69217  11.640  28.407   1.776
  813W        W69218   2.461  14.700  13.352
  814W        W69219  21.617  44.943  13.777
  815W        W69220  44.364  16.619  12.210
  816W        W69221  19.173  21.911  10.267
  817W        W69222  28.700   6.681   1.419
  818W        W69223  31.113  29.047   1.235
  819W        W69224  11.326  43.496   4.627
  820W        W69225   8.135  28.539  13.901
  821W        W69226  34.436  11.830   1.831
  822W        W69227  25.608  39.258  11.964
  823W        W69228  17.263  20.759   4.788
  824W        W69229  12.435  28.782   3.655
  825W        W69230  33.545  31.155  12.539
  826W        W69231   3.191  34.477  10.288
  827W        W69232  14.550  12.294  11.579
  828W        W69233  32.032   7.491  11.598
  829W        W69234   7.140   1.069   3.317
  830W        W69235   0.784   3.461  12.277
  831W        W69236  31.157  22.014   4.710
  832W        W69237  40.216  28.108  13.607
  833W        W69238  25.184  11.075  14.377
  834W        W69239   8.713  16.868  13.456
  835W        W69240  23.634  36.098  10.559
  836W        W69241  15.186  44.995   2.075
  837W        W69242   2.564  38.304   2.243
  838W        W69243  44.055  13.222   2.327
  839W        W69244   9.347  44.510   4.897
  840W        W69245  25.583  10.769  14.192
  841W        W69246  22.236  28.035  11.205
  842W        W69247  30.948  31.364  11.367
  843W        W69248  24.426   0.277   3.248
  844W        W69249  25.020  27.435  12.896
  845W        W69250   3.663  19.279   3.885
  846W        W69251  11.876  18.773   3.246
  847W        W69252   4.405  40.380   3.317
  848W        W69253  13.000  14.418  11.233
  849W        W69254  24.622  40.969  12.275
  850W        W69255  21.664   1.176  12.640
  851W        W69256  31.090  34.399  13.861
  852W        W69257   9.146  28.503  13.786
  853W        W69258  13.647  36.065  11.687
  854W        W69259  39.531   6.261  13.449
  855W        W69260  12.392   4.653  13.983
  856W        W69261   1.903  30.455   3.897
  857W        W69262  33.482  19.395   3.385
  858W        W69263  38.577  19.036   1.820
  859W        W69264  32.841   8.659   2.175
  860W        W69265  14.052  21.528   2.351
  861W        W69266   3.928  29.577   4.191
  862W        W69267  23.830  12.611  12.421
  863W        W69268  27.897  36.429  10.399
  864W        W69269  19.118  35.077   0.464
  865W        W69270   8.383  44.934   1.911
  866W        W69271  32.223   4.380  14.058
  867W        W69272  18.050  11.745   0.976
  868W        W69273   4.730  21.480   1.787
  869W        W69274   7.796   1.528   0.815
  870W        W69275  32.201  24.066   3.764
  871W        W69276   3.070  30.484   4.663
  872W        W69277  24.462  36.940  11.927
  873W        W69278  37.978  34.868  11.172
  874W        W69279  32.462   0.868   0.003
  875W        W69280  27.164  25.093  13.279
  876W        W69281  25.535  37.947  14.966
  877W        W69282  11.148  15.246  14.432
  878W        W69283  36.799   0.751   1.404
  879W        W69284   1.007  42.610   0.303
  880W        W69285  15.884  20.336  14.803
  881W        W69286  31.513  18.260  12.392
  882W        W69287  21.286  28.704  14.899
  883W        W69288  25.393   5.664   1.394
  884W        W69289  39.898  28.653   4.551
  885W        W69290  17.545  17.783  10.704
  886W        W69291  14.751   1.993   3.725
  887W        W69292   1.280  21.595   0.399
  888W        W69293  16.276   6.239   3.788
  889W        W69294  20.122  36.809   0.459
  890W        W69295  31.006  33.900   3.407
  891W        W69296  22.248  22.919   3.221
  892W        W69297   4.353  22.608  11.122
  893W        W69298  22.159  14.840  10.444
  894W        W69299  39.383   3.435  11.833
  895W        W69300   7.843   5.197   4.164
  896W        W69301   7.920  18.713  10.520
  897W        W69302  28.445  40.170  14.380
  898W        W69303  37.532  34.333   2.322
  899W        W69304  12.482  15.823  14.894
  900W        W69305  44.896   5.931   0.257
  901W        W69306  39.564  43.349   0.429
  902W        W69307  16.582  31.432  13.836
  903W        W69308   3.503  31.098   2.536
  904W        W69309  15.393   8.642  12.850
  905W        W69310  38.589  28.527   3.204
  906W        W69311  36.237  10.411  13.342
  907W        W69312  30.675   5.840  13.574
  908W        W69313  12.853  25.267  13.390
  909W        W69314  38.513  32.476  13.920
  910W        W69315  14.758  26.044   1.614
  911W        W69316  27.369   1.029  11.109
  912W        W69317   8.851  27.975   0.399
  913W        W69318  24.480  20.393  14.254
  914W        W69319  22.567  34.460   3.726
  915W        W69320  38.556   0.445   2.549
  916W        W69321   7.910  28.698  14.844
  917W        W69322  28.019  21.088   3.130
  918W        W69323   9.681  14.263  10.654
  919W        W69324  10.130  23.407   1.560
  920W        W69325  43.062  10.791  10.906
  921W        W69326  27.996  11.724   1.436
  922W        W69327   0.975   7.951   2.174
  923W        W69328  16.082   1.373   1.196
  924W        W69329  35.873  13.307   2.359
  925W        W69330   9.246  40.081   3.307
  926W        W69331   0.358  15.482   1.212
  927W        W69332  37.874   6.916  14.222
  928W        W69333   8.772   6.653  10.822
  929W        W69334  35.032   9.756   0.200
  930W        W69335   8.275  12.760  12.611
  931W        W69336  35.425  42.975  10.884
  932W        W69337  13.802  27.018   4.592
  933W        W69338  10.752  10.744   3.673
  934W        W69339  44.483   8.745  13.907
  935W        W69340  27.720  38.245   9.842
  936W        W69341  41.845  14.561  13.619
  937W        W69342  34.159  13.930  13.771
  938W        W69343  28.467  34.846   4.135
  939W        W69344  11.630   9.380  14.382
  940W        W69345  19.121   9.409   2.900
  941W        W69346   5.869  24.098  10.629
  942W        W69347  34.908  43.975   1.812
  943W        W69348  21.545  35.381   2.898
  944W        W69349   6.616   6.872  11.440
  945W        W69350  28.512  35.591   3.749
  946W        W69351  23.251  29.230   4.470
  947W        W69352  21.203  14.640   2.482
  948W        W69353  27.700  11.897   2.847
  949W        W69354  12.386  44.583  10.701
  950W        W69355  10.171  25.496   2.394
  951W        W69356  13.974  17.267   3.271
  952W        W69357  22.196  12.538  13.520
  953W        W69358   9.301   4.894  13.835
  954W        W69359   8.008  20.077   1.338
  955W        W69360   9.164  31.912   2.283
  956W        W69361  11.872  40.018  13.548
  957W        W69362  35.702  18.782  10.769
  958W        W69363  29.281  13.876  11.062
  959W        W69364   6.342  36.956  10.821
  960W        W69365  24.352  38.672   0.417
  961W        W69366  18.201   3.535  14.556
  962W        W69367   7.115  20.482   3.398
  963W        W69368  39.783  31.486  11.916
  964W        W69369  40.006   9.379   0.519
  965W        W69370  27.708  11.694   4.252
  966W        W69371   0.731   5.801   1.227
  967W        W69372   7.860  17.481  12.398
  968W        W69373  10.066  21.601   4.888
  969W        W69374  40.654  41.064  13.105
  970W        W69375  41.168  42.666  12.599
  971W        W69376   9.793  10.655  12.970
  972W        W69377  15.657  24.048   4.296
  973W        W69378  44.815   6.551  13.672
  974W        W69379  40.733  30.517  13.039
  975W        W69380   6.361  12.871  11.634
  976W        W69381  19.324  39.544  10.627
  977W        W69382  31.604  13.646   0.311
  978W        W69383  14.166  18.311   4.215
  979W        W69384   2.603  31.224   1.274
  980W        W69385  26.383   0.751   0.893
  981W        W69386   4.836  30.155   1.705
  982W        W69387  33.410  42.462   2.239
  983W        W69388  37.260  21.750  14.762
  984W        W69389  15.403  36.143  14.969
  985W        W69390   1.000  40.371   3.303
  986W        W69391  15.303  36.408   2.769
  987W        W69392   5.427  34.046   4.470
  988W        W69393  16.908   2.090   1.973
  989W        W69394  44.803  10.353  13.387
  990W        W69395  24.804   2.254  13.848
  991W        W69396  34.961  21.061  13.949
  992W        W69397  27.081   5.422  14.349
  993W        W69398   5.674  28.999   4.780
  994W        W69399  40.039  21.025  13.532
  995W        W69400  32.041  32.506   3.193
  996W        W69401  11.588  21.673  14.360
  997W        W69402   1.454  15.550   2.277
  998W        W69403  31.595  17.353  11.108
  999W        W69404   2.326  38.973  10.941
 1000W        W69405  34.167   6.213   1.317
 1001W        W69406  27.615  42.307   0.032
 1002W        W69407  13.904  15.418  13.050
 1003W        W69408  17.168  14.126   1.371
 1004W        W69409  41.323  19.371   2.370
 1005W        W69410  39.559  10.791  11.087
 1006W        W69411  34.482  44.581  11.865
 1007W        W69412  36.122  10.616   0.351
 1008W        W69413  16.088  40.770   4.578
 1009W        W69414   4.338   3.512   3.403
 1010W        W69415  22.651  26.148   0.219
 1011W        W69416  11.421  31.543   0.234
 1012W        W69417  13.830  25.605   0.534
 1013W        W69418   1.455   1.837  11.982
 1014W        W69419  13.666   1.696   2.242
 1015W        W69420  18.396   2.260   1.050
 1016W        W69421   3.610   2.956   2.862
 1017W        W69422  34.908   5.971   2.297
 1018W        W69423   1.397  37.640   1.833
 1019W        W69424  41.630   8.947  10.637
 1020W        W69425   3.777  34.427   2.424
 1021W        W69426   2.555  21.711   2.753
 1022W        W69427  27.670  38.497   0.252
 1023W        W69428  10.249  36.821  12.312
 1024W        W69429  28.694  22.789   0.864
 1025W        W69430  38.815   3.296  10.676
 1026W        W69431  25.508  30.028   3.189
 1027W        W69432  19.257   1.433   0.350
 1028W        W69433  40.256  22.026  13.079
 1029W        W69434   7.579   9.211  12.049
 1030W        W69435  25.205  35.326   0.379
 1031W        W69436  20.464  38.400   0.756
 1032W        W69437  10.658  42.830  10.654
 1033W        W69438  30.855  28.189  11.152
 1034W        W69439  41.538   7.241  11.473
 1035W        W69440  21.212  42.013   4.995
 1036W        W69441  23.186   5.751  12.442
 1037W        W69442  14.353  26.313   1.386
 1038W        W69443  31.579  41.542   0.965
 1039W        W69444  38.185  39.849  14.394
 1040W        W69445  17.330   0.244   2.496
 1041W        W69446  41.785  35.867  10.552
 1042W        W69447   2.445  31.335  10.884
 1043W        W69448  17.501  33.910  14.291
 1044W        W69449   5.624  19.490   1.605
 1045W        W69450   3.640  13.718   1.895
 1046W        W69451  20.989  25.502  10.319
 1047W        W69452  12.842  30.585   1.394
 1048W        W69453  43.852  35.584   2.493
 1049W        W69454  25.841  30.440  13.099
 1050W        W69455  16.190  42.858  11.012
 1051W        W69456  27.870  22.436   0.885
 1052W        W69457  13.349  22.490   3.139
 1053W        W69458  24.302  13.328   4.546
 1054W        W69459  11.731   3.164   0.158
 1055W        W69460  31.074  40.030  12.774
 1056W        W69461   7.415  26.981  12.650
 1057W        W69462  25.388  28.167  10.323
 1058W        W69463  41.596  12.711   2.172
 1059W        W69464  27.643   7.736   3.259
 1060W        W69465  37.347  16.806  13.751
 1061W        W69466  34.647  15.043  12.638
 1062W        W69467   3.434  27.346  11.678
 1063W        W69468  12.172  43.189  11.652
 1064W        W69469  16.018   7.605  10.352
 1065W        W69470   4.174  32.312  13.015
 1066W        W69471   4.888  43.262  14.143
 1067W        W69472   7.325  31.675  13.748
 1068W        W69473  25.232  33.995   2.787
 1069W        W69474  15.301  40.867  10.539
 1070W        W69475  36.807  33.860  10.685
 1071W        W69476  37.858   4.940  11.384
 1072W        W69477  14.713  38.566  14.688
 1073W        W69478  11.837   1.122   3.954
 1074W        W69479   2.001  15.079  10.853
 1075W        W69480  31.970  12.137   1.452
 1076W        W69481   3.248  34.804   3.117
 1077W        W69482   6.619  20.086   3.921
 1078W        W69483  11.673  42.876   4.235
 1079W        W69484   9.247  43.060  14.959
 1080W        W69485  43.875  27.511   4.076
 1081W        W69486  22.560  43.439   3.449
 1082W        W69487  10.976  29.852  13.340
 1083W        W69488   0.774  34.288   2.854
 1084W        W69489   3.183   7.896   2.335
 1085W        W69490  10.778   0.542  10.160
 1086W        W69491  10.590  34.110  10.758
 1087W        W69492  40.072  40.642  12.514
 1088W        W69493  27.212  39.900  12.090
 1089W        W69494   0.032  13.722   0.884
 1090W        W69495  37.529  12.296   2.478
 1091W        W69496  34.874  26.483   1.217
 1092W        W69497  18.536   6.332  11.893
 1093W        W69498  42.974  22.698  10.726
 1094W        W69499  19.026  27.999  12.403
 1095W        W69500  36.880   0.496  10.620
 1096W        W69501  41.035  13.773  11.020
 1097W        W69502  38.702  22.827   2.778
 1098W        W69503   2.689  35.420  13.286
 1099W        W69504  21.587  28.928  11.641
 1100W        W69505  18.388  25.635   0.479
 1101W        W69506  25.154  18.335  14.538
 1102W        W69507  41.951  26.732   2.510
 1103W        W69508  29.458   4.162  14.995
 1104W        W69509  13.882  19.994   5.022
 1105W        W69510  14.685  42.897   3.294
 1106W        W69511  20.762  20.802   0.058
 1107W        W69512  14.772  43.476   3.672
 1108W        W69513  22.305   4.459  11.086
 1109W        W69514  12.871  32.926  12.380
 1110W        W69515  17.392  18.393   0.067
 1111W        W69516   1.244  13.873   1.379
 1112W        W69517   8.643  30.611   4.448
 1113W        W69518  16.618  10.753  13.007
 1114W        W69519  37.080  16.040  10.645
 1115W        W69520  18.404  38.168   3.644
 1116W        W69521  40.525  42.356  14.983
 1117W        W69522  28.843  34.014  14.919
 1118W        W69523  44.746   6.337   4.949
 1119W        W69524  26.432  31.373  11.931
 1120W        W69525  20.261  14.848  14.340
 1121W        W69526  37.612  23.094   1.050
 1122W        W69527  22.305  15.248  12.648
 1123W        W69528  38.920  13.602  14.822
 1124W        W69529  15.479  28.083  11.117
 1125W        W69530  35.069  13.660  12.626
 1126W        W69531   6.207  41.902  13.399
 1127W        W69532  39.580  36.969  10.719
 1128W        W69533  40.921  39.777  13.012
 1129W        W69534  22.812  25.588   1.697
 1130W        W69535  14.569  15.126  10.747
 1131W        W69536   8.587  16.763  14.390
 1132W        W69537  41.004  13.169   1.110
 1133W        W69538   7.824  12.372  14.304
 1134W        W69539  35.947   1.862   4.815
 1135W        W69540  16.977  40.496  11.109
 1136W        W69541  36.429  39.837  14.864
 1137W        W69542  27.508  34.448  13.829
 1138W        W69543  18.079   5.334   1.397
 1139W        W69544   8.088  38.483   3.770
 1140W        W69545  29.727  17.190  12.530
 1141W        W69546   4.319  30.572   1.794
 1142W        W69547  33.353  43.995  14.541
 1143W        W69548  30.435  25.694  10.766
 1144W        W69549  13.155  37.480   2.093
 1145W        W69550  23.722   0.108  11.466
 1146W        W69551  23.935  14.312   2.633
 1147W        W69552  34.826  17.353  13.271
 1148W        W69553  19.753  17.098   4.657
 1149W        W69554  32.894  32.687   1.769
 1150W        W69555  12.762  22.987   3.688
 1151W        W69556  38.483  26.530   3.096
 1152W        W69557  40.035  16.544   3.376
 1153W        W69558   4.218  32.112   3.227
 1154W        W69559  19.490   2.210  12.012
 1155W        W69560  40.424  24.534  11.849
 1156W        W69561  40.880   4.499   0.944
 1157W        W69562  22.005  25.650  11.978
 1158W        W69563   9.963   4.230   0.259
 1159W        W69564  25.593   2.156   5.080
 1160W        W69565   5.818  40.527  14.740
 1161W        W69566  27.486  44.729   3.295
 1162W        W69567  22.206   9.368   2.715
 1163W        W69568   8.977   8.879  13.522
 1164W        W69569  29.671  26.987  11.778
 1165W        W69570   9.310  13.418  11.979
 1166W        W69571  44.864  27.328   0.481
 1167W        W69572  27.874  25.096   2.673
 1168W        W69573  39.129  34.483   1.376
 1169W        W69574   4.262  28.906   2.881
 1170W        W69575  30.128  35.359   2.174
 1171W        W69576  22.061  26.463  10.110
 1172W        W69577  24.639  21.241  14.892
 1173W        W69578  21.221   2.513   0.972
 1174W        W69579  13.749  15.882  11.486
 1175W        W69580  35.064   5.290  11.203
 1176W        W69581  33.506  44.921  10.713
 1177W        W69582  36.034  37.301   1.343
 1178W        W69583  35.314  28.024  10.703
 1179W        W69584   9.247  28.065   3.288
 1180W        W69585  19.759  41.260   2.735
 1181W        W69586  43.483  10.198  12.111
 1182W        W69587  34.789  27.425   4.141
 1183W        W69588  10.605  23.277   4.104
 1184W        W69589  15.508  16.592  12.792
 1185W        W69590  23.026  27.218  13.948
 1186W        W69591   5.412  40.859  14.899
 1187W        W69592  35.325  24.945   1.814
 1188W        W69593  36.844  38.193  10.883
 1189W        W69594  24.564  32.134  12.471
 1190W        W69595  35.475  16.744  11.239
 1191W        W69596  42.517  20.946   2.828
 1192W        W69597  39.527  27.037  10.694
 1193W        W69598  16.787   4.270   2.103
 1194W        W69599  14.450  43.267  12.687
 1195W        W69600  38.482   3.928   2.396
 1196W        W69601   7.581   4.122  11.649
 1197W        W69602   9.334  22.875  13.541
 1198W        W69603  40.547  10.251  14.812
 1199W        W69604  22.513  12.941  13.097
 1200W        W69605   5.743  12.305   4.565
 1201W        W69606  32.989  41.490   3.890
 1202W        W69607  17.526  33.921   2.101
 1203W        W69608  37.809  13.691   1.380
 1204W        W69609  42.042   0.788  12.924
 1205W        W69610   3.169   3.016   4.585
 1206W        W69611  22.919  29.326   1.460
 1207W        W69612  42.243  26.547  13.235
 1208W        W69613  20.480  10.778   3.623
 1209W        W69614  15.379  36.501  14.000
 1210W        W69615  42.631   9.803  10.775
 1211W        W69616  29.686  22.226  13.344
 1212W        W69617  13.775   6.933   4.355
 1213W        W69618  31.013   5.758   2.325
 1214W        W69619  12.859  42.871  14.384
 1215W        W69620   1.410  34.810   0.772
 1216W        W69621  36.022  14.325   2.336
 1217W        W69622  33.944  33.089   0.598
 1218W        W69623   9.345   1.984  14.343
 1219W        W69624  31.014  17.578   0.382
 1220W        W69625  34.393   8.620  14.111
 1221W        W69626  32.799  38.781   2.893
 1222W        W69627  20.726  34.113  12.643
 1223W        W69628  20.283   1.528   4.492
 1224W        W69629  39.478  24.827   1.587
 1225W        W69630   3.915  29.531   3.304
 1226W        W69631  21.555   1.408  14.078
 1227W        W69632  17.663  20.671  11.287
 1228W        W69633  19.524   0.295   3.265
 1229W        W69634  26.190  15.745   1.982
 1230W        W69635  25.544   1.865   2.340
 1231W        W69636  19.563  30.587   1.422
 1232W        W69637  13.591  43.302   4.121
 1233W        W69638  40.900  15.418  12.493
 1234W        W69639  12.059   7.299   1.148
 1235W        W69640   1.932   8.600  13.239
 1236W        W69641  17.710  16.327  10.741
 1237W        W69642   9.103  27.495   0.421
 1238W        W69643  40.159  38.592   1.372
 1239W        W69644  33.597  25.408  11.134
 1240W        W69645  24.754  19.161  14.831
 1241W        W69646  28.631  34.964  12.647
 1242W        W69647  43.488  34.098   1.422
 1243W        W69648  38.911  30.372   4.069
 1244W        W69649   6.213  20.328  13.572
 1245W        W69650   9.386  20.095  14.780
 1246W        W69651  34.995  10.205  13.843
 1247W        W69652  30.392  36.335  10.680
 1248W        W69653   6.237   9.534  13.942
 1249W        W69654   0.093  19.272   2.232
 1250W        W69655  10.215   3.711   0.832
 1251W        W69656  17.162  11.744  14.986
 1252W        W69657   5.812  15.051   3.494
 1253W        W69658  19.959  35.911  11.534
 1254W        W69659  39.509  24.072   3.848
 1255W        W69660  22.680  38.973  14.024
 1256W        W69661  21.020   2.755  14.326
 1257W        W69662  40.430  41.410  12.323
 1258W        W69663  40.922  13.786  13.363
 1259W        W69664  17.486  44.031   4.497
 1260W        W69665  31.209  40.955  10.994
 1261W        W69666  24.744  19.435   2.922
 1262W        W69667  19.603  37.616  12.954
 1263W        W69668  39.135  32.884  12.567
 1264W        W69669  19.281   1.681   0.813
 1265W        W69670  28.977  39.422  14.024
 1266W        W69671  39.500   5.687  14.593
 1267W        W69672  30.865  37.822   0.780
 1268W        W69673   6.171   7.187   4.006
 1269W        W69674  11.773  19.749  10.690
 1270W        W69675  32.181  21.704   2.812
 1271W        W69676   5.893  24.479   1.450
 1272W        W69677  24.162  34.887   1.934
 1273W        W69678  21.647  38.879   4.620
 1274W        W69679  39.349  35.587   4.284
 1275W        W69680  23.900   1.424   3.375
 1276W        W69681  12.232  20.691  12.041
 1277W        W69682  43.393  39.862  13.129
 1278W        W69683  27.746  32.131  14.050
 1279W        W69684  41.035  16.097   2.054
 1280W        W69685  20.627  33.143   1.058
 1281W        W69686  17.198  28.248   0.955
 1282W        W69687  20.422  39.783   3.706
 1283W        W69688  10.098  11.391  14.445
 1284W        W69689  42.863  16.710  14.895
 1285W        W69690  17.940  34.794   4.983
 1286W        W69691  19.807  38.946   4.616
 1287W        W69692  44.681   9.816   3.788
 1288W        W69693  23.631  28.886   4.316
 1289W        W69694  29.523  10.136   3.388
 1290W        W69695  16.076   1.338  13.346
 1291W        W69696   5.886  22.626  14.780
 1292W        W69697  20.347   0.519   4.539
 1293W        W69698  14.374   8.253  13.853
 1294W        W69699  30.048  44.739  13.809
 1295W        W69700  28.871  44.507   2.612
 1296W        W69701  41.740  20.152   3.663
 1297W        W69702  41.489   8.283  13.843
 1298W        W69703  27.454  27.262  12.000
 1299W        W69704   4.830  35.486  12.781
 1300W        W69705  37.648  17.140  12.797
 1301W        W69706  20.106  31.960   4.594
 1302W        W69707  39.392  26.337  11.245
 1303W        W69708  42.497  10.080  11.196
 1304W        W69709  18.633  44.037   1.473
 1305W        W69710  10.897   7.983   4.970
 1306W        W69711   5.261  44.727  12.167
 1307W        W69712  27.037  37.921   3.229
 1308W        W69713   3.217  36.551   0.445
 1309W        W69714  41.484  21.784   0.837
 1310W        W69715  30.639  12.349  14.825
 1311W        W69716  19.704  17.683  14.051
 1312W        W69717  16.207  36.461  12.533
 1313W        W69718  28.600  22.754   2.605
 1314W        W69719   2.519  15.676   0.602
 1315W        W69720  38.148  37.512   4.276
 1316W        W69721   9.755   7.683  14.284
 1317W        W69722  15.775   4.330   3.694
 1318W        W69723  22.263  25.539   2.865
 1319W        W69724  16.727  35.282  14.837
 1320W        W69725   3.874   9.194  14.909
 1321W        W69726  32.972  18.636   4.413
 1322W        W69727  40.923  39.238  13.038
 1323W        W69728  17.352  36.291  13.498
 1324W        W69729  20.273  28.355  13.896
 1325W        W69730  25.193  43.594   1.652
 1326W        W69731  31.222  21.651   2.785
 1327W        W69732  21.261  10.885   4.541
 1328W        W69733  33.490  40.096   1.359
 1329W        W69734   5.344  22.968  12.892
 1330W        W69735  29.888  34.454   2.903
 1331W        W69736  21.057   2.369   3.432
 1332W        W69737  26.273  30.488  11.137
 1333W        W69738  16.164  35.387   5.454
 1334W        W69739  34.431  39.477   0.484
 1335W        W69740   1.915   4.219   5.029
 1336W        W69741  43.289  42.802   3.403
 1337W        W69742  25.808  41.436   3.764
 1338W        W69743  29.976  10.392  13.904
 1339W        W69744  32.109  27.695   2.360
 1340W        W69745  10.316  10.264  10.713
 1341W        W69746  41.062  31.971  13.833
 1342W        W69747  29.590  12.729   1.423
 1343W        W69748  39.398  30.178  10.361
 1344W        W69749  10.868   5.869   1.159
 1345W        W69750  38.843   0.544  14.826
 1346W        W69751  42.003  25.398   1.360
 1347W        W69752  32.745   1.797   4.064
 1348W        W69753  43.984  37.971  14.610
 1349W        W69754  38.642  10.513   4.553
 1350W        W69755  20.288  43.753  13.841
 1351W        W69756  41.873  35.428   3.081
 1352W        W69757   0.103  44.867  14.173
 1353W        W69758  27.172  40.956   0.379
 1354W        W69759  39.283  37.433   1.332
 1355W        W69760   5.760   5.665   2.473
 1356W        W69761  35.600  28.889   1.894
 1357W        W69762  37.815  34.436   3.346
 1358W        W69763  25.489  22.207  13.405
 1359W        W69764  33.879  41.659   1.332
 1360W        W69765  44.881  15.883  12.798
 1361W        W69766   7.166  19.208  14.882
 1362W        W69767   8.883  17.840  11.128
 1363W        W69768  19.569   4.330  11.133
 1364W        W69769   6.632  19.865  12.892
 1365W        W69770  17.123  30.425  12.816
 1366W        W69771  23.277   9.701   3.249
 1367W        W69772  44.499  34.201   5.168
 1368W        W69773  30.988   3.685  13.842
 1369W        W69774   8.296  21.269   3.344
 1370W        W69775  25.750  19.822  11.982
 1371W        W69776  29.025  22.860  13.577
 1372W        W69777   5.969  44.273  11.219
 1373W        W69778  36.154  25.548   3.827
 1374W        W69779   4.811   6.484   3.768
 1375W        W69780   3.794   8.240   1.258
 1376W        W69781  31.063  23.076  14.493
 1377W        W69782  19.811  21.838  14.736
 1378W        W69783  33.322  25.187  10.762
 1379W        W69784  21.000  14.680  13.114
 1380W        W69785  39.475  34.311   4.735
 1381W        W69786  28.422  21.796   0.733
 1382W        W69787  14.285  23.535   3.852
 1383W        W69788  33.415  36.499   3.142
 1384W        W69789   5.876  12.821  10.634
 1385W        W69790  41.783  28.875  13.893
 1386W        W69791   6.103  15.255  13.367
 1387W        W69792  22.161   7.129   1.223
 1388W        W69793  20.208   1.556  14.993
 1389W        W69794   7.122  40.965  14.732
 1390W        W69795  10.882   9.411  14.827
 1391W        W69796  42.393   3.787  14.774
 1392W        W69797  29.015  34.019   2.460
 1393W        W69798  32.595   2.376   3.421
 1394W        W69799   5.317  17.232  11.300
 1395W        W69800  42.535  30.862   0.786
 1396W        W69801  41.827  34.467   3.959
 1397W        W69802  18.524   5.929  10.656
 1398W        W69803   7.754  17.562  12.883
 1399W        W69804  14.197  33.496  11.176
 1400W        W69805  21.112  44.982   1.046
 1401W        W69806  44.269  11.433   2.180
 1402W        W69807  15.888  35.040   1.355
 1403W        W69808  34.817  17.056  12.406
 1404W        W69809  15.241  39.851   1.221
 1405W        W69810  25.473  30.398   2.212
 1406W        W69811  14.881   8.886   3.626
 1407W        W69812   9.260  44.365   0.255
 1408W        W69813  27.665  33.150  14.086
 1409W        W69814  25.004  25.978   3.809
 1410W        W69815  24.457   8.460  14.951
 1411W        W69816   5.320   3.619   4.851
 1412W        W69817  21.661  15.995   2.817
 1413W        W69818  33.019  16.313   0.497
 1414W        W69819  20.529  20.550  11.794
 1415W        W69820  32.373  31.167   1.847
 1416W        W69821  28.630   6.186  12.595
 1417W        W69822  12.503   8.217  14.497
 1418W        W69823   6.911   3.235  14.869
 1419W        W69824   9.930  20.041   0.753
 1420W        W69825  13.126  38.524   0.999
 1421W        W69826  15.631  28.766   2.222
 1422W        W69827  31.190  16.306   3.833
 1423W        W69828  28.416  23.945  10.705
 1424W        W69829  40.915  30.942   2.723
 1425W        W69830  31.941   0.247  14.656
 1426W        W69831   8.235  14.655   1.741
 1427W        W69832   7.384   2.621  11.428
 1428W        W69833   1.169  29.215   3.724
 1429W        W69834  15.172  41.838  12.784
 1430W        W69835  28.574  25.896   4.996
 1431W        W69836  21.028   3.354   3.731
 1432W        W69837  34.318  43.807  14.296
 1433W        W69838  35.865   0.298   1.262
 1434W        W69839  19.600  24.231   1.318
 1435W        W69840   1.293  36.440   1.812
 1436W        W69841  14.288  40.931   1.202
 1437W        W69842   9.659  23.670   4.668
 1438W        W69843  26.371  19.817  10.325
 1439W        W69844   3.126  16.813   0.238
 1440W        W69845  27.730  29.163  12.770
 1441W        W69846  19.987  36.598   1.973
 1442W        W69847  18.306  44.381  10.776
 1443W        W69848  31.493   1.803  13.440
 1444W        W69849  36.417  26.048   3.848
 1445W        W69850  20.251   8.449   2.692
 1446W        W69851   5.870  22.901   3.222
 1447W        W69852   1.072  15.053   4.424
 1448W        W69853  20.923   1.335   1.691
 1449W        W69854  15.434  41.286  11.998
 1450W        W69855  13.354  24.004   1.902
 1451W        W69856   1.911  13.496   3.572
 1452W        W69857  28.572  18.552  10.284
 1453W        W69858   2.725   3.938   4.964
 1454W        W69859  16.563  30.122   2.706
 1455W        W69860  35.740   2.210  14.354
 1456W        W69861  36.428  17.611  11.701
 1457W        W69862  11.701  43.242  10.784
 1458W        W69863   3.920  24.730   1.913
 1459W        W69864  29.898  30.984  14.010
 1460W        W69865  28.696  25.384  12.898
 1461W        W69866  18.700  38.480   4.280
 1462W        W69867  29.508  12.812  14.843
 1463W        W69868  24.761   6.531  12.814
 1464W        W69869  29.999   5.528   4.068
 1465W        W69870  15.091   9.678  11.618
 1466W        W69871   6.195  31.419  14.233
 1467W        W69872  17.275   1.988   2.876
 1468W        W69873   5.247  40.163  12.907
 1469W        W69874  16.846   2.266  11.090
 1470W        W69875  38.396   3.214  10.981
 1471W        W69876  13.100  41.296  14.788
 1472W        W69877  17.133  30.130   4.312
 1473W        W69878  36.633   1.209  13.324
 1474W        W69879  27.749   2.493  11.583
 1475W        W69880   2.941  25.030   4.792
 1476W        W69881  24.771   3.835   2.265
 1477W        W69882   0.741  18.248   0.857
 1478W        W69883  27.799  37.297   4.799
 1479W        W69884   5.487  27.121   3.823
 1480W        W69885   1.139  12.747  14.807
 1481W        W69886  21.131  34.967   5.051
 1482W        W69887   0.149  26.005  12.606
 1483W        W69888  43.266  14.832   3.822
 1484W        W69889  38.550  42.396  14.126
 1485W        W69890  18.848   9.035   2.665
 1486W        W69891   1.406   3.645   1.716
 1487W        W69892  42.001  21.786  13.337
 1488W        W69893  40.594  12.770   1.994
 1489W        W69894   1.672   1.853  13.593
 1490W        W69895  42.573  24.300   0.568
 1491W        W69896  29.366   1.113   1.895
 1492W        W69897   5.810  38.216   3.694
 1493W        W69898  29.700  15.888   0.927
 1494W        W69899  13.349  37.868  14.270
 1495W        W69900  23.995  18.000   1.234
 1496W        W69901  44.053  44.835  12.632
 1497W        W69902  19.776   9.416   9.954
 1498W        W69903  36.254  32.757   4.993
 1499W        W69904  20.374  38.935  11.248
 1500W        W69905  33.242  11.251  14.887
 1501W        W69906  19.760  11.243   2.850
 1502W        W69907  35.776  44.240   1.918
 1503W        W69908   6.508   3.376   2.702
 1504W        W69909  29.684  30.309   4.994
 1505W        W69910  27.541  12.887  12.677
 1506W        W69911   0.906  25.007  10.867
 1507W        W69912  25.201  20.005   0.232
 1508W        W69913  16.511   5.243  10.044
 1509W        W69914  28.977  39.847   3.304
 1510W        W69915   0.451  28.949  10.761
 1511W        W69916  25.814  26.650  11.625
 1512W        W69917  28.886  42.454   9.822
 1513W        W69918  14.030   0.220   1.393
 1514W        W69919  35.936  18.310   0.515
 1515W        W69920  40.882  26.736   4.214
 1516W        W69921   8.917  30.513  14.844
 1517W        W69922  20.874   8.869   1.281
 1518W        W69923  22.087  34.673  13.826
 1519W        W69924  20.561  25.110  11.031
 1520W        W69925  43.259  33.995  14.497
 1521W        W69926  31.178  24.688   1.404
 1522W        W69927  16.263  39.431   2.211
 1523W        W69928   0.547  20.570   2.296
 1524W        W69929  32.000  24.586  13.052
 1525W        W69930   0.447  37.042   1.679
 1526W        W69931  41.011  20.940   1.925
 1527W        W69932  15.813  39.076  14.197
 1528W        W69933   5.660   6.731   4.574
 1529W        W69934   7.276   5.992   2.823
 1530W        W69935  23.957  31.395  10.726
 1531W        W69936  36.769  42.520   4.758
 1532W        W69937   9.040  40.740  12.070
 1533W        W69938  10.388  20.634  13.566
 1534W        W69939  43.673  12.625  12.015
 1535W        W69940  24.281  42.555   1.619
 1536W        W69941  15.145  16.128   4.701
 1537W        W69942   9.207  22.029   1.852
 1538W        W69943  35.174  23.550  10.883
 1539W        W69944  17.386  39.032   4.104
 1540W        W69945  28.077  14.860   9.758
 1541W        W69946   0.385  18.264  14.061
 1542W        W69947  32.341  38.986  14.316
 1543W        W69948  43.044   2.274   2.957
 1544W        W69949  36.119  33.186  10.969
 1545W        W69950   6.174   0.097  12.446
 1546W        W69951  23.077  23.078   2.861
 1547W        W69952  37.526  34.255  14.313
 1548W        W69953   7.340  29.061  13.890
 1549W        W69954  20.002   6.669  11.174
 1550W        W69955  44.327  16.594  12.716
 1551W        W69956  26.948   7.292   3.678
 1552W        W69957  29.534  16.708   4.310
 1553W        W69958  23.987  12.679   0.573
 1554W        W69959  12.321   1.432  12.427
 1555W        W69960  20.476  13.651  11.937
 1556W        W69961  36.839  22.528   4.839
 1557W        W69962  14.350   4.284   3.821
 1558W        W69963  34.825  21.157   4.194
 1559W        W69964  23.721  40.273   1.261
 1560W        W69965  31.963  28.914   3.252
 1561W        W69966  23.874  37.472  12.406
 1562W        W69967  27.519  27.322   3.556
 1563W        W69968   3.435  11.708  14.087
 1564W        W69969   0.400  38.141  11.268
 1565W        W69970  28.503  12.192   0.373
 1566W        W69971  11.673  17.503   1.277
 1567W        W69972  12.348  36.301  10.889
 1568W        W69973   8.886   3.653   2.714
 1569W        W69974   9.787   0.510  11.748
 1570W        W69975  36.135  21.028   3.636
 1571W        W69976   2.819  18.452   1.312
 1572W        W69977  42.546  19.698   4.551
 1573W        W69978  16.747   5.905  12.162
 1574W        W69979  17.915  26.004  14.287
 1575W        W69980  43.779   3.577   1.712
 1576W        W69981  44.388   9.645  12.089
 1577W        W69982  37.791   1.502  11.506
 1578W        W69983  41.431  42.285   2.799
 1579W        W69984   3.122  38.308  10.933
 1580W        W69985  17.266  16.828  13.263
 1581W        W69986  17.380   6.082   4.088
 1582W        W69987  40.367  23.005   4.896
 1583W        W69988  39.809  42.730  11.631
 1584W        W69989   5.814  39.307  14.872
 1585W        W69990  11.743   9.366   2.399
 1586W        W69991  43.416  25.575  11.448
 1587W        W69992  32.130  22.344   3.306
 1588W        W69993   2.216  21.691  11.158
 1589W        W69994  14.740  39.055  10.208
 1590W        W69995  21.557  25.571  12.257
 1591W        W69996  18.579  24.446   4.710
 1592W        W69997   2.216   1.420  13.035
 1593W        W69998  15.810  36.808   2.308
 1594W        W69999  21.089  13.782  13.574
 1595W        W70000  40.088  14.138   4.007
 1596W        W70001  43.172   8.834   3.325
 1597W        W70002  12.580   5.239  10.677
 1598W        W70003  38.968  28.612   1.842
 1599W        W70004  25.621  12.617  13.808
 1600W        W70005   9.597  35.146   3.152
 1601W        W70006  37.440  42.291  13.575
 1602W        W70007   8.327  27.972  10.749
 1603W        W70008  40.291  42.296   3.685
 1604W        W70009   5.947   0.133  12.940
 1605W        W70010  27.655  19.733   3.712
 1606W        W70011  23.127   7.057  11.145
 1607W        W70012  44.733  23.122   0.085
 1608W        W70013   7.950  43.876  12.420
 1609W        W70014  25.417   0.254  14.994
 1610W        W70015  22.818  30.905  13.792
 1611W        W70016  32.780  36.697   2.071
 1612W        W70017   1.792  28.459  11.144
 1613W        W70018  16.071   9.303  12.612
 1614W        W70019  35.364  11.200  12.996
 1615W        W70020   2.387   2.307  14.803
 1616W        W70021  10.832   2.553  14.403
 1617W        W70022  25.961  29.716   0.344
 1618W        W70023  36.113  26.504  11.405
 1619W        W70024   2.983  33.627  12.164
 1620W        W70025   3.133  37.885  12.536
 1621W        W70026   7.707  31.220  10.494
 1622W        W70027  36.474   3.893  11.308
 1623W        W70028  40.357   4.121   2.448
 1624W        W70029   8.830  11.104  13.287
 1625W        W70030  27.454  15.745  12.618
 1626W        W70031  40.210  24.860   3.202
 1627W        W70032  23.574  26.262  11.893
 1628W        W70033  42.401  24.701   1.317
 1629W        W70034  20.537  39.910   3.202
 1630W        W70035  15.076   6.451   3.570
 1631W        W70036   1.241  13.888  13.911
 1632W        W70037  18.854  12.890  13.416
 1633W        W70038  29.973  28.476   0.402
 1634W        W70039  27.468   7.407   4.556
 1635W        W70040  39.856  36.061  14.721
 1636W        W70041  34.374  26.428  11.329
 1637W        W70042  13.090   9.726  11.122
 1638W        W70043  44.660   1.949   4.798
 1639W        W70044  41.940  32.026   0.375
 1640W        W70045  18.519  14.581   3.911
 1641W        W70046  12.325  11.104   0.992
 1642W        W70047  18.210  36.784   3.095
 1643W        W70048  27.235  23.716  14.876
 1644W        W70049  29.892  16.726  12.344
 1645W        W70050  31.260  18.535   5.038
 1646W        W70051  26.564  20.771  11.384
 1647W        W70052  40.459  37.128  13.826
 1648W        W70053  27.669  33.580   4.557
 1649W        W70054  21.952   2.477   4.104
 1650W        W70055  44.589  34.862   0.832
 1651W        W70056  23.678  18.477  13.520
 1652W        W70057  32.365  26.667   0.260
 1653W        W70058  11.241  36.643  10.656
 1654W        W70059  34.629  17.858   0.055
 1655W        W70060  44.850  31.402   2.410
 1656W        W70061   2.014  20.564  13.340
 1657W        W70062  29.113   9.702   1.703
 1658W        W70063  10.243   7.787   1.108
 1659W        W70064  33.487  14.369  14.435
 1660W        W70065   7.699  17.074  12.654
 1661W        W70066  26.056  16.188  14.787
 1662W        W70067  21.674  11.627   2.475
 1663W        W70068  21.562  29.416   1.464
 1664W        W70069  44.385  19.802  10.712
 1665W        W70070  20.477  20.707  14.248
 1666W        W70071  33.180  34.583   4.767
 1667W        W70072  36.489  13.219   3.282
 1668W        W70073  12.691  38.311   4.553
 1669W        W70074   0.868  24.666   4.550
 1670W        W70075  16.749   5.833   3.309
 1671W        W70076   2.505  32.207  12.942
 1672W        W70077  37.344  16.288  12.118
 1673W        W70078  32.381  32.483  11.588
 1674W        W70079  18.159   6.689   1.722
 1675W        W70080   5.651  27.431  13.418
 1676W        W70081   1.323  36.360   0.287
 1677W        W70082  31.666  30.516   1.922
 1678W        W70083  15.809  39.486   0.760
 1679W        W70084   7.948   1.814   4.149
 1680W        W70085  38.900  32.597   2.223
 1681W        W70086  41.448  27.091  11.119
 1682W        W70087  40.480  39.457  12.879
 1683W        W70088   5.017  35.792   4.299
 1684W        W70089   5.897   0.999  10.472
 1685W        W70090  17.754   4.972  12.200
 1686W        W70091  22.288  43.418  13.142
 1687W        W70092  37.046  43.273  12.439
 1688W        W70093   7.422   3.709   0.768
 1689W        W70094  30.550   9.421   0.462
 1690W        W70095  16.233  40.325  14.297
 1691W        W70096  22.411  25.677  11.460
 1692W        W70097  14.688  25.894  14.325
 1693W        W70098  21.787  42.935  14.832
 1694W        W70099  38.191  42.202   4.750
 1695W        W70100  11.640   0.703   2.194
 1696W        W70101  29.639   2.740   2.802
 1697W        W70102  36.863   8.148   4.078
 1698W        W70103  35.905  37.355   3.235
 1699W        W70104  44.219  44.992   3.397
 1700W        W70105  29.535  33.337   1.939
 1701W        W70106  38.592  12.673   2.142
 1702W        W70107   6.356  22.434   4.875
 1703W        W70108  19.668  14.532   2.830
 1704W        W70109  32.391  17.225   1.682
 1705W        W70110  43.827  21.126  13.316
 1706W        W70111  39.301   3.301  10.874
 1707W        W70112   7.282  30.748  11.116
 1708W        W70113  10.678  34.208  11.673
 1709W        W70114  14.474   2.367   1.282
 1710W        W70115  32.076   3.720   0.010
 1711W        W70116  43.635  27.733   4.480
 1712W        W70117   6.246  36.675   0.870
 1713W        W70118  24.821   6.460   4.569
 1714W        W70119  20.959  34.607  10.769
 1715W        W70120   3.242  40.711   1.699
 1716W        W70121  20.267  39.944   1.218
 1717W        W70122  13.292   6.625  11.522
 1718W        W70123  43.698  10.804  13.907
 1719W        W70124  24.608   4.276   0.909
 1720W        W70125  26.863  24.215   4.140
 1721W        W70126  44.180  16.133  13.311
 1722W        W70127  18.693  38.892   4.580
 1723W        W70128  36.808   7.879   3.628
 1724W        W70129   4.777   8.721   2.651
 1725W        W70130  36.093   3.234   0.248
 1726W        W70131   7.210  34.853   4.521
 1727W        W70132  40.363  34.329  14.016
 1728W        W70133  25.609  43.205  13.507
 1729W        W70134  27.671   4.945   0.498
 1730W        W70135  19.104   5.905   4.393
 1731W        W70136  30.345  30.032  11.400
 1732W        W70137  18.083  26.445  14.491
 1733W        W70138  41.052  42.989   3.650
 1734W        W70139  44.106  15.452   4.151
 1735W        W70140  23.733  27.690   0.272
 1736W        W70141   2.145  31.890  13.755
 1737W        W70142  29.642   0.126  13.102
 1738W        W70143  17.686  28.833  12.536
 1739W        W70144  37.906  14.844   3.502
 1740W        W70145  17.020   5.250   4.396
 1741W        W70146  12.647   5.667   1.981
 1742W        W70147  38.570  36.062   2.259
 1743W        W70148  27.041  36.239   4.698
 1744W        W70149  36.516  41.774  14.966
 1745W        W70150  29.294  24.306  12.519
 1746W        W70151  21.469  18.540   4.885
 1747W        W70152  35.096  34.697  10.783
 1748W        W70153  14.618  33.883  12.205
 1749W        W70154  26.022  34.798  13.929
 1750W        W70155   8.429  44.165  13.871
 1751W        W70156   8.824  32.510   0.385
 1752W        W70157  36.349  22.205  11.935
 1753W        W70158  17.720  27.480  13.882
 1754W        W70159  33.436  36.720  10.909
 1755W        W70160  22.731  20.180  12.023
 1756W        W70161  35.338   7.304  13.495
 1757W        W70162  11.805   1.160   0.431
 1758W        W70163   7.230  21.855   3.765
 1759W        W70164  39.408   9.402  12.503
 1760W        W70165  19.977  33.450  11.169
 1761W        W70166  10.419   0.911  10.216
 1762W        W70167  35.542  11.628   4.508
 1763W        W70168  23.598  12.362   1.248
 1764W        W70169  19.258  23.222  13.388
 1765W        W70170  29.437  22.318   0.742
 1766W        W70171  19.334  26.619  12.433
 1767W        W70172  18.344  27.116   3.769
 1768W        W70173  41.558  39.938   3.760
 1769W        W70174  19.509  17.563  11.071
 1770W        W70175  37.013  27.247  11.934
 1771W        W70176  25.136  16.764  13.804
 1772W        W70177  20.765  29.517   0.481
 1773W        W70178   5.139  17.597  13.511
 1774W        W70179  32.835  23.484   0.975
 1775W        W70180  44.314  27.871  12.872
 1776W        W70181  23.898  11.839  11.990
 1777W        W70182  14.702   4.933   2.301
 1778W        W70183  39.007  38.667  12.471
 1779W        W70184   8.309  20.740  11.336
 1780W        W70185  27.282  31.068  10.660
 1781W        W70186  20.137  30.621  10.726
 1782W        W70187  16.081  13.777  13.509
 1783W        W70188  28.550  34.011  14.476
 1784W        W70189  15.226  42.995   4.244
 1785W        W70190  26.309  36.496  11.152
 1786W        W70191  17.968  26.740   2.291
 1787W        W70192  22.299   1.721   3.171
 1788W        W70193  10.754  21.747   1.493
 1789W        W70194   6.874   3.190  10.937
 1790W        W70195   0.440  23.969  14.368
 1791W        W70196  28.895  23.988   1.362
 1792W        W70197  17.866  11.214   1.980
 1793W        W70198  39.976  39.396  14.543
 1794W        W70199   3.445  14.851  13.224
 1795W        W70200  27.426  11.897  13.923
 1796W        W70201   5.348  13.803  12.579
 1797W        W70202   7.144  16.219   0.455
 1798W        W70203  21.963  27.688  12.043
 1799W        W70204  15.534  40.818  14.749
 1800W        W70205  16.557   1.496  14.415
 1801W        W70206  26.554  33.140   4.988
 1802W        W70207   0.456   9.760  13.863
 1803W        W70208  17.814  17.829  14.022
 1804W        W70209  36.013  17.628   0.271
 1805W        W70210   8.350  30.781   2.435
 1806W        W70211  21.324  30.277  11.185
 1807W        W70212  43.935   5.586   3.695
 1808W        W70213   4.670   4.009  14.043
 1809W        W70214  40.552  14.236  10.398
 1810W        W70215   1.715  43.921  10.690
 1811W        W70216  29.574  15.926  12.882
 1812W        W70217   0.638   9.719   4.136
 1813W        W70218  41.302  15.899  13.899
 1814W        W70219  11.307  22.722   4.846
 1815W        W70220  18.545   3.752   4.391
 1816W        W70221   2.505  16.307  13.830
 1817W        W70222  21.661  11.635   2.987
 1818W        W70223  23.746  38.144   1.695
 1819W        W70224   0.142  32.439   4.444
 1820W        W70225   9.402   0.153  13.930
 1821W        W70226  11.736  16.643   0.696
 1822W        W70227  10.689  14.643   1.148
 1823W        W70228   9.378  16.359   3.120
 1824W        W70229   6.534  17.742  10.264
 1825W        W70230  21.527  20.582  12.088
 1826W        W70231   5.800   2.278  10.723
 1827W        W70232  34.675  21.340  14.301
 1828W        W70233  24.120   7.138  10.794
 1829W        W70234   9.701  34.372  13.065
 1830W        W70235  16.694  14.685   4.126
 1831W        W70236   6.849   5.344  12.145
 1832W        W70237  12.113  34.094   3.219
 1833W        W70238  36.684  28.713  14.511
 1834W        W70239   0.771  31.465  13.545
 1835W        W70240   0.233  29.639  13.769
 1836W        W70241  23.696  24.492  11.549
 1837W        W70242  39.480   2.036  14.288
 1838W        W70243  16.868   7.292   2.698
 1839W        W70244  18.829  40.454  10.777
 1840W        W70245  43.722   8.424  12.156
 1841W        W70246   8.242  18.134  14.694
 1842W        W70247   1.406  42.124  14.929
 1843W        W70248  39.227   9.683  14.861
 1844W        W70249  42.329   2.846  14.973
 1845W        W70250  40.637   8.681  14.901
 1846W        W70251  43.039  20.063  13.505
 1847W        W70252  35.996   8.739  13.921
 1848W        W70253  14.544  22.542   4.171
 1849W        W70254  35.354  41.656   0.436
 1850W        W70255  37.026  25.542   1.349
 1851W        W70256  28.670  29.570  13.032
 1852W        W70257  33.336  22.047   4.253
 1853W        W70258  17.506  40.847  10.525
 1854W        W70259  44.993  18.788  11.437
 1855W        W70260  22.794  43.963   3.391
 1856W        W70261   4.291  38.410   2.912
 1857W        W70262  37.493  25.419   0.358
 1858W        W70263  16.321  28.593   4.234
 1859W        W70264  41.016   2.685  11.708
 1860W        W70265   9.776  40.584   1.233
 1861W        W70266  17.652   2.990   2.266
 1862W        W70267  11.184  39.523  12.623
 1863W        W70268  12.700   1.396   0.954
 1864W        W70269  36.153  18.785   1.618
 1865W        W70270  19.230  44.946  12.609
 1866W        W70271  25.361  26.387  13.450
 1867W        W70272   5.854  41.323   0.219
 1868W        W70273  36.690   9.216  10.465
 1869W        W70274  28.579  29.143   2.497
 1870W        W70275  26.956  19.834  12.603
 1871W        W70276  38.332  18.599   0.125
 1872W        W70277  16.831  44.470   3.199
 1873W        W70278  24.010  11.697   4.335
 1874W        W70279  25.068   7.950   4.720
 1875W        W70280   9.511   0.657  13.333
 1876W        W70281  36.409  22.744   4.589
 1877W        W70282   4.227  24.708  11.286
 1878W        W70283  34.429  27.003  12.947
 1879W        W70284  21.550  17.386   1.235
 1880W        W70285   1.547   7.438   1.435
 1881W        W70286  24.366  12.281  13.198
 1882W        W70287  16.315  10.752  11.633
 1883W        W70288  14.525  33.954   0.879
 1884W        W70289  13.601   7.808  13.990
 1885W        W70290  28.142  12.817  11.917
 1886W        W70291  30.910  23.466   3.812
 1887W        W70292  31.903  33.984   0.719
 1888W        W70293  21.025   0.823   0.539
 1889W        W70294  11.120  43.432   2.626
 1890W        W70295  31.112  20.010   3.344
 1891W        W70296  33.726   3.665  14.746
 1892W        W70297   6.318  30.256   2.883
 1893W        W70298   9.124  29.357  14.121
 1894W        W70299  31.447  43.996  10.614
 1895W        W70300   8.220  14.958   1.286
 1896W        W70301  36.266  39.994  12.668
 1897W        W70302   3.916   7.390  14.768
 1898W        W70303  14.768   5.358   4.197
 1899W        W70304  26.471  10.382   4.497
 1900W        W70305  35.722  37.679  14.988
 1901W        W70306  43.224  21.222  12.590
 1902W        W70307  25.089  24.826  10.704
 1903W        W70308  44.725   0.786  11.118
 1904W        W70309  32.872  32.916  12.542
 1905W        W70310   8.416  32.493  10.671
 1906W        W70311  27.059   8.190   0.325
 1907W        W70312  23.632  30.886   4.124
 1908W        W70313  12.794   4.843  10.905
 1909W        W70314   9.347  30.488  11.251
 1910W        W70315  29.399  35.323   2.761
 1911W        W70316  22.478  30.681   2.892
 1912W        W70317  29.505  26.914   2.712
 1913W        W70318  32.032  12.083   2.911
 1914W        W70319  37.066  39.773   4.143
 1915W        W70320   5.594  43.853  13.601
 1916W        W70321  23.685  15.927   0.501
 1917W        W70322  30.968  34.684   3.572
 1918W        W70323   4.265  33.384  13.944
 1919W        W70324  13.124  31.132  11.718
 1920W        W70325   6.878   6.407  14.869
 1921W        W70326  26.668  37.175  10.530
 1922W        W70327   4.833  30.456  10.766
 1923W        W70328  40.072   7.925   1.136
 1924W        W70329  32.857   9.879   2.773
 1925W        W70330  30.487  26.587   3.206
 1926W        W70331  38.472   8.307  10.755
 1927W        W70332  12.317  20.232  14.832
 1928W        W70333  40.932   8.366   2.431
 1929W        W70334  17.096  17.799   3.799
 1930W        W70335  40.817  13.333  14.801
 1931W        W70336  31.028  20.169   3.845
 1932W        W70337   0.380  31.905  11.517
 1933W        W70338  32.818  40.782  14.850
 1934W        W70339  15.561  11.220  12.379
 1935W        W70340   1.953  43.830   3.391
 1936W        W70341  22.247  41.431  11.948
 1937W        W70342  15.700  24.724  13.335
 1938W        W70343   7.978  39.920  10.238
 1939W        W70344   2.201   3.427   3.225
 1940W        W70345  41.029  37.142  12.093
 1941W        W70346  15.007  40.773   1.026
 1942W        W70347  25.653  38.105  11.531
 1943W        W70348   3.259  16.349  10.721
 1944W        W70349  10.174  35.105  14.895
 1945W        W70350  17.112  11.887   4.919
 1946W        W70351  10.883   8.396  14.956
 1947W        W70352  12.173  34.832   4.232
 1948W        W70353  21.874   7.022   2.733
 1949W        W70354  23.268  35.718  12.973
 1950W        W70355  29.106  38.258  14.030
 1951W        W70356  36.319  19.487   4.369
 1952W        W70357  35.164  42.272   1.586
 1953W        W70358  13.131  13.524  10.923
 1954W        W70359  12.820   2.332  14.964
 1955W        W70360  17.121   3.135  12.421
 1956W        W70361   3.374  34.022   0.730
 1957W        W70362  17.350   7.351   3.615
 1958W        W70363  42.452  16.659  10.647
 1959W        W70364  43.762  25.916  14.238
 1960W        W70365  31.393   1.350  10.300
 1961W        W70366   6.858  35.857   0.702
 1962W        W70367  25.946   6.928  14.859
 1963W        W70368  37.344  43.837  10.654
 1964W        W70369   0.177  24.221   1.828
 1965W        W70370   1.953   1.288  11.465
 1966W        W70371  18.386  21.325   9.809
 1967W        W70372  35.457  35.975   2.096
 1968W        W70373   7.860  26.185  10.905
 1969W        W70374  43.926  14.364  11.658
 1970W        W70375  17.323  39.187   0.835
 1971W        W70376  27.365  40.762  11.902
 1972W        W70377  10.921  14.386   4.222
 1973W        W70378  21.215  19.323  10.850
 1974W        W70379   7.331  32.249   3.777
 1975W        W70380  20.281  39.078  10.715
 1976W        W70381  32.135  20.670   2.709
 1977W        W70382  10.254  13.365  10.968
 1978W        W70383  22.207  38.559   1.487
 1979W        W70384  42.120  28.901  10.077
 1980W        W70385  14.624  31.897  14.849
 1981W        W70386  42.461  38.045   1.165
 1982W        W70387  10.679  16.148   0.189
 1983W        W70388  38.371  41.154  11.851
 1984W        W70389   4.695  15.571   5.068
 1985W        W70390  33.174  43.188   5.061
 1986W        W70391  18.998  23.484  11.601
 1987W        W70392   4.493  33.009   0.434
 1988W        W70393  20.258   9.135  12.892
 1989W        W70394  12.381  28.754   1.365
 1990W        W70395  41.712  13.761  11.549
 1991W        W70396   2.079  34.427   4.862
 1992W        W70397  17.242  41.817   1.302
 1993W        W70398   1.022   3.993   1.742
 1994W        W70399  16.366  14.685  14.986
 1995W        W70400  21.144  31.557   3.415
 1996W        W70401  37.823  34.161   3.793
 1997W        W70402  10.029  44.203  12.040
 1998W        W70403  34.139  10.155  12.423
 1999W        W70404  40.331  18.959   2.379
 2000W        W70405  28.957  31.085  14.867
 2001W        W70406  22.081  44.276  10.599
 2002W        W70407  17.166  44.482  12.827
 2003W        W70408  41.053  30.471   2.418
 2004W        W70409  41.414  43.034  13.896
 2005W        W70410  29.013  16.756   0.055
 2006W        W70411   3.134   0.399   0.469
 2007W        W70412  25.142  27.220   3.087
 2008W        W70413  17.289  31.472  12.542
 2009W        W70414   7.263  10.949   4.798
 2010W        W70415  41.867   7.215  12.678
 2011W        W70416  12.261  32.736   3.717
 2012W        W70417  42.384  22.159  14.785
 2013W        W70418  25.653  28.442   0.842
 2014W        W70419  42.829   1.241   1.904
 2015W        W70420  29.862   8.290  14.710
 2016W        W70421   8.334  41.432  13.932
 2017W        W70422  27.546   2.315   2.467
 2018W        W70423   2.060   5.536  10.207
 2019W        W70424  15.243  10.102  11.852
 2020W        W70425  19.592  41.322   4.562
 2021W        W70426  27.165  28.538   3.292
 2022W        W70427  41.491   7.158  13.039
 2023W        W70428  15.758  44.931  13.821
 2024W        W70429   7.696  24.064   3.557
 2025W        W70430  27.679  37.003  14.934
 2026W        W70431  38.917  14.192  13.053
 2027W        W70432   6.714  34.918   0.410
 2028W        W70433   0.287   3.302  12.193
 2029W        W70434  36.545   1.691  13.476
 2030W        W70435  38.889  14.149  11.585
 2031W        W70436  16.367  19.115  11.038
 2032W        W70437  19.568   4.795  14.313
 2033W        W70438  13.267   2.484  14.723
 2034W        W70439  36.364  35.336   2.960
 2035W        W70440  22.446   7.437   4.575
 2036W        W70441  37.242  26.638  10.664
 2037W        W70442   4.152  30.040   2.589
 2038W        W70443  16.924  32.191  11.680
 2039W        W70444  19.474   0.666   4.136
 2040W        W70445  11.313  33.960   0.183
 2041W        W70446  29.119  40.537   2.110
 2042W        W70447  33.469  25.768  12.486
 2043W        W70448  36.201  29.620  12.024
 2044W        W70449  32.736  43.935  10.885
 2045W        W70450  37.963  27.764   1.350
 2046W        W70451   0.354  44.262  11.687
 2047W        W70452  38.839  32.113  11.226
 2048W        W70453  17.212  26.950   0.734
 2049W        W70454  29.632  44.070   4.613
 2050W        W70455   7.849   4.971   0.045
 2051W        W70456  32.949  23.712  13.330
 2052W        W70457  40.787  33.683   1.981
 2053W        W70458   5.947   4.346  11.575
 2054W        W70459  12.182  33.062   1.271
 2055W        W70460  16.034  15.625   4.052
 2056W        W70461  31.410  20.264  11.698
 2057W        W70462   9.274  39.031  13.522
 2058W        W70463  38.217  44.984   1.275
 2059W        W70464  29.722  29.560   3.487
 2060W        W70465   3.230   0.279   4.180
 2061W        W70466  13.548   1.018  11.581
 2062W        W70467  18.103   8.284  11.055
 2063W        W70468  20.649   1.766   4.218
 2064W        W70469  32.510   4.981  10.746
 2065W        W70470  41.491  11.161  13.032
 2066W        W70471  12.298  30.042   1.172
 2067W        W70472  11.225  34.470  10.980
 2068W        W70473   0.729  14.371  12.856
 2069W        W70474   9.792   6.358   3.785
 2070W        W70475  19.832  25.471  12.210
 2071W        W70476  29.240  33.134   1.066
 2072W        W70477   7.470  31.770   3.052
 2073W        W70478  41.953  14.431  13.126
 2074W        W70479  12.107  23.518   3.221
 2075W        W70480  12.294  15.254  12.534
 2076W        W70481  41.378  24.265  12.120
 2077W        W70482  15.318  17.613   3.487
 2078W        W70483  34.103  35.664  11.989
 2079W        W70484   0.122  16.368   1.364
 2080W        W70485  36.974   5.278   1.235
 2081W        W70486  40.755  27.475   3.121
 2082W        W70487  35.010   7.236   1.481
 2083W        W70488   3.187   7.325  14.310
 2084W        W70489   7.278  20.966   3.355
 2085W        W70490  35.406   6.604  11.375
 2086W        W70491   1.940   4.134  12.022
 2087W        W70492  23.035  11.783   4.317
 2088W        W70493  37.801  30.166   1.237
 2089W        W70494  43.813  10.254  12.499
 2090W        W70495  19.253  22.607   1.730
 2091W        W70496   1.203  23.994   1.327
 2092W        W70497  34.697  31.182   1.153
 2093W        W70498  17.427   0.184   4.066
 2094W        W70499  35.998  23.490  12.091
 2095W        W70500  27.514  33.886   0.349
 2096W        W70501  21.461  23.490   3.143
 2097W        W70502   0.951  24.420   0.121
 2098W        W70503  26.660   2.532   3.138
 2099W        W70504   4.779   8.739  13.849
 2100W        W70505  36.284   5.443  12.386
 2101W        W70506   7.420  21.474   1.402
 2102W        W70507  41.835  37.293   1.967
 2103W        W70508  15.915  13.612   3.718
 2104W        W70509  33.130   1.082   0.810
 2105W        W70510  20.034  37.458  14.965
 2106W        W70511  25.509   8.141  12.673
 2107W        W70512  30.165  10.943   0.947
 2108W        W70513  43.575  29.964   2.661
 2109W        W70514  14.766  10.210   4.601
 2110W        W70515  16.092  11.695  13.910
 2111W        W70516  36.766  30.583  10.901
 2112W        W70517  10.450  20.172  11.918
 2113W        W70518  22.246  27.053  14.552
 2114W        W70519  12.619  31.363   1.644
 2115W        W70520  38.770   8.084  11.126
 2116W        W70521  28.574  14.887   9.581
 2117W        W70522  22.072   7.714  12.265
 2118W        W70523  15.756  29.027  13.144
 2119W        W70524  29.476  34.478  14.603
 2120W        W70525  38.974  37.432  13.700
 2121W        W70526  27.463  41.584   3.257
 2122W        W70527   3.911  10.544  12.584
 2123W        W70528  39.348  32.164  10.542
 2124W        W70529  25.450  30.012   1.714
 2125W        W70530  13.351  29.638   4.227
 2126W        W70531  25.141  43.897   3.289
 2127W        W70532  11.247  17.133   4.066
 2128W        W70533  23.025   4.760  13.121
 2129W        W70534   0.329  12.563  11.129
 2130W        W70535  19.026  26.594  12.031
 2131W        W70536  17.079  14.644  13.359
 2132W        W70537  19.815  24.634  10.556
 2133W        W70538   8.162  12.582   1.331
 2134W        W70539   7.663  14.601   1.029
 2135W        W70540  16.768  31.363   2.312
 2136W        W70541  14.312  37.594   1.079
 2137W        W70542   5.779  27.104  11.990
 2138W        W70543  13.785  29.086   4.644
 2139W        W70544  26.567   9.222  11.071
 2140W        W70545   8.126   6.593   4.144
 2141W        W70546   5.877  25.831   2.800
 2142W        W70547   1.493  15.061  14.318
 2143W        W70548  35.399   9.988   3.197
 2144W        W70549  43.031  21.046   0.301
 2145W        W70550  21.272   2.886  13.004
 2146W        W70551   2.753  16.924  11.233
 2147W        W70552  21.993  10.795  14.983
 2148W        W70553   8.209  28.066  14.155
 2149W        W70554  34.891  20.620  14.884
 2150W        W70555  33.557  23.237   1.427
 2151W        W70556  42.833   0.868   1.251
 2152W        W70557  15.168  32.941  14.496
 2153W        W70558  41.551  35.862  13.703
 2154W        W70559  43.410   9.659  13.062
 2155W        W70560  29.743  19.266   4.233
 2156W        W70561  10.932  16.177  14.735
 2157W        W70562  24.722  21.590  14.501
 2158W        W70563  29.857  37.537   2.660
 2159W        W70564  24.937  19.722   3.618
 2160W        W70565  32.665  42.339  13.086
 2161W        W70566  36.407  23.635   4.968
 2162W        W70567  38.150  12.896   1.990
 2163W        W70568   9.856   1.963   0.679
 2164W        W70569  36.457  18.395  12.991
 2165W        W70570  41.403  39.310   1.918
 2166W        W70571  37.577  22.850  12.339
 2167W        W70572  18.918  28.150  11.573
 2168W        W70573  33.482  13.732  11.941
 2169W        W70574  24.774  33.223   3.773
 2170W        W70575  26.412   7.781  12.635
 2171W        W70576  31.296  34.104  13.460
 2172W        W70577  38.927   5.084   3.170
 2173W        W70578  28.477  39.836  11.537
 2174W        W70579  21.983  29.729   1.371
 2175W        W70580  41.891  21.765  10.962
 2176W        W70581  44.236  14.234   0.913
 2177W        W70582  38.548  39.394   1.178
 2178W        W70583   7.274   6.659  12.545
 2179W        W70584  10.800  28.149   4.148
 2180W        W70585  24.244   4.312   3.636
 2181W        W70586  42.686  22.329   1.887
 2182W        W70587   9.313  40.191   0.428
 2183W        W70588   1.606  30.275  13.403
 2184W        W70589  18.061  12.915   4.305
 2185W        W70590   4.897  28.286   1.340
 2186W        W70591  28.089  28.455   4.814
 2187W        W70592  24.478  23.279   1.891
 2188W        W70593  10.325  25.627  14.001
 2189W        W70594  40.785  38.334   0.001
 2190W        W70595  42.448  10.579  11.155
 2191W        W70596  44.839  14.576   0.324
 2192W        W70597  22.241  31.403  11.602
 2193W        W70598  39.855  27.945   0.528
 2194W        W70599  15.287  29.961  10.898
 2195W        W70600  43.831  12.022   4.955
 2196W        W70601  38.397   2.400  13.471
 2197W        W70602  43.966  27.234   4.735
 2198W        W70603   6.227  31.431  10.824
 2199W        W70604   1.958  17.067   3.747
 2200W        W70605  43.648  28.872   1.385
 2201W        W70606   9.611   8.996  13.941
 2202W        W70607  26.315  23.184  12.160
 2203W        W70608  24.086  44.093  12.350
 2204W        W70609  10.044  35.299   3.646
 2205W        W70610  22.968  21.671  14.455
 2206W        W70611  39.251  43.565   4.630
 2207W        W70612   6.083  42.865  10.107
 2208W        W70613   6.858  16.824  14.862
 2209W        W70614  22.232  12.875   4.528
 2210W        W70615  29.328   8.601   4.930
 2211W        W70616  38.547  13.311  14.529
 2212W        W70617  36.605  28.327  10.669
 2213W        W70618  18.633  38.422   1.445
 2214W        W70619  40.478  10.425  13.472
 2215W        W70620  28.837  13.037   0.421
 2216W        W70621  16.158  43.900  11.394
 2217W        W70622  15.397   3.506  10.321
 2218W        W70623  11.388  14.429   0.206
 2219W        W70624  24.680  26.706  11.648
 2220W        W70625  32.435   0.813  12.450
 2221W        W70626  27.793  13.149  13.941
 2222W        W70627  39.522   0.804   2.193
 2223W        W70628  33.256  44.317   1.207
 2224W        W70629  31.457  14.809   1.428
 2225W        W70630  43.145  11.003   0.705
 2226W        W70631  11.806  20.473   1.964
 2227W        W70632  17.687   2.738  14.144
 2228W        W70633  31.611  10.839  11.470
 2229W        W70634  15.291   2.723  10.700
 2230W        W70635  26.245  22.950   1.930
 2231W        W70636  10.882   1.474   1.313
 2232W        W70637   4.897  10.180   3.103
 2233W        W70638  13.592  32.902  10.654
 2234W        W70639  36.288   5.814  11.073
 2235W        W70640  25.469  38.404   1.802
 2236W        W70641  33.932  19.225   2.407
 2237W        W70642   6.449  29.936   0.689
 2238W        W70643  40.653   7.148   2.664
 2239W        W70644  37.360  35.456   0.496
 2240W        W70645  25.491  30.125  14.468
 2241W        W70646   7.501  28.223   2.405
 2242W        W70647  12.753  21.189  12.490
 2243W        W70648  15.721  16.255  11.390
 2244W        W70649  40.436   5.297   1.202
 2245W        W70650  34.189  44.917  11.589
 2246W        W70651  31.353   8.428   4.781
 2247W        W70652  14.003  25.183   0.776
 2248W        W70653  44.477  41.626  10.477
 2249W        W70654  29.588   5.945   3.398
 2250W        W70655  35.419   7.271  12.970
 2251W        W70656  15.214  38.563  11.098
 2252W        W70657   0.908   4.106  14.047
 2253W        W70658   0.422   4.018   3.288
 2254W        W70659  34.083   5.705  10.622
 2255W        W70660  36.646  22.573   1.729
 2256W        W70661  40.479   6.771   0.287
 2257W        W70662  15.783   2.186  10.166
 2258W        W70663   1.170  34.960   2.546
 2259W        W70664  30.070  13.676  10.709
 2260W        W70665  12.793  25.106   0.709
 2261W        W70666  22.584  28.504  13.790
 2262W        W70667   9.189  43.093   2.197
 2263W        W70668  15.192   6.236   4.771
 2264W        W70669   7.760  15.010   4.524
 2265W        W70670  35.402  33.825  13.011
 2266W        W70671   4.459  13.820  12.360
 2267W        W70672  20.732  30.132  12.642
 2268W        W70673  25.325  38.860  13.135
 2269W        W70674  28.993  25.714  11.635
 2270W        W70675   3.428   2.392   2.354
 2271W        W70676   4.853  21.644  12.980
 2272W        W70677  31.320  43.457   2.317
 2273W        W70678   9.036   8.119  10.664
 2274W        W70679  42.364   9.221   4.873
 2275W        W70680   4.854   8.492  11.169
 2276W        W70681   8.472  24.871   3.241
 2277W        W70682  42.774   6.888  14.827
 2278W        W70683   2.765  24.481   2.274
 2279W        W70684  21.020  20.853   4.094
 2280W        W70685  26.195  33.436  11.971
 2281W        W70686   7.878   3.822  13.117
 2282W        W70687  22.589  40.484  13.791
 2283W        W70688  16.959   3.397   0.470
 2284W        W70689  37.599  37.058   1.798
 2285W        W70690  37.526   7.979   0.941
 2286W        W70691   0.465  25.957   3.756
 2287W        W70692  40.011  37.236   1.813
 2288W        W70693  23.068  35.040  12.192
 2289W        W70694   7.979   8.425   2.388
 2290W        W70695  28.001   1.740   3.839
 2291W        W70696  34.341  31.986   0.062
 2292W        W70697  35.027  16.603  11.501
 2293W        W70698   6.418  22.284  12.430
 2294W        W70699  32.498  18.050  10.789
 2295W        W70700  24.979  14.659   3.181
 2296W        W70701   5.798   9.219   2.391
 2297W        W70702  24.506   4.778   1.884
 2298W        W70703  24.731   8.730  12.980
 2299W        W70704   0.223  15.906   4.423
 2300W        W70705   8.181  41.411   2.210
 2301W        W70706  25.399  16.554   3.293
 2302W        W70707   8.164  21.080  10.169
 2303W        W70708   7.279  23.486   3.262
 2304W        W70709  33.906  37.605  11.170
 2305W        W70710  39.553  35.401   1.868
 2306W        W70711  43.925  38.405  10.572
 2307W        W70712  44.848  10.319   4.507
 2308W        W70713   8.942   3.081  11.932
 2309W        W70714   3.712   9.804  12.310
 2310W        W70715  28.870   7.221  13.434
 2311W        W70716  34.887  12.160   1.828
 2312W        W70717   2.969  34.299   3.143
 2313W        W70718  31.847   1.474   1.493
 2314W        W70719  39.883  28.854  13.877
 2315W        W70720  41.839  16.996   0.476
 2316W        W70721  43.864  25.789   3.736
 2317W        W70722  42.981  23.440  14.297
 2318W        W70723   8.593   9.455  11.088
 2319W        W70724   1.455  40.947   1.921
 2320W        W70725   5.421  35.346   0.242
 2321W        W70726  15.882  12.358  12.078
 2322W        W70727  39.164  42.777  12.450
 2323W        W70728  10.889  34.150  14.386
 2324W        W70729  20.249  38.516   3.318
 2325W        W70730  23.098   7.799   1.814
 2326W        W70731  13.870  21.741  14.514
 2327W        W70732  26.108  11.698   4.161
 2328W        W70733  23.646  10.117   4.552
 2329W        W70734  33.882  10.490   2.858
 2330W        W70735  19.942  25.764   4.940
 2331W        W70736  42.310  21.967  10.703
 2332W        W70737   3.807  12.668  11.292
 2333W        W70738  38.613  34.793   0.306
 2334W        W70739   5.633  36.142   1.267
 2335W        W70740   3.251   7.940  12.651
 2336W        W70741  37.806  25.544  13.369
 2337W        W70742  20.492  41.020   0.750
 2338W        W70743  37.164   5.320   3.159
 2339W        W70744  12.523   6.172   4.605
 2340W        W70745  39.491  37.076  13.320
 2341W        W70746  16.909  24.249   9.966
 2342W        W70747  31.248  23.493  11.228
 2343W        W70748  15.313  26.800  14.808
 2344W        W70749  29.517   7.710   1.159
 2345W        W70750  18.928  26.279  13.007
 2346W        W70751  32.702  35.025   1.391
 2347W        W70752  18.559  31.164  11.530
 2348W        W70753  38.071  11.416   3.549
 2349W        W70754  18.199  17.384  12.101
 2350W        W70755  42.845  21.396   4.194
 2351W        W70756  40.355  26.398  12.872
 2352W        W70757  39.080   0.281   2.623
 2353W        W70758  37.992  27.730   4.618
 2354W        W70759  36.464  27.226   1.262
 2355W        W70760  13.754  22.676   3.429
 2356W        W70761  22.048  43.977   2.771
 2357W        W70762  30.791  21.727  14.340
 2358W        W70763  26.915  44.933  14.862
 2359W        W70764  23.224  31.517   2.190
 2360W        W70765  43.389  40.054  13.973
 2361W        W70766   1.688  13.342  12.582
 2362W        W70767  10.825   6.800  14.873
 2363W        W70768  28.685   3.807  10.624
 2364W        W70769  21.148  32.033   3.006
 2365W        W70770  35.894   2.893   2.320
 2366W        W70771  29.268  34.469  10.960
 2367W        W70772  11.674   4.258   4.226
 2368W        W70773  22.604   6.743  13.978
 2369W        W70774  12.944  28.164   1.672
 2370W        W70775   0.265  12.853   1.918
 2371W        W70776  29.441  18.692  11.604
 2372W        W70777  42.243  43.848  14.034
 2373W        W70778   0.488  33.763   0.559
 2374W        W70779  41.939   9.427   1.941
 2375W        W70780  41.029   0.283   2.216
 2376W        W70781  15.822  27.155  10.211
 2377W        W70782   6.077  23.621  10.588
 2378W        W70783  36.359  40.393   0.721
 2379W        W70784  41.667  43.922   1.922
 2380W        W70785   3.227  43.508  12.499
 2381W        W70786  14.739  15.055   2.682
 2382W        W70787  28.758  41.346  12.260
 2383W        W70788  12.505  10.292  12.864
 2384W        W70789  13.722  22.327   4.860
 2385W        W70790  31.928  38.489   0.268
 2386W        W70791  13.103  24.152   0.882
 2387W        W70792  43.047  35.705   1.743
 2388W        W70793   3.211  17.820   0.272
 2389W        W70794   1.287  10.904   1.310
 2390W        W70795  31.549  24.987   4.306
 2391W        W70796  43.549  31.896   0.822
 2392W        W70797  33.136  26.294   1.919
 2393W        W70798  35.216  43.525   3.683
 2394W        W70799   1.712  11.800   2.098
 2395W        W70800  14.564  42.772   0.870
 2396W        W70801  12.332  18.659   1.454
 2397W        W70802  11.559  13.623   3.274
 2398W        W70803  24.533  31.209   2.861
 2399W        W70804   4.292  22.535  12.076
 2400W        W70805  41.365  27.212   3.716
 2401W        W70806  40.812  30.914   1.694
 2402W        W70807  19.987   0.005   2.878
 2403W        W70808  30.428  29.627  14.255
 2404W        W70809  28.553  25.864  14.226
 2405W        W70810  27.671  35.404  14.158
 2406W        W70811  13.412  30.590  12.505
 2407W        W70812  20.756  18.473   1.698
 2408W        W70813  32.973  14.763   0.555
 2409W        W70814  34.457  39.387  11.008
 2410W        W70815  25.232  15.217  14.094
 2411W        W70816  44.159  27.879  10.125
 2412W        W70817  40.508  41.847   2.406
 2413W        W70818   1.344  26.227   2.400
 2414W        W70819  35.881  38.885   3.080
 2415W        W70820  11.627   7.102   1.396
 2416W        W70821  39.066  10.781   2.728
 2417W        W70822  33.561  43.775   0.511
 2418W        W70823  14.600  34.490  10.454
 2419W        W70824  29.617   1.565  11.104
 2420W        W70825  23.983  22.092   4.433
 2421W        W70826  37.958   0.655  10.675
 2422W        W70827   0.178  15.282  11.139
 2423W        W70828  19.612  30.639  12.713
 2424W        W70829  13.966  25.504   2.456
 2425W        W70830  25.557  42.782  14.897
 2426W        W70831   7.380  35.246  13.118
 2427W        W70832   9.350  34.785  12.938
 2428W        W70833  13.780  22.394   2.206
 2429W        W70834  10.822  42.215   4.340
 2430W        W70835   7.910   0.057   0.468
 2431W        W70836  15.748  34.011  12.727
 2432W        W70837   7.722  23.045   2.869
 2433W        W70838  31.077   2.130  12.724
 2434W        W70839  22.709  28.627  13.298
 2435W        W70840   9.406  44.409   4.361
 2436W        W70841   2.208  29.531  10.541
 2437W        W70842  34.950  30.164  13.937
 2438W        W70843  16.166   5.925  11.484
 2439W        W70844  35.403  10.089   1.300
 2440W        W70845  29.635  44.795  10.618
 2441W        W70846  44.011  23.218   1.735
 2442W        W70847   1.899  39.474   2.566
 2443W        W70848  25.059  14.234  12.517
 2444W        W70849  23.785  31.790  13.933
 2445W        W70850   4.679  44.085   1.747
 2446W        W70851  10.010  43.956  11.049
 2447W        W70852  37.096  11.558   2.151
 2448W        W70853  37.681  27.550  12.055
 2449W        W70854  15.534  21.467   2.326
 2450W        W70855  38.169  25.051   4.528
 2451W        W70856  12.830   0.023   1.868
 2452W        W70857  24.270  18.195   2.466
 2453W        W70858  38.274  42.967  14.033
 2454W        W70859  16.710  21.472  12.086
 2455W        W70860   9.316   9.667   0.167
 2456W        W70861   3.255  27.020   0.415
 2457W        W70862  11.441   8.869   3.284
 2458W        W70863  38.726  40.046  12.481
 2459W        W70864  40.069   8.896   1.189
 2460W        W70865  15.079  32.092   4.527
 2461W        W70866  33.299  20.591  11.141
 2462W        W70867  25.563  35.344   1.644
 2463W        W70868  19.448  37.416   2.963
 2464W        W70869  11.035   1.093  13.414
 2465W        W70870   5.440  30.920   2.722
 2466W        W70871  42.832  25.485   1.031
 2467W        W70872  26.382   7.188  11.229
 2468W        W70873  12.932  42.296  10.433
 2469W        W70874   2.726   9.346   1.455
 2470W        W70875  23.995  32.870  14.333
 2471W        W70876  39.052  21.614  14.889
 2472W        W70877   8.874  23.085  14.325
 2473W        W70878   0.280  40.617   3.856
 2474W        W70879  34.311  44.442  11.152
 2475W        W70880  34.574  10.367  13.595
 2476W        W70881  10.293  29.467  10.764
 2477W        W70882   4.894  31.112  14.449
 2478W        W70883  27.109  34.450   2.868
 2479W        W70884  17.219  18.942  14.835
 2480W        W70885  30.458  26.484  12.118
 2481W        W70886  28.659  26.033   3.990
 2482W        W70887  15.113  23.747   1.443
 2483W        W70888  10.897  22.985  14.463
 2484W        W70889  25.422  34.880   3.787
 2485W        W70890   4.878  40.289  11.620
 2486W        W70891  25.465  12.322   1.029
 2487W        W70892   9.236  43.868   1.699
 2488W        W70893   0.799   5.770   3.583
 2489W        W70894  26.052   6.211   0.125
 2490W        W70895  36.842  32.131  11.179
 2491W        W70896  10.774  39.838   3.645
 2492W        W70897   6.254   7.417   2.830
 2493W        W70898   5.726  17.951   4.550
 2494W        W70899  37.808   8.598   0.307
 2495W        W70900   0.521  24.037   2.142
 2496W        W70901  27.034  35.192   3.289
 2497W        W70902   8.935  22.643  11.781
 2498W        W70903  31.883  30.653  14.276
 2499W        W70904   4.252  18.833   1.441
 2500W        W70905  29.108  32.045  12.921
 2501W        W70906  32.744  30.893  11.201
 2502W        W70907  16.750  33.416  12.687
 2503W        W70908  27.233  43.238  11.646
 2504W        W70909  38.990   5.002   5.256
 2505W        W70910  38.294  35.299  12.851
 2506W        W70911  38.873  29.579   3.063
 2507W        W70912  10.285  24.481  12.957
 2508W        W70913  20.781   3.163   1.032
 2509W        W70914   9.994  39.516  13.847
 2510W        W70915   4.825  42.718   0.659
 2511W        W70916  34.409  40.540   4.698
 2512W        W70917  41.453  22.269   4.103
 2513W        W70918  22.349  43.346   3.912
 2514W        W70919  35.034   6.585  11.021
 2515W        W70920   8.159  29.454   1.916
 2516W        W70921  35.055  20.766  13.016
 2517W        W70922  39.334  24.716   2.124
 2518W        W70923  17.863   6.256   0.444
 2519W        W70924  22.735  18.987  12.445
 2520W        W70925  42.351   8.142  11.897
 2521W        W70926  20.078  19.691  13.581
 2522W        W70927  34.534  43.959  11.091
 2523W        W70928   2.717   6.329   2.790
 2524W        W70929  20.996  25.965  11.986
 2525W        W70930   4.855   1.237  11.997
 2526W        W70931  28.235  40.977  13.109
 2527W        W70932   3.648  32.992  13.990
 2528W        W70933  25.882  38.543   4.411
 2529W        W70934  20.702  33.168  11.091
 2530W        W70935  37.990  28.984   4.849
 2531W        W70936  16.243  34.881  13.080
 2532W        W70937   5.727  10.318  12.058
 2533W        W70938   3.342  18.864  12.655
 2534W        W70939  23.923  12.088   2.317
 2535W        W70940  44.568   7.769  13.785
 2536W        W70941  25.489  29.332  11.075
 2537W        W70942  32.039   9.902  13.529
 2538W        W70943   5.229  37.732   1.201
 2539W        W70944   5.606   2.839   2.491
 2540W        W70945  23.738   3.907   4.600
 2541W        W70946  29.637   1.960   3.214
 2542W        W70947  25.689  23.714  11.669
 2543W        W70948   4.997  22.059   0.849
 2544W        W70949   7.900  38.830   3.113
 2545W        W70950  37.815  32.186  14.278
 2546W        W70951  26.556   7.845  14.430
 2547W        W70952  10.607   7.914  12.966
 2548W        W70953  23.510  35.366  14.833
 2549W        W70954  35.434   1.165  10.823
 2550W        W70955  42.972  39.361  11.605
 2551W        W70956  27.697  19.614  13.004
 2552W        W70957   3.687  43.989  14.021
 2553W        W70958  41.431  20.013   1.974
 2554W        W70959  20.199  26.627   1.872
 2555W        W70960  29.210  37.605   3.621
 2556W        W70961   1.042  26.477  12.586
 2557W        W70962  39.961  39.034  14.928
 2558W        W70963   9.412  37.419   3.140
 2559W        W70964  35.574  23.026   2.805
 2560W        W70965  23.282  27.185  11.026
 2561W        W70966  27.469   2.891  10.621
 2562W        W70967  27.947  43.394  12.318
 2563W        W70968  28.335  17.547  11.211
 2564W        W70969   3.248  27.551   0.295
 2565W        W70970  22.249  40.839  11.267
 2566W        W70971  12.372  34.447  11.630
 2567W        W70972  35.760   6.017   5.003
 2568W        W70973   4.676  14.306  10.220
 2569W        W70974  44.435  25.208   0.624
 2570W        W70975  38.005  11.612  13.452
 2571W        W70976   3.289  44.853  12.851
 2572W        W70977  40.061  43.435   2.362
 2573W        W70978  26.755  40.878  12.952
 2574W        W70979  27.949  43.031  14.848
 2575W        W70980  36.686  15.577  11.589
 2576W        W70981  11.227  22.548   0.279
 2577W        W70982  24.611  29.381   0.878
 2578W        W70983  31.085  43.460  12.182
 2579W        W70984   1.804  17.172   0.809
 2580W        W70985  17.235  22.177  12.208
 2581W        W70986   3.931  21.702   2.396
 2582W        W70987  42.087  22.285  10.359
 2583W        W70988  33.041  41.742  14.137
 2584W        W70989  13.674  13.225   1.068
 2585W        W70990  34.980  17.721  12.939
 2586W        W70991  33.881  11.077  13.294
 2587W        W70992   6.440   0.050  13.395
 2588W        W70993  34.811  28.965   2.183
 2589W        W70994   3.284   3.751   0.867
 2590W        W70995  15.751  17.965   1.498
 2591W        W70996  18.248  33.507   3.209
 2592W        W70997  26.447  39.376  11.122
 2593W        W70998  42.533  43.842   1.336
 2594W        W70999   2.572  43.328  11.572
 2595W        W71000  30.151  10.372  12.448
 2596W        W71001  31.460   9.771  14.323
 2597W        W71002  15.350  40.516   4.930
 2598W        W71003  18.950   7.102  10.297
 2599W        W71004   8.734  25.202   4.652
 2600W        W71005  12.080   7.253  13.363
 2601W        W71006  40.854  41.263  12.073
 2602W        W71007  27.497  39.366  10.077
 2603W        W71008  34.344  10.237   3.617
 2604W        W71009  24.936  26.520   0.833
 2605W        W71010  37.440   6.549   2.789
 2606W        W71011  33.910  13.694  10.698
 2607W        W71012   7.533  29.137  12.559
 2608W        W71013  22.427  14.114   4.523
 2609W        W71014  35.007  24.769   2.642
 2610W        W71015  41.035   0.925  11.510
 2611W        W71016  31.568   8.510   2.785
 2612W        W71017   0.380  12.359   1.038
 2613W        W71018  36.839  16.188  13.493
 2614W        W71019  10.360  16.574  14.283
 2615W        W71020   0.282  12.328  12.047
 2616W        W71021  21.899  19.703   2.285
 2617W        W71022  35.726  37.498  10.704
 2618W        W71023  22.815  10.289   1.878
 2619W        W71024   9.287   1.351   2.329
 2620W        W71025  41.390  27.026   1.885
 2621W        W71026  36.417  33.784   4.151
 2622W        W71027   2.851  29.748  11.701
 2623W        W71028   0.753  22.745   0.805
 2624W        W71029  42.778  23.242  13.648
 2625W        W71030  21.275   3.201  14.353
 2626W        W71031   5.488   7.923   0.395
 2627W        W71032  12.981  10.419  10.581
 2628W        W71033  33.582   6.339  11.026
 2629W        W71034  22.734  44.708  11.470
 2630W        W71035  27.584   0.769  13.959
 2631W        W71036  43.037  27.468   1.279
 2632W        W71037  31.558   7.237   1.171
 2633W        W71038  39.652  32.109  14.371
 2634W        W71039   6.210  43.445   3.418
 2635W        W71040  29.571  36.884  11.974
 2636W        W71041   3.953  39.774  13.952
 2637W        W71042   3.400  26.746   4.583
 2638W        W71043  20.744   5.980  10.389
 2639W        W71044  10.111  40.629  11.986
 2640W        W71045  32.968  22.280  11.729
 2641W        W71046  17.102  30.959   3.054
 2642W        W71047  25.881  34.164  11.717
 2643W        W71048  21.061  17.659  14.780
 2644W        W71049  30.129  23.656   0.090
 2645W        W71050   2.950   5.875   1.946
 2646W        W71051   5.584  11.155  14.322
 2647W        W71052  34.869  41.345  13.901
 2648W        W71053  40.274  17.703   2.858
 2649W        W71054  40.561   4.742   4.040
 2650W        W71055  42.850   1.056   4.047
 2651W        W71056  34.398  43.311  12.816
 2652W        W71057  18.557  32.380  14.026
 2653W        W71058  21.448   4.813   2.675
 2654W        W71059  38.989  21.614   4.656
 2655W        W71060   2.569   8.419   4.138
 2656W        W71061  21.616  23.353   4.495
 2657W        W71062  16.340  10.544  14.999
 2658W        W71063   3.493   0.727   4.109
 2659W        W71064  30.622  16.176  14.675
 2660W        W71065  13.847  32.133  10.245
 2661W        W71066  41.042   3.997  14.979
 2662W        W71067  30.322  28.688   0.721
 2663W        W71068  38.355  33.445  13.400
 2664W        W71069  43.777  41.765   1.941
 2665W        W71070  39.293  10.205   3.896
 2666W        W71071  25.994  30.308  10.741
 2667W        W71072  23.573  13.195   1.751
 2668W        W71073  22.792  28.055   0.149
 2669W        W71074   8.896  39.872   3.861
 2670W        W71075  26.124  20.180   1.661
 2671W        W71076  10.408  27.703   1.461
 2672W        W71077  27.951  11.374   0.240
 2673W        W71078  11.613   2.397  13.253
 2674W        W71079   2.018   7.945  10.649
 2675W        W71080  17.536  20.330  14.927
 2676W        W71081  20.979  44.536  12.499
 2677W        W71082  22.664  19.788  13.463
 2678W        W71083  16.813  19.093  10.664
 2679W        W71084  17.975  21.053  11.595
 2680W        W71085  36.661  23.106  14.643
 2681W        W71086   2.137   1.450   3.531
 2682W        W71087  20.763  20.109  13.376
 2683W        W71088  23.450  28.029  13.769
 2684W        W71089  29.037  43.347  11.663
 2685W        W71090  18.053  13.768   0.515
 2686W        W71091  25.343   5.962  13.468
 2687W        W71092   1.713  33.335  14.880
 2688W        W71093  29.131  25.068   2.274
 2689W        W71094  20.191  42.729   0.734
 2690W        W71095   2.442  39.159   3.808
 2691W        W71096  21.694  12.563  13.497
 2692W        W71097  20.484  13.226  10.392
 2693W        W71098  19.620   7.458  13.850
 2694W        W71099   6.884  40.877  12.234
 2695W        W71100  28.071  26.148  10.550
 2696W        W71101   8.204  26.983  12.149
 2697W        W71102  24.945  14.286   0.517
 2698W        W71103  32.114  35.454   1.842
 2699W        W71104  17.587   7.693   2.218
 2700W        W71105  10.237   0.779   0.962
 2701W        W71106  39.300  16.081  11.960
 2702W        W71107  27.635  26.090   1.301
 2703W        W71108  40.757  31.366   1.931
 2704W        W71109  20.321   6.720   3.055
 2705W        W71110   0.797   2.554  12.528
 2706W        W71111   4.451  10.394   4.359
 2707W        W71112  36.192  23.419   1.261
 2708W        W71113  17.028  10.774  13.837
 2709W        W71114  14.008   4.727   3.125
 2710W        W71115  10.105  37.576   0.307
 2711W        W71116   6.160  18.809   4.510
 2712W        W71117  23.620  25.023   0.228
 2713W        W71118  38.818  27.485  10.738
 2714W        W71119  44.411   0.361   2.582
 2715W        W71120   2.899  21.589   0.849
 2716W        W71121  14.628  32.252  13.621
 2717W        W71122  44.222  29.729   0.694
 2718W        W71123  10.793  36.763   2.876
 2719W        W71124   0.413  24.952   2.211
 2720W        W71125  19.601  27.730   1.017
 2721W        W71126  11.700  12.589   2.105
 2722W        W71127  44.459  24.730  11.557
 2723W        W71128  23.584  10.919  14.092
 2724W        W71129  13.592  19.011   2.638
 2725W        W71130  23.704  30.165   1.707
 2726W        W71131  43.123  10.617  14.722
 2727W        W71132   2.716  38.307  14.378
 2728W        W71133  15.880  22.683   2.593
 2729W        W71134  20.473  21.564   0.947
 2730W        W71135  30.905  20.157   1.349
 2731W        W71136  28.894  12.009  12.550
 2732W        W71137  31.574   6.793   2.460
 2733W        W71138   1.355  37.860   2.561
 2734W        W71139  38.907   3.658  10.288
 2735W        W71140  31.499  25.428   1.912
 2736W        W71141  40.017   9.388   2.475
 2737W        W71142   3.805  13.938   0.492
 2738W        W71143  31.236  36.850   1.753
 2739W        W71144  16.764  28.199   0.339
 2740W        W71145  14.015  37.001  14.049
 2741W        W71146  10.590  29.005   2.187
 2742W        W71147  11.092   5.247  10.708
 2743W        W71148  37.486  40.048   3.200
 2744W        W71149  40.024  31.510   4.667
 2745W        W71150   9.969  29.880   1.202
 2746W        W71151  25.150  41.030   2.226
 2747W        W71152  26.247   8.390   4.207
 2748W        W71153  38.348  13.337   2.791
 2749W        W71154   3.896   6.641   3.670
 2750W        W71155  25.499  31.721  14.401
 2751W        W71156  27.500   3.957   2.751
 2752W        W71157  14.565  20.801  10.362
 2753W        W71158   3.268  31.018  13.732
 2754W        W71159  26.876   6.882   2.848
 2755W        W71160  14.282  28.156   2.352
 2756W        W71161  39.093  17.838   2.222
 2757W        W71162  29.493  21.589  12.955
 2758W        W71163   8.722   8.941  10.981
 2759W        W71164  20.213  33.436  14.467
 2760W        W71165  44.922  27.063  13.040
 2761W        W71166  15.596  28.067   3.166
 2762W        W71167  32.108   4.445   3.725
 2763W        W71168  21.106  18.775  12.742
 2764W        W71169  44.535  24.430  11.149
 2765W        W71170  44.804   4.183  14.935
 2766W        W71171  36.336  20.696   2.330
 2767W        W71172  11.855   8.074  12.411
 2768W        W71173  37.053  18.686   0.126
 2769W        W71174  30.910  38.959   2.271
 2770W        W71175  40.001  35.940   4.203
 2771W        W71176  13.329   3.931  13.518
 2772W        W71177  33.057  37.031  12.537
 2773W        W71178  18.285   6.900  14.698
 2774W        W71179  12.434  18.115  10.681
 2775W        W71180  37.530   0.789  13.194
 2776W        W71181  35.642  18.276  10.881
 2777W        W71182  26.693  29.462   2.702
 2778W        W71183  24.215  41.514   3.643
 2779W        W71184   9.482  26.159  10.512
 2780W        W71185  33.421  28.188   1.435
 2781W        W71186  37.391  21.462  12.370
 2782W        W71187   8.464  19.148  13.560
 2783W        W71188  15.413  27.643   1.020
 2784W        W71189  33.083  10.135   0.391
 2785W        W71190   3.639  33.161  11.522
 2786W        W71191  20.613  15.212   1.691
 2787W        W71192  12.645  35.008  13.743
 2788W        W71193   9.627  37.613  12.414
 2789W        W71194  32.054   8.708   4.040
 2790W        W71195  26.894  28.671  11.038
 2791W        W71196   8.162   9.152  11.123
 2792W        W71197  43.943   9.147   1.762
 2793W        W71198  20.320   3.245  13.919
 2794W        W71199  29.115   9.783  13.798
 2795W        W71200  18.131   3.513  10.916
 2796W        W71201  21.520  13.081   0.826
 2797W        W71202   6.383  27.016  13.827
 2798W        W71203  36.468  20.591  12.784
 2799W        W71204  19.244  33.445  14.921
 2800W        W71205  13.526  34.373  14.422
 2801W        W71206  19.745  33.100  10.718
 2802W        W71207  32.945  23.781   2.475
 2803W        W71208  42.930  42.804   0.335
 2804W        W71209  35.082  13.647  11.223
 2805W        W71210   3.998   0.895  13.299
 2806W        W71211  19.761  41.755   0.494
 2807W        W71212   1.621  20.994  12.636
 2808W        W71213   0.389  14.617  11.636
 2809W        W71214  36.430  39.881   0.812
 2810W        W71215   7.127  13.997  14.049
 2811W        W71216   5.843  28.452  11.452
 2812W        W71217   3.647   1.154   1.152
 2813W        W71218  23.657  40.278   0.388
 2814W        W71219   5.684   6.499  10.497
 2815W        W71220   1.023  15.566   3.730
 2816W        W71221   9.673  44.424  11.044
 2817W        W71222  35.235   1.751   0.040
 2818W        W71223   9.711  35.654   0.392
 2819W        W71224  11.911  21.284   4.514
 2820W        W71225  17.690  35.309   4.160
 2821W        W71226  33.949   9.416   4.049
 2822W        W71227   7.146  10.449  13.838
 2823W        W71228  39.802  27.071  14.823
 2824W        W71229   5.092  37.125  14.237
 2825W        W71230  26.477   8.747   5.083
 2826W        W71231  36.008  21.033  11.856
 2827W        W71232  37.961  34.102  14.574
 2828W        W71233  14.647  31.157  14.377
 2829W        W71234   3.647  34.095   1.411
 2830W        W71235  16.583   0.973  14.419
 2831W        W71236   5.822  36.036  14.573
 2832W        W71237  13.038  11.290   2.686
 2833W        W71238  27.118  43.444   2.405
 2834W        W71239   2.194   9.537  11.184
 2835W        W71240  39.817  27.433  10.521
 2836W        W71241  12.556  14.848   1.684
 2837W        W71242  13.593  18.787  14.544
 2838W        W71243   0.520  42.787   3.150
 2839W        W71244  26.621  27.607  12.490
 2840W        W71245   3.232  11.730   4.141
 2841W        W71246  41.929  32.275   4.563
 2842W        W71247  16.146  42.050   4.094
 2843W        W71248  21.387  12.393   0.566
 2844W        W71249  21.864  42.792  11.655
 2845W        W71250  22.194   5.419   1.790
 2846W        W71251  16.075  35.979  12.425
 2847W        W71252  23.944  14.218  13.850
 2848W        W71253   4.959  12.229   2.195
 2849W        W71254  31.556   4.231  13.466
 2850W        W71255  17.728   0.536   2.281
 2851W        W71256  22.600  19.927  12.455
 2852W        W71257  35.576   4.559  14.432
 2853W        W71258  39.075  15.146   2.894
 2854W        W71259  40.947  34.412  11.968
 2855W        W71260   9.391   1.290  14.524
 2856W        W71261  29.417  24.240  13.258
 2857W        W71262  43.335  15.308  14.476
 2858W        W71263  23.089  19.894   4.475
 2859W        W71264  35.867  19.687   5.089
 2860W        W71265  23.862  44.797   0.457
 2861W        W71266  31.058  10.351   0.486
 2862W        W71267  15.807  26.960   2.663
 2863W        W71268  38.352  24.579   1.359
 2864W        W71269  30.468  19.833   0.510
 2865W        W71270  12.538  32.464  10.062
 2866W        W71271  39.369  22.765   4.133
 2867W        W71272  32.543  24.763   4.393
 2868W        W71273  31.590  21.435  10.730
 2869W        W71274   6.384   0.277   3.690
 2870W        W71275   7.832  13.401   0.467
 2871W        W71276   9.234  28.742   2.698
 2872W        W71277  15.243   3.464   5.104
 2873W        W71278   1.633  14.234   1.258
 2874W        W71279  41.279  41.550   4.236
 2875W        W71280  39.573   7.603  13.305
 2876W        W71281  18.650  13.677  12.708
 2877W        W71282  10.090  19.495  14.834
 2878W        W71283  36.361  18.524   2.447
 2879W        W71284  34.882   6.520   3.118
 2880W        W71285   6.865  25.202  12.139
 2881W        W71286  41.710  19.739  11.150
 2882W        W71287  36.902  25.543  13.813
 2883W        W71288  34.475  40.040   3.412
 2884W        W71289   0.350   3.434   1.403
 2885W        W71290  17.340  25.715   2.845
 2886W        W71291  18.092  10.757   1.598
 2887W        W71292  28.561  16.753   2.302
 2888W        W71293  31.108  20.628   2.740
 2889W        W71294  26.886   4.462   0.374
 2890W        W71295  43.934  21.999   0.259
 2891W        W71296  25.080  35.879  12.777
 2892W        W71297  28.143  22.168   4.500
 2893W        W71298  44.227  40.968   1.271
 2894W        W71299   0.535   4.748  11.096
 2895W        W71300   7.260  43.272   4.604
 2896W        W71301   6.597  44.020  11.070
 2897W        W71302   2.471  30.719   1.352
 2898W        W71303  41.832  24.026  13.459
 2899W        W71304  37.002  18.152  12.893
 2900W        W71305  21.988  22.148  12.599
 2901W        W71306  25.559  20.413   3.237
 2902W        W71307   8.878  35.873  13.448
 2903W        W71308  13.154  39.057   1.199
 2904W        W71309  18.377   2.563  11.136
 2905W        W71310  16.252  30.562   0.899
 2906W        W71311   5.257  12.573  14.482
 2907W        W71312  20.411  22.611   0.848
 2908W        W71313  40.838   6.962   2.210
 2909W        W71314  43.803  27.451  11.366
 2910W        W71315  23.609   3.221  13.377
 2911W        W71316  31.049  37.556   1.331
 2912W        W71317  42.507  11.573  12.452
 2913W        W71318  43.213  26.034   2.142
 2914W        W71319  15.877  37.250   3.705
 2915W        W71320   2.900   4.633   3.146
 2916W        W71321  36.974   1.965   0.311
 2917W        W71322  11.902  34.668  11.641
 2918W        W71323  12.402  22.105  11.730
 2919W        W71324  14.746  37.160   4.557
 2920W        W71325  17.307  10.713  11.794
 2921W        W71326  11.562  40.858  12.104
 2922W        W71327   9.434  16.146   1.774
 2923W        W71328   9.433  15.369   0.803
 2924W        W71329  42.936  13.804  10.641
 2925W        W71330  33.857   6.417   4.560
 2926W        W71331  31.373  13.292   4.000
 2927W        W71332   1.015  23.640  12.067
 2928W        W71333  42.451   0.981  12.642
 2929W        W71334  27.277  15.496  14.933
 2930W        W71335  18.956  15.156   2.279
 2931W        W71336  25.772   0.991  14.721
 2932W        W71337  21.068  16.634   3.285
 2933W        W71338  19.479  29.149  10.738
 2934W        W71339   6.533  30.905   1.300
 2935W        W71340  29.199  13.273   4.245
 2936W        W71341  44.135  26.268  14.439
 2937W        W71342  16.819  44.480  10.310
 2938W        W71343  41.043  44.317   2.407
 2939W        W71344  35.080  37.007   2.944
 2940W        W71345  39.072  37.401   0.835
 2941W        W71346  43.408  41.359   0.276
 2942W        W71347  36.591   5.297  13.470
 2943W        W71348  15.580  20.032   4.215
 2944W        W71349  23.289  30.959  14.861
 2945W        W71350  37.446  13.336   1.559
 2946W        W71351  43.100  35.189   1.810
 2947W        W71352   2.215  41.606  10.512
 2948W        W71353  18.300  33.419  13.886
 2949W        W71354   9.896  17.889  10.773
 2950W        W71355  43.907  37.531   4.040
 2951W        W71356  17.389  23.535  12.374
 2952W        W71357   9.042  40.369  10.432
 2953W        W71358  43.834  41.913   3.831
 2954W        W71359  31.037  32.034  13.149
 2955W        W71360  16.015  36.163  14.490
 2956W        W71361  19.314  38.422  10.680
 2957W        W71362  23.056  26.710  11.095
 2958W        W71363   6.341   4.582   0.349
 2959W        W71364  25.788   9.455  11.574
 2960W        W71365  32.962  18.639  10.972
 2961W        W71366  17.578   5.552   5.210
 2962W        W71367  25.927   7.139   3.704
 2963W        W71368  37.382   6.494   3.721
 2964W        W71369  32.040  32.390   0.735
 2965W        W71370  37.405  17.717  13.968
 2966W        W71371  16.320   9.461  10.697
 2967W        W71372  34.132  15.280  12.530
 2968W        W71373  39.074  35.177   1.937
 2969W        W71374   5.418  42.038   2.640
 2970W        W71375  34.970  40.534  14.295
 2971W        W71376  33.388  36.006   2.076
 2972W        W71377  32.620   7.153  13.950
 2973W        W71378  36.327  13.406   0.327
 2974W        W71379  33.812  18.342  13.483
 2975W        W71380  43.760  18.360   2.005
 2976W        W71381  24.730  30.695   2.881
 2977W        W71382  17.325   8.282  11.629
 2978W        W71383  19.039  15.369   3.969
 2979W        W71384   7.751  30.574  12.480
 2980W        W71385  34.393  25.522   4.130
 2981W        W71386  39.234  27.558  12.220
 2982W        W71387   2.237  23.153  10.709
 2983W        W71388   9.908  37.821  14.487
 2984W        W71389   4.237  10.450  14.503
 2985W        W71390  33.487  42.069   9.986
 2986W        W71391  10.138  17.083   1.006
 2987W        W71392  29.918   6.828   2.641
 2988W        W71393  29.783  14.292  11.546
 2989W        W71394   6.317  33.863  13.891
 2990W        W71395  43.545   1.408   4.366
 2991W        W71396  26.889   6.635  13.979
 2992W        W71397  42.915  19.582  11.663
 2993W        W71398  27.609  10.169   2.212
 2994W        W71399   3.292  20.582  13.977
 2995W        W71400  16.512  22.250   4.547
 2996W        W71401  13.887  43.013   1.894
 2997W        W71402  28.664  15.036  14.886
 2998W        W71403  38.520  15.919  11.726
 2999W        W71404  16.132  44.652   1.853
 3000W        W71405  39.577  24.191  14.475
 3001W        W71406  30.452  33.614  13.733
 3002W        W71407  17.791  23.713   1.120
 3003W        W71408  38.496  35.547  14.415
 3004W        W71409   4.790  36.066  11.511
 3005W        W71410  24.816  12.821   0.321
 3006W        W71411  27.143  39.066  13.109
 3007W        W71412  20.650  15.148   4.300
 3008W        W71413   4.659  18.710   4.707
 3009W        W71414   7.024  17.274  13.862
 3010W        W71415   4.563   0.393  13.179
 3011W        W71416  43.490   5.140   0.452
 3012W        W71417  20.262  21.131   1.242
 3013W        W71418  31.155  40.453   1.344
 3014W        W71419  31.803  14.354  11.573
 3015W        W71420  35.123  13.265  13.378
 3016W        W71421  40.076  14.517  13.452
 3017W        W71422   0.029  40.857   1.849
 3018W        W71423  20.724  24.580  10.172
 3019W        W71424  24.659  44.310  13.829
 3020W        W71425  21.023  26.755   1.823
 3021W        W71426  39.426  36.047   3.358
 3022W        W71427  28.718  30.796  11.024
 3023W        W71428   4.675  15.783  13.998
 3024W        W71429  15.175  10.790   1.984
 3025W        W71430  43.500  20.917   0.431
 3026W        W71431  29.347  21.821   4.574
 3027W        W71432  31.388  11.620  11.922
 3028W        W71433  30.073  25.289  14.710
 3029W        W71434  36.373  28.204   1.449
 3030W        W71435   4.674  35.538   3.243
 3031W        W71436   6.675  11.884  14.933
 3032W        W71437  17.782  36.875  14.378
 3033W        W71438  44.835  20.579   3.620
 3034W        W71439  28.240  33.121   3.566
 3035W        W71440  27.533  12.699   3.981
 3036W        W71441   8.245  42.484  14.810
 3037W        W71442  28.090   0.963  13.590
 3038W        W71443  23.654  22.477  12.482
 3039W        W71444  18.052  28.131   4.038
 3040W        W71445  30.424   3.590   0.857
 3041W        W71446  36.450  18.909  12.912
 3042W        W71447  19.486  28.450   4.858
 3043W        W71448  32.411  11.048  11.871
 3044W        W71449   7.608  17.277   0.099
 3045W        W71450  34.458  12.773   3.611
 3046W        W71451  32.637  20.086  11.063
 3047W        W71452  44.784  24.534  12.694
 3048W        W71453  43.907  13.353   3.737
 3049W        W71454   6.364  40.404  10.696
 3050W        W71455  11.214  42.447   0.976
 3051W        W71456  32.027  18.284   2.204
 3052W        W71457  13.904   4.514   9.816
 3053W        W71458  19.888  32.927   2.205
 3054W        W71459  15.287  24.269  13.972
 3055W        W71460  34.929  32.153  11.933
 3056W        W71461   7.424  37.474  14.955
 3057W        W71462  19.107  33.127   0.453
 3058W        W71463  42.461  25.751   0.242
 3059W        W71464  25.656  10.184   4.107
 3060W        W71465  38.609  24.805   1.757
 3061W        W71466  16.147   7.438   3.215
 3062W        W71467  10.881  35.069  12.386
 3063W        W71468  12.808   9.671  14.544
 3064W        W71469  34.003  41.729  12.919
 3065W        W71470  20.957   2.775   4.167
 3066W        W71471  42.847  40.760   2.146
 3067W        W71472  11.256   7.115  12.801
 3068W        W71473   5.301  41.021   4.537
 3069W        W71474  16.028  18.485  10.545
 3070W        W71475   4.179  44.912   2.846
 3071W        W71476   9.635  44.964  14.713
 3072W        W71477   7.278  14.692   0.288
 3073W        W71478  21.506  27.668  10.589
 3074W        W71479  42.904   2.783  14.892
 3075W        W71480  27.456   4.387  12.868
 3076W        W71481  29.516   3.054   0.838
 3077W        W71482  20.132  14.841   0.373
 3078W        W71483  17.601  18.722   4.688
 3079W        W71484  36.952  41.773   4.211
 3080W        W71485  36.916  11.590   3.867
 3081W        W71486  10.125  43.351  14.559
 3082W        W71487  30.019  40.518   0.150
 3083W        W71488  38.797  23.515   2.876
 3084W        W71489  17.757  17.049  12.017
 3085W        W71490   7.913   2.328   1.902
 3086W        W71491  36.445   8.260   3.260
 3087W        W71492  24.040  11.327  13.360
 3088W        W71493  38.245  31.166   2.488
 3089W        W71494  26.074  36.114  11.888
 3090W        W71495  30.152  27.667  13.301
 3091W        W71496  41.827   3.164  13.802
 3092W        W71497  11.930  39.718  14.449
 3093W        W71498  26.638  26.574  12.583
 3094W        W71499   6.211  16.469   3.969
 3095W        W71500  43.431  39.924   4.311
 3096W        W71501  21.203  31.158   0.319
 3097W        W71502  19.704  30.984   3.146
 3098W        W71503  13.631  18.114  11.421
 3099W        W71504  16.854  31.723  14.334
 3100W        W71505  16.230  17.484   0.753
 3101W        W71506  25.727  11.376  10.903
 3102W        W71507  16.055  10.240   1.853
 3103W        W71508  16.146  23.670  13.960
 3104W        W71509   2.996   3.901  12.501
 3105W        W71510   3.249  26.187  10.342
 3106W        W71511  20.538  37.136  13.860
 3107W        W71512  34.045  37.709  12.112
 3108W        W71513  21.222  23.971   3.218
 3109W        W71514   6.971  20.634   0.448
 3110W        W71515  37.473  15.374  12.611
 3111W        W71516  33.455  36.890   3.966
 3112W        W71517  16.690  22.112  14.932
 3113W        W71518  30.171  35.987  12.374
 3114W        W71519   3.075  31.013  11.887
 3115W        W71520  25.206  32.612   3.336
 3116W        W71521  20.966  44.983  11.019
 3117W        W71522  39.116  32.123  13.477
 3118W        W71523  30.510  32.364   0.434
 3119W        W71524  27.051  18.746   1.727
 3120W        W71525   5.607  26.061   3.200
 3121W        W71526   9.287  15.336  12.901
 3122W        W71527  14.315  40.806  10.782
 3123W        W71528   9.391  31.601   0.302
 3124W        W71529   4.444  37.893   2.290
 3125W        W71530  23.979   9.699   4.558
 3126W        W71531  33.818  30.842  14.811
 3127W        W71532   6.382  10.117   0.411
 3128W        W71533  28.021  38.535  14.812
 3129W        W71534  31.179   4.809  10.987
 3130W        W71535  23.948  24.720  12.550
 3131W        W71536  21.270  21.044  11.361
 3132W        W71537  37.581   0.803   3.697
 3133W        W71538  21.184  33.397  12.586
 3134W        W71539  39.696  19.184  13.365
 3135W        W71540  13.218  44.753  10.379
 3136W        W71541   0.986  17.128   3.692
 3137W        W71542  26.475   4.853  13.568
 3138W        W71543   8.996  10.206  11.584
 3139W        W71544  15.321  30.496  14.460
 3140W        W71545  23.068  18.587  14.839
 3141W        W71546   3.620   8.131   2.846
 3142W        W71547  36.838   4.695  10.284
 3143W        W71548  11.219  25.180   1.406
 3144W        W71549  26.928  43.567   2.863
 3145W        W71550  11.290  17.638   0.945
 3146W        W71551  36.204   3.774   5.510
 3147W        W71552   5.898  24.033  12.052
 3148W        W71553  41.661  19.057  10.739
 3149W        W71554  35.404  23.044  10.772
 3150W        W71555  10.836  16.135   3.445
 3151W        W71556  19.626  29.561   0.956
 3152W        W71557  32.402  41.338  13.902
 3153W        W71558  38.982   1.462  12.489
 3154W        W71559  26.106   8.603  13.466
 3155W        W71560   3.953  25.243   1.860
 3156W        W71561  16.301  26.588   3.640
 3157W        W71562   7.453  34.445  11.552
 3158W        W71563  17.839  32.450   4.663
 3159W        W71564  13.806  34.885   3.579
 3160W        W71565   3.668  31.603   2.689
 3161W        W71566  27.723  43.740   4.014
 3162W        W71567  11.204  39.316  11.210
 3163W        W71568  41.787  36.524  12.570
 3164W        W71569  17.290  21.599   2.872
 3165W        W71570  20.648  17.600   1.619
 3166W        W71571   3.713   2.217   3.822
 3167W        W71572  39.306  42.010   4.090
 3168W        W71573   7.339  29.197  14.374
 3169W        W71574  25.152  39.387   1.855
 3170W        W71575  17.917  11.334  10.391
 3171W        W71576  10.007  15.430   4.879
 3172W        W71577  27.224  27.569  11.596
 3173W        W71578  36.885  35.024  14.753
 3174W        W71579  20.770   8.880  13.799
 3175W        W71580  11.390  33.426  10.491
 3176W        W71581  43.801   7.384  12.329
 3177W        W71582  32.985  28.642  11.535
 3178W        W71583  37.420  18.023  10.262
 3179W        W71584  17.667  19.023  13.588
 3180W        W71585  38.535   3.725  13.797
 3181W        W71586  11.232  27.026  11.862
 3182W        W71587   7.603  33.854  14.996
 3183W        W71588  43.712   8.642  10.936
 3184W        W71589  39.958  11.375   4.643
 3185W        W71590  14.745   2.510   0.197
 3186W        W71591  35.597  20.297  11.804
 3187W        W71592  33.638  41.868   0.789
 3188W        W71593  35.858  30.941  12.461
 3189W        W71594   2.331  42.078  13.030
 3190W        W71595  33.478   6.319   0.973
 3191W        W71596  44.740   7.979   0.898
 3192W        W71597   9.216  41.210   2.105
 3193W        W71598  17.483   7.900   3.596
 3194W        W71599  20.327  36.658  11.125
 3195W        W71600  29.204  30.934   3.547
 3196W        W71601  14.774  16.144  11.684
 3197W        W71602  42.898  33.636   3.494
 3198W        W71603  17.704  38.795   2.227
 3199W        W71604  21.126  40.405  11.647
 3200W        W71605  11.167  12.470  11.056
 3201W        W71606  28.483  30.650   2.314
 3202W        W71607  26.058  40.854  12.525
 3203W        W71608  24.448  35.919   3.318
 3204W        W71609  25.467   8.468  14.002
 3205W        W71610   6.786   0.339  11.574
 3206W        W71611  11.407  30.196   1.315
 3207W        W71612  19.126  38.835  11.167
 3208W        W71613   3.569  11.334  11.749
 3209W        W71614  16.545  18.197  14.563
 3210W        W71615   0.009  10.663   1.677
 3211W        W71616  17.825  23.098  11.186
 3212W        W71617  21.232  14.977  11.301
 3213W        W71618  11.413  26.627  11.567
 3214W        W71619   6.065  39.823   1.781
 3215W        W71620  12.679  41.143   4.208
 3216W        W71621  11.590   9.227   0.667
 3217W        W71622  38.488   4.358  13.088
 3218W        W71623  22.717  33.498   1.388
 3219W        W71624   8.680  28.853   2.123
 3220W        W71625  31.033  24.253  11.864
 3221W        W71626  13.317  32.447  10.660
 3222W        W71627  34.975  10.408  12.927
 3223W        W71628  32.831  37.670  14.245
 3224W        W71629   3.898  43.505  13.974
 3225W        W71630  35.819  13.614  10.776
 3226W        W71631  10.660  30.572  11.578
 3227W        W71632  26.886  23.030  14.473
 3228W        W71633  12.497   4.395   1.753
 3229W        W71634  19.964  14.683  11.166
 3230W        W71635  25.112  17.647   5.005
 3231W        W71636   7.603  41.433   0.756
 3232W        W71637  18.684   3.966   2.812
 3233W        W71638   8.872   0.335   3.750
 3234W        W71639  44.231   0.435  10.493
 3235W        W71640   4.349   9.847  14.846
 3236W        W71641   6.734  32.078   4.955
 3237W        W71642   7.411  21.467  12.513
 3238W        W71643  38.470  41.222   3.939
 3239W        W71644  33.708  40.874   0.071
 3240W        W71645  19.780   6.350  14.341
 3241W        W71646  14.855  10.577  11.159
 3242W        W71647  14.579  33.059  11.817
 3243W        W71648  11.981  27.173  10.046
 3244W        W71649   8.329  17.584  14.080
 3245W        W71650  19.738   2.867  12.137
 3246W        W71651  25.479  26.713   1.728
 3247W        W71652   7.758  26.922  10.957
 3248W        W71653  25.737  11.934  10.239
 3249W        W71654  19.722  21.823  13.821
 3250W        W71655  27.783   9.437   3.225
 3251W        W71656  21.247  26.182   2.657
 3252W        W71657  41.601  33.179   2.462
 3253W        W71658   2.625  32.852  14.899
 3254W        W71659   9.885   5.845  10.620
 3255W        W71660  39.090  28.410   2.315
 3256W        W71661  34.117  16.387   4.137
 3257W        W71662  43.121  32.373   1.813
 3258W        W71663  34.615   4.180  12.984
 3259W        W71664  24.564  36.546  14.930
 3260W        W71665  44.915   8.318  11.200
 3261W        W71666  36.945   4.962  13.286
 3262W        W71667  28.977  15.806   0.443
 3263W        W71668  17.480  32.095   2.267
 3264W        W71669  16.723  28.395  14.260
 3265W        W71670  31.363  23.825   0.160
 3266W        W71671   6.186   7.980  14.969
 3267W        W71672  43.853  16.193   0.412
 3268W        W71673  34.372  10.733   3.822
 3269W        W71674  25.448   8.725   4.855
 3270W        W71675  10.125  18.352  14.434
 3271W        W71676  37.406  21.600   3.615
 3272W        W71677  39.350  16.102  14.374
 3273W        W71678  44.773  42.991  12.898
 3274W        W71679  11.700   7.700  10.935
 3275W        W71680  10.315  24.324  11.112
 3276W        W71681   5.408  20.086  12.656
 3277W        W71682  19.111  11.838  13.970
 3278W        W71683  31.578   5.129  13.361
 3279W        W71684   2.722  24.157   2.668
 3280W        W71685  27.175  23.908   1.687
 3281W        W71686  21.960   9.436  12.456
 3282W        W71687  24.742  36.022   4.688
 3283W        W71688  26.702   1.465   3.331
 3284W        W71689  15.132  14.703   2.667
 3285W        W71690  33.174  10.737   1.531
 3286W        W71691  33.906  37.813  13.029
 3287W        W71692  13.275  18.002   2.310
 3288W        W71693  33.536  39.649   0.391
 3289W        W71694  36.462  38.486  11.096
 3290W        W71695  35.838  26.108   1.646
 3291W        W71696  43.235  16.594   4.106
 3292W        W71697  31.132  25.528   3.043
 3293W        W71698  42.289   4.947  14.525
 3294W        W71699   1.766  37.084   2.697
 3295W        W71700  24.696  24.527   3.123
 3296W        W71701  26.596  34.344   1.892
 3297W        W71702  14.085   1.637  11.832
 3298W        W71703  14.328  11.385  11.122
 3299W        W71704  18.178  24.633   2.840
 3300W        W71705  12.437  41.469   2.214
 3301W        W71706  12.155  27.811   1.622
 3302W        W71707  31.838  20.805  10.158
 3303W        W71708  17.725  25.199  14.291
 3304W        W71709  20.004  13.820  10.790
 3305W        W71710  32.218   0.361   2.678
 3306W        W71711   7.869  26.024   0.884
 3307W        W71712  38.122  42.029   3.732
 3308W        W71713  24.007   5.858  12.085
 3309W        W71714   2.825   0.426  10.987
 3310W        W71715  42.845  36.815   0.811
 3311W        W71716   0.170  25.259  13.509
 3312W        W71717   1.344  34.827  13.548
 3313W        W71718  30.218   8.931   4.357
 3314W        W71719   5.971  38.338   4.550
 3315W        W71720  38.328  20.046   3.620
 3316W        W71721   0.580  25.240  11.217
 3317W        W71722  44.999  12.323   0.687
 3318W        W71723  26.435   7.116  13.533
 3319W        W71724  23.699  35.294   2.664
 3320W        W71725   2.876  30.379   2.272
 3321W        W71726   8.369  33.399   3.745
 3322W        W71727  14.290  32.552  13.403
 3323W        W71728  43.623  32.150  11.552
 3324W        W71729  19.507  26.433   2.916
 3325W        W71730   8.844   6.684  14.874
 3326W        W71731   1.754  17.738   1.444
 3327W        W71732  10.363  28.959  12.897
 3328W        W71733  12.701  14.819  14.934
 3329W        W71734  40.324   9.729   4.515
 3330W        W71735  18.383  37.384  13.746
 3331W        W71736  36.598  43.908   2.129
 3332W        W71737  30.147  42.218  12.878
 3333W        W71738  28.421  39.573   1.332
 3334W        W71739  23.188  38.439  12.572
 3335W        W71740  35.118  41.774   4.004
 3336W        W71741  22.413  36.475  13.457
 3337W        W71742  25.171  29.578  11.403
 3338W        W71743  14.206  27.629  12.994
 3339W        W71744  34.587   3.288  14.324
 3340W        W71745   1.899  31.447  11.028
 3341W        W71746  26.587   1.560  11.078
 3342W        W71747   4.364  26.631   4.801
 3343W        W71748  13.358  25.819   0.541
 3344W        W71749   3.742  13.201  11.127
 3345W        W71750  39.371  10.743   4.140
 3346W        W71751  12.823   2.952   5.423
 3347W        W71752  13.423  10.461  13.321
 3348W        W71753  29.914  14.025   0.825
 3349W        W71754   6.713  38.193   2.091
 3350W        W71755   9.269  40.855   2.856
 3351W        W71756  28.468  39.902   3.522
 3352W        W71757  11.167  22.023   3.693
 3353W        W71758  14.103  13.760  13.319
 3354W        W71759  24.079  23.291  12.509
 3355W        W71760  28.515  14.555  12.886
 3356W        W71761   1.545  21.508   1.961
 3357W        W71762  44.493   6.971   3.689
 3358W        W71763  25.082  25.922   1.574
 3359W        W71764  14.719  43.035  10.621
 3360W        W71765   1.271  41.539   0.895
 3361W        W71766  20.345   0.247  14.891
 3362W        W71767  30.530   5.327  11.610
 3363W        W71768  20.753  38.612   0.288
 3364W        W71769  26.841  17.531  13.033
 3365W        W71770   5.241  42.120  12.067
 3366W        W71771   5.231  18.498  14.967
 3367W        W71772  10.450  21.114   1.577
 3368W        W71773  20.006  26.985  11.414
 3369W        W71774  23.796  33.416   4.410
 3370W        W71775  37.437  28.737  13.387
 3371W        W71776  25.676  43.877  12.402
 3372W        W71777  31.346  35.377  13.474
 3373W        W71778  21.478  39.282   1.894
 3374W        W71779  17.521  35.581  12.501
 3375W        W71780  39.517   6.996   4.107
 3376W        W71781  36.758  10.229   3.607
 3377W        W71782  22.436  27.094   1.224
 3378W        W71783  18.883  15.166   1.116
 3379W        W71784  34.265  12.025   4.060
 3380W        W71785  21.678  43.284   4.693
 3381W        W71786   0.234  14.758   2.172
 3382W        W71787  27.559  33.347  10.861
 3383W        W71788  34.106   0.019   2.570
 3384W        W71789  33.829  38.356  10.758
 3385W        W71790  13.183  36.955   0.324
 3386W        W71791  31.304  32.170   1.857
 3387W        W71792  18.631   6.599  14.407
 3388W        W71793  31.456  40.401   0.067
 3389W        W71794  28.546  11.071   1.953
 3390W        W71795  26.100  21.846   0.917
 3391W        W71796  13.173  38.419  14.010
 3392W        W71797  44.773  42.096  11.201
 3393W        W71798  31.449  44.321  13.042
 3394W        W71799  43.884  25.024  13.000
 3395W        W71800  30.422  29.980  11.960
 3396W        W71801   2.479  41.976  12.032
 3397W        W71802   2.191  15.309   2.732
 3398W        W71803  16.067  35.640   4.163
 3399W        W71804  13.755  44.862   1.630
 3400W        W71805  36.510   9.300   1.188
 3401W        W71806  18.098  10.495   3.754
 3402W        W71807  44.482  21.741  12.255
 3403W        W71808  34.315  37.996   1.701
 3404W        W71809  36.095  37.239   4.152
 3405W        W71810  37.845  31.526   4.168
 3406W        W71811  33.900   9.801  11.441
 3407W        W71812  40.822  14.409  14.876
 3408W        W71813  11.516  44.085  14.008
 3409W        W71814   0.234  23.640  14.010
 3410W        W71815   7.873  20.462   3.853
 3411W        W71816  40.850  44.561  11.660
 3412W        W71817  18.500  27.122  12.701
 3413W        W71818   1.903   6.674   1.784
 3414W        W71819  27.095  44.389   3.179
 3415W        W71820  42.909  40.424  14.820
 3416W        W71821   2.897  32.873  10.991
 3417W        W71822   3.777  44.438   2.703
 3418W        W71823  30.390  42.643  12.717
 3419W        W71824  12.070  14.879   1.875
 3420W        W71825  35.766   5.264   2.588
 3421W        W71826  24.516  44.732   3.298
 3422W        W71827  15.108  26.488   3.716
 3423W        W71828   0.964  35.144  10.584
 3424W        W71829  28.487  31.589  13.099
 3425W        W71830  27.202   8.174  11.612
 3426W        W71831   5.921   2.438   2.601
 3427W        W71832  31.454  28.074  12.332
 3428W        W71833  17.699  15.654   0.005
 3429W        W71834  19.524  15.197  13.512
 3430W        W71835  28.932  26.627   1.834
 3431W        W71836  15.846  19.973   1.283
 3432W        W71837  27.573   0.015  12.520
 3433W        W71838   6.942  33.053   2.234
 3434W        W71839  18.146   2.888   2.133
 3435W        W71840  43.153  29.872   4.940
 3436W        W71841   1.755  16.175  12.591
 3437W        W71842  26.584  40.254  14.451
 3438W        W71843  34.321  37.919   4.314
 3439W        W71844   2.466   8.360  10.678
 3440W        W71845  24.617  31.154   0.902
 3441W        W71846  18.866  17.081   5.138
 3442W        W71847  26.783  11.444  13.315
 3443W        W71848  24.198  28.917  10.518
 3444W        W71849   5.651  29.471   0.383
 3445W        W71850  22.120  38.946   1.133
 3446W        W71851  18.919  17.605   0.451
 3447W        W71852  34.042   2.324  12.003
 3448W        W71853  35.062  17.819  14.781
 3449W        W71854  18.065  10.239  13.837
 3450W        W71855  12.886   1.921   3.648
 3451W        W71856   8.626  22.828   1.213
 3452W        W71857  15.561  36.885   2.768
 3453W        W71858   9.858  25.265  10.855
 3454W        W71859  25.620  14.702  12.052
 3455W        W71860  37.768   5.719   3.900
 3456W        W71861   0.074   5.837  11.532
 3457W        W71862   7.750  44.737   2.330
 3458W        W71863   9.345  40.503  12.421
 3459W        W71864  23.723  10.662   4.560
 3460W        W71865  29.840   2.295   0.346
 3461W        W71866  29.428  29.730  14.397
 3462W        W71867  20.584  16.706  11.972
 3463W        W71868  29.897  10.727   2.249
 3464W        W71869  25.494  36.325   0.833
 3465W        W71870   7.461  37.589  13.611
 3466W        W71871  27.630  41.474  13.946
 3467W        W71872  37.934   7.260   2.454
 3468W        W71873  17.054  19.006   4.181
 3469W        W71874  30.135  18.043   0.020
 3470W        W71875  40.337  37.802  11.272
 3471W        W71876  24.674  36.867  13.577
 3472W        W71877  16.352  15.153  12.681
 3473W        W71878  10.858  13.663  12.848
 3474W        W71879  42.283   1.891  11.895
 3475W        W71880  20.272  18.506   0.829
 3476W        W71881  38.383  33.674   4.899
 3477W        W71882  16.788  30.800  13.030
 3478W        W71883   8.654  43.040  10.755
 3479W        W71884  12.211   0.124  12.956
 3480W        W71885  30.978  30.819  10.665
 3481W        W71886   7.950  34.331  13.285
 3482W        W71887  27.523   4.202   4.466
 3483W        W71888  44.278  20.956   0.915
 3484W        W71889  33.884  29.097   4.721
 3485W        W71890  24.716  15.100   4.499
 3486W        W71891  37.379  10.830   4.042
 3487W        W71892   5.493  12.820   1.327
 3488W        W71893  29.603   9.900  13.731
 3489W        W71894   9.681  11.640   2.507
 3490W        W71895   8.134  15.209   0.427
 3491W        W71896  30.693  40.825  10.271
 3492W        W71897  35.247  14.345  11.140
 3493W        W71898   4.694  42.887   4.676
 3494W        W71899  30.010  20.226   2.761
 3495W        W71900  34.411   5.736   4.593
 3496W        W71901  10.704  35.924  12.392
 3497W        W71902  21.137  38.315  14.017
 3498W        W71903  41.737   6.788  11.942
 3499W        W71904  20.149  29.127  10.804
 3500W        W71905  32.457  18.579  11.522
 3501W        W71906  20.063  10.880  11.672
 3502W        W71907  33.501  20.041  10.826
 3503W        W71908  17.891  22.015   3.185
 3504W        W71909  12.238  16.281  13.501
 3505W        W71910   4.400  22.765  11.611
 3506W        W71911   7.841  23.594   0.025
 3507W        W71912   4.354  21.566  13.407
 3508W        W71913  29.596  36.372   4.600
 3509W        W71914  41.580  44.350   3.761
 3510W        W71915  21.259  23.715  10.972
 3511W        W71916  22.243  19.191  10.444
 3512W        W71917  26.418  40.927  13.336
 3513W        W71918  25.078  30.061  11.169
 3514W        W71919  28.734  16.118   1.728
 3515W        W71920  19.042  36.453   1.939
 3516W        W71921  41.597  25.066   2.897
 3517W        W71922  33.917   4.985  12.148
 3518W        W71923   8.456  19.765  13.990
 3519W        W71924  29.538   1.553  12.015
 3520W        W71925  42.513  30.800  14.025
 3521W        W71926  32.362  39.714  10.972
 3522W        W71927  25.505   0.326  12.161
 3523W        W71928  31.390  39.636  10.645
 3524W        W71929  24.216  35.087  11.287
 3525W        W71930   5.882  26.658  10.787
 3526W        W71931  30.374  11.673   2.080
 3527W        W71932  34.991  34.342  13.928
 3528W        W71933   2.870  44.962   4.329
 3529W        W71934  39.412   4.456  11.749
 3530W        W71935  12.343  28.388  13.435
 3531W        W71936  30.651  21.498   1.705
 3532W        W71937  13.042  13.334  12.839
 3533W        W71938   2.341  20.779  12.996
 3534W        W71939  32.970  28.930  11.100
 3535W        W71940  36.515   0.994   4.448
 3536W        W71941  16.676  12.329   0.720
 3537W        W71942   6.718  41.572   3.356
 3538W        W71943  14.398  36.992  12.479
 3539W        W71944  29.452  30.588   3.181
 3540W        W71945  31.035  25.909   1.736
 3541W        W71946  41.448  30.041   4.150
 3542W        W71947  33.529  34.908  13.107
 3543W        W71948  11.135  27.022   5.567
 3544W        W71949  43.918  19.566  10.679
 3545W        W71950   7.135  39.254  14.024
 3546W        W71951  22.971  26.075  10.549
 3547W        W71952  32.838   1.379   4.370
 3548W        W71953  18.346  18.853  11.944
 3549W        W71954  41.830   6.459  14.877
 3550W        W71955  44.554  15.646  11.492
 3551W        W71956   9.791  32.488   0.029
 3552W        W71957   9.756   2.661   1.948
 3553W        W71958  29.071   9.998   3.686
 3554W        W71959  20.597  12.122  11.507
 3555W        W71960  23.806  40.668   3.654
 3556W        W71961  44.357  17.589   3.520
 3557W        W71962  21.215  31.497  14.001
 3558W        W71963  19.062  11.007  13.500
 3559W        W71964  41.974  10.255   4.844
 3560W        W71965  37.552  20.129  14.075
 3561W        W71966   1.670  42.006  13.355
 3562W        W71967  38.833  10.176   3.602
 3563W        W71968  24.231  32.658   4.198
 3564W        W71969  21.871   6.325  14.390
 3565W        W71970  27.584   8.344   0.366
 3566W        W71971  16.533  19.443  12.830
 3567W        W71972   8.157   3.469  12.424
 3568W        W71973  22.114  11.800   2.787
 3569W        W71974  39.517   4.371   4.085
 3570W        W71975   7.212  13.649   1.791
 3571W        W71976  18.214  13.635   0.033
 3572W        W71977  27.666  24.286   0.381
 3573W        W71978  44.470  20.940  11.679
 3574W        W71979  17.623   6.391  10.619
 3575W        W71980  30.000  27.622   1.627
 3576W        W71981  22.742   1.670   0.867
 3577W        W71982   4.348   4.784  13.910
 3578W        W71983   1.281  27.486   4.560
 3579W        W71984  15.115  17.962   3.859
 3580W        W71985  41.628  26.924   1.430
 3581W        W71986  20.629  37.151  11.835
 3582W        W71987  23.531  44.005   4.149
 3583W        W71988   7.374   8.597   2.155
 3584W        W71989  10.986  30.866   2.859
 3585W        W71990  11.090  30.620  10.791
 3586W        W71991  30.657  16.623   0.413
 3587W        W71992  41.515  14.893   4.816
 3588W        W71993   9.259  26.546   4.597
 3589W        W71994   9.065  23.206  11.734
 3590W        W71995  23.451  15.523  11.482
 3591W        W71996  26.970  43.380   0.370
 3592W        W71997  32.710  18.242  11.226
 3593W        W71998  43.437   9.261   1.776
 3594W        W71999  34.869  28.969  13.842
 3595W        W72000  39.149  20.162   1.032
 3596W        W72001  29.970  14.082   4.530
 3597W        W72002  14.015  41.446   2.882
 3598W        W72003  15.375   1.754   4.957
 3599W        W72004  24.225  26.099   4.229
 3600W        W72005  33.006   2.447   2.472
 3601W        W72006  11.197  19.666  14.941
 3602W        W72007  34.577  22.177  12.772
 3603W        W72008  42.068  16.164  13.825
 3604W        W72009  40.447  25.012  14.052
 3605W        W72010  40.195  23.094  14.271
 3606W        W72011  36.082  42.397   4.611
 3607W        W72012  33.405   9.360  10.603
 3608W        W72013  17.323  25.809   1.883
 3609W        W72014  39.058  23.338  13.296
 3610W        W72015  20.870  23.796  10.642
 3611W        W72016  25.928  11.091  14.014
 3612W        W72017  29.920   2.131   1.403
 3613W        W72018  17.613  30.177  10.759
 3614W        W72019   4.853  19.659  10.587
 3615W        W72020  21.435   0.071  11.253
 3616W        W72021  29.882   2.716   2.338
 3617W        W72022  23.443  36.280   1.330
 3618W        W72023  37.021  32.358  11.609
 3619W        W72024  19.491  42.224  13.378
 3620W        W72025   3.482  14.851   1.506
 3621W        W72026  10.525  13.681   0.914
 3622W        W72027   3.763  12.979   3.316
 3623W        W72028  37.389  22.247  10.157
 3624W        W72029  11.740  43.471   1.386
 3625W        W72030  26.222  28.708   1.500
 3626W        W72031  26.070  11.263   0.663
 3627W        W72032  43.481  44.904  11.578
 3628W        W72033  12.357   6.473  11.055
 3629W        W72034  34.138  13.334  14.599
 3630W        W72035   6.251  25.189   0.395
 3631W        W72036  26.390  26.750   1.868
 3632W        W72037  35.685  26.710   1.619
 3633W        W72038  23.099  31.349  13.992
 3634W        W72039   4.698  23.859   2.485
 3635W        W72040  17.424  11.085  13.095
 3636W        W72041  25.739  16.787   1.360
 3637W        W72042  12.831  17.541   4.456
 3638W        W72043  16.718  17.564   0.870
 3639W        W72044  20.080  24.694   4.534
 3640W        W72045  42.648   2.256  13.509
 3641W        W72046  28.171  18.294  10.955
 3642W        W72047   3.925  31.408  10.574
 3643W        W72048   5.367  20.712   4.151
 3644W        W72049   7.722  10.726   2.924
 3645W        W72050   9.277   1.781   3.105
 3646W        W72051  43.810   1.228  12.894
 3647W        W72052   9.587   6.819  11.103
 3648W        W72053  40.976   8.537  11.617
 3649W        W72054  34.959  22.540   2.264
 3650W        W72055   0.265  43.679   2.801
 3651W        W72056  18.848  34.504   3.883
 3652W        W72057  19.758   4.256  11.623
 3653W        W72058  33.991  16.530  14.054
 3654W        W72059  26.364   3.332  12.521
 3655W        W72060  42.746  44.586   3.891
 3656W        W72061  43.186  11.622   3.203
 3657W        W72062   9.249  40.822  10.617
 3658W        W72063  30.035   1.790   0.388
 3659W        W72064  33.605  19.466   1.466
 3660W        W72065  25.150   7.410   2.886
 3661W        W72066   4.000  18.512  11.047
 3662W        W72067   7.010   0.883   2.829
 3663W        W72068  33.599   6.467  13.342
 3664W        W72069   3.836  26.464   4.667
 3665W        W72070  41.441   2.221  12.212
 3666W        W72071   0.382  15.044   3.174
 3667W        W72072  22.074  24.484  12.448
 3668W        W72073   0.282  16.997   3.164
 3669W        W72074  42.752  33.205   3.232
 3670W        W72075  11.297  43.933   3.378
 3671W        W72076  31.360  34.193  14.904
 3672W        W72077  26.165  31.859   0.820
 3673W        W72078   7.967  34.075  11.066
 3674W        W72079  25.078  38.081   2.789
 3675W        W72080  40.997  37.802   4.074
 3676W        W72081  30.075   4.185  13.826
 3677W        W72082  18.534  17.317  11.141
 3678W        W72083   2.726  26.981   0.332
 3679W        W72084  30.091  34.597   1.767
 3680W        W72085  11.418  31.048  10.136
 3681W        W72086  11.221  43.802   1.288
 3682W        W72087   4.321   1.888  12.465
 3683W        W72088  37.480  17.764  10.709
 3684W        W72089  39.797  16.339  14.442
 3685W        W72090  16.859   1.470  13.937
 3686W        W72091  36.377  14.086   4.638
 3687W        W72092  39.043   5.603  11.144
 3688W        W72093  26.098  29.999  11.149
 3689W        W72094   2.831  41.845   3.342
 3690W        W72095   2.537  37.674   1.531
 3691W        W72096  24.549   0.178  13.530
 3692W        W72097  16.580  41.036   4.536
 3693W        W72098  23.053  42.951  12.976
 3694W        W72099  33.455  11.741  14.862
 3695W        W72100   8.846   1.912  14.883
 3696W        W72101  18.741  21.425   5.416
 3697W        W72102  17.143   4.325   3.895
 3698W        W72103  10.676  43.250  11.597
 3699W        W72104  18.795  32.050   2.759
 3700W        W72105  17.302  31.554  14.953
 3701W        W72106  24.059   6.184  11.653
 3702W        W72107   4.412   9.817   2.646
 3703W        W72108   4.508   5.946   1.692
 3704W        W72109  31.326  21.620  12.509
 3705W        W72110   1.675  22.592   2.523
 3706W        W72111  35.143   2.461  12.967
 3707W        W72112  41.883  16.571   0.146
 3708W        W72113  17.578  25.477  13.433
 3709W        W72114  29.499  18.154  11.586
 3710W        W72115  27.167  13.172   3.353
 3711W        W72116  16.580  20.115   1.756
 3712W        W72117  43.325  12.370   2.930
 3713W        W72118  41.425  25.561   0.697
 3714W        W72119  14.078  35.506  10.754
 3715W        W72120  32.588  36.104  14.069
 3716W        W72121  24.516  15.131   2.690
 3717W        W72122  26.324  15.901   2.752
 3718W        W72123  21.278  10.386  12.916
 3719W        W72124  38.652  20.113  12.338
 3720W        W72125   6.836  42.700  14.879
 3721W        W72126  26.145  22.097   4.450
 3722W        W72127  27.528   4.271  12.391
 3723W        W72128   6.464   1.795  10.768
 3724W        W72129  17.088  39.104   9.939
 3725W        W72130   3.782   5.487   0.262
 3726W        W72131  37.585  20.620  13.355
 3727W        W72132  38.898  18.458   3.455
 3728W        W72133   1.876   3.503   3.657
 3729W        W72134  25.202   1.424   1.975
 3730W        W72135   5.922   7.473  12.991
 3731W        W72136  20.943  27.943   2.230
 3732W        W72137   6.553  15.721   4.500
 3733W        W72138  18.074  17.484   0.905
 3734W        W72139  33.030  17.395   2.272
 3735W        W72140   2.201  17.682   3.703
 3736W        W72141  27.057  37.715  14.754
 3737W        W72142  29.941  24.150  14.492
 3738W        W72143  30.082   8.927  12.954
 3739W        W72144  31.840   7.384  13.710
 3740W        W72145   5.246  33.846   3.091
 3741W        W72146   2.168  12.270  12.592
 3742W        W72147  11.290  30.116   4.954
 3743W        W72148  29.186  19.724   4.085
 3744W        W72149  31.164  40.906   4.657
 3745W        W72150  42.940  20.580  12.040
 3746W        W72151   7.349  22.600   4.197
 3747W        W72152  29.873  38.032  10.682
 3748W        W72153  24.657  31.904  10.678
 3749W        W72154  12.411   4.745  11.472
 3750W        W72155  13.874  12.430  10.376
 3751W        W72156  32.386  23.878  11.535
 3752W        W72157  33.092   5.780  11.469
 3753W        W72158  42.957  37.985  10.701
 3754W        W72159   6.300  24.126  12.356
 3755W        W72160  20.247   0.506  12.419
 3756W        W72161  35.361  31.022   2.808
 3757W        W72162  40.847  10.809   1.717
 3758W        W72163   9.676   4.875  12.543
 3759W        W72164  26.472  18.692   0.518
 3760W        W72165  33.124  31.233  14.365
 3761W        W72166  19.067   3.741  12.013
 3762W        W72167  39.517  39.837   0.039
 3763W        W72168  41.791  39.031  14.787
 3764W        W72169  10.581   6.808   4.276
 3765W        W72170  11.557  27.625  13.985
 3766W        W72171  20.608  34.477   1.352
 3767W        W72172  22.130  10.258   4.908
 3768W        W72173  25.018  36.570  11.580
 3769W        W72174   3.718  14.826  14.041
 3770W        W72175  28.742  16.340  11.707
 3771W        W72176   3.364  27.551  13.923
 3772W        W72177  21.793  38.881  10.022
 3773W        W72178  13.186  27.229   1.482
 3774W        W72179  20.146   4.153   3.294
 3775W        W72180  11.319  37.774   4.106
 3776W        W72181  34.204  40.799   0.299
 3777W        W72182   4.482   0.048  13.547
 3778W        W72183  36.283  19.242  14.935
 3779W        W72184   7.796   8.751  12.105
 3780W        W72185   7.540   7.205   4.347
 3781W        W72186  17.630  28.566   4.630
 3782W        W72187  13.711  33.605   3.204
 3783W        W72188  17.772  39.396  14.526
 3784W        W72189  43.469  10.726   3.388
 3785W        W72190  23.091  27.318  12.465
 3786W        W72191  32.160   8.864  10.994
 3787W        W72192  19.076  42.990  10.913
 3788W        W72193  36.574   2.415  10.946
 3789W        W72194  30.641  39.854   2.430
 3790W        W72195  28.221  16.130   2.568
 3791W        W72196  38.903  36.039   4.974
 3792W        W72197  24.772   9.344  14.002
 3793W        W72198  32.379  28.993  12.135
 3794W        W72199  26.270  34.462   0.384
 3795W        W72200   6.762  36.849   1.916
 3796W        W72201  18.638  37.361  13.279
 3797W        W72202  11.177  29.988  12.884
 3798W        W72203  39.277  19.069  11.965
 3799W        W72204  29.641  41.878  13.704
 3800W        W72205  10.770  15.892   2.393
 3801W        W72206  33.997  15.455   4.050
 3802W        W72207  13.673   1.291  12.539
 3803W        W72208  13.810  22.523  10.624
 3804W        W72209   7.849  41.249   4.964
 3805W        W72210  40.645   6.335   5.051
 3806W        W72211  39.961  35.043   0.507
 3807W        W72212   0.432   3.924   1.240
 3808W        W72213  27.041   2.493   1.704
 3809W        W72214   4.951   4.292  11.487
 3810W        W72215   5.748  28.111  14.955
 3811W        W72216  33.436   3.572   1.904
 3812W        W72217  26.329  18.100  10.526
 3813W        W72218  22.484  32.633   0.373
 3814W        W72219  31.923  16.024  13.442
 3815W        W72220  17.582  43.926  14.510
 3816W        W72221  22.782  39.124   3.848
 3817W        W72222  31.570  36.748   1.358
 3818W        W72223  16.218  37.699   4.256
 3819W        W72224  27.073  24.687  14.445
 3820W        W72225  10.381   5.031  11.740
 3821W        W72226  30.655  30.838  11.868
 3822W        W72227  24.076  15.219  10.716
 3823W        W72228   5.885  17.567  12.104
 3824W        W72229  26.685  11.913  13.530
 3825W        W72230   7.483   7.444  13.015
 3826W        W72231   9.394  13.197   2.317
 3827W        W72232   8.233   0.933  13.081
 3828W        W72233  27.692   9.887  14.295
 3829W        W72234  35.843  21.939  11.397
 3830W        W72235  38.036   6.666  10.663
 3831W        W72236  36.688  29.085  12.533
 3832W        W72237  22.646  12.457  12.989
 3833W        W72238  37.923  31.436   0.872
 3834W        W72239   6.724  31.208  10.727
 3835W        W72240  23.983  14.343  13.352
 3836W        W72241  35.835  44.783   1.377
 3837W        W72242  17.641  40.015  10.791
 3838W        W72243  39.290  16.213  12.953
 3839W        W72244  14.129  40.351  10.897
 3840W        W72245   7.175  22.734   3.716
 3841W        W72246   0.010   9.850  14.298
 3842W        W72247  17.763  10.821   4.341
 3843W        W72248  32.627  43.871  14.981
 3844W        W72249  21.580  42.258   0.511
 3845W        W72250  43.783  14.776   4.827
 3846W        W72251  15.623  31.470   3.026
 3847W        W72252  42.105  40.634   1.258
 3848W        W72253   5.476  39.995   0.890
 3849W        W72254  32.800  14.438   2.273
 3850W        W72255  33.308  18.582   3.587
 3851W        W72256  36.511  14.598  11.622
 3852W        W72257  22.229  20.784   0.861
 3853W        W72258   7.117  10.091   2.414
 3854W        W72259  10.494  42.093   3.398
 3855W        W72260   9.096  39.498   1.356
 3856W        W72261  21.025  36.986  14.020
 3857W        W72262  16.743  31.889   1.823
 3858W        W72263   1.705  15.354   0.498
 3859W        W72264  39.258   0.814  13.421
 3860W        W72265  30.994  32.593   2.626
 3861W        W72266  19.946  31.729  12.011
 3862W        W72267   6.944  18.059   1.268
 3863W        W72268   1.657  35.840   4.398
 3864W        W72269  28.701  42.702   1.238
 3865W        W72270   0.016  38.935   2.238
 3866W        W72271  23.787  21.847  13.383
 3867W        W72272  27.531  29.942  10.635
 3868W        W72273  32.155  33.018  10.705
 3869W        W72274  43.426  36.886   3.074
 3870W        W72275   6.328  38.882  11.694
 3871W        W72276  41.298  25.469   2.730
 3872W        W72277  42.298  32.480  13.346
 3873W        W72278  28.547   4.125  13.814
 3874W        W72279  19.681  43.853  11.900
 3875W        W72280  32.139  19.156   3.789
 3876W        W72281   4.302  27.597   3.767
 3877W        W72282  26.959  20.191  13.917
 3878W        W72283   6.288  43.898  11.951
 3879W        W72284   4.263  43.795   1.752
 3880W        W72285   8.584  41.268  11.076
 3881W        W72286  30.258  25.998  12.067
 3882W        W72287  28.998  19.034  11.568
 3883W        W72288  27.470  32.525   2.418
 3884W        W72289   2.240  16.764   3.240
 3885W        W72290  34.629   2.768  14.555
 3886W        W72291  26.748   4.270   1.842
 3887W        W72292   2.674  41.851   1.320
 3888W        W72293  44.867  30.127   4.912
 3889W        W72294  19.734  39.832   3.082
 3890W        W72295  16.862  26.592   3.460
 3891W        W72296  34.827  20.635   0.863
 3892W        W72297  18.134  15.631  13.511
 3893W        W72298  12.083  10.861  13.433
 3894W        W72299  22.004  28.130   4.415
 3895W        W72300  18.071  20.504   1.670
 3896W        W72301  13.116  25.214  12.559
 3897W        W72302   5.019  27.195  12.393
 3898W        W72303  29.649   2.004  13.211
 3899W        W72304  25.358  31.003  12.570
 3900W        W72305  40.390  17.685   0.168
 3901W        W72306  30.902   0.856   1.221
 3902W        W72307  10.843  25.172   0.773
 3903W        W72308  17.689  25.579   1.148
 3904W        W72309   9.842  10.553   3.655
 3905W        W72310  41.994  33.478   1.331
 3906W        W72311   0.142  13.490  11.393
 3907W        W72312  21.108  28.231  14.798
 3908W        W72313  26.787   2.460  14.472
 3909W        W72314  32.705  21.626   1.411
 3910W        W72315  22.174  31.698   4.009
 3911W        W72316  28.011  21.775  13.266
 3912W        W72317  15.784  42.268   3.767
 3913W        W72318  10.389   4.987  13.039
 3914W        W72319  37.329  40.355   0.671
 3915W        W72320  30.140   8.696  11.026
 3916W        W72321   7.018  23.401  10.350
 3917W        W72322  36.295  15.113   1.319
 3918W        W72323  23.289  21.352   4.367
 3919W        W72324  16.562  22.830  11.123
 3920W        W72325  21.771  21.023   0.841
 3921W        W72326  30.034   0.480  11.998
 3922W        W72327  10.965  42.527   4.733
 3923W        W72328  27.642   7.150  13.929
 3924W        W72329  40.940  26.003  13.399
 3925W        W72330  25.539   2.763   2.880
 3926W        W72331  13.494   8.364  12.848
 3927W        W72332  36.435   9.233  12.901
 3928W        W72333   8.267  11.831  12.398
 3929W        W72334   5.759  14.763   1.433
 3930W        W72335  30.748  20.856   0.706
 3931W        W72336  44.582  17.585  14.437
 3932W        W72337  21.498  13.162   2.788
 3933W        W72338  40.546  41.105  14.948
 3934W        W72339  24.728  40.050  14.787
 3935W        W72340  39.943  41.209   0.743
 3936W        W72341  27.432  15.245   4.217
 3937W        W72342  42.303   7.659  14.841
 3938W        W72343  22.117  40.938   2.449
 3939W        W72344  24.505  16.251   1.207
 3940W        W72345  44.896   8.154   4.164
 3941W        W72346  37.062  14.976  12.680
 3942W        W72347  38.803  37.296   1.261
 3943W        W72348   0.925  16.568   0.101
 3944W        W72349  39.824   2.031  12.459
 3945W        W72350  31.007  21.833   0.922
 3946W        W72351  23.036  37.695  11.895
 3947W        W72352  26.063  36.976  12.431
 3948W        W72353  33.855  13.295  13.047
 3949W        W72354   5.456   2.981  11.122
 3950W        W72355  36.114  16.148   2.259
 3951W        W72356  38.473  34.027  13.380
 3952W        W72357  12.893  29.159   2.826
 3953W        W72358  32.653   1.202  12.711
 3954W        W72359   6.479  31.055   3.974
 3955W        W72360  26.223  29.665  11.533
 3956W        W72361  42.222  16.197  12.430
 3957W        W72362  19.643  26.928  11.025
 3958W        W72363  33.932   0.351  11.502
 3959W        W72364   0.753  26.537   1.132
 3960W        W72365  22.241  39.542   3.179
 3961W        W72366  16.093  37.480   3.248
 3962W        W72367   5.318  34.465   1.766
 3963W        W72368  29.982  17.628   3.569
 3964W        W72369  34.520  24.616  11.012
 3965W        W72370  41.757  37.788  13.980
 3966W        W72371  10.629  10.228  12.422
 3967W        W72372  14.226  32.024  13.393
 3968W        W72373  12.294  13.836  11.405
 3969W        W72374   6.740  22.531  12.125
 3970W        W72375  29.521  23.319  13.520
 3971W        W72376   4.980  17.148   3.660
 3972W        W72377   4.638   8.783   2.166
 3973W        W72378  23.173  36.758  14.936
 3974W        W72379  18.315  15.444  13.971
 3975W        W72380   1.319  38.089  11.317
 3976W        W72381  27.069  29.377  13.865
 3977W        W72382  25.308  37.581   0.826
 3978W        W72383   4.390  19.038  14.064
 3979W        W72384  30.373  24.832   1.406
 3980W        W72385  12.242  18.749   3.625
 3981W        W72386  33.637  11.632   0.409
 3982W        W72387   0.309  10.310  10.496
 3983W        W72388  19.737  14.869  14.439
 3984W        W72389   1.987  20.560  12.251
 3985W        W72390   8.407  16.240   1.887
 3986W        W72391  36.102   8.803   1.278
 3987W        W72392  32.879   3.733   4.936
 3988W        W72393  18.261  42.276  14.666
 3989W        W72394  20.757  27.963  13.045
 3990W        W72395   8.674  11.718  13.885
 3991W        W72396  42.703  19.576  11.150
 3992W        W72397  12.079  35.847  11.626
 3993W        W72398   4.952  34.865   1.076
 3994W        W72399  32.050   9.999   4.647
 3995W        W72400  28.226  25.171  13.315
 3996W        W72401  37.587  25.067  10.678
 3997W        W72402  24.982  39.292  14.393
 3998W        W72403  13.156  34.325  10.676
 3999W        W72404  25.535  29.083   2.478
 4000W        W72405  14.627  11.910  10.876
 4001W        W72406  12.862  24.587  11.068
 4002W        W72407  23.942  36.077  12.136
 4003W        W72408  33.020  34.874  10.503
 4004W        W72409   2.529  27.663   0.759
 4005W        W72410   3.394  16.224  14.530
 4006W        W72411  31.514   2.780   0.138
 4007W        W72412   6.764  27.995   3.099
 4008W        W72413  34.933  38.405  11.566
 4009W        W72414  33.750  37.406   1.246
 4010W        W72415  16.668  21.562   1.126
 4011W        W72416  40.015  31.731  11.115
 4012W        W72417   1.968   2.909   0.026
 4013W        W72418   7.974  10.449   1.212
 4014W        W72419  40.261  34.934   3.071
 4015W        W72420  20.147  33.428   3.249
 4016W        W72421   4.740  44.358   1.320
 4017W        W72422  31.695  16.760   9.543
 4018W        W72423   3.879   5.218  14.819
 4019W        W72424  35.708  33.314   3.864
 4020W        W72425  11.741  35.624   1.711
 4021W        W72426  13.930  19.392   4.231
 4022W        W72427  28.202  32.434   2.873
 4023W        W72428  16.265  23.555   1.749
 4024W        W72429  15.107  20.259   4.103
 4025W        W72430   5.978  30.633   3.297
 4026W        W72431  40.884  37.473  10.627
 4027W        W72432  26.736  21.632  14.488
 4028W        W72433  36.837  16.670   2.111
 4029W        W72434  27.517  32.102  11.385
 4030W        W72435  24.511  30.086  10.410
 4031W        W72436  39.550  12.723  12.882
 4032W        W72437   1.557  29.799   0.464
 4033W        W72438  39.739   2.724   1.373
 4034W        W72439  22.369  12.531   4.164
 4035W        W72440   9.644  37.465   1.814
 4036W        W72441  16.035  35.480  12.484
 4037W        W72442  15.060   9.605  13.579
 4038W        W72443  31.162  38.902  13.868
 4039W        W72444  27.718  30.942   3.169
 4040W        W72445  42.380  37.155  14.563
 4041W        W72446   7.676  32.633  10.678
 4042W        W72447  14.758  37.364  14.957
 4043W        W72448  26.901  40.774  11.686
 4044W        W72449  11.812  21.243  13.314
 4045W        W72450  39.750  35.871   1.817
 4046W        W72451  27.447   7.333  11.593
 4047W        W72452   2.407  17.874  10.366
 4048W        W72453  14.577  12.487   0.268
 4049W        W72454  34.837  36.888  11.578
 4050W        W72455  41.439  14.650   3.172
 4051W        W72456  29.993  30.070  14.846
 4052W        W72457  42.721  20.269  14.919
 4053W        W72458  17.790  22.709   1.064
 4054W        W72459  42.239  22.894  14.343
 4055W        W72460   2.722  30.253  11.237
 4056W        W72461  44.336  14.774   0.388
 4057W        W72462   7.264  19.696  11.205
 4058W        W72463  44.692   5.696  13.114
 4059W        W72464   2.430  36.684  13.296
 4060W        W72465  41.017  42.449   4.541
 4061W        W72466  17.313  18.286   4.681
 4062W        W72467  30.076  13.942  14.396
 4063W        W72468  43.270   4.837  11.919
 4064W        W72469   5.177  27.512   3.933
 4065W        W72470  28.165   4.940  12.830
 4066W        W72471  41.094  36.291  13.111
 4067W        W72472  23.898  41.454   5.096
 4068W        W72473   7.348  40.665  12.455
 4069W        W72474   5.178  12.228   0.437
 4070W        W72475   4.882  35.110  13.959
 4071W        W72476   8.939  39.364   4.524
 4072W        W72477  10.902   8.811   4.508
 4073W        W72478  36.403  15.236   4.268
 4074W        W72479  36.091  10.391  12.374
 4075W        W72480  19.692  16.325   2.397
 4076W        W72481   0.399  26.599  11.989
 4077W        W72482  24.497   8.401   3.787
 4078W        W72483  33.969  43.564  13.944
 4079W        W72484  10.146  32.481   3.650
 4080W        W72485   8.307  42.328   2.114
 4081W        W72486  13.264  34.396   1.417
 4082W        W72487  39.408  28.717  14.479
 4083W        W72488  39.103   6.046  13.650
 4084W        W72489  34.087  23.736  11.995
 4085W        W72490  13.084  34.386   4.098
 4086W        W72491  19.140  25.899   4.194
 4087W        W72492   2.976  21.067   0.730
 4088W        W72493  41.891  29.425  11.750
 4089W        W72494  25.097  16.893   5.043
 4090W        W72495  43.788  36.516   2.553
 4091W        W72496  31.337  12.792   3.181
 4092W        W72497  32.748  13.091  10.780
 4093W        W72498   3.229  19.812  13.102
 4094W        W72499   9.449  15.296   3.257
 4095W        W72500  40.598   9.879  11.012
 4096W        W72501  29.568  32.202   3.783
 4097W        W72502   5.782  43.318  14.431
 4098W        W72503  38.999  35.697   0.056
 4099W        W72504   2.063  18.950  14.072
 4100W        W72505   5.961   4.870  13.280
 4101W        W72506  10.588   6.332  14.943
 4102W        W72507  22.226  41.254  12.870
 4103W        W72508  15.738   2.535  13.338
 4104W        W72509  24.461   1.203  13.346
 4105W        W72510   8.763  35.570  13.967
 4106W        W72511   0.969  22.016   4.451
 4107W        W72512  36.646  12.287  10.578
 4108W        W72513   6.715  22.689  14.963
 4109W        W72514  28.658  11.381   4.481
 4110W        W72515  26.354  27.280  13.982
 4111W        W72516  18.863  25.096   5.419
 4112W        W72517  25.059  12.996  13.376
 4113W        W72518  40.727  14.648  11.965
 4114W        W72519   0.916  35.918  12.326
 4115W        W72520  10.581  25.168  13.956
 4116W        W72521  21.907  36.355  14.315
 4117W        W72522  15.901  12.721  11.620
 4118W        W72523   3.848  13.897   1.425
 4119W        W72524  27.654  31.594  11.472
 4120W        W72525   2.238  25.118   1.389
 4121W        W72526   8.453   8.797  13.488
 4122W        W72527   9.860  42.154  14.378
 4123W        W72528  27.666  16.624   2.295
 4124W        W72529  44.141  27.678   4.528
 4125W        W72530  25.491  33.069   2.326
 4126W        W72531  14.740  31.957   5.202
 4127W        W72532  34.987  33.758   1.222
 4128W        W72533  35.763   7.407  14.527
 4129W        W72534  44.464  12.631  14.395
 4130W        W72535  28.025  37.946  11.592
 4131W        W72536  38.070  28.628   4.122
 4132W        W72537  25.297  39.409   0.866
 4133W        W72538  32.836  10.401  11.513
 4134W        W72539  31.359  32.932   4.348
 4135W        W72540  23.486   3.776   2.174
 4136W        W72541  21.252  18.837  10.677
 4137W        W72542  36.861  39.962   4.593
 4138W        W72543  22.118   3.954   0.842
 4139W        W72544  33.125   3.009   1.236
 4140W        W72545   1.248   0.293   0.739
 4141W        W72546  28.985  11.804  14.314
 4142W        W72547  39.029  21.852   1.406
 4143W        W72548   6.591  19.635   0.432
 4144W        W72549  13.667  31.349   4.709
 4145W        W72550  24.417  11.246  13.727
 4146W        W72551  33.997  39.881  10.395
 4147W        W72552  22.467  34.480  12.948
 4148W        W72553  33.489  35.765  10.842
 4149W        W72554   9.389  17.303   2.912
 4150W        W72555  42.960  18.547   0.259
 4151W        W72556  42.310  28.945  14.737
 4152W        W72557  13.954  21.988   1.330
 4153W        W72558  21.058  36.480  13.254
 4154W        W72559  37.306  18.379  13.416
 4155W        W72560  19.232  32.666  12.490
 4156W        W72561  41.155  39.974   0.721
 4157W        W72562  41.536   0.866  11.647
 4158W        W72563  23.479  16.547  12.173
 4159W        W72564  44.895   6.348  10.333
 4160W        W72565   8.806  15.225   3.051
 4161W        W72566   4.684  38.519  13.762
 4162W        W72567  17.197   2.796  10.816
 4163W        W72568  30.034  30.952  10.684
 4164W        W72569  30.018   6.491  12.611
 4165W        W72570  11.422  27.083  13.115
 4166W        W72571  16.948  32.641   5.382
 4167W        W72572  10.885   5.336   2.133
 4168W        W72573   3.954  15.257  13.801
 4169W        W72574  15.892  20.362  13.075
 4170W        W72575   7.663  38.576   2.328
 4171W        W72576  16.082  24.438  13.507
 4172W        W72577   0.840  34.992   1.433
 4173W        W72578  28.718   7.915  13.265
 4174W        W72579   3.463  16.737   3.846
 4175W        W72580   5.077  17.290   1.261
 4176W        W72581  25.260  36.339   3.334
 4177W        W72582  30.609   2.743   1.882
 4178W        W72583  32.602  15.659   2.413
 4179W        W72584   5.375  28.575   4.617
 4180W        W72585   4.856  33.859   4.679
 4181W        W72586  17.235  19.008  10.990
 4182W        W72587  12.213  38.064  13.979
 4183W        W72588  41.354  17.256   1.296
 4184W        W72589  21.099  24.319  12.454
 4185W        W72590  12.371  23.995  12.508
 4186W        W72591  34.817  10.401   3.751
 4187W        W72592  35.920  42.483   2.332
 4188W        W72593  36.095  16.313   0.863
 4189W        W72594  29.307  20.028  13.952
 4190W        W72595  30.787  12.583   0.291
 4191W        W72596  42.630  27.171  10.697
 4192W        W72597   0.782  26.384   3.871
 4193W        W72598  21.064   2.387  13.974
 4194W        W72599  12.752  40.386  10.732
 4195W        W72600  41.941  34.641  12.108
 4196W        W72601   6.070   0.479  11.076
 4197W        W72602   9.192   7.687   2.838
 4198W        W72603  39.576  18.656   2.322
 4199W        W72604  39.585  14.714   2.397
 4200W        W72605  16.703  36.099   3.697
 4201W        W72606  13.890  18.544  11.621
 4202W        W72607   9.308  36.945   3.326
 4203W        W72608  37.067  43.857  12.971
 4204W        W72609  42.967  36.259  13.154
 4205W        W72610  42.070  22.524   5.087
 4206W        W72611  39.365   9.471   2.655
 4207W        W72612  30.124  10.422   0.871
 4208W        W72613  12.649   3.351  14.579
 4209W        W72614  14.073   9.457  13.455
 4210W        W72615  12.369  24.208  12.044
 4211W        W72616   3.872  23.287   3.953
 4212W        W72617  13.380   5.384  11.229
 4213W        W72618  12.770  10.257  13.962
 4214W        W72619  18.730  26.930  13.103
 4215W        W72620  18.015   1.174  11.125
 4216W        W72621  30.181   5.716  13.806
 4217W        W72622  34.509  13.789   3.719
 4218W        W72623  41.758   7.394   4.534
 4219W        W72624   0.391  10.413  12.400
 4220W        W72625   9.553   3.990  11.672
 4221W        W72626  38.639   3.831   4.236
 4222W        W72627   3.344  16.270   3.658
 4223W        W72628   7.172  28.965   4.393
 4224W        W72629  11.445  30.877   0.675
 4225W        W72630  14.541  38.036   2.858
 4226W        W72631   5.538  41.235   4.116
 4227W        W72632  13.853  23.174  13.337
 4228W        W72633  10.824  25.422  11.127
 4229W        W72634   4.828  41.011  11.105
 4230W        W72635  12.290  17.606  14.015
 4231W        W72636   3.943  23.011  10.708
 4232W        W72637  39.093   4.729  12.101
 4233W        W72638  34.821  21.103   2.675
 4234W        W72639  13.620  23.528  10.410
 4235W        W72640   4.319  16.693   0.808
 4236W        W72641  21.292   1.912   4.652
 4237W        W72642   6.689  24.130   4.152
 4238W        W72643   2.550  39.585   4.087
 4239W        W72644  11.894  27.127  12.915
 4240W        W72645  27.365   3.701  11.026
 4241W        W72646  43.938  38.383   3.845
 4242W        W72647  22.170  33.913   3.155
 4243W        W72648  21.625  28.178   3.638
 4244W        W72649  44.043   1.436  11.528
 4245W        W72650  27.372  24.161  13.143
 4246W        W72651  24.660  39.392   3.540
 4247W        W72652  36.950   4.567   0.738
 4248W        W72653   6.718  40.844   4.472
 4249W        W72654  18.699  23.575  11.192
 4250W        W72655  34.022  38.944   1.647
 4251W        W72656   7.613  40.351   4.058
 4252W        W72657  35.682  25.552  13.136
 4253W        W72658  11.188  25.171  12.946
 4254W        W72659   2.083  21.150  11.216
 4255W        W72660  18.171  18.623   3.315
 4256W        W72661  16.687  40.518   2.399
 4257W        W72662  44.061   4.934   2.724
 4258W        W72663  28.534   6.311   1.089
 4259W        W72664  24.021  22.723   2.265
 4260W        W72665   1.872   0.650   0.683
 4261W        W72666  42.276  11.336  13.913
 4262W        W72667  10.895  36.379  12.143
 4263W        W72668  35.093   8.477   3.045
 4264W        W72669   1.166  34.368   0.843
 4265W        W72670  20.232  40.667  13.894
 4266W        W72671  16.034  13.319   0.999
 4267W        W72672  15.656   3.878   0.972
 4268W        W72673   5.392  30.050   0.506
 4269W        W72674   9.220   3.445   1.781
 4270W        W72675  14.814  42.549   0.479
 4271W        W72676  25.548  36.919  13.877
 4272W        W72677  37.293  20.608   1.194
 4273W        W72678  25.375  25.049  12.134
 4274W        W72679  41.751  35.585  11.851
 4275W        W72680  27.904  40.854  11.960
 4276W        W72681  37.878  16.300  14.211
 4277W        W72682  11.783  30.673  10.178
 4278W        W72683  37.844  12.593  13.196
 4279W        W72684  32.876  18.687   1.838
 4280W        W72685   1.389  23.047  14.482
 4281W        W72686   1.015  20.303   0.707
 4282W        W72687  26.007   1.781   2.037
 4283W        W72688  33.107  16.598  14.154
 4284W        W72689  10.424  14.702  13.626
 4285W        W72690   1.222  18.276   0.032
 4286W        W72691  14.955  28.190   1.858
 4287W        W72692  15.193  12.312   3.701
 4288W        W72693  32.504  36.379   1.772
 4289W        W72694   3.895  30.866  12.000
 4290W        W72695  13.146  18.206  11.295
 4291W        W72696   3.688  21.296   3.693
 4292W        W72697   7.533   4.302  13.966
 4293W        W72698   7.631   9.285  14.328
 4294W        W72699  32.448   5.143  13.899
 4295W        W72700  43.670  20.146   4.270
 4296W        W72701  12.840  11.118   4.531
 4297W        W72702  20.556   4.300  12.167
 4298W        W72703  17.610   3.173  11.594
 4299W        W72704   3.787  31.853  11.160
 4300W        W72705   4.914  15.534   0.368
 4301W        W72706  10.772  22.699   2.645
 4302W        W72707  25.851   6.740   2.781
 4303W        W72708   2.393   3.841   1.167
 4304W        W72709  17.136   8.948  14.303
 4305W        W72710  38.729  30.005   1.555
 4306W        W72711  34.318  39.519   2.770
 4307W        W72712  34.847  27.546   4.652
 4308W        W72713   1.698  18.460  14.941
 4309W        W72714  12.068  12.063  11.994
 4310W        W72715   2.544  15.025   1.434
 4311W        W72716  11.309  19.138   1.733
 4312W        W72717  18.328  10.745   2.604
 4313W        W72718  21.512  35.298  13.539
 4314W        W72719  28.669  29.906   0.934
 4315W        W72720  43.004  17.693  12.539
 4316W        W72721   2.366   8.817   0.493
 4317W        W72722  16.653  19.463   3.305
 4318W        W72723  42.974  28.891   4.031
 4319W        W72724  13.846  13.280  10.705
 4320W        W72725   2.441  30.223  12.217
 4321W        W72726  42.641   7.328  14.541
 4322W        W72727  14.820   4.847   2.802
 4323W        W72728  28.482   5.119  13.850
 4324W        W72729  44.836  23.047  10.323
 4325W        W72730  15.315  23.247   4.162
 4326W        W72731   5.470  21.943   3.298
 4327W        W72732  33.565  43.492  14.912
 4328W        W72733  13.862  33.951  13.090
 4329W        W72734  44.934  11.044   3.201
 4330W        W72735   4.517   7.962   1.754
 4331W        W72736   6.725  25.565   3.690
 4332W        W72737  10.123   9.876   4.165
 4333W        W72738  44.556  21.227  14.605
 4334W        W72739  22.481  43.014   4.295
 4335W        W72740  10.667  34.365  13.954
 4336W        W72741  17.815  42.867   1.219
 4337W        W72742  42.076   9.295   0.947
 4338W        W72743   8.084  16.105   3.774
 4339W        W72744  26.130  21.477  11.558
 4340W        W72745  23.435  40.230   4.426
 4341W        W72746  12.695   3.762   2.438
 4342W        W72747   5.502  26.529   0.929
 4343W        W72748  28.545  29.421   2.924
 4344W        W72749  36.011  39.509  14.877
 4345W        W72750  44.760  13.317   0.694
 4346W        W72751  23.157   5.977  12.923
 4347W        W72752  34.563   6.020  14.851
 4348W        W72753  26.487  21.481  14.919
 4349W        W72754  10.483  44.643  14.475
 4350W        W72755  30.993  21.151   3.645
 4351W        W72756  24.825   1.652   1.697
 4352W        W72757  40.315  38.388   0.899
 4353W        W72758   5.872  12.357  14.918
 4354W        W72759  17.847  26.495  11.654
 4355W        W72760   2.331  33.631  12.601
 4356W        W72761  16.846  14.216   0.456
 4357W        W72762  42.283  32.897   0.694
 4358W        W72763  41.310  14.082   0.763
 4359W        W72764   7.658  10.814   1.445
 4360W        W72765  20.941  40.826  11.864
 4361W        W72766  10.473  34.921  12.144
 4362W        W72767   3.772  40.542  12.609
 4363W        W72768   9.275   1.725   3.679
 4364W        W72769  44.422  15.286   0.258
 4365W        W72770  15.695   3.184   5.023
 4366W        W72771  23.593   1.677   4.948
 4367W        W72772  33.423   3.758   1.221
 4368W        W72773   0.692  34.264  13.964
 4369W        W72774  11.967   1.852  14.085
 4370W        W72775  11.618  37.882   2.680
 4371W        W72776   2.363  43.061  12.954
 4372W        W72777  37.512  19.525  14.764
 4373W        W72778  44.747  11.610  14.039
 4374W        W72779  43.996  43.782  14.507
 4375W        W72780  39.589   7.176   2.823
 4376W        W72781   3.154   0.780   4.982
 4377W        W72782  26.882   4.182   4.099
 4378W        W72783   2.370   9.824  12.057
 4379W        W72784  31.777  36.755   4.796
 4380W        W72785  44.869  18.177   2.458
 4381W        W72786  11.666  22.194   0.178
 4382W        W72787  43.515  35.129  11.715
 4383W        W72788  12.189   8.927   2.417
 4384W        W72789  38.614  29.336  14.867
 4385W        W72790   9.641  19.725   1.790
 4386W        W72791   0.863  27.533   3.266
 4387W        W72792  12.099  13.354  12.406
 4388W        W72793  35.111  11.991   5.023
 4389W        W72794  34.617   6.862  14.418
 4390W        W72795  15.635   1.026   4.646
 4391W        W72796  17.890  32.495   9.860
 4392W        W72797   1.191  38.960  13.877
 4393W        W72798   6.807  39.784   1.337
 4394W        W72799   0.887  43.779   3.279
 4395W        W72800   2.267  27.234   3.232
 4396W        W72801  19.523  22.591  11.811
 4397W        W72802   7.674  35.094   3.302
 4398W        W72803  23.478   6.100   1.719
 4399W        W72804  18.246   2.433   0.327
 4400W        W72805  12.412  18.647   2.416
 4401W        W72806  19.191  37.380   1.632
 4402W        W72807  18.300  34.692   0.670
 4403W        W72808   5.834  13.984  11.111
 4404W        W72809   0.768  11.766  14.206
 4405W        W72810  25.973  16.274   2.852
 4406W        W72811  28.298   9.378  13.157
 4407W        W72812  11.925  10.121   3.071
 4408W        W72813  39.537   0.348   1.240
 4409W        W72814  33.011  41.053  11.155
 4410W        W72815  12.173  15.762  13.733
 4411W        W72816  40.867   8.392   0.863
 4412W        W72817  20.595   0.473   3.314
 4413W        W72818  17.705  44.956  14.236
 4414W        W72819  20.210  13.659  13.447
 4415W        W72820   3.888  20.275  13.605
 4416W        W72821  33.602  26.630   0.756
 4417W        W72822  38.915  15.730  11.992
 4418W        W72823  33.594  35.531   1.656
 4419W        W72824  40.573  25.643   1.149
 4420W        W72825  14.005  42.553   1.655
 4421W        W72826  40.349   5.194  12.011
 4422W        W72827  11.635  41.824   2.863
 4423W        W72828  26.208  21.581   2.772
 4424W        W72829   1.291  19.708   4.608
 4425W        W72830  15.735  40.526  11.501
 4426W        W72831   1.310  27.078   3.203
 4427W        W72832  38.593  42.459  11.882
 4428W        W72833  22.492  36.070   3.444
 4429W        W72834  30.497  16.744  11.268
 4430W        W72835  20.790  21.650   4.271
 4431W        W72836   5.263   0.449  14.478
 4432W        W72837  27.407  22.826   3.127
 4433W        W72838   1.850  17.078  11.078
 4434W        W72839  10.303  11.722  14.941
 4435W        W72840  25.430   6.438   2.839
 4436W        W72841   7.452   7.729  10.755
 4437W        W72842   7.394   9.387  10.721
 4438W        W72843  29.107  34.504  11.875
 4439W        W72844  15.112   8.858  12.484
 4440W        W72845  19.968  27.938   1.395
 4441W        W72846  18.336  18.011  14.801
 4442W        W72847   7.667  23.969   0.863
 4443W        W72848  34.607  35.451   3.487
 4444W        W72849  35.806   8.687   0.220
 4445W        W72850  33.186  31.071   3.844
 4446W        W72851   3.690  20.136  13.114
 4447W        W72852  13.801  33.846  13.887
 4448W        W72853  31.880  41.555   2.343
 4449W        W72854   0.023  38.459   1.005
 4450W        W72855  15.565  25.117  13.902
 4451W        W72856   7.242   8.788  11.251
 4452W        W72857  42.324  35.365  13.058
 4453W        W72858  40.542  39.206  12.436
 4454W        W72859  17.277  13.674  14.935
 4455W        W72860  41.975  44.396   0.219
 4456W        W72861  28.625  15.259   4.539
 4457W        W72862  32.299   6.806   3.080
 4458W        W72863  40.593  15.363   1.963
 4459W        W72864  10.184  35.499   0.210
 4460W        W72865   4.482  10.995   0.850
 4461W        W72866   6.094   4.998   4.868
 4462W        W72867  12.268   9.435   2.381
 4463W        W72868  40.279   1.816   1.308
 4464W        W72869   9.107  37.620   0.571
 4465W        W72870   0.752  20.324   1.152
 4466W        W72871  20.273   6.292   3.293
 4467W        W72872  39.852  15.826   0.412
 4468W        W72873  13.838  21.631   3.075
 4469W        W72874  17.353   9.742   4.556
 4470W        W72875   0.472  28.052  12.483
 4471W        W72876  32.741  14.216   0.458
 4472W        W72877  25.454  19.675   3.607
 4473W        W72878  32.079  43.888  13.080
 4474W        W72879   0.100  41.071   0.090
 4475W        W72880  30.329  12.286  10.896
 4476W        W72881  26.990  10.877  12.495
 4477W        W72882  44.735  43.333  12.491
 4478W        W72883  36.048   1.925   0.763
 4479W        W72884  34.347  32.578   1.241
 4480W        W72885  42.850  12.210  11.594
 4481W        W72886  43.740  22.186   2.613
 4482W        W72887  28.390  41.076   1.302
 4483W        W72888  27.347  13.867  13.562
 4484W        W72889  11.366   1.343   1.346
 4485W        W72890  42.402  40.589  12.244
 4486W        W72891  14.829  20.744  10.797
 4487W        W72892  29.884  28.263  13.353
 4488W        W72893  32.348  32.531   3.668
 4489W        W72894   6.168  42.896  14.424
 4490W        W72895   7.769  11.662   4.318
 4491W        W72896  36.472  39.312   4.763
 4492W        W72897  38.549  40.011   0.551
 4493W        W72898   5.696  39.863   2.212
 4494W        W72899  26.554   3.663  11.832
 4495W        W72900  37.025   1.922   1.333
 4496W        W72901  39.479  17.661  10.604
 4497W        W72902  40.777  38.848   4.085
 4498W        W72903  44.691  44.506  11.945
 4499W        W72904   1.199  19.493   2.151
 4500W        W72905  34.838  44.534   1.832
 4501W        W72906  13.081  37.787  10.746
 4502W        W72907  42.490   5.084   2.663
 4503W        W72908  34.383  11.311   2.740
 4504W        W72909  18.970  19.935  11.063
 4505W        W72910  33.883  39.987   4.711
 4506W        W72911  18.697  17.332   1.372
 4507W        W72912   0.292   6.314   4.685
 4508W        W72913  20.175   3.235   3.608
 4509W        W72914  30.744  29.676   4.707
 4510W        W72915   8.778   9.804  10.766
 4511W        W72916  25.131   9.846  13.003
 4512W        W72917  44.045  27.282   0.601
 4513W        W72918   8.352  22.007  10.752
 4514W        W72919  42.818  29.931   3.154
 4515W        W72920   8.139   4.098  11.701
 4516W        W72921   4.131  30.920   0.901
 4517W        W72922   6.806  24.154  13.132
 4518W        W72923   5.369   9.447   2.187
 4519W        W72924  33.891  22.297  13.322
 4520W        W72925   0.921  24.856   4.062
 4521W        W72926  13.018  39.476   2.364
 4522W        W72927  25.867  38.868  10.847
 4523W        W72928   0.116  43.305   4.346
 4524W        W72929  10.461  13.726   4.072
 4525W        W72930  19.145  34.934   3.984
 4526W        W72931  23.082  10.307  11.626
 4527W        W72932  31.443  33.595   1.417
 4528W        W72933   5.377  34.957   2.049
 4529W        W72934  17.187  11.093   3.173
 4530W        W72935  41.243  21.257  14.830
 4531W        W72936  31.939  42.346  11.029
 4532W        W72937  32.109   6.727   3.920
 4533W        W72938  30.489  15.826   4.787
 4534W        W72939  41.054  25.812  11.164
 4535W        W72940  20.321  16.220  12.998
 4536W        W72941   4.912  35.482  13.320
 4537W        W72942  33.501  13.686   1.245
 4538W        W72943  41.178  31.564  13.390
 4539W        W72944   4.963   1.284  14.585
 4540W        W72945  34.534  28.144   0.747
 4541W        W72946  34.863  28.729   3.615
 4542W        W72947  32.065  37.524   0.307
 4543W        W72948   1.524   9.985  12.952
 4544W        W72949  21.588  28.726  10.717
 4545W        W72950  13.732  35.495   1.831
 4546W        W72951  34.026  28.213   0.796
 4547W        W72952  41.310  25.040   4.156
 4548W        W72953  12.682  15.044   4.237
 4549W        W72954   4.379  24.747   4.635
 4550W        W72955  39.096  40.775  14.923
 4551W        W72956  30.079   4.455   0.765
 4552W        W72957  44.223  10.885  13.926
 4553W        W72958  29.694  43.018   3.188
 4554W        W72959  21.219  12.166  11.051
 4555W        W72960  37.844  43.751  10.745
 4556W        W72961  19.839  31.607  10.620
 4557W        W72962  28.553  44.379  13.753
 4558W        W72963  24.633  37.068   4.796
 4559W        W72964  23.986   4.221   0.714
 4560W        W72965  17.695  14.822   2.408
 4561W        W72966  25.742  39.398   3.686
 4562W        W72967  18.554  20.503   3.732
 4563W        W72968  18.939   8.363  12.580
 4564W        W72969  21.252  29.243  12.914
 4565W        W72970   9.210  25.125   0.458
 4566W        W72971  34.545  24.612   1.265
 4567W        W72972  31.738  43.946   1.908
 4568W        W72973   0.767   5.276  10.429
 4569W        W72974  32.015   4.125   1.894
 4570W        W72975   2.506   4.804  11.468
 4571W        W72976  27.625  23.795   0.242
 4572W        W72977  15.578  35.875  12.252
 4573W        W72978   7.465  38.614  12.540
 4574W        W72979  16.108  30.538  13.866
 4575W        W72980  21.195   0.839   3.633
 4576W        W72981  22.979  44.864   2.326
 4577W        W72982  43.048   1.382  11.958
 4578W        W72983  44.700   7.869  14.285
 4579W        W72984  38.510  11.106   4.622
 4580W        W72985  16.696  27.701   0.479
 4581W        W72986   8.833  31.227   0.953
 4582W        W72987  12.337   0.712   2.750
 4583W        W72988  12.236   8.674  13.526
 4584W        W72989  39.068  35.350  13.099
 4585W        W72990  19.569  17.787  14.954
 4586W        W72991  27.671  28.118   2.293
 4587W        W72992   9.858   7.004  11.952
 4588W        W72993   6.987  22.280  12.518
 4589W        W72994  24.936  27.417  14.790
 4590W        W72995  25.351  33.874  11.611
 4591W        W72996  34.658   1.801  10.847
 4592W        W72997  28.104  29.076  14.087
 4593W        W72998  44.342   4.975   3.159
 4594W        W72999  15.723  16.668   4.258
 4595W        W73000   0.459  30.574  14.356
 4596W        W73001   6.473  15.089   2.745
 4597W        W73002  44.051  36.087  14.033
 4598W        W73003  32.080  27.191   3.730
 4599W        W73004  40.438   0.213  14.905
 4600W        W73005   3.480   8.004  10.757
 4601W        W73006  24.615  10.064   2.986
 4602W        W73007  26.423  21.966  10.713
 4603W        W73008  32.948  13.363  11.964
 4604W        W73009  35.445  26.042  13.068
 4605W        W73010   7.663  15.243   3.181
 4606W        W73011  26.238  39.909  12.901
 4607W        W73012  21.826   2.881   2.355
 4608W        W73013  37.224   0.338   4.817
 4609W        W73014   2.271  19.850   1.363
 4610W        W73015  19.061  43.821  11.851
 4611W        W73016  38.307  36.384  11.985
 4612W        W73017  13.883  20.020  14.989
 4613W        W73018  10.657  32.098  10.833
 4614W        W73019   3.502  13.271  14.758
 4615W        W73020  23.557   0.135   1.244
 4616W        W73021  44.362   0.223   2.054
 4617W        W73022  36.382  27.859  13.087
 4618W        W73023   0.293  25.234  12.985
 4619W        W73024   7.726  31.120  14.371
 4620W        W73025  18.660   8.200  14.824
 4621W        W73026  11.636  42.287  11.962
 4622W        W73027  21.086  29.536   5.018
 4623W        W73028  44.099  38.884  10.484
 4624W        W73029  42.480  29.458  11.921
 4625W        W73030  17.745  29.138  13.000
 4626W        W73031  11.462  12.827   1.694
 4627W        W73032  22.521  44.698  13.490
 4628W        W73033  30.913  17.824   2.821
 4629W        W73034  12.828  35.267   2.598
 4630W        W73035  21.074  33.322   5.077
 4631W        W73036  38.539   4.842   2.265
 4632W        W73037   0.011   2.965  11.468
 4633W        W73038  39.813  32.325   1.520
 4634W        W73039  27.676  39.432   0.744
 4635W        W73040   4.929   4.961  10.193
 4636W        W73041  34.851   4.269   2.280
 4637W        W73042  14.280  22.100  14.569
 4638W        W73043   8.457   5.217  14.799
 4639W        W73044   0.690  34.687   5.191
 4640W        W73045  24.549  42.348  13.536
 4641W        W73046   0.764   0.466  10.662
 4642W        W73047   9.798  21.248  14.075
 4643W        W73048  41.757  16.190   0.484
 4644W        W73049  26.689  26.613   4.098
 4645W        W73050  21.278  30.865   1.261
 4646W        W73051   3.043  25.997   4.375
 4647W        W73052   9.726  44.719   4.625
 4648W        W73053  41.431  30.211   2.148
 4649W        W73054   8.643  21.264  14.933
 4650W        W73055  39.793  11.833   2.334
 4651W        W73056   2.087   9.815  10.062
 4652W        W73057   0.990  36.481  11.637
 4653W        W73058  26.525  36.392   2.867
 4654W        W73059  39.271   4.538   1.018
 4655W        W73060   4.362  39.937   0.768
 4656W        W73061  12.202  19.772   0.748
 4657W        W73062  30.576   9.062  13.344
 4658W        W73063   5.802  28.643  11.916
 4659W        W73064   8.781   5.932  13.560
 4660W        W73065  18.042  41.875   0.890
 4661W        W73066  25.933  20.975  10.684
 4662W        W73067   3.015  41.429  11.104
 4663W        W73068  20.464  38.998  12.286
 4664W        W73069  20.401  15.781   1.890
 4665W        W73070   4.655   3.605  10.149
 4666W        W73071   6.330  24.488  11.564
 4667W        W73072  28.499  43.592  13.875
 4668W        W73073  23.454   9.356  11.122
 4669W        W73074   0.191  22.568  12.281
 4670W        W73075  27.466  31.952  10.018
 4671W        W73076   9.110   9.605  11.115
 4672W        W73077  25.967   1.232  13.385
 4673W        W73078  37.070  20.421   4.222
 4674W        W73079  10.901  15.699  14.498
 4675W        W73080  19.303  43.444   0.008
 4676W        W73081  27.178  40.005  14.341
 4677W        W73082   5.820  25.491  10.835
 4678W        W73083  36.390  25.185  11.958
 4679W        W73084  14.767   9.395   3.718
 4680W        W73085  16.779  28.110  10.848
 4681W        W73086  30.014  32.317  11.039
 4682W        W73087   3.307  33.405   0.063
 4683W        W73088  36.601  16.168   2.050
 4684W        W73089  30.297  35.403   1.156
 4685W        W73090  13.131   8.310   4.611
 4686W        W73091  15.581  37.710   5.097
 4687W        W73092  12.732  14.018  14.505
 4688W        W73093  31.188  33.563  13.210
 4689W        W73094  24.724  18.397  14.266
 4690W        W73095   2.489   6.288  11.649
 4691W        W73096  27.725  13.179   0.450
 4692W        W73097   2.126  25.979  13.957
 4693W        W73098   3.350   0.790  12.166
 4694W        W73099  30.113  27.758  14.217
 4695W        W73100  22.513  33.410  10.666
 4696W        W73101  42.442  24.433  10.677
 4697W        W73102  28.096  27.215  14.450
 4698W        W73103  32.272   0.881  11.977
 4699W        W73104  36.887  44.592  13.516
 4700W        W73105  14.942  17.440   0.814
 4701W        W73106  40.616  28.520  14.851
 4702W        W73107  16.771  27.001   1.306
 4703W        W73108   5.877  40.293   0.538
 4704W        W73109  17.244  11.577   0.459
 4705W        W73110  28.437  40.562   1.357
 4706W        W73111  43.580  37.222   2.654
 4707W        W73112  11.614  10.315  12.829
 4708W        W73113  29.515  14.147  10.304
 4709W        W73114   6.509  30.956   2.207
 4710W        W73115  34.029  21.994  12.822
 4711W        W73116  19.159   6.901  14.703
 4712W        W73117  32.433  37.337   0.700
 4713W        W73118  20.013  42.227   1.186
 4714W        W73119  16.378  25.635  13.966
 4715W        W73120   5.228   7.816   1.242
 4716W        W73121  22.953  13.138   3.653
 4717W        W73122  24.925  40.311   4.083
 4718W        W73123  38.078  22.098  14.482
 4719W        W73124  38.084   2.397   2.166
 4720W        W73125   7.441  14.120  13.683
 4721W        W73126  32.578  18.352  13.121
 4722W        W73127  41.029  36.455  14.886
 4723W        W73128   0.530  20.138   0.209
 4724W        W73129  36.580  10.180   1.757
 4725W        W73130  15.150   0.504  12.036
 4726W        W73131  43.086   5.955  11.237
 4727W        W73132  32.879  22.677   3.190
 4728W        W73133  18.259  37.716   3.416
 4729W        W73134   6.896  23.916   0.430
 4730W        W73135  31.496  22.275  13.325
 4731W        W73136  43.315  31.174  14.850
 4732W        W73137  14.070  22.789   1.808
 4733W        W73138   6.701   4.237   2.772
 4734W        W73139  26.123  41.594   0.796
 4735W        W73140   9.798   6.504   3.273
 4736W        W73141   4.393  38.328  10.559
 4737W        W73142   2.868  13.317   3.763
 4738W        W73143  27.570  34.986   3.528
 4739W        W73144  27.089  22.821   1.656
 4740W        W73145  22.765  28.919   2.946
 4741W        W73146  15.186  22.506   0.847
 4742W        W73147   4.265  41.580  11.553
 4743W        W73148  18.046  41.912  12.800
 4744W        W73149  37.624  14.149   1.299
 4745W        W73150  37.510  38.387   0.479
 4746W        W73151  21.515  26.766  12.134
 4747W        W73152  32.130  29.984  13.139
 4748W        W73153  36.142  16.758   3.120
 4749W        W73154  13.372  14.838   2.697
 4750W        W73155  18.470  43.590   0.760
 4751W        W73156  40.591  31.868  11.688
 4752W        W73157  21.298  22.505   1.092
 4753W        W73158  21.030   3.391  12.344
 4754W        W73159  40.920  36.327  10.538
 4755W        W73160  19.802  39.357  10.674
 4756W        W73161  14.345  10.105  11.452
 4757W        W73162  12.111  14.283  12.560
 4758W        W73163   5.860  34.070  13.818
 4759W        W73164   3.617  19.678  14.863
 4760W        W73165  23.548  13.663  14.913
 4761W        W73166  36.949  41.328  14.454
 4762W        W73167  14.620  28.207   0.531
 4763W        W73168  21.600   2.724   0.553
 4764W        W73169   0.244  20.744  12.083
 4765W        W73170  15.363   6.766   1.840
 4766W        W73171  35.958   8.444  12.475
 4767W        W73172  41.418  21.605   4.458
 4768W        W73173   4.984  13.922  10.981
 4769W        W73174  29.518   4.810   0.778
 4770W        W73175  24.974  21.117   3.163
 4771W        W73176  30.257  21.115   4.268
 4772W        W73177  36.276  37.916  14.361
 4773W        W73178  37.054  30.761   3.626
 4774W        W73179  28.809  38.580   4.013
 4775W        W73180  36.796  44.197   0.723
 4776W        W73181  29.473  22.270   2.298
 4777W        W73182   9.925   7.361  12.907
 4778W        W73183  42.557  38.185   0.650
 4779W        W73184  12.365  34.890  12.000
 4780W        W73185  36.609   4.300   4.769
 4781W        W73186  17.497  24.795   2.603
 4782W        W73187   2.448  32.602   3.080
 4783W        W73188  26.047   6.752  13.414
 4784W        W73189  44.055  27.027   3.837
 4785W        W73190  37.280  14.383  11.951
 4786W        W73191  42.370  13.071  14.013
 4787W        W73192   9.401  38.585  11.483
 4788W        W73193   1.226  41.372  13.994
 4789W        W73194  18.018   9.448  13.719
 4790W        W73195  40.265   6.305  14.007
 4791W        W73196  19.643  27.421  11.945
 4792W        W73197  43.269  32.620  14.739
 4793W        W73198  20.452  30.575   4.608
 4794W        W73199   9.864   0.396  14.497
 4795W        W73200  12.936  37.519  12.930
 4796W        W73201  22.593  23.932   1.370
 4797W        W73202   9.219  20.733   2.374
 4798W        W73203  43.430   9.199  12.043
 4799W        W73204   6.222  24.489  10.656
 4800W        W73205  44.415  40.302   0.404
 4801W        W73206   4.967  31.097   1.378
 4802W        W73207  10.701   2.033   3.283
 4803W        W73208   4.681   1.454   3.639
 4804W        W73209   1.790  44.089  11.475
 4805W        W73210   7.127   6.980  12.959
 4806W        W73211  39.347  38.279  12.381
 4807W        W73212  34.025  25.912  10.435
 4808W        W73213  38.263  41.746   3.290
 4809W        W73214   1.772  29.084  13.121
 4810W        W73215  14.733   3.975  13.906
 4811W        W73216  32.965   9.401  13.573
 4812W        W73217  32.681  24.398  10.843
 4813W        W73218  30.088  30.073   2.747
 4814W        W73219   0.276  23.358  13.038
 4815W        W73220   8.810  10.164   1.728
 4816W        W73221  33.142  16.545   0.991
 4817W        W73222   0.548  21.748   2.711
 4818W        W73223  10.551   1.954   4.904
 4819W        W73224   0.451  26.462   4.642
 4820W        W73225  27.356  16.583   1.895
 4821W        W73226   1.213  43.039   0.613
 4822W        W73227   4.520  43.713  12.036
 4823W        W73228  28.712  44.820  13.524
 4824W        W73229  41.392  26.213  13.375
 4825W        W73230  44.444  31.586   2.889
 4826W        W73231  22.216  33.245   1.752
 4827W        W73232  18.216   4.313   1.381
 4828W        W73233   6.452  35.387   0.298
 4829W        W73234  23.271  11.398   0.023
 4830W        W73235   5.728   6.164   0.802
 4831W        W73236  23.630  18.092   2.968
 4832W        W73237  43.285   0.912  11.939
 4833W        W73238   0.382   7.159   5.000
 4834W        W73239  26.577  36.104  13.878
 4835W        W73240  28.040  10.128  11.007
 4836W        W73241  44.781   5.101  14.819
 4837W        W73242  21.685  14.116   0.188
 4838W        W73243  21.185  16.531  10.683
 4839W        W73244  41.505  13.476  12.584
 4840W        W73245  42.617  39.093  11.288
 4841W        W73246   7.774   0.266   0.004
 4842W        W73247  43.527  27.496  13.044
 4843W        W73248   5.524  31.154   2.248
 4844W        W73249  17.175  35.754   4.630
 4845W        W73250  40.995  18.132   2.334
 4846W        W73251  31.925   6.458  12.486
 4847W        W73252  40.776  23.701  13.941
 4848W        W73253  36.099  38.529  10.722
 4849W        W73254  36.000   8.155  11.258
 4850W        W73255  40.722  33.015   3.548
 4851W        W73256  30.997  27.907  12.567
 4852W        W73257  10.725   9.803  10.948
 4853W        W73258  20.771  18.107  10.720
 4854W        W73259  21.226  20.631  14.935
 4855W        W73260  39.023   0.415   3.932
 4856W        W73261  28.690  24.013  12.564
 4857W        W73262  42.712   2.795  13.005
 4858W        W73263  41.172  17.667   4.902
 4859W        W73264  35.829  32.887   0.570
 4860W        W73265   2.377  19.832  14.377
 4861W        W73266  19.913  40.872  12.884
 4862W        W73267  26.742  14.893   0.928
 4863W        W73268  18.232  17.575   4.587
 4864W        W73269  33.806  42.383   0.859
 4865W        W73270  23.147  27.341   3.403
 4866W        W73271  29.531  39.855   0.675
 4867W        W73272  21.029  21.257   4.507
 4868W        W73273   6.254  24.900   3.742
 4869W        W73274  42.169  41.424   3.532
 4870W        W73275  42.314  26.607   0.178
 4871W        W73276  34.567  41.283   4.687
 4872W        W73277   3.210  35.304   4.235
 4873W        W73278  33.020  43.094   0.881
 4874W        W73279  23.935  36.837   0.840
 4875W        W73280  13.172   5.116  11.648
 4876W        W73281  12.365  21.984  12.488
 4877W        W73282   9.116  22.529   3.176
 4878W        W73283  27.617  18.109  11.917
 4879W        W73284  28.416   4.489   4.145
 4880W        W73285  18.650  24.612  13.497
 4881W        W73286   5.807  20.523   1.749
 4882W        W73287  36.537  14.846  11.171
 4883W        W73288  44.058  14.320   4.719
 4884W        W73289  11.206  18.722   4.607
 4885W        W73290  32.939  11.692  14.829
 4886W        W73291  37.082  16.555  12.465
 4887W        W73292  12.283  37.348  11.147
 4888W        W73293  39.609   9.312  13.563
 4889W        W73294  33.784  40.372  12.955
 4890W        W73295  35.451  41.311  11.871
 4891W        W73296  12.069   4.986  11.158
 4892W        W73297  44.353  20.834  10.724
 4893W        W73298  33.108   8.700   4.413
 4894W        W73299  36.367  31.398  11.734
 4895W        W73300   8.424  32.811  12.423
 4896W        W73301  38.402  34.587  11.321
 4897W        W73302  34.503  26.975   2.989
 4898W        W73303  16.250   7.938   1.937
 4899W        W73304  23.961  21.501  12.995
 4900W        W73305   0.892  44.901  11.979
 4901W        W73306  21.844  40.286  13.356
 4902W        W73307  33.004  25.896   4.364
 4903W        W73308   6.501  41.094   3.175
 4904W        W73309  33.459  30.129  12.864
 4905W        W73310  26.651  37.348  10.009
 4906W        W73311  23.405  18.008  11.685
 4907W        W73312   6.945   6.141   4.504
 4908W        W73313  33.809  43.980  10.528
 4909W        W73314  29.397   4.416  10.716
 4910W        W73315  44.898   5.402   0.256
 4911W        W73316  32.944  42.762   4.850
 4912W        W73317   0.592  39.004   0.786
 4913W        W73318  40.042  14.789   1.664
 4914W        W73319   3.805  33.122   3.131
 4915W        W73320  42.771  20.456  11.575
 4916W        W73321   4.942  10.380   4.203
 4917W        W73322  23.360   6.695  11.544
 4918W        W73323  32.023  20.168   5.006
 4919W        W73324  36.485  35.236  12.893
 4920W        W73325   7.658  23.150  11.120
 4921W        W73326  25.930  42.730  12.079
 4922W        W73327  40.814  34.853   2.901
 4923W        W73328  42.327  30.699  11.494
 4924W        W73329   3.652  20.592  11.528
 4925W        W73330  36.174  20.988   0.841
 4926W        W73331  29.208  20.631   3.686
 4927W        W73332  16.683  18.367   1.351
 4928W        W73333  28.362  17.332   2.875
 4929W        W73334  18.722  44.951   3.634
 4930W        W73335   0.385   6.647  14.393
 4931W        W73336  16.648   4.874   4.347
 4932W        W73337  16.686  24.898  12.412
 4933W        W73338   9.936  33.502  14.807
 4934W        W73339  28.284  40.501  12.114
 4935W        W73340  40.826   7.703  13.615
 4936W        W73341  36.062   8.198   0.923
 4937W        W73342  35.052   9.180   1.365
 4938W        W73343  23.271  30.620   0.250
 4939W        W73344  16.077  25.628   4.681
 4940W        W73345  35.323   0.234  11.140
 4941W        W73346  10.142  31.695   4.165
 4942W        W73347  26.101  44.870   2.414
 4943W        W73348  25.805  35.876   4.953
 4944W        W73349  10.497  17.778   2.326
 4945W        W73350  10.820  40.464   4.825
 4946W        W73351  18.166  13.854   3.404
 4947W        W73352  26.961  21.717  14.948
 4948W        W73353  42.425  19.524   1.751
 4949W        W73354  39.480  16.127  10.401
 4950W        W73355   5.435  38.140   1.451
 4951W        W73356  18.788  35.370  14.795
 4952W        W73357  36.505   6.878   3.689
 4953W        W73358  33.636  33.303  12.778
 4954W        W73359  22.504  25.518  12.675
 4955W        W73360  24.467  26.465  12.072
 4956W        W73361  44.845  14.551  10.696
 4957W        W73362  40.573  25.132  14.520
 4958W        W73363  19.774  32.076   0.233
 4959W        W73364  37.891  44.210  13.161
 4960W        W73365  11.625  14.215  10.549
 4961W        W73366  26.392  23.507   2.658
 4962W        W73367  14.118  31.159  14.717
 4963W        W73368   7.226  43.893  12.137
 4964W        W73369  14.607  21.145   4.112
 4965W        W73370  22.026  22.857  12.138
 4966W        W73371  29.963  29.015  11.962
 4967W        W73372  10.746  34.310   2.969
 4968W        W73373  14.639  14.747   4.871
 4969W        W73374   5.388  12.750   4.589
 4970W        W73375  22.193  26.432   3.787
 4971W        W73376   5.232  38.582  11.883
 4972W        W73377  11.382  16.259   0.643
 4973W        W73378  12.554  22.078   2.845
 4974W        W73379  37.362  19.947   0.046
 4975W        W73380   3.282  32.559   4.650
 4976W        W73381  26.449  14.871  10.743
 4977W        W73382  20.280  29.972  12.842
 4978W        W73383  21.072  44.058  12.333
 4979W        W73384   0.328  16.818  12.882
 4980W        W73385  26.160  11.206   1.167
 4981W        W73386   1.196  37.019  10.574
 4982W        W73387  40.324  15.091   0.945
 4983W        W73388  12.718   5.374  12.486
 4984W        W73389  16.878   9.752   3.074
 4985W        W73390  18.554  22.140   4.402
 4986W        W73391  24.236  12.772   3.641
 4987W        W73392  17.355  17.272  10.756
 4988W        W73393  13.786   4.803   0.148
 4989W        W73394  22.838  30.003  12.247
 4990W        W73395  43.021  30.330  12.128
 4991W        W73396  21.513  23.882   3.995
 4992W        W73397   5.248   0.468   0.475
 4993W        W73398  30.856   7.124   4.129
 4994W        W73399  27.364   1.752   4.680
 4995W        W73400  42.828   4.245  11.618
 4996W        W73401  15.358  17.705  12.017
 4997W        W73402  14.567   7.211   4.614
 4998W        W73403  25.676   7.432   1.861
 4999W        W73404  31.894  43.262  13.844
 5000W        W73405   7.386  22.306  12.935
 5001W        W73406  39.489  20.962  11.180
 5002W        W73407  17.680  24.014  14.156
 5003W        W73408  28.194   1.811   1.841
 5004W        W73409  28.190  12.472  14.351
 5005W        W73410  35.660  34.189  12.685
 5006W        W73411  13.347   2.202   3.610
 5007W        W73412  25.207   7.741   0.217
 5008W        W73413   3.322  11.101  13.550
 5009W        W73414  42.772   5.789   2.612
 5010W        W73415  34.172  22.051  11.079
 5011W        W73416   1.297   0.243  12.816
 5012W        W73417   0.351  28.117   0.322
 5013W        W73418  36.387  31.501   3.226
 5014W        W73419   8.387   1.302  12.112
 5015W        W73420   4.782  10.850  12.577
 5016W        W73421  41.476   8.122   4.024
 5017W        W73422  36.570  37.955  13.952
 5018W        W73423  13.249  22.660  11.740
 5019W        W73424  16.371  36.906   1.911
 5020W        W73425  13.827  23.640   2.732
 5021W        W73426  11.210  16.093   2.158
 5022W        W73427   7.634  40.932   2.865
 5023W        W73428  42.408  42.847  12.311
 5024W        W73429  43.873   2.275  12.878
 5025W        W73430   2.131  25.541   3.882
 5026W        W73431   3.859   0.917   3.278
 5027W        W73432  41.015  44.805   4.155
 5028W        W73433  23.498   9.868   4.112
 5029W        W73434   5.635  39.626   1.259
 5030W        W73435   6.200  34.119   2.728
 5031W        W73436  31.820  41.254  11.903
 5032W        W73437  30.124  15.078  14.002
 5033W        W73438   7.005  24.659  12.288
 5034W        W73439  27.422  32.435  12.631
 5035W        W73440  20.226  37.524  10.268
 5036W        W73441  29.606  30.768   4.577
 5037W        W73442   5.629   6.006   0.233
 5038W        W73443  16.701   9.682  10.982
 5039W        W73444   0.675  39.580  12.625
 5040W        W73445  24.575  19.977  13.420
 5041W        W73446  44.250   2.235  10.669
 5042W        W73447   1.791  42.462  13.560
 5043W        W73448   9.840  39.911  13.060
 5044W        W73449  25.757  30.441   1.778
 5045W        W73450  19.730   7.929  14.033
 5046W        W73451  37.414  41.006  11.451
 5047W        W73452  30.026  21.516  12.174
 5048W        W73453  11.812  17.379   3.458
 5049W        W73454  29.153  34.951   3.059
 5050W        W73455  17.329  21.214   2.158
 5051W        W73456  30.337  16.313  10.451
 5052W        W73457  36.559  26.563   2.923
 5053W        W73458  36.309  19.583   2.865
 5054W        W73459   8.362   4.488   2.688
 5055W        W73460  31.315  34.820   2.620
 5056W        W73461  34.950  39.817   3.647
 5057W        W73462  44.018  36.838  12.382
 5058W        W73463  32.998  17.046   1.008
 5059W        W73464  11.675  29.524   0.721
 5060W        W73465  20.666   8.821  11.205
 5061W        W73466  16.451   1.016   4.188
 5062W        W73467  17.188   0.030  13.967
 5063W        W73468   1.017   3.554  11.211
 5064W        W73469  34.265   0.488   1.249
 5065W        W73470  31.585   9.472   0.319
 5066W        W73471   8.121  40.801  14.871
 5067W        W73472  28.565  12.827   4.839
 5068W        W73473  20.043  32.870  12.834
 5069W        W73474  16.992   1.777  14.367
 5070W        W73475  31.071  10.241   4.125
 5071W        W73476  32.947  14.528   0.102
 5072W        W73477   2.760  30.441   4.247
 5073W        W73478  19.775   0.853  13.308
 5074W        W73479  36.329  23.980   1.995
 5075W        W73480  44.139  13.330  12.479
 5076W        W73481   4.298   9.596  11.608
 5077W        W73482   6.181  25.917   4.717
 5078W        W73483  25.000  15.170   2.893
 5079W        W73484  33.748  39.160   4.136
 5080W        W73485  18.626  24.044   2.914
 5081W        W73486  34.031   1.538   3.644
 5082W        W73487  33.678  41.252  11.666
 5083W        W73488  20.304   0.471   3.749
 5084W        W73489   9.769  25.709  13.526
 5085W        W73490  43.853  39.234  11.599
 5086W        W73491  18.327   4.703   2.147
 5087W        W73492  44.321  22.548  13.318
 5088W        W73493  22.099  19.645   1.262
 5089W        W73494  38.695   7.433  14.367
 5090W        W73495  37.826   6.374  13.419
 5091W        W73496  40.379  28.253  11.534
 5092W        W73497  27.585  26.686   4.170
 5093W        W73498  22.837  39.843   1.028
 5094W        W73499  14.683  43.998  13.325
 5095W        W73500  37.164  30.104  11.538
 5096W        W73501  35.278  17.960   5.270
 5097W        W73502   2.002  15.789   0.460
 5098W        W73503  36.985  19.095   0.475
 5099W        W73504  19.163   2.214   0.803
 5100W        W73505  38.971  35.171  13.581
 5101W        W73506  31.421  19.806  14.959
 5102W        W73507   4.616  26.038  11.008
 5103W        W73508  17.931  11.386   3.246
 5104W        W73509  24.196  15.326  13.468
 5105W        W73510   9.209   1.489  11.130
 5106W        W73511   5.158  43.532  13.470
 5107W        W73512  16.479  36.904   4.932
 5108W        W73513  30.263  29.071   2.585
 5109W        W73514  12.611  41.986   3.729
 5110W        W73515  44.797  37.372   0.265
 5111W        W73516  30.100  22.753   3.299
 5112W        W73517  35.235  35.476  11.353
 5113W        W73518  27.147  33.936   1.316
 5114W        W73519  12.692  35.504   4.039
 5115W        W73520   9.073  31.252   2.681
 5116W        W73521  33.499  12.214  13.593
 5117W        W73522   7.855   8.681   1.962
 5118W        W73523  19.392   2.824   3.626
 5119W        W73524  41.759  12.216  11.185
 5120W        W73525   3.420  18.110  12.964
 5121W        W73526   7.271  44.906   0.949
 5122W        W73527  35.716  16.547  11.643
 5123W        W73528   6.842  17.370  14.822
 5124W        W73529  14.686  28.371  14.879
 5125W        W73530   0.446  34.752   0.673
 5126W        W73531  40.703  39.681   1.369
 5127W        W73532  26.042  25.612  14.986
 5128W        W73533  11.734   0.395  12.940
 5129W        W73534   6.863  39.463   1.767
 5130W        W73535  19.616  30.077   1.434
 5131W        W73536  35.989  20.569   4.125
 5132W        W73537   9.524  35.257  11.152
 5133W        W73538  24.246  23.594  14.336
 5134W        W73539  19.153  31.656  11.413
 5135W        W73540  15.956   2.795   4.152
 5136W        W73541  14.304  27.205   1.846
 5137W        W73542  15.648  29.440   4.823
 5138W        W73543  25.793  38.790   1.647
 5139W        W73544  35.578   2.503   2.247
 5140W        W73545  16.064  30.027   1.587
 5141W        W73546  33.125  42.347  10.763
 5142W        W73547  23.173  26.581  12.789
 5143W        W73548  35.914   4.699  11.866
 5144W        W73549  21.684  11.597   4.972
 5145W        W73550  38.002  27.952  12.074
 5146W        W73551  34.340  22.290   1.733
 5147W        W73552  33.532  35.556  11.970
 5148W        W73553  28.420  17.544  10.332
 5149W        W73554  22.874   2.744   1.640
 5150W        W73555  31.598  36.593   4.352
 5151W        W73556  15.467  40.837  13.746
 5152W        W73557   4.472   6.987  11.956
 5153W        W73558  26.936  26.076   3.360
 5154W        W73559   3.481  42.801   5.048
 5155W        W73560  43.927   5.447  11.686
 5156W        W73561  27.151  21.819  12.118
 5157W        W73562  28.394  21.260   0.022
 5158W        W73563  19.185  25.068   2.371
 5159W        W73564  28.653  24.046   0.423
 5160W        W73565  13.775  43.342  10.590
 5161W        W73566  20.845  10.573   3.310
 5162W        W73567  15.421  40.029   5.020
 5163W        W73568  39.548  29.580   1.903
 5164W        W73569  11.828  31.680   1.267
 5165W        W73570  27.224   6.146   4.579
 5166W        W73571  17.141  37.536  14.921
 5167W        W73572  41.511  28.002   3.294
 5168W        W73573  25.882  21.607  11.117
 5169W        W73574  34.089   0.225  12.498
 5170W        W73575  22.115  20.600   0.388
 5171W        W73576  16.531  15.516  13.442
 5172W        W73577  34.303  12.631  11.699
 5173W        W73578  23.115  32.937  12.887
 5174W        W73579  18.476  17.361  13.837
 5175W        W73580  19.108  40.806  12.498
 5176W        W73581  35.828   9.187   0.361
 5177W        W73582  34.778  28.009  14.340
 5178W        W73583   4.230  36.549   3.730
 5179W        W73584  17.477   1.220   1.941
 5180W        W73585  18.034  18.952   1.530
 5181W        W73586   1.091   5.345  14.957
 5182W        W73587  27.066  38.616   0.916
 5183W        W73588  42.870  17.001   4.141
 5184W        W73589  25.944  12.980  11.939
 5185W        W73590   8.706   3.961  10.795
 5186W        W73591  18.458  26.707   2.417
 5187W        W73592  35.292  22.614   2.650
 5188W        W73593  37.484  19.223  13.994
 5189W        W73594   5.831  31.043  10.736
 5190W        W73595  37.828  10.684  13.830
 5191W        W73596   5.269  33.023   4.587
 5192W        W73597  36.965  13.391  12.046
 5193W        W73598  43.820   1.357   2.122
 5194W        W73599   3.059  22.638  14.708
 5195W        W73600  17.746  26.455  14.897
 5196W        W73601  29.006  33.586   3.648
 5197W        W73602  34.500  23.232   0.351
 5198W        W73603   0.420  32.732   3.151
 5199W        W73604  22.023  29.957   0.344
 5200W        W73605  38.496  42.182  13.357
 5201W        W73606  39.173  43.950  12.418
 5202W        W73607  42.896  40.017   4.127
 5203W        W73608  16.101  36.910   2.799
 5204W        W73609  24.650  39.514   3.024
 5205W        W73610  30.658  13.607  13.393
 5206W        W73611  23.653  19.277  14.979
 5207W        W73612  32.504  36.942  14.406
 5208W        W73613  11.260  26.106  13.598
 5209W        W73614   0.384  27.242   3.475
 5210W        W73615  44.862  44.177   2.904
 5211W        W73616  15.057  24.738  12.306
 5212W        W73617  22.131  13.847  13.794
 5213W        W73618  12.255  39.093  14.992
 5214W        W73619  26.161  24.987   1.852
 5215W        W73620   7.226  15.368   3.803
 5216W        W73621  12.416  27.537  14.430
 5217W        W73622  23.566  12.467   2.316
 5218W        W73623  13.079  27.099  10.651
 5219W        W73624  23.146  18.975  11.919
 5220W        W73625  37.997  12.370  12.670
 5221W        W73626   0.241  42.473  10.513
 5222W        W73627  19.123  13.245  11.666
 5223W        W73628  28.795   0.736   3.377
 5224W        W73629  19.798  15.683  13.380
 5225W        W73630   5.869  39.749   3.660
 5226W        W73631  43.253  33.902  13.112
 5227W        W73632  18.409  19.628   0.866
 5228W        W73633  28.061  35.377   0.499
 5229W        W73634  36.150  39.867   2.341
 5230W        W73635  16.736  28.040  12.977
 5231W        W73636  15.692   7.435   5.200
 5232W        W73637   6.305  30.382   4.578
 5233W        W73638  36.092  40.942   4.177
 5234W        W73639   4.001  44.988   4.174
 5235W        W73640  28.456  32.510  10.596
 5236W        W73641  20.176  40.831  13.390
 5237W        W73642   6.142   9.671   4.110
 5238W        W73643  13.691  16.575  10.772
 5239W        W73644  18.306  27.933   4.451
 5240W        W73645  18.671   1.454  11.577
 5241W        W73646   6.825   5.459  11.646
 5242W        W73647   6.403  37.385   2.721
 5243W        W73648   6.754  27.743   3.946
 5244W        W73649  33.124  24.979  14.735
 5245W        W73650  21.617  39.303   0.113
 5246W        W73651  14.654   4.848  11.024
 5247W        W73652  31.341   5.203   4.508
 5248W        W73653   9.776  31.029   2.250
 5249W        W73654  11.050   2.829  12.508
 5250W        W73655  29.066   1.956   3.281
 5251W        W73656  38.354  42.654   2.290
 5252W        W73657  12.171  30.307   0.740
 5253W        W73658  38.364  28.695  11.011
 5254W        W73659  26.652  31.158  13.717
 5255W        W73660  40.561  40.072  11.139
 5256W        W73661   7.175  42.085   1.285
 5257W        W73662  30.009   7.598   4.239
 5258W        W73663  14.126  16.817   4.487
 5259W        W73664   7.175  44.862  12.688
 5260W        W73665   3.996  39.231  13.928
 5261W        W73666  22.131   6.763  14.227
 5262W        W73667  39.889  24.728  12.987
 5263W        W73668   8.165   1.864   1.985
 5264W        W73669  34.616  38.097  13.334
 5265W        W73670  14.637  24.541   0.578
 5266W        W73671   8.605   6.725  11.298
 5267W        W73672  12.838  33.125   0.367
 5268W        W73673   3.528  33.972   2.493
 5269W        W73674  25.592  12.788   1.221
 5270W        W73675  19.533  22.686  14.412
 5271W        W73676  40.896  41.513  14.887
 5272W        W73677  18.658  27.467  13.069
 5273W        W73678  10.642  28.441  12.049
 5274W        W73679  33.086  39.033  13.833
 5275W        W73680   6.709  14.633   2.850
 5276W        W73681   7.384  18.717   3.181
 5277W        W73682  20.375  39.327   0.600
 5278W        W73683  37.829  27.728  12.527
 5279W        W73684  23.392  11.892  12.829
 5280W        W73685  30.990  22.441   2.266
 5281W        W73686   5.102   8.207  13.259
 5282W        W73687  21.361   0.782  13.534
 5283W        W73688  14.992  41.427   3.190
 5284W        W73689   1.729  40.584   0.874
 5285W        W73690  35.155  21.626  13.307
 5286W        W73691  44.491  20.187  14.975
 5287W        W73692  41.225   1.973  13.381
 5288W        W73693  26.688  38.289   2.636
 5289W        W73694  15.647  33.390   3.688
 5290W        W73695  13.909  10.361   0.866
 5291W        W73696  20.554   2.220  10.445
 5292W        W73697  17.313  35.568  13.011
 5293W        W73698  44.524  11.623  14.595
 5294W        W73699  28.543  27.554   0.237
 5295W        W73700  29.523  33.465   2.947
 5296W        W73701  29.183  36.602  13.162
 5297W        W73702  31.318  43.746  13.623
 5298W        W73703   9.367  12.388   2.978
 5299W        W73704   1.501  15.970  11.924
 5300W        W73705  38.428  14.969   0.652
 5301W        W73706  37.821  12.648  11.966
 5302W        W73707  21.007  10.190  13.883
 5303W        W73708   0.315  16.738   3.600
 5304W        W73709  44.717  38.358   1.420
 5305W        W73710   7.581  38.968  14.025
 5306W        W73711  40.712  22.372   2.687
 5307W        W73712   0.791  12.996   1.589
 5308W        W73713  30.748  27.867   2.333
 5309W        W73714  19.224  34.454   0.657
 5310W        W73715   2.036  31.082  14.823
 5311W        W73716  28.727  33.223   3.393
 5312W        W73717  32.411   4.216  12.591
 5313W        W73718   4.766  34.129   2.851
 5314W        W73719  13.186   8.440   2.793
 5315W        W73720  35.036  11.818   2.275
 5316W        W73721  42.403  32.789   2.704
 5317W        W73722  26.248  33.875   2.874
 5318W        W73723  44.239  19.188  11.542
 5319W        W73724  19.254  19.727   1.361
 5320W        W73725   6.224  17.078   2.873
 5321W        W73726  44.390   0.996  14.234
 5322W        W73727  18.528  44.352  14.314
 5323W        W73728   6.314  37.973   4.800
 5324W        W73729  10.753  18.287  10.903
 5325W        W73730  11.223  19.134   0.852
 5326W        W73731  20.482   5.386  13.033
 5327W        W73732  38.590  28.482  14.901
 5328W        W73733  28.104  42.590  10.756
 5329W        W73734  42.956  40.224  12.862
 5330W        W73735  15.322  36.784  12.331
 5331W        W73736  34.024   0.459  11.990
 5332W        W73737   6.819  27.156  13.536
 5333W        W73738  24.526  27.422  12.122
 5334W        W73739  14.532  35.543   4.033
 5335W        W73740  14.749  13.921   0.826
 5336W        W73741  30.595   3.984   4.602
 5337W        W73742  34.624  20.188   2.785
 5338W        W73743  13.663  19.467  13.889
 5339W        W73744   2.646   1.800  13.517
 5340W        W73745  35.945  25.172   4.620
 5341W        W73746  10.239   6.862   1.161
 5342W        W73747  23.498  13.203   2.836
 5343W        W73748  24.028  25.855   2.449
 5344W        W73749  14.684  28.376   3.336
 5345W        W73750   3.168  32.307  12.235
 5346W        W73751   3.925  44.935  10.679
 5347W        W73752   3.404  44.754   1.284
 5348W        W73753  37.017   6.985  11.565
 5349W        W73754  34.833  44.098   4.756
 5350W        W73755  17.546   5.753  14.844
 5351W        W73756   2.999  38.329  12.286
 5352W        W73757  14.254  18.362   2.850
 5353W        W73758  41.884  30.104   3.886
 5354W        W73759  30.024  29.043  13.058
 5355W        W73760  40.404   6.822  10.768
 5356W        W73761   1.048  29.552  13.376
 5357W        W73762  43.538  27.014  13.510
 5358W        W73763  19.847  26.993   3.621
 5359W        W73764  30.708  34.574   0.678
 5360W        W73765  39.132  41.610  12.537
 5361W        W73766  37.529  38.569   1.957
 5362W        W73767  24.532   9.442  14.792
 5363W        W73768  32.631  33.858  10.590
 5364W        W73769  13.787  24.554  13.512
 5365W        W73770  21.493   2.053  11.729
 5366W        W73771  34.813   4.374  11.068
 5367W        W73772  36.615   9.188   3.114
 5368W        W73773   4.398   5.905   0.804
 5369W        W73774  25.055  11.698  11.728
 5370W        W73775  34.302   5.198  14.263
 5371W        W73776  28.720  32.442   3.002
 5372W        W73777   7.413  33.049  12.389
 5373W        W73778   2.720   7.790   2.843
 5374W        W73779  15.212  22.808   3.208
 5375W        W73780  24.131  19.121  10.535
 5376W        W73781   6.893  26.117  10.758
 5377W        W73782  37.098  17.300   4.695
 5378W        W73783  41.325  14.215   4.064
 5379W        W73784  22.931   1.030   2.859
 5380W        W73785  44.141   1.743  11.144
 5381W        W73786  42.746   5.502  13.343
 5382W        W73787  14.549  20.976   2.861
 5383W        W73788  27.587   6.280  11.538
 5384W        W73789   5.994   2.213  13.459
 5385W        W73790  34.520   0.229  10.696
 5386W        W73791  16.282  12.635   1.238
 5387W        W73792  24.363  32.437  12.083
 5388W        W73793  35.569  40.861  12.105
 5389W        W73794  40.027  12.191  14.808
 5390W        W73795  11.289  16.959  12.532
 5391W        W73796  32.711  39.152   1.782
 5392W        W73797  22.252  29.503  11.614
 5393W        W73798  19.258  25.805   2.923
 5394W        W73799  14.113  34.976   1.183
 5395W        W73800   1.498  39.841  12.504
 5396W        W73801  38.911  20.666  13.005
 5397W        W73802   4.286  39.249   4.323
 5398W        W73803   6.942  36.335   0.895
 5399W        W73804  10.200   9.451  14.398
 5400W        W73805  16.498  28.146  11.274
 5401W        W73806   7.199  18.592   2.684
 5402W        W73807  19.467  26.219   0.946
 5403W        W73808  28.015  15.972   1.230
 5404W        W73809  34.053  10.900  14.995
 5405W        W73810  22.771  26.657  10.304
 5406W        W73811  21.188  41.103  13.986
 5407W        W73812  40.804  23.367   2.611
 5408W        W73813  39.480   8.686   0.761
 5409W        W73814  26.528  15.058   4.088
 5410W        W73815  22.010  25.450  13.424
 5411W        W73816  16.585  41.069  13.039
 5412W        W73817  20.535  34.101   0.063
 5413W        W73818  35.067  29.879   2.576
 5414W        W73819   3.776  32.631  12.977
 5415W        W73820  11.916  40.622   3.141
 5416W        W73821   6.334  18.349  11.957
 5417W        W73822  10.895  43.383   1.297
 5418W        W73823  22.660  43.389   0.517
 5419W        W73824  33.406  15.266  11.671
 5420W        W73825  25.035  23.769   4.557
 5421W        W73826  37.459  31.831  10.858
 5422W        W73827  35.618  11.297   1.843
 5423W        W73828  40.479   9.413   0.268
 5424W        W73829  36.041   2.497  13.478
 5425W        W73830   0.296  19.713   0.413
 5426W        W73831  25.039  39.997  12.417
 5427W        W73832  32.000  18.162  10.675
 5428W        W73833  32.883  17.564  12.790
 5429W        W73834  35.183  41.543  13.362
 5430W        W73835  19.289  30.127   2.729
 5431W        W73836  24.300  15.971  11.181
 5432W        W73837  33.161  16.105  10.674
 5433W        W73838   6.618  12.676  11.180
 5434W        W73839  23.669  26.559  13.836
 5435W        W73840   9.420  22.782   2.843
 5436W        W73841  19.272  24.127  13.343
 5437W        W73842  31.155  43.523  10.667
 5438W        W73843  28.163  36.555   3.751
 5439W        W73844  18.592   1.358   2.738
 5440W        W73845  19.381  32.806  10.957
 5441W        W73846  32.397  10.194  12.972
 5442W        W73847  41.726  31.704   3.593
 5443W        W73848  20.539  11.446  10.947
 5444W        W73849  22.359  19.012   4.103
 5445W        W73850  36.964  28.553  13.303
 5446W        W73851  16.226   5.957   3.343
 5447W        W73852  28.614  26.424   0.633
 5448W        W73853  35.796  15.274   3.572
 5449W        W73854  27.441  13.399   4.230
 5450W        W73855  24.244  33.245   3.673
 5451W        W73856  22.939  16.418   4.072
 5452W        W73857  30.441   5.281   4.276
 5453W        W73858   5.858  29.881  11.222
 5454W        W73859  11.821  32.428  11.137
 5455W        W73860   6.874  26.113   3.591
 5456W        W73861  24.161  30.123   1.270
 5457W        W73862  42.949  38.616   0.304
 5458W        W73863  26.449  12.700  13.048
 5459W        W73864   5.475  15.213  11.635
 5460W        W73865  14.335  16.162   1.009
 5461W        W73866  31.642  15.057  11.048
 5462W        W73867  23.858  38.584   0.547
 5463W        W73868   9.771  33.482   4.410
 5464W        W73869  12.700  28.404   3.928
 5465W        W73870   5.724  24.231  14.062
 5466W        W73871  25.503  21.391  12.873
 5467W        W73872  29.606   4.951  13.021
 5468W        W73873  16.516  28.329  12.544
 5469W        W73874   8.319  11.245   0.006
 5470W        W73875   6.874  18.860  12.998
 5471W        W73876  33.180  31.082   2.270
 5472W        W73877  34.960  21.075   3.708
 5473W        W73878  24.491  21.651  14.024
 5474W        W73879  20.011  37.559  13.584
 5475W        W73880  20.758  19.596   0.950
 5476W        W73881  29.944  28.353   2.358
 5477W        W73882  21.769  26.492  12.498
 5478W        W73883  38.815  25.618  13.554
 5479W        W73884   3.302   6.111   1.254
 5480W        W73885   5.809  29.098   3.220
 5481W        W73886  38.121  23.728   0.183
 5482W        W73887   7.587  32.095  14.436
 5483W        W73888  39.068  36.189  11.667
 5484W        W73889  18.340  23.276  12.537
 5485W        W73890  40.258  11.194  11.124
 5486W        W73891  38.707  33.867   0.322
 5487W        W73892  43.257  19.120   2.668
 5488W        W73893  20.121  22.718  10.596
 5489W        W73894  28.075  26.181  14.777
 5490W        W73895  22.721  33.807   2.338
 5491W        W73896   7.422  40.938   3.361
 5492W        W73897  21.546  35.824  11.451
 5493W        W73898   2.577  21.786  14.956
 5494W        W73899  15.249  17.120  14.809
 5495W        W73900   3.523   0.236  14.917
 5496W        W73901  19.782  19.818  10.635
 5497W        W73902   7.904  23.789   4.702
 5498W        W73903  13.199  17.678  12.473
 5499W        W73904  24.957  24.577  12.479
 5500W        W73905  32.004  20.625   3.906
 5501W        W73906   1.713  42.057   1.256
 5502W        W73907   3.449  36.793  11.880
 5503W        W73908  12.744  18.152  13.044
 5504W        W73909  11.527  44.943  14.733
 5505W        W73910  22.547  24.009   4.527
 5506W        W73911  36.753  17.889   2.220
 5507W        W73912  35.469  20.518   4.169
 5508W        W73913  40.247  15.573   1.186
 5509W        W73914   1.640  38.352  11.678
 5510W        W73915  33.317  21.349   0.726
 5511W        W73916  30.832   3.995  13.221
 5512W        W73917  10.887  43.265   4.278
 5513W        W73918  21.975  19.236   2.507
 5514W        W73919  33.901   1.348  11.854
 5515W        W73920  15.243  43.293  15.000
 5516W        W73921  20.108  18.596   4.405
 5517W        W73922   1.390  26.052  11.122
 5518W        W73923   7.298  15.471   2.847
 5519W        W73924  22.274   7.056   4.266
 5520W        W73925  41.749  14.693   1.268
 5521W        W73926  34.533  35.583   4.410
 5522W        W73927   0.908  22.171   1.944
 5523W        W73928   1.508  29.885  14.015
 5524W        W73929  20.736  10.693   2.390
 5525W        W73930  27.983  40.290  11.181
 5526W        W73931   3.402  28.173   4.019
 5527W        W73932  15.052   1.263  11.569
 5528W        W73933  13.871  33.092  11.100
 5529W        W73934  25.704  13.328  11.625
 5530W        W73935   0.209   2.822  13.847
 5531W        W73936  36.354  17.616   4.296
 5532W        W73937  19.779  15.803   0.311
 5533W        W73938  26.028  37.358  13.545
 5534W        W73939  39.343  30.955  11.084
 5535W        W73940  25.120  41.385   0.104
 5536W        W73941   4.963  44.823   1.300
 5537W        W73942  22.610  23.007   4.864
 5538W        W73943  41.563  17.518  13.144
 5539W        W73944  13.408  38.096   1.754
 5540W        W73945   7.226  40.269  10.608
 5541W        W73946  20.305  23.130  14.341
 5542W        W73947  12.800  22.656  14.040
 5543W        W73948  40.884   0.712  10.372
 5544W        W73949  32.433  25.199  12.434
 5545W        W73950  32.083   6.133   0.630
 5546W        W73951  27.171  19.513   3.573
 5547W        W73952  42.796  26.422   0.033
 5548W        W73953  20.741  20.146  11.538
 5549W        W73954  27.285  25.264   0.370
 5550W        W73955   8.665  28.238  11.167
 5551W        W73956  12.142   5.979  10.922
 5552W        W73957  39.573  31.708  11.480
 5553W        W73958  18.661  32.161  12.969
 5554W        W73959  29.469   0.948  11.991
 5555W        W73960  29.441  21.644   2.210
 5556W        W73961  38.566   6.941  14.488
 5557W        W73962  39.132  37.964  11.992
 5558W        W73963  18.769  12.074   4.114
 5559W        W73964   7.710  43.283   0.774
 5560W        W73965   9.068  30.750  11.618
 5561W        W73966   2.140   3.331  12.486
 5562W        W73967  14.167  23.701   0.200
 5563W        W73968  35.841  39.540  10.721
 5564W        W73969  26.374  30.916   3.652
 5565W        W73970  21.481  17.481  14.984
 5566W        W73971   8.008  13.152   2.834
 5567W        W73972   0.829  15.574  10.870
 5568W        W73973  32.297  33.413  14.515
 5569W        W73974  36.058  36.160  12.118
 5570W        W73975  38.950  19.681  13.462
 5571W        W73976  38.844   4.759  11.204
 5572W        W73977  40.329   7.608  11.783
 5573W        W73978   0.393  14.500   3.809
 5574W        W73979   6.113   9.127  11.914
 5575W        W73980  29.408  36.908  11.481
 5576W        W73981  35.543  14.389   2.567
 5577W        W73982   0.431  43.986   2.181
 5578W        W73983  23.322  44.151  14.877
 5579W        W73984  11.147   0.476   1.291
 5580W        W73985  31.767   0.311  12.847
 5581W        W73986   8.802  36.056   2.879
 5582W        W73987   3.321  10.241  13.164
 5583W        W73988  40.340  17.097  13.117
 5584W        W73989  40.232  13.688  11.628
 5585W        W73990  29.042  38.813  11.967
 5586W        W73991   0.461  15.716  11.213
 5587W        W73992  13.215  40.096   2.769
 5588W        W73993  16.786  42.480   2.085
 5589W        W73994   4.880  15.541  13.585
 5590W        W73995   1.603   8.210  11.973
 5591W        W73996  14.546  21.160  12.829
 5592W        W73997   1.429   7.096   4.198
 5593W        W73998  37.068  32.085   4.151
 5594W        W73999  11.802  23.040  10.692
 5595W        W74000  36.554   6.129   3.394
 5596W        W74001  24.671  16.268   4.501
 5597W        W74002  39.306  10.604  14.940
 5598W        W74003   8.665  42.929   4.139
 5599W        W74004   2.817  15.847  11.176
 5600W        W74005   8.476  10.264  13.432
 5601W        W74006   4.484   6.724   0.308
 5602W        W74007  10.530  24.246  12.567
 5603W        W74008   8.294   6.237   1.895
 5604W        W74009   5.475  41.806   0.880
 5605W        W74010  19.526  10.692   2.898
 5606W        W74011  35.804  20.815   3.243
 5607W        W74012  43.201  39.031  13.333
 5608W        W74013  22.009  10.687  14.498
 5609W        W74014  20.501  11.407  12.408
 5610W        W74015   3.949  43.366  14.507
 5611W        W74016   1.823  36.405  14.491
 5612W        W74017  35.854  25.494  14.477
 5613W        W74018  14.258  35.721   3.620
 5614W        W74019  27.922   6.807  14.233
 5615W        W74020  37.599   7.502   3.765
 5616W        W74021  38.655  34.777   5.120
 5617W        W74022  12.819   4.245   3.297
 5618W        W74023  33.473  34.027   1.615
 5619W        W74024  35.484  36.386   4.305
 5620W        W74025   1.378   4.302  11.389
 5621W        W74026  23.255  30.532  12.856
 5622W        W74027  14.707  31.013  13.023
 5623W        W74028  26.771  22.136  12.881
 5624W        W74029  23.197   4.476  14.051
 5625W        W74030  40.961  37.649  11.997
 5626W        W74031  35.357  39.104   4.252
 5627W        W74032   2.617   8.850   5.083
 5628W        W74033  18.052  25.750  11.659
 5629W        W74034   6.954  12.767  12.063
 5630W        W74035   8.215  38.312   5.027
 5631W        W74036   7.843  37.387  13.332
 5632W        W74037  16.509   4.388  14.343
 5633W        W74038  19.105  11.881  12.015
 5634W        W74039  15.623  39.434   2.312
 5635W        W74040  27.511  41.793   0.792
 5636W        W74041  18.569  34.967   1.613
 5637W        W74042  42.529  37.626   2.799
 5638W        W74043  20.729  27.529   4.821
 5639W        W74044  19.722   1.793  14.506
 5640W        W74045  41.953  16.974  11.984
 5641W        W74046  23.150  23.191  13.343
 5642W        W74047   1.256   3.835  14.389
 5643W        W74048   7.767   6.795   1.962
 5644W        W74049  28.792  23.496  12.543
 5645W        W74050  14.719  43.905   0.390
 5646W        W74051  21.803  25.184  14.750
 5647W        W74052  13.376  36.626   4.110
 5648W        W74053   6.447   2.816  12.898
 5649W        W74054  10.365  25.658   1.346
 5650W        W74055   6.738  34.052   1.178
 5651W        W74056  26.785  29.387  10.671
 5652W        W74057  32.761   5.102   0.254
 5653W        W74058  29.261  32.038   0.046
 5654W        W74059  35.469  25.198   3.278
 5655W        W74060  24.116   4.981  10.283
 5656W        W74061  29.660  42.703   4.130
 5657W        W74062  38.335  24.700  14.293
 5658W        W74063  43.414  33.631  11.741
 5659W        W74064  23.127  15.754   1.429
 5660W        W74065  37.177  41.215  12.250
 5661W        W74066  38.683   6.815   0.514
 5662W        W74067  31.018  40.951  12.838
 5663W        W74068   5.928   0.078  14.334
 5664W        W74069  27.549  21.002   0.573
 5665W        W74070  29.099   8.186  12.643
 5666W        W74071  31.852  32.453  11.589
 5667W        W74072  23.653  36.548  13.008
 5668W        W74073  35.073  22.755  13.947
 5669W        W74074  21.171   9.110  14.508
 5670W        W74075  37.168   5.604   0.849
 5671W        W74076  10.597  33.702   4.497
 5672W        W74077  30.704   4.500   4.700
 5673W        W74078  18.269  39.270  11.964
 5674W        W74079  17.270   8.196  12.126
 5675W        W74080  19.044  27.182   4.328
 5676W        W74081  13.510  24.968   4.569
 5677W        W74082  17.811  35.321   2.221
 5678W        W74083  16.123   9.718   4.876
 5679W        W74084  23.082   1.420   1.142
 5680W        W74085  21.636  20.269  11.194
 5681W        W74086   3.319  33.610  12.553
 5682W        W74087  34.591  36.251   2.863
 5683W        W74088  34.033   5.427  11.904
 5684W        W74089  14.638  20.197  13.262
 5685W        W74090  35.517   5.085   4.649
 5686W        W74091  20.648  31.668  12.662
 5687W        W74092  33.251  22.573   2.606
 5688W        W74093  44.568  41.697   3.199
 5689W        W74094   4.301   6.165  14.644
 5690W        W74095  33.065  15.735  14.580
 5691W        W74096   2.400  20.851   0.309
 5692W        W74097  24.006  19.086   0.923
 5693W        W74098   3.771  31.824  10.262
 5694W        W74099  31.580   1.576   4.929
 5695W        W74100   1.774  29.606   3.904
 5696W        W74101  29.697   3.892  14.087
 5697W        W74102  39.035   5.546  13.530
 5698W        W74103  43.389  24.679  12.408
 5699W        W74104  31.597   5.205  14.222
 5700W        W74105  34.333  15.136   3.810
 5701W        W74106  40.859  37.493   2.938
 5702W        W74107  24.666  13.862   4.200
 5703W        W74108   0.340   5.106  14.307
 5704W        W74109  34.029  33.461   3.711
 5705W        W74110   3.874   6.731  11.385
 5706W        W74111  24.323   4.815  10.725
 5707W        W74112  27.891  16.256   0.814
 5708W        W74113  13.143  31.507  14.145
 5709W        W74114  24.956  20.997   1.688
 5710W        W74115  20.197  43.981   4.285
 5711W        W74116   6.446  37.794   2.306
 5712W        W74117   2.978  26.454  13.981
 5713W        W74118  41.852   1.380   0.918
 5714W        W74119  39.138  19.534   2.400
 5715W        W74120  25.988  40.377   1.288
 5716W        W74121  44.950  14.770  11.214
 5717W        W74122  24.579  31.729  14.289
 5718W        W74123  13.316  21.537   1.284
 5719W        W74124  13.807   4.757   4.309
 5720W        W74125  26.687  10.589  14.083
 5721W        W74126  30.650  44.359   1.464
 5722W        W74127   6.404  17.546   3.774
 5723W        W74128   1.999   3.006   3.667
 5724W        W74129  38.091  28.202  14.212
 5725W        W74130  21.453  32.493  10.889
 5726W        W74131  17.595   4.193  12.866
 5727W        W74132  38.360  26.796   2.663
 5728W        W74133  16.497  20.295  10.699
 5729W        W74134  24.573  40.868   3.237
 5730W        W74135   7.329   4.593  12.774
 5731W        W74136  34.010  42.727   1.231
 5732W        W74137  34.921  21.546  13.757
 5733W        W74138  18.271  44.950  14.103
 5734W        W74139  35.026  27.742  14.841
 5735W        W74140   7.943  38.482   1.900
 5736W        W74141  23.954  21.980   0.035
 5737W        W74142   8.805   6.715   4.584
 5738W        W74143   1.224  33.110   4.157
 5739W        W74144  37.817  19.807  12.883
 5740W        W74145  18.354  31.779  10.239
 5741W        W74146  39.875  10.197  10.666
 5742W        W74147   5.602   8.744  13.764
 5743W        W74148  37.321  25.433   2.286
 5744W        W74149   0.606  38.328  11.998
 5745W        W74150  20.251  37.983   2.735
 5746W        W74151  23.533  30.207  11.468
 5747W        W74152  26.437   7.808   1.822
 5748W        W74153  39.547  30.077  10.859
 5749W        W74154   6.354  31.946  10.995
 5750W        W74155   8.632   9.159   4.610
 5751W        W74156   3.522  32.466  13.953
 5752W        W74157  21.485   6.117  12.498
 5753W        W74158  16.209  16.338  12.580
 5754W        W74159  24.645  44.299   4.885
 5755W        W74160  22.623  32.443  12.835
 5756W        W74161  24.873  17.191  13.973
 5757W        W74162  21.102  35.641   4.143
 5758W        W74163  33.399   3.675   2.775
 5759W        W74164  13.145  14.108  13.830
 5760W        W74165  41.676   5.709   2.624
 5761W        W74166  29.318  44.189  13.120
 5762W        W74167  13.314  12.559   4.909
 5763W        W74168  42.490  35.819   1.914
 5764W        W74169  34.924  20.315  14.429
 5765W        W74170  43.411  14.460   0.483
 5766W        W74171  28.035  17.346  12.054
 5767W        W74172  18.325  32.494  10.599
 5768W        W74173  34.182  12.051   3.221
 5769W        W74174  33.369  44.322  13.323
 5770W        W74175  20.956  27.548  11.958
 5771W        W74176  34.640  40.425  10.635
 5772W        W74177  14.673  18.227   0.914
 5773W        W74178  33.361   2.258  14.027
 5774W        W74179  18.010   9.343   0.884
 5775W        W74180  13.296   6.321   5.235
 5776W        W74181  34.444  30.612   0.437
 5777W        W74182  28.131  31.495   4.633
 5778W        W74183  25.412  10.281  13.053
 5779W        W74184  42.230  22.567   1.764
 5780W        W74185  19.729  32.112  10.571
 5781W        W74186   1.902  44.415  10.680
 5782W        W74187  14.845  14.840  12.974
 5783W        W74188  19.931  37.566   0.776
 5784W        W74189  42.266   7.504   4.123
 5785W        W74190  40.774  22.511   4.454
 5786W        W74191  15.233  33.685   1.799
 5787W        W74192   6.478  13.002   0.309
 5788W        W74193  39.973  27.563  14.957
 5789W        W74194  11.122  26.641  13.065
 5790W        W74195  24.469  30.589  14.369
 5791W        W74196  15.490  10.791   0.057
 5792W        W74197  18.575  28.473  11.417
 5793W        W74198  16.371  13.331  13.561
 5794W        W74199  36.934  39.400   2.612
 5795W        W74200  36.100  17.598  13.457
 5796W        W74201  34.439  17.582  11.562
 5797W        W74202  42.292  35.462  11.128
 5798W        W74203  39.461  38.964  11.701
 5799W        W74204  18.675  27.632  12.039
 5800W        W74205  18.454  26.493  13.011
 5801W        W74206  24.734   3.248   1.489
 5802W        W74207  16.365  20.188   2.229
 5803W        W74208  11.115  16.642   3.575
 5804W        W74209   2.468  38.967  10.448
 5805W        W74210  39.745  26.693   4.986
 5806W        W74211  11.576  40.134   1.041
 5807W        W74212  33.452  34.959   0.434
 5808W        W74213   5.237   3.704   0.423
 5809W        W74214  35.889  33.608  14.457
 5810W        W74215   0.417  33.904   1.951
 5811W        W74216  27.684  12.297   3.666
 5812W        W74217   5.672   1.854  12.859
 5813W        W74218  37.233   2.833  10.187
 5814W        W74219  18.313  37.003  12.165
 5815W        W74220  13.671  35.151  12.446
 5816W        W74221  11.792  42.568  12.993
 5817W        W74222  28.915  32.042  11.537
 5818W        W74223  34.486  23.924  11.553
 5819W        W74224  34.524  33.949   3.409
 5820W        W74225  15.583  34.482   3.542
 5821W        W74226   5.334  42.580  11.528
 5822W        W74227  24.492  17.800  12.349
 5823W        W74228  23.707  43.778   2.862
 5824W        W74229   9.836  21.157  12.648
 5825W        W74230   4.036  14.804  14.435
 5826W        W74231  12.405  33.691  12.445
 5827W        W74232  12.178  37.388   2.719
 5828W        W74233   7.210  39.935  11.915
 5829W        W74234  24.509  39.009  12.492
 5830W        W74235  27.524   3.261  12.347
 5831W        W74236  34.272   2.697  13.760
 5832W        W74237  18.946  29.173  10.781
 5833W        W74238  40.958  27.780  12.590
 5834W        W74239   6.826  30.238  14.844
 5835W        W74240   9.332  34.562  14.932
 5836W        W74241  22.167  43.309   2.341
 5837W        W74242  23.616  21.718   3.767
 5838W        W74243  25.633  27.344   3.332
 5839W        W74244  13.586   7.919   1.211
 5840W        W74245   5.444  14.724  13.022
 5841W        W74246   0.023  34.822  13.969
 5842W        W74247  37.855  36.060   0.464
 5843W        W74248  15.614  31.199  12.858
 5844W        W74249  12.234  40.391  10.632
 5845W        W74250  36.529  26.331  13.966
 5846W        W74251  34.487  30.999  12.757
 5847W        W74252   4.394  30.447  13.905
 5848W        W74253  15.907  32.469  14.766
 5849W        W74254  40.966  12.934   0.102
 5850W        W74255  28.274  13.229   3.303
 5851W        W74256  41.511  14.917  11.333
 5852W        W74257  44.300  41.961   3.615
 5853W        W74258  26.166  25.738  12.439
 5854W        W74259   8.433  27.470  11.453
 5855W        W74260  33.686  14.277   1.874
 5856W        W74261  35.499   4.699   0.422
 5857W        W74262  19.171  18.544  12.916
 5858W        W74263   4.059  39.306  11.482
 5859W        W74264  28.099  40.543   3.757
 5860W        W74265   1.514  14.127   0.441
 5861W        W74266  44.363  31.003  11.629
 5862W        W74267  27.471  10.816   3.417
 5863W        W74268  40.358   8.218   4.721
 5864W        W74269  36.752  44.206   3.591
 5865W        W74270  15.832  42.316   2.670
 5866W        W74271  24.523  24.135  13.537
 5867W        W74272  40.574   5.002  11.107
 5868W        W74273  39.948  41.053   1.249
 5869W        W74274  27.633  42.870  11.355
 5870W        W74275  15.506  41.027  14.263
 5871W        W74276  10.543  30.566   2.403
 5872W        W74277  43.008  10.781   3.147
 5873W        W74278  40.419  12.850   3.060
 5874W        W74279  19.409  10.329   1.190
 5875W        W74280  33.424  20.678   1.035
 5876W        W74281   7.309  26.595   4.144
 5877W        W74282  11.512   1.887  11.694
 5878W        W74283  42.549  28.248   1.412
 5879W        W74284  30.628  32.552  14.545
 5880W        W74285  21.244   0.392  10.885
 5881W        W74286  41.943   3.214  11.538
 5882W        W74287  40.433  40.915   0.981
 5883W        W74288   2.476  10.868   4.929
 5884W        W74289   4.629  19.138  12.485
 5885W        W74290  25.062  34.107   3.270
 5886W        W74291  43.761  19.723  12.002
 5887W        W74292  25.656  39.328  10.632
 5888W        W74293  37.922  41.348  13.085
 5889W        W74294  42.860  37.552   0.254
 5890W        W74295  36.623  22.615  14.820
 5891W        W74296  14.923  44.250  11.040
 5892W        W74297  39.881  22.753  14.691
 5893W        W74298  29.772   7.867  10.596
 5894W        W74299   6.295   5.612  13.685
 5895W        W74300  12.053  22.138   2.202
 5896W        W74301  30.978  21.747  13.715
 5897W        W74302  19.625  27.901  13.530
 5898W        W74303  30.331  44.335  13.105
 5899W        W74304  43.923  30.649  12.249
 5900W        W74305  15.860  43.508  12.156
 5901W        W74306  28.322   5.910  12.203
 5902W        W74307   9.703  36.456  13.835
 5903W        W74308  36.509  44.300  10.460
 5904W        W74309  39.789  31.326   3.340
 5905W        W74310  35.369   8.981   0.205
 5906W        W74311  32.517  37.616   3.560
 5907W        W74312  28.768   6.651   1.949
 5908W        W74313  22.046   9.689  14.639
 5909W        W74314   0.381   0.364  14.909
 5910W        W74315   8.893  17.983   2.228
 5911W        W74316  37.587  38.877  13.069
 5912W        W74317  43.481  11.534  13.388
 5913W        W74318   9.961   7.722  13.379
 5914W        W74319  37.009  11.217  12.877
 5915W        W74320  42.528   5.223   1.821
 5916W        W74321  30.606   7.211  10.224
 5917W        W74322  16.753  21.218  14.465
 5918W        W74323  27.738  39.529   4.297
 5919W        W74324  39.010   2.865  14.044
 5920W        W74325  38.584  28.507  13.380
 5921W        W74326  20.576  33.673   4.174
 5922W        W74327  12.191  24.712  13.001
 5923W        W74328  20.692  21.039  11.666
 5924W        W74329  38.572  34.505   1.281
 5925W        W74330  26.487  14.161   0.073
 5926W        W74331  30.775   5.697  11.355
 5927W        W74332  44.460  16.817   4.843
 5928W        W74333  36.592  18.216   3.790
 5929W        W74334  44.430  35.334   1.722
 5930W        W74335  19.244  37.333  11.676
 5931W        W74336  17.073  21.270  11.707
 5932W        W74337  41.580   3.332   2.241
 5933W        W74338   9.552  21.987   0.937
 5934W        W74339  26.033  39.904   9.757
 5935W        W74340  11.711  37.045  14.972
 5936W        W74341  18.568  14.187   0.773
 5937W        W74342  40.019  10.926  14.222
 5938W        W74343  38.314  43.449   2.707
 5939W        W74344  43.366  11.337   1.684
 5940W        W74345   7.600  16.695  11.515
 5941W        W74346  18.096   2.375   3.742
 5942W        W74347  30.911  38.895   0.930
 5943W        W74348  24.213  20.040  10.693
 5944W        W74349  20.604  31.639   0.774
 5945W        W74350  43.765   8.391   1.345
 5946W        W74351  25.831  15.760   2.826
 5947W        W74352  36.507   2.729   1.709
 5948W        W74353  23.036  37.036  14.362
 5949W        W74354  27.597  34.435   0.359
 5950W        W74355  27.990  32.359   0.328
 5951W        W74356   1.461  32.128  12.952
 5952W        W74357  23.714  35.480  13.887
 5953W        W74358  28.114   4.879   3.272
 5954W        W74359  19.158  37.128   2.195
 5955W        W74360  13.145  37.583   3.541
 5956W        W74361  33.071  28.424   1.747
 5957W        W74362  28.262  38.512   1.373
 5958W        W74363  38.395  19.703  12.068
 5959W        W74364   6.294  25.627   3.219
 5960W        W74365   0.230  24.728  13.995
 5961W        W74366  21.095  15.781  12.511
 5962W        W74367  10.647  19.234   3.333
 5963W        W74368  14.579  29.050  11.898
 5964W        W74369  44.957  12.644   1.331
 5965W        W74370  31.143  33.128  10.807
 5966W        W74371  10.123   5.378  13.902
 5967W        W74372   9.889  44.480   4.184
 5968W        W74373  32.517  14.599  12.131
 5969W        W74374   2.846  44.997   2.917
 5970W        W74375  37.654  14.351   4.172
 5971W        W74376  30.988  30.413   0.528
 5972W        W74377  22.054  19.014  12.467
 5973W        W74378  28.580  26.061  11.512
 5974W        W74379  17.300  36.433  10.790
 5975W        W74380  26.703  32.795  12.125
 5976W        W74381  38.046  27.707   2.756
 5977W        W74382   0.177   5.392   1.832
 5978W        W74383  34.093  10.241  13.458
 5979W        W74384  21.605   0.458   4.813
 5980W        W74385   7.509  17.341  13.607
 5981W        W74386  17.079  22.569   0.531
 5982W        W74387  24.708   7.563  11.967
 5983W        W74388  31.130  19.814  13.789
 5984W        W74389  29.941  30.065  11.063
 5985W        W74390  24.618  35.129   1.306
 5986W        W74391  40.391  17.733   1.593
 5987W        W74392  12.883   0.675   1.309
 5988W        W74393  14.993  26.180   0.297
 5989W        W74394  18.024  20.565  14.982
 5990W        W74395  44.979  12.614  12.367
 5991W        W74396  15.230  23.784   4.144
 5992W        W74397  41.014  41.776   1.344
 5993W        W74398  29.282  20.950   4.379
 5994W        W74399  15.730  11.141   3.618
 5995W        W74400   2.016  31.307   2.861
 5996W        W74401  28.104  28.231   3.533
 5997W        W74402   5.765  19.189   4.311
 5998W        W74403   5.197  15.830  13.993
 5999W        W74404   5.283  27.502   0.532
 6000W        W74405  36.045  22.672  10.501
 6001W        W74406  23.006  11.169  12.390
 6002W        W74407  33.214  38.332  12.090
 6003W        W74408   3.657  18.133   1.806
 6004W        W74409  35.014   8.248   2.589
 6005W        W74410   2.939  44.896  12.468
 6006W        W74411  32.520  20.652  11.613
 6007W        W74412  31.441  25.523   0.503
 6008W        W74413  10.486  19.134   3.800
 6009W        W74414  42.736  16.067   3.220
 6010W        W74415  26.063  23.204   2.356
 6011W        W74416  16.814  31.957   2.795
 6012W        W74417  12.619  22.505   3.635
 6013W        W74418   5.631   1.312  12.525
 6014W        W74419   4.541  35.366  11.012
 6015W        W74420  16.645  23.711  13.809
 6016W        W74421  13.634   2.025   2.885
 6017W        W74422  14.722   5.689  14.493
 6018W        W74423  31.391  12.817  12.462
 6019W        W74424   9.861  27.110   2.808
 6020W        W74425   4.019  10.963   1.055
 6021W        W74426  15.342  38.842   3.359
 6022W        W74427   9.602  27.936  12.006
 6023W        W74428  12.765  17.185  13.342
 6024W        W74429   0.216  29.701   0.767
 6025W        W74430  17.232  29.592   2.630
 6026W        W74431  26.754  18.363  10.416
 6027W        W74432  34.662   2.746   1.522
 6028W        W74433  32.310   3.581   1.854
 6029W        W74434  20.359  41.047   0.234
 6030W        W74435  35.452  35.489   2.268
 6031W        W74436  12.725   4.976   4.095
 6032W        W74437   0.924  11.273   0.561
 6033W        W74438  42.593  15.762  14.360
 6034W        W74439  10.350  25.667  12.881
 6035W        W74440   6.645  42.943   3.547
 6036W        W74441  27.176  20.996   0.214
 6037W        W74442  30.164   3.235  12.655
 6038W        W74443  26.685  25.071   1.233
 6039W        W74444   8.428  31.772   3.232
 6040W        W74445  10.155  19.368   4.553
 6041W        W74446  13.200  19.129  14.508
 6042W        W74447  37.999  10.254   0.723
 6043W        W74448   8.520  25.562  11.181
 6044W        W74449  25.714  18.541  11.661
 6045W        W74450  13.207  35.828  13.363
 6046W        W74451   7.370  38.814  14.878
 6047W        W74452  35.429  18.194  14.789
 6048W        W74453  15.206  16.151   0.800
 6049W        W74454  22.257  25.766  13.101
 6050W        W74455   8.797  36.445   0.858
 6051W        W74456  44.893  31.703  11.460
 6052W        W74457   1.817  31.533   0.023
 6053W        W74458  26.118  25.389  11.856
 6054W        W74459  21.978  42.986  13.108
 6055W        W74460  12.644  21.785   2.117
 6056W        W74461  32.121  30.176  14.032
 6057W        W74462  25.575  28.178   1.349
 6058W        W74463   7.918  32.411   4.767
 6059W        W74464  25.739  19.494  12.702
 6060W        W74465  29.693  35.970   0.206
 6061W        W74466   5.878   6.178  14.405
 6062W        W74467  44.972   0.891  13.238
 6063W        W74468  16.901  16.479  13.382
 6064W        W74469  23.010  19.681   1.922
 6065W        W74470   4.752   4.482   0.317
 6066W        W74471  22.212  33.505   1.290
 6067W        W74472   7.262  44.095  14.319
 6068W        W74473  23.445  41.345   4.167
 6069W        W74474  22.243  16.872  11.196
 6070W        W74475  40.939  43.593   0.797
 6071W        W74476   9.819  28.614  14.851
 6072W        W74477  24.976  12.169   2.816
 6073W        W74478  16.164  11.049   9.769
 6074W        W74479  39.501  27.114  12.168
 6075W        W74480  20.052  42.493  12.491
 6076W        W74481  30.464  13.899   4.299
 6077W        W74482  19.253  29.403   1.294
 6078W        W74483  31.993   8.866   1.686
 6079W        W74484   0.723  37.199   3.632
 6080W        W74485  14.369  38.094   3.820
 6081W        W74486  28.688  34.603   4.554
 6082W        W74487   8.712  29.706   2.716
 6083W        W74488  10.900  42.482  12.500
 6084W        W74489  28.083  22.763  12.865
 6085W        W74490   0.520   0.571  14.408
 6086W        W74491  38.790  39.167   0.270
 6087W        W74492  29.154  44.755   4.872
 6088W        W74493   2.669  15.343   1.010
 6089W        W74494   1.567   4.686   3.638
 6090W        W74495  29.675   3.223   4.073
 6091W        W74496  16.926  39.512  10.209
 6092W        W74497  17.655  16.342  13.790
 6093W        W74498  41.241  42.027  13.951
 6094W        W74499  16.592   6.711  13.282
 6095W        W74500   7.678  40.082   0.150
 6096W        W74501   2.096  43.925   1.030
 6097W        W74502  26.000   2.983  12.019
 6098W        W74503  33.112  21.133  12.532
 6099W        W74504   2.212  21.893   4.178
 6100W        W74505  36.395  33.920  14.940
 6101W        W74506  15.495  44.081  10.809
 6102W        W74507  20.307  21.527   2.908
 6103W        W74508  30.482  34.538   2.098
 6104W        W74509  43.340  10.421   4.646
 6105W        W74510  26.547  37.521   1.892
 6106W        W74511   8.066  41.159  12.064
 6107W        W74512  25.232  22.812   1.191
 6108W        W74513  28.356   9.381  10.336
 6109W        W74514   5.986  32.947   2.208
 6110W        W74515  39.615  10.871  14.633
 6111W        W74516   1.310  22.022  13.568
 6112W        W74517  14.828  13.667   1.304
 6113W        W74518  44.257  27.158  12.497
 6114W        W74519   8.333  40.201   1.371
 6115W        W74520  32.402  27.487  12.528
 6116W        W74521   1.283   7.426  13.378
 6117W        W74522   8.354  24.751  12.910
 6118W        W74523  14.714  27.681  11.427
 6119W        W74524  34.962  39.144  10.967
 6120W        W74525  36.357  12.722  10.661
 6121W        W74526  16.148  44.213   4.909
 6122W        W74527  34.031   3.844  12.072
 6123W        W74528  30.512  43.593   3.956
 6124W        W74529   4.835   2.012  11.593
 6125W        W74530  27.161  37.902   2.267
 6126W        W74531  22.878  41.528  12.042
 6127W        W74532  41.321   6.246  13.961
 6128W        W74533  24.627  20.693   1.385
 6129W        W74534  10.578  38.617  10.995
 6130W        W74535  40.048  15.564  14.052
 6131W        W74536  14.308  34.163  10.843
 6132W        W74537  40.434  31.223  14.438
 6133W        W74538  30.525   2.818   4.084
 6134W        W74539  19.768  10.768   0.345
 6135W        W74540  33.879  13.649   2.765
 6136W        W74541  38.944  43.979  11.681
 6137W        W74542  40.151  23.130   4.189
 6138W        W74543  43.817  18.106  14.350
 6139W        W74544  40.284  21.597   1.866
 6140W        W74545  30.691  18.703  11.941
 6141W        W74546  13.713  11.326  11.885
 6142W        W74547   9.771  13.197  12.025
 6143W        W74548  25.106  36.985  11.282
 6144W        W74549   3.744  37.964  11.749
 6145W        W74550  14.773   3.242   5.066
 6146W        W74551  37.091  38.980   3.697
 6147W        W74552  10.884  30.109   4.562
 6148W        W74553   2.198  17.214  13.964
 6149W        W74554  28.170  30.067  12.458
 6150W        W74555  36.028  43.250   4.181
 6151W        W74556  40.327  34.949   4.959
 6152W        W74557  12.567  23.793   2.315
 6153W        W74558   4.752   6.860  14.884
 6154W        W74559  25.338   3.203   5.179
 6155W        W74560  44.982  16.255  12.037
 6156W        W74561  42.885  41.964   3.778
 6157W        W74562  44.386  17.074  11.954
 6158W        W74563  18.745   5.052  11.679
 6159W        W74564  36.539  27.095  12.115
 6160W        W74565   4.968  11.819  12.509
 6161W        W74566  39.069  23.754  12.993
 6162W        W74567  42.291  32.291  12.430
 6163W        W74568   2.400  12.359   0.975
 6164W        W74569  27.196  17.525   3.641
 6165W        W74570  19.810  13.661  12.782
 6166W        W74571  35.249   1.306   0.831
 6167W        W74572  18.959  42.789   2.225
 6168W        W74573  27.938  15.958   4.010
 6169W        W74574  40.354  19.568  12.851
 6170W        W74575  37.815   9.333   3.767
 6171W        W74576  25.166  18.523  11.611
 6172W        W74577  41.722  17.141  14.495
 6173W        W74578  39.027  26.894   0.216
 6174W        W74579   3.167  32.557  13.564
 6175W        W74580  19.315  28.068   0.711
 6176W        W74581  25.095  14.140   4.367
 6177W        W74582   2.933  24.295   0.917
 6178W        W74583  44.884  14.108  13.959
 6179W        W74584  30.959   3.920  12.723
 6180W        W74585  34.032  25.168  11.009
 6181W        W74586  21.235  33.276   4.586
 6182W        W74587  24.507  28.695   0.306
 6183W        W74588   8.925  24.547   3.899
 6184W        W74589  30.167  31.162  13.631
 6185W        W74590  12.254  40.419   3.626
 6186W        W74591  20.296  19.488   1.157
 6187W        W74592  44.965  31.013  14.326
 6188W        W74593  28.788  38.897   5.507
 6189W        W74594  27.632  26.930   3.206
 6190W        W74595  41.041  35.471  14.921
 6191W        W74596  31.565  36.042  10.981
 6192W        W74597  34.259  32.335   3.320
 6193W        W74598  15.694  10.959  13.379
 6194W        W74599  38.252  14.781  12.088
 6195W        W74600  34.085  24.599  11.766
 6196W        W74601  35.267  30.211  10.370
 6197W        W74602  30.657  35.682   1.437
 6198W        W74603  40.352  15.796  14.899
 6199W        W74604  23.341  21.571   0.494
 6200W        W74605  14.145   0.952   4.315
 6201W        W74606   9.893  24.379   1.333
 6202W        W74607  12.906   2.907  13.872
 6203W        W74608  30.802  10.785   0.324
 6204W        W74609   7.689  38.450   2.826
 6205W        W74610  40.060  26.232   0.803
 6206W        W74611  35.976   2.704  13.954
 6207W        W74612  39.476  15.879   3.169
 6208W        W74613   4.891   8.852  11.524
 6209W        W74614  24.078  32.219  11.696
 6210W        W74615   7.593   7.859   2.857
 6211W        W74616  39.094  12.256   4.110
 6212W        W74617  25.151  30.365   0.945
 6213W        W74618  10.168  26.519  12.906
 6214W        W74619  40.387   6.314  12.416
 6215W        W74620  44.457   7.852  10.754
 6216W        W74621   4.919   9.589   4.866
 6217W        W74622  22.722  32.132  11.391
 6218W        W74623  44.859  44.884  10.767
 6219W        W74624   4.943   5.824  12.134
 6220W        W74625   6.202  37.312  12.645
 6221W        W74626  37.358   7.161   3.263
 6222W        W74627   0.422  25.479   0.928
 6223W        W74628  39.034  25.194  10.786
 6224W        W74629  36.984  16.857   4.110
 6225W        W74630   4.890  31.254   0.109
 6226W        W74631  35.878  42.466   3.705
 6227W        W74632  37.783  18.435  13.982
 6228W        W74633  39.899  20.531  13.757
 6229W        W74634   7.694  17.734  11.992
 6230W        W74635  14.835   5.900  14.957
 6231W        W74636   6.930  17.445   3.824
 6232W        W74637  30.003   3.451   1.754
 6233W        W74638  19.278  22.269   2.711
 6234W        W74639  40.604  33.270  13.780
 6235W        W74640  38.420  36.016  13.491
 6236W        W74641  33.393  12.760   1.322
 6237W        W74642  24.113  30.924  14.232
 6238W        W74643  21.274   7.101  12.545
 6239W        W74644   6.603  39.925  14.449
 6240W        W74645  26.997   2.632   2.721
 6241W        W74646  17.458  10.482   2.629
 6242W        W74647  20.700  38.007   4.150
 6243W        W74648  26.976  30.528   0.806
 6244W        W74649   8.512   8.392   2.380
 6245W        W74650  26.753  32.996   0.502
 6246W        W74651  24.250   5.765  10.727
 6247W        W74652  30.117   1.319   2.575
 6248W        W74653  38.947  14.185   0.451
 6249W        W74654  34.511  11.609  13.820
 6250W        W74655  25.986  16.613   3.253
 6251W        W74656  27.287   2.036   1.814
 6252W        W74657  25.279  40.033  14.680
 6253W        W74658  21.388  10.291   0.660
 6254W        W74659  41.339  41.080   4.556
 6255W        W74660   1.548  40.841  12.598
 6256W        W74661  19.632  16.814   2.049
 6257W        W74662  18.498  28.957  11.518
 6258W        W74663  35.460  39.858   1.934
 6259W        W74664  31.348  43.205   2.750
 6260W        W74665  32.446   8.526  11.581
 6261W        W74666  29.680   4.133   3.691
 6262W        W74667  38.032  37.686   1.777
 6263W        W74668   6.525   6.033  14.956
 6264W        W74669  36.835  37.499   2.313
 6265W        W74670  44.858  39.476   1.673
 6266W        W74671  19.580  29.644   2.389
 6267W        W74672  42.285  27.076  14.938
 6268W        W74673  39.332  15.204   0.887
 6269W        W74674   8.138  32.579   0.813
 6270W        W74675  12.366  16.140   1.314
 6271W        W74676  21.749  13.803  14.130
 6272W        W74677   3.387   1.963   0.395
 6273W        W74678   3.999   5.157  13.942
 6274W        W74679  23.616  21.116   3.034
 6275W        W74680  17.630  20.531   5.071
 6276W        W74681  14.562   6.327   2.662
 6277W        W74682  25.091  10.267  11.309
 6278W        W74683  19.062  42.910   4.583
 6279W        W74684  38.108  23.455  11.667
 6280W        W74685   2.378  38.324   1.731
 6281W        W74686   0.095  17.151  12.586
 6282W        W74687  23.567  17.857   4.547
 6283W        W74688  36.848   8.125  12.393
 6284W        W74689  31.985  27.067  14.391
 6285W        W74690  43.508   1.523  14.429
 6286W        W74691  25.026  15.850  12.133
 6287W        W74692  12.581  39.599   3.278
 6288W        W74693  24.849  40.308  10.702
 6289W        W74694  24.294   9.651   3.057
 6290W        W74695  29.215  35.165   1.239
 6291W        W74696  41.288  43.111  11.006
 6292W        W74697  21.546  19.903  12.494
 6293W        W74698   8.780  29.423  11.524
 6294W        W74699   3.836  28.657   1.694
 6295W        W74700  19.556  41.607  10.682
 6296W        W74701  13.360   0.034  11.633
 6297W        W74702  25.603  34.504  13.823
 6298W        W74703   1.695  14.329   3.213
 6299W        W74704  14.117  13.554  11.633
 6300W        W74705  22.152  10.176  10.238
 6301W        W74706  44.733  14.407   3.167
 6302W        W74707   1.232  43.485   0.861
 6303W        W74708  29.631  44.577   0.505
 6304W        W74709  19.750  31.487  14.507
 6305W        W74710  12.066  29.399   0.405
 6306W        W74711   8.591  34.502   1.879
 6307W        W74712  25.165  19.606   3.185
 6308W        W74713   6.336  17.150   1.705
 6309W        W74714  39.341  37.953  13.639
 6310W        W74715  38.385  11.053  11.548
 6311W        W74716  43.497   6.887  11.242
 6312W        W74717  23.087  28.891  14.718
 6313W        W74718  12.747   7.712  11.939
 6314W        W74719  32.132  24.693   1.408
 6315W        W74720  44.485  43.796  12.409
 6316W        W74721  12.043  14.313   1.200
 6317W        W74722   2.560  29.163  14.870
 6318W        W74723  12.339  26.131   0.297
 6319W        W74724  29.463  34.506  12.235
 6320W        W74725  14.832  41.617   2.698
 6321W        W74726  21.594  19.230   3.044
 6322W        W74727   2.542  18.108  14.798
 6323W        W74728   1.620  25.602  14.969
 6324W        W74729  31.408  29.071  11.908
 6325W        W74730  24.190   3.299  11.185
 6326W        W74731  19.855  12.385   0.289
 6327W        W74732  10.820  25.621  12.652
 6328W        W74733  37.695  37.264   4.321
 6329W        W74734   5.237  23.721  10.595
 6330W        W74735  39.905  37.904  13.379
 6331W        W74736   2.253  40.324   4.637
 6332W        W74737  43.105  37.821  14.844
 6333W        W74738  36.060  38.131  14.946
 6334W        W74739  19.944   5.210   2.270
 6335W        W74740  43.683  39.991   3.753
 6336W        W74741  31.795   5.759   1.783
 6337W        W74742  32.251   6.316   2.953
 6338W        W74743  35.093  20.116   0.843
 6339W        W74744  29.484  32.852  11.794
 6340W        W74745   7.440  19.130  13.444
 6341W        W74746  34.029  17.362   3.882
 6342W        W74747   1.884  19.200   0.696
 6343W        W74748  39.817  37.578   3.145
 6344W        W74749  37.168  20.491  14.309
 6345W        W74750  40.377  28.406   3.817
 6346W        W74751  20.253  41.537  10.099
 6347W        W74752  10.835  35.512  12.131
 6348W        W74753   2.541  27.449  11.498
 6349W        W74754  18.333  25.485  12.001
 6350W        W74755  10.392   7.201  12.663
 6351W        W74756   9.113  27.683  10.742
 6352W        W74757  12.379  42.867   2.710
 6353W        W74758  42.887   1.306   0.930
 6354W        W74759  24.716  18.122  12.665
 6355W        W74760   7.307  41.752   0.172
 6356W        W74761  26.733  16.298   3.582
 6357W        W74762  44.025  10.457  14.761
 6358W        W74763   2.666  15.365   4.264
 6359W        W74764   6.818  18.454   3.599
 6360W        W74765  39.879  33.447   2.905
 6361W        W74766  42.260  35.082  12.092
 6362W        W74767  25.098   3.461   1.117
 6363W        W74768  17.201  11.426   4.605
 6364W        W74769  13.178  24.644  14.704
 6365W        W74770  37.012  32.392   0.251
 6366W        W74771  17.072   1.892   4.140
 6367W        W74772  37.780  28.576   0.428
 6368W        W74773  13.261  29.417   3.760
 6369W        W74774  22.720  42.873   3.495
 6370W        W74775  37.009  41.236   1.810
 6371W        W74776  33.474  32.077   2.122
 6372W        W74777   2.225   7.949   2.713
 6373W        W74778   7.139  12.101  11.679
 6374W        W74779  34.378   4.692  14.950
 6375W        W74780  40.371   4.574  10.916
 6376W        W74781  30.581  23.471  12.371
 6377W        W74782  12.811  31.536  11.702
 6378W        W74783   4.922  19.835   4.143
 6379W        W74784  29.362   1.068  11.085
 6380W        W74785   2.696  18.139   4.344
 6381W        W74786  20.971  22.020  13.278
 6382W        W74787  21.568  40.859  14.238
 6383W        W74788   2.721   5.340   1.891
 6384W        W74789  10.466  25.760  10.278
 6385W        W74790  13.193   0.594   0.361
 6386W        W74791  20.271  43.215  13.890
 6387W        W74792  11.279  34.102  11.985
 6388W        W74793  34.948  30.297   0.907
 6389W        W74794  14.608  10.817   4.184
 6390W        W74795  22.053   7.844   1.901
 6391W        W74796  17.074  42.022  10.679
 6392W        W74797  43.407  39.576  10.873
 6393W        W74798  30.643  24.459  14.761
 6394W        W74799  23.200  22.760  12.480
 6395W        W74800  26.575  24.524   0.179
 6396W        W74801   4.928  18.062   4.829
 6397W        W74802  15.257  44.469   1.895
 6398W        W74803  40.772  11.774  14.103
 6399W        W74804  19.190  24.530  12.982
 6400W        W74805  16.220  34.841   3.736
 6401W        W74806  12.035  37.929   0.402
 6402W        W74807  11.405  17.314  10.629
 6403W        W74808  26.421  38.769   2.628
 6404W        W74809  22.719  17.034  11.099
 6405W        W74810  17.374   0.908   2.334
 6406W        W74811  28.580  29.219  14.469
 6407W        W74812   7.209  10.126  11.741
 6408W        W74813   6.631  15.065   5.170
 6409W        W74814  24.084  33.625   4.046
 6410W        W74815   7.221  11.753   1.710
 6411W        W74816   0.785  30.436   1.440
 6412W        W74817  10.582  32.769   3.623
 6413W        W74818   3.303  24.426  14.312
 6414W        W74819  20.576  22.054   0.690
 6415W        W74820  11.563  12.226  11.961
 6416W        W74821  35.680  17.091   2.693
 6417W        W74822  40.048  12.203  12.147
 6418W        W74823   0.443  27.727   4.169
 6419W        W74824   7.426   8.214   2.522
 6420W        W74825  16.850  29.367   4.235
 6421W        W74826  39.527  19.949   1.815
 6422W        W74827  33.533  18.226  13.049
 6423W        W74828  12.738  18.779  11.068
 6424W        W74829   5.300  38.128  12.121
 6425W        W74830  43.494  37.477   4.706
 6426W        W74831   7.014  26.458   2.325
 6427W        W74832   1.972  43.795   0.232
 6428W        W74833  16.545   7.958   3.183
 6429W        W74834  15.418  37.713   2.835
 6430W        W74835  16.844  33.623   2.248
 6431W        W74836  29.827  36.773   3.878
 6432W        W74837   2.203   9.082   0.937
 6433W        W74838   0.346  32.442  12.232
 6434W        W74839  13.530   7.817  10.588
 6435W        W74840  39.551  23.748   3.193
 6436W        W74841  34.947  25.491  10.472
 6437W        W74842   6.078  27.521  11.970
 6438W        W74843  19.602  11.288   0.274
 6439W        W74844  14.622  24.975  13.909
 6440W        W74845  36.046   5.108   4.854
 6441W        W74846  23.176  11.637   1.773
 6442W        W74847  25.017  44.942  13.518
 6443W        W74848  15.313  25.719   3.271
 6444W        W74849  18.790  12.367   4.524
 6445W        W74850  14.618  40.078   2.873
 6446W        W74851  27.985   4.603  14.415
 6447W        W74852  17.221  37.036  12.852
 6448W        W74853  21.773  29.874   2.731
 6449W        W74854  39.811  30.754   3.354
 6450W        W74855  26.189  37.999  10.418
 6451W        W74856  16.149   2.869  13.126
 6452W        W74857   0.778  34.713  12.863
 6453W        W74858  32.652  37.258   4.461
 6454W        W74859  10.747  39.829   2.161
 6455W        W74860  23.514   7.785  10.656
 6456W        W74861  36.382  32.388  10.964
 6457W        W74862   5.857   6.391  11.571
 6458W        W74863  14.716  17.681   2.668
 6459W        W74864  24.970   0.353  10.498
 6460W        W74865  42.001  13.320  12.661
 6461W        W74866  38.536  25.039  10.805
 6462W        W74867  22.349  41.413   2.322
 6463W        W74868   2.421  13.848   4.735
 6464W        W74869  18.350  15.717   0.718
 6465W        W74870  32.843  35.691  14.437
 6466W        W74871   4.897  25.048   0.703
 6467W        W74872   9.679  30.912  11.035
 6468W        W74873  44.912  24.545   0.478
 6469W        W74874  27.205  23.674  12.959
 6470W        W74875  15.788  25.226  13.395
 6471W        W74876   8.306   6.936  11.645
 6472W        W74877  17.475   0.280   3.173
 6473W        W74878  31.881  34.913   3.656
 6474W        W74879  15.704   7.099  13.983
 6475W        W74880  15.768  25.227   4.988
 6476W        W74881  10.005   3.768  11.275
 6477W        W74882  14.876  36.425  14.047
 6478W        W74883  14.930  25.657   4.231
 6479W        W74884   5.227  43.297   1.128
 6480W        W74885   1.220  29.670  12.497
 6481W        W74886  36.370  32.035   1.533
 6482W        W74887  18.225   7.423  11.163
 6483W        W74888   4.014  35.570   1.130
 6484W        W74889  13.235  20.595   1.257
 6485W        W74890  10.794  39.035  13.019
 6486W        W74891  34.773  28.542  11.041
 6487W        W74892  34.037  15.021   1.916
 6488W        W74893  27.616  14.492   4.034
 6489W        W74894  38.925  43.032   1.227
 6490W        W74895  13.198  27.851  13.487
 6491W        W74896  15.573  36.095  10.507
 6492W        W74897  31.536   2.129  13.984
 6493W        W74898   5.719  39.429   1.892
 6494W        W74899  27.671  39.199   4.699
 6495W        W74900   7.964  40.303  13.495
 6496W        W74901   9.913  28.985  13.802
 6497W        W74902  41.807   3.800   3.090
 6498W        W74903  11.841  28.008   2.505
 6499W        W74904   4.319   3.178  11.472
 6500W        W74905   6.678  28.568   1.411
 6501W        W74906  10.409  34.197   3.384
 6502W        W74907  13.858  17.639   3.721
 6503W        W74908  26.945  11.146   2.404
 6504W        W74909  28.037   5.699  10.119
 6505W        W74910   7.923  34.655   0.156
 6506W        W74911  20.806  26.807  13.378
 6507W        W74912  13.413  41.227  13.406
 6508W        W74913   3.906  26.683  10.894
 6509W        W74914   8.218  17.212  11.057
 6510W        W74915   1.926  34.844  13.980
 6511W        W74916   3.705  20.043  11.515
 6512W        W74917  13.549  31.942  10.656
 6513W        W74918  11.728  32.175   0.747
 6514W        W74919  41.405   3.418  14.030
 6515W        W74920  21.105   8.365   0.656
 6516W        W74921  11.954  12.241  13.345
 6517W        W74922  33.136  14.808   2.262
 6518W        W74923  33.030  39.885  13.104
 6519W        W74924  25.538  41.824   2.764
 6520W        W74925  38.875  24.797  14.950
 6521W        W74926  18.838   4.197  11.517
 6522W        W74927  39.572  34.045  12.076
 6523W        W74928  38.814  14.592  13.926
 6524W        W74929  24.068  22.757  13.787
 6525W        W74930   0.829  35.814   2.780
 6526W        W74931  38.913  20.988   3.278
 6527W        W74932  36.274  31.702  12.743
 6528W        W74933  15.570   3.368   9.838
 6529W        W74934  33.485   5.661  14.358
 6530W        W74935  37.110  13.618  11.214
 6531W        W74936  21.952  32.930  13.332
 6532W        W74937   0.722  25.298   1.449
 6533W        W74938  43.962  43.992  13.940
 6534W        W74939   5.383  27.575   0.028
 6535W        W74940   5.005  16.250   2.030
 6536W        W74941   6.912   5.685   4.121
 6537W        W74942  23.778  23.091  14.801
 6538W        W74943   4.891  37.127  13.734
 6539W        W74944   6.403  34.402   1.329
 6540W        W74945  42.332  34.919   1.473
 6541W        W74946  18.128  32.679   3.772
 6542W        W74947  38.827  35.680  13.687
 6543W        W74948  39.950  25.123   0.663
 6544W        W74949  17.972  21.815   3.682
 6545W        W74950  28.766  24.627   3.104
 6546W        W74951  27.169  13.356  11.558
 6547W        W74952  14.333  36.984  11.458
 6548W        W74953   1.466   0.303   2.834
 6549W        W74954  11.142  28.471  12.954
 6550W        W74955  11.694  28.917   1.903
 6551W        W74956   9.323  10.687   1.234
 6552W        W74957   4.411   4.889  14.427
 6553W        W74958  34.995  40.034   4.140
 6554W        W74959  11.156   4.460   1.068
 6555W        W74960   5.265   3.496   3.272
 6556W        W74961  44.769  33.082  10.606
 6557W        W74962  28.187  37.708  14.440
 6558W        W74963  44.017  26.150  11.439
 6559W        W74964  24.120  36.274  14.854
 6560W        W74965  15.065  26.158   4.210
 6561W        W74966   2.127  36.057   4.518
 6562W        W74967  43.769  27.706   0.450
 6563W        W74968   5.011   1.364   0.933
 6564W        W74969   7.766  37.854   4.398
 6565W        W74970  36.739  19.783  11.205
 6566W        W74971  17.695   5.754  14.363
 6567W        W74972  19.554  12.005  12.221
 6568W        W74973  19.245   8.786   3.609
 6569W        W74974  36.911  35.920  12.805
 6570W        W74975   9.349  12.382  11.090
 6571W        W74976   7.943  12.705  10.442
 6572W        W74977  36.911  31.354   0.538
 6573W        W74978  29.957  18.835   1.480
 6574W        W74979  36.003  25.222   0.361
 6575W        W74980  13.805  43.748  13.385
 6576W        W74981   9.199   8.944  13.035
 6577W        W74982  13.349  38.551   2.778
 6578W        W74983   7.932  42.482  14.373
 6579W        W74984  17.353  21.402   4.226
 6580W        W74985  36.461  10.593   4.807
 6581W        W74986  29.798  38.993  14.478
 6582W        W74987   1.024   0.602   2.808
 6583W        W74988   3.111   6.385   3.134
 6584W        W74989  30.403  33.709  11.969
 6585W        W74990  34.245  13.982   4.123
 6586W        W74991  28.128  20.066  14.260
 6587W        W74992  32.945  40.396   0.815
 6588W        W74993  24.097  38.985   4.574
 6589W        W74994  23.220  27.950  14.232
 6590W        W74995  40.135   7.104   3.492
 6591W        W74996  15.087  15.562   3.824
 6592W        W74997  17.504   5.389  11.966
 6593W        W74998  22.703  21.665   3.573
 6594W        W74999  15.917  26.380  13.919
 6595W        W75000  35.831  23.018  12.053
 6596W        W75001   7.316   0.355   0.709
 6597W        W75002  39.448   8.446  11.747
 6598W        W75003  37.423   4.181  14.301
 6599W        W75004   0.477  35.105  11.370
 6600W        W75005  15.128  37.765   3.948
 6601W        W75006  33.006  27.093  14.351
 6602W        W75007  20.335  30.407  11.144
 6603W        W75008  30.140  41.637   2.097
 6604W        W75009  31.744  11.183  13.849
 6605W        W75010  24.915  33.933  13.416
 6606W        W75011   5.271  37.141  11.921
 6607W        W75012   1.296   6.193  14.057
 6608W        W75013   8.592  44.778  14.464
 6609W        W75014   4.344  11.018  10.486
 6610W        W75015  27.746  22.650   1.368
 6611W        W75016  32.639  40.371  11.488
 6612W        W75017   2.479  23.027   0.624
 6613W        W75018  24.703  21.173  14.187
 6614W        W75019  41.359  28.971  10.733
 6615W        W75020  37.748  24.551   3.507
 6616W        W75021  41.070  24.372   2.967
 6617W        W75022  20.340  44.114   1.857
 6618W        W75023  24.033  40.281   2.706
 6619W        W75024  21.216  29.019   2.749
 6620W        W75025  16.212  43.528   3.783
 6621W        W75026  38.578  28.718  12.904
 6622W        W75027  44.196  44.249  13.523
 6623W        W75028  42.477  18.759   2.318
 6624W        W75029  18.245  17.229   1.678
 6625W        W75030   7.387   6.646   1.288
 6626W        W75031  26.488  19.636   4.869
 6627W        W75032   1.572   5.249   2.823
 6628W        W75033   0.427   1.191   3.581
 6629W        W75034   4.838  24.178  14.737
 6630W        W75035  28.022  12.775   2.035
 6631W        W75036  33.615  20.024   3.766
 6632W        W75037   3.315  33.167  11.118
 6633W        W75038  38.190  22.081  10.718
 6634W        W75039  21.020  44.573   1.474
 6635W        W75040  34.975   9.544  13.246
 6636W        W75041  24.111  25.219   3.664
 6637W        W75042  40.887   7.497   2.948
 6638W        W75043   2.495  33.545   3.227
 6639W        W75044  17.426  25.634   0.200
 6640W        W75045  11.758   3.395  12.924
 6641W        W75046   9.695   9.420  13.295
 6642W        W75047  37.594  17.962  12.024
 6643W        W75048  25.169  24.750   3.138
 6644W        W75049   7.727  29.766  13.483
 6645W        W75050  34.854  35.989   4.546
 6646W        W75051  29.015   4.239  12.968
 6647W        W75052  39.816   7.932  11.111
 6648W        W75053  12.562   6.169  10.681
 6649W        W75054  42.813  34.565  13.950
 6650W        W75055  21.500  28.614  12.102
 6651W        W75056  37.090  36.911   3.861
 6652W        W75057  22.965  30.968   0.496
 6653W        W75058  43.377  26.252  14.967
 6654W        W75059  36.108  21.754  13.159
 6655W        W75060   1.965  25.126  12.977
 6656W        W75061   1.895  33.922  12.865
 6657W        W75062   6.292  17.591   2.929
 6658W        W75063  13.131  33.321   2.200
 6659W        W75064   6.052  42.471  10.521
 6660W        W75065  12.945  32.146   2.725
 6661W        W75066  39.469  34.784   4.578
 6662W        W75067  20.626  37.821  11.914
 6663W        W75068  22.973  22.870   4.107
 6664W        W75069  29.642  35.562   2.381
 6665W        W75070   9.890  44.625   3.689
 6666W        W75071  27.925  39.568   1.410
 6667W        W75072  39.012  37.432  14.953
 6668W        W75073   2.775  31.016  13.604
 6669W        W75074   7.947  35.742   1.403
 6670W        W75075  21.918  36.125  11.256
 6671W        W75076  16.550  23.531   1.108
 6672W        W75077   5.338  18.753  13.608
 6673W        W75078  41.269  39.284  13.399
 6674W        W75079  15.245  41.392   1.699
 6675W        W75080  35.480  12.113  14.772
 6676W        W75081  14.139  30.486  10.666
 6677W        W75082  15.074  18.684  13.622
 6678W        W75083   9.864  28.619  12.485
 6679W        W75084  10.680  24.621   4.289
 6680W        W75085  36.557  31.456   0.928
 6681W        W75086  42.538   0.735   4.530
 6682W        W75087   5.747   4.850  12.790
 6683W        W75088  39.969  35.934   3.122
 6684W        W75089  14.206  20.191   4.105
 6685W        W75090  11.382   0.731  13.337
 6686W        W75091   6.071  23.791   4.720
 6687W        W75092  11.403  32.590   2.550
 6688W        W75093  38.990  27.103  12.096
 6689W        W75094  26.173  38.431  10.710
 6690W        W75095  20.485  41.523   3.247
 6691W        W75096  24.901  36.114   2.672
 6692W        W75097  39.523  22.276  13.554
 6693W        W75098  44.503   0.985   1.889
 6694W        W75099  39.667  38.787   3.958
 6695W        W75100  28.221  43.803  12.638
 6696W        W75101  13.851  12.871   2.482
 6697W        W75102   2.444  29.452  12.450
 6698W        W75103  26.183  26.122  14.053
 6699W        W75104  30.439  26.228   1.858
 6700W        W75105  44.397  16.457   3.489
 6701W        W75106  33.097   0.256   4.638
 6702W        W75107  33.895  24.617   2.112
 6703W        W75108  36.124   3.758   0.755
 6704W        W75109  39.164  36.890  14.729
 6705W        W75110   5.847  26.341  13.760
 6706W        W75111  26.771  26.663  13.485
 6707W        W75112   4.691  39.099  12.528
 6708W        W75113   7.420  13.055  13.793
 6709W        W75114  29.615  30.648  10.754
 6710W        W75115  26.023  29.443  11.951
 6711W        W75116  10.384  13.818  13.642
 6712W        W75117  41.236  39.764   2.133
 6713W        W75118   4.669  14.269  11.916
 6714W        W75119   8.115  15.345  11.525
 6715W        W75120  30.291   0.800  11.331
 6716W        W75121  40.585   5.712   0.462
 6717W        W75122  16.088  20.015  11.606
 6718W        W75123   4.837  22.420  11.189
 6719W        W75124  23.083  17.222   0.391
 6720W        W75125  29.886  15.419   0.751
 6721W        W75126  13.768  10.164  13.012
 6722W        W75127  44.285  38.770   0.056
 6723W        W75128  20.791  43.456   2.781
 6724W        W75129   1.404  16.277  13.967
 6725W        W75130  30.046   8.672   2.354
 6726W        W75131  42.852   7.433  10.879
 6727W        W75132   9.277  29.234   1.373
 6728W        W75133  42.528   1.876   3.761
 6729W        W75134  44.896  23.092  12.370
 6730W        W75135   9.943  23.547  10.792
 6731W        W75136  11.824  27.953   1.972
 6732W        W75137  15.861  40.268   0.430
 6733W        W75138  43.462  14.733   2.680
 6734W        W75139  25.611  14.057  13.875
 6735W        W75140  17.613  26.736   1.731
 6736W        W75141  13.060  28.002  14.892
 6737W        W75142   6.264   7.648   3.279
 6738W        W75143  33.094  41.070  12.970
 6739W        W75144   1.007   9.228   3.711
 6740W        W75145  17.711  36.511   3.630
 6741W        W75146  16.256  43.036   3.298
 6742W        W75147  15.877  20.380   4.486
 6743W        W75148  36.407  40.373  13.445
 6744W        W75149  34.100  39.931  13.772
 6745W        W75150   6.694  41.702   4.467
 6746W        W75151  34.912  24.816   0.009
 6747W        W75152   0.230   7.660   4.984
 6748W        W75153  41.499   0.985   3.014
 6749W        W75154  44.778  22.122  10.397
 6750W        W75155  21.342   0.068  13.070
 6751W        W75156  11.430  40.883  14.227
 6752W        W75157  15.154  19.619  11.349
 6753W        W75158  42.614  26.204  13.123
 6754W        W75159  34.277  18.246  12.611
 6755W        W75160  41.250  35.577  14.014
 6756W        W75161   3.960  27.070  13.438
 6757W        W75162   1.019  25.677   0.682
 6758W        W75163  38.167   0.094  12.851
 6759W        W75164  20.298  40.993   4.063
 6760W        W75165  13.685  21.642  11.700
 6761W        W75166  40.852  14.628   3.331
 6762W        W75167  30.637  33.641  11.505
 6763W        W75168  29.888  19.624  13.073
 6764W        W75169   1.260  12.919   1.089
 6765W        W75170  17.098  18.570  11.794
 6766W        W75171  29.693  37.079   2.851
 6767W        W75172   0.692  18.732   1.843
 6768W        W75173   0.722   0.963  13.291
 6769W        W75174  21.937  18.723  14.442
 6770W        W75175   9.630  30.903  14.329
 6771W        W75176  39.143  25.198   2.788
 6772W        W75177  41.529  10.316  13.394
 6773W        W75178   2.518   5.990   2.252
 6774W        W75179  32.892  15.038   4.027
 6775W        W75180  37.425   7.725  12.946
 6776W        W75181  26.107   2.010  14.809
 6777W        W75182  23.419   4.398  11.690
 6778W        W75183  20.986  43.755   3.780
 6779W        W75184  13.867  18.138   1.216
 6780W        W75185  44.546  40.860   3.308
 6781W        W75186  24.147  34.060  12.436
 6782W        W75187  18.602  16.857   1.585
 6783W        W75188  16.541   9.955   3.433
 6784W        W75189   8.466   4.481  11.588
 6785W        W75190  28.088   4.668   1.734
 6786W        W75191   8.779  40.669   3.656
 6787W        W75192  19.117  18.731  14.663
 6788W        W75193  24.207  41.840   3.214
 6789W        W75194  41.340  19.901   2.457
 6790W        W75195  20.798  43.807   4.277
 6791W        W75196  42.894   0.458  12.554
 6792W        W75197  29.942   5.624   3.196
 6793W        W75198   0.521   8.417  12.285
 6794W        W75199   0.329  11.721  11.651
 6795W        W75200  19.228  21.098   1.253
 6796W        W75201  36.835   9.145  14.342
 6797W        W75202   4.587  25.993  14.680
 6798W        W75203  14.272  29.982  12.840
 6799W        W75204   9.267  37.056   1.827
 6800W        W75205  43.873  11.098   4.162
 6801W        W75206  29.056  23.090  12.377
 6802W        W75207  22.161   0.004   0.955
 6803W        W75208  12.754  24.326  12.441
 6804W        W75209   0.944  18.986  12.053
 6805W        W75210   6.686  24.304  14.463
 6806W        W75211  36.880  36.019   2.765
 6807W        W75212   7.861  31.431  11.454
 6808W        W75213  37.659  41.922  11.018
 6809W        W75214   5.907  13.645   3.261
 6810W        W75215  40.305  27.545  12.022
 6811W        W75216  24.655  32.208   3.792
 6812W        W75217   0.913   1.872   5.350
 6813W        W75218  22.114  19.120   0.979
 6814W        W75219  13.806   5.667   4.508
 6815W        W75220  16.960   2.288  14.444
 6816W        W75221  27.079  27.586   0.753
 6817W        W75222  42.559  10.926   2.844
 6818W        W75223  34.042  39.789   0.287
 6819W        W75224  25.787  35.434  13.886
 6820W        W75225  17.299  34.145  10.290
 6821W        W75226  11.755  25.890   3.157
 6822W        W75227   2.381  26.075   3.769
 6823W        W75228   4.380  26.539  13.951
 6824W        W75229  27.295   7.824  13.351
 6825W        W75230  35.793  28.980  13.449
 6826W        W75231  42.819  20.269   2.466
 6827W        W75232  26.086   9.107  12.559
 6828W        W75233   3.736  13.213   2.787
 6829W        W75234  40.203  25.763  12.603
 6830W        W75235  34.271  25.555   3.598
 6831W        W75236   2.262  19.287   4.352
 6832W        W75237  21.729  36.387  10.863
 6833W        W75238   5.199  30.239  13.072
 6834W        W75239  21.256  27.588  10.108
 6835W        W75240  43.824   7.443   2.655
 6836W        W75241  15.171  27.524   2.330
 6837W        W75242  17.934  23.250  11.674
 6838W        W75243  30.870  31.856  14.542
 6839W        W75244  20.739  39.399   4.687
 6840W        W75245  37.529  28.163  12.039
 6841W        W75246  15.725  43.711   3.624
 6842W        W75247  17.074   7.724   3.894
 6843W        W75248  15.348  19.519   4.603
 6844W        W75249   8.340  26.412   1.388
 6845W        W75250  33.054  12.526  11.535
 6846W        W75251   3.388  25.959  13.428
 6847W        W75252  21.085  44.856   0.051
 6848W        W75253  34.333   3.153  11.125
 6849W        W75254  32.557  35.976   0.366
 6850W        W75255  13.091  24.980   0.324
 6851W        W75256  27.129  34.690  14.909
 6852W        W75257  27.738   3.889  10.726
 6853W        W75258  37.645  36.007  14.852
 6854W        W75259  17.870  39.665   1.151
 6855W        W75260  26.114  18.308   0.448
 6856W        W75261  34.874   8.906   0.899
 6857W        W75262   2.442  17.746  10.877
 6858W        W75263  16.095  31.371   1.520
 6859W        W75264  18.167   4.441  13.871
 6860W        W75265  43.812   7.909  12.174
 6861W        W75266  26.952  26.465   3.679
 6862W        W75267   2.489  20.038   3.188
 6863W        W75268  31.775  12.341  11.048
 6864W        W75269  13.835  36.073   0.280
 6865W        W75270   4.301  42.203  12.921
 6866W        W75271  27.365  10.180  10.162
 6867W        W75272  18.423  34.383  11.797
 6868W        W75273  42.094  11.342   4.176
 6869W        W75274  40.095  24.743  11.536
 6870W        W75275  17.350  13.162   2.702
 6871W        W75276  18.843  34.386  13.881
 6872W        W75277  25.739  14.273  10.221
 6873W        W75278  41.595  36.935   3.507
 6874W        W75279  40.878  40.762   1.288
 6875W        W75280  43.066   9.990   4.860
 6876W        W75281  40.319   7.588   3.523
 6877W        W75282   7.462  41.109  14.356
 6878W        W75283  38.781  16.141  12.828
 6879W        W75284   5.022   0.759  10.690
 6880W        W75285  24.241  30.664  11.111
 6881W        W75286  37.762  11.670   4.150
 6882W        W75287  28.618  11.854  11.781
 6883W        W75288  28.443  27.182  10.884
 6884W        W75289  40.339  24.497  13.981
 6885W        W75290  28.591  41.033   4.876
 6886W        W75291   6.133  43.079   1.697
 6887W        W75292  39.995   3.386  14.286
 6888W        W75293  28.962   0.596   2.172
 6889W        W75294  19.322   7.649  12.116
 6890W        W75295  44.256   4.367   1.495
 6891W        W75296   2.806  19.826   1.736
 6892W        W75297  23.719  22.574  14.794
 6893W        W75298   1.108  13.209   3.274
 6894W        W75299   6.737   5.838   2.129
 6895W        W75300  32.069   8.800  14.681
 6896W        W75301   5.909  40.714  11.583
 6897W        W75302  43.734  44.358  13.303
 6898W        W75303   1.789  37.903  12.859
 6899W        W75304  21.118  25.981  13.860
 6900W        W75305   6.328  44.249  12.914
 6901W        W75306   4.808  29.173  14.940
 6902W        W75307   8.241   6.381   2.834
 6903W        W75308   1.706  39.848   3.896
 6904W        W75309  29.199  38.469   4.338
 6905W        W75310  18.667  22.217   9.775
 6906W        W75311   5.046   7.886  10.060
 6907W        W75312  33.596  42.877  11.269
 6908W        W75313  24.470  24.267  11.139
 6909W        W75314  26.533   2.998   4.723
 6910W        W75315  18.466  15.218  13.531
 6911W        W75316  28.926  34.949  14.944
 6912W        W75317  25.791  14.736   3.570
 6913W        W75318  17.714  31.352   0.776
 6914W        W75319  34.889   9.344   2.732
 6915W        W75320  27.423  19.331  11.566
 6916W        W75321  12.207  26.234  11.995
 6917W        W75322  34.965  31.868   5.082
 6918W        W75323   9.894  24.480  14.766
 6919W        W75324  44.464  33.581  10.693
 6920W        W75325   6.094   3.185   3.627
 6921W        W75326   5.781  14.073   4.405
 6922W        W75327  22.691  35.372   1.738
 6923W        W75328  14.988   1.814   5.315
 6924W        W75329   9.725  33.041   2.630
 6925W        W75330  17.318  21.334  14.983
 6926W        W75331  43.689  35.527   3.871
 6927W        W75332  38.287  30.144   2.003
 6928W        W75333   4.201   2.162  12.047
 6929W        W75334   8.616   4.972  12.592
 6930W        W75335   0.793  17.314   4.143
 6931W        W75336  13.862  21.686   4.257
 6932W        W75337  11.366   5.392   0.613
 6933W        W75338  27.589  21.761   4.492
 6934W        W75339  19.610  22.754   3.420
 6935W        W75340  15.731  20.069  14.378
 6936W        W75341  11.818  16.259   3.813
 6937W        W75342   8.627  44.519   3.134
 6938W        W75343  24.687  21.112  12.864
 6939W        W75344  10.311  35.149  13.167
 6940W        W75345  44.656  14.218  10.301
 6941W        W75346   7.543   4.569   2.877
 6942W        W75347  24.186  29.162   2.269
 6943W        W75348   9.888  25.772   1.899
 6944W        W75349  43.988  37.420  13.904
 6945W        W75350  22.998  25.599   0.266
 6946W        W75351  42.975  19.691   1.730
 6947W        W75352  29.469  35.660  13.570
 6948W        W75353   0.385  34.205   4.123
 6949W        W75354  19.655  23.085  12.067
 6950W        W75355  15.880  32.096   0.349
 6951W        W75356  33.651   5.687   2.358
 6952W        W75357  22.675  38.240  14.542
 6953W        W75358  17.460  25.296   1.856
 6954W        W75359  22.319  22.020  12.107
 6955W        W75360  22.283  36.917  14.914
 6956W        W75361  16.046   9.314   4.094
 6957W        W75362   1.790   6.252   2.743
 6958W        W75363   3.246  26.863   1.904
 6959W        W75364  40.798  34.836   0.804
 6960W        W75365  43.273  37.317   4.250
 6961W        W75366   0.348  30.994  14.665
 6962W        W75367   8.160  39.843  11.583
 6963W        W75368  10.412   9.205  14.875
 6964W        W75369  38.028  42.839  10.791
 6965W        W75370  13.510   3.123  11.151
 6966W        W75371  28.235  21.533  10.660
 6967W        W75372  24.186  10.103   2.266
 6968W        W75373   6.159  22.008  13.090
 6969W        W75374  35.867  14.811   3.324
 6970W        W75375   2.766  24.585   0.487
 6971W        W75376  37.316   1.077   4.066
 6972W        W75377   0.270  30.444  10.817
 6973W        W75378  26.065   4.600  10.337
 6974W        W75379   7.677   3.624  11.639
 6975W        W75380  13.020   2.817  13.372
 6976W        W75381  40.536  20.062  12.534
 6977W        W75382  16.011  29.881  11.684
 6978W        W75383  22.008  33.147  12.877
 6979W        W75384  20.023  25.641   3.466
 6980W        W75385  36.615  30.022   0.365
 6981W        W75386  43.860  19.761   3.297
 6982W        W75387   6.746  27.874   2.607
 6983W        W75388  38.909  20.757   2.827
 6984W        W75389  44.234   3.006   0.254
 6985W        W75390  33.399  35.988   1.489
 6986W        W75391  17.465  19.763   3.168
 6987W        W75392  12.596  43.367  11.927
 6988W        W75393  40.404  44.784   4.558
 6989W        W75394  11.913   5.101   2.179
 6990W        W75395  12.713  12.102   1.690
 6991W        W75396   8.237  13.806   2.860
 6992W        W75397  27.022  12.311  14.802
 6993W        W75398  17.072  16.773   4.554
 6994W        W75399  26.463  37.327   2.805
 6995W        W75400  37.637  14.031  12.007
 6996W        W75401   9.654  12.781   3.922
 6997W        W75402  32.135  33.799  13.842
 6998W        W75403  44.815  31.699  13.088
 6999W        W75404  33.510  13.906  11.465
 7000W        W75405  15.715  43.422   0.472
 7001W        W75406   7.248  44.568   2.331
 7002W        W75407   3.225   7.849   5.416
 7003W        W75408   8.189  33.372   0.434
 7004W        W75409  44.869  36.056   3.147
 7005W        W75410  36.113  44.074  12.109
 7006W        W75411  10.879  24.724   2.780
 7007W        W75412   9.570  13.170   4.865
 7008W        W75413  24.999   4.178  13.882
 7009W        W75414  43.581   6.697   1.794
 7010W        W75415   3.410  40.551  13.816
 7011W        W75416   8.066  34.064   2.601
 7012W        W75417  31.423   0.496  11.916
 7013W        W75418  14.248   7.658  11.157
 7014W        W75419  35.322  12.679  10.512
 7015W        W75420  33.545   0.285  13.273
 7016W        W75421   8.825  37.906  12.476
 7017W        W75422  27.351   7.757  11.345
 7018W        W75423  21.992   4.442  14.315
 7019W        W75424  43.791  40.727  10.705
 7020W        W75425   6.881   7.904   4.194
 7021W        W75426  32.956   9.090   0.350
 7022W        W75427  21.200  41.866   3.144
 7023W        W75428  17.362  18.575   4.228
 7024W        W75429   3.826  29.456   0.494
 7025W        W75430  20.691  28.636  14.918
 7026W        W75431  28.327  31.587   1.828
 7027W        W75432  36.888  25.957   1.044
 7028W        W75433   9.344   8.637  11.288
 7029W        W75434   1.399  35.749   0.956
 7030W        W75435  35.416  17.554  12.728
 7031W        W75436  34.614  32.481   0.768
 7032W        W75437  33.645  24.720  13.057
 7033W        W75438  10.311  18.622   1.157
 7034W        W75439  43.454   9.907   4.512
 7035W        W75440  40.316  19.360   0.928
 7036W        W75441  29.100   6.955   1.214
 7037W        W75442  37.840  19.654   0.920
 7038W        W75443  25.931  30.651   1.334
 7039W        W75444  37.100   5.376  13.580
 7040W        W75445  32.133  42.364  13.070
 7041W        W75446  13.814  19.909   4.290
 7042W        W75447   9.788  32.463  11.697
 7043W        W75448  18.747  42.037  14.780
 7044W        W75449  26.531  24.882  14.807
 7045W        W75450  21.514  21.957   1.064
 7046W        W75451   4.218  35.636  13.517
 7047W        W75452   1.007  38.346  14.447
 7048W        W75453  38.692  23.417  12.921
 7049W        W75454  17.764  24.470   3.756
 7050W        W75455  14.701  43.713   4.578
 7051W        W75456  33.059  42.502  12.137
 7052W        W75457  27.450  18.709   0.119
 7053W        W75458  42.492  34.588   3.303
 7054W        W75459  42.117  32.032  11.634
 7055W        W75460  31.708  16.275   2.661
 7056W        W75461   1.326   3.598   3.172
 7057W        W75462  35.520   0.239  10.680
 7058W        W75463  13.288  10.590  13.813
 7059W        W75464   4.118  38.758   2.592
 7060W        W75465  24.725  16.873  13.508
 7061W        W75466  20.233  27.399  12.605
 7062W        W75467  41.439  18.337   2.562
 7063W        W75468  24.300  26.081   1.329
 7064W        W75469  20.934  19.570   3.251
 7065W        W75470  25.974  30.128  12.704
 7066W        W75471  44.472  16.019  11.119
 7067W        W75472   4.401  41.264  11.162
 7068W        W75473  22.615  36.575   3.742
 7069W        W75474  11.767  11.612  12.649
 7070W        W75475   4.179  22.108  11.071
 7071W        W75476  43.207  27.117  13.967
 7072W        W75477   7.516  33.480  10.701
 7073W        W75478  39.978  27.641   0.942
 7074W        W75479  38.363   4.891  11.408
 7075W        W75480  12.772  35.830   9.651
 7076W        W75481  27.954  15.068   3.046
 7077W        W75482   5.800  27.173  10.676
 7078W        W75483  40.560  22.993  13.227
 7079W        W75484  20.765  21.653   4.788
 7080W        W75485  10.194  28.178   0.767
 7081W        W75486  17.566  27.576  10.646
 7082W        W75487  39.721   6.988  14.363
 7083W        W75488  31.705  41.549  11.497
 7084W        W75489  24.219  12.195   4.328
 7085W        W75490  17.651  43.979   0.587
 7086W        W75491   7.337  42.915  14.908
 7087W        W75492  39.979  17.651   4.638
 7088W        W75493   3.266  19.581   0.968
 7089W        W75494  16.045   0.367  13.768
 7090W        W75495  27.642   3.599   3.169
 7091W        W75496  41.794   2.130   1.681
 7092W        W75497  10.630  28.986   1.314
 7093W        W75498  44.011  42.221   1.778
 7094W        W75499  20.071  13.355   1.644
 7095W        W75500  42.413  43.966  11.520
 7096W        W75501  14.248  20.251  13.973
 7097W        W75502  16.249  30.860  13.036
 7098W        W75503  27.205   9.578  13.807
 7099W        W75504  10.122  25.973   0.325
 7100W        W75505  41.721   7.821  13.809
 7101W        W75506   3.611   6.017   3.191
 7102W        W75507  14.305  36.618  13.295
 7103W        W75508  14.899  41.283  12.006
 7104W        W75509   6.199  34.958   0.446
 7105W        W75510  13.036  20.314  11.851
 7106W        W75511  26.435  42.886   0.978
 7107W        W75512  27.393  14.215   2.579
 7108W        W75513   8.861  21.612   2.545
 7109W        W75514  11.273   3.494  13.052
 7110W        W75515  37.487   1.795  13.428
 7111W        W75516  11.307  16.443  12.681
 7112W        W75517  19.727  37.864  14.826
 7113W        W75518   0.881   8.291   4.152
 7114W        W75519   7.157  34.968   1.633
 7115W        W75520   2.638  36.014   4.571
 7116W        W75521   3.864  36.753   1.976
 7117W        W75522  35.024  34.192  13.141
 7118W        W75523  37.106  14.513   0.825
 7119W        W75524  43.944  12.261   2.169
 7120W        W75525  25.996  23.744  12.589
 7121W        W75526  10.778   2.331  10.795
 7122W        W75527   1.501   6.067  13.300
 7123W        W75528  30.561  27.865   4.895
 7124W        W75529  42.951   6.893   2.796
 7125W        W75530  32.991  44.095   0.748
 7126W        W75531  33.912  44.627   4.612
 7127W        W75532   0.351  12.872   1.032
 7128W        W75533  20.023  38.009   4.609
 7129W        W75534  16.641   0.368  10.666
 7130W        W75535  31.826   7.443   0.431
 7131W        W75536  10.779  18.512   0.217
 7132W        W75537  39.533   7.987   4.454
 7133W        W75538  18.871  30.097   0.968
 7134W        W75539   5.348  34.883  13.794
 7135W        W75540  11.787   7.389   3.168
 7136W        W75541   7.911  42.386  12.019
 7137W        W75542  10.170  34.119   1.272
 7138W        W75543  15.891  18.763  14.754
 7139W        W75544  12.910  26.092   2.434
 7140W        W75545  18.750  36.089   0.914
 7141W        W75546  14.032  43.326  13.535
 7142W        W75547  25.998  18.970  10.532
 7143W        W75548  33.018  30.379   0.918
 7144W        W75549   1.366  28.254  12.683
 7145W        W75550  22.981  24.109   2.758
 7146W        W75551  18.539  25.644  14.591
 7147W        W75552  39.866   4.486  11.062
 7148W        W75553  15.022  18.282   4.269
 7149W        W75554  32.308  22.292   4.267
 7150W        W75555   5.696  35.835  11.075
 7151W        W75556  38.501   3.213   3.655
 7152W        W75557   1.805  26.965   0.486
 7153W        W75558  10.658   9.454  11.964
 7154W        W75559  22.567  23.003  14.403
 7155W        W75560   0.993  34.617  10.596
 7156W        W75561  18.813  35.428   1.740
 7157W        W75562   6.720   4.785   2.536
 7158W        W75563  18.863  16.021   4.344
 7159W        W75564  15.141  38.548   2.976
 7160W        W75565  44.700   6.819   4.138
 7161W        W75566   2.468  44.399  13.341
 7162W        W75567  34.350  43.542   0.699
 7163W        W75568  35.704   4.987   0.810
 7164W        W75569  34.339  44.166  10.676
 7165W        W75570  15.583  29.732   1.486
 7166W        W75571  33.223  32.090  10.662
 7167W        W75572  17.837   7.378  11.521
 7168W        W75573   4.783  33.419  13.034
 7169W        W75574  28.119  30.611  13.010
 7170W        W75575  37.527   7.941  13.469
 7171W        W75576  35.276  43.784  10.449
 7172W        W75577  26.585  11.775  11.483
 7173W        W75578   3.950   7.966   1.904
 7174W        W75579  32.372  21.034   1.689
 7175W        W75580  24.101   0.227  10.995
 7176W        W75581  16.566  34.297   0.159
 7177W        W75582  10.491  38.344  11.445
 7178W        W75583  42.073  37.809   3.082
 7179W        W75584  27.473  13.781   4.573
 7180W        W75585  28.046  17.283   0.866
 7181W        W75586  34.124  39.950   4.228
 7182W        W75587  32.803  40.650  12.923
 7183W        W75588  39.807  35.745   3.583
 7184W        W75589   4.767  17.640  13.912
 7185W        W75590  37.017  28.185   2.185
 7186W        W75591   9.411  39.289   3.655
 7187W        W75592  18.384  43.106   0.601
 7188W        W75593  43.489  12.422   1.525
 7189W        W75594   3.354  40.971  10.755
 7190W        W75595  29.906  36.783   4.701
 7191W        W75596  27.690  17.040   0.518
 7192W        W75597  27.726   0.366   2.654
 7193W        W75598  35.298  40.582   2.755
 7194W        W75599  30.938  38.130  14.359
 7195W        W75600   7.847  25.148   4.515
 7196W        W75601  11.795  33.628  10.773
 7197W        W75602  12.013  15.913   4.180
 7198W        W75603  11.151  10.330  14.708
 7199W        W75604  17.085  34.613  11.369
 7200W        W75605  30.464  22.101   3.769
 7201W        W75606  43.725  35.110   0.544
 7202W        W75607  37.910  28.505   1.710
 7203W        W75608   6.662  31.699  10.638
 7204W        W75609  16.163  36.969  12.659
 7205W        W75610  24.023  13.421  12.602
 7206W        W75611  14.386  44.920  13.296
 7207W        W75612   3.928   0.481   0.831
 7208W        W75613  40.898  10.747  10.593
 7209W        W75614  44.492  13.300   3.805
 7210W        W75615  35.398  36.488  14.782
 7211W        W75616   2.052  29.131  11.610
 7212W        W75617   2.527   3.289  12.152
 7213W        W75618   8.274  44.365   0.358
 7214W        W75619  11.697   5.670   1.363
 7215W        W75620  14.845  18.480  11.303
 7216W        W75621   8.719  16.849  12.939
 7217W        W75622   1.578  25.724   2.571
 7218W        W75623  31.158  38.907   4.122
 7219W        W75624  38.894  17.719   2.727
 7220W        W75625  28.607  34.329   1.132
 7221W        W75626  14.828  37.859  13.485
 7222W        W75627  27.056  20.896   1.770
 7223W        W75628  12.151  11.291  14.874
 7224W        W75629  13.454  19.679   0.053
 7225W        W75630  27.079   0.015   3.851
 7226W        W75631   1.201  23.228  10.737
 7227W        W75632  20.181   1.314  11.417
 7228W        W75633  22.059  27.229  12.828
 7229W        W75634  43.057  30.859   4.141
 7230W        W75635  27.730  37.654  14.158
 7231W        W75636  43.487  11.275   4.734
 7232W        W75637   9.854  17.279   2.634
 7233W        W75638  40.012  43.933  11.621
 7234W        W75639  44.194  32.557   2.004
 7235W        W75640   3.182  17.065   2.591
 7236W        W75641  37.626  22.306   1.503
 7237W        W75642   0.148   3.192   0.940
 7238W        W75643   9.734  34.649   0.556
 7239W        W75644   2.378  34.340   1.422
 7240W        W75645   4.914  21.570  11.391
 7241W        W75646  37.894  41.024   1.868
 7242W        W75647  19.568  22.629  11.285
 7243W        W75648  24.249  35.422   3.185
 7244W        W75649   0.413  34.573   2.626
 7245W        W75650   1.854  29.995   4.659
 7246W        W75651  26.970  12.055  11.889
 7247W        W75652  18.318  29.211   3.197
 7248W        W75653   1.958  17.362  14.420
 7249W        W75654  21.833  24.206   0.965
 7250W        W75655  11.597  16.038  10.592
 7251W        W75656   7.681  11.557  11.133
 7252W        W75657  18.805  15.717  10.851
 7253W        W75658   3.860  14.395   2.621
 7254W        W75659  25.028  41.810   0.980
 7255W        W75660  37.392  15.371   0.871
 7256W        W75661  15.191  39.123   2.368
 7257W        W75662  37.761  10.296   1.195
 7258W        W75663   5.777  33.008   4.488
 7259W        W75664  33.181  20.620  12.653
 7260W        W75665  40.073  33.523  10.062
 7261W        W75666  39.573  11.249  14.287
 7262W        W75667   4.463  31.915  12.204
 7263W        W75668  10.196  22.711   4.059
 7264W        W75669  33.994  42.344  14.372
 7265W        W75670  40.723  34.934   3.398
 7266W        W75671  40.518  42.536  11.176
 7267W        W75672  21.762  26.632  13.476
 7268W        W75673  17.236  38.567   3.862
 7269W        W75674  13.551   4.245   1.702
 7270W        W75675  43.540  37.156  12.420
 7271W        W75676   7.860  12.157   1.387
 7272W        W75677  35.539  44.228  10.537
 7273W        W75678  35.698   4.953  12.482
 7274W        W75679  44.399   8.818   4.122
 7275W        W75680  17.633  26.180   0.851
 7276W        W75681  22.249   4.814  13.578
 7277W        W75682   5.296  15.525   2.717
 7278W        W75683  41.988  43.038   1.484
 7279W        W75684  22.218  23.537  11.459
 7280W        W75685  38.923   6.858  11.859
 7281W        W75686  31.953   3.962  12.797
 7282W        W75687  22.580  10.075  11.589
 7283W        W75688  15.629   8.699   0.159
 7284W        W75689  14.831  16.000   3.620
 7285W        W75690   9.253  32.110   4.390
 7286W        W75691  22.450  30.385  13.420
 7287W        W75692  13.621  21.983  10.496
 7288W        W75693   8.042  19.963   3.852
 7289W        W75694  18.669  10.239   1.841
 7290W        W75695   9.807  34.444   1.499
 7291W        W75696  13.444  35.300  12.880
 7292W        W75697  41.958   3.834   0.066
 7293W        W75698   2.539  16.621  12.505
 7294W        W75699  15.182  35.414  14.148
 7295W        W75700   1.258  40.181   0.299
 7296W        W75701   0.935  31.522  14.454
 7297W        W75702  27.177   9.381   2.430
 7298W        W75703   8.192   0.654  14.761
 7299W        W75704  24.340  21.317   2.535
 7300W        W75705  17.087   4.303   0.417
 7301W        W75706  44.836  32.896  13.925
 7302W        W75707   0.090  10.622  14.752
 7303W        W75708   9.194   0.810  12.135
 7304W        W75709  19.972  30.067  11.471
 7305W        W75710  17.467  40.381  11.150
 7306W        W75711  12.166  36.461  12.950
 7307W        W75712   1.796   4.419  14.903
 7308W        W75713  37.543   9.379   0.015
 7309W        W75714  33.693  18.626   1.385
 7310W        W75715  31.770  16.274  11.538
 7311W        W75716  16.396  19.798   4.562
 7312W        W75717  44.302  24.335   2.143
 7313W        W75718  28.916   4.635  11.898
 7314W        W75719   2.991   5.232  10.694
 7315W        W75720  21.125  24.051  13.716
 7316W        W75721  19.470  39.472   0.136
 7317W        W75722  36.171  24.956  11.049
 7318W        W75723  23.696  25.003  11.584
 7319W        W75724  24.959   9.744   0.949
 7320W        W75725  41.049  35.264   3.101
 7321W        W75726  34.925  15.256  13.042
 7322W        W75727  14.620  29.224   0.771
 7323W        W75728  24.737  42.993  14.029
 7324W        W75729  10.748  23.574   4.515
 7325W        W75730  30.631  41.020  12.473
 7326W        W75731   6.888  28.759  14.900
 7327W        W75732  36.964   8.697  12.171
 7328W        W75733  44.162   1.011  12.563
 7329W        W75734  32.206  14.645   4.261
 7330W        W75735  26.725  18.245   4.584
 7331W        W75736  41.732  36.320  13.950
 7332W        W75737   3.223  18.152  14.028
 7333W        W75738  34.659  41.363   1.612
 7334W        W75739   8.905   1.802   2.745
 7335W        W75740  41.248  18.193  12.584
 7336W        W75741   9.926  23.649  14.918
 7337W        W75742  12.098  36.881   2.907
 7338W        W75743  29.068  40.170   2.447
 7339W        W75744  23.623   2.419   1.768
 7340W        W75745  26.631   9.274   3.837
 7341W        W75746  11.669  12.362  11.097
 7342W        W75747  44.846  33.440  12.650
 7343W        W75748  38.890  43.707  14.883
 7344W        W75749  24.525  18.105   0.378
 7345W        W75750  27.055  28.980  14.741
 7346W        W75751  10.218   0.862   1.895
 7347W        W75752  19.711  35.152  11.927
 7348W        W75753  19.052   0.628  14.892
 7349W        W75754  30.216  16.631  12.977
 7350W        W75755   8.460  30.033  14.461
 7351W        W75756  39.985  41.722   0.555
 7352W        W75757   4.912  11.584  12.048
 7353W        W75758   8.168  18.762   2.788
 7354W        W75759   5.267  28.241  13.300
 7355W        W75760   9.146   3.674  11.629
 7356W        W75761  33.345  24.880  12.058
 7357W        W75762  18.687  18.683   4.614
 7358W        W75763   4.762   9.190   2.848
 7359W        W75764  40.310   3.609   2.500
 7360W        W75765  38.369  41.360  14.847
 7361W        W75766   5.601  31.472   2.927
 7362W        W75767  42.013   1.838   3.697
 7363W        W75768  32.161   3.338  11.043
 7364W        W75769  30.521   0.600  10.522
 7365W        W75770  31.086  17.274  11.044
 7366W        W75771  11.410  22.699  14.804
 7367W        W75772  39.453   1.450  11.206
 7368W        W75773  22.424  17.132  12.073
 7369W        W75774  14.709  27.132   2.726
 7370W        W75775  23.568  41.896   0.529
 7371W        W75776  32.865   0.736  14.732
 7372W        W75777  21.709  41.775   4.856
 7373W        W75778  30.640  26.064  12.454
 7374W        W75779  36.095   1.084   0.887
 7375W        W75780  24.257  15.694   3.609
 7376W        W75781  30.183  32.597  14.816
 7377W        W75782  30.687  12.203  12.883
 7378W        W75783   2.647  37.930  14.960
 7379W        W75784  16.605   5.110  14.708
 7380W        W75785  16.945  17.619  13.380
 7381W        W75786  14.411  34.924   0.767
 7382W        W75787  21.052  20.507   1.412
 7383W        W75788  22.175   7.681  11.741
 7384W        W75789   6.052  39.407   1.449
 7385W        W75790  37.890  11.246   0.310
 7386W        W75791  43.521  38.560  12.586
 7387W        W75792  16.272  39.336  11.999
 7388W        W75793  25.633  40.432  10.158
 7389W        W75794   3.383  22.973   3.801
 7390W        W75795  42.248   9.848  11.599
 7391W        W75796  32.921  32.530  10.743
 7392W        W75797   1.449  15.835   3.621
 7393W        W75798  34.619  24.757   4.738
 7394W        W75799  23.185  18.241  13.539
 7395W        W75800   9.598  15.918   2.751
 7396W        W75801  27.562  30.221   3.681
 7397W        W75802  33.808   0.190  11.037
 7398W        W75803  30.185  34.070   3.755
 7399W        W75804  12.477  42.084  10.649
 7400W        W75805   0.358  13.670   3.137
 7401W        W75806   5.159  25.457  12.606
 7402W        W75807   8.137  10.892   4.526
 7403W        W75808  16.716  20.740  13.167
 7404W        W75809  25.565  14.056  14.820
 7405W        W75810  13.164  18.559  10.934
 7406W        W75811  15.425  24.135   5.233
 7407W        W75812  28.740  37.363   3.672
 7408W        W75813  12.874  13.080   4.260
 7409W        W75814  33.972  41.012  13.340
 7410W        W75815  32.472  44.222   0.674
 7411W        W75816  14.240   9.416   2.021
 7412W        W75817  28.980   9.843   0.328
 7413W        W75818   2.569  26.566   3.630
 7414W        W75819  12.528  12.095   2.179
 7415W        W75820   6.242  40.017   2.249
 7416W        W75821   4.794  13.369  14.397
 7417W        W75822   6.168   3.521  13.492
 7418W        W75823  16.966  11.813   5.440
 7419W        W75824   5.304   4.714  11.462
 7420W        W75825  13.731  34.179   1.520
 7421W        W75826  44.423  40.316  13.982
 7422W        W75827  11.150  13.373  12.456
 7423W        W75828  29.839  15.766  11.951
 7424W        W75829  18.639   3.707  14.248
 7425W        W75830   1.163  14.043  12.102
 7426W        W75831  11.194  31.629  12.014
 7427W        W75832  37.539  36.302  14.432
 7428W        W75833   5.872  29.608   4.612
 7429W        W75834   3.326  40.661   4.034
 7430W        W75835  44.802  18.783  10.951
 7431W        W75836  38.009   4.825   2.169
 7432W        W75837  30.472   4.397  12.894
 7433W        W75838  31.582  13.142   3.546
 7434W        W75839   5.812  28.692   2.269
 7435W        W75840  24.631  24.563  10.726
 7436W        W75841  27.019   8.307  13.582
 7437W        W75842  10.901  40.301  11.502
 7438W        W75843  12.226   3.877   4.735
 7439W        W75844  11.180  32.890   1.219
 7440W        W75845  37.940  21.974   3.320
 7441W        W75846   2.962  35.011  13.080
 7442W        W75847   6.479  32.394   1.810
 7443W        W75848  29.748   4.791   1.734
 7444W        W75849  30.373   8.348  14.546
 7445W        W75850  44.617   8.259  13.978
 7446W        W75851  28.237  21.766   2.816
 7447W        W75852   8.938  21.595  12.553
 7448W        W75853  34.311   2.171   0.787
 7449W        W75854  31.964  41.827   2.768
 7450W        W75855  42.867   8.876  11.245
 7451W        W75856  15.738  33.480   5.081
 7452W        W75857  15.049  12.420  14.038
 7453W        W75858  34.069   1.905   0.402
 7454W        W75859  22.008   5.580   3.600
 7455W        W75860  28.419   7.024   4.693
 7456W        W75861   0.356   0.482  13.060
 7457W        W75862  43.203  33.025  10.636
 7458W        W75863  19.309  31.788  10.663
 7459W        W75864   1.508   3.333   2.764
 7460W        W75865  31.674  18.834  13.641
 7461W        W75866  44.373  27.627  10.546
 7462W        W75867   4.784  17.263   0.823
 7463W        W75868  38.916  20.517   2.374
 7464W        W75869  31.466  41.923  13.529
 7465W        W75870  28.045  28.592  10.424
 7466W        W75871  41.364  27.610  12.928
 7467W        W75872  43.161  44.352  11.946
 7468W        W75873   3.281   0.158  10.287
 7469W        W75874  14.823   1.389   4.222
 7470W        W75875   5.913  36.401   1.937
 7471W        W75876  34.662  13.104  12.464
 7472W        W75877  39.952  21.918  14.891
 7473W        W75878  25.703  43.538   3.305
 7474W        W75879   8.915  25.473  12.969
 7475W        W75880  37.960   0.776   0.830
 7476W        W75881  27.455  14.676  10.249
 7477W        W75882  41.460  26.113  10.992
 7478W        W75883  30.930  36.057  12.116
 7479W        W75884  31.906   9.622  12.845
 7480W        W75885  27.788   0.278  11.528
 7481W        W75886  29.209   4.240  12.027
 7482W        W75887  31.070  43.925  12.961
 7483W        W75888  28.309  18.642   4.937
 7484W        W75889   6.744  37.325  13.821
 7485W        W75890  43.318   0.138   4.412
 7486W        W75891  28.948   7.091   3.355
 7487W        W75892  22.257   4.335   1.829
 7488W        W75893   6.797  13.718  13.718
 7489W        W75894  34.729  28.692   4.314
 7490W        W75895   0.913  24.118   4.615
 7491W        W75896  17.284  27.101  10.603
 7492W        W75897   1.778  33.399   4.556
 7493W        W75898  11.126  10.158   4.734
 7494W        W75899  10.912  40.509  12.492
 7495W        W75900   1.241  33.512   0.544
 7496W        W75901  33.135  19.799  11.638
 7497W        W75902  23.777  41.516  12.836
 7498W        W75903   9.380   3.274  12.512
 7499W        W75904  28.493   3.960  14.976
 7500W        W75905   3.863  41.850  12.074
 7501W        W75906  13.357  36.246  10.533
 7502W        W75907  14.733  20.404  12.808
 7503W        W75908  17.837  33.569   1.369
 7504W        W75909  44.337   3.940  13.381
 7505W        W75910  29.979   1.271  14.026
 7506W        W75911  43.286   4.224   4.685
 7507W        W75912   6.333   9.016   4.597
 7508W        W75913  22.704  12.281  12.116
 7509W        W75914  35.102  11.278   1.987
 7510W        W75915  33.848  39.772   2.798
 7511W        W75916  38.263  24.524   3.629
 7512W        W75917  43.418  33.294  12.144
 7513W        W75918  29.426  38.988   1.883
 7514W        W75919   4.963  22.846   3.227
 7515W        W75920  43.533  35.940  13.929
 7516W        W75921  10.807  33.601  13.494
 7517W        W75922  18.780  29.013   3.252
 7518W        W75923   0.545   3.708  13.873
 7519W        W75924  23.010  25.967   3.788
 7520W        W75925   6.343  23.110  11.362
 7521W        W75926   6.846  39.909   4.314
 7522W        W75927  26.866  35.063   1.714
 7523W        W75928  11.248  40.343  11.109
 7524W        W75929   9.701  35.346  14.967
 7525W        W75930  25.170   8.370  11.207
 7526W        W75931  28.012  34.552  14.084
 7527W        W75932  16.750  44.855  14.244
 7528W        W75933  16.733  27.486   3.849
 7529W        W75934  44.738  25.209  11.587
 7530W        W75935  10.938   3.240   1.764
 7531W        W75936   1.443  33.532   1.902
 7532W        W75937  29.711  35.343  14.898
 7533W        W75938  26.001  37.410  12.079
 7534W        W75939  24.674  34.624  12.022
 7535W        W75940  42.267  34.517  14.762
 7536W        W75941  31.177  31.635   2.122
 7537W        W75942  42.438  34.412   0.247
 7538W        W75943  29.548  23.380   1.511
 7539W        W75944  38.767  32.128   5.220
 7540W        W75945  27.586   2.142   3.290
 7541W        W75946  33.520  27.414  11.139
 7542W        W75947  28.951  18.984  13.958
 7543W        W75948  15.570  18.798   4.829
 7544W        W75949  19.815  36.548  11.048
 7545W        W75950  10.627  36.188   0.364
 7546W        W75951   5.435  26.515   2.462
 7547W        W75952  40.591  10.178   4.540
 7548W        W75953  21.236  29.495   0.012
 7549W        W75954  27.720  17.281  14.384
 7550W        W75955  42.280  19.797  12.070
 7551W        W75956   2.807  40.025  13.825
 7552W        W75957   5.240  37.451  11.133
 7553W        W75958  23.607  39.499   2.749
 7554W        W75959  27.423  29.681   3.640
 7555W        W75960   9.842  39.236   4.590
 7556W        W75961  21.606  44.391   0.724
 7557W        W75962   8.161  37.010  14.880
 7558W        W75963  13.185  16.285   4.752
 7559W        W75964  44.543  25.291   5.065
 7560W        W75965  11.839  37.026  11.729
 7561W        W75966  12.772  31.712  13.353
 7562W        W75967   5.913  40.297   1.928
 7563W        W75968   6.214   4.430   2.678
 7564W        W75969  20.861  11.698  12.817
 7565W        W75970   2.904  21.461   3.304
 7566W        W75971  12.361  42.252  11.197
 7567W        W75972  25.444  13.148  11.205
 7568W        W75973  30.330   1.271  14.906
 7569W        W75974  24.625  24.987   3.404
 7570W        W75975  19.330   5.771   9.900
 7571W        W75976  27.499  32.703   4.110
 7572W        W75977   7.643  42.553  11.613
 7573W        W75978  25.712   5.900   0.405
 7574W        W75979   6.487  36.925   3.853
 7575W        W75980  32.133  27.045  12.479
 7576W        W75981  29.193  24.606   3.401
 7577W        W75982  31.428  43.764   4.205
 7578W        W75983   8.408  44.703   4.668
 7579W        W75984  19.083  13.439  12.584
 7580W        W75985  21.782  43.472  13.962
 7581W        W75986  36.036  12.707  13.379
 7582W        W75987  16.617   9.124  10.417
 7583W        W75988  17.507   6.014  11.626
 7584W        W75989  13.844  37.315   2.285
 7585W        W75990   6.208  15.353   4.619
 7586W        W75991   2.948  12.674  10.781
 7587W        W75992  25.653   6.596   1.481
 7588W        W75993   8.509   0.425   2.946
 7589W        W75994  20.102  42.785   4.646
 7590W        W75995   1.235  37.054   2.287
 7591W        W75996  23.642  23.009  12.444
 7592W        W75997  42.615   0.424  11.213
 7593W        W75998  17.774  29.565   4.344
 7594W        W75999  37.979   9.171  10.842
 7595W        W76000  13.183  41.424  11.535
 7596W        W76001  31.623  15.317  10.588
 7597W        W76002  32.610  19.504  10.612
 7598W        W76003  23.455  31.104   0.341
 7599W        W76004  21.771   7.452  11.938
 7600W        W76005  40.966  43.282  13.482
 7601W        W76006   4.310   6.531  12.155
 7602W        W76007   4.354  27.094   0.343
 7603W        W76008  18.241  31.534   3.851
 7604W        W76009  28.006  44.004  10.152
 7605W        W76010  36.784  11.985   4.152
 7606W        W76011  10.450  42.230  12.023
 7607W        W76012  37.694  19.116  14.489
 7608W        W76013  20.840   7.319   1.304
 7609W        W76014  38.148  24.829  11.317
 7610W        W76015  16.316  17.163  13.517
 7611W        W76016   5.936   1.238  11.578
 7612W        W76017  37.940  34.617   5.213
 7613W        W76018  23.183  17.179   2.779
 7614W        W76019   0.464  19.242  11.890
 7615W        W76020  25.464   2.861   1.895
 7616W        W76021  32.322  38.389   3.812
 7617W        W76022   4.817  27.842   4.061
 7618W        W76023  18.975  13.859   0.684
 7619W        W76024  31.692  39.358   4.023
 7620W        W76025  11.864   8.099   3.866
 7621W        W76026  14.584  23.189   1.012
 7622W        W76027  12.223  19.860  11.397
 7623W        W76028  32.466  28.071   2.354
 7624W        W76029   9.170   0.940   3.233
 7625W        W76030   8.371   2.219  11.990
 7626W        W76031  36.835  13.855   4.161
 7627W        W76032  19.629  35.364   2.629
 7628W        W76033  32.316  19.086  13.565
 7629W        W76034  31.238   7.164   1.701
 7630W        W76035  19.168   7.389   3.239
 7631W        W76036  16.180  28.879  14.265
 7632W        W76037  28.191  26.625  12.563
 7633W        W76038  38.288  11.643   1.200
 7634W        W76039  22.662  10.894  12.111
 7635W        W76040   9.803  29.581   2.592
 7636W        W76041  36.436  24.589   2.682
 7637W        W76042  36.956  21.170   1.907
 7638W        W76043  41.388   0.372  13.853
 7639W        W76044   3.472  32.921   2.348
 7640W        W76045  36.150  34.541   3.951
 7641W        W76046   7.245  34.521   3.689
 7642W        W76047  33.053  14.977  14.863
 7643W        W76048   1.886  12.625   4.137
 7644W        W76049  42.342  18.519   0.817
 7645W        W76050  14.069   0.115  10.848
 7646W        W76051  35.281  13.954  13.499
 7647W        W76052  26.666  42.721  13.017
 7648W        W76053  12.918  28.628  14.467
 7649W        W76054  16.372  27.499  14.330
 7650W        W76055  42.991  19.769   0.826
 7651W        W76056  37.470  38.635   3.719
 7652W        W76057  20.848  43.430   4.632
 7653W        W76058  12.711   1.787  12.336
 7654W        W76059  42.959  26.762   2.577
 7655W        W76060  19.533  20.472   0.253
 7656W        W76061   7.913  35.112   0.411
 7657W        W76062  38.332  13.678   2.304
 7658W        W76063  10.089  13.220   0.449
 7659W        W76064   9.043  31.850  14.825
 7660W        W76065  13.599   4.336   0.762
 7661W        W76066   9.758  14.391   4.914
 7662W        W76067  38.326  18.832  14.665
 7663W        W76068  31.549   1.829   0.507
 7664W        W76069  26.470  20.695   4.619
 7665W        W76070  17.757  30.588   4.126
 7666W        W76071   6.601   2.749   2.070
 7667W        W76072   6.918  29.441   1.273
 7668W        W76073   2.416  22.992  14.270
 7669W        W76074  12.676  35.512  11.110
 7670W        W76075   2.890  34.629  14.050
 7671W        W76076  16.252  29.840   4.087
 7672W        W76077  16.829  17.883  13.819
 7673W        W76078  11.048  21.490   4.543
 7674W        W76079  38.177   5.390   3.183
 7675W        W76080  30.072  10.130   0.447
 7676W        W76081  13.164   4.176  13.991
 7677W        W76082  22.002  22.611  13.911
 7678W        W76083  22.580   8.841   0.994
 7679W        W76084  24.306  34.936  10.806
 7680W        W76085  36.574  20.082  10.777
 7681W        W76086  31.985  32.322  10.358
 7682W        W76087   3.291  34.046  13.404
 7683W        W76088  24.222   3.744   2.794
 7684W        W76089  19.761   0.475   3.702
 7685W        W76090  27.475  19.947   3.274
 7686W        W76091  16.654   2.292  10.594
 7687W        W76092  14.053  19.765   2.659
 7688W        W76093  14.028  19.051   4.686
 7689W        W76094  21.626  37.469   4.804
 7690W        W76095  35.754  19.715  12.476
 7691W        W76096  40.277  27.112   0.094
 7692W        W76097  39.495  17.850   4.501
 7693W        W76098  14.148   5.203  12.912
 7694W        W76099  31.468  34.409   0.399
 7695W        W76100  15.764  13.859   3.272
 7696W        W76101   8.473  35.060  10.451
 7697W        W76102  14.042   5.434   1.234
 7698W        W76103  42.232   5.079   2.221
 7699W        W76104  34.376  16.277   4.588
 7700W        W76105  16.608  39.444  14.089
 7701W        W76106  16.522   8.316   2.302
 7702W        W76107  22.969  34.126  13.909
 7703W        W76108  16.257  23.490  14.448
 7704W        W76109   0.215  22.709  13.248
 7705W        W76110  44.108  25.781   4.184
 7706W        W76111   2.317  42.524   1.730
 7707W        W76112  41.516  23.127   1.993
 7708W        W76113  24.255  35.356   4.147
 7709W        W76114  16.136  27.499  11.382
 7710W        W76115  28.624  19.790   0.174
 7711W        W76116   3.737  37.917   4.390
 7712W        W76117  31.453  19.019   9.765
 7713W        W76118  34.341  14.746  14.456
 7714W        W76119  34.553  29.300  11.131
 7715W        W76120  40.296  18.308  11.508
 7716W        W76121   1.957  34.643   0.313
 7717W        W76122   5.744  30.626   3.767
 7718W        W76123  39.014   1.920   0.518
 7719W        W76124  28.779  40.012  13.969
 7720W        W76125   3.692  22.116   1.380
 7721W        W76126  34.449  14.815  11.949
 7722W        W76127  40.029   5.892  11.054
 7723W        W76128  37.588  23.494  11.585
 7724W        W76129   7.795  19.034  10.902
 7725W        W76130   3.012  42.392  13.021
 7726W        W76131  40.261  15.140   4.627
 7727W        W76132  29.929  31.586  13.403
 7728W        W76133  43.775  28.087   0.855
 7729W        W76134  34.968  18.216   1.048
 7730W        W76135   6.146  33.961   0.259
 7731W        W76136  37.394  37.546  11.968
 7732W        W76137  30.923  33.022   2.339
 7733W        W76138  35.630   9.801   2.727
 7734W        W76139  12.138  21.198   0.828
 7735W        W76140  37.954  14.935  11.709
 7736W        W76141  25.305  28.938   0.792
 7737W        W76142   9.933  29.164   0.716
 7738W        W76143  44.210   9.743   3.627
 7739W        W76144  16.063  42.044   0.493
 7740W        W76145  29.129   7.381   0.334
 7741W        W76146   3.198  13.952   0.844
 7742W        W76147  33.850  37.958   0.354
 7743W        W76148  41.430  18.736   0.206
 7744W        W76149  17.649  14.958   1.896
 7745W        W76150  24.707  22.253  14.052
 7746W        W76151   3.484  27.839  14.912
 7747W        W76152   4.435  37.105   4.604
 7748W        W76153  16.136  39.818  12.215
 7749W        W76154  37.225  15.745  12.886
 7750W        W76155  24.016  16.369  11.025
 7751W        W76156  16.718  31.597  11.418
 7752W        W76157  23.400   3.714   3.718
 7753W        W76158  42.720   5.368   0.888
 7754W        W76159  33.328  27.674  10.738
 7755W        W76160  32.633  41.761  11.476
 7756W        W76161  19.062  33.680  12.555
 7757W        W76162  33.947  33.963  11.133
 7758W        W76163  40.448   4.732  12.987
 7759W        W76164  41.341  21.684   2.818
 7760W        W76165   4.857  28.618   0.861
 7761W        W76166   7.442   1.241   2.930
 7762W        W76167   0.804  43.495  12.147
 7763W        W76168  18.794  39.581  14.585
 7764W        W76169  32.466  17.869   4.588
 7765W        W76170  41.098  19.555   3.771
 7766W        W76171  18.152  23.682   2.808
 7767W        W76172   2.727  12.222   2.883
 7768W        W76173   3.167  40.324   3.673
 7769W        W76174  35.932  25.168   0.861
 7770W        W76175  36.625  12.223  14.357
 7771W        W76176  10.257   2.626  13.928
 7772W        W76177  13.155  34.464  11.931
 7773W        W76178  42.323  11.123  14.994
 7774W        W76179  22.163  41.728   4.540
 7775W        W76180  34.317  21.789  14.499
 7776W        W76181  25.752   1.890   4.270
 7777W        W76182   5.950  19.517  11.641
 7778W        W76183   2.495  26.526   4.970
 7779W        W76184  25.591  21.962  14.424
 7780W        W76185  10.422  33.027  11.580
 7781W        W76186  28.909  25.957   2.991
 7782W        W76187  25.839  33.293  13.840
 7783W        W76188  19.316  14.706  13.486
 7784W        W76189  26.861  28.890  12.894
 7785W        W76190  19.132  41.622  14.005
 7786W        W76191  37.335   4.988   5.545
 7787W        W76192  41.855  39.773   4.132
 7788W        W76193  14.134  42.348  11.940
 7789W        W76194  29.528   8.994   0.992
 7790W        W76195  17.531   2.323   1.299
 7791W        W76196  29.997   2.900  12.322
 7792W        W76197  10.676  15.564   0.370
 7793W        W76198   5.244  36.466  10.794
 7794W        W76199  13.039  20.593  11.406
 7795W        W76200   3.806  14.250   1.808
 7796W        W76201  31.848   5.199   1.274
 7797W        W76202  10.330  33.045  12.866
 7798W        W76203   5.634  28.446   4.176
 7799W        W76204  43.739  20.553  12.028
 7800W        W76205  35.031  13.266  14.320
 7801W        W76206  26.893   9.925  12.524
 7802W        W76207  42.389  27.110   4.316
 7803W        W76208  22.467  21.895  12.575
 7804W        W76209  33.670  18.867   2.143
 7805W        W76210  17.822  15.583  13.919
 7806W        W76211   0.642  19.243  12.943
 7807W        W76212  21.948   9.908   0.097
 7808W        W76213  19.489  18.546   0.454
 7809W        W76214  20.237  23.460   1.205
 7810W        W76215  35.104  17.388   4.464
 7811W        W76216  42.321  11.874   1.290
 7812W        W76217  23.638   1.710  13.556
 7813W        W76218  11.151  14.798   1.912
 7814W        W76219  30.512  27.027  12.905
 7815W        W76220  16.275  13.627   2.359
 7816W        W76221  19.754  25.692  11.231
 7817W        W76222   1.702  18.668   1.900
 7818W        W76223  12.522  40.146  13.810
 7819W        W76224   2.853  44.754  11.125
 7820W        W76225   4.859  18.942  13.523
 7821W        W76226  27.063  18.292  12.588
 7822W        W76227  40.054   4.049  13.903
 7823W        W76228  28.730   5.054   4.783
 7824W        W76229  17.071  39.734  14.170
 7825W        W76230  29.325  15.374  11.037
 7826W        W76231  44.968   5.622  11.026
 7827W        W76232  35.996   8.937  14.401
 7828W        W76233  26.631  43.890  14.778
 7829W        W76234  22.193  28.408   0.776
 7830W        W76235  33.156   3.523  13.490
 7831W        W76236  21.479  39.272   3.810
 7832W        W76237  26.642  28.911   0.607
 7833W        W76238  16.017  18.469   0.880
 7834W        W76239  18.744  20.052  12.622
 7835W        W76240  11.035  38.259  11.393
 7836W        W76241  23.011  39.359   4.259
 7837W        W76242  35.747  13.281  14.072
 7838W        W76243  34.844  30.574   2.389
 7839W        W76244  22.946  43.415  10.571
 7840W        W76245   4.835   2.794   3.900
 7841W        W76246  39.751  12.064  12.547
 7842W        W76247  33.045   9.313  11.573
 7843W        W76248  32.470  19.994   0.699
 7844W        W76249  10.514  22.227   0.687
 7845W        W76250  23.307  11.333   1.324
 7846W        W76251  10.813  29.123   4.079
 7847W        W76252   4.391   6.316  11.039
 7848W        W76253   9.069  22.315   2.716
 7849W        W76254   7.110  13.245  13.398
 7850W        W76255  22.587  20.307   4.614
 7851W        W76256  25.019  44.454   0.509
 7852W        W76257   5.781   9.803   2.173
 7853W        W76258  41.527  26.082  10.487
 7854W        W76259  41.826  37.826   4.965
 7855W        W76260  27.196   8.235  13.088
 7856W        W76261   8.665  38.229  14.850
 7857W        W76262  15.598  27.437   1.772
 7858W        W76263  17.299  44.691   4.090
 7859W        W76264  28.326  16.547  11.949
 7860W        W76265  44.682  18.420   4.016
 7861W        W76266  40.309  18.514  14.825
 7862W        W76267  38.863   4.425   1.330
 7863W        W76268  26.962   8.890  14.910
 7864W        W76269  21.061  36.418  11.607
 7865W        W76270   5.885  33.311   2.876
 7866W        W76271  30.587  41.170   1.105
 7867W        W76272   8.850  33.169   2.178
 7868W        W76273  27.370  39.983  13.543
 7869W        W76274  20.615   9.804   4.518
 7870W        W76275  37.085  21.625  10.522
 7871W        W76276  31.653  42.056  11.487
 7872W        W76277  41.306  11.623   3.675
 7873W        W76278  19.314  24.414  11.802
 7874W        W76279   3.669  44.432   0.456
 7875W        W76280  17.373  27.443  12.809
 7876W        W76281  27.527  39.834   3.701
 7877W        W76282  25.126  36.100  11.352
 7878W        W76283   6.723  15.650  14.314
 7879W        W76284   0.968  14.837   1.510
 7880W        W76285   0.006  41.865   4.143
 7881W        W76286  11.460  18.251  13.285
 7882W        W76287  21.076  27.704  13.937
 7883W        W76288  35.668  11.835  11.261
 7884W        W76289   2.109   5.256   5.020
 7885W        W76290  44.974  36.488   2.854
 7886W        W76291  43.738   7.155  10.858
 7887W        W76292  38.761  22.041   3.224
 7888W        W76293  11.793  22.767  14.453
 7889W        W76294   1.019  15.699   1.892
 7890W        W76295  38.462  17.399  13.189
 7891W        W76296  29.033  42.398  10.316
 7892W        W76297  33.351   8.706   3.018
 7893W        W76298  25.223  37.066   3.579
 7894W        W76299  44.837  28.482   1.653
 7895W        W76300  12.249   8.747   4.342
 7896W        W76301   3.944  27.308  11.589
 7897W        W76302  26.582  42.057   3.417
 7898W        W76303  34.648   4.760  12.541
 7899W        W76304   3.991   3.830  13.532
 7900W        W76305  19.207  18.072   1.436
 7901W        W76306  41.101  19.080   3.515
 7902W        W76307  10.455   5.563   0.392
 7903W        W76308   2.380  10.526  14.992
 7904W        W76309  18.600  26.689   1.492
 7905W        W76310  30.889  18.595  12.921
 7906W        W76311  32.147   0.102   3.413
 7907W        W76312   1.411  18.744  11.999
 7908W        W76313  33.014  20.461  13.134
 7909W        W76314   2.401  42.086   0.900
 7910W        W76315  43.993  40.318   2.239
 7911W        W76316  39.143  19.181  14.393
 7912W        W76317  29.868  21.558  10.203
 7913W        W76318  40.084  21.066   2.929
 7914W        W76319  21.543  43.964   2.914
 7915W        W76320  22.133   4.363   3.200
 7916W        W76321   2.480  38.372  12.160
 7917W        W76322   3.373  34.522  14.246
 7918W        W76323  14.876   3.421   3.641
 7919W        W76324  43.513  24.960  13.350
 7920W        W76325  30.145  16.198   4.924
 7921W        W76326  41.455  21.976   1.358
 7922W        W76327  12.123  37.501   0.775
 7923W        W76328   8.722   9.106  12.879
 7924W        W76329   1.465  33.160   1.367
 7925W        W76330  13.928  29.041  12.931
 7926W        W76331  28.695  26.712  10.792
 7927W        W76332   2.471   3.845   3.054
 7928W        W76333  25.673  42.568  14.433
 7929W        W76334  39.812  41.527   2.298
 7930W        W76335   1.969  29.384   1.421
 7931W        W76336  23.259  14.294  12.984
 7932W        W76337   3.317  16.597  12.045
 7933W        W76338  38.006  39.046  11.499
 7934W        W76339  38.820  31.087  12.074
 7935W        W76340  10.689  41.471   3.788
 7936W        W76341  39.761  13.538  12.516
 7937W        W76342  12.866  39.299  12.308
 7938W        W76343   9.896  18.224   2.772
 7939W        W76344   0.547   5.464   3.266
 7940W        W76345   4.802  18.476  11.573
 7941W        W76346  19.533   3.526   0.039
 7942W        W76347  35.374   8.314  13.259
 7943W        W76348  28.324   8.129   3.844
 7944W        W76349  12.068  23.214   4.025
 7945W        W76350  32.061  31.980  11.568
 7946W        W76351  25.219  39.555  12.693
 7947W        W76352  22.103  42.025  13.984
 7948W        W76353   2.394  17.731  12.842
 7949W        W76354  23.965  24.153  14.805
 7950W        W76355   0.625  11.277  11.556
 7951W        W76356  37.591  13.690  13.208
 7952W        W76357  35.538  32.475  14.541
 7953W        W76358  19.189  29.490  10.459
 7954W        W76359  25.797  26.605  10.767
 7955W        W76360  35.457   9.243   3.928
 7956W        W76361  21.472  19.490   2.041
 7957W        W76362   1.962   2.666  13.976
 7958W        W76363  23.764  40.493   1.713
 7959W        W76364   5.854   8.101   4.818
 7960W        W76365   9.246  44.997   2.414
 7961W        W76366  30.618  16.124   1.225
 7962W        W76367  10.218  11.932  11.211
 7963W        W76368  39.437  22.836   2.387
 7964W        W76369   0.285   7.325  13.816
 7965W        W76370  39.022  22.596  10.719
 7966W        W76371   2.497   9.437   3.712
 7967W        W76372  14.701   1.880  13.865
 7968W        W76373  12.974  26.831  12.725
 7969W        W76374  17.264  20.242  10.636
 7970W        W76375  11.706  39.807   2.167
 7971W        W76376  35.926   4.998   0.317
 7972W        W76377  38.298  27.618   2.239
 7973W        W76378  18.273  13.287   0.907
 7974W        W76379  20.966   9.300  12.180
 7975W        W76380   4.861   9.885  14.667
 7976W        W76381  10.609  25.482  14.427
 7977W        W76382  16.089  37.868  10.670
 7978W        W76383  20.505  26.776  11.625
 7979W        W76384  19.162   6.787   1.772
 7980W        W76385   2.309  15.522   1.339
 7981W        W76386  33.365  36.203  14.866
 7982W        W76387  23.054  21.037   3.665
 7983W        W76388  31.357  13.850   2.898
 7984W        W76389  35.104  26.241   0.822
 7985W        W76390  12.608  16.204  14.040
 7986W        W76391  36.858  16.993  11.517
 7987W        W76392  42.146  41.567  12.516
 7988W        W76393   0.444  21.252  10.754
 7989W        W76394  35.133  14.349   1.309
 7990W        W76395  38.264   7.852   4.953
 7991W        W76396  44.858  23.077  13.344
 7992W        W76397  38.760   4.319   3.641
 7993W        W76398   2.973   6.400  13.509
 7994W        W76399  31.582  26.655  13.092
 7995W        W76400  43.698   2.978   2.894
 7996W        W76401  41.338  35.341   0.372
 7997W        W76402  10.473  14.785  12.168
 7998W        W76403  15.152  22.741  12.601
 7999W        W76404  12.600  28.345   0.890
 8000W        W76405  14.610   0.398  11.424
 8001W        W76406  22.264  14.615   4.559
 8002W        W76407  33.692   3.082  12.680
 8003W        W76408  32.095  30.769   3.693
 8004W        W76409   9.893  26.183  10.835
 8005W        W76410  32.913  20.980   2.584
 8006W        W76411  18.602  10.374  11.517
 8007W        W76412  25.137   7.845  11.894
 8008W        W76413  11.705   2.452   4.605
 8009W        W76414  16.704  19.615  13.512
 8010W        W76415  36.152  40.438  12.439
 8011W        W76416  41.996  19.718  14.305
 8012W        W76417  15.178  23.013   0.883
 8013W        W76418  13.200  30.760  13.306
 8014W        W76419  18.325  40.743   0.501
 8015W        W76420  12.243  29.063  10.343
 8016W        W76421  27.177   7.320   4.150
 8017W        W76422  21.943  32.154   1.273
 8018W        W76423  31.960   8.672   0.174
 8019W        W76424   9.502   5.791   0.883
 8020W        W76425  35.325  25.723  13.472
 8021W        W76426   1.480  30.606  10.414
 8022W        W76427   3.197  14.863   5.085
 8023W        W76428  39.769  36.917  14.528
 8024W        W76429  17.608   9.430  14.062
 8025W        W76430  44.805  30.900  12.900
 8026W        W76431  43.403  36.387   2.890
 8027W        W76432   6.049  13.003   1.276
 8028W        W76433  32.046  19.028  12.452
 8029W        W76434  27.360  31.397   2.990
 8030W        W76435  32.391  18.627   0.388
 8031W        W76436  17.763  38.542  11.862
 8032W        W76437  21.740  23.042   3.093
 8033W        W76438  19.040  28.700  13.600
 8034W        W76439   6.763   4.382  13.492
 8035W        W76440   2.944  14.264  11.504
 8036W        W76441   9.367  11.247   4.290
 8037W        W76442  15.384  43.035  11.556
 8038W        W76443   7.902   2.372  14.885
 8039W        W76444  13.239  23.501   1.723
 8040W        W76445  22.720   1.014   5.068
 8041W        W76446  36.002  36.821   2.335
 8042W        W76447  35.546  15.155   2.011
 8043W        W76448  18.075  17.692  13.612
 8044W        W76449   9.850  23.450  12.118
 8045W        W76450  39.752  15.307   4.624
 8046W        W76451   1.489   8.194   2.201
 8047W        W76452  21.633  15.635  14.047
 8048W        W76453  25.031  39.607   0.327
 8049W        W76454   1.398  36.372   2.875
 8050W        W76455   3.336  26.069   0.315
 8051W        W76456  15.028  12.424   4.254
 8052W        W76457  20.272  41.794   1.354
 8053W        W76458   8.833   5.343   0.752
 8054W        W76459  22.290  37.347   3.486
 8055W        W76460  37.534  32.967   3.204
 8056W        W76461  12.819  30.351  11.953
 8057W        W76462   4.880  40.642   5.049
 8058W        W76463  40.451  35.556  12.202
 8059W        W76464  26.732  31.538   4.769
 8060W        W76465  36.461  33.822  11.102
 8061W        W76466  30.186  33.429  13.314
 8062W        W76467  34.556  18.181   1.444
 8063W        W76468  12.259  31.587  10.556
 8064W        W76469  13.644  12.563   1.344
 8065W        W76470  12.815  34.325   2.774
 8066W        W76471  25.614  24.944   3.418
 8067W        W76472   5.441  28.001   3.310
 8068W        W76473  13.278   4.715   5.051
 8069W        W76474  13.090  34.190   0.982
 8070W        W76475  17.234  27.719  14.675
 8071W        W76476  34.573  41.371  11.960
 8072W        W76477  21.545  18.728   0.253
 8073W        W76478  28.961  36.333   2.296
 8074W        W76479   0.977  12.779   4.046
 8075W        W76480  31.052  23.659  12.528
 8076W        W76481  39.485   6.399  12.187
 8077W        W76482  10.265  11.274   3.250
 8078W        W76483  14.636   6.605  11.507
 8079W        W76484  26.090  19.144   4.624
 8080W        W76485  22.232  44.270  12.869
 8081W        W76486  39.912  38.361   4.184
 8082W        W76487  19.055  19.599  13.681
 8083W        W76488  30.064  29.740   0.945
 8084W        W76489  12.040  11.414   1.354
 8085W        W76490  16.468  37.220   4.535
 8086W        W76491  24.473  18.637  11.002
 8087W        W76492  37.367  26.047   3.595
 8088W        W76493  42.975   0.473   2.331
 8089W        W76494  20.079   0.951   3.657
 8090W        W76495  14.309  29.500  14.428
 8091W        W76496  18.384   3.316   4.167
 8092W        W76497   1.018  20.650   1.623
 8093W        W76498   1.709   2.790   1.814
 8094W        W76499  17.649  23.000  14.361
 8095W        W76500  38.242  40.961  10.623
 8096W        W76501   3.955   6.804   1.885
 8097W        W76502   1.730  34.128   4.082
 8098W        W76503  19.044  21.691  12.130
 8099W        W76504  36.330   5.820  11.591
 8100W        W76505  12.089  22.681  13.257
 8101W        W76506  35.252  39.484   0.112
 8102W        W76507  20.255  16.759  14.443
 8103W        W76508  34.960  31.211  13.856
 8104W        W76509  41.396   9.825   0.401
 8105W        W76510  22.985   0.386   4.488
 8106W        W76511   0.946   2.655  11.198
 8107W        W76512  20.625   7.614  11.357
 8108W        W76513  12.369  10.070   3.665
 8109W        W76514  42.586  30.690  14.521
 8110W        W76515   1.245  24.999  14.543
 8111W        W76516  19.831  15.134  13.992
 8112W        W76517   2.752  17.211  14.006
 8113W        W76518   1.556  19.335  14.871
 8114W        W76519  16.261  28.681   0.094
 8115W        W76520  17.076  26.080  11.420
 8116W        W76521  32.596   8.457  11.074
 8117W        W76522  32.192  26.110   3.750
 8118W        W76523  24.477  35.577   4.631
 8119W        W76524  17.215  14.637  12.859
 8120W        W76525   2.047  10.484   3.122
 8121W        W76526  25.286  15.738   4.587
 8122W        W76527  26.087  22.969   4.191
 8123W        W76528   8.847   6.289   0.359
 8124W        W76529   4.801  44.070   4.014
 8125W        W76530  44.523   9.377  12.531
 8126W        W76531  38.908  35.503   4.930
 8127W        W76532   9.634  17.887   4.988
 8128W        W76533   8.649  44.847  10.709
 8129W        W76534   4.979  43.651  12.259
 8130W        W76535  16.104  28.924  11.486
 8131W        W76536   0.674  20.773   3.669
 8132W        W76537  22.119  27.542   2.820
 8133W        W76538  22.092  40.523   1.952
 8134W        W76539  28.570   1.150   0.492
 8135W        W76540  12.368  33.388   2.975
 8136W        W76541  29.050  15.731   0.949
 8137W        W76542  32.865  27.664  12.419
 8138W        W76543  33.485   7.320  14.770
 8139W        W76544  27.524   2.287   0.946
 8140W        W76545  38.043  20.229   2.666
 8141W        W76546  17.204  12.605   2.399
 8142W        W76547  25.091  13.210   4.956
 8143W        W76548  38.896  10.374  12.922
 8144W        W76549  16.713  15.787   0.294
 8145W        W76550   3.391   8.218   3.329
 8146W        W76551  44.448   1.066   4.766
 8147W        W76552   6.966  20.714   2.935
 8148W        W76553  43.166   9.783  10.665
 8149W        W76554  41.088  10.841  14.403
 8150W        W76555   3.538  18.024  14.918
 8151W        W76556  20.062  27.168  13.032
 8152W        W76557  44.760  14.186   5.167
 8153W        W76558  41.211  33.667   3.645
 8154W        W76559  11.673  29.960   3.695
 8155W        W76560  12.077  15.694   1.356
 8156W        W76561  18.217  35.110  12.111
 8157W        W76562  10.789  34.621   1.713
 8158W        W76563  30.736  35.027  10.951
 8159W        W76564  10.651  21.944  13.866
 8160W        W76565  35.785  33.172  13.906
 8161W        W76566  19.725  32.462  13.463
 8162W        W76567  17.978   7.822   4.290
 8163W        W76568  26.128  11.197  11.676
 8164W        W76569  33.243   2.896   4.798
 8165W        W76570  34.775  17.386   2.900
 8166W        W76571   9.356   4.831  10.771
 8167W        W76572   7.451  20.493   2.964
 8168W        W76573  22.009  15.653  12.766
 8169W        W76574  16.615  44.805   1.989
 8170W        W76575  22.672   9.614  13.427
 8171W        W76576  43.772   3.944   2.589
 8172W        W76577   4.440   8.971   3.238
 8173W        W76578  31.406  36.379   4.782
 8174W        W76579  37.522  24.218  14.733
 8175W        W76580  24.973  17.544   3.001
 8176W        W76581  29.174  40.653  14.565
 8177W        W76582  24.946  31.939   0.031
 8178W        W76583  39.279  12.234  12.437
 8179W        W76584  15.270  26.102  12.624
 8180W        W76585  34.178  24.952   3.818
 8181W        W76586  11.442   2.200   2.295
 8182W        W76587   5.862  21.657   4.841
 8183W        W76588  13.411   3.812   5.320
 8184W        W76589  29.338  27.377   4.468
 8185W        W76590  37.696  27.679  14.134
 8186W        W76591  12.338  39.819  11.944
 8187W        W76592  40.371  38.395  14.703
 8188W        W76593  24.790  13.742   1.672
 8189W        W76594   0.303   1.995   1.699
 8190W        W76595   6.971  20.350   2.189
 8191W        W76596  26.456   7.135   3.194
 8192W        W76597   0.441  41.935   1.107
 8193W        W76598   9.628   9.300  12.458
 8194W        W76599   5.820   0.063   4.508
 8195W        W76600  15.131   2.470  11.147
 8196W        W76601   2.395  42.633  12.394
 8197W        W76602  20.777  17.576   2.168
 8198W        W76603  34.953  21.785   4.478
 8199W        W76604  39.045  11.857   4.607
 8200W        W76605  10.092  14.003  14.042
 8201W        W76606  16.182  16.053  11.584
 8202W        W76607   2.982   9.346   4.386
 8203W        W76608  17.750   2.385   4.326
 8204W        W76609  38.859  28.454  12.546
 8205W        W76610  39.166  13.307  11.481
 8206W        W76611  29.248  19.935  10.274
 8207W        W76612  27.227  40.282  12.458
 8208W        W76613   7.091  27.438   4.638
 8209W        W76614   4.438  38.462   0.696
 8210W        W76615  21.053  14.613  12.608
 8211W        W76616   7.090  28.609  13.933
 8212W        W76617  37.997  35.692  13.739
 8213W        W76618  42.495  12.577  14.021
 8214W        W76619  36.366  43.673   4.955
 8215W        W76620  13.687  20.430   4.113
 8216W        W76621   6.515   5.449  10.675
 8217W        W76622  11.314  37.134   0.776
 8218W        W76623  14.224   9.259  13.915
 8219W        W76624  36.935   1.277   2.217
 8220W        W76625  42.855  24.769  10.676
 8221W        W76626  42.036   0.867   4.535
 8222W        W76627  19.956   3.435  14.270
 8223W        W76628  43.734  33.331  11.207
 8224W        W76629  32.086  15.067  14.766
 8225W        W76630  22.922  32.954  13.381
 8226W        W76631   5.033   0.308  13.998
 8227W        W76632  14.543  40.367  12.122
 8228W        W76633  44.302  24.061   2.611
 8229W        W76634   4.145   8.678  11.720
 8230W        W76635  35.906  30.350  10.408
 8231W        W76636   4.472  35.501   4.593
 8232W        W76637  33.970  18.608   4.682
 8233W        W76638   2.266  16.569  12.060
 8234W        W76639  29.857  10.800   3.138
 8235W        W76640  14.071  39.437  11.341
 8236W        W76641  17.163  43.757  11.858
 8237W        W76642  37.432  14.612   1.228
 8238W        W76643  10.222  35.629  13.372
 8239W        W76644  42.347  19.207   4.593
 8240W        W76645  10.829  29.900  12.071
 8241W        W76646   6.448  10.766  14.617
 8242W        W76647  15.969  26.357   1.379
 8243W        W76648  29.101   2.444  14.403
 8244W        W76649  21.309  36.477   1.914
 8245W        W76650  30.920  33.587   1.331
 8246W        W76651  12.150   9.299  11.110
 8247W        W76652   6.254  23.657  12.108
 8248W        W76653  43.157  10.759  11.662
 8249W        W76654  44.001   0.967   1.843
 8250W        W76655  31.035  44.763  11.913
 8251W        W76656  10.204  32.030  12.858
 8252W        W76657   0.338  26.787  13.986
 8253W        W76658  34.958  44.203  13.871
 8254W        W76659   5.465  12.834  11.834
 8255W        W76660  44.859  29.926   4.423
 8256W        W76661  18.126   9.181   0.394
 8257W        W76662  25.393   3.026  12.621
 8258W        W76663  42.750  16.194  12.394
 8259W        W76664   7.722  38.913  14.517
 8260W        W76665   2.439  17.330   4.903
 8261W        W76666  36.092  39.064  13.475
 8262W        W76667  10.673   5.690  11.102
 8263W        W76668  14.244  13.300  13.516
 8264W        W76669  33.272  14.098  12.421
 8265W        W76670  19.025  44.324   1.251
 8266W        W76671  12.367  31.758  11.055
 8267W        W76672  26.722  12.070  14.447
 8268W        W76673  36.450  11.815   1.204
 8269W        W76674  41.712  23.060  14.253
 8270W        W76675  28.526  36.318   1.684
 8271W        W76676  40.272   5.424  11.055
 8272W        W76677   4.943  44.902   2.298
 8273W        W76678   5.762  41.265   4.596
 8274W        W76679  44.481  31.186  14.971
 8275W        W76680  14.326  19.215  13.293
 8276W        W76681   7.731  28.437   5.064
 8277W        W76682  27.734  23.485   0.895
 8278W        W76683  23.977  42.096  14.730
 8279W        W76684  42.246   8.709  13.674
 8280W        W76685  29.630   9.788  12.904
 8281W        W76686  12.869  16.629  13.950
 8282W        W76687  30.121   3.672  13.885
 8283W        W76688   3.460  16.762  13.339
 8284W        W76689   1.396  20.879  11.559
 8285W        W76690  32.316   0.720  10.566
 8286W        W76691  30.939  43.876   4.327
 8287W        W76692  28.516  31.550   2.308
 8288W        W76693  15.321  36.643  14.858
 8289W        W76694  43.406  21.908   0.282
 8290W        W76695  33.895  24.266   1.715
 8291W        W76696   7.559   8.144  11.714
 8292W        W76697   7.220  17.659  10.411
 8293W        W76698  41.129   3.882   4.831
 8294W        W76699  44.956  37.836   0.414
 8295W        W76700  42.468  11.192  13.321
 8296W        W76701  17.065  19.654  13.904
 8297W        W76702  29.436   6.896  11.519
 8298W        W76703  22.001  15.657   1.911
 8299W        W76704  18.225   9.837  11.209
 8300W        W76705  19.719  14.204  14.932
 8301W        W76706   2.707   2.353   3.737
 8302W        W76707  22.666  19.436  13.091
 8303W        W76708  17.559  24.572   1.271
 8304W        W76709   2.610   5.349   5.106
 8305W        W76710   0.793  36.420   1.591
 8306W        W76711  35.467   5.372   4.084
 8307W        W76712  30.600  34.663   1.586
 8308W        W76713  22.744  37.062   2.618
 8309W        W76714  29.068  22.647  12.644
 8310W        W76715  39.484  22.868  10.299
 8311W        W76716  21.010  10.819  12.962
 8312W        W76717  25.211  15.839  12.624
 8313W        W76718  18.276  18.809   0.235
 8314W        W76719  24.136  38.879   2.280
 8315W        W76720   8.313  38.390   1.053
 8316W        W76721  10.598  21.739   0.989
 8317W        W76722  26.041  28.407   4.402
 8318W        W76723  27.599  38.603   3.261
 8319W        W76724  17.199  43.421   3.776
 8320W        W76725  15.107  29.555  10.624
 8321W        W76726  34.430   4.282  14.602
 8322W        W76727  25.175   4.959  13.433
 8323W        W76728  38.074  34.341  13.470
 8324W        W76729  44.906  26.623  13.760
 8325W        W76730   2.767  16.652   1.706
 8326W        W76731  15.323   3.495  14.383
 8327W        W76732  14.809  36.489  13.128
 8328W        W76733  35.060  15.429   0.237
 8329W        W76734  12.838  12.655   3.507
 8330W        W76735  29.609  24.975   0.849
 8331W        W76736  37.207   6.507   4.969
 8332W        W76737  29.178  32.540  11.127
 8333W        W76738  17.128  30.691  11.418
 8334W        W76739  40.336  26.975  14.009
 8335W        W76740  33.500   1.768  13.318
 8336W        W76741   4.282  18.585   0.956
 8337W        W76742  40.941   0.691   0.387
 8338W        W76743   0.239  27.478   4.576
 8339W        W76744   3.242  35.929   0.831
 8340W        W76745  28.955  41.996   0.644
 8341W        W76746  32.378  30.097  12.257
 8342W        W76747  29.428   6.944  13.197
 8343W        W76748   2.731  35.097  11.939
 8344W        W76749  15.227  15.497   2.417
 8345W        W76750  15.772  13.343   3.207
 8346W        W76751  32.378  42.542  10.797
 8347W        W76752  19.231   2.180  13.965
 8348W        W76753  36.372  22.618   3.718
 8349W        W76754   1.805   4.955  11.594
 8350W        W76755   1.883   5.447   4.559
 8351W        W76756  44.762   9.864   4.272
 8352W        W76757  35.472  16.242   4.416
 8353W        W76758   5.205   8.248   3.114
 8354W        W76759   1.855   8.367  10.920
 8355W        W76760  20.996  18.036   0.767
 8356W        W76761  36.260  44.373  12.754
 8357W        W76762  33.497  42.788   3.054
 8358W        W76763  34.437  24.116  11.082
 8359W        W76764   9.901   9.022   1.593
 8360W        W76765  24.122  21.254  10.240
 8361W        W76766  30.255   5.892   4.979
 8362W        W76767  21.205  10.645  12.451
 8363W        W76768   0.424  29.319   2.226
 8364W        W76769  37.049  12.926  13.050
 8365W        W76770   6.751  44.413   2.260
 8366W        W76771  11.249  30.436   0.429
 8367W        W76772  15.915  16.739  11.161
 8368W        W76773   0.951  26.754  13.508
 8369W        W76774   6.133  39.513  13.500
 8370W        W76775  42.348  40.891  10.458
 8371W        W76776  14.174  30.869  10.992
 8372W        W76777  31.048  34.396   2.786
 8373W        W76778  34.564  38.486   2.774
 8374W        W76779  38.157  15.253   2.231
 8375W        W76780  14.557  22.188   4.671
 8376W        W76781  23.999  44.960   2.361
 8377W        W76782  11.270  38.862   3.267
 8378W        W76783  12.215  23.262   2.758
 8379W        W76784  21.795  26.222  11.591
 8380W        W76785  10.307  35.339   4.958
 8381W        W76786  32.711  20.036   4.874
 8382W        W76787  32.522  24.100   1.962
 8383W        W76788  11.831   7.783  11.948
 8384W        W76789  27.663  33.460   2.416
 8385W        W76790   5.355  35.959  10.692
 8386W        W76791   6.225   4.375  13.436
 8387W        W76792  27.405  25.961  14.833
 8388W        W76793   3.154  29.557   4.643
 8389W        W76794  36.384   6.442   4.500
 8390W        W76795  28.052  30.931   4.614
 8391W        W76796  36.828  44.327  14.819
 8392W        W76797   6.194  30.857   1.814
 8393W        W76798  27.198  14.157   3.228
 8394W        W76799  35.634  39.833   2.427
 8395W        W76800  16.655  14.034   2.214
 8396W        W76801   8.955  24.436  14.921
 8397W        W76802  25.165  43.003  13.289
 8398W        W76803  33.605   3.953   4.151
 8399W        W76804  17.415  14.246  14.327
 8400W        W76805  31.372  23.102  10.930
 8401W        W76806  21.767  14.196  10.977
 8402W        W76807  14.311  26.861  12.935
 8403W        W76808  35.852  16.495   1.707
 8404W        W76809  28.579  14.825  11.485
 8405W        W76810   3.581  26.044  14.816
 8406W        W76811  12.862  13.119  14.530
 8407W        W76812  13.777  35.231   5.040
 8408W        W76813  14.053  20.510  12.363
 8409W        W76814  11.201  43.364   0.513
 8410W        W76815  29.271  17.208  14.290
 8411W        W76816   1.349  41.120  10.573
 8412W        W76817  42.044  40.434   4.891
 8413W        W76818  12.196   6.367  12.129
 8414W        W76819  41.046  18.839   0.945
 8415W        W76820   2.346   0.704   1.389
 8416W        W76821  43.696  41.522  12.534
 8417W        W76822   0.746   4.502  13.170
 8418W        W76823   4.634   0.939  11.535
 8419W        W76824  36.826  36.070  11.444
 8420W        W76825  44.369  35.999  12.566
 8421W        W76826  33.385   9.554  14.553
 8422W        W76827   3.140  37.007  12.754
 8423W        W76828   2.009  30.012  10.535
 8424W        W76829  41.040   0.942   3.621
 8425W        W76830  41.836  10.154   2.924
 8426W        W76831  37.062  35.306  12.195
 8427W        W76832  24.211  12.953  12.439
 8428W        W76833  29.845  29.964   3.992
 8429W        W76834  37.730  24.926   3.103
 8430W        W76835   7.702  36.486  14.012
 8431W        W76836  13.276  20.715  14.809
 8432W        W76837   2.894  29.438   4.182
 8433W        W76838  10.450  12.068  13.866
 8434W        W76839  42.338   8.982  14.923
 8435W        W76840  18.694   9.373   4.622
 8436W        W76841   2.520   5.958  13.444
 8437W        W76842  28.299   5.651   2.947
 8438W        W76843  21.457   6.974  11.174
 8439W        W76844   3.742  20.123   1.666
 8440W        W76845  32.446  27.482  10.955
 8441W        W76846  33.977  24.012  10.433
 8442W        W76847  25.050  31.518   4.185
 8443W        W76848  11.626   5.801  11.190
 8444W        W76849  11.912  26.495   1.227
 8445W        W76850   9.356  36.991  12.368
 8446W        W76851  20.569   5.376  11.114
 8447W        W76852   5.829  33.155  13.842
 8448W        W76853  23.520  24.128   0.330
 8449W        W76854  33.474  41.994   1.285
 8450W        W76855  16.168   3.276   3.853
 8451W        W76856  33.566  21.833   1.206
 8452W        W76857   2.427   4.827  10.974
 8453W        W76858  36.615  16.389   0.827
 8454W        W76859  34.997  41.270   2.361
 8455W        W76860  39.581   5.279   3.693
 8456W        W76861  35.201  35.981   4.143
 8457W        W76862  42.744  10.446  11.699
 8458W        W76863  26.641  21.175  14.234
 8459W        W76864  43.069  41.975  13.988
 8460W        W76865  10.284  18.313   0.311
 8461W        W76866   6.886   6.364   2.174
 8462W        W76867  42.721  23.003   5.014
 8463W        W76868  11.770  21.850  11.517
 8464W        W76869  19.886   6.334   4.513
 8465W        W76870  30.979  39.772  12.357
 8466W        W76871  31.592  17.019   2.240
 8467W        W76872  31.937   4.462  12.637
 8468W        W76873  40.658  36.523  12.118
 8469W        W76874  18.495  34.918  14.719
 8470W        W76875  13.139  23.829  12.562
 8471W        W76876  25.666  22.221   4.306
 8472W        W76877  32.469  28.313  14.396
 8473W        W76878   4.602  18.637   3.142
 8474W        W76879  14.306  19.390   1.544
 8475W        W76880   1.199  18.254   4.357
 8476W        W76881   4.908  12.154   3.648
 8477W        W76882  32.334  28.481  12.610
 8478W        W76883  44.967  16.551  11.587
 8479W        W76884   6.343  35.837   4.107
 8480W        W76885  27.118  34.955  10.473
 8481W        W76886  34.620  16.088   1.771
 8482W        W76887   9.638   8.722  12.176
 8483W        W76888  35.645  21.032   0.760
 8484W        W76889   9.780  14.308  14.837
 8485W        W76890  24.486   6.784   4.289
 8486W        W76891  10.073  44.536  10.358
 8487W        W76892  11.917   5.754  14.901
 8488W        W76893   8.654  18.854  11.933
 8489W        W76894  21.148  27.001   3.201
 8490W        W76895  28.449  11.898   3.203
 8491W        W76896  29.766  25.291   3.697
 8492W        W76897  14.690  41.730  12.172
 8493W        W76898  11.635  36.970  10.792
 8494W        W76899  14.876  35.150   0.262
 8495W        W76900  34.592  21.148   0.706
 8496W        W76901  37.961   5.319   3.643
 8497W        W76902   0.514  42.782  12.570
 8498W        W76903  21.342  18.748   2.558
 8499W        W76904   4.202  12.230  12.439
 8500W        W76905  14.777  24.094   3.336
 8501W        W76906  27.712  43.706   3.240
 8502W        W76907  41.281  20.846   4.162
 8503W        W76908  29.832   4.328   3.215
 8504W        W76909   6.788  25.578  10.963
 8505W        W76910  26.724   9.125   2.359
 8506W        W76911  10.333  31.416   4.546
 8507W        W76912   9.765  41.560  12.127
 8508W        W76913  10.732  27.945  11.965
 8509W        W76914  14.244  42.239   3.784
 8510W        W76915   3.768  35.372  11.908
 8511W        W76916   1.424  15.294  14.783
 8512W        W76917   1.400   8.237  11.180
 8513W        W76918  34.320  15.664  13.919
 8514W        W76919  19.134  13.738  10.686
 8515W        W76920  44.938   9.730   0.665
 8516W        W76921  31.321  24.011   1.911
 8517W        W76922   5.085  38.194   4.082
 8518W        W76923  32.480   1.714   0.929
 8519W        W76924  32.414  28.898   2.781
 8520W        W76925  38.281  12.103   0.934
 8521W        W76926  22.129   7.712   3.806
 8522W        W76927  32.601  31.126  10.728
 8523W        W76928  38.139  24.908   2.737
 8524W        W76929   5.426   2.198  12.549
 8525W        W76930  20.077  25.772   1.943
 8526W        W76931   3.966   2.228  11.582
 8527W        W76932  29.627  29.858   2.942
 8528W        W76933  41.841  38.292   0.988
 8529W        W76934  29.551  15.275   4.731
 8530W        W76935  21.953  32.114   3.140
 8531W        W76936  40.791   3.958  13.433
 8532W        W76937   9.275  10.333   4.414
 8533W        W76938  30.320   3.662   4.288
 8534W        W76939   3.858  10.924  11.631
 8535W        W76940  39.963  17.221  11.474
 8536W        W76941  16.013  23.711   4.893
 8537W        W76942  41.455  43.815   4.635
 8538W        W76943  38.963   1.474  10.140
 8539W        W76944  40.119  11.871  11.593
 8540W        W76945  36.434   0.593  14.571
 8541W        W76946  36.816  30.392  10.436
 8542W        W76947  26.382  37.411  12.470
 8543W        W76948  24.273   1.304  11.721
 8544W        W76949  34.240  32.870  14.968
 8545W        W76950  37.063  35.402  14.462
 8546W        W76951  43.327  13.703  12.510
 8547W        W76952   9.753  44.376  13.845
 8548W        W76953  19.073  33.987  13.004
 8549W        W76954  10.231   3.771  14.446
 8550W        W76955  33.901  17.301  13.375
 8551W        W76956  27.478  22.488   1.792
 8552W        W76957  33.324   2.309   2.880
 8553W        W76958  41.212  18.759  14.741
 8554W        W76959   6.008  36.349   3.250
 8555W        W76960  38.838  21.044  13.390
 8556W        W76961  16.233  25.048  11.557
 8557W        W76962  42.604  39.816  13.551
 8558W        W76963  40.657  21.612  11.907
 8559W        W76964  25.597  30.512   3.393
 8560W        W76965  23.968  23.508  11.133
 8561W        W76966  17.468  17.075  14.918
 8562W        W76967  14.344   8.446  12.527
 8563W        W76968  39.851  25.588   2.356
 8564W        W76969  24.967  21.770   1.353
 8565W        W76970  30.985  14.288  11.212
 8566W        W76971   4.226  24.646   3.775
 8567W        W76972  27.973  21.303   2.653
 8568W        W76973   3.761  12.370  14.506
 8569W        W76974  34.254  17.526  13.077
 8570W        W76975   7.621   5.745  11.248
 8571W        W76976   3.118  27.707  13.479
 8572W        W76977  32.479   9.117   2.781
 8573W        W76978  26.480  28.542   4.640
 8574W        W76979   0.901   5.719   4.498
 8575W        W76980  12.098  34.972  13.722
 8576W        W76981  13.780  39.491   3.612
 8577W        W76982   8.889  32.007  14.313
 8578W        W76983  31.200  31.641  12.807
 8579W        W76984  22.365  37.591  12.485
 8580W        W76985  13.720  35.428  13.671
 8581W        W76986   3.857  21.253   4.194
 8582W        W76987  44.378  41.476   1.255
 8583W        W76988  28.076  27.982  11.121
 8584W        W76989  16.125  30.660  12.354
 8585W        W76990  26.657  19.096   1.860
 8586W        W76991   7.966   7.751   1.867
 8587W        W76992   7.387  14.375  11.961
 8588W        W76993   3.195  36.377  14.875
 8589W        W76994  33.696  31.027  13.012
 8590W        W76995  26.167  38.948   1.313
 8591W        W76996  29.856  25.067   3.210
 8592W        W76997  33.800  38.635   0.881
 8593W        W76998  22.710   9.369   1.858
 8594W        W76999  33.962  24.021  10.946
 8595W        W77000  24.705   9.699  14.379
 8596W        W77001  34.124  25.176   4.425
 8597W        W77002  17.098   7.436   2.263
 8598W        W77003  38.299  20.167   3.110
 8599W        W77004   8.879  36.991  13.879
 8600W        W77005   3.913   2.511   4.232
 8601W        W77006  30.833  11.705   3.444
 8602W        W77007  26.622  44.939   4.082
 8603W        W77008  16.048  30.012   0.485
 8604W        W77009  44.909   4.809  12.186
 8605W        W77010  11.880  31.818  10.287
 8606W        W77011  30.359  33.946  14.909
 8607W        W77012   6.699  40.277   1.193
 8608W        W77013  38.022  36.885   4.055
 8609W        W77014   6.138   9.958   3.647
 8610W        W77015  39.840  19.715   0.359
 8611W        W77016  10.706   0.086  10.993
 8612W        W77017  39.500  14.782   0.438
 8613W        W77018  36.667   7.984   2.309
 8614W        W77019  40.517  35.942   4.102
 8615W        W77020  13.322  29.415  14.334
 8616W        W77021   3.771  15.121   4.039
 8617W        W77022  40.667  20.642   1.678
 8618W        W77023  16.925  27.114   3.262
 8619W        W77024  38.574  17.579  12.039
 8620W        W77025  37.847   1.462   0.012
 8621W        W77026   8.369  43.402   4.194
 8622W        W77027  29.722  37.483   3.646
 8623W        W77028  41.569  27.964  13.222
 8624W        W77029  39.715  38.896   4.856
 8625W        W77030  35.345  23.212   4.921
 8626W        W77031  27.990  17.812   0.898
 8627W        W77032  28.434  35.108  13.624
 8628W        W77033  30.510   7.806   1.475
 8629W        W77034   3.999  35.813  13.072
 8630W        W77035   1.353  31.682   4.083
 8631W        W77036  17.439  34.373   4.133
 8632W        W77037   5.351   3.903  12.993
 8633W        W77038  20.048  36.157   4.946
 8634W        W77039   2.736   6.549  14.790
 8635W        W77040  32.400  34.944   4.216
 8636W        W77041  23.532  33.114   1.463
 8637W        W77042  17.624  28.352  12.851
 8638W        W77043   6.094   0.370  13.910
 8639W        W77044  35.664  14.753   0.687
 8640W        W77045  21.401  16.766  12.182
 8641W        W77046  24.303  42.466  12.914
 8642W        W77047  27.803  40.852  11.171
 8643W        W77048  35.063   5.740   2.762
 8644W        W77049  12.537  32.232  14.273
 8645W        W77050  38.102  13.151  14.760
 8646W        W77051   9.161   6.863  13.572
 8647W        W77052   1.385  13.767  12.896
 8648W        W77053  41.350  33.504  14.754
 8649W        W77054   0.473   9.313   3.740
 8650W        W77055  23.164  18.802   1.887
 8651W        W77056   4.973  32.389   1.760
 8652W        W77057  38.484  30.545  10.680
 8653W        W77058   8.967  38.991   1.167
 8654W        W77059  20.838  33.203   3.243
 8655W        W77060  44.375  18.310   2.613
 8656W        W77061  12.060  39.933   3.905
 8657W        W77062  31.417  37.812  13.095
 8658W        W77063   0.735   3.084  12.625
 8659W        W77064  15.299  34.146  12.490
 8660W        W77065   7.675  18.446   3.572
 8661W        W77066  11.743  31.526   3.144
 8662W        W77067   2.714  44.912  13.342
 8663W        W77068  29.233  37.016  13.468
 8664W        W77069   6.128  25.241  14.533
 8665W        W77070  42.035   3.573  10.531
 8666W        W77071  18.466   1.360  11.116
 8667W        W77072  24.057  13.383  13.467
 8668W        W77073  21.468  10.773  14.825
 8669W        W77074   8.200  32.707  11.119
 8670W        W77075  38.350  16.325  14.386
 8671W        W77076   2.739  12.378  13.275
 8672W        W77077  32.109  34.690  12.023
 8673W        W77078  16.782  10.944   1.338
 8674W        W77079  23.602  19.888   4.615
 8675W        W77080   4.785  29.423   0.414
 8676W        W77081   5.445  44.254  12.005
 8677W        W77082  13.875  12.623   3.711
 8678W        W77083   8.921  18.763   4.082
 8679W        W77084  20.537  27.580  11.641
 8680W        W77085  39.515   4.389   2.678
 8681W        W77086  24.080  13.827   4.605
 8682W        W77087  41.292   0.779   4.057
 8683W        W77088   9.263  44.633  13.836
 8684W        W77089  39.983  22.511  13.617
 8685W        W77090  37.341  42.945   1.312
 8686W        W77091  42.515  38.901  14.430
 8687W        W77092  12.144   2.354  14.014
 8688W        W77093  32.843  22.524  13.909
 8689W        W77094   9.785  26.496   1.267
 8690W        W77095  20.947  15.108  12.021
 8691W        W77096  43.585  24.630   2.937
 8692W        W77097   1.622  31.544   0.503
 8693W        W77098  10.197  39.448   1.716
 8694W        W77099  18.594  43.811  12.079
 8695W        W77100  43.252  14.184   0.072
 8696W        W77101  12.433  31.547   0.300
 8697W        W77102  41.762  18.746  13.881
 8698W        W77103   2.403  41.584  12.901
 8699W        W77104  36.108  27.114   4.555
 8700W        W77105  29.867  39.715  14.807
 8701W        W77106  42.943  25.014   1.231
 8702W        W77107  27.717   1.775  10.693
 8703W        W77108   7.272  25.382  13.401
 8704W        W77109   5.695  11.684  12.621
 8705W        W77110   0.793  33.402   0.799
 8706W        W77111  12.137  34.598  13.347
 8707W        W77112  41.835  32.347  13.529
 8708W        W77113  26.241  40.323  12.552
 8709W        W77114  35.530  44.759  12.435
 8710W        W77115  32.697   0.007   4.269
 8711W        W77116  22.257  39.281  14.007
 8712W        W77117  20.614  35.328  13.173
 8713W        W77118  33.483  35.067   1.894
 8714W        W77119  29.016  22.140  12.540
 8715W        W77120  35.081   4.514   1.215
 8716W        W77121  44.588  23.518  12.443
 8717W        W77122   7.806   8.350   1.561
 8718W        W77123  21.350  33.322  10.449
 8719W        W77124  28.795  37.058   2.848
 8720W        W77125  23.452  43.646  12.505
 8721W        W77126  17.528   5.911   3.534
 8722W        W77127   2.125  12.032   1.886
 8723W        W77128  29.642  32.583  13.512
 8724W        W77129  13.314  32.348  14.485
 8725W        W77130   9.522  29.467  14.423
 8726W        W77131  21.662   8.105   4.130
 8727W        W77132  28.660   0.959  10.363
 8728W        W77133   7.097  22.607  13.342
 8729W        W77134  39.127   9.154   0.801
 8730W        W77135  35.836  43.503  12.737
 8731W        W77136  13.695  26.967  13.441
 8732W        W77137  38.969   8.317  12.923
 8733W        W77138   6.051   6.258  14.910
 8734W        W77139  37.452  17.044  13.275
 8735W        W77140  32.143  32.039  13.953
 8736W        W77141  42.820  11.099  14.823
 8737W        W77142  26.282  31.591  11.470
 8738W        W77143  22.530  30.578   1.983
 8739W        W77144  26.064   1.925   0.351
 8740W        W77145  34.166   2.944  14.320
 8741W        W77146   0.862  18.757   4.153
 8742W        W77147   7.997   2.884  14.478
 8743W        W77148  41.250   7.446   4.693
 8744W        W77149  24.538   0.499  14.447
 8745W        W77150  36.799   0.365   2.274
 8746W        W77151  39.745   2.232   3.404
 8747W        W77152   8.560  21.528  11.261
 8748W        W77153  14.123   0.551   2.602
 8749W        W77154   3.150  10.729   0.750
 8750W        W77155  40.821  15.296   4.594
 8751W        W77156  39.885   5.945  11.981
 8752W        W77157  25.081  35.342   4.791
 8753W        W77158   8.896   7.399   3.389
 8754W        W77159  28.231  38.051   5.187
 8755W        W77160  40.250  32.661   0.378
 8756W        W77161  19.873   6.401  11.591
 8757W        W77162  41.309   9.626  14.008
 8758W        W77163  15.552  14.489  11.642
 8759W        W77164  15.685  10.149  11.583
 8760W        W77165  29.502  18.980  11.178
 8761W        W77166  26.447  41.992  14.344
 8762W        W77167   1.968  12.390  11.677
 8763W        W77168  26.882  13.228   0.824
 8764W        W77169  19.710  23.442  12.638
 8765W        W77170   3.808  20.084   2.781
 8766W        W77171  18.825  21.659  13.534
 8767W        W77172   1.447  18.266   3.496
 8768W        W77173   8.297   2.706  13.044
 8769W        W77174   9.265   0.140  12.913
 8770W        W77175  31.360  13.345   3.102
 8771W        W77176  14.276  23.046   4.652
 8772W        W77177  29.302  20.256   5.023
 8773W        W77178  38.514  15.197  14.783
 8774W        W77179  23.296  12.220   3.384
 8775W        W77180  29.384   0.854   4.125
 8776W        W77181  21.873  38.976  13.821
 8777W        W77182  20.834   1.782  10.413
 8778W        W77183  10.209  22.090   1.677
 8779W        W77184  28.748  16.586  13.009
 8780W        W77185  32.469  10.874  13.724
 8781W        W77186   8.538  18.320  11.090
 8782W        W77187  42.466  36.355  13.322
 8783W        W77188   1.027   5.908   0.630
 8784W        W77189  28.148  23.290   1.173
 8785W        W77190   1.910  10.425   1.368
 8786W        W77191   2.970  11.848  12.473
 8787W        W77192  21.327  15.762  14.434
 8788W        W77193  18.777  28.465   1.477
 8789W        W77194  28.270   0.473   5.000
 8790W        W77195  15.607  41.065  12.923
 8791W        W77196  35.842  17.865  14.817
 8792W        W77197   5.496  13.896  14.894
 8793W        W77198  35.534  40.426   3.618
 8794W        W77199  30.080   6.152  14.047
 8795W        W77200  19.471   0.232   0.797
 8796W        W77201  38.891  12.626  12.036
 8797W        W77202   0.016  37.781  11.704
 8798W        W77203  36.944  32.115   2.434
 8799W        W77204  26.110  20.711  11.152
 8800W        W77205  44.720  41.357  11.734
 8801W        W77206  30.619  35.833   0.397
 8802W        W77207  20.928  26.596   2.724
 8803W        W77208   7.092  30.551  14.136
 8804W        W77209  33.237  34.399   3.157
 8805W        W77210  43.336  25.718   3.855
 8806W        W77211  23.645  27.389   0.743
 8807W        W77212  24.501  14.680  12.938
 8808W        W77213  35.148   8.800  11.158
 8809W        W77214  20.126  19.146  10.385
 8810W        W77215  30.088  12.735   1.199
 8811W        W77216  42.395  19.745  13.974
 8812W        W77217   3.896   0.593  14.906
 8813W        W77218  19.478  39.284   2.790
 8814W        W77219  30.473   2.857  12.030
 8815W        W77220  13.313  39.247  10.703
 8816W        W77221   2.965  20.122  10.350
 8817W        W77222  10.410   2.850  14.508
 8818W        W77223  21.721  25.532  11.001
 8819W        W77224  15.393  20.868  12.417
 8820W        W77225  31.204   7.906  11.630
 8821W        W77226   2.244   8.278   4.525
 8822W        W77227   5.330  12.792   3.147
 8823W        W77228  10.249   7.469  10.223
 8824W        W77229  18.747  23.537   1.760
 8825W        W77230   7.748  10.088  11.010
 8826W        W77231  16.091  38.546   2.158
 8827W        W77232  32.362  19.485   1.873
 8828W        W77233  42.517  41.774  13.447
 8829W        W77234  32.376  32.112  12.597
 8830W        W77235  11.775  28.925  11.107
 8831W        W77236  35.528  20.917  12.467
 8832W        W77237  38.284  10.323   1.250
 8833W        W77238  30.546  33.127  10.806
 8834W        W77239  18.714  29.645  14.765
 8835W        W77240  39.853   9.865  14.076
 8836W        W77241  37.880  42.962   1.305
 8837W        W77242  18.135  37.396   2.655
 8838W        W77243  28.719   9.358   1.480
 8839W        W77244  11.527   4.478   2.847
 8840W        W77245  21.054  14.093  12.432
 8841W        W77246  34.881  25.779  11.464
 8842W        W77247   7.806   1.359   4.419
 8843W        W77248  39.102  13.271   0.877
 8844W        W77249  36.500  26.391  14.902
 8845W        W77250   5.785   2.241   4.825
 8846W        W77251  39.352  39.628   1.318
 8847W        W77252  44.479  16.161  11.993
 8848W        W77253  22.817  33.405  14.963
 8849W        W77254  30.006  43.237   4.681
 8850W        W77255  42.024  37.476   4.609
 8851W        W77256  28.788  25.406   5.088
 8852W        W77257  34.617  32.602   4.627
 8853W        W77258  21.568  22.400   9.614
 8854W        W77259  18.050  14.952   1.018
 8855W        W77260  17.718  18.821  11.712
 8856W        W77261  33.133  35.246  13.910
 8857W        W77262  43.371   0.365   1.867
 8858W        W77263  43.156  16.999   1.767
 8859W        W77264  30.509  14.782  11.376
 8860W        W77265  31.242  28.172  10.349
 8861W        W77266   7.364  19.483   4.280
 8862W        W77267   6.769   1.388  10.741
 8863W        W77268  27.746  29.065   1.372
 8864W        W77269  12.702  30.444   0.071
 8865W        W77270  25.446  39.532  14.507
 8866W        W77271  26.443  35.405  12.530
 8867W        W77272  18.570  21.147  13.523
 8868W        W77273  38.591  15.304   0.291
 8869W        W77274   1.366  12.909   2.761
 8870W        W77275   0.222  21.819   4.047
 8871W        W77276  27.639  19.478  11.091
 8872W        W77277  29.538  27.652  11.903
 8873W        W77278   9.040   7.152  14.771
 8874W        W77279  17.159  17.094  12.548
 8875W        W77280  22.305  22.897  13.064
 8876W        W77281   4.255  26.355  11.954
 8877W        W77282  36.059  13.152  10.707
 8878W        W77283  43.905  12.021  11.188
 8879W        W77284  10.420  31.973  14.013
 8880W        W77285   5.399   4.002  13.489
 8881W        W77286  39.892  15.274   1.373
 8882W        W77287   0.822  25.287   2.299
 8883W        W77288  24.430  27.740  11.726
 8884W        W77289  30.682  12.715  11.639
 8885W        W77290  16.127  35.356   3.691
 8886W        W77291   6.223  35.484  13.946
 8887W        W77292  37.465   2.580   4.302
 8888W        W77293  35.123  35.461  11.860
 8889W        W77294  19.246  28.950  11.164
 8890W        W77295   4.351   6.415   3.555
 8891W        W77296  38.363  29.356   0.366
 8892W        W77297  38.515  24.035   3.750
 8893W        W77298  25.130  19.554   0.453
 8894W        W77299   2.968  26.001  11.933
 8895W        W77300  40.443  21.953   1.492
 8896W        W77301   4.263  32.515   3.561
 8897W        W77302  31.572  24.467   1.694
 8898W        W77303  38.436  36.957  13.452
 8899W        W77304   6.290  13.727   0.862
 8900W        W77305  13.638  36.823  12.890
 8901W        W77306  12.176  20.176  12.181
 8902W        W77307  42.903  40.231   4.606
 8903W        W77308  33.837  25.637   4.379
 8904W        W77309  24.736   7.256   4.287
 8905W        W77310  36.518   0.263  10.267
 8906W        W77311  15.493   5.788   0.453
 8907W        W77312  12.030  18.884   2.739
 8908W        W77313   2.732  13.253   0.261
 8909W        W77314  35.302   8.640  12.850
 8910W        W77315  39.719  39.689  14.198
 8911W        W77316  33.586  15.242   4.308
 8912W        W77317  19.530  41.322   0.325
 8913W        W77318   8.386   2.744   4.798
 8914W        W77319  16.025  10.316  12.840
 8915W        W77320  37.836   3.951  14.836
 8916W        W77321  25.549  22.770  13.294
 8917W        W77322  32.998   5.205   4.608
 8918W        W77323  44.779  22.273   2.634
 8919W        W77324  23.903  36.389   1.122
 8920W        W77325  30.696  22.489  12.048
 8921W        W77326  24.446  42.294   3.269
 8922W        W77327   7.363  27.690   3.251
 8923W        W77328  36.812  25.318   3.099
 8924W        W77329   9.880  44.099   3.760
 8925W        W77330  11.648   2.710  11.145
 8926W        W77331  36.978   4.885   0.294
 8927W        W77332  38.831  37.486   3.334
 8928W        W77333  17.723  35.966  13.325
 8929W        W77334   6.918  38.091  13.651
 8930W        W77335  24.010  32.447   2.674
 8931W        W77336  35.437   6.934  10.992
 8932W        W77337   7.712  13.748   4.930
 8933W        W77338   4.152  43.811  14.355
 8934W        W77339  22.328  23.350   3.473
 8935W        W77340  30.439  25.477   4.111
 8936W        W77341   8.284  37.841  11.666
 8937W        W77342   2.854  18.043  10.911
 8938W        W77343  18.965  21.092  11.519
 8939W        W77344  32.898  42.410   3.585
 8940W        W77345  40.545  24.381  12.352
 8941W        W77346  38.860   3.320   1.372
 8942W        W77347  44.079   1.919  10.269
 8943W        W77348  41.503  14.306  13.331
 8944W        W77349  27.433  21.074  14.762
 8945W        W77350  28.928  29.123   4.441
 8946W        W77351   5.638   0.348  12.588
 8947W        W77352  15.053  35.422   2.297
 8948W        W77353   2.726  16.035  13.388
 8949W        W77354  13.317  26.217   3.392
 8950W        W77355  35.341  10.771   4.422
 8951W        W77356  21.003  33.697  12.199
 8952W        W77357   2.974  14.693  13.375
 8953W        W77358  22.481  16.605  11.988
 8954W        W77359  36.314  38.699   3.318
 8955W        W77360  15.935   1.205   1.709
 8956W        W77361  24.478   6.827  10.573
 8957W        W77362   4.883  13.821   4.605
 8958W        W77363   6.532  32.494   3.475
 8959W        W77364   1.634  44.754   2.054
 8960W        W77365  10.881  20.771   0.310
 8961W        W77366  34.428  43.357  12.299
 8962W        W77367  27.984  20.252  10.688
 8963W        W77368  28.638   1.200   3.495
 8964W        W77369  36.040   0.866  14.385
 8965W        W77370  11.410  21.047  13.569
 8966W        W77371  40.713  36.915   2.340
 8967W        W77372  26.200  31.324   0.921
 8968W        W77373  35.604   8.800  14.745
 8969W        W77374  22.696  38.519   1.288
 8970W        W77375  31.253  21.219  12.033
 8971W        W77376  36.922  26.959  11.530
 8972W        W77377  39.811  40.345  11.039
 8973W        W77378  42.210   9.827  12.867
 8974W        W77379  41.917   4.522  12.050
 8975W        W77380  33.825   1.020  13.301
 8976W        W77381  39.529  43.884  14.708
 8977W        W77382   6.409  35.665   4.619
 8978W        W77383  15.108   3.775   0.196
 8979W        W77384  30.586  39.662   4.155
 8980W        W77385  38.039  29.774   2.729
 8981W        W77386   6.142  40.585  12.040
 8982W        W77387  34.611  27.244  13.408
 8983W        W77388  43.302  31.338   3.670
 8984W        W77389  43.473  10.458  10.783
 8985W        W77390   0.229   8.719  11.137
 8986W        W77391  21.190  12.767   1.559
 8987W        W77392  43.575  25.551   2.878
 8988W        W77393  33.351  42.076  11.973
 8989W        W77394  38.547   3.866   0.296
 8990W        W77395   0.700  44.344  13.056
 8991W        W77396   7.596  12.541   4.110
 8992W        W77397  12.349  37.113  12.550
 8993W        W77398  33.009   4.627   3.207
 8994W        W77399  40.006  30.200   4.608
 8995W        W77400  43.703  42.382   1.255
 8996W        W77401  40.290  35.495   4.292
 8997W        W77402  29.131   1.963  13.406
 8998W        W77403  32.865  29.247   3.603
 8999W        W77404  16.222  27.749  14.783
 9000W        W77405  31.888   4.195   1.386
 9001W        W77406  18.638  38.400   2.445
 9002W        W77407  24.227  27.727  11.074
 9003W        W77408  21.957  41.347   4.212
 9004W        W77409  33.189  11.857   0.300
 9005W        W77410  32.446  28.011   3.698
 9006W        W77411  42.379  42.387   2.689
 9007W        W77412  23.976  29.440  11.586
 9008W        W77413  28.478  34.965  10.801
 9009W        W77414  39.288  41.892   2.694
 9010W        W77415  21.677   0.967   4.816
 9011W        W77416  22.295   7.734  11.235
 9012W        W77417   4.449  35.489   3.710
 9013W        W77418  44.490  13.449  11.125
 9014W        W77419   5.269  18.164  12.838
 9015W        W77420  16.534  28.253  13.423
 9016W        W77421  43.148  30.889   1.289
 9017W        W77422  27.712  35.187   2.716
 9018W        W77423  12.394  33.931   1.684
 9019W        W77424  40.019  23.514   3.165
 9020W        W77425  44.035   1.262   4.508
 9021W        W77426  39.994  42.931   4.499
 9022W        W77427  33.520  12.849   1.864
 9023W        W77428  39.946  13.373   2.276
 9024W        W77429  38.842  19.687   4.143
 9025W        W77430  11.704  28.673   4.301
 9026W        W77431  44.378   5.419   3.500
 9027W        W77432  39.194   3.498   1.018
 9028W        W77433  26.209  23.387  13.713
 9029W        W77434  25.949  41.860  10.900
 9030W        W77435  28.613  44.820  11.563
 9031W        W77436  14.319  37.922  13.497
 9032W        W77437  27.670  32.938   1.745
 9033W        W77438  21.548  25.405   2.115
 9034W        W77439  39.380  21.456   4.333
 9035W        W77440  35.474  38.425  13.344
 9036W        W77441  11.943  19.149   3.775
 9037W        W77442  37.137  43.983  14.277
 9038W        W77443   4.497  43.197   0.856
 9039W        W77444   0.523   5.764   4.887
 9040W        W77445  14.634   2.975   3.637
 9041W        W77446   9.955  38.129  13.546
 9042W        W77447  30.606  14.748  14.300
 9043W        W77448   1.753  31.366  10.505
 9044W        W77449  31.859  28.330  12.507
 9045W        W77450   3.268  29.658  10.539
 9046W        W77451  19.623   9.079   1.464
 9047W        W77452  29.699  34.937  12.401
 9048W        W77453  18.147  44.051  12.891
 9049W        W77454  11.721  40.452   3.616
 9050W        W77455  33.165  42.713   1.842
 9051W        W77456  19.944  43.504  13.542
 9052W        W77457  30.405  26.662  14.145
 9053W        W77458  36.069  13.176  11.603
 9054W        W77459  41.480   1.969  12.872
 9055W        W77460   0.817  31.312   3.200
 9056W        W77461   0.082  17.520  14.407
 9057W        W77462  39.162   7.578  12.563
 9058W        W77463  15.609  12.212  12.499
 9059W        W77464  22.012   9.214  13.780
 9060W        W77465  39.902   1.753   0.443
 9061W        W77466  12.368  35.040  13.294
 9062W        W77467  25.657   5.763   4.078
 9063W        W77468  38.065  32.033   2.420
 9064W        W77469  33.014   7.575   2.819
 9065W        W77470  30.835  16.604   1.434
 9066W        W77471  16.228  43.877  11.898
 9067W        W77472  44.452  30.279  11.673
 9068W        W77473  11.864  31.094   9.881
 9069W        W77474  22.667  10.213  10.189
 9070W        W77475  27.147  35.577  14.910
 9071W        W77476  41.540  40.430   4.712
 9072W        W77477  27.545  27.934  13.813
 9073W        W77478  12.406  16.758  11.224
 9074W        W77479  33.558  23.444   4.614
 9075W        W77480  11.796   7.562  12.445
 9076W        W77481  40.847  18.471   2.780
 9077W        W77482  22.315   0.234   1.829
 9078W        W77483  23.287  24.122  12.884
 9079W        W77484   2.420   4.972  12.739
 9080W        W77485  40.849  38.452   0.904
 9081W        W77486  43.841  17.481   0.696
 9082W        W77487  20.722  27.889   1.743
 9083W        W77488  23.049  13.141   0.438
 9084W        W77489   7.891  42.526   2.836
 9085W        W77490  19.595  10.809   1.877
 9086W        W77491  41.979  12.408   2.329
 9087W        W77492  40.245  10.456   0.210
 9088W        W77493  23.998   6.943   4.208
 9089W        W77494   8.373  42.583  11.113
 9090W        W77495  18.559  16.136  13.002
 9091W        W77496  34.608  37.382  13.234
 9092W        W77497  18.782   6.265   0.393
 9093W        W77498   7.294  35.659  14.423
 9094W        W77499  33.928   1.705  12.623
 9095W        W77500  18.904  17.855   3.289
 9096W        W77501  41.525  32.708   2.256
 9097W        W77502  36.761   9.461   2.316
 9098W        W77503  32.202  30.175   2.677
 9099W        W77504   9.073   3.681   3.243
 9100W        W77505  10.148  24.546  11.567
 9101W        W77506  28.219   0.943   3.217
 9102W        W77507  42.861  21.583  11.000
 9103W        W77508  12.232  41.327   4.384
 9104W        W77509   4.838  25.826   3.100
 9105W        W77510  32.356  18.085  11.636
 9106W        W77511  16.470  25.261  11.150
 9107W        W77512  15.892  36.488  14.881
 9108W        W77513   1.365  41.009  11.080
 9109W        W77514   7.390  42.229  13.500
 9110W        W77515  22.421  38.103  12.412
 9111W        W77516  39.975  27.657   2.812
 9112W        W77517  19.328  43.561  10.664
 9113W        W77518   9.800   5.329   3.897
 9114W        W77519  30.077  27.851   2.396
 9115W        W77520   2.374  19.103  12.261
 9116W        W77521  44.490  27.162   3.407
 9117W        W77522  12.823  21.697   2.594
 9118W        W77523  43.429  42.703   4.212
 9119W        W77524   8.840  29.200  11.074
 9120W        W77525  34.911  24.429   3.433
 9121W        W77526  39.979  10.440   4.055
 9122W        W77527  10.853  38.017   2.380
 9123W        W77528  18.620   3.502  12.040
 9124W        W77529  16.596  31.664  12.959
 9125W        W77530  11.942  41.202   1.789
 9126W        W77531  16.320  29.224   3.247
 9127W        W77532   5.844  29.645   3.247
 9128W        W77533  24.718  31.381  13.949
 9129W        W77534  17.663   5.255   3.850
 9130W        W77535   5.954  32.586  11.625
 9131W        W77536  41.725  19.636   2.226
 9132W        W77537  14.544   7.627  14.289
 9133W        W77538  37.667   8.833  11.042
 9134W        W77539  26.566   8.650   2.290
 9135W        W77540  32.330  31.107   4.111
 9136W        W77541  32.891  18.325  12.351
 9137W        W77542  37.946  26.532  11.508
 9138W        W77543   9.750  38.316  12.215
 9139W        W77544  37.532   5.976  10.969
 9140W        W77545  31.797   5.264   4.822
 9141W        W77546  37.306  43.379   0.953
 9142W        W77547  20.468  34.206   0.920
 9143W        W77548  38.526  13.164   2.319
 9144W        W77549  33.524  21.272  13.089
 9145W        W77550   1.803  39.560   0.586
 9146W        W77551  30.383   8.743  11.495
 9147W        W77552  42.831  37.103   4.422
 9148W        W77553  24.873   0.774  12.466
 9149W        W77554  38.169  20.616   4.774
 9150W        W77555  27.611  12.633   2.305
 9151W        W77556  17.796   2.433   3.301
 9152W        W77557  23.033  25.551  11.612
 9153W        W77558  16.507   4.749   1.906
 9154W        W77559  16.569   5.590   2.858
 9155W        W77560  38.339   9.867  12.093
 9156W        W77561  36.345  41.292   0.229
 9157W        W77562  20.204   8.709  12.574
 9158W        W77563  27.565  29.414  10.508
 9159W        W77564   9.257   4.458   2.679
 9160W        W77565   9.439  44.905  11.159
 9161W        W77566  12.648  37.164   2.919
 9162W        W77567   0.855   1.885  14.316
 9163W        W77568   0.769  17.585   0.039
 9164W        W77569  35.516  33.075  11.207
 9165W        W77570  37.014  20.146   3.796
 9166W        W77571  14.978  35.980   3.182
 9167W        W77572  17.073  21.069   3.642
 9168W        W77573  42.433  34.490  11.497
 9169W        W77574  19.865   4.751   4.118
 9170W        W77575   1.975  29.042   1.846
 9171W        W77576  20.666  40.130   4.044
 9172W        W77577   7.184  10.917  14.015
 9173W        W77578   5.503   2.948  13.137
 9174W        W77579   1.833   4.651   9.793
 9175W        W77580  13.069  22.562   1.771
 9176W        W77581   6.607  40.037   4.847
 9177W        W77582  24.667  14.112  11.203
 9178W        W77583   1.873  28.165   3.850
 9179W        W77584  15.579  37.135   4.629
 9180W        W77585  35.567  33.541   3.384
 9181W        W77586   0.928  13.711  10.678
 9182W        W77587   0.713  14.089  11.145
 9183W        W77588  34.529  44.502   1.045
 9184W        W77589   8.803   0.211   0.352
 9185W        W77590  29.140  40.021   1.477
 9186W        W77591  12.841   0.471   3.419
 9187W        W77592  31.446  29.643   2.390
 9188W        W77593  25.394   1.422   0.070
 9189W        W77594  35.067  17.136  12.867
 9190W        W77595   4.976  30.172  14.346
 9191W        W77596  20.694  11.704   2.375
 9192W        W77597  29.441   2.975  13.536
 9193W        W77598  20.558   2.350   3.246
 9194W        W77599  34.032  26.974  13.306
 9195W        W77600  14.633  30.380  14.893
 9196W        W77601  21.091  14.130   4.211
 9197W        W77602  36.001  13.818  14.375
 9198W        W77603  28.961   5.299   1.895
 9199W        W77604  26.010  44.716   1.923
 9200W        W77605   0.926  40.303   4.954
 9201W        W77606  24.154  24.736  11.579
 9202W        W77607   3.517  33.071   0.391
 9203W        W77608   6.825  33.156   1.739
 9204W        W77609  38.871  26.764   2.760
 9205W        W77610  12.238  33.602  13.328
 9206W        W77611  13.680  16.626   4.678
 9207W        W77612   0.947   0.433   3.693
 9208W        W77613  39.450   3.777  12.200
 9209W        W77614  42.488  12.712   1.631
 9210W        W77615  42.549  18.058   0.878
 9211W        W77616   1.784   0.615  12.035
 9212W        W77617  42.466  26.047   3.751
 9213W        W77618   0.263  31.738   2.403
 9214W        W77619  21.707  17.798  11.985
 9215W        W77620   2.916   2.413  10.756
 9216W        W77621   5.309  14.287  12.771
 9217W        W77622  35.664  36.918  12.055
 9218W        W77623   1.300  30.097   4.563
 9219W        W77624  35.635   2.015  11.108
 9220W        W77625  18.817  21.301   4.050
 9221W        W77626  19.285  12.356  11.956
 9222W        W77627  41.866  14.784   1.776
 9223W        W77628  26.961  44.895   0.779
 9224W        W77629  35.062  19.616  14.964
 9225W        W77630   6.310   3.728  13.034
 9226W        W77631   2.658  26.656   2.703
 9227W        W77632   2.274  16.304  11.582
 9228W        W77633   5.461  15.254  14.501
 9229W        W77634  16.836   6.673   4.971
 9230W        W77635  37.204  38.746  11.240
 9231W        W77636  15.484  27.136  14.376
 9232W        W77637  16.612  15.882  12.957
 9233W        W77638  18.532  36.374  12.942
 9234W        W77639  15.266  22.750  14.118
 9235W        W77640  27.300  17.872   2.776
 9236W        W77641  24.952  36.187   4.161
 9237W        W77642  33.730  24.618  14.427
 9238W        W77643  28.680  20.532  13.488
 9239W        W77644  14.320  43.717   3.669
 9240W        W77645  25.394   1.311   1.475
 9241W        W77646  10.817  37.289  11.163
 9242W        W77647   7.372  33.434  14.710
 9243W        W77648  27.062  23.158  13.055
 9244W        W77649  13.437  14.591  14.488
 9245W        W77650  22.753  22.126  12.945
 9246W        W77651  10.771  12.158   3.847
 9247W        W77652   6.207  33.426   4.498
 9248W        W77653  33.109  33.407   2.896
 9249W        W77654  19.090  39.704   2.639
 9250W        W77655  35.201  34.614   4.648
 9251W        W77656  11.810  27.148  13.461
 9252W        W77657  17.451  26.164   2.591
 9253W        W77658  13.097   7.704  14.033
 9254W        W77659  29.209  31.194   2.530
 9255W        W77660  14.624  13.217  11.630
 9256W        W77661  19.028   8.815  12.964
 9257W        W77662  12.288  31.110  13.940
 9258W        W77663   3.845  19.776   4.069
 9259W        W77664  26.494   4.727  14.442
 9260W        W77665  42.528  13.221   2.414
 9261W        W77666  34.135  28.898   4.101
 9262W        W77667   8.884  40.061  14.368
 9263W        W77668  36.128  28.981  14.459
 9264W        W77669  11.679  12.831   0.335
 9265W        W77670  38.487  21.289   2.191
 9266W        W77671  31.990  28.831  12.461
 9267W        W77672  17.044  31.397   1.360
 9268W        W77673  18.590  24.467  12.509
 9269W        W77674  35.806  40.527  14.866
 9270W        W77675  25.556  26.330   3.474
 9271W        W77676  39.434   9.365   4.379
 9272W        W77677  42.717  38.057   1.643
 9273W        W77678  40.383  33.452  14.246
 9274W        W77679  35.547  14.966   4.943
 9275W        W77680  26.516  41.916   4.379
 9276W        W77681   0.436  31.501  10.659
 9277W        W77682  13.825  18.773   2.236
 9278W        W77683   4.511  13.440  14.864
 9279W        W77684  26.003   2.992   2.700
 9280W        W77685  17.699  35.405   1.319
 9281W        W77686   1.053  18.622   2.739
 9282W        W77687  27.825  43.213  13.433
 9283W        W77688   7.103  31.446   0.737
 9284W        W77689  11.090  28.510   0.870
 9285W        W77690  34.099  44.218   1.194
 9286W        W77691   8.771  23.626  11.917
 9287W        W77692  28.235  32.812   0.248
 9288W        W77693  35.120  40.875  13.911
 9289W        W77694  31.283   5.923   4.884
 9290W        W77695  41.532  39.661   2.923
 9291W        W77696  17.781   4.812  14.433
 9292W        W77697  20.758  14.196   0.293
 9293W        W77698  27.677   1.504   0.619
 9294W        W77699  10.913   0.408   2.926
 9295W        W77700  30.254  38.798  12.853
 9296W        W77701  13.102  16.079  10.413
 9297W        W77702  37.583   1.999   0.617
 9298W        W77703  41.709   0.834  10.339
 9299W        W77704  42.421   9.217   1.891
 9300W        W77705  35.880  43.952   2.816
 9301W        W77706  13.226  43.024   3.200
 9302W        W77707  17.774  25.154  11.618
 9303W        W77708  11.781  21.291   2.145
 9304W        W77709  39.037  25.578  11.533
 9305W        W77710  33.087  30.599   0.428
 9306W        W77711  18.221  30.397   5.037
 9307W        W77712  27.568  27.586   4.418
 9308W        W77713   9.320  15.623   1.966
 9309W        W77714  36.814  20.327  12.018
 9310W        W77715   7.809  15.780  13.332
 9311W        W77716  44.733  11.525   0.316
 9312W        W77717  41.296  25.994   2.821
 9313W        W77718   5.475  38.661   1.423
 9314W        W77719  15.127  44.981  12.011
 9315W        W77720  22.616   2.156   0.972
 9316W        W77721  11.353  12.476   0.980
 9317W        W77722  34.076   9.755   1.600
 9318W        W77723  26.601  29.098  14.393
 9319W        W77724  20.566  16.673  11.450
 9320W        W77725  23.435  36.440  13.495
 9321W        W77726  38.922  15.683   0.431
 9322W        W77727   0.375  35.325   1.895
 9323W        W77728  18.083  36.011  11.009
 9324W        W77729  28.539  34.339   4.135
 9325W        W77730  38.928   0.976  10.198
 9326W        W77731  33.343  10.215   2.858
 9327W        W77732  17.805   1.631   1.841
 9328W        W77733  42.485  19.337  14.941
 9329W        W77734  20.789   1.914   3.141
 9330W        W77735   9.719  42.414   0.603
 9331W        W77736  17.985  41.633   3.336
 9332W        W77737  36.683  35.897   5.240
 9333W        W77738  34.427  27.474   2.841
 9334W        W77739  27.506  25.894   2.651
 9335W        W77740  18.755  33.362   3.877
 9336W        W77741  34.458   7.230  10.735
 9337W        W77742   6.783  21.902  11.621
 9338W        W77743  19.565  41.047  11.519
 9339W        W77744  40.339   4.307  11.349
 9340W        W77745  24.841  43.548   1.267
 9341W        W77746  19.224  29.411   4.583
 9342W        W77747  35.841  17.028  11.638
 9343W        W77748  11.986  23.067   0.343
 9344W        W77749   3.262  35.460  10.688
 9345W        W77750  42.361   6.173  12.406
 9346W        W77751  31.884  38.458  10.740
 9347W        W77752  12.604  20.820   2.041
 9348W        W77753   6.770  16.152  12.101
 9349W        W77754  20.702  25.770  11.155
 9350W        W77755  34.916  15.823   0.666
 9351W        W77756  31.109  40.203   2.686
 9352W        W77757   1.229  34.042   4.221
 9353W        W77758  17.210  24.008   0.760
 9354W        W77759   2.165  16.332  14.824
 9355W        W77760  44.571  29.208   3.187
 9356W        W77761  43.393  12.351  12.822
 9357W        W77762   1.260   6.161   1.854
 9358W        W77763  31.785  35.903   4.541
 9359W        W77764  32.175  44.903  10.323
 9360W        W77765   3.185  24.021  11.083
 9361W        W77766  43.516   5.999   2.222
 9362W        W77767  40.085  14.857  10.905
 9363W        W77768  21.001  35.408   2.848
 9364W        W77769  42.899  25.999  14.748
 9365W        W77770   0.372  30.937   0.170
 9366W        W77771  41.647   4.376  11.634
 9367W        W77772   3.764  33.942  12.517
 9368W        W77773  37.765  29.939   4.838
 9369W        W77774  34.506   8.487  11.537
 9370W        W77775  41.948   3.235   1.284
 9371W        W77776  18.643  14.690   0.279
 9372W        W77777  43.872  39.488  11.137
 9373W        W77778  41.748  22.052  11.584
 9374W        W77779  23.507   0.076   3.189
 9375W        W77780  26.916   1.794  14.265
 9376W        W77781  42.107  27.613  14.998
 9377W        W77782  24.758  33.644   4.685
 9378W        W77783   1.817  17.104   1.839
 9379W        W77784  41.323  12.651  11.631
 9380W        W77785  24.740  31.653  11.131
 9381W        W77786  11.368  17.717   4.696
 9382W        W77787  43.376   8.757  12.915
 9383W        W77788  15.628  10.123  12.502
 9384W        W77789  10.146   4.293   3.200
 9385W        W77790  14.356  36.529  14.870
 9386W        W77791  37.156  25.656   3.322
 9387W        W77792  33.498   5.447   0.352
 9388W        W77793  40.229  21.017  13.072
 9389W        W77794  37.371  10.096   4.661
 9390W        W77795  34.851  26.840  12.111
 9391W        W77796  11.184   0.506   0.759
 9392W        W77797  23.439  17.805  13.657
 9393W        W77798   0.246   8.148   1.548
 9394W        W77799  36.865   7.250  13.436
 9395W        W77800  40.990  40.841  11.350
 9396W        W77801  29.426   5.390  12.307
 9397W        W77802   7.640  33.909   2.834
 9398W        W77803  39.983  23.605  14.132
 9399W        W77804  10.908   6.228  13.541
 9400W        W77805  30.315  25.756   4.553
 9401W        W77806   0.003  29.604  13.298
 9402W        W77807   5.176   9.130  10.703
 9403W        W77808  11.164  38.026  13.905
 9404W        W77809  34.492  26.041   2.890
 9405W        W77810  16.350  14.225  13.420
 9406W        W77811  31.325  41.044  11.919
 9407W        W77812  17.218  10.938   2.680
 9408W        W77813  12.321   3.174   4.758
 9409W        W77814  35.957   9.321  13.067
 9410W        W77815  44.361  25.753   3.293
 9411W        W77816  38.362  40.629  11.977
 9412W        W77817  20.626  22.945   0.525
 9413W        W77818  17.364  22.318  12.693
 9414W        W77819  18.050  29.122   4.477
 9415W        W77820  38.064  35.270   4.418
 9416W        W77821   2.839  12.736   1.903
 9417W        W77822  13.809  43.322   2.341
 9418W        W77823  13.605  37.404  11.646
 9419W        W77824  41.278   1.339  14.772
 9420W        W77825  43.298   4.793   4.562
 9421W        W77826  41.248   7.607  11.677
 9422W        W77827  35.824   2.693  12.500
 9423W        W77828  31.450  11.601  13.853
 9424W        W77829  26.527  10.465  13.588
 9425W        W77830  23.034  25.462   3.586
 9426W        W77831  29.124  33.115   3.050
 9427W        W77832  11.348  41.780  13.007
 9428W        W77833  15.651  40.853   1.186
 9429W        W77834  11.550  28.737  12.054
 9430W        W77835  36.528  20.902   0.471
 9431W        W77836  22.722   5.931  14.570
 9432W        W77837  33.530  36.429   4.167
 9433W        W77838  20.189  20.014  10.347
 9434W        W77839  19.883  21.337  10.564
 9435W        W77840  23.102   6.657  13.820
 9436W        W77841  21.585   5.277   0.944
 9437W        W77842  10.105  38.585   4.608
 9438W        W77843   4.532  12.295   3.197
 9439W        W77844  12.166  12.581  13.696
 9440W        W77845   0.724  38.729  14.653
 9441W        W77846   2.485  29.037  13.531
 9442W        W77847   6.496  17.012   5.100
 9443W        W77848   3.215  35.034  14.339
 9444W        W77849  37.975  24.069   3.721
 9445W        W77850  16.797   3.178  10.780
 9446W        W77851   2.618   8.202   1.304
 9447W        W77852   7.282  14.790   3.171
 9448W        W77853  34.798   6.288  12.656
 9449W        W77854   8.203  44.526  10.886
 9450W        W77855  37.928  41.333   2.328
 9451W        W77856   4.862  21.512  10.412
 9452W        W77857  17.050  11.339  13.488
 9453W        W77858  43.279   2.638   3.724
 9454W        W77859  32.088  26.123  11.483
 9455W        W77860  36.864  12.450  12.971
 9456W        W77861  42.842   9.258   4.523
 9457W        W77862  41.855  25.233   2.301
 9458W        W77863  15.102  15.330   2.901
 9459W        W77864  15.045  24.683   4.927
 9460W        W77865   1.476   9.529  14.381
 9461W        W77866  37.931  40.928  12.083
 9462W        W77867  42.979   5.190   0.460
 9463W        W77868   3.067  26.019  14.852
 9464W        W77869   8.863  18.095  12.407
 9465W        W77870  27.576   9.570   2.754
 9466W        W77871  27.123  44.065  13.969
 9467W        W77872  41.815   7.375  14.045
 9468W        W77873  44.955  11.333  14.436
 9469W        W77874  24.209  21.887   2.585
 9470W        W77875  31.902  28.989  11.976
 9471W        W77876  19.061   8.272   2.840
 9472W        W77877  25.338  40.002   5.447
 9473W        W77878  26.904  27.999  11.805
 9474W        W77879  28.228  18.168   3.219
 9475W        W77880   3.826  40.458   0.843
 9476W        W77881  19.016  28.727  11.566
 9477W        W77882  44.005  44.198   0.825
 9478W        W77883  28.893  16.853  12.590
 9479W        W77884  21.184  39.128   4.697
 9480W        W77885  13.167  14.436   0.867
 9481W        W77886  44.028  42.417   3.735
 9482W        W77887  33.049  12.866  13.499
 9483W        W77888  21.246   5.719   2.604
 9484W        W77889  13.128   6.638   2.300
 9485W        W77890  13.247  19.161  13.973
 9486W        W77891  12.663   5.094  13.924
 9487W        W77892   1.231   6.874  12.222
 9488W        W77893  23.353  33.135  11.117
 9489W        W77894   0.808  29.969  13.124
 9490W        W77895  10.367  28.177   4.484
 9491W        W77896  20.016  24.675  12.953
 9492W        W77897   0.896  35.872   4.751
 9493W        W77898   4.262   5.560   4.757
 9494W        W77899   7.371  16.826  13.957
 9495W        W77900   4.612  21.960  10.235
 9496W        W77901  20.612   9.804  13.288
 9497W        W77902  24.958  42.384   2.187
 9498W        W77903  41.659  18.966  11.499
 9499W        W77904  24.077  33.890  14.591
 9500W        W77905   3.560  37.434   2.663
 9501W        W77906  26.722  33.638   4.995
 9502W        W77907  18.921   8.447   1.394
 9503W        W77908  39.622  37.411   4.143
 9504W        W77909  41.637  24.554   0.339
 9505W        W77910   8.958  34.938  14.764
 9506W        W77911  42.798  42.806   3.197
 9507W        W77912  18.504   9.719  12.812
 9508W        W77913   1.106  37.472  14.766
 9509W        W77914  10.501  42.022  12.797
 9510W        W77915  31.571   4.721   3.260
 9511W        W77916  11.206  28.949   1.743
 9512W        W77917   1.649  11.290   3.338
 9513W        W77918  13.110  33.893   4.887
 9514W        W77919  18.154  13.492   1.978
 9515W        W77920  12.037  10.374  14.673
 9516W        W77921  14.599  26.465  14.383
 9517W        W77922  43.229  10.828   1.665
 9518W        W77923   7.444  15.881  12.541
 9519W        W77924  39.264  16.874  14.884
 9520W        W77925   8.408   5.257   1.953
 9521W        W77926   8.225  37.493  10.728
 9522W        W77927  33.415  42.470   4.812
 9523W        W77928  38.616  39.937   4.033
 9524W        W77929  39.443  41.835  11.579
 9525W        W77930   6.272  36.171   4.517
 9526W        W77931  19.582  29.396  12.014
 9527W        W77932  18.156  43.329   2.878
 9528W        W77933  39.663  40.479   0.350
 9529W        W77934  39.796  12.693   1.390
 9530W        W77935   6.293  37.409  14.115
 9531W        W77936  20.927   0.765   1.543
 9532W        W77937  10.576   4.735   2.703
 9533W        W77938  18.547   2.823   0.464
 9534W        W77939  43.957  24.700  11.703
 9535W        W77940  12.743  12.570   0.349
 9536W        W77941  42.369  31.058   2.835
 9537W        W77942  28.080   8.518  10.541
 9538W        W77943  33.228   8.206   3.076
 9539W        W77944  43.578   9.388  12.501
 9540W        W77945   5.223  13.174  11.020
 9541W        W77946  20.910  37.524  13.024
 9542W        W77947  29.984   6.199   2.350
 9543W        W77948  14.812   2.483   3.576
 9544W        W77949  34.955   4.704   1.810
 9545W        W77950   3.328  39.002  10.539
 9546W        W77951   8.984  18.680  14.869
 9547W        W77952  15.715  28.226   2.198
 9548W        W77953  27.015  27.015  11.903
 9549W        W77954  23.231  14.282   4.960
 9550W        W77955  37.433  32.414  12.412
 9551W        W77956  42.353  27.456   1.781
 9552W        W77957  43.870   7.872  13.072
 9553W        W77958  42.178  28.499   1.961
 9554W        W77959  14.879  36.711  12.580
 9555W        W77960  42.702  33.611  14.011
 9556W        W77961  19.243  21.915  12.980
 9557W        W77962  19.026  15.376  14.437
 9558W        W77963  15.635  11.885   3.134
 9559W        W77964  28.519  26.261  13.870
 9560W        W77965   0.428  38.528   0.678
 9561W        W77966  39.741  14.191  13.228
 9562W        W77967  13.280  38.677  13.328
 9563W        W77968   7.183  13.928   4.202
 9564W        W77969  26.864  26.695   3.220
 9565W        W77970  16.854  41.434  11.034
 9566W        W77971  38.469   3.417  14.541
 9567W        W77972   9.209  22.123  11.089
 9568W        W77973  38.391  17.463   0.719
 9569W        W77974  10.792  31.647   4.539
 9570W        W77975  36.933  12.329   3.339
 9571W        W77976   0.444  29.914   4.171
 9572W        W77977   0.860  44.520   0.054
 9573W        W77978  17.755  12.159   1.862
 9574W        W77979  14.178   3.916   2.197
 9575W        W77980   8.645  40.451   2.193
 9576W        W77981  17.787  38.122   4.278
 9577W        W77982  23.937  16.609   3.228
 9578W        W77983  22.098  21.453  11.424
 9579W        W77984   7.453  31.554   4.153
 9580W        W77985  34.067  20.841  14.405
 9581W        W77986   6.880  31.125  11.925
 9582W        W77987  23.736  15.409  11.056
 9583W        W77988   4.709  33.227   2.583
 9584W        W77989  29.118  34.458  14.965
 9585W        W77990  20.975  26.461   0.075
 9586W        W77991  15.185  44.200  14.594
 9587W        W77992  38.986   1.848  14.453
 9588W        W77993   8.852   6.423   3.562
 9589W        W77994  26.011  17.114   4.511
 9590W        W77995  44.328  10.570  14.343
 9591W        W77996   8.119  27.631   0.242
 9592W        W77997  40.975   9.747   3.375
 9593W        W77998  31.456   2.925   4.588
 9594W        W77999  11.289  12.372   1.889
 9595W        W78000  14.047  23.565   2.265
 9596W        W78001  23.554  13.055  11.237
 9597W        W78002   6.754  29.619  13.000
 9598W        W78003   7.427  36.977   2.611
 9599W        W78004   0.794  32.796   1.510
 9600W        W78005  21.788   2.860  12.851
 9601W        W78006  36.870  42.023   1.241
 9602W        W78007  26.402  43.466  12.487
 9603W        W78008   3.308  25.569  11.127
 9604W        W78009  34.154  39.480  11.724
 9605W        W78010   5.610   2.406   1.269
 9606W        W78011  25.052  18.254   4.166
 9607W        W78012  43.265  12.473  11.745
 9608W        W78013  40.402   0.843  12.609
 9609W        W78014  44.245  18.187   4.169
 9610W        W78015  31.474   8.141   1.133
 9611W        W78016  33.286  16.918   3.298
 9612W        W78017  12.158   5.231  14.028
 9613W        W78018  19.487  44.740  10.761
 9614W        W78019  14.995  25.123  11.225
 9615W        W78020  24.961  10.342   0.353
 9616W        W78021   9.437  12.932  14.950
 9617W        W78022   3.391  39.412   3.228
 9618W        W78023  36.255  15.092  11.577
 9619W        W78024  31.579  24.984  11.191
 9620W        W78025  37.858  40.428  12.825
 9621W        W78026  11.400  11.770  11.685
 9622W        W78027  41.929  36.808  13.904
 9623W        W78028  13.049  24.516   3.614
 9624W        W78029   7.954  18.575  11.615
 9625W        W78030  10.673  36.386  13.157
 9626W        W78031   0.805  19.831   2.294
 9627W        W78032   1.013  28.621   4.172
 9628W        W78033  23.512  14.293  11.587
 9629W        W78034  36.444  23.833   9.940
 9630W        W78035  23.099   0.344  13.605
 9631W        W78036  42.343  21.698  12.949
 9632W        W78037   7.693  31.016  10.974
 9633W        W78038  42.606   7.685   2.001
 9634W        W78039  43.221  11.754  11.126
 9635W        W78040  12.652  38.386   3.723
 9636W        W78041   8.806  20.779  10.070
 9637W        W78042  21.673  24.553  13.422
 9638W        W78043  28.480  16.740  13.423
 9639W        W78044   0.106  44.383  10.741
 9640W        W78045  18.687  21.189  11.078
 9641W        W78046  27.194   4.927  14.279
 9642W        W78047  31.309  29.565  13.578
 9643W        W78048   2.739  15.644   3.289
 9644W        W78049   2.393  40.597   2.232
 9645W        W78050   9.867  18.958  13.592
 9646W        W78051  12.232  13.110   0.311
 9647W        W78052   2.784  39.351  13.008
 9648W        W78053   1.396  24.179   3.716
 9649W        W78054  26.625  22.494   0.352
 9650W        W78055   5.721  22.560  10.834
 9651W        W78056  18.103   0.694   4.262
 9652W        W78057   2.185  12.650   1.327
 9653W        W78058   0.494  36.911  13.354
 9654W        W78059   7.666  38.599   5.083
 9655W        W78060  20.658  19.472   1.937
 9656W        W78061  37.435  11.758   3.157
 9657W        W78062   5.739  16.242   2.628
 9658W        W78063  10.299  28.953   3.931
 9659W        W78064   3.972  36.655  10.553
 9660W        W78065  12.296   0.346  13.406
 9661W        W78066   4.876  15.285   0.837
 9662W        W78067  36.918  24.437   4.811
 9663W        W78068  26.509  41.457  12.325
 9664W        W78069  17.057   1.777   3.300
 9665W        W78070  22.489  26.781   4.089
 9666W        W78071  41.273  17.160  13.400
 9667W        W78072  44.700  44.422  11.036
 9668W        W78073  23.770  31.158  11.695
 9669W        W78074  15.621  20.236  10.469
 9670W        W78075   1.823  13.308  10.957
 9671W        W78076  16.495  30.405   1.729
 9672W        W78077   5.463  26.690   4.613
 9673W        W78078   9.446   0.740  13.846
 9674W        W78079  13.211  25.641  10.863
 9675W        W78080   5.125   4.677   0.000
 9676W        W78081  32.800  32.444  11.894
 9677W        W78082  35.012   8.213  12.759
 9678W        W78083  15.117  33.037   2.741
 9679W        W78084  13.128  29.508  13.841
 9680W        W78085  31.066  26.055   0.693
 9681W        W78086  12.934   4.775  11.385
 9682W        W78087  32.878  17.852   2.449
 9683W        W78088  43.979  38.599   1.634
 9684W        W78089  30.484  38.108  11.210
 9685W        W78090  17.622  15.484   1.910
 9686W        W78091  20.173   7.693   0.918
 9687W        W78092  21.132  43.689  10.918
 9688W        W78093  15.227  36.442  10.326
 9689W        W78094   0.958  32.989   4.599
 9690W        W78095  28.484  32.619  12.394
 9691W        W78096  34.289  26.658   0.403
 9692W        W78097  33.387  44.642   4.533
 9693W        W78098  29.420  43.767   4.128
 9694W        W78099   8.588  42.872  12.475
 9695W        W78100  15.768  27.660  11.685
 9696W        W78101   3.392  34.383   3.834
 9697W        W78102  44.045  39.098   1.422
 9698W        W78103  30.137  39.262   1.737
 9699W        W78104  41.766  20.648   4.664
 9700W        W78105   5.400  30.902   4.590
 9701W        W78106  35.479  21.766  12.142
 9702W        W78107  38.440   5.206   2.636
 9703W        W78108  28.117  36.915  13.360
 9704W        W78109  27.392  37.543   4.014
 9705W        W78110  11.025  28.660  11.156
 9706W        W78111  41.653  10.619  12.997
 9707W        W78112   0.596  15.824   0.329
 9708W        W78113  36.567  18.107   4.281
 9709W        W78114  23.470  43.027   3.244
 9710W        W78115   7.167  18.550   4.200
 9711W        W78116  15.048  14.000  11.550
 9712W        W78117  18.009   8.644   1.318
 9713W        W78118   1.709  29.987   2.623
 9714W        W78119  27.423   3.131  14.401
 9715W        W78120  29.644  28.891  13.933
 9716W        W78121  34.049  13.813   1.154
 9717W        W78122  36.938  15.560   2.831
 9718W        W78123  20.413  20.155  13.758
 9719W        W78124   3.224  13.176  14.317
 9720W        W78125  35.558  22.797  12.927
 9721W        W78126  22.555  17.182   0.923
 9722W        W78127  41.268  27.388  12.475
 9723W        W78128   6.659  33.158  10.484
 9724W        W78129   8.879  31.209  11.490
 9725W        W78130  39.209  27.164  13.480
 9726W        W78131  43.505  11.825   1.628
 9727W        W78132   4.878  10.687  14.049
 9728W        W78133  28.992  11.356   1.999
 9729W        W78134  41.513   7.257  12.008
 9730W        W78135  32.157  21.101   5.229
 9731W        W78136   9.681  33.605  14.308
 9732W        W78137   6.778  18.809  10.604
 9733W        W78138  33.661  38.506  11.232
 9734W        W78139  42.749   3.155   3.188
 9735W        W78140  35.638   1.544  11.993
 9736W        W78141  25.994  15.027   1.417
 9737W        W78142  20.013  19.091   0.466
 9738W        W78143  35.451  17.137   0.882
 9739W        W78144  15.305   6.197  11.658
 9740W        W78145  18.419  25.017   3.566
 9741W        W78146  17.034  31.139   4.586
 9742W        W78147  37.973  29.181  12.092
 9743W        W78148   0.329   7.365   3.098
 9744W        W78149  34.940  43.778   0.687
 9745W        W78150   1.534  40.932  11.565
 9746W        W78151   3.656   0.477   0.366
 9747W        W78152  39.877  43.725   4.187
 9748W        W78153   9.480  27.505  10.423
 9749W        W78154   4.417  15.573   0.873
 9750W        W78155   8.249  13.256   0.204
 9751W        W78156  14.140  21.665   0.411
 9752W        W78157   3.181   9.728  11.025
 9753W        W78158   0.944  12.517   1.665
 9754W        W78159  28.243  16.307  14.606
 9755W        W78160  10.753  43.724  12.845
 9756W        W78161  32.268  25.280  10.449
 9757W        W78162  42.562  15.699  11.594
 9758W        W78163  33.600  38.866   3.274
 9759W        W78164  12.083  24.135   3.563
 9760W        W78165  36.300  24.058  12.865
 9761W        W78166   0.693   5.415   1.919
 9762W        W78167  30.447  37.544  13.926
 9763W        W78168  29.060  16.279   3.067
 9764W        W78169  23.670  36.981  13.925
 9765W        W78170  24.140  34.513   4.463
 9766W        W78171   7.821   8.874   1.476
 9767W        W78172   3.973  37.892  13.268
 9768W        W78173   0.916   8.859  11.843
 9769W        W78174  42.829  29.245   0.669
 9770W        W78175  18.690  39.908   2.200
 9771W        W78176  26.453  10.807  11.699
 9772W        W78177  24.248  11.241  10.748
 9773W        W78178  14.145  23.588  11.203
 9774W        W78179  39.250  15.097  11.653
 9775W        W78180  10.312  29.943  14.955
 9776W        W78181  21.146  26.622  14.617
 9777W        W78182  23.807  33.170  10.486
 9778W        W78183  32.963   7.227  14.787
 9779W        W78184  14.327  24.770  11.752
 9780W        W78185  33.400   8.379   1.133
 9781W        W78186  43.309  30.628  10.613
 9782W        W78187   8.912  21.908   4.626
 9783W        W78188  40.151  12.128   2.635
 9784W        W78189  21.450  17.990  14.901
 9785W        W78190  39.068  30.166   2.364
 9786W        W78191  28.546  12.766   3.353
 9787W        W78192  27.043   7.701  12.925
 9788W        W78193  15.389  40.999   0.740
 9789W        W78194   1.055  35.394   0.743
 9790W        W78195  19.536  35.872   3.701
 9791W        W78196  11.937  22.716   3.282
 9792W        W78197  35.445   6.476  13.560
 9793W        W78198   3.941  23.580   2.689
 9794W        W78199  13.633  11.933   1.931
 9795W        W78200  24.769  36.152  14.565
 9796W        W78201  29.600  21.168   2.921
 9797W        W78202  40.568   5.266   4.589
 9798W        W78203   6.172   1.989   3.286
 9799W        W78204  32.290  15.278   1.220
 9800W        W78205   9.967  12.254   2.162
 9801W        W78206  28.597   1.667  14.575
 9802W        W78207   5.746  30.539  12.584
 9803W        W78208  41.986  41.958  14.058
 9804W        W78209  26.526  19.525   0.901
 9805W        W78210   0.719   3.027   2.537
 9806W        W78211   4.313  23.616   4.920
 9807W        W78212  42.346  13.197   0.937
 9808W        W78213  38.671  40.608  13.249
 9809W        W78214  10.112  28.478  12.911
 9810W        W78215  36.623   4.251  10.068
 9811W        W78216  44.653  35.966  11.606
 9812W        W78217  11.602  33.980   3.200
 9813W        W78218   1.706  13.202   2.477
 9814W        W78219  19.015  17.285   4.211
 9815W        W78220  28.184   5.714  13.207
 9816W        W78221  33.467  16.570   1.419
 9817W        W78222  32.165  37.048  12.487
 9818W        W78223   9.301  21.720   2.273
 9819W        W78224  31.597   6.516  13.819
 9820W        W78225  31.485   5.876   4.037
 9821W        W78226  32.973  37.559   4.210
 9822W        W78227   0.193   2.730   3.789
 9823W        W78228  22.712  22.476  12.046
 9824W        W78229  31.367  30.014   4.122
 9825W        W78230  11.794  25.406   0.307
 9826W        W78231  20.163  26.910   4.158
 9827W        W78232   2.491   1.858   0.007
 9828W        W78233   2.888   7.093  14.737
 9829W        W78234  35.397  33.530   4.228
 9830W        W78235  14.263  33.082   0.704
 9831W        W78236  23.600  24.627   3.142
 9832W        W78237  30.423  28.546  11.516
 9833W        W78238  40.336  14.806  12.273
 9834W        W78239  26.183  28.012   3.799
 9835W        W78240  43.425  34.633   2.332
 9836W        W78241   7.620   6.347  12.323
 9837W        W78242  24.690  11.848   1.258
 9838W        W78243  37.669  18.800   4.008
 9839W        W78244  28.706  20.175   0.911
 9840W        W78245  10.751   2.225  11.927
 9841W        W78246  28.438  31.124  14.846
 9842W        W78247  18.098  27.579  10.599
 9843W        W78248  38.146  13.203   3.258
 9844W        W78249  18.975   1.391  14.574
 9845W        W78250  14.911  12.365   3.245
 9846W        W78251  25.801  21.368  11.938
 9847W        W78252  34.910  42.817   0.373
 9848W        W78253  36.591  20.095  12.598
 9849W        W78254  39.296  34.016  12.541
 9850W        W78255   0.008  21.876   3.051
 9851W        W78256   7.185  29.106   2.302
 9852W        W78257   2.431  17.353  10.539
 9853W        W78258  22.977  15.578  11.270
 9854W        W78259  24.469   8.320  14.037
 9855W        W78260  42.400  27.237  12.560
 9856W        W78261   3.225  15.394   5.063
 9857W        W78262  25.716  36.974  13.394
 9858W        W78263  36.545   8.274   2.740
 9859W        W78264  29.121  13.204  14.973
 9860W        W78265   2.525  14.137   3.266
 9861W        W78266  43.780  23.055  10.325
 9862W        W78267  10.139  23.557   2.910
 9863W        W78268   8.403  23.313   1.782
 9864W        W78269  22.172  26.107  10.676
 9865W        W78270  30.880   0.814  14.148
 9866W        W78271  14.651   6.229  13.308
 9867W        W78272  11.258   9.315   1.491
 9868W        W78273   8.549  29.880  11.565
 9869W        W78274  18.575   5.797   0.605
 9870W        W78275  16.844   6.769   1.434
 9871W        W78276  44.893  26.564  13.264
 9872W        W78277  35.386  25.402  10.772
 9873W        W78278  39.833   0.462  14.929
 9874W        W78279  41.150  20.449   1.882
 9875W        W78280  42.599  25.646   2.063
 9876W        W78281  24.452  31.123   1.895
 9877W        W78282  19.073  43.524  14.082
 9878W        W78283  24.723  43.747  11.534
 9879W        W78284  32.187   7.834   0.768
 9880W        W78285  19.230  10.388   2.518
 9881W        W78286   2.312   6.194   1.429
 9882W        W78287  27.865  41.672   1.739
 9883W        W78288   9.512  14.865  12.921
 9884W        W78289  34.869  35.429  12.316
 9885W        W78290  29.577   4.801  10.073
 9886W        W78291  19.508   7.242  13.390
 9887W        W78292  31.132   9.374  12.255
 9888W        W78293  28.245  23.605  13.317
 9889W        W78294  38.664  19.349  14.164
 9890W        W78295   3.508  31.932  13.888
 9891W        W78296  29.745   9.492  14.104
 9892W        W78297  40.098  28.531  14.832
 9893W        W78298  11.669  37.390  14.196
 9894W        W78299  13.115  31.230   3.626
 9895W        W78300  19.093  35.022  13.857
 9896W        W78301  10.243  35.947  12.032
 9897W        W78302  24.973   0.277  12.176
 9898W        W78303  34.447  40.509   3.706
 9899W        W78304   5.696   5.385  11.748
 9900W        W78305   8.721  44.706  11.558
 9901W        W78306   0.946   7.950  14.114
 9902W        W78307  44.458  35.922   4.816
 9903W        W78308   4.460  29.472  11.151
 9904W        W78309  27.991  40.053  14.202
 9905W        W78310   4.846  36.648   1.795
 9906W        W78311  43.228   9.248   2.866
 9907W        W78312  10.355   8.245   9.834
 9908W        W78313  16.107  25.332   1.283
 9909W        W78314  36.644  16.917  14.278
 9910W        W78315   2.662  26.113  11.086
 9911W        W78316  35.061  14.227  10.387
 9912W        W78317  36.136  18.494  13.381
 9913W        W78318  25.590  35.874   1.761
 9914W        W78319  17.908  16.265   0.811
 9915W        W78320  13.671  23.932  11.623
 9916W        W78321  27.011   6.146  13.977
 9917W        W78322   0.672   3.291   0.991
 9918W        W78323  35.089  38.820  13.441
 9919W        W78324  32.504   4.526   1.996
 9920W        W78325  30.508  13.261   2.985
 9921W        W78326  31.072  39.041   0.373
 9922W        W78327  30.492  22.506  10.658
 9923W        W78328  13.367  26.484  12.839
 9924W        W78329   8.721  33.795  10.537
 9925W        W78330  28.135  12.941  11.059
 9926W        W78331  14.776  21.195   1.477
 9927W        W78332  24.483  16.843   4.194
 9928W        W78333  44.632  11.487   1.833
 9929W        W78334  11.839   8.938   4.081
 9930W        W78335  15.191  32.693  11.705
 9931W        W78336  24.273  28.509  14.237
 9932W        W78337  32.738  39.475  13.037
 9933W        W78338  25.422  29.242  14.604
 9934W        W78339  26.861   0.414   3.417
 9935W        W78340  31.163  25.308  11.142
 9936W        W78341  31.996   1.729   0.216
 9937W        W78342   5.136   5.198  11.430
 9938W        W78343  10.739  17.909   2.774
 9939W        W78344  34.421  16.651   3.283
 9940W        W78345  11.997  17.112   1.435
 9941W        W78346   6.824  37.875   4.550
 9942W        W78347  43.053  39.415   2.350
 9943W        W78348   7.742   9.843  13.938
 9944W        W78349  22.629  25.398  14.564
 9945W        W78350  24.004  17.885  13.010
 9946W        W78351   9.651  11.830   2.035
 9947W        W78352  11.343  44.703   4.997
 9948W        W78353  39.341  20.204  10.540
 9949W        W78354  33.497  30.047  11.532
 9950W        W78355  44.536  43.480   3.234
 9951W        W78356  21.280   2.744   3.180
 9952W        W78357   5.153  37.464  13.389
 9953W        W78358  22.579  32.382  13.352
 9954W        W78359  35.527  34.829   2.382
 9955W        W78360  23.060  35.479  10.738
 9956W        W78361  27.820  26.457  13.346
 9957W        W78362  13.182  39.778   3.204
 9958W        W78363  20.563   7.874  10.915
 9959W        W78364   8.603  20.964  13.345
 9960W        W78365   9.438  31.115   0.456
 9961W        W78366   6.159  10.539  11.654
 9962W        W78367   4.307  11.057  11.823
 9963W        W78368  13.236  34.595  14.842
 9964W        W78369   2.852  26.191   2.570
 9965W        W78370   2.855   4.854   4.622
 9966W        W78371  13.233   1.953   3.185
 9967W        W78372  29.130  27.080   1.671
 9968W        W78373  40.350  38.182   0.243
 9969W        W78374  24.499   1.801  10.731
 9970W        W78375  34.146  14.536   1.845
 9971W        W78376  25.658  40.877   0.347
 9972W        W78377  20.412  33.106   3.534
 9973W        W78378  13.643  10.170  14.541
 9974W        W78379  28.678  13.910   1.462
 9975W        W78380  22.004  19.329   1.947
 9976W        W78381   0.297  11.787  12.173
 9977W        W78382  32.951   2.038   0.261
 9978W        W78383  18.828  19.130   4.356
 9979W        W78384  42.860  11.659   3.594
 9980W        W78385   1.235   7.972   4.455
 9981W        W78386  27.899  37.606   2.786
 9982W        W78387  15.997  30.921   0.654
 9983W        W78388  12.122  22.380   3.648
 9984W        W78389   1.850  38.028   4.813
 9985W        W78390   2.964  33.858   4.813
 9986W        W78391  27.740  12.804   3.508
 9987W        W78392  27.161  18.133  11.091
 9988W        W78393   2.231  25.466  11.974
 9989W        W78394  43.734  30.312   2.279
 9990W        W78395  27.630  34.750  11.982
 9991W        W78396  17.668  23.664   3.736
 9992W        W78397  24.213  40.172  11.469
 9993W        W78398  41.438  24.900  14.895
 9994W        W78399  27.456  29.427   4.922
 9995W        W78400  22.535  40.495  12.813
 9996W        W78401  28.019  29.351   1.054
 9997W        W78402  14.584   9.721  11.721
 9998W        W78403  42.960  33.366  12.925
 9999W        W78404  30.682  15.279   0.437
10000W        W78405  37.285   8.778   3.878
10001W        W78406  25.233   9.883   4.148
10002W        W78407  18.816  30.522  14.305
10003W        W78408   0.607   4.050  12.967
10004W        W78409  13.652  17.636   4.726
10005W        W78410   1.223   8.555  11.557
10006W        W78411  16.812   6.641   1.932
10007W        W78412   7.786  40.716  12.049
10008W        W78413  26.670   2.339  12.787
10009W        W78414   3.688   3.424  12.437
10010W        W78415  36.552  40.885   1.527
10011W        W78416   7.536   0.695   5.100
10012W        W78417   4.531  27.130  12.557
10013W        W78418  26.880  28.055  10.707
10014W        W78419  42.952  31.893   2.667
10015W        W78420  39.017   2.830   0.580
10016W        W78421  43.054  24.189   0.430
10017W        W78422  27.421  24.292  14.253
10018W        W78423  39.758  39.340   1.907
10019W        W78424  42.992   7.442  13.408
10020W        W78425  16.897  10.546  11.008
10021W        W78426  40.427  24.902   2.312
10022W        W78427  18.347  21.374  13.923
10023W        W78428   5.883  20.166  14.900
10024W        W78429  16.711  42.288  11.482
10025W        W78430   2.773   1.915   3.439
10026W        W78431  17.199  34.572   4.539
10027W        W78432  19.132   8.380   1.877
10028W        W78433   1.442  17.663   0.628
10029W        W78434  15.588  25.675  12.451
10030W        W78435  44.385  38.025   0.844
10031W        W78436  14.090  15.047  11.453
10032W        W78437   3.817  24.790  12.142
10033W        W78438  41.174  41.548   0.346
10034W        W78439  18.098  10.678  12.512
10035W        W78440   9.650   6.280   1.622
10036W        W78441   0.989  19.371  14.032
10037W        W78442   2.453  34.465  14.310
10038W        W78443  20.834  34.466   4.427
10039W        W78444  21.124  21.046   3.638
10040W        W78445  10.178  36.587   1.734
10041W        W78446  26.634  27.339   0.863
10042W        W78447   7.648  28.528   2.787
10043W        W78448   8.436  40.960   2.321
10044W        W78449   5.676   2.476   2.145
10045W        W78450  26.995  28.573  13.468
10046W        W78451  39.933  33.706  11.965
10047W        W78452  25.480  19.202   3.411
10048W        W78453  24.154  41.909  12.809
10049W        W78454  12.313   8.885  11.400
10050W        W78455  15.125   1.756  14.147
10051W        W78456  27.144   6.478  11.707
10052W        W78457  12.826  42.842   1.736
10053W        W78458   8.899  40.477   4.564
10054W        W78459  20.254   1.845   1.304
10055W        W78460  15.740  11.816   4.947
10056W        W78461  10.504   6.645  11.194
10057W        W78462  12.445  11.815  14.763
10058W        W78463  33.261  40.361  12.944
10059W        W78464  17.153   7.876   1.991
10060W        W78465  10.104  20.340  14.432
10061W        W78466  38.019  14.383  11.706
10062W        W78467  12.599  21.566  14.577
10063W        W78468   7.145   4.668  13.300
10064W        W78469  18.646  26.703   3.771
10065W        W78470   8.162  39.266  13.354
10066W        W78471  22.262  13.233  11.900
10067W        W78472  33.435  29.088   0.331
10068W        W78473  20.228  38.417   1.222
10069W        W78474   6.462   9.337   1.926
10070W        W78475  12.095  10.760   2.407
10071W        W78476  13.914  30.064  10.474
10072W        W78477  37.927   3.508  13.385
10073W        W78478  24.039  30.623   1.282
10074W        W78479  35.219  26.732   2.851
10075W        W78480  10.864  40.947   2.309
10076W        W78481  11.399  35.417   2.726
10077W        W78482  19.667  33.591   3.072
10078W        W78483  25.344  26.833  11.505
10079W        W78484  38.362  40.900   1.612
10080W        W78485  17.146  43.902   0.413
10081W        W78486  35.414  41.025   2.543
10082W        W78487  30.239  17.759  13.103
10083W        W78488  17.602  10.075  12.965
10084W        W78489  26.218   9.166  11.563
10085W        W78490  21.218   1.972   2.314
10086W        W78491  31.148  14.584   4.188
10087W        W78492  38.633  12.171  12.930
10088W        W78493  31.908   4.554  13.640
10089W        W78494  29.558   2.361  14.106
10090W        W78495  42.437  14.556  13.027
10091W        W78496  38.497  44.884   3.220
10092W        W78497   0.374  28.672   3.103
10093W        W78498   2.515   8.343   5.045
10094W        W78499  16.734  34.869   4.159
10095W        W78500  24.229  12.544  11.571
10096W        W78501  31.967  44.951   2.824
10097W        W78502  19.856  10.697  13.794
10098W        W78503  35.355  16.212  13.378
10099W        W78504  40.308  36.047  14.319
10100W        W78505   7.181  25.732  11.299
10101W        W78506  34.539  39.811  12.881
10102W        W78507   8.171   3.020  11.606
10103W        W78508  43.882  32.935  13.947
10104W        W78509   8.912  11.346   4.058
10105W        W78510   3.985  23.468  11.979
10106W        W78511  39.906  32.211  11.277
10107W        W78512  24.553  26.954  13.620
10108W        W78513  35.567   9.032   1.236
10109W        W78514  36.408  22.644   2.205
10110W        W78515  22.523   5.255   0.922
10111W        W78516   9.326  31.216   5.376
10112W        W78517  43.457  24.228   4.741
10113W        W78518  11.619  13.061   3.392
10114W        W78519  29.062  22.927   2.813
10115W        W78520  39.491  14.038   1.756
10116W        W78521  14.090  38.879   0.531
10117W        W78522  10.876   4.714  12.550
10118W        W78523  13.148  39.964   4.885
10119W        W78524  18.738  44.185   2.604
10120W        W78525  17.032  44.749  10.692
10121W        W78526  21.458  18.681   4.340
10122W        W78527  29.037  33.916  13.518
10123W        W78528  37.900   2.691   5.120
10124W        W78529   9.736  41.449  13.597
10125W        W78530   4.789  36.846  11.073
10126W        W78531  25.928  27.701   3.044
10127W        W78532  18.143  39.523   4.240
10128W        W78533  31.278  21.830  10.678
10129W        W78534  36.674  31.964  12.517
10130W        W78535  44.981  16.260  11.126
10131W        W78536  16.447  40.442  13.844
10132W        W78537  10.385  37.364   2.274
10133W        W78538  11.325  20.714  12.034
10134W        W78539  11.234   6.947  14.131
10135W        W78540  38.369  33.601  11.628
10136W        W78541  28.711  21.214  12.407
10137W        W78542  44.742  20.063   1.446
10138W        W78543  38.189  12.590   2.437
10139W        W78544  41.829  18.063   1.753
10140W        W78545  34.359   2.949   2.978
10141W        W78546  38.573  38.074  14.236
10142W        W78547  21.137   4.998  12.551
10143W        W78548  29.760  44.695   1.323
10144W        W78549  28.503  10.319  14.028
10145W        W78550   5.773  44.264  12.398
10146W        W78551  37.970  20.611   0.503
10147W        W78552  29.450  15.440   1.035
10148W        W78553   2.227  36.483  12.868
10149W        W78554   2.962  19.802  12.309
10150W        W78555  36.436   2.800   0.385
10151W        W78556  33.570  27.750  14.715
10152W        W78557  15.154  34.147   3.552
10153W        W78558  24.748  42.957  11.207
10154W        W78559  33.924  31.271  11.585
10155W        W78560  41.144   6.385  11.323
10156W        W78561   5.392   0.916  13.423
10157W        W78562  19.342  10.091  12.405
10158W        W78563   6.094  31.875   1.356
10159W        W78564  38.030  40.394   2.389
10160W        W78565  20.696   4.689  12.496
10161W        W78566  15.282  41.929   1.051
10162W        W78567   5.786  28.979   0.477
10163W        W78568  14.463  21.637  13.871
10164W        W78569   8.344   2.101  14.912
10165W        W78570  27.638  19.200  14.377
10166W        W78571   5.549  14.972  11.104
10167W        W78572  10.115  24.201   1.788
10168W        W78573   0.290  44.485   3.141
10169W        W78574  22.824  33.285   2.225
10170W        W78575  27.795  11.594  14.100
10171W        W78576  41.794  22.723  12.566
10172W        W78577  39.489  19.268   1.484
10173W        W78578   5.848  30.618   1.137
10174W        W78579  34.845  10.193  11.569
10175W        W78580  26.476  13.678   2.968
10176W        W78581  35.594  20.362  12.363
10177W        W78582  18.086  42.756  14.845
10178W        W78583   2.644   1.016  11.721
10179W        W78584  30.152   2.794   3.691
10180W        W78585  24.753  42.317  14.814
10181W        W78586  35.897  24.941  11.869
10182W        W78587  15.301  25.962   3.771
10183W        W78588  13.777  15.352   3.658
10184W        W78589   9.091  20.812   1.342
10185W        W78590  41.658  30.386   0.445
10186W        W78591  20.457  43.114  10.537
10187W        W78592  42.546  18.618  11.578
10188W        W78593  30.036  15.245   2.624
10189W        W78594  13.745  44.342  14.449
10190W        W78595  42.724  37.491  12.460
10191W        W78596  35.823  39.005  11.599
10192W        W78597  16.110  39.998  12.692
10193W        W78598   2.266  30.639   9.934
10194W        W78599  20.322   2.480  13.328
10195W        W78600  17.673  17.785  11.583
10196W        W78601  36.603   2.963  11.447
10197W        W78602  16.443  42.895   2.795
10198W        W78603  44.236  42.070  13.048
10199W        W78604   1.477  20.272  12.886
10200W        W78605  38.324  13.604   1.406
10201W        W78606  20.062  31.021   2.283
10202W        W78607   6.899   0.294  13.426
10203W        W78608  24.533  40.448  14.011
10204W        W78609  41.445  41.130  10.972
10205W        W78610  32.983  31.742   4.576
10206W        W78611  18.147   7.776  12.353
10207W        W78612  11.975   1.834   4.086
10208W        W78613  44.142  21.259   1.823
10209W        W78614  14.007  36.652  12.513
10210W        W78615  24.703  18.233   1.503
10211W        W78616  26.444   7.978   0.340
10212W        W78617  43.313   0.435   0.972
10213W        W78618   3.403   5.181   0.031
10214W        W78619   6.910   8.944   0.209
10215W        W78620  37.590  25.163   1.457
10216W        W78621  28.433  23.719  13.911
10217W        W78622  15.688   4.988  10.561
10218W        W78623  25.492  15.725   0.869
10219W        W78624  24.229   5.460  14.315
10220W        W78625  36.378  29.698   3.231
10221W        W78626  35.631  25.344   1.712
10222W        W78627  17.693  35.571   2.729
10223W        W78628  34.314  43.659   3.669
10224W        W78629  34.155  13.340   1.328
10225W        W78630   1.110  21.239   2.143
10226W        W78631  24.055   6.216  13.865
10227W        W78632  35.466  29.784   4.674
10228W        W78633  15.544  37.884  12.957
10229W        W78634   2.776  15.602  10.725
10230W        W78635  12.899  16.335   4.238
10231W        W78636   2.523   6.472  12.130
10232W        W78637  11.284  19.454  11.472
10233W        W78638  15.369   2.871  13.504
10234W        W78639  38.474  16.291   1.415
10235W        W78640  17.667   4.249   4.635
10236W        W78641  41.365  41.414   0.814
10237W        W78642  20.320   3.832  12.956
10238W        W78643  11.739  43.634  13.799
10239W        W78644   4.289   3.670  11.626
10240W        W78645  10.935  40.257   4.370
10241W        W78646  15.389  40.414  13.036
10242W        W78647  33.688  29.920   0.527
10243W        W78648   0.751  14.798  11.986
10244W        W78649  35.654  24.949  10.768
10245W        W78650  22.629  12.355   2.563
10246W        W78651  15.980  26.838   3.323
10247W        W78652  27.461  15.860   2.940
10248W        W78653  42.518   8.671  14.095
10249W        W78654  20.140  10.660   0.697
10250W        W78655  30.550   3.560   3.844
10251W        W78656  27.725  18.182  12.473
10252W        W78657  44.919  43.057   4.778
10253W        W78658  40.366   5.355  14.675
10254W        W78659  21.105  13.554   1.302
10255W        W78660   4.965  18.502   3.855
10256W        W78661  32.803  20.328  12.418
10257W        W78662  30.197  41.259   3.575
10258W        W78663  10.311  17.786  11.081
10259W        W78664  11.088  41.492   1.279
10260W        W78665   8.607   0.910  11.613
10261W        W78666  16.221  36.401   1.931
10262W        W78667  44.507  42.652  13.835
10263W        W78668   5.217  36.431   2.774
10264W        W78669   8.599  33.515   0.737
10265W        W78670  29.712   1.875   4.176
10266W        W78671  30.426  43.386  11.026
10267W        W78672  36.480  42.188   0.290
10268W        W78673   0.665  27.936   3.515
10269W        W78674   5.964  14.533  14.234
10270W        W78675  34.911   5.334   0.466
10271W        W78676  24.485  37.000  14.708
10272W        W78677  12.913  30.026   2.470
10273W        W78678   4.391  26.160  13.374
10274W        W78679  43.310   3.163  14.875
10275W        W78680  27.045   0.497   4.804
10276W        W78681   6.383  18.085   4.989
10277W        W78682   6.940  11.694  14.515
10278W        W78683   7.374  33.776  13.158
10279W        W78684  18.804  34.864  10.980
10280W        W78685   8.832   7.662  13.836
10281W        W78686  20.092   5.210  14.799
10282W        W78687  31.647  22.110   2.704
10283W        W78688  19.183  18.350   9.855
10284W        W78689  37.557   5.011   3.727
10285W        W78690  43.984  24.904  10.416
10286W        W78691  29.689  16.169  13.387
10287W        W78692  31.378   2.866   3.294
10288W        W78693  12.414  40.928  13.364
10289W        W78694  22.910  15.919  13.970
10290W        W78695  34.631  23.150   1.720
10291W        W78696  16.132  27.697  10.415
10292W        W78697   7.358   5.197  12.089
10293W        W78698  30.609  13.864  11.170
10294W        W78699  32.046  43.272   4.585
10295W        W78700  42.005   4.006  12.785
10296W        W78701   2.468  25.087  12.879
10297W        W78702   1.504  30.397  13.896
10298W        W78703  13.384   6.869  12.024
10299W        W78704   3.200  42.830   0.044
10300W        W78705  26.092  29.411   0.774
10301W        W78706  37.006  29.632  13.549
10302W        W78707  33.428   0.762  13.486
10303W        W78708  15.617   7.186   3.153
10304W        W78709  16.566  35.844   4.151
10305W        W78710  26.893  30.905  12.545
10306W        W78711  14.836  44.006   3.655
10307W        W78712   5.950  31.942  13.118
10308W        W78713  18.765  12.397  10.643
10309W        W78714   3.388  24.441   2.718
10310W        W78715  31.382  34.496   1.296
10311W        W78716  17.329  19.109   2.839
10312W        W78717   4.936   2.978  12.827
10313W        W78718  13.620  13.375   0.115
10314W        W78719  20.792  26.595   0.559
10315W        W78720  37.866  10.258  12.963
10316W        W78721   0.489  40.288  13.748
10317W        W78722   9.916  17.651  14.854
10318W        W78723  28.994   2.211  10.992
10319W        W78724  41.370  36.059   1.192
10320W        W78725  20.532   9.391   3.807
10321W        W78726  11.321  37.470  12.803
10322W        W78727  20.045  15.237  13.506
10323W        W78728  26.564  17.678   2.070
10324W        W78729  17.069  36.600   4.156
10325W        W78730  15.106  41.711  11.872
10326W        W78731   5.433   9.496   4.219
10327W        W78732  37.503   1.791   4.832
10328W        W78733  16.327  27.717  12.965
10329W        W78734   3.898  32.514  12.477
10330W        W78735  31.886  31.604  10.668
10331W        W78736   2.800  16.739  13.775
10332W        W78737   4.459  31.926  12.870
10333W        W78738  42.029   8.519  14.874
10334W        W78739  24.414   8.526   1.533
10335W        W78740  16.069  29.604  12.618
10336W        W78741  23.735  42.024  11.059
10337W        W78742  25.228   0.977  11.116
10338W        W78743  24.554  22.066   5.038
10339W        W78744   4.443   9.514   4.563
10340W        W78745   0.780  35.780   3.811
10341W        W78746  34.317  29.055   2.780
10342W        W78747  28.939  17.259  12.998
10343W        W78748  25.389  32.368   0.803
10344W        W78749  19.314   4.792  11.063
10345W        W78750  30.630   5.720  10.593
10346W        W78751  12.110  39.480   4.170
10347W        W78752  37.336   6.766   2.335
10348W        W78753  42.301  36.348   1.810
10349W        W78754   3.510  41.405  11.980
10350W        W78755   8.907   1.885  10.686
10351W        W78756  18.438  34.590  13.103
10352W        W78757  39.924  34.333  14.980
10353W        W78758  17.202  14.118   2.301
10354W        W78759   9.656   2.199  13.412
10355W        W78760   9.905   1.233   4.671
10356W        W78761  14.905   5.796   4.730
10357W        W78762  16.278  36.607   2.390
10358W        W78763  40.961  42.050  14.879
10359W        W78764  42.112  36.664  10.491
10360W        W78765  10.333   6.040   0.279
10361W        W78766  18.598  11.342   4.624
10362W        W78767   3.807  33.075  10.625
10363W        W78768  23.736  18.481   1.222
10364W        W78769   1.410   8.260   3.432
10365W        W78770  17.283  29.130   0.938
10366W        W78771   4.927  16.261  11.009
10367W        W78772  21.828  34.343  13.378
10368W        W78773   2.398  29.369  13.971
10369W        W78774   7.818  40.094   1.308
10370W        W78775  14.231   1.447   2.678
10371W        W78776  20.700  30.955  13.294
10372W        W78777  17.065   2.221   3.733
10373W        W78778  11.900  30.172  10.244
10374W        W78779  42.573   7.898  12.529
10375W        W78780  41.569  10.565  11.039
10376W        W78781  34.715  44.200  12.943
10377W        W78782  12.243   7.185  14.451
10378W        W78783  38.022  24.982   3.554
10379W        W78784  19.197   5.393   5.122
10380W        W78785   3.317  31.615  12.507
10381W        W78786  34.696  19.875   4.104
10382W        W78787  16.340  23.103  10.741
10383W        W78788  35.498  17.601   1.488
10384W        W78789  25.159  22.269   1.280
10385W        W78790  15.641   9.583  12.483
10386W        W78791  30.927  20.498  12.495
10387W        W78792  27.292  18.935   0.726
10388W        W78793  12.077  23.309   0.828
10389W        W78794  12.424  37.418  14.903
10390W        W78795  16.615  25.733   4.527
10391W        W78796   4.706  39.569   4.130
10392W        W78797  21.088   9.616  14.536
10393W        W78798   7.280  37.532  14.458
10394W        W78799   7.222  32.928   4.571
10395W        W78800  36.640  19.543  13.927
10396W        W78801  18.235  15.440   1.878
10397W        W78802  34.653  42.328  13.754
10398W        W78803   8.683  42.932   2.331
10399W        W78804  38.226  30.754   4.246
10400W        W78805  39.732  33.901  10.226
10401W        W78806  35.909  17.537   1.778
10402W        W78807  28.493  38.133   2.196
10403W        W78808  39.649  34.627  11.430
10404W        W78809   6.783   4.477  11.453
10405W        W78810   5.928   3.782  14.352
10406W        W78811  15.055  40.099   2.112
10407W        W78812  42.832  43.011  14.867
10408W        W78813  36.979  18.064   0.762
10409W        W78814  34.949   8.349  11.964
10410W        W78815  40.536   9.365  13.568
10411W        W78816   8.894  19.141  13.272
10412W        W78817  15.154  40.554  11.433
10413W        W78818  44.366  36.847  14.504
10414W        W78819  35.378  40.403  13.930
10415W        W78820  40.376  14.875  13.264
10416W        W78821   6.031  42.995  13.450
10417W        W78822  43.912  39.520  12.053
10418W        W78823  22.240  13.827   4.147
10419W        W78824   2.033  40.869  11.654
10420W        W78825  15.718  42.958  14.717
10421W        W78826  31.010  43.293  14.602
10422W        W78827  43.444  26.474  11.500
10423W        W78828  39.362  34.445  12.820
10424W        W78829  24.259  38.435   0.893
10425W        W78830   2.903  42.036  14.398
10426W        W78831  23.727  13.278  10.791
10427W        W78832  24.154   0.391  11.476
10428W        W78833  31.201   2.041  11.406
10429W        W78834  37.127  43.511   0.224
10430W        W78835  18.272  12.276   3.224
10431W        W78836  40.575  33.257   1.145
10432W        W78837   8.010   6.940   0.439
10433W        W78838   1.923   4.284  12.917
10434W        W78839  37.326  10.777  14.979
10435W        W78840  30.497  20.857  13.623
10436W        W78841  11.335  38.351   3.212
10437W        W78842   8.173  13.334  14.697
10438W        W78843   3.164  37.828  14.965
10439W        W78844  33.855  21.603  14.578
10440W        W78845  13.113  19.780   2.764
10441W        W78846  18.721  35.639   4.602
10442W        W78847   6.894  42.975  12.170
10443W        W78848  29.351   4.474  11.595
10444W        W78849  20.203  41.835  14.838
10445W        W78850  33.454   8.301  13.035
10446W        W78851  24.570  22.988  13.569
10447W        W78852  38.322  21.218  12.018
10448W        W78853  19.152  39.091   2.438
10449W        W78854  12.805   4.161   2.126
10450W        W78855  17.741  41.037  14.822
10451W        W78856  43.501  23.706   2.548
10452W        W78857   7.975  15.667   3.170
10453W        W78858  43.760  14.152  14.986
10454W        W78859  28.205  41.968  13.513
10455W        W78860  28.966  38.446  12.692
10456W        W78861  38.316  41.796   1.200
10457W        W78862  33.382   9.690  11.410
10458W        W78863  15.145  38.333   3.440
10459W        W78864  11.039  34.808  11.418
10460W        W78865  37.971  39.980  14.866
10461W        W78866  18.695  12.663  14.280
10462W        W78867  22.723  33.310  11.214
10463W        W78868   5.464  28.078  11.410
10464W        W78869  32.625  42.050  14.320
10465W        W78870   1.589   9.493  11.665
10466W        W78871  37.436  20.896   9.895
10467W        W78872   6.767  24.405  10.650
10468W        W78873  28.543   9.168   2.843
10469W        W78874  31.886   9.953  10.399
10470W        W78875  37.051  42.476   1.413
10471W        W78876  41.347   0.075   4.436
10472W        W78877  43.302  14.912   3.188
10473W        W78878  37.053  37.412  14.442
10474W        W78879  42.360  19.224  14.038
10475W        W78880   8.876  37.774  13.358
10476W        W78881  14.686  39.268   2.318
10477W        W78882  23.999  37.822   3.536
10478W        W78883  38.282   0.776  14.952
10479W        W78884  10.773  18.288   1.657
10480W        W78885   7.046  33.397  13.312
10481W        W78886  20.228  31.373   1.915
10482W        W78887  18.202  21.037  14.917
10483W        W78888  38.219  10.407  12.326
10484W        W78889  15.275  35.355   4.603
10485W        W78890  10.488  31.569   2.084
10486W        W78891  21.508   6.191  11.618
10487W        W78892  18.507  30.561   1.693
10488W        W78893  42.869   4.876  14.178
10489W        W78894  18.604   2.415   3.645
10490W        W78895  37.403  26.146  14.953
10491W        W78896  17.321   2.456  13.901
10492W        W78897  42.332  37.989   3.499
10493W        W78898  28.450  42.731  11.207
10494W        W78899  39.849  27.433   3.279
10495W        W78900   7.884  34.840  12.418
10496W        W78901   5.138  25.965  12.866
10497W        W78902  34.477  20.695  11.447
10498W        W78903  43.355  37.270  11.189
10499W        W78904  10.272  28.580   3.559
10500W        W78905   8.050  42.806   4.888
10501W        W78906  40.619  26.883  13.579
10502W        W78907  43.100  28.191   3.190
10503W        W78908  38.597  41.952  10.610
10504W        W78909  28.898  40.399  14.947
10505W        W78910  34.794   4.993  14.894
10506W        W78911  32.595  39.024   0.333
10507W        W78912   9.614  44.629  14.275
10508W        W78913  14.994   2.540  14.620
10509W        W78914  11.345  38.622  10.518
10510W        W78915   2.366  29.746   3.229
10511W        W78916  36.433  35.130  14.950
10512W        W78917  34.517  33.635   2.661
10513W        W78918  11.171  26.459  12.576
10514W        W78919  32.013  40.237   2.681
10515W        W78920  23.581  16.546  11.676
10516W        W78921  27.853  34.496   3.548
10517W        W78922  29.565  37.359   1.345
10518W        W78923  37.683  11.130   4.370
10519W        W78924  28.169  32.011   4.563
10520W        W78925  30.611  11.178  11.746
10521W        W78926  44.016   8.256  10.778
10522W        W78927  10.324   4.889  10.729
10523W        W78928  20.946  40.121   0.889
10524W        W78929  29.357   9.336  12.021
10525W        W78930  42.276  18.555   2.757
10526W        W78931  15.259  22.507  13.125
10527W        W78932  24.902  23.416  13.596
10528W        W78933   0.028  36.407  11.201
10529W        W78934   7.716  21.570  12.096
10530W        W78935  15.868  34.793   4.984
10531W        W78936  10.319  43.800   3.769
10532W        W78937   8.793  14.065  10.987
10533W        W78938  23.289   0.563  14.067
10534W        W78939  36.429   5.912  12.081
10535W        W78940   4.815  39.027  13.473
10536W        W78941  30.851  11.778  12.015
10537W        W78942   4.803  42.708   3.342
10538W        W78943   6.218  39.913   0.382
10539W        W78944  25.734   3.918  14.847
10540W        W78945  35.032   7.186   4.286
10541W        W78946  27.641  27.466   0.054
10542W        W78947  11.251  43.435  13.806
10543W        W78948   1.896  17.804  13.002
10544W        W78949  40.464  23.573  14.301
10545W        W78950  25.762   3.329   0.287
10546W        W78951   7.471   8.685  11.709
10547W        W78952  25.656   1.571  13.640
10548W        W78953   0.875  17.158  10.433
10549W        W78954   6.754  11.913  11.062
10550W        W78955  11.329  28.021   0.821
10551W        W78956  22.688  19.835  11.191
10552W        W78957  32.427  26.564  10.509
10553W        W78958  34.813  32.845   4.117
10554W        W78959  23.215   2.432   4.679
10555W        W78960  39.976   4.215   2.781
10556W        W78961  28.501  29.167   4.183
10557W        W78962  39.051  19.245   1.855
10558W        W78963  19.154  27.014  11.040
10559W        W78964  25.228   7.915  10.965
10560W        W78965   8.314  23.023   2.224
10561W        W78966  33.535  33.250   4.938
10562W        W78967  35.607  23.572  11.137
10563W        W78968  29.859  20.735   1.758
10564W        W78969  37.936   1.444   2.187
10565W        W78970   2.824  18.680  11.487
10566W        W78971  38.074   4.919  12.477
10567W        W78972  12.579  15.603   1.201
10568W        W78973  21.808  36.946   4.515
10569W        W78974  10.202  37.154  11.311
10570W        W78975  28.075  13.719  13.063
10571W        W78976  44.779  11.235   3.657
10572W        W78977  20.229  15.549  11.989
10573W        W78978  43.283  28.684  12.868
10574W        W78979  31.370  34.903  13.770
10575W        W78980  34.157  29.160   3.309
10576W        W78981  31.297  41.495  14.863
10577W        W78982  16.367  30.395  11.113
10578W        W78983  21.221  19.938   4.237
10579W        W78984  32.124  39.376  14.533
10580W        W78985   1.311   5.242   2.378
10581W        W78986  15.607  25.830  11.679
10582W        W78987  22.743  44.041   2.289
10583W        W78988   2.222  32.025   3.338
10584W        W78989  13.253   8.969  13.570
10585W        W78990  44.586  26.850  11.061
10586W        W78991   1.189  38.432  12.659
10587W        W78992   1.453   3.284   4.925
10588W        W78993   5.063  19.046   5.059
10589W        W78994  26.192  42.281  12.009
10590W        W78995  24.371  22.759   1.004
10591W        W78996  13.184  28.698   2.778
10592W        W78997  44.931  22.650   0.002
10593W        W78998   9.825   7.876   3.475
10594W        W78999  23.823  25.093   3.238
10595W        W79000  19.011  15.340   9.881
10596W        W79001   1.731  40.130  14.457
10597W        W79002  30.337  18.098   1.765
10598W        W79003  39.975  44.580   2.893
10599W        W79004  19.522   7.117   2.323
10600W        W79005   3.604  10.993   3.175
10601W        W79006  31.078  21.282  14.358
10602W        W79007   3.806  22.196  12.532
10603W        W79008  22.243   3.818   1.736
10604W        W79009  28.073  13.587   0.464
10605W        W79010  14.628   9.662  14.815
10606W        W79011  17.936  42.948   4.921
10607W        W79012  41.244  30.511   4.182
10608W        W79013  37.717   1.741   4.228
10609W        W79014   4.895  36.132  13.928
10610W        W79015  12.112  15.770  11.066
10611W        W79016  27.768  19.280  14.891
10612W        W79017  10.196  37.915  11.540
10613W        W79018  31.442   3.997   1.630
10614W        W79019  11.768   7.790   0.490
10615W        W79020  18.805  18.961  10.757
10616W        W79021  33.547  15.513   0.367
10617W        W79022  22.640  29.153   0.478
10618W        W79023   8.147  13.237   4.254
10619W        W79024  33.861  27.469  10.756
10620W        W79025  42.271  25.903  11.156
10621W        W79026  10.236   4.651  12.048
10622W        W79027  20.980  39.979  11.902
10623W        W79028  29.413  24.113   1.964
10624W        W79029  12.224  31.235   3.786
10625W        W79030  41.536  26.083  12.904
10626W        W79031   6.247  14.395  13.473
10627W        W79032  11.963   9.123   0.339
10628W        W79033  26.417   4.977   4.140
10629W        W79034  21.798  13.574  12.600
10630W        W79035  24.555  33.223  10.444
10631W        W79036  22.643  26.106  13.282
10632W        W79037  13.199  13.024   0.945
10633W        W79038  11.270  35.824  10.628
10634W        W79039   1.992  32.942   3.714
10635W        W79040  24.196  12.555  10.722
10636W        W79041  38.781  34.738   2.123
10637W        W79042  41.281  30.883  14.548
10638W        W79043  26.726  25.763  12.455
10639W        W79044  26.931   2.951  14.461
10640W        W79045  39.054  11.619  11.130
10641W        W79046  15.298  14.565  13.900
10642W        W79047  36.101  40.402   2.863
10643W        W79048  20.591  24.781  13.473
10644W        W79049  37.822  30.094  14.260
10645W        W79050  16.569  32.150  14.472
10646W        W79051  33.074  28.443   2.379
10647W        W79052  21.016  19.590   0.497
10648W        W79053  23.901  19.836  12.636
10649W        W79054  34.572   1.457  13.769
10650W        W79055   9.156   5.905  14.947
10651W        W79056  18.295  22.744  14.015
10652W        W79057  29.575  36.872  14.828
10653W        W79058  22.072  10.722  12.926
10654W        W79059  42.527   2.703   3.284
10655W        W79060  35.287   0.061  12.061
10656W        W79061  37.316  38.744   0.145
10657W        W79062  14.795  38.391   2.603
10658W        W79063  39.759  10.438   2.353
10659W        W79064  29.087  31.392  10.677
10660W        W79065  42.757  13.295  14.826
10661W        W79066  15.710  34.158  14.052
10662W        W79067  27.456   9.601  13.330
10663W        W79068  24.096  17.479   1.965
10664W        W79069  25.474  39.820   0.532
10665W        W79070  44.989  18.565   0.272
10666W        W79071  13.595   5.996  14.000
10667W        W79072  34.083  26.442   0.843
10668W        W79073  22.569  42.757   2.662
10669W        W79074  18.682  39.425  11.652
10670W        W79075  37.683  14.384  12.528
10671W        W79076  15.852  44.489   2.334
10672W        W79077  40.410  28.530   1.653
10673W        W79078   7.860  19.920  11.558
10674W        W79079  30.629  11.170   2.770
10675W        W79080  10.928   0.476  13.369
10676W        W79081  13.720  24.026   4.196
10677W        W79082  15.590  32.539   2.260
10678W        W79083  41.813   8.505  10.432
10679W        W79084  42.474   5.315   3.545
10680W        W79085  37.404   5.058   2.800
10681W        W79086  43.571  31.197   1.366
10682W        W79087  24.020   9.026  14.395
10683W        W79088  29.931   3.871   0.850
10684W        W79089  29.928   2.976   3.222
10685W        W79090   0.817  11.707   1.089
10686W        W79091  43.916  21.980   4.256
10687W        W79092   9.079  15.201   0.431
10688W        W79093  35.533  15.696   0.329
10689W        W79094   6.742  33.205   4.464
10690W        W79095  26.446   5.750  13.592
10691W        W79096  22.222  12.233  10.500
10692W        W79097   0.294  15.875  10.770
10693W        W79098  20.274  17.085   2.822
10694W        W79099  39.197  18.546  11.072
10695W        W79100  13.807   9.190   4.685
10696W        W79101  38.656  10.252  12.028
10697W        W79102  20.737  29.594  11.535
10698W        W79103  19.364  14.373  14.387
10699W        W79104  14.293  18.430   1.211
10700W        W79105  31.266  42.447  13.015
10701W        W79106  42.894  28.916  11.137
10702W        W79107   6.690  21.576  14.334
10703W        W79108   4.044  32.672  13.990
10704W        W79109   6.329  39.890  10.696
10705W        W79110  29.941   4.421  11.620
10706W        W79111  22.269  18.090  14.954
10707W        W79112  10.871  14.997  14.068
10708W        W79113  17.583   9.973   4.953
10709W        W79114  31.237   3.951   2.227
10710W        W79115  30.687   7.255   3.578
10711W        W79116  35.612  10.551   1.443
10712W        W79117  22.517  17.634  14.851
10713W        W79118  27.904   8.623   2.774
10714W        W79119  15.497  34.309   0.320
10715W        W79120  39.531  10.914   0.489
10716W        W79121  11.739  44.329  14.501
10717W        W79122   7.693   4.181   0.403
10718W        W79123  10.800   5.368   3.737
10719W        W79124   4.596  34.448   1.022
10720W        W79125  31.859  16.059   0.299
10721W        W79126  22.300  16.077  14.629
10722W        W79127   2.418  13.300  12.064
10723W        W79128  30.921  10.553  14.877
10724W        W79129  15.126   6.795   3.184
10725W        W79130  38.060   2.892  13.939
10726W        W79131  32.094   8.399  11.214
10727W        W79132   1.293  26.034   0.030
10728W        W79133  37.464  42.343  12.303
10729W        W79134  38.069  28.483   3.222
10730W        W79135  33.473  19.447  10.997
10731W        W79136  28.187  27.448   1.933
10732W        W79137  42.002   9.931  14.786
10733W        W79138  33.528   9.918  13.061
10734W        W79139   6.353  28.583   0.768
10735W        W79140  22.855  17.157  10.618
10736W        W79141   6.154  39.354  12.522
10737W        W79142  16.045   1.756   4.353
10738W        W79143  31.433   9.894  11.555
10739W        W79144  25.570  37.928   2.749
10740W        W79145  28.125  42.972  12.603
10741W        W79146  27.426  23.611   4.097
10742W        W79147   3.895   5.049  12.945
10743W        W79148  39.835  30.999  14.990
10744W        W79149  17.221  28.991  13.283
10745W        W79150  39.050  41.092  12.522
10746W        W79151   5.434  40.747   4.114
10747W        W79152  21.457   5.262   2.367
10748W        W79153   9.883  36.324  14.865
10749W        W79154  43.552  15.974   4.731
10750W        W79155  39.340  20.804  11.630
10751W        W79156   2.891  17.217  11.642
10752W        W79157  26.991  15.847  12.378
10753W        W79158  38.879  42.787   3.644
10754W        W79159  12.613  14.367  13.450
10755W        W79160  24.303  42.212   2.005
10756W        W79161  44.807  16.055  14.361
10757W        W79162  32.867  39.102  13.376
10758W        W79163  14.119  10.724   0.023
10759W        W79164  24.236  43.857  11.391
10760W        W79165  10.705   2.346   4.057
10761W        W79166  32.732  28.204   3.242
10762W        W79167   4.961   8.140  10.786
10763W        W79168  18.736  43.923  14.113
10764W        W79169  17.333  32.078   0.480
10765W        W79170  24.990  22.982   2.727
10766W        W79171  24.268   7.439  11.168
10767W        W79172  38.040   6.235  12.923
10768W        W79173  38.561   9.798   2.368
10769W        W79174  34.526  13.784  12.858
10770W        W79175  36.427  25.553   0.377
10771W        W79176  37.117  44.811   4.858
10772W        W79177  17.217  38.863  14.416
10773W        W79178  40.956  21.079   4.587
10774W        W79179  32.929  28.929   2.733
10775W        W79180  31.169  14.115   3.321
10776W        W79181  16.913   6.735   0.197
10777W        W79182   7.260   6.741  13.432
10778W        W79183  40.351  37.363   1.458
10779W        W79184  10.326  40.724   3.136
10780W        W79185  44.403  24.989  13.878
10781W        W79186  17.615  38.502   3.286
10782W        W79187  15.082  35.865  14.677
10783W        W79188  15.773  11.825  14.793
10784W        W79189   1.914   3.869  14.840
10785W        W79190   2.115  43.843   1.962
10786W        W79191  25.860  10.189  13.974
10787W        W79192   5.743  21.301  12.029
10788W        W79193  27.781  31.165  10.741
10789W        W79194  20.724  25.491  13.921
10790W        W79195  21.014  10.704   2.843
10791W        W79196  19.684  29.226   2.935
10792W        W79197   6.041  15.857   4.551
10793W        W79198   3.530  30.822   4.681
10794W        W79199  33.422  13.236  12.078
10795W        W79200  13.813  30.085  11.937
10796W        W79201   1.545  12.853  10.961
10797W        W79202  35.968  31.086   5.040
10798W        W79203  42.290  34.321  13.383
10799W        W79204  44.288  21.605   4.182
10800W        W79205  19.107   6.823   3.176
10801W        W79206  10.136  44.005  11.546
10802W        W79207  23.449  17.884   3.395
10803W        W79208  33.851  15.110   0.510
10804W        W79209   3.489   2.295  13.540
10805W        W79210   1.426  38.473   1.275
10806W        W79211   3.719  38.425   1.264
10807W        W79212  10.016  18.882  14.082
10808W        W79213  17.844  17.946   1.297
10809W        W79214  29.785  21.568  10.721
10810W        W79215  11.066   3.516  12.102
10811W        W79216   8.441  26.755  13.030
10812W        W79217  31.558  12.857   0.963
10813W        W79218  19.691  33.000  14.328
10814W        W79219   8.910  38.487  11.658
10815W        W79220   8.779  33.296   4.053
10816W        W79221  24.036   0.296  11.942
10817W        W79222   1.224  33.570   1.062
10818W        W79223  44.869   3.226  11.889
10819W        W79224   8.851  16.118   3.200
10820W        W79225   8.674   2.153   0.305
10821W        W79226  44.547  25.069  10.590
10822W        W79227  13.291  25.392   3.133
10823W        W79228  31.063   0.038   1.806
10824W        W79229  43.626  30.193  14.948
10825W        W79230  42.722  32.296   4.902
10826W        W79231  33.071  16.876   2.358
10827W        W79232  18.385  10.952   5.525
10828W        W79233  23.683  19.731  11.695
10829W        W79234  15.194   6.864  12.479
10830W        W79235  36.949   3.218  11.140
10831W        W79236   5.122  22.755   4.141
10832W        W79237  14.663  24.698  10.513
10833W        W79238   9.110  30.172   1.286
10834W        W79239  28.272  33.752   2.922
10835W        W79240  28.722   4.156   0.603
10836W        W79241  30.499  12.511  13.340
10837W        W79242  43.929  43.833  13.391
10838W        W79243  44.955  13.589  10.931
10839W        W79244  10.119  12.008   5.011
10840W        W79245  22.204  44.602  11.228
10841W        W79246   6.172  13.876  11.464
10842W        W79247  40.034  12.328  10.801
10843W        W79248  20.895  40.986   1.839
10844W        W79249  41.509  35.667   0.012
10845W        W79250   4.644  26.409   5.187
10846W        W79251  36.928  34.138  11.091
10847W        W79252  14.106   0.923   0.211
10848W        W79253  28.450  12.719   0.295
10849W        W79254   6.450   2.943   4.379
10850W        W79255  39.003  38.483   4.601
10851W        W79256   6.484  19.639  14.440
10852W        W79257   0.181  36.201  12.180
10853W        W79258  17.373  38.943   3.218
10854W        W79259  33.526   6.972  13.362
10855W        W79260   6.359   6.334   4.063
10856W        W79261   1.474  21.276  13.989
10857W        W79262  23.053  35.018  14.260
10858W        W79263  40.814  12.184  11.164
10859W        W79264  13.441   5.761   0.850
10860W        W79265  31.238  24.864  14.193
10861W        W79266  41.998  44.068   2.351
10862W        W79267   2.217  39.382  11.238
10863W        W79268   8.652   3.991  14.983
10864W        W79269   6.740  33.889   2.703
10865W        W79270  25.105  11.804  13.869
10866W        W79271  43.592  13.868  13.865
10867W        W79272  36.564  10.866   2.346
10868W        W79273  10.186  23.549   4.622
10869W        W79274  43.183   9.258  12.831
10870W        W79275  24.994  22.463   2.631
10871W        W79276  33.912  16.782   0.626
10872W        W79277  29.577  39.949   1.801
10873W        W79278  36.532  20.599  10.317
10874W        W79279  28.194   8.053  12.541
10875W        W79280  43.423   9.835   0.284
10876W        W79281  42.410  41.912   4.510
10877W        W79282   1.458  35.590  11.176
10878W        W79283  25.943  39.759  10.679
10879W        W79284  28.490   8.794   0.803
10880W        W79285   6.416  34.881  14.962
10881W        W79286  20.566  23.003  13.092
10882W        W79287  22.072  37.992   2.337
10883W        W79288  24.600  26.950  11.007
10884W        W79289   2.493   5.794  11.055
10885W        W79290   8.540  38.851   0.870
10886W        W79291  20.708  40.646   4.179
10887W        W79292  15.773  33.876   0.383
10888W        W79293  44.054   6.857  13.503
10889W        W79294   7.136  15.379   4.670
10890W        W79295  30.979  37.565  13.013
10891W        W79296  20.293   0.271  14.036
10892W        W79297  12.536  29.609   0.384
10893W        W79298  16.666  40.054  14.221
10894W        W79299   5.803  44.163   4.123
10895W        W79300   4.390  19.654   2.188
10896W        W79301  29.759  36.071  11.396
10897W        W79302  18.714  32.064   4.630
10898W        W79303  43.254  30.964   1.795
10899W        W79304  35.186   0.975   1.714
10900W        W79305  13.666  10.996  10.716
10901W        W79306  25.682  29.821   4.525
10902W        W79307  34.649   2.926  13.484
10903W        W79308  10.785  17.291  12.431
10904W        W79309  28.586  15.012  13.833
10905W        W79310  17.480  44.979  13.461
10906W        W79311  25.981   6.274   0.638
10907W        W79312   6.889  16.259  14.468
10908W        W79313   3.979   1.329  13.546
10909W        W79314  19.234  33.943   1.447
10910W        W79315  42.747   6.756  12.109
10911W        W79316  26.012  38.412   3.391
10912W        W79317  31.163  28.385   4.215
10913W        W79318  25.663  11.857  12.550
10914W        W79319  37.767   3.286   9.912
10915W        W79320  18.802  41.070   4.743
10916W        W79321   1.556  43.269  11.059
10917W        W79322  28.830  23.572  14.519
10918W        W79323  39.459  42.602  12.840
10919W        W79324  25.600  17.177  10.878
10920W        W79325  20.755  16.352   1.256
10921W        W79326  19.186  19.622  14.186
10922W        W79327  39.578  13.369   3.330
10923W        W79328   9.817  23.096  12.542
10924W        W79329  18.533  30.343  14.717
10925W        W79330  17.845  31.525  14.948
10926W        W79331  31.560  17.738  14.305
10927W        W79332  13.093  23.731  14.765
10928W        W79333   5.415   5.640  14.292
10929W        W79334  40.056  24.410  14.425
10930W        W79335   1.542  34.934  13.056
10931W        W79336  25.021  18.193   0.535
10932W        W79337  42.499   2.861   4.588
10933W        W79338   5.743  36.562   0.967
10934W        W79339  41.762   9.875   1.288
10935W        W79340  15.075   5.707   3.780
10936W        W79341  34.582  10.881  14.483
10937W        W79342   6.742  14.108  14.381
10938W        W79343  21.774  21.556   3.283
10939W        W79344   6.560  23.874   4.849
10940W        W79345  31.559  34.500   3.639
10941W        W79346  24.635   6.670   3.334
10942W        W79347   4.811  22.833   2.372
10943W        W79348  33.819  14.552  12.981
10944W        W79349  27.375  42.722   2.485
10945W        W79350   3.664  26.072   0.974
10946W        W79351  38.519  17.551   4.637
10947W        W79352  33.101  11.363   2.719
10948W        W79353  37.890  21.758   0.977
10949W        W79354  29.734   0.436   2.407
10950W        W79355  26.569  38.583   4.612
10951W        W79356  31.563  14.107  12.054
10952W        W79357   2.928  38.487   0.767
10953W        W79358   2.544  32.825  12.947
10954W        W79359  42.288   3.647  13.259
10955W        W79360  40.908  37.207  11.076
10956W        W79361  23.732  19.100   2.619
10957W        W79362  35.023  23.555   0.487
10958W        W79363  35.181  11.675  13.910
10959W        W79364   5.088  11.821   5.000
10960W        W79365  14.184  36.073   1.157
10961W        W79366  29.962  23.110  13.778
10962W        W79367  35.551   5.226  10.995
10963W        W79368  40.879  35.771  12.451
10964W        W79369   5.971   7.794  14.493
10965W        W79370   1.920  34.845   0.780
10966W        W79371  34.838  23.180   4.865
10967W        W79372  22.042   9.341  11.609
10968W        W79373   6.736  14.000  13.285
10969W        W79374  41.897  37.158  10.579
10970W        W79375  23.300  30.483   4.079
10971W        W79376  23.870  33.602   3.598
10972W        W79377  31.256  30.851   0.373
10973W        W79378  30.980  16.769  11.051
10974W        W79379  36.072   8.614  11.477
10975W        W79380  40.052  30.559   2.835
10976W        W79381  28.971  15.882  14.415
10977W        W79382  14.597  24.507  11.403
10978W        W79383  33.104  13.995  14.374
10979W        W79384  12.775  16.595   3.235
10980W        W79385   0.708  34.466   3.730
10981W        W79386   0.940  25.204  12.101
10982W        W79387  34.818  31.274   0.660
10983W        W79388  30.667  41.407   4.890
10984W        W79389  32.628  44.379  14.815
10985W        W79390  41.370  40.783   0.044
10986W        W79391  42.176  38.992  13.359
10987W        W79392  27.387  25.389   2.645
10988W        W79393  39.977  41.732  11.590
10989W        W79394  27.066  31.039  14.832
10990W        W79395  13.993  11.417  12.362
10991W        W79396  32.072  24.117   0.591
10992W        W79397   5.196  14.787   4.726
10993W        W79398  37.072  35.750  14.094
10994W        W79399  37.105  23.075   1.084
10995W        W79400  18.604  34.528   4.364
10996W        W79401  41.420  42.035  11.183
10997W        W79402  28.219  44.671  12.343
10998W        W79403  22.241  38.888   4.055
10999W        W79404  27.144  14.250   4.140
11000W        W79405  20.019  41.054  12.114
11001W        W79406  37.044  15.888  13.897
11002W        W79407  25.462  41.054   3.688
11003W        W79408  17.485  10.273   1.662
11004W        W79409   2.130  42.948   2.421
11005W        W79410  36.080  33.136  12.911
11006W        W79411  14.231  27.001  10.633
11007W        W79412  37.795  34.381   4.753
11008W        W79413  29.741  28.946   3.262
11009W        W79414  10.813  44.893  12.125
11010W        W79415   0.082  29.202   1.340
11011W        W79416  13.835  31.439   1.190
11012W        W79417   1.008  15.703  12.626
11013W        W79418  28.213   6.515   2.809
11014W        W79419   9.634   1.265  10.669
11015W        W79420  26.913  32.849  14.513
11016W        W79421   0.763  33.801   1.121
11017W        W79422  40.107  26.637  13.553
11018W        W79423   7.343   5.585  12.466
11019W        W79424  31.547  21.681   1.829
11020W        W79425   1.950  33.448   1.766
11021W        W79426  30.870  24.446  13.367
11022W        W79427  39.416  16.312   3.822
11023W        W79428  42.924   1.473   4.575
11024W        W79429  37.921   8.701   1.961
11025W        W79430   6.184  24.101   2.781
11026W        W79431  31.502   6.903   0.298
11027W        W79432  13.551  22.565   3.922
11028W        W79433   4.868  22.143  14.523
11029W        W79434  44.863   2.537   2.242
11030W        W79435   4.417   9.883   3.155
11031W        W79436  15.703  33.093   0.922
11032W        W79437   3.311   4.294  14.968
11033W        W79438  39.614   8.144   1.230
11034W        W79439  25.494  24.825   1.423
11035W        W79440  12.366  29.397  13.614
11036W        W79441   8.168  12.747  13.650
11037W        W79442  26.009  11.648   2.340
11038W        W79443   6.199   0.921  11.913
11039W        W79444  31.412  11.445   1.356
11040W        W79445  14.568  28.745   4.192
11041W        W79446   1.225  20.828   0.052
11042W        W79447  19.765  17.359  13.099
11043W        W79448  27.053  25.700   0.151
11044W        W79449  26.595  36.929  12.398
11045W        W79450  27.958  31.337  11.852
11046W        W79451   6.874  13.206  13.856
11047W        W79452  21.481  19.378  12.665
11048W        W79453   2.698  24.551   4.192
11049W        W79454   2.233  26.602  13.376
11050W        W79455   7.306   2.767   3.796
11051W        W79456  31.587  10.847   0.693
11052W        W79457  32.882  36.834   1.181
11053W        W79458   0.527   5.367   1.434
11054W        W79459  11.116  27.536  13.066
11055W        W79460  31.561  13.763  10.826
11056W        W79461  24.998  21.535  12.926
11057W        W79462  21.225  43.792  13.539
11058W        W79463  43.567   8.885   2.993
11059W        W79464  33.337  24.880  11.224
11060W        W79465  32.611  40.215  13.157
11061W        W79466  10.903   9.339  10.748
11062W        W79467  35.852  18.618   3.125
11063W        W79468  32.476  13.826   0.779
11064W        W79469   6.200  31.534  13.332
11065W        W79470  27.144   0.406   2.446
11066W        W79471  42.004  21.244   3.271
11067W        W79472  34.019  30.935  12.564
11068W        W79473  16.621   8.917  14.216
11069W        W79474  44.069  30.704   3.146
11070W        W79475  30.399  27.766   1.947
11071W        W79476   8.728   0.473   4.711
11072W        W79477  21.156  42.032   1.241
11073W        W79478   7.876  17.197  13.225
11074W        W79479  10.211  33.554   3.650
11075W        W79480  29.955  26.541  11.926
11076W        W79481   3.064  10.315   4.257
11077W        W79482   3.465  26.993  12.495
11078W        W79483  17.140  35.038   4.761
11079W        W79484   7.382  32.051   2.626
11080W        W79485  44.815  38.386  11.998
11081W        W79486  20.117  31.236  12.037
11082W        W79487   7.262  14.596  14.749
11083W        W79488  31.545  43.895  11.647
11084W        W79489  21.716  25.953   4.987
11085W        W79490  42.102   5.895   1.204
11086W        W79491  15.678  27.193  12.486
11087W        W79492  31.678   8.348  13.478
11088W        W79493  36.919  28.684  12.774
11089W        W79494  27.368  44.852   1.878
11090W        W79495  27.431   7.793   4.208
11091W        W79496   1.496  38.807   4.528
11092W        W79497   7.513  32.424   5.117
11093W        W79498   3.934  38.549   3.508
11094W        W79499  26.490  29.568  12.495
11095W        W79500   2.841  11.661  12.937
11096W        W79501  28.955   2.961   0.420
11097W        W79502  10.688  26.976   1.217
11098W        W79503  42.212  34.141   3.209
11099W        W79504  11.785  28.669  11.601
11100W        W79505  16.111   3.654   4.214
11101W        W79506  13.317  27.313  12.681
11102W        W79507  12.799   3.398  10.112
11103W        W79508   5.848  18.698  13.775
11104W        W79509  24.685  41.924  12.169
11105W        W79510  36.641  43.503   0.396
11106W        W79511   3.331  30.986   3.676
11107W        W79512   4.328  24.007   1.496
11108W        W79513  31.606  15.264   1.736
11109W        W79514  20.135   9.934  13.460
11110W        W79515   7.960  25.567  13.190
11111W        W79516  11.350   4.342   1.767
11112W        W79517  24.509   0.436  10.741
11113W        W79518   7.733  27.931  14.305
11114W        W79519  32.452  33.403  14.003
11115W        W79520  42.844  30.641   0.371
11116W        W79521   0.203  16.771   4.461
11117W        W79522  15.065  14.091  13.958
11118W        W79523  24.006  39.478   4.798
11119W        W79524  19.471  36.801   3.913
11120W        W79525   4.176  15.051  11.978
11121W        W79526  43.650  33.455   4.137
11122W        W79527   6.069  21.242  14.860
11123W        W79528   6.820  17.132   1.926
11124W        W79529  12.052   9.983  14.331
11125W        W79530  26.634  42.553   1.665
11126W        W79531  11.108   1.371   4.162
11127W        W79532  43.456   9.825   1.683
11128W        W79533   1.920  42.482  14.074
11129W        W79534  25.081  20.091   0.715
11130W        W79535   8.150  34.354   1.656
11131W        W79536  41.792  42.534  11.660
11132W        W79537  26.739  17.838   1.465
11133W        W79538   8.940  43.516   0.864
11134W        W79539  22.757   0.408  11.224
11135W        W79540  31.658  40.453   1.377
11136W        W79541   1.154   4.299  12.900
11137W        W79542  14.416   2.234  10.545
11138W        W79543   2.164  22.626   0.661
11139W        W79544  13.999  19.806  14.059
11140W        W79545  40.960   3.113   9.859
11141W        W79546  24.956   1.896  14.472
11142W        W79547  24.711  32.450   3.330
11143W        W79548  38.364  36.291  12.920
11144W        W79549  30.682  10.406   9.878
11145W        W79550  16.844  41.355   3.584
11146W        W79551  36.457  31.480   0.303
11147W        W79552  23.490  37.483   4.592
11148W        W79553  29.914  35.962   4.333
11149W        W79554  21.908  23.125   1.811
11150W        W79555  25.496  36.355  11.576
11151W        W79556  18.952  32.639   0.302
11152W        W79557   6.850  35.462  11.098
11153W        W79558  28.300  13.050  14.045
11154W        W79559   1.937   8.889   4.518
11155W        W79560   2.908   5.145  12.650
11156W        W79561  27.068   5.457  12.377
11157W        W79562  40.336   6.662   4.656
11158W        W79563  13.087  42.920  13.474
11159W        W79564  11.707   0.153  13.826
11160W        W79565  40.366   0.258  13.785
11161W        W79566  22.763   2.212  11.876
11162W        W79567  44.705  18.619   1.723
11163W        W79568  13.209  43.878  11.539
11164W        W79569   8.153  25.787   3.388
11165W        W79570  41.662  20.427   1.791
11166W        W79571  20.460  36.222   1.264
11167W        W79572  33.869   5.238  10.407
11168W        W79573  34.923  38.784   0.622
11169W        W79574  27.126  27.754   2.305
11170W        W79575  30.907  12.701  11.160
11171W        W79576   2.267  43.875   2.469
11172W        W79577   5.777  25.625  14.459
11173W        W79578  22.196  17.745  14.454
11174W        W79579  18.650  44.966   4.563
11175W        W79580  18.114  23.997   0.805
11176W        W79581   9.589  16.107  14.521
11177W        W79582  30.691  36.800   4.122
11178W        W79583  39.387  38.344   1.117
11179W        W79584  28.966  36.894   3.504
11180W        W79585  22.365  16.095   4.787
11181W        W79586  14.644  13.078   3.706
11182W        W79587  34.952  43.051  11.059
11183W        W79588  23.746  34.950   2.269
11184W        W79589  35.118  30.125  12.474
11185W        W79590  18.201  18.711  12.425
11186W        W79591   2.800   3.891   0.162
11187W        W79592  35.958  21.806   1.838
11188W        W79593  26.560  29.081   1.456
11189W        W79594  31.491  17.562  12.961
11190W        W79595  30.230   3.797   0.422
11191W        W79596  27.242  33.058   3.800
11192W        W79597  43.529   7.134   1.404
11193W        W79598  32.908   2.478  11.431
11194W        W79599  36.562  42.893   0.835
11195W        W79600  30.490   9.196   1.345
11196W        W79601  19.262   5.174  12.549
11197W        W79602  36.392  11.138  11.208
11198W        W79603   0.414  12.324  10.672
11199W        W79604  21.577  37.126  12.359
11200W        W79605   9.988   8.618  12.526
11201W        W79606  30.633  29.341   2.823
11202W        W79607  13.508   2.168  12.362
11203W        W79608   8.218  19.097  14.927
11204W        W79609  31.892  29.154  13.896
11205W        W79610  36.872  19.783   1.243
11206W        W79611  17.506  29.698   2.181
11207W        W79612  39.348  12.885  12.035
11208W        W79613  44.880  22.783   1.026
11209W        W79614  24.205  18.408  13.489
11210W        W79615  13.679  27.196  12.216
11211W        W79616  25.055  16.064   0.891
11212W        W79617  36.623  12.378   1.294
11213W        W79618  41.553  42.027  10.702
11214W        W79619  37.077  36.395   4.100
11215W        W79620   8.771  27.885   5.399
11216W        W79621  22.571  19.362  13.736
11217W        W79622  17.855  31.913  11.767
11218W        W79623  41.772  13.078  10.968
11219W        W79624  37.025   5.087   3.599
11220W        W79625  32.910  15.460   2.772
11221W        W79626  34.429  31.568   0.885
11222W        W79627  16.703  17.940   0.487
11223W        W79628  11.285  24.572   3.065
11224W        W79629   0.898  34.819   0.919
11225W        W79630   1.484  23.912  14.316
11226W        W79631  22.293  31.493  12.485
11227W        W79632  29.455  18.402  12.040
11228W        W79633  27.941   7.092  14.688
11229W        W79634  14.866  20.193  14.709
11230W        W79635  18.315  16.719  14.652
11231W        W79636   8.451  44.485   0.854
11232W        W79637  18.599  31.143  10.994
11233W        W79638  36.826  13.598   0.937
11234W        W79639  21.511   3.297   3.566
11235W        W79640  34.620  27.249   1.630
11236W        W79641  22.314   8.137  11.560
11237W        W79642  25.158  22.622   1.664
11238W        W79643  40.827  34.544  14.816
11239W        W79644  19.311   9.815   4.103
11240W        W79645  23.035   5.538   3.354
11241W        W79646  26.436   7.134  14.958
11242W        W79647  26.736  32.863  10.436
11243W        W79648   8.885  12.825  11.554
11244W        W79649  15.718   5.262  11.873
11245W        W79650   8.026  37.498   3.605
11246W        W79651   6.445   8.799  11.676
11247W        W79652  30.029  25.075   1.119
11248W        W79653  37.884   8.747   0.801
11249W        W79654  36.111  24.105  14.912
11250W        W79655   4.393  26.577   0.397
11251W        W79656  20.971   9.882   2.753
11252W        W79657   6.659   6.246  12.951
11253W        W79658  30.365  29.141  12.650
11254W        W79659  40.446   9.354  11.758
11255W        W79660  41.150  41.466   1.736
11256W        W79661  23.169  44.346   2.314
11257W        W79662  33.957  30.619   3.499
11258W        W79663  15.479  29.007   5.094
11259W        W79664  35.585  29.894  14.439
11260W        W79665  36.118  13.846  11.979
11261W        W79666  19.188  42.525  11.078
11262W        W79667  23.792   3.796   0.943
11263W        W79668  39.855   9.148  10.753
11264W        W79669   5.683  41.182  12.608
11265W        W79670  43.025  23.122  12.076
11266W        W79671  12.303  11.347   4.124
11267W        W79672  33.408  24.549  14.833
11268W        W79673  39.298  31.049   2.797
11269W        W79674  39.915  20.536  11.137
11270W        W79675  16.369  36.442   1.037
11271W        W79676   9.586  38.816  13.923
11272W        W79677  40.013  21.708  13.891
11273W        W79678   0.786  32.605  14.149
11274W        W79679   2.890  28.688  14.759
11275W        W79680  43.991  11.316  11.596
11276W        W79681  33.155  33.869  10.688
11277W        W79682  18.350  41.023   4.192
11278W        W79683   0.260  23.076  12.005
11279W        W79684  18.090   6.731  10.567
11280W        W79685  16.169  14.935   4.596
11281W        W79686  25.255  42.373  14.721
11282W        W79687  34.945   0.956  10.781
11283W        W79688  17.715   8.470  11.940
11284W        W79689  33.984  26.604  11.010
11285W        W79690  21.872  35.755   5.113
11286W        W79691  10.163  13.782   1.262
11287W        W79692   7.793  13.846  10.722
11288W        W79693  11.505  19.350  13.875
11289W        W79694  29.192  18.035   0.538
11290W        W79695  18.890  40.582  13.731
11291W        W79696   0.392  39.892   4.475
11292W        W79697  41.284  29.521   4.242
11293W        W79698  29.438  17.875  12.031
11294W        W79699  13.672   0.348   1.825
11295W        W79700  15.655  22.621  10.516
11296W        W79701  16.087  13.453   1.504
11297W        W79702  21.493  35.348  11.637
11298W        W79703  12.643  31.922  14.734
11299W        W79704  22.120  40.870   3.979
11300W        W79705   4.131  10.178   1.356
11301W        W79706  18.852  32.678  12.089
11302W        W79707  20.150  19.227   2.506
11303W        W79708  30.708  16.260   3.643
11304W        W79709  40.983  16.073   2.568
11305W        W79710   4.000  42.245  14.003
11306W        W79711  24.982  40.720  13.978
11307W        W79712  29.143  33.669   0.198
11308W        W79713  31.091  44.221   2.743
11309W        W79714  11.377  28.745  13.797
11310W        W79715   3.657   9.878  10.915
11311W        W79716  29.191  27.131   1.143
11312W        W79717  34.992  27.631  10.970
11313W        W79718  23.190   4.388   4.633
11314W        W79719   7.684   6.351   0.194
11315W        W79720  19.061  32.462  11.180
11316W        W79721  11.180  42.032   4.669
11317W        W79722   8.500  15.895  11.268
11318W        W79723  37.786  25.635   2.261
11319W        W79724  31.063  16.549  13.107
11320W        W79725  22.431   5.879   3.584
11321W        W79726  34.295  10.645  12.280
11322W        W79727   0.597  30.399  12.911
11323W        W79728  14.737  13.348   2.202
11324W        W79729  39.672  37.289  11.941
11325W        W79730  27.559  21.018  11.158
11326W        W79731  12.204  23.184  11.953
11327W        W79732   2.711  44.152  14.045
11328W        W79733   8.246  12.752  13.135
11329W        W79734  44.159  40.537  12.499
11330W        W79735  43.341  32.937   2.437
11331W        W79736  44.791   3.775  10.564
11332W        W79737   8.150  21.216   2.817
11333W        W79738  23.726   4.358  14.017
11334W        W79739  18.042   4.927  13.995
11335W        W79740   8.423  41.099   4.116
11336W        W79741  34.143  38.708   0.100
11337W        W79742  42.771  36.288   0.895
11338W        W79743  12.374   9.558   3.711
11339W        W79744  34.962  20.664   4.171
11340W        W79745  24.668   5.755  14.279
11341W        W79746  21.450  31.304   0.955
11342W        W79747  16.102  26.586   2.878
11343W        W79748   3.174  13.836  11.208
11344W        W79749  10.784  37.046   3.323
11345W        W79750   1.084   5.385   1.357
11346W        W79751  37.531   6.203  13.810
11347W        W79752   3.515  38.824   4.684
11348W        W79753  42.808  28.278   0.939
11349W        W79754   9.346   0.513  11.497
11350W        W79755  40.096  13.043  12.528
11351W        W79756  20.247   3.266   4.113
11352W        W79757  27.438  35.858   3.484
11353W        W79758  12.170  27.852   3.959
11354W        W79759  14.965  31.848   1.955
11355W        W79760  22.727  21.089  11.912
11356W        W79761   9.472  37.921   3.789
11357W        W79762  11.750  36.582   0.231
11358W        W79763  32.166  29.051  10.614
11359W        W79764  44.470  41.989  14.810
11360W        W79765  11.684  16.784  11.438
11361W        W79766  27.129   2.550   2.217
11362W        W79767  44.832  40.381   3.751
11363W        W79768  14.134  15.709  14.827
11364W        W79769  20.180  38.610   2.260
11365W        W79770  36.362  24.811   1.698
11366W        W79771  24.400  19.649  12.580
11367W        W79772  12.646   0.489   1.809
11368W        W79773   9.247  24.583   1.330
11369W        W79774  21.285  43.971   4.172
11370W        W79775   2.969   3.044  12.046
11371W        W79776   9.241  10.371   4.925
11372W        W79777  42.436  24.349   4.638
11373W        W79778   9.683  39.713  14.887
11374W        W79779  27.073  41.511  14.657
11375W        W79780  21.592  19.268   4.725
11376W        W79781   4.311  29.618   0.296
11377W        W79782   2.363  44.345   0.791
11378W        W79783  11.132  39.476  13.136
11379W        W79784  10.244  38.444  10.656
11380W        W79785  35.888  44.296  14.462
11381W        W79786  28.004  24.298  14.946
11382W        W79787  35.108   1.128   4.947
11383W        W79788  36.953   8.644  14.280
11384W        W79789  34.584  33.975   0.950
11385W        W79790   8.846  21.645   0.820
11386W        W79791  13.060  29.092   1.877
11387W        W79792  36.438   0.801  10.546
11388W        W79793  40.797  43.812   1.242
11389W        W79794  24.084  25.067  11.205
11390W        W79795   4.199  40.967  14.469
11391W        W79796  31.599  14.625  14.837
11392W        W79797  24.639  20.314   2.563
11393W        W79798  39.158  31.014   2.233
11394W        W79799  21.615   4.876   3.685
11395W        W79800  19.103  31.510  13.912
11396W        W79801  35.570  24.563  12.939
11397W        W79802  24.069   7.849   3.121
11398W        W79803  37.830   7.956   3.583
11399W        W79804   7.226  21.142   4.159
11400W        W79805   5.903  23.507  14.731
11401W        W79806  18.212  23.234   4.331
11402W        W79807  29.153  33.093   3.682
11403W        W79808  37.725  11.887   2.738
11404W        W79809  40.471  13.083   4.884
11405W        W79810  44.987  40.219  14.896
11406W        W79811   1.962  30.839  10.337
11407W        W79812  28.024  15.202   0.574
11408W        W79813  20.108  16.872   0.400
11409W        W79814   0.689  30.091   2.845
11410W        W79815  21.028  16.141   3.572
11411W        W79816  10.718  43.353  10.741
11412W        W79817  29.458  42.122  11.903
11413W        W79818  11.861  41.747   0.246
11414W        W79819  42.191   5.096   5.129
11415W        W79820   6.704  25.049  12.593
11416W        W79821  17.500  20.786   2.416
11417W        W79822  20.200   5.616   3.188
11418W        W79823  12.751  35.464   4.554
11419W        W79824  39.341  40.872   1.919
11420W        W79825  24.213  41.459  13.890
11421W        W79826   4.394  16.172  11.950
11422W        W79827  16.649  34.528   4.541
11423W        W79828  23.224  38.082   4.159
11424W        W79829  16.413  37.404   5.026
11425W        W79830  22.469   2.532   2.779
11426W        W79831  42.445  34.024  14.870
11427W        W79832  23.050  32.597   3.600
11428W        W79833   5.730  33.451   4.742
11429W        W79834  37.184  38.259   1.708
11430W        W79835  43.973  10.862   2.741
11431W        W79836  13.008  28.166  12.716
11432W        W79837  30.088  44.666  14.326
11433W        W79838  22.585   5.479  13.500
11434W        W79839  38.476  21.667  10.864
11435W        W79840   7.674  23.982   4.058
11436W        W79841  41.316  22.626   0.848
11437W        W79842   1.858  35.012   4.155
11438W        W79843  28.977  28.033  14.758
11439W        W79844   7.224   2.504   0.490
11440W        W79845   3.203  26.982  13.916
11441W        W79846  33.074  12.723  14.932
11442W        W79847   3.565  36.841   2.394
11443W        W79848  30.847  28.181   5.222
11444W        W79849  34.777  27.398  13.909
11445W        W79850  32.713  27.114  11.214
11446W        W79851  30.233   4.191   2.164
11447W        W79852  21.253  15.309  10.912
11448W        W79853   6.924  42.464  12.372
11449W        W79854  18.097  37.568  13.352
11450W        W79855  18.666  43.012  14.100
11451W        W79856   0.960  27.129   4.048
11452W        W79857   1.360  38.427   0.743
11453W        W79858  41.544  12.525   0.848
11454W        W79859   1.087  12.766  10.701
11455W        W79860  35.985  21.612  12.190
11456W        W79861   0.048   0.824   2.377
11457W        W79862  30.828  17.834  11.887
11458W        W79863  16.203  33.396  11.901
11459W        W79864  22.955  15.152   3.671
11460W        W79865  29.190  25.946  14.049
11461W        W79866  33.865   9.913   4.141
11462W        W79867   1.786  40.344  13.107
11463W        W79868  25.541  15.046   0.489
11464W        W79869  20.351   7.054   9.913
11465W        W79870  27.009  22.307   1.677
11466W        W79871  13.737  39.687  14.266
11467W        W79872  10.282   1.799  14.279
11468W        W79873  22.440  19.313   3.303
11469W        W79874  23.163  26.852  13.529
11470W        W79875  13.262  23.548  12.980
11471W        W79876  28.414  31.870   4.131
11472W        W79877  26.061  29.208   1.771
11473W        W79878  42.073  16.718  13.216
11474W        W79879  19.487  12.776   2.260
11475W        W79880  35.508  19.465   3.394
11476W        W79881  43.633  15.776  14.659
11477W        W79882   1.134  36.341  12.130
11478W        W79883  42.582  17.092   0.701
11479W        W79884  40.032  21.668   1.321
11480W        W79885  14.669  20.980   0.063
11481W        W79886  23.171   8.292   1.968
11482W        W79887  41.429  33.090  11.127
11483W        W79888  30.795  19.303   1.871
11484W        W79889  24.730  24.720  14.253
11485W        W79890  23.107   8.618   0.063
11486W        W79891  16.559  27.912   2.986
11487W        W79892  44.840  17.574   3.798
11488W        W79893  15.638   3.918   3.979
11489W        W79894  41.837  11.916  12.958
11490W        W79895  10.683  34.881   1.274
11491W        W79896  12.782  44.423   0.920
11492W        W79897  26.993   6.972   2.318
11493W        W79898  39.410  29.299   2.656
11494W        W79899  27.404  12.654  13.128
11495W        W79900  38.360  11.041  12.355
11496W        W79901  11.806  31.987   3.648
11497W        W79902  14.608   6.721  13.569
11498W        W79903  20.731  25.617   2.726
11499W        W79904  15.093  22.491   1.814
11500W        W79905  16.732  14.994   0.946
11501W        W79906  27.142  36.564   0.331
11502W        W79907  41.348   4.809  10.625
11503W        W79908  17.875  16.151   3.198
11504W        W79909  32.407  34.049   2.832
11505W        W79910  22.481  17.234  14.522
11506W        W79911   5.676  30.886  11.585
11507W        W79912  30.651  10.128  11.160
11508W        W79913  23.415   7.318   4.966
11509W        W79914  28.426  21.763  14.835
11510W        W79915   8.383  40.615   4.291
11511W        W79916  19.791  28.605   2.361
11512W        W79917  38.255  11.905   2.735
11513W        W79918  37.632  35.675  13.385
11514W        W79919  39.081   7.086  12.698
11515W        W79920  37.026  30.170  11.057
11516W        W79921  35.941  12.779   2.409
11517W        W79922   4.799   4.624   4.165
11518W        W79923  11.186  29.880   2.732
11519W        W79924  33.036  38.914   3.350
11520W        W79925  34.873  27.062   2.618
11521W        W79926  42.139   9.433  12.276
11522W        W79927   9.336   2.470  11.177
11523W        W79928  32.174  21.009  13.303
11524W        W79929  23.429  19.238   1.750
11525W        W79930   8.954  13.838   4.161
11526W        W79931  12.850   8.226  11.175
11527W        W79932  19.191  30.715   5.154
11528W        W79933  24.261  26.898  11.407
11529W        W79934   2.684   8.736  14.553
11530W        W79935  29.251  35.502   2.002
11531W        W79936  31.632   9.876  12.468
11532W        W79937   8.329  25.250  11.534
11533W        W79938   1.366  31.015  12.116
11534W        W79939  35.950   8.912  11.092
11535W        W79940  43.451  20.134  12.118
11536W        W79941  15.326  17.622  14.858
11537W        W79942  43.890   3.565   4.728
11538W        W79943  22.737  38.777  11.680
11539W        W79944   2.857   6.759  13.146
11540W        W79945  28.742  23.791  13.495
11541W        W79946   6.895   4.862  12.379
11542W        W79947  31.069  23.546   2.020
11543W        W79948   3.494  10.669  11.400
11544W        W79949  42.176  29.447   4.604
11545W        W79950  16.850  27.015   2.739
11546W        W79951  32.597  33.331   4.456
11547W        W79952  27.043  16.850   4.338
11548W        W79953  33.170  32.521   2.232
11549W        W79954  24.870   7.086  12.086
11550W        W79955   6.866  34.636  12.120
11551W        W79956   9.009  32.674  12.883
11552W        W79957  18.616  22.652  13.565
11553W        W79958   5.263  33.561   4.535
11554W        W79959  32.408  30.098   0.946
11555W        W79960  32.105   7.638   4.205
11556W        W79961  40.644  10.580   3.602
11557W        W79962  10.831  34.391  13.063
11558W        W79963  18.238  24.326   5.385
11559W        W79964  10.619  37.801   2.789
11560W        W79965  32.436  16.996  10.706
11561W        W79966   4.641  11.832   2.338
11562W        W79967  23.756   7.092   0.750
11563W        W79968  34.826   3.692   1.029
11564W        W79969  44.343  44.972  13.071
11565W        W79970  17.692   6.421   0.922
11566W        W79971  21.038  11.422  12.398
11567W        W79972  17.729  29.439   4.836
11568W        W79973  42.248  22.813   3.196
11569W        W79974   3.262   5.678  14.098
11570W        W79975  29.186   5.633  14.385
11571W        W79976  37.899  33.760   1.814
11572W        W79977  23.612  19.846  12.203
11573W        W79978   0.890  41.251   5.175
11574W        W79979  10.710  19.417   0.824
11575W        W79980  22.782  10.813  13.538
11576W        W79981  39.350  30.568  10.705
11577W        W79982  25.247  34.013   3.843
11578W        W79983  24.276   7.115   1.614
11579W        W79984  37.099  14.210   1.304
11580W        W79985   5.890  23.906   1.397
11581W        W79986  21.129  43.404   2.370
11582W        W79987   1.250  10.659   4.094
11583W        W79988   9.164  37.840   4.177
11584W        W79989  34.993  43.008   2.167
11585W        W79990  28.981  43.327  11.167
11586W        W79991  22.647   7.907   1.489
11587W        W79992  32.665   9.373   3.270
11588W        W79993  14.580  32.881   2.791
11589W        W79994  14.086  14.855  10.658
11590W        W79995   7.636   2.277  10.670
11591W        W79996  40.873  25.215   2.392
11592W        W79997  41.703  14.357   4.908
11593W        W79998  20.720   5.892   4.032
11594W        W79999  12.062  37.915  12.955
11595W        W80000  23.474  44.954   0.757
11596W        W80001  10.060  41.781  13.352
11597W        W80002   0.233  37.421   3.718
11598W        W80003   6.922   6.364   0.825
11599W        W80004  19.551  22.150   1.685
11600W        W80005  29.841  15.724   2.686
11601W        W80006   5.820  34.079   4.113
11602W        W80007  28.649  10.650  11.494
11603W        W80008  13.490  21.604   1.790
11604W        W80009  24.633  26.681   1.419
11605W        W80010  15.307  39.004  14.000
11606W        W80011  13.044  33.451  13.024
11607W        W80012  12.154   2.327  14.550
11608W        W80013   3.997   1.826  12.886
11609W        W80014  10.597  23.543   3.188
11610W        W80015  26.906  21.693  11.133
11611W        W80016  17.573  11.385  13.484
11612W        W80017  27.991   5.903  10.641
11613W        W80018  44.500   6.184   1.315
11614W        W80019  20.135  26.534   3.820
11615W        W80020  11.929  19.021   4.776
11616W        W80021  32.711   7.917  12.802
11617W        W80022  11.883   1.263  12.167
11618W        W80023  27.885  26.500   3.371
11619W        W80024  23.240  27.681   0.901
11620W        W80025  22.571  11.672   4.526
11621W        W80026  22.030  12.326  12.840
11622W        W80027  21.360  22.188  10.749
11623W        W80028  44.774  30.582  12.492
11624W        W80029  10.238   6.842  12.964
11625W        W80030  27.896  23.459  11.601
11626W        W80031  10.203  27.175   0.775
11627W        W80032  31.780  10.420   4.507
11628W        W80033  14.738  12.066   3.647
11629W        W80034  17.735   6.903  12.418
11630W        W80035  39.966   7.493   0.365
11631W        W80036   3.888   7.571  11.498
11632W        W80037  20.634  40.309   1.271
11633W        W80038  22.507  15.747   1.847
11634W        W80039  30.420  39.571  11.185
11635W        W80040  21.794   8.411   2.907
11636W        W80041  44.348  36.446  12.232
11637W        W80042   7.750  28.517  10.177
11638W        W80043   4.775  22.508   2.900
11639W        W80044  40.459  18.269   4.250
11640W        W80045  31.250   6.248   0.693
11641W        W80046   1.171  28.400   2.757
11642W        W80047   6.159  20.555  12.847
11643W        W80048   4.192  39.060  13.063
11644W        W80049  13.151  19.277   2.646
11645W        W80050  35.400  42.568   3.877
11646W        W80051  22.156  14.294   2.380
11647W        W80052  33.637  15.899  13.306
11648W        W80053  18.617  20.583   0.025
11649W        W80054  12.773   2.525   0.451
11650W        W80055  35.661  37.813   2.247
11651W        W80056  13.815   2.902  13.867
11652W        W80057   3.990   4.251   3.741
11653W        W80058   4.830  36.833   0.885
11654W        W80059  28.680  18.333   5.108
11655W        W80060  25.451   0.314  10.769
11656W        W80061  19.180  42.526  11.574
11657W        W80062  36.919  22.249  13.919
11658W        W80063  25.453  16.133  14.818
11659W        W80064  36.274  26.119   2.968
11660W        W80065  22.471  35.294  13.370
11661W        W80066  35.283  15.172  11.628
11662W        W80067   6.582  40.346   4.144
11663W        W80068  41.074   8.174   3.717
11664W        W80069   0.411  31.651  11.947
11665W        W80070   3.810   5.234  11.045
11666W        W80071  29.872  19.721   2.700
11667W        W80072  16.998   7.734   2.903
11668W        W80073  41.105   7.341  14.295
11669W        W80074  34.712  21.946  11.024
11670W        W80075  29.223  42.910   0.268
11671W        W80076  37.487  10.512   5.033
11672W        W80077  20.726  37.533   1.295
11673W        W80078   3.352   1.429   0.350
11674W        W80079   4.234  11.685   2.655
11675W        W80080  23.920   0.996  12.482
11676W        W80081   5.624  29.945  13.081
11677W        W80082  23.039  22.903  11.999
11678W        W80083   8.264  40.769   3.749
11679W        W80084  42.200  41.449   4.651
11680W        W80085   1.362   5.209  11.686
11681W        W80086   1.477  31.447   1.860
11682W        W80087  14.227  31.945  11.973
11683W        W80088  24.731  12.246   4.268
11684W        W80089   0.395  28.686   2.247
11685W        W80090  15.940  29.092  12.641
11686W        W80091  36.247   7.748   0.477
11687W        W80092  39.851  21.488  13.405
11688W        W80093  16.873   9.274  12.935
11689W        W80094  13.867   1.676  10.851
11690W        W80095  27.172  24.245   1.287
11691W        W80096   5.614  16.069   1.401
11692W        W80097  42.418  24.460  13.842
11693W        W80098  15.579  38.992   4.579
11694W        W80099   4.412  24.988   1.694
11695W        W80100   9.754   6.589  11.516
11696W        W80101  32.809  30.956  12.057
11697W        W80102  13.789  15.659   1.143
11698W        W80103  42.249  39.591  10.469
11699W        W80104  11.608  43.554   3.688
11700W        W80105  26.009  22.281  10.705
11701W        W80106  30.828   0.196  10.686
11702W        W80107  39.043  37.969   3.990
11703W        W80108  17.928  34.071   2.377
11704W        W80109  14.905  11.834   1.667
11705W        W80110  15.652  26.436  13.068
11706W        W80111  32.841   9.529  10.645
11707W        W80112  38.178  10.277  11.821
11708W        W80113  11.639  19.466  12.963
11709W        W80114  13.015  31.875   5.131
11710W        W80115  16.367  37.909   3.374
11711W        W80116  40.070  31.455   2.882
11712W        W80117  28.470  30.742  13.371
11713W        W80118  41.891  30.398  11.586
11714W        W80119   5.767  17.157  12.526
11715W        W80120  33.841  42.632  14.815
11716W        W80121   1.951  33.891   2.701
11717W        W80122  12.913   3.494   1.492
11718W        W80123  21.603  14.129  13.742
11719W        W80124   6.902  19.611  13.817
11720W        W80125  25.737  15.649  11.131
11721W        W80126  36.954  14.659   3.746
11722W        W80127  44.277  16.075   3.111
11723W        W80128  25.898  18.811  14.361
11724W        W80129  25.002  32.480   1.169
11725W        W80130  20.311   5.118   3.325
11726W        W80131  14.126   0.341  11.299
11727W        W80132   7.390  13.638  10.476
11728W        W80133  14.123  23.909   1.423
11729W        W80134  27.495  18.740   4.704
11730W        W80135  20.272  34.299   1.732
11731W        W80136  20.717   7.328  12.901
11732W        W80137  38.410  35.375  13.758
11733W        W80138  33.037  35.797  13.992
11734W        W80139  27.608   6.215   3.167
11735W        W80140  16.739   4.842   1.458
11736W        W80141  33.875  27.667  12.401
11737W        W80142  36.440  19.034   0.396
11738W        W80143  24.536  25.757   2.286
11739W        W80144   3.499  42.550   3.085
11740W        W80145   0.209  38.021  12.148
11741W        W80146  18.485  37.425  11.839
11742W        W80147  17.319  36.571   1.098
11743W        W80148   7.671  36.813   4.313
11744W        W80149  41.469  22.493   3.616
11745W        W80150  31.990  39.591  13.676
11746W        W80151  43.961  27.140  12.072
11747W        W80152  40.439  37.438  10.949
11748W        W80153   4.355   1.529   3.217
11749W        W80154  28.125  44.246   1.950
11750W        W80155  33.417  14.617  12.366
11751W        W80156  13.680  42.817  10.556
11752W        W80157   3.459   1.368  13.523
11753W        W80158  42.215   7.653  12.026
11754W        W80159  17.148  11.761  11.244
11755W        W80160  12.777   9.186   1.304
11756W        W80161  18.094  42.334   4.168
11757W        W80162  39.554  44.820   3.308
11758W        W80163  31.532  41.888  12.481
11759W        W80164   0.808  38.218   2.856
11760W        W80165  25.776   7.183  14.303
11761W        W80166  41.398  31.715   3.194
11762W        W80167  16.652   4.489  13.849
11763W        W80168  38.832  28.697   2.719
11764W        W80169  43.974  43.875   1.659
11765W        W80170  15.265  25.285   4.104
11766W        W80171  29.901   7.758  14.714
11767W        W80172   8.194  38.848   0.456
11768W        W80173   2.702  31.451   4.401
11769W        W80174  19.019  26.447   0.758
11770W        W80175  36.091  20.847  10.517
11771W        W80176  24.132  36.665  12.793
11772W        W80177   1.208  18.743   1.858
11773W        W80178  25.168  32.675   2.341
11774W        W80179   4.781  44.821  11.929
11775W        W80180   0.995  41.594  12.009
11776W        W80181  24.878  10.285  13.047
11777W        W80182  34.511   4.473   2.633
11778W        W80183  22.053  25.625  14.823
11779W        W80184   4.450  25.458  13.975
11780W        W80185  41.066   6.345  13.490
11781W        W80186  30.390  28.155  13.410
11782W        W80187  37.159  13.442  13.015
11783W        W80188  39.167  40.814  12.965
11784W        W80189  29.103  31.446  13.856
11785W        W80190  13.282  22.555   2.261
11786W        W80191  11.283  16.031  12.286
11787W        W80192  32.211   7.809  12.882
11788W        W80193  17.157  36.567  13.006
11789W        W80194  21.798  37.587  11.577
11790W        W80195   6.389  15.790  12.535
11791W        W80196  33.167  34.035  12.517
11792W        W80197  11.504  39.316   9.975
11793W        W80198  33.396   0.751   1.101
11794W        W80199  34.406  15.590   4.337
11795W        W80200  42.787  22.013  13.097
11796W        W80201  16.733  14.087  12.333
11797W        W80202  32.186  18.757   0.891
11798W        W80203   0.872   0.950  10.515
11799W        W80204  25.979   9.607  12.563
11800W        W80205  25.099   4.897   3.652
11801W        W80206  30.200  11.666  14.158
11802W        W80207   9.182  13.645  12.470
11803W        W80208  41.899  36.665   3.867
11804W        W80209  24.453  43.281  11.523
11805W        W80210  32.344   1.220   1.402
11806W        W80211   2.965  37.410  12.442
11807W        W80212  10.434  28.036   2.130
11808W        W80213  28.028  18.531   3.630
11809W        W80214  37.390   6.915   4.651
11810W        W80215  28.784  27.611   4.432
11811W        W80216  43.954  41.055  12.529
11812W        W80217  21.640  41.360  14.103
11813W        W80218  44.106  24.275  13.324
11814W        W80219  23.777   5.271   4.659
11815W        W80220   7.480   5.903  12.056
11816W        W80221  13.885  32.079   2.741
11817W        W80222  33.323  41.247   5.147
11818W        W80223  35.501   1.154   1.337
11819W        W80224  32.937   8.900  12.735
11820W        W80225  19.578  11.478  12.017
11821W        W80226  20.150  38.106  11.049
11822W        W80227  30.888  39.175  14.254
11823W        W80228  29.525   2.757  14.468
11824W        W80229  43.339  28.458  10.997
11825W        W80230   8.917   0.492   1.975
11826W        W80231   9.950  13.834  13.370
11827W        W80232  38.494   1.293  13.875
11828W        W80233  36.901  17.506  11.496
11829W        W80234  31.565  28.952   1.904
11830W        W80235  14.806  13.254  12.129
11831W        W80236   5.782   8.264   0.131
11832W        W80237   2.017  40.541   0.428
11833W        W80238  39.349  40.011  13.332
11834W        W80239  15.786  31.832  10.747
11835W        W80240  21.126  37.543  14.763
11836W        W80241  41.960   2.144  11.581
11837W        W80242  26.976  30.795   2.353
11838W        W80243  28.087  37.085   3.670
11839W        W80244  41.401  36.818   4.519
11840W        W80245  42.639   0.585   4.048
11841W        W80246  11.158  32.455  12.838
11842W        W80247  15.560   1.554  13.384
11843W        W80248  33.444  44.254   3.476
11844W        W80249  33.190  44.313   1.726
11845W        W80250  35.151   6.646  11.864
11846W        W80251  41.869   2.468  12.040
11847W        W80252  14.000  43.656   4.153
11848W        W80253  20.638  22.506   2.157
11849W        W80254  23.756  18.162  14.428
11850W        W80255  13.461  12.703  13.535
11851W        W80256   4.018  18.633   4.002
11852W        W80257  25.426  39.010  14.375
11853W        W80258  20.514  16.230   0.306
11854W        W80259  24.109  40.347  10.219
11855W        W80260  42.800  15.838   0.237
11856W        W80261   2.913  26.042  12.441
11857W        W80262  34.901  11.732  13.475
11858W        W80263  38.594  21.593  13.915
11859W        W80264   0.798  19.242   4.051
11860W        W80265  25.543  28.413  14.134
11861W        W80266  24.769  41.782   1.448
11862W        W80267   9.165  14.021   5.446
11863W        W80268   8.398   1.412   2.077
11864W        W80269  22.860  34.508  14.351
11865W        W80270  17.807  26.962   1.289
11866W        W80271   8.901  22.835   2.780
11867W        W80272  25.606  40.495  13.555
11868W        W80273  24.158  15.838  14.471
11869W        W80274  39.519  25.179   1.944
11870W        W80275  28.140  14.950   1.028
11871W        W80276  41.900  42.993  12.334
11872W        W80277   7.444   1.206   1.020
11873W        W80278  11.263  23.020  13.410
11874W        W80279  28.327   4.796   5.129
11875W        W80280   5.400  19.284  13.669
11876W        W80281   8.350   7.898   3.240
11877W        W80282  28.088  36.797   3.254
11878W        W80283  23.458  34.353   3.645
11879W        W80284  37.871  10.751  14.881
11880W        W80285   8.643  44.212  13.249
11881W        W80286  33.051  16.594  13.645
11882W        W80287  16.826  25.257   4.149
11883W        W80288  20.118  19.410  14.632
11884W        W80289   0.821  37.823  11.198
11885W        W80290  31.164  18.274   4.189
11886W        W80291  19.044  24.005   3.222
11887W        W80292   3.297  11.418  14.519
11888W        W80293  28.054  41.459   1.291
11889W        W80294   0.277   3.745  11.483
11890W        W80295  25.529  39.150  11.089
11891W        W80296  26.972  27.960  11.299
11892W        W80297  17.785  21.842   4.204
11893W        W80298   6.944   6.360  14.229
11894W        W80299  14.060  29.520  12.872
11895W        W80300  19.754  41.246   3.652
11896W        W80301  24.061  13.330  12.097
11897W        W80302  36.856  33.083  11.987
11898W        W80303  33.108  43.757   2.603
11899W        W80304   5.179  16.358   0.189
11900W        W80305  29.925  17.351  11.710
11901W        W80306  13.117  23.018  12.093
11902W        W80307  13.085  41.314  13.852
11903W        W80308  13.242  37.408   9.917
11904W        W80309  41.440  26.014   1.657
11905W        W80310  33.414   2.719  13.765
11906W        W80311   7.541  19.941  11.963
11907W        W80312  10.098  42.839  13.350
11908W        W80313   4.458  29.563   3.324
11909W        W80314  30.101  43.348   1.123
11910W        W80315  36.708   9.311   0.672
11911W        W80316  32.847  14.154  13.008
11912W        W80317   2.671  29.451  14.451
11913W        W80318  26.492   5.290  13.849
11914W        W80319  14.461  36.808   1.841
11915W        W80320  41.123  24.024   5.076
11916W        W80321  14.763  12.662   4.665
11917W        W80322  16.775   2.123  12.460
11918W        W80323  28.319  37.226  14.251
11919W        W80324  15.337  18.065  14.463
11920W        W80325   0.944  18.199  12.551
11921W        W80326  41.302  33.457   2.132
11922W        W80327  17.546  10.512   0.355
11923W        W80328  43.022  26.187  13.887
11924W        W80329  30.975  40.479   4.913
11925W        W80330  40.329  19.194   0.406
11926W        W80331   7.422  32.155  11.659
11927W        W80332  44.374  14.287   1.920
11928W        W80333   0.433  31.464   1.276
11929W        W80334  30.800  25.552   4.489
11930W        W80335  25.266  11.884   5.146
11931W        W80336  19.138   6.142  12.445
11932W        W80337   4.288   7.673  12.615
11933W        W80338   2.141  25.846  12.503
11934W        W80339  27.743  18.471   9.614
11935W        W80340  37.246  16.336  11.146
11936W        W80341   2.863  13.620   1.060
11937W        W80342  44.241  41.295   3.109
11938W        W80343  40.953  42.264  11.244
11939W        W80344  19.980   1.925  11.302
11940W        W80345  31.567   1.809  10.599
11941W        W80346  22.441  32.134   4.059
11942W        W80347  44.384  42.705   0.942
11943W        W80348   6.143   3.573   0.242
11944W        W80349   2.549  10.284   2.274
11945W        W80350  31.471  24.622  13.773
11946W        W80351  37.968  21.461   3.284
11947W        W80352  16.679  38.908  13.959
11948W        W80353  10.870   6.168  11.846
11949W        W80354  19.351  20.170  10.763
11950W        W80355  21.552  31.799   3.239
11951W        W80356  44.711  39.009   1.801
11952W        W80357   6.218  20.173   1.716
11953W        W80358  38.760  36.591   2.289
11954W        W80359   6.820   1.033   2.310
11955W        W80360  38.071  16.139  11.538
11956W        W80361   6.400  14.545  10.620
11957W        W80362  39.578  29.027   1.327
11958W        W80363  39.445  29.989  11.371
11959W        W80364  30.239  19.678  12.698
11960W        W80365  21.698  23.955  12.568
11961W        W80366  21.586  21.016   2.395
11962W        W80367  13.326  42.187   2.885
11963W        W80368  25.600  42.991   2.383
11964W        W80369  14.738  22.052   4.216
11965W        W80370  18.787  13.390  13.546
11966W        W80371  40.613  24.297   4.222
11967W        W80372   5.340   8.356  11.166
11968W        W80373  28.606  36.294  14.461
11969W        W80374  35.837   6.849  14.488
11970W        W80375  13.163  21.179   1.652
11971W        W80376  32.380  23.500   3.091
11972W        W80377  19.793   7.635   0.061
11973W        W80378   9.824  44.542   0.172
11974W        W80379   2.412  30.668  13.888
11975W        W80380   8.202  43.416   2.844
11976W        W80381  11.782  21.744  13.313
11977W        W80382  24.632  11.768  14.101
11978W        W80383  32.904   8.845   2.634
11979W        W80384  18.066  44.857  10.917
11980W        W80385  30.616   1.026  14.532
11981W        W80386  10.288  13.788  14.489
11982W        W80387  31.335   3.653  11.488
11983W        W80388  31.056  18.061   2.057
11984W        W80389  33.846  38.101   0.854
11985W        W80390  37.644  37.520  13.577
11986W        W80391  34.471  30.987  14.219
11987W        W80392  13.166  29.811  13.405
11988W        W80393  37.319  22.634  13.417
11989W        W80394  32.052  37.059   5.087
11990W        W80395   6.840  27.133  14.068
11991W        W80396  42.566  18.559   3.185
11992W        W80397  31.599  19.308   4.632
11993W        W80398  41.271   7.649  13.002
11994W        W80399  11.492  18.964  13.055
11995W        W80400  38.507  14.358  11.978
11996W        W80401  41.384  18.323  11.136
11997W        W80402  21.005  29.583   3.650
11998W        W80403  42.525  13.691  11.065
11999W        W80404  25.950  15.081  11.891
12000W        W80405   1.541  12.163  12.944
12001W        W80406   7.684  25.662  11.510
12002W        W80407   3.334  40.303   2.157
12003W        W80408  41.038   9.083  13.339
12004W        W80409   2.498   0.188  12.916
12005W        W80410  34.594  29.935   0.756
12006W        W80411  42.374  15.198  12.469
12007W        W80412  21.665  20.812  11.070
12008W        W80413  25.673  44.025  14.409
12009W        W80414  33.651  21.652  14.097
12010W        W80415  42.936  43.818  12.797
12011W        W80416  35.875  41.327  12.646
12012W        W80417  32.110  20.171  13.361
12013W        W80418  15.843  41.623   4.158
12014W        W80419  29.574  17.653   0.419
12015W        W80420  19.365   8.221   0.480
12016W        W80421   5.869  19.088   1.372
12017W        W80422   0.363  21.014   0.064
12018W        W80423  36.623  18.124  14.491
12019W        W80424  16.223  15.881   3.572
12020W        W80425   0.017   0.503   3.699
12021W        W80426  24.576  17.235  11.139
12022W        W80427  13.429   9.756  14.258
12023W        W80428  16.353  37.896  14.819
12024W        W80429  18.660   4.027  13.422
12025W        W80430  23.594  43.200   4.113
12026W        W80431  13.126  36.838   1.288
12027W        W80432  40.131  15.384  14.604
12028W        W80433  28.863  10.819   2.281
12029W        W80434  37.974   6.183  11.557
12030W        W80435  18.699  24.710  12.988
12031W        W80436   4.152  12.088  11.612
12032W        W80437  34.814   1.834   2.900
12033W        W80438   9.319   8.171   3.067
12034W        W80439   5.262  27.655  10.611
12035W        W80440  44.341  35.969   9.991
12036W        W80441  29.627   8.411   3.258
12037W        W80442  31.962  34.075   4.591
12038W        W80443   7.744   0.548   0.492
12039W        W80444  18.243  27.226  11.373
12040W        W80445  23.455   1.411  12.840
12041W        W80446   0.432  18.644  12.883
12042W        W80447  38.821  13.194   4.761
12043W        W80448   2.987  44.177  13.043
12044W        W80449  21.914  30.626   4.711
12045W        W80450  33.863  16.030  11.947
12046W        W80451  41.413  34.971   2.279
12047W        W80452   3.402  17.297  13.351
12048W        W80453  14.765  41.424  13.949
12049W        W80454  21.824   6.124  13.879
12050W        W80455  39.642  38.793   1.862
12051W        W80456  36.315   1.453   4.280
12052W        W80457   3.953   7.894  10.378
12053W        W80458  38.483   1.125  11.026
12054W        W80459  34.279  16.941   0.955
12055W        W80460  40.884  35.161  11.842
12056W        W80461  16.725   3.911  11.530
12057W        W80462  18.625  44.632   5.041
12058W        W80463   9.168  32.923  11.066
12059W        W80464  14.170   8.171   1.778
12060W        W80465  12.695   7.651  12.901
12061W        W80466  30.019  14.177  13.286
12062W        W80467  35.481  36.093  12.613
12063W        W80468  13.186  32.586  13.550
12064W        W80469  12.340   4.110   0.441
12065W        W80470   4.927  38.614   2.100
12066W        W80471  42.885  41.873   4.323
12067W        W80472  39.575  44.030  12.718
12068W        W80473   8.322  29.162  14.825
12069W        W80474  34.109  17.218   2.264
12070W        W80475  41.464  39.391   0.019
12071W        W80476  17.272  16.817  12.018
12072W        W80477  28.344  36.422  14.927
12073W        W80478  39.358  17.680  13.113
12074W        W80479  39.129  17.008   3.838
12075W        W80480  20.818  14.400   1.272
12076W        W80481  37.880   4.903   1.143
12077W        W80482  30.353  40.060   1.465
12078W        W80483  30.198  17.660  14.033
12079W        W80484  44.318  12.267   1.332
12080W        W80485   6.345  10.242  14.500
12081W        W80486  18.763  12.302  12.027
12082W        W80487  27.475  35.943   4.529
12083W        W80488  27.119  26.308   4.899
12084W        W80489   6.176  35.367  13.006
12085W        W80490  23.711   5.125   0.935
12086W        W80491  27.785  26.536   2.450
12087W        W80492  23.351  24.503  14.512
12088W        W80493   8.805   3.153  12.444
12089W        W80494  43.403  35.955  10.629
12090W        W80495  13.623  40.506  14.659
12091W        W80496  23.055  17.656  10.658
12092W        W80497  42.791  25.372  13.386
12093W        W80498   6.199   5.567   4.607
12094W        W80499  15.276  10.206   3.180
12095W        W80500  43.094   5.678   2.190
12096W        W80501  38.430  42.933   0.442
12097W        W80502  11.680  18.022  11.124
12098W        W80503   2.396  34.904   2.326
12099W        W80504   7.386  42.519   3.128
12100W        W80505  16.054  38.964  11.466
12101W        W80506  32.192  15.733   3.178
12102W        W80507  20.209  37.587  11.176
12103W        W80508  40.418  22.042   4.838
12104W        W80509  17.210  35.078  11.522
12105W        W80510  17.729  15.467  12.113
12106W        W80511  25.731  31.534   0.784
12107W        W80512  15.347  34.940  14.372
12108W        W80513   8.170  27.812   1.831
12109W        W80514  39.012  13.571   4.475
12110W        W80515  12.647  42.341   1.676
12111W        W80516   3.403  44.811  10.652
12112W        W80517  39.477  28.566   1.538
12113W        W80518  11.215  16.536  12.160
12114W        W80519  11.024   3.323  11.627
12115W        W80520  20.546  30.588  11.656
12116W        W80521  43.788  26.322   2.709
12117W        W80522   1.338  27.729   1.336
12118W        W80523  41.972  25.212  14.029
12119W        W80524  33.022   1.871  13.144
12120W        W80525   6.391   5.089  12.847
12121W        W80526  41.745  20.844  10.793
12122W        W80527  17.572  25.930  12.826
12123W        W80528  17.736   6.113   2.312
12124W        W80529  38.846  31.335   1.687
12125W        W80530  36.586  27.682  13.518
12126W        W80531  31.112  26.587  13.561
12127W        W80532  15.820  35.517   0.729
12128W        W80533  20.440  31.565   4.553
12129W        W80534  23.168  44.226   0.944
12130W        W80535  29.973  15.416  14.359
12131W        W80536   7.350  15.058  14.930
12132W        W80537  40.906  27.295  11.178
12133W        W80538  35.953  11.461  14.387
12134W        W80539   9.903   5.227  11.823
12135W        W80540  27.271  28.022   3.209
12136W        W80541   4.807  12.821  13.159
12137W        W80542  44.650  37.453  12.965
12138W        W80543  22.743  22.073  11.216
12139W        W80544   5.867  18.582  11.745
12140W        W80545  14.294  20.516  10.712
12141W        W80546  25.391   0.421   2.365
12142W        W80547  35.470  23.783   1.855
12143W        W80548   0.381  10.045   1.387
12144W        W80549  32.574   1.140   2.697
12145W        W80550  11.348  27.418   4.067
12146W        W80551  16.737  42.529   2.594
12147W        W80552  41.739  25.536   1.808
12148W        W80553   7.083   6.721   3.658
12149W        W80554  19.171  32.250   4.480
12150W        W80555  25.788  34.030  13.627
12151W        W80556  12.262  42.731  11.423
12152W        W80557  36.082  24.606   0.024
12153W        W80558  36.874  19.812  12.061
12154W        W80559  33.070  24.430  12.432
12155W        W80560  20.322  15.281  14.046
12156W        W80561   1.913  28.145  11.582
12157W        W80562  26.590  23.046  12.897
12158W        W80563  29.066  35.990  10.859
12159W        W80564  13.425   0.557  11.799
12160W        W80565   5.657  39.449   0.771
12161W        W80566   7.359  36.813  10.745
12162W        W80567  24.202  23.434   4.142
12163W        W80568  24.667  27.736   2.411
12164W        W80569   0.020  20.113  11.072
12165W        W80570  11.634  23.554   2.354
12166W        W80571  23.546  11.212  13.411
12167W        W80572  44.838   7.060  12.503
12168W        W80573  15.327  19.138   3.083
12169W        W80574  18.818   4.960  13.331
12170W        W80575  13.402  29.644  11.674
12171W        W80576  36.186  21.478   4.248
12172W        W80577  25.255  33.641  14.242
12173W        W80578  14.786  29.461   1.913
12174W        W80579  28.463  15.304   2.196
12175W        W80580  31.403  37.943  11.285
12176W        W80581  43.480  29.535  12.184
12177W        W80582  39.160   6.241   3.269
12178W        W80583  12.204  44.142   4.056
12179W        W80584  22.521  43.574  10.821
12180W        W80585  21.646  27.071   0.290
12181W        W80586  16.202   4.861   4.055
12182W        W80587  10.730  16.917  12.860
12183W        W80588  44.848   6.848  10.566
12184W        W80589   3.884  27.276  10.946
12185W        W80590  42.544   3.231   2.683
12186W        W80591  17.305  12.182  14.783
12187W        W80592  24.220  10.375  11.226
12188W        W80593   0.573   4.159  14.488
12189W        W80594  23.335   3.145   0.302
12190W        W80595  11.089  38.525   4.539
12191W        W80596  44.594   5.652  11.417
12192W        W80597  26.522   3.499  10.135
12193W        W80598  21.688  31.602  12.463
12194W        W80599   4.457  39.460  12.161
12195W        W80600  26.230  32.938   2.755
12196W        W80601   5.664  19.768  12.984
12197W        W80602  17.719  42.427  10.323
12198W        W80603  11.412  13.876  11.191
12199W        W80604   2.432  30.410  13.419
12200W        W80605  42.392  44.741  12.486
12201W        W80606   4.664  42.505  11.275
12202W        W80607  39.120   1.277  14.339
12203W        W80608  42.604  43.288   3.348
12204W        W80609   7.538   3.702  13.503
12205W        W80610  25.283  36.971   2.650
12206W        W80611  42.666  36.134  14.549
12207W        W80612  16.816   5.002  12.318
12208W        W80613  32.876  39.484  14.025
12209W        W80614  32.920   6.744   0.826
12210W        W80615  11.013  38.872  13.911
12211W        W80616  23.500  28.971  13.480
12212W        W80617  12.812  33.324  11.579
12213W        W80618   8.001  33.533   2.720
12214W        W80619  44.344  18.593  11.093
12215W        W80620  11.846  26.645  13.728
12216W        W80621  14.750   0.398   3.998
12217W        W80622  37.782   0.423  12.064
12218W        W80623  35.504  41.776  11.641
12219W        W80624  21.085  28.292  11.341
12220W        W80625  39.313  38.432  13.795
12221W        W80626   1.480   0.015  14.022
12222W        W80627   0.575  11.339   4.809
12223W        W80628   9.406  40.479   4.672
12224W        W80629  21.836  15.581   4.223
12225W        W80630  35.878  23.995   3.715
12226W        W80631   9.330  11.358  12.974
12227W        W80632  11.238  15.590   3.733
12228W        W80633   1.437   9.788  13.811
12229W        W80634  43.326  16.720   0.445
12230W        W80635  37.409  34.843  13.086
12231W        W80636  43.926  13.967  14.285
12232W        W80637   6.257  23.241   3.088
12233W        W80638   8.332  13.054   3.817
12234W        W80639   3.413   9.164   4.740
12235W        W80640   6.301  43.821  13.978
12236W        W80641   4.339   9.566   3.938
12237W        W80642  22.575   4.364   2.266
12238W        W80643   9.202   8.801   1.388
12239W        W80644  36.965  26.180   0.583
12240W        W80645   1.680  12.933  13.470
12241W        W80646  11.652  15.667   1.672
12242W        W80647  12.690  33.009   3.293
12243W        W80648  31.905  41.001   4.088
12244W        W80649   0.770  28.895   3.815
12245W        W80650  33.963   3.789  11.131
12246W        W80651  34.696  14.230   3.982
12247W        W80652   5.619  15.863  11.412
12248W        W80653  11.292   8.748   0.892
12249W        W80654  24.012  31.349  14.494
12250W        W80655  25.677  27.131  10.700
12251W        W80656   4.886   2.797   4.419
12252W        W80657  29.319  20.855   3.188
12253W        W80658  30.543   0.654  13.796
12254W        W80659  20.493  10.994   1.738
12255W        W80660  43.306  27.006   3.354
12256W        W80661   9.904  25.616  12.511
12257W        W80662  18.831   1.895   4.518
12258W        W80663   1.755  40.486   4.567
12259W        W80664  38.300  44.452  11.083
12260W        W80665   2.019  28.836  13.529
12261W        W80666  35.728  29.578   3.703
12262W        W80667   5.902  34.941   2.177
12263W        W80668   4.389  42.199   2.837
12264W        W80669  12.984  12.428  13.490
12265W        W80670  28.049  42.434   3.910
12266W        W80671  44.966  44.722   4.355
12267W        W80672  34.357  23.609  11.150
12268W        W80673  10.224  28.151  14.226
12269W        W80674   1.801  35.389  10.858
12270W        W80675  27.991   1.399  10.433
12271W        W80676   3.754   8.300   4.674
12272W        W80677  40.350  22.305   1.868
12273W        W80678  12.145  41.535  14.541
12274W        W80679  37.839  14.218  14.469
12275W        W80680   3.858   9.130   2.677
12276W        W80681  30.076  14.420  12.313
12277W        W80682  41.874  16.104   0.979
12278W        W80683  21.976  43.245  10.651
12279W        W80684  20.672  17.976  14.922
12280W        W80685  34.494  44.919   0.682
12281W        W80686   9.194  32.730   2.730
12282W        W80687  13.652   9.530  14.650
12283W        W80688  16.773   9.068  12.463
12284W        W80689  39.165  40.491  13.369
12285W        W80690   4.161   7.864  14.903
12286W        W80691  16.200  33.841  12.918
12287W        W80692  25.545  33.295   0.784
12288W        W80693  27.520   3.798   1.326
12289W        W80694  29.405  26.494  13.016
12290W        W80695   7.394  10.150   0.420
12291W        W80696  27.969  43.665   2.716
12292W        W80697  11.717   2.559   1.908
12293W        W80698   4.522  44.953   2.005
12294W        W80699  29.436   6.313   1.209
12295W        W80700  11.797   1.934   4.576
12296W        W80701  30.868  21.254  10.021
12297W        W80702  28.977  14.783  12.760
12298W        W80703  40.009   2.470  11.592
12299W        W80704  28.197  23.172   3.147
12300W        W80705  29.721  37.225  13.314
12301W        W80706  33.154  14.521   1.793
12302W        W80707  33.625  41.958  12.389
12303W        W80708  36.587  10.716   3.729
12304W        W80709  43.803  20.499   1.518
12305W        W80710  39.541  27.752  11.230
12306W        W80711  12.162  32.005   0.456
12307W        W80712  36.144   3.364   1.107
12308W        W80713  43.975   2.224  11.977
12309W        W80714  11.031  12.169  13.090
12310W        W80715  37.630  11.122  10.770
12311W        W80716  38.269   8.551   4.237
12312W        W80717  31.280  23.101   3.727
12313W        W80718  21.647  18.271  11.118
12314W        W80719  37.294  20.565  11.343
12315W        W80720   7.515  34.839  13.998
12316W        W80721  19.437  42.171   0.524
12317W        W80722  25.120  28.665  13.983
12318W        W80723  37.690  40.130  12.409
12319W        W80724  44.571  13.541  12.880
12320W        W80725   2.930   8.375   0.903
12321W        W80726  17.068  29.090   2.741
12322W        W80727   5.741  10.632  12.458
12323W        W80728   1.871  36.876  14.275
12324W        W80729  24.451  23.501   3.701
12325W        W80730  30.440  38.830  11.542
12326W        W80731  11.988  18.262   4.273
12327W        W80732  44.867   1.228   2.629
12328W        W80733  11.485  38.993  13.568
12329W        W80734  20.358  23.502   2.615
12330W        W80735  44.719  24.601  14.026
12331W        W80736  18.031  16.293   2.106
12332W        W80737  37.051  13.256  10.804
12333W        W80738  11.518  21.526  13.700
12334W        W80739  37.999  24.954   5.015
12335W        W80740  33.908  27.716   3.726
12336W        W80741  41.598  23.184  13.746
12337W        W80742  29.004  11.662   1.547
12338W        W80743  13.184  16.460  10.738
12339W        W80744  32.946  37.078   0.702
12340W        W80745   9.759  26.250   3.828
12341W        W80746  43.237  32.530   4.174
12342W        W80747   8.795  26.494   0.344
12343W        W80748  11.614  17.270   3.007
12344W        W80749  42.663  17.708   1.640
12345W        W80750  27.172  11.196   1.384
12346W        W80751  20.541   4.258  14.875
12347W        W80752  12.819  39.002  10.744
12348W        W80753  37.495   1.119  12.792
12349W        W80754  15.335  13.654  13.982
12350W        W80755   4.913  15.018  12.273
12351W        W80756  35.385   3.142  10.305
12352W        W80757   7.023  39.009   4.654
12353W        W80758   3.022  36.592  11.413
12354W        W80759   6.393  29.847   5.244
12355W        W80760  25.230  10.345  11.798
12356W        W80761  29.186   5.087  11.700
12357W        W80762  27.120  26.038  13.786
12358W        W80763  19.020  37.498  12.105
12359W        W80764  12.351   0.396   3.625
12360W        W80765   1.843  39.855  12.899
12361W        W80766  26.193  21.633   0.417
12362W        W80767  23.634  22.340   0.278
12363W        W80768  41.261   1.959   2.481
12364W        W80769  17.768  35.934   1.315
12365W        W80770  27.153  32.943  14.026
12366W        W80771  20.533   4.218   1.776
12367W        W80772  36.718  30.521  14.985
12368W        W80773  18.864  32.978  10.988
12369W        W80774   6.166   7.576   1.061
12370W        W80775  20.640  41.568   4.624
12371W        W80776  34.070  11.239  11.546
12372W        W80777  17.101   2.751  12.092
12373W        W80778  44.711  37.398  11.431
12374W        W80779   4.687  34.467   0.511
12375W        W80780  25.723  17.656  12.152
12376W        W80781   4.259  33.358   2.943
12377W        W80782   0.497  21.914   5.007
12378W        W80783   9.562   1.010  11.841
12379W        W80784   7.186  38.314   2.297
12380W        W80785  31.460  27.090  13.335
12381W        W80786  28.175   4.825  13.385
12382W        W80787   7.382  19.580  14.348
12383W        W80788  38.835   7.824   5.499
12384W        W80789  18.770  38.807   2.735
12385W        W80790  39.263   0.832   1.300
12386W        W80791  12.028  40.919   3.592
12387W        W80792  36.543  15.603  13.995
12388W        W80793   4.938  11.276  11.591
12389W        W80794   6.159  31.995   3.099
12390W        W80795   2.240  11.574   2.783
12391W        W80796  12.561  33.364  10.071
12392W        W80797  24.245  36.219  13.054
12393W        W80798  12.832  33.550   4.593
12394W        W80799   9.790  18.307   0.509
12395W        W80800  14.633   8.095   3.621
12396W        W80801  35.542  14.751   4.038
12397W        W80802  22.514  19.533  11.620
12398W        W80803  18.175  21.205   4.555
12399W        W80804  34.522   7.969   1.014
12400W        W80805  28.290  39.622  13.312
12401W        W80806  32.083  15.113  13.847
12402W        W80807   7.187  32.835  11.988
12403W        W80808   3.767  32.647   2.684
12404W        W80809  22.649  12.803  11.184
12405W        W80810   9.867  13.823   4.953
12406W        W80811  33.131  40.980   3.281
12407W        W80812  14.680  27.125  12.041
12408W        W80813  16.087  23.675  13.045
12409W        W80814  16.153  12.900   0.352
12410W        W80815  22.155  17.664   4.644
12411W        W80816  21.022  21.678  12.120
12412W        W80817  13.811   1.231   1.930
12413W        W80818   3.464  25.253  12.902
12414W        W80819  16.109   8.779  10.156
12415W        W80820   5.217  12.602   0.911
12416W        W80821  23.662  39.323  13.416
12417W        W80822  17.598  22.606   3.568
12418W        W80823  33.916   2.544  14.544
12419W        W80824  12.406  37.835  11.686
12420W        W80825  37.016   8.778  11.678
12421W        W80826   2.492  18.586   4.138
12422W        W80827  31.133   9.833  10.383
12423W        W80828   1.723  35.632  13.282
12424W        W80829  41.862  18.522   1.491
12425W        W80830  11.148  38.607  13.355
12426W        W80831  26.090  14.805  14.894
12427W        W80832  41.048   4.699   0.480
12428W        W80833   3.390  10.868   2.730
12429W        W80834  29.178   9.852   0.838
12430W        W80835  41.287  19.504   3.279
12431W        W80836   6.430  19.728  10.752
12432W        W80837  10.660   7.832   3.451
12433W        W80838   5.205  27.836  12.949
12434W        W80839  41.976  41.727   3.165
12435W        W80840   4.039  29.189  11.104
12436W        W80841  22.562  16.773  10.422
12437W        W80842  24.495  25.578  10.495
12438W        W80843  38.763  14.248  14.953
12439W        W80844   9.721  30.884   4.123
12440W        W80845  14.205  40.988   0.679
12441W        W80846  35.131  20.235   2.694
12442W        W80847  30.674  22.001  14.868
12443W        W80848   3.687  27.809   0.419
12444W        W80849  44.653  44.599  12.877
12445W        W80850  37.877   5.243   4.154
12446W        W80851  18.687   0.975   1.277
12447W        W80852  11.106  15.696  13.598
12448W        W80853  37.359  40.949   4.927
12449W        W80854  32.988  25.047   3.673
12450W        W80855  26.557  37.764  14.903
12451W        W80856  33.553  27.243  14.936
12452W        W80857  36.795  11.310   0.335
12453W        W80858  40.532   9.888  11.532
12454W        W80859  25.174   8.906   9.674
12455W        W80860   4.908   3.769  11.009
12456W        W80861   9.176   1.964   0.294
12457W        W80862  14.752   2.436  13.764
12458W        W80863   4.543  29.490  12.546
12459W        W80864  27.617  44.737   2.341
12460W        W80865  26.492  21.687   1.321
12461W        W80866  37.926   5.178   2.760
12462W        W80867  41.278  25.107  12.942
12463W        W80868  12.150  18.845  11.596
12464W        W80869  37.009  24.679   0.461
12465W        W80870  22.372  39.927   4.561
12466W        W80871   6.269  35.122   3.141
12467W        W80872  38.554  19.642   4.546
12468W        W80873   4.690  35.015   4.811
12469W        W80874  14.789  37.048   0.406
12470W        W80875  36.277  10.996   3.383
12471W        W80876   2.777  34.960   4.323
12472W        W80877  22.654  38.993   4.337
12473W        W80878  10.658   0.018  14.793
12474W        W80879  41.551   5.726  14.015
12475W        W80880  42.553  29.875   1.870
12476W        W80881   8.663  35.408  14.840
12477W        W80882  20.346  40.015  11.331
12478W        W80883  33.492  44.473  14.775
12479W        W80884  44.178  23.049   0.852
12480W        W80885  18.228   0.617  14.621
12481W        W80886  41.782   7.265   1.835
12482W        W80887   0.416  33.400   5.180
12483W        W80888   3.927  44.786   1.405
12484W        W80889   0.570   9.798  10.418
12485W        W80890  44.312   3.241  10.778
12486W        W80891   7.209  20.744  12.024
12487W        W80892   7.418  42.471  14.460
12488W        W80893  28.594  23.035   1.344
12489W        W80894  34.890  10.165  10.707
12490W        W80895  21.642  19.530   1.028
12491W        W80896   3.249  43.840  11.719
12492W        W80897  13.448  44.275   3.637
12493W        W80898  21.091   8.864  11.531
12494W        W80899   2.965  42.948   3.227
12495W        W80900  14.779  29.150  10.660
12496W        W80901  25.977   2.300  13.387
12497W        W80902  41.922  32.175   0.928
12498W        W80903  30.923  36.124  13.492
12499W        W80904  37.679   5.721   4.401
12500W        W80905  28.928  18.732   2.737
12501W        W80906  40.767   6.872   1.229
12502W        W80907  38.107   2.259   0.781
12503W        W80908  12.656   3.332  14.022
12504W        W80909  39.403  27.993  14.803
12505W        W80910   4.912  16.727  14.924
12506W        W80911  22.050  16.168  14.159
12507W        W80912   2.795  43.478  13.470
12508W        W80913  18.592   5.906   2.811
12509W        W80914   7.159   9.729   0.147
12510W        W80915   7.036  14.291   0.553
12511W        W80916  37.890   4.015  13.418
12512W        W80917  40.832  27.743   1.683
12513W        W80918   8.201  26.264  14.891
12514W        W80919  34.675   3.879  13.423
12515W        W80920   1.019  39.432   4.225
12516W        W80921  18.454  17.577  14.512
12517W        W80922  10.620   5.807   4.423
12518W        W80923  27.419  25.523  13.197
12519W        W80924  42.427  43.830  12.033
12520W        W80925  17.101  41.127   0.437
12521W        W80926  21.419  44.779   2.461
12522W        W80927   5.393  21.711   2.427
12523W        W80928   6.850  14.222  12.837
12524W        W80929  11.660  36.089  11.387
12525W        W80930  16.766  31.515   0.907
12526W        W80931  31.693   8.512   3.670
12527W        W80932  36.408  30.232   4.689
12528W        W80933  11.891   6.162   4.659
12529W        W80934  11.853  12.644   4.907
12530W        W80935  21.635   5.712  11.519
12531W        W80936  24.823  37.862   4.793
12532W        W80937  12.366  22.462   3.176
12533W        W80938  21.564  14.023   4.060
12534W        W80939  34.966   8.646   1.344
12535W        W80940  29.078  39.016   4.505
12536W        W80941   2.276  12.306  10.732
12537W        W80942  31.716  16.957  14.916
12538W        W80943  10.299  29.270   0.354
12539W        W80944  27.635  13.973   4.122
12540W        W80945  38.614   1.441  14.396
12541W        W80946   8.160  13.097   3.339
12542W        W80947  18.467   2.453  11.980
12543W        W80948  24.144  44.710  13.119
12544W        W80949   6.884  23.332  14.401
12545W        W80950  12.425   2.251  12.178
12546W        W80951  26.419  44.073   0.263
12547W        W80952  12.637   5.756  12.153
12548W        W80953   1.290   3.357  12.112
12549W        W80954  13.138   4.295   4.628
12550W        W80955  14.769  23.553  12.375
12551W        W80956  44.384  37.133  14.089
12552W        W80957  37.958  37.041   3.116
12553W        W80958  15.035  39.852   0.199
12554W        W80959   1.439  18.080  14.278
12555W        W80960  37.290  10.855   3.156
12556W        W80961  11.450  36.344  14.473
12557W        W80962  37.258   0.854   4.942
12558W        W80963  34.584  22.501  11.598
12559W        W80964   2.247  22.209  11.132
12560W        W80965  15.625  32.375   0.988
12561W        W80966  13.780   3.848  13.261
12562W        W80967  25.731  20.578   1.161
12563W        W80968  29.039  22.686  10.663
12564W        W80969  42.757  39.012   3.312
12565W        W80970   3.755  27.125  12.055
12566W        W80971  37.345  42.775  11.587
12567W        W80972  11.187   4.994   4.741
12568W        W80973  12.987  44.878   4.678
12569W        W80974  40.788  29.145   3.723
12570W        W80975  17.700  18.659   0.843
12571W        W80976   5.858  35.000  10.570
12572W        W80977  40.405   1.715   4.586
12573W        W80978  24.783  28.617   3.178
12574W        W80979   1.212  43.413  11.431
12575W        W80980  37.346  44.261  14.949
12576W        W80981   3.928  13.714  11.111
12577W        W80982  36.750  32.029   1.184
12578W        W80983  35.658  11.315   2.705
12579W        W80984   5.766   1.241   3.131
12580W        W80985  27.517  25.034   1.678
12581W        W80986  21.609  23.104  11.352
12582W        W80987   7.929   8.845  14.381
12583W        W80988  12.073  13.473  14.283
12584W        W80989  32.465  15.076  11.898
12585W        W80990  40.531  39.909   1.845
12586W        W80991  19.352  35.427   3.880
12587W        W80992  15.905  33.932   4.882
12588W        W80993  37.708   2.995   0.944
12589W        W80994   9.857   7.632   0.215
12590W        W80995  14.673   7.956   4.146
12591W        W80996  27.121  44.672   1.232
12592W        W80997  18.771  11.168   1.967
12593W        W80998   7.793  18.661   1.224
12594W        W80999  23.139  25.130   0.389
12595W        W81000  17.566  20.678  10.773
12596W        W81001  13.500  28.251  11.073
12597W        W81002  19.732  21.100   1.301
12598W        W81003   7.610  44.037   3.880
12599W        W81004  31.655  25.515  11.108
12600W        W81005  27.238  31.635  12.940
12601W        W81006  30.123   5.695  10.692
12602W        W81007  14.227  18.535  10.738
12603W        W81008  32.082   2.517   3.859
12604W        W81009   2.037  26.602  14.236
12605W        W81010  22.496  28.690   1.893
12606W        W81011  35.758  14.145   3.707
12607W        W81012  36.384  22.505   1.256
12608W        W81013  25.171  30.638  10.467
12609W        W81014  23.206  35.445   2.653
12610W        W81015  36.883  41.928   4.719
12611W        W81016  44.215  27.094   2.987
12612W        W81017  33.354   7.080   2.123
12613W        W81018   8.954  17.622   5.332
12614W        W81019  35.525  17.792  12.282
12615W        W81020   1.224  44.479   0.741
12616W        W81021  20.481  14.851  11.468
12617W        W81022   0.566  31.167  11.153
12618W        W81023  31.618  29.642  14.521
12619W        W81024   6.893   9.779  11.036
12620W        W81025  40.251  34.089   0.332
12621W        W81026  40.356  35.980  14.837
12622W        W81027  26.684  18.353   3.315
12623W        W81028  42.544   4.625   2.435
12624W        W81029  17.564  39.848  11.794
12625W        W81030   5.452  37.849   4.086
12626W        W81031   5.355  36.858  12.632
12627W        W81032   7.894   8.719  10.960
12628W        W81033  40.448  33.599   0.787
12629W        W81034  33.863  30.487  13.767
12630W        W81035   1.470  41.119  13.046
12631W        W81036   5.768  14.160   4.894
12632W        W81037   6.220  20.935  11.159
12633W        W81038  33.677   9.683  11.873
12634W        W81039   7.594  36.579   4.881
12635W        W81040   7.383  37.325  10.707
12636W        W81041  22.793  28.547  14.996
12637W        W81042  10.701  32.940   2.633
12638W        W81043   8.751  37.836   0.922
12639W        W81044  14.414  14.841   1.304
12640W        W81045  36.892  31.940  10.715
12641W        W81046   9.054  36.277   4.162
12642W        W81047   4.806   0.729   3.158
12643W        W81048   8.687   1.455   3.823
12644W        W81049  19.796   5.224   3.185
12645W        W81050  21.742   5.403  11.124
12646W        W81051   5.761  20.962   1.425
12647W        W81052  42.439  27.708  11.474
12648W        W81053  41.490  44.037   3.289
12649W        W81054  39.922  23.491   3.874
12650W        W81055  26.297  37.418   1.020
12651W        W81056   4.546  20.434  12.297
12652W        W81057   5.344  35.242  11.429
12653W        W81058  40.801   7.385  14.988
12654W        W81059  20.966  20.630  11.527
12655W        W81060  22.233  21.406  14.950
12656W        W81061  11.797   2.277   2.693
12657W        W81062  13.898   5.679   3.072
12658W        W81063  38.839  30.568  11.969
12659W        W81064  37.364  22.997   2.407
12660W        W81065   5.232  22.778  11.920
12661W        W81066  20.663  32.931  10.559
12662W        W81067  29.115  21.324   4.690
12663W        W81068  34.897  26.555  11.107
12664W        W81069  11.797  18.640  14.591
12665W        W81070  36.992  41.512   3.369
12666W        W81071  33.676  44.823  10.239
12667W        W81072   4.408  32.659  14.419
12668W        W81073  44.287  14.401   5.287
12669W        W81074  15.157  20.501  14.363
12670W        W81075  39.501  44.513   4.573
12671W        W81076   0.243  30.407   3.272
12672W        W81077  40.194  19.061   4.496
12673W        W81078  43.694  24.495  14.109
12674W        W81079  40.719   0.731  11.866
12675W        W81080   6.405  40.293   2.706
12676W        W81081  11.293   2.523  10.646
12677W        W81082   5.859  32.158   3.799
12678W        W81083  37.972   8.548  13.270
12679W        W81084  17.642  11.676   2.000
12680W        W81085   9.582  40.796  12.070
12681W        W81086  12.891  41.330   4.634
12682W        W81087   0.957  22.588   1.257
12683W        W81088  37.359  40.829   3.768
12684W        W81089  10.850  27.437   1.365
12685W        W81090  14.759  41.326   2.230
12686W        W81091  11.854  35.620   2.591
12687W        W81092  11.256  41.959  14.963
12688W        W81093   4.162  17.219  11.971
12689W        W81094  17.360  14.717  14.741
12690W        W81095   6.106  26.199   0.466
12691W        W81096   4.449   5.144  10.301
12692W        W81097  25.272  35.453  12.080
12693W        W81098   9.323   0.919  11.086
12694W        W81099  36.460  40.182   5.202
12695W        W81100  38.138  27.731  14.417
12696W        W81101  43.553  16.151  11.014
12697W        W81102  36.141  19.083  10.853
12698W        W81103   9.394  28.360   4.539
12699W        W81104  10.155   5.852  10.168
12700W        W81105   8.855  27.585  12.135
12701W        W81106   7.113  42.117   1.817
12702W        W81107   1.937  22.093  14.384
12703W        W81108   8.650  32.993  14.515
12704W        W81109   1.186  15.930   4.068
12705W        W81110  40.444  43.845  10.584
12706W        W81111  44.588  13.637  12.002
12707W        W81112  29.100   9.169  11.617
12708W        W81113  10.117  29.174  13.312
12709W        W81114   1.407  19.852   1.819
12710W        W81115  21.114   5.825   3.093
12711W        W81116   6.707   6.748  12.728
12712W        W81117  41.554  36.497  11.657
12713W        W81118  26.693  31.184  11.543
12714W        W81119  33.408   8.704   3.538
12715W        W81120  10.742   0.513   0.492
12716W        W81121   6.102  26.093   3.202
12717W        W81122  32.638  34.491   0.817
12718W        W81123  14.071  40.495   1.003
12719W        W81124  38.022  31.172   1.322
12720W        W81125  36.543  38.665   0.516
12721W        W81126  37.052   0.109  13.607
12722W        W81127  38.998  27.789   1.382
12723W        W81128  10.450  37.898   3.594
12724W        W81129  16.648  27.743  13.393
12725W        W81130  31.091   2.038  13.231
12726W        W81131  34.974  37.874  10.678
12727W        W81132  40.057  39.473   2.300
12728W        W81133  11.587   5.854   4.363
12729W        W81134  24.154  36.876   1.293
12730W        W81135  24.797  16.684  11.220
12731W        W81136  32.102  10.551  12.686
12732W        W81137  15.609  22.230   0.738
12733W        W81138  23.636  34.607   3.226
12734W        W81139   8.275  13.496   1.452
12735W        W81140  19.710  18.262   4.280
12736W        W81141  18.191  23.467  11.229
12737W        W81142  39.471  34.548  14.795
12738W        W81143  40.359  26.844  13.133
12739W        W81144  31.264  26.214  11.905
12740W        W81145   8.597   0.830  12.144
12741W        W81146  22.594  16.794  12.449
12742W        W81147   6.803  10.409   4.142
12743W        W81148  31.558  22.187  14.282
12744W        W81149  35.569   3.327  14.336
12745W        W81150   3.172  15.191  12.906
12746W        W81151   2.210  24.682  13.100
12747W        W81152  40.367   7.924  11.331
12748W        W81153  33.342  33.376  10.931
12749W        W81154   2.695   1.180   3.687
12750W        W81155  11.816  19.166   1.771
12751W        W81156   2.812  36.436   2.708
12752W        W81157  23.544   6.012  11.222
12753W        W81158  42.039  14.835  12.802
12754W        W81159  31.716  35.402   3.627
12755W        W81160  41.056  44.053  12.824
12756W        W81161  35.427   1.298   3.598
12757W        W81162  22.501  40.019  14.021
12758W        W81163  16.280  21.095   0.900
12759W        W81164   3.474  18.252   2.726
12760W        W81165  18.147  14.558  13.943
12761W        W81166   4.632  39.836   4.583
12762W        W81167   2.793  35.475   0.091
12763W        W81168  34.210  31.083   2.069
12764W        W81169  15.367  16.062  11.962
12765W        W81170   0.305  23.000   0.817
12766W        W81171  13.582  19.212   2.160
12767W        W81172  23.540  10.419  12.539
12768W        W81173  44.301  36.482   2.655
12769W        W81174  32.749  23.516  11.471
12770W        W81175  19.750  14.576   3.773
12771W        W81176  20.266  41.317   3.667
12772W        W81177  38.236  20.853   1.288
12773W        W81178   5.760   9.880  13.029
12774W        W81179  25.475  14.797   3.145
12775W        W81180  33.416  24.222   5.096
12776W        W81181   1.140  33.595   2.344
12777W        W81182  33.437  33.538   9.865
12778W        W81183  35.520  32.476  14.042
12779W        W81184  14.038  20.171   1.385
12780W        W81185   0.838  33.755  13.748
12781W        W81186  21.595   1.551   3.105
12782W        W81187  41.470   9.360  13.455
12783W        W81188  31.125   5.921   4.392
12784W        W81189  35.230   2.318  11.032
12785W        W81190  20.083  43.068  10.899
12786W        W81191  27.983   8.351  12.182
12787W        W81192  27.376  21.988   1.860
12788W        W81193  43.212  16.848   2.808
12789W        W81194  38.930  21.647  11.200
12790W        W81195  19.442  32.137  13.181
12791W        W81196  42.374  22.781  11.927
12792W        W81197  37.787  43.316  13.396
12793W        W81198  12.653   8.598   1.677
12794W        W81199  36.160  43.385   3.304
12795W        W81200  30.689  29.618   0.176
12796W        W81201  26.067  33.356  13.019
12797W        W81202   3.472  27.452   2.753
12798W        W81203   9.639  31.645  13.449
12799W        W81204  22.779  36.669  12.624
12800W        W81205  15.030  39.118  12.537
12801W        W81206  29.931  31.495   3.219
12802W        W81207   9.282  26.129  14.512
12803W        W81208  27.393  30.950   1.202
12804W        W81209  15.275  26.288  11.031
12805W        W81210  22.857  13.552   1.382
12806W        W81211   7.790  35.363  12.401
12807W        W81212  24.050  18.768  12.749
12808W        W81213  43.434  32.985   3.969
12809W        W81214  11.362  28.520   5.003
12810W        W81215  40.489  34.265  13.020
12811W        W81216  36.880   3.723  12.825
12812W        W81217  10.610  37.699  12.438
12813W        W81218  23.071  19.899  14.328
12814W        W81219  41.930   4.339   0.251
12815W        W81220  43.495  30.817   3.851
12816W        W81221  33.829   2.095  13.046
12817W        W81222  26.573  11.097  10.983
12818W        W81223  36.254  38.712  11.637
12819W        W81224  23.207   3.831   4.628
12820W        W81225  29.924  31.066   1.915
12821W        W81226  30.423  40.910  13.555
12822W        W81227  35.950  35.339   2.194
12823W        W81228  13.696  35.148   2.285
12824W        W81229  22.605   6.130   2.810
12825W        W81230   1.243  42.596  14.820
12826W        W81231  17.606  39.355   3.044
12827W        W81232  32.797  13.207  12.908
12828W        W81233   8.352  18.280   2.798
12829W        W81234   4.478  29.500  13.999
12830W        W81235  40.634  29.627   4.614
12831W        W81236  34.966   6.862  14.837
12832W        W81237  31.146  35.315  13.978
12833W        W81238  33.035  13.632   1.480
12834W        W81239  38.034  20.062  12.448
12835W        W81240  39.748  18.366  10.508
12836W        W81241  18.815  32.628   4.585
12837W        W81242   2.427  13.905   0.852
12838W        W81243  28.651   7.687  13.722
12839W        W81244   6.572  18.842   3.350
12840W        W81245   8.235   1.738  11.269
12841W        W81246  44.434   8.833  10.196
12842W        W81247   5.881  16.718   2.811
12843W        W81248  35.384  18.287   1.933
12844W        W81249   8.625  24.579  10.666
12845W        W81250   1.816   8.238  13.979
12846W        W81251  36.910   3.863  14.454
12847W        W81252  19.376  23.111   1.715
12848W        W81253  26.493  18.201   5.043
12849W        W81254  27.177  35.415   4.152
12850W        W81255  22.379  18.337  11.421
12851W        W81256  35.486   1.028  11.385
12852W        W81257  38.582  28.029  14.030
12853W        W81258  43.406  34.609  11.610
12854W        W81259  43.990  44.288   3.415
12855W        W81260   8.782  38.367   4.641
12856W        W81261  16.147  21.759   3.077
12857W        W81262  35.187  24.202   1.922
12858W        W81263  26.491  25.626  13.554
12859W        W81264  22.590   6.802  14.494
12860W        W81265   6.250  29.395  10.574
12861W        W81266   9.633  23.944  12.207
12862W        W81267  29.491  32.610   4.219
12863W        W81268  26.580  36.426  12.536
12864W        W81269  16.824  14.163   4.716
12865W        W81270   0.352   0.412   2.378
12866W        W81271  28.935  36.490  14.130
12867W        W81272  19.868   5.803  10.145
12868W        W81273   8.380  41.579  13.046
12869W        W81274  15.149  35.619   1.818
12870W        W81275  14.163  43.437   1.882
12871W        W81276  42.402  40.045   4.768
12872W        W81277  32.107  23.281  10.778
12873W        W81278   1.113  13.740   4.903
12874W        W81279   4.935   5.785  14.386
12875W        W81280   6.246   9.674  13.023
12876W        W81281   5.783   7.755  13.970
12877W        W81282  17.569  43.864   0.086
12878W        W81283   4.531  24.068  11.912
12879W        W81284  15.858   3.315   3.254
12880W        W81285  18.268   9.813   5.447
12881W        W81286   1.814  44.613  12.175
12882W        W81287   5.890  16.985  13.861
12883W        W81288   4.333  28.006   4.117
12884W        W81289  13.204  29.335  14.854
12885W        W81290  36.651  15.117  12.387
12886W        W81291   7.763   4.887  10.726
12887W        W81292  42.523  18.239  13.895
12888W        W81293  17.113  32.616   1.224
12889W        W81294  42.729  34.862  12.177
12890W        W81295  43.776  33.471   3.323
12891W        W81296  19.534  31.225  13.888
12892W        W81297  36.818  27.630   0.330
12893W        W81298  43.813  11.298   1.382
12894W        W81299  38.381  31.021   4.664
12895W        W81300  26.521   5.027   3.023
12896W        W81301   4.411  24.163  10.614
12897W        W81302  16.481  22.055   2.771
12898W        W81303  10.988  12.151   4.306
12899W        W81304  44.005  29.373   0.268
12900W        W81305  42.199  31.439   2.315
12901W        W81306  42.810  30.947  12.838
12902W        W81307  14.661   5.370   3.141
12903W        W81308   2.961   4.011  14.683
12904W        W81309  44.786   6.322   4.039
12905W        W81310  23.733  12.251   4.455
12906W        W81311  35.857   5.278  13.928
12907W        W81312  19.300  23.044   3.104
12908W        W81313  42.952  16.801  10.738
12909W        W81314  20.271  41.789  13.782
12910W        W81315  40.485  30.386  13.509
12911W        W81316  11.882  18.979  13.834
12912W        W81317  20.067   5.602  13.958
12913W        W81318  22.461  22.530  14.178
12914W        W81319  16.907  13.359  14.361
12915W        W81320  13.137  22.535  13.066
12916W        W81321  16.833  37.365  12.905
12917W        W81322  36.753  37.911   3.648
12918W        W81323  21.610  31.999   1.714
12919W        W81324  23.577  18.058  13.242
12920W        W81325   1.257  26.953   0.280
12921W        W81326  42.714  36.896  14.873
12922W        W81327  43.212  24.617  14.204
12923W        W81328  34.009  16.043  14.269
12924W        W81329   7.159  16.301  12.384
12925W        W81330  24.117  38.961   0.778
12926W        W81331   0.380  41.382   1.019
12927W        W81332  32.061  21.975  14.535
12928W        W81333  17.777  22.630  13.904
12929W        W81334  32.503  23.489  14.093
12930W        W81335   2.399  40.940   3.565
12931W        W81336  16.553  31.141  11.580
12932W        W81337   8.681  27.200  10.980
12933W        W81338   6.958  30.418  11.391
12934W        W81339   5.444  27.664   4.922
12935W        W81340   3.099  15.436   0.320
12936W        W81341  34.022  24.162   3.357
12937W        W81342  38.070  12.289  11.713
12938W        W81343   5.339   5.742   3.686
12939W        W81344  25.080  38.972   1.071
12940W        W81345  12.128  25.809  11.176
12941W        W81346   0.379  36.629   1.340
12942W        W81347  28.673  41.945   4.508
12943W        W81348   9.262  30.635   9.823
12944W        W81349  31.889  33.219  12.495
12945W        W81350   1.211  33.393   3.735
12946W        W81351   1.761   9.799  11.044
12947W        W81352  24.748   4.793   2.801
12948W        W81353  11.610  22.506  12.031
12949W        W81354  39.086   3.331   2.716
12950W        W81355   6.712  25.694  10.472
12951W        W81356   2.492  21.843   0.523
12952W        W81357  38.208  22.458  13.794
12953W        W81358  35.892  19.623   1.650
12954W        W81359  27.184  22.242  14.061
12955W        W81360  17.583  31.485   1.904
12956W        W81361  42.398  19.505  11.582
12957W        W81362  14.331  44.730   3.811
12958W        W81363  24.641   7.972   3.518
12959W        W81364  25.059  10.795  11.408
12960W        W81365  13.113  43.048   4.108
12961W        W81366   5.971  21.206   3.686
12962W        W81367   0.907   4.675   4.541
12963W        W81368  40.390  38.672  10.306
12964W        W81369  19.997  22.599  12.044
12965W        W81370   9.877   4.783   3.223
12966W        W81371  19.153  14.442  12.472
12967W        W81372  15.228  29.107  10.927
12968W        W81373   3.436   7.953  13.205
12969W        W81374  44.721  20.805  13.056
12970W        W81375  22.771   3.893   3.063
12971W        W81376  35.407  14.544  12.384
12972W        W81377  16.194   8.305  12.002
12973W        W81378  28.000   4.909  11.445
12974W        W81379   1.781  32.042  13.381
12975W        W81380  38.801   4.779  14.826
12976W        W81381  19.309   7.136   2.802
12977W        W81382   5.996  37.556  14.956
12978W        W81383  43.394  42.820   1.417
12979W        W81384  16.281  37.904   0.350
12980W        W81385  17.740  25.995  13.807
12981W        W81386   4.235  10.743   3.685
12982W        W81387   9.140  41.526  14.875
12983W        W81388  27.306  28.805  12.102
12984W        W81389  34.414  26.057  12.903
12985W        W81390  28.224   8.864   0.351
12986W        W81391  20.572  36.355   0.343
12987W        W81392   3.374  30.947  14.266
12988W        W81393   5.259  19.628   4.496
12989W        W81394  30.343  39.894   3.772
12990W        W81395  42.600  43.759  14.408
12991W        W81396   8.406  27.379   1.680
12992W        W81397  24.711  22.098  10.750
12993W        W81398  37.613   5.446  14.901
12994W        W81399   8.767  13.189   0.901
12995W        W81400  35.110  12.106   4.494
12996W        W81401  11.563   0.916   0.809
12997W        W81402  12.327   8.315  14.000
12998W        W81403  34.975  20.509  10.751
12999W        W81404  39.366  31.093  10.593
13000W        W81405  15.040  38.946   0.404
13001W        W81406  23.296  42.346   0.568
13002W        W81407  24.953  23.447  14.571
13003W        W81408  27.697  18.194   1.229
13004W        W81409  36.707  38.085  12.206
13005W        W81410   7.552  19.653   0.039
13006W        W81411   5.223  29.666   3.859
13007W        W81412  26.054  14.124   2.291
13008W        W81413  21.028   5.421  13.858
13009W        W81414   1.272  13.620  14.379
13010W        W81415  39.909  25.208   3.911
13011W        W81416   5.750  30.243   5.398
13012W        W81417  14.587  31.603   3.726
13013W        W81418  40.583  28.730   3.128
13014W        W81419  22.787  30.923  14.781
13015W        W81420  11.863  18.058   2.165
13016W        W81421  29.571  16.117  12.210
13017W        W81422   9.312  13.188   3.891
13018W        W81423  39.062  33.140  14.831
13019W        W81424  31.459   2.335  13.510
13020W        W81425  29.422   8.743  13.786
13021W        W81426  44.719  17.838  12.028
13022W        W81427   5.546  34.988  11.022
13023W        W81428   9.932   6.964  13.842
13024W        W81429  18.304  12.205   4.382
13025W        W81430  41.940  16.674   4.577
13026W        W81431   4.214  25.575  13.448
13027W        W81432  43.915  16.261  12.873
13028W        W81433  11.338  15.081   4.109
13029W        W81434  29.199  42.998  14.329
13030W        W81435  18.344  21.795  14.480
13031W        W81436  22.746  28.056  10.473
13032W        W81437   9.406  23.376  13.426
13033W        W81438  36.845  30.549  12.890
13034W        W81439  16.832   8.124   3.619
13035W        W81440  27.485  22.584   4.047
13036W        W81441  27.116   2.079   4.369
13037W        W81442  19.807  30.455   3.247
13038W        W81443   6.338  35.453  11.168
13039W        W81444   6.908  11.271   4.531
13040W        W81445  17.277   0.415  12.577
13041W        W81446  44.508  34.371   2.991
13042W        W81447  27.678  11.248   4.545
13043W        W81448   1.210  12.063   1.869
13044W        W81449  41.120  12.736   1.979
13045W        W81450  32.778  34.097  13.095
13046W        W81451  43.952  41.689  10.679
13047W        W81452  23.545  33.402   3.960
13048W        W81453   8.654   7.054  12.009
13049W        W81454  36.607  12.090  11.593
13050W        W81455  31.131  38.738  11.037
13051W        W81456  26.061   4.093  12.956
13052W        W81457  43.367   8.645  11.333
13053W        W81458  40.806  24.669   2.603
13054W        W81459  33.823  25.011  11.885
13055W        W81460  14.558  34.354   9.952
13056W        W81461   2.524  21.082   3.292
13057W        W81462  39.300  29.837   3.214
13058W        W81463  28.398  44.930   4.449
13059W        W81464  27.697  39.031  13.976
13060W        W81465   4.933  16.209  13.511
13061W        W81466  29.552   0.968  13.878
13062W        W81467   4.002   1.928   1.767
13063W        W81468  23.070  27.489  10.658
13064W        W81469  39.479  11.390   1.354
13065W        W81470  23.641  42.594   0.912
13066W        W81471   2.304  15.266   3.600
13067W        W81472  33.116   1.422   2.636
13068W        W81473  14.621  32.010   2.374
13069W        W81474  34.356  38.408   3.627
13070W        W81475  38.509  12.173   2.295
13071W        W81476  32.454  15.260   0.708
13072W        W81477  30.056  35.117  12.733
13073W        W81478   3.461   3.884   1.905
13074W        W81479  42.479  38.401  12.658
13075W        W81480  27.941  37.546  12.432
13076W        W81481  42.476  13.113   4.572
13077W        W81482  11.865  26.498  14.221
13078W        W81483  36.997  14.854  13.196
13079W        W81484  26.442  16.811  13.581
13080W        W81485  33.432  38.865   5.117
13081W        W81486  29.005   6.508   1.001
13082W        W81487   5.917  41.540  12.002
13083W        W81488  31.965  27.852   1.248
13084W        W81489  25.309  39.632   2.348
13085W        W81490  16.650  15.084   4.440
13086W        W81491   0.796  17.633   3.732
13087W        W81492  28.995  17.318   2.216
13088W        W81493  28.569  42.539   2.192
13089W        W81494  24.268  35.950  14.481
13090W        W81495  22.308  21.181   2.959
13091W        W81496  32.607   0.267   0.612
13092W        W81497  42.896  31.870   1.326
13093W        W81498  29.528  21.258  14.486
13094W        W81499  36.416  32.046  14.598
13095W        W81500   7.421  35.584  13.536
13096W        W81501  25.698  10.805   4.889
13097W        W81502  38.473  25.449   0.437
13098W        W81503  40.900  29.136  13.788
13099W        W81504  18.928  16.495  11.149
13100W        W81505  20.616  32.650  12.396
13101W        W81506  35.901   9.347   2.628
13102W        W81507   8.624  36.658   4.245
13103W        W81508  33.441   9.492   2.200
13104W        W81509  11.331  37.299   2.335
13105W        W81510   3.223  37.846  14.043
13106W        W81511  14.260  22.589   0.875
13107W        W81512  25.459   0.012  14.316
13108W        W81513   6.679  13.176  11.971
13109W        W81514  28.488  41.968   2.730
13110W        W81515   9.372   7.841   1.514
13111W        W81516   8.958  29.678   1.435
13112W        W81517  38.517  19.972  11.633
13113W        W81518  26.599  26.412  13.905
13114W        W81519   4.281  38.312  12.532
13115W        W81520   8.659  23.046  12.981
13116W        W81521  25.618  30.757  12.141
13117W        W81522  19.170  23.523   0.903
13118W        W81523  23.593  41.365  14.721
13119W        W81524  37.883  16.328  12.854
13120W        W81525   1.328  18.994  11.515
13121W        W81526  17.368   6.885   0.004
13122W        W81527  44.847  24.411  10.731
13123W        W81528   0.652   3.563  12.814
13124W        W81529  16.136  18.395  13.881
13125W        W81530  26.207  19.292  12.867
13126W        W81531  37.798  30.426  14.925
13127W        W81532  32.285  14.279   1.412
13128W        W81533  27.603  13.632  11.461
13129W        W81534  38.953   6.390   4.959
13130W        W81535  40.806  13.756  12.464
13131W        W81536   3.704  23.534  14.467
13132W        W81537  11.355  41.058   1.151
13133W        W81538  19.283   8.738   2.736
13134W        W81539   3.462  37.222   3.709
13135W        W81540  39.763  20.619   4.820
13136W        W81541  36.472   8.474  12.604
13137W        W81542  22.199  19.525   4.165
13138W        W81543  36.588   2.224  11.955
13139W        W81544   5.713  29.690   3.759
13140W        W81545  35.571  43.405  10.651
13141W        W81546  14.571  39.181  13.427
13142W        W81547  41.122  37.498   0.254
13143W        W81548  22.701   9.394   2.897
13144W        W81549  16.351  44.368   2.278
13145W        W81550  22.611  20.490   0.094
13146W        W81551   6.107   4.549  12.044
13147W        W81552  32.407  40.238  10.251
13148W        W81553  11.022  27.481  11.131
13149W        W81554  21.162  42.117   2.654
13150W        W81555  41.806  17.012   3.002
13151W        W81556  18.714  30.432  13.404
13152W        W81557  11.070  14.148  14.871
13153W        W81558  15.340  30.197   5.044
13154W        W81559  42.397   3.819   4.897
13155W        W81560  19.091  41.439   4.423
13156W        W81561  17.834  17.092   2.907
13157W        W81562   4.536  11.945   4.983
13158W        W81563  28.737  34.127  12.571
13159W        W81564  17.766  40.170   1.140
13160W        W81565  27.158   9.285   1.325
13161W        W81566  17.618  44.525  12.507
13162W        W81567  34.599  10.284  12.585
13163W        W81568  28.984  13.819   0.266
13164W        W81569   0.910  27.272  10.551
13165W        W81570  42.503   3.368   3.619
13166W        W81571   3.827  30.435   5.048
13167W        W81572  34.732  11.576  14.983
13168W        W81573  13.854  39.407   1.818
13169W        W81574  20.144  28.063  14.344
13170W        W81575  17.262  12.182   2.098
13171W        W81576  24.211   6.354   0.706
13172W        W81577  42.911  13.801   4.488
13173W        W81578   6.450   6.342  13.420
13174W        W81579  39.898   4.810   3.806
13175W        W81580   6.930   4.750  11.870
13176W        W81581  12.705  44.708  10.287
13177W        W81582  33.126  11.936  14.384
13178W        W81583  43.273  20.192  14.914
13179W        W81584  30.463  16.213   3.193
13180W        W81585  25.195  29.652  12.875
13181W        W81586  10.340   7.565  14.988
13182W        W81587   7.206   8.371  10.960
13183W        W81588  18.690  21.122   4.512
13184W        W81589  15.311  25.140  12.696
13185W        W81590  28.967  28.234   4.454
13186W        W81591  23.071  36.427   4.499
13187W        W81592  33.939  17.076  12.850
13188W        W81593  43.062  33.482   1.815
13189W        W81594  32.458  18.156  13.596
13190W        W81595  43.003   7.158   1.430
13191W        W81596  32.859  10.862  11.718
13192W        W81597  10.340  41.422  14.341
13193W        W81598  14.051  26.492   3.759
13194W        W81599  11.797  31.173   1.469
13195W        W81600  27.907   7.956   4.078
13196W        W81601  23.565  27.661  10.653
13197W        W81602   2.384   1.695   3.164
13198W        W81603   1.264  18.153   0.580
13199W        W81604  20.683   8.706  10.177
13200W        W81605  44.543  24.355  14.450
13201W        W81606   5.471  31.390   4.325
13202W        W81607  11.196  18.340  13.913
13203W        W81608  29.982  33.034  14.545
13204W        W81609  20.253  21.922  12.626
13205W        W81610  19.500   1.321  14.502
13206W        W81611   2.536   5.948   0.735
13207W        W81612  36.472  30.212  11.150
13208W        W81613  43.433  20.022   3.194
13209W        W81614  43.861  34.641   0.254
13210W        W81615  21.116  30.413  12.383
13211W        W81616  23.971  41.085   0.479
13212W        W81617  37.212  21.988   2.302
13213W        W81618  43.906  15.328   1.885
13214W        W81619  42.271  26.076  11.679
13215W        W81620  24.171  19.781   1.398
13216W        W81621  10.650  38.710  13.473
13217W        W81622  42.194  10.185  12.474
13218W        W81623  34.734  35.497  11.454
13219W        W81624   8.846  33.591   3.566
13220W        W81625  15.579  26.937  13.105
13221W        W81626  16.547   5.798   3.795
13222W        W81627  30.021  37.306  11.001
13223W        W81628  20.986  24.495   1.197
13224W        W81629   4.234  33.337   2.389
13225W        W81630  33.504   5.218   4.682
13226W        W81631  43.515   0.863   4.503
13227W        W81632  28.468  15.126   4.999
13228W        W81633  37.502  19.063   4.455
13229W        W81634  25.567   6.174  12.502
13230W        W81635  27.053  15.556   3.123
13231W        W81636  29.429  16.013  10.685
13232W        W81637  42.956   8.579   4.832
13233W        W81638  41.576  30.600  13.311
13234W        W81639   6.413   3.782   0.697
13235W        W81640  15.077  11.227   0.806
13236W        W81641   7.853  14.077   3.059
13237W        W81642  43.379  14.134  11.655
13238W        W81643  40.498   9.606  13.117
13239W        W81644  26.379  43.216  11.123
13240W        W81645  22.186  20.200   0.945
13241W        W81646  19.367  23.189  14.296
13242W        W81647  36.856  27.993   2.632
13243W        W81648  23.783  28.248   2.203
13244W        W81649   5.264  26.122   2.772
13245W        W81650  13.070  32.549  10.124
13246W        W81651   9.424  15.071   2.797
13247W        W81652  21.628  28.039  13.348
13248W        W81653  44.528  21.725  10.630
13249W        W81654  15.774  21.748   4.769
13250W        W81655  27.887  19.400  12.469
13251W        W81656  33.847  20.190   1.374
13252W        W81657   4.603  17.613  11.074
13253W        W81658   5.802  14.324  11.982
13254W        W81659  43.723  10.375   2.643
13255W        W81660  22.568  21.763   2.107
13256W        W81661  32.844  28.701  13.958
13257W        W81662  20.081  34.522  14.745
13258W        W81663  10.705  11.208   3.502
13259W        W81664  32.495  17.864  14.035
13260W        W81665  20.799   3.258   2.364
13261W        W81666  27.160  31.383  11.529
13262W        W81667   3.751  40.856   1.685
13263W        W81668  35.476  22.294  12.070
13264W        W81669  44.109  37.966  11.303
13265W        W81670  39.069  26.385  10.328
13266W        W81671  22.505  32.511   1.927
13267W        W81672  14.087   5.600   3.882
13268W        W81673   4.572  18.644  11.990
13269W        W81674  37.991   3.720   2.471
13270W        W81675   5.169   3.882  14.012
13271W        W81676   5.931  11.003  11.530
13272W        W81677  12.784  22.017  14.940
13273W        W81678  21.262  25.042   2.365
13274W        W81679  29.634  14.216   4.122
13275W        W81680  38.864  20.180   4.373
13276W        W81681   0.093  16.653  12.449
13277W        W81682  34.346  22.751   2.423
13278W        W81683   2.347  10.821   3.422
13279W        W81684  24.437  25.424  12.109
13280W        W81685  31.423  37.913  14.521
13281W        W81686  27.256  25.162  14.290
13282W        W81687  33.512  42.292   3.214
13283W        W81688   0.814   5.849  13.793
13284W        W81689   9.922  22.724   2.865
13285W        W81690  29.622  10.396   0.356
13286W        W81691  24.828  12.393  12.360
13287W        W81692  15.975  38.787  13.341
13288W        W81693  19.740  34.781  10.998
13289W        W81694  28.589  35.389  14.170
13290W        W81695  20.791  17.306   0.221
13291W        W81696  13.800  41.397  11.188
13292W        W81697  40.597  29.611  10.904
13293W        W81698  21.039  43.140   5.037
13294W        W81699  33.563   7.273  12.431
13295W        W81700  13.278  13.159  13.717
13296W        W81701  28.946  42.871  13.144
13297W        W81702  32.347  39.569  14.065
13298W        W81703  13.763  23.069   1.266
13299W        W81704   2.690   0.023  12.017
13300W        W81705  28.057  44.914   2.764
13301W        W81706  10.230  28.715  11.338
13302W        W81707   9.745   6.218   4.678
13303W        W81708  29.478  30.494   2.317
13304W        W81709  34.677  40.881  13.045
13305W        W81710  12.635  16.228  10.712
13306W        W81711  22.586  31.989  14.394
13307W        W81712   2.934  43.754   4.518
13308W        W81713  32.890   1.567  11.616
13309W        W81714  42.289  40.287  12.655
13310W        W81715  35.477  33.489   2.235
13311W        W81716  33.379  18.351  11.620
13312W        W81717   9.057   3.921   3.798
13313W        W81718  44.731   2.503  11.540
13314W        W81719  17.869   0.933   1.307
13315W        W81720  37.225  41.482  11.559
13316W        W81721  32.125  32.350  11.169
13317W        W81722   0.994  37.644   3.657
13318W        W81723  27.753  28.246  12.027
13319W        W81724   9.427  15.860   3.239
13320W        W81725  25.262   9.297   0.895
13321W        W81726  28.592  18.521  11.179
13322W        W81727   9.388  14.363   3.173
13323W        W81728  40.787  31.428  11.865
13324W        W81729  25.108   7.443  10.693
13325W        W81730  37.181  24.983  12.462
13326W        W81731  18.029   1.827  11.484
13327W        W81732   7.024  43.790  11.277
13328W        W81733  12.073  25.820  10.678
13329W        W81734  18.092  13.645  10.698
13330W        W81735   4.750  37.351  11.108
13331W        W81736  21.407  37.925  13.377
13332W        W81737   0.948  36.597   3.127
13333W        W81738  30.147  17.126  14.812
13334W        W81739  15.232   5.759  14.640
13335W        W81740   1.313   9.963  12.488
13336W        W81741  39.799  40.331   1.915
13337W        W81742   4.708  40.394  13.820
13338W        W81743  12.482  11.824   4.068
13339W        W81744   0.739  33.890  10.634
13340W        W81745  41.774  34.577   4.460
13341W        W81746  41.153  40.025  13.409
13342W        W81747  28.882   7.120  11.554
13343W        W81748   3.458  31.941   3.574
13344W        W81749   2.922  11.628  10.740
13345W        W81750  33.418  18.733  14.819
13346W        W81751  15.312  17.832  14.007
13347W        W81752  21.025  44.376   3.257
13348W        W81753  35.148  26.116  11.177
13349W        W81754  38.568   6.500  11.734
13350W        W81755  36.364  27.357   3.235
13351W        W81756  42.248  33.129  10.951
13352W        W81757  26.164  40.274  11.562
13353W        W81758  41.983  25.459   0.407
13354W        W81759   2.853  43.442  10.517
13355W        W81760  11.197  31.992  12.580
13356W        W81761  18.248  21.051   0.817
13357W        W81762  24.367   4.093   2.431
13358W        W81763  35.566  18.821  11.311
13359W        W81764  41.666   6.290   5.288
13360W        W81765  25.952  43.208  12.336
13361W        W81766   6.728   4.766   1.972
13362W        W81767   7.237  38.348  12.926
13363W        W81768  11.340  17.636  11.024
13364W        W81769  39.056  27.568  11.197
13365W        W81770  44.017  17.738   0.292
13366W        W81771  29.475  35.164   3.883
13367W        W81772  33.926  26.616  12.464
13368W        W81773  28.244  44.407   3.785
13369W        W81774  12.131  37.183  10.690
13370W        W81775   7.686  39.656   2.168
13371W        W81776  17.154  14.239  14.787
13372W        W81777  43.168   5.774  13.145
13373W        W81778  23.073  13.291   1.772
13374W        W81779  19.953  39.493   3.715
13375W        W81780  10.354  17.286  13.769
13376W        W81781  18.326  44.273   4.802
13377W        W81782  36.087  32.445   0.743
13378W        W81783  22.071  26.166  12.013
13379W        W81784  29.672  27.011   3.208
13380W        W81785  28.947  42.404   4.091
13381W        W81786  44.331  35.628  13.952
13382W        W81787  13.392  26.041  12.140
13383W        W81788  23.599  17.537  13.192
13384W        W81789  37.888  19.125  11.522
13385W        W81790  23.761  37.610   9.837
13386W        W81791   9.288  40.284  14.066
13387W        W81792  39.869  28.072   0.030
13388W        W81793  16.090  21.479  13.404
13389W        W81794   4.506  32.404  14.894
13390W        W81795  43.705  22.169   0.712
13391W        W81796  12.251  38.546  14.189
13392W        W81797  28.618  38.408   0.796
13393W        W81798  40.787  28.044   0.360
13394W        W81799   7.014  11.362   4.039
13395W        W81800  42.956  23.660  10.908
13396W        W81801  34.906  10.081   1.472
13397W        W81802  11.659   5.169  14.010
13398W        W81803  19.407  32.803   1.971
13399W        W81804   8.444   1.553  14.387
13400W        W81805  38.770  18.310  10.954
13401W        W81806   9.621  27.502   0.401
13402W        W81807   1.011  26.441   0.272
13403W        W81808   8.267  13.797   4.163
13404W        W81809  24.733  21.078   0.378
13405W        W81810  12.632  32.408  12.948
13406W        W81811  15.801   5.352   0.908
13407W        W81812   7.294  28.705   3.144
13408W        W81813   7.673   1.899  14.748
13409W        W81814  30.584  21.190  11.384
13410W        W81815   8.345  20.146   3.232
13411W        W81816   3.735   0.414   3.182
13412W        W81817   6.666  33.857   3.809
13413W        W81818  22.324  13.590  12.521
13414W        W81819   2.265  13.340   4.530
13415W        W81820   5.309   9.939   2.873
13416W        W81821   0.812   8.438   2.193
13417W        W81822  15.596  11.465  13.462
13418W        W81823  27.668  42.504   0.874
13419W        W81824  16.096  37.632   2.287
13420W        W81825   2.588  24.773  13.560
13421W        W81826  15.284  23.131   0.363
13422W        W81827  19.105  40.582   3.216
13423W        W81828  29.901   0.994   2.216
13424W        W81829  35.313  25.574   0.352
13425W        W81830  37.692  35.054   0.517
13426W        W81831  18.730  17.610  14.965
13427W        W81832  43.782   6.595   4.112
13428W        W81833   5.392  29.913  14.546
13429W        W81834  37.896   8.089   4.087
13430W        W81835  12.835  36.557  12.560
13431W        W81836  35.932  25.668   2.936
13432W        W81837  40.726   5.324  13.461
13433W        W81838  43.028  16.297  11.941
13434W        W81839  27.775  35.825   5.076
13435W        W81840  39.140  24.667  13.371
13436W        W81841   7.258  30.970   2.917
13437W        W81842  23.271  23.587   3.678
13438W        W81843  39.110  43.290  12.437
13439W        W81844  22.727  29.577   1.895
13440W        W81845  32.513   7.704   4.643
13441W        W81846  28.266  35.798   3.340
13442W        W81847  10.944   6.392   4.263
13443W        W81848  18.498  31.666  13.048
13444W        W81849  20.470  43.768  14.335
13445W        W81850   8.415  36.441   4.690
13446W        W81851   9.885  21.340  14.584
13447W        W81852  22.190   2.654  11.880
13448W        W81853   1.675  40.403   2.651
13449W        W81854  27.845   5.464   4.932
13450W        W81855   1.827   3.183   4.133
13451W        W81856  20.024   0.813   1.503
13452W        W81857  42.420   7.129  12.843
13453W        W81858  21.958   6.807  11.119
13454W        W81859  14.836  42.711   4.489
13455W        W81860  19.363  44.263  10.584
13456W        W81861  17.938   0.231   4.081
13457W        W81862   7.297   5.359  11.156
13458W        W81863  24.880  25.185  12.157
13459W        W81864  12.702  42.282   2.213
13460W        W81865   0.984  38.570   4.727
13461W        W81866  22.761  14.048   1.380
13462W        W81867  17.130  25.227   1.066
13463W        W81868  13.710  30.928   4.409
13464W        W81869  31.017   9.933  14.118
13465W        W81870  32.034  28.088   0.458
13466W        W81871  35.881  35.416   4.127
13467W        W81872  35.210  24.976  10.468
13468W        W81873  35.796  44.319  11.047
13469W        W81874  42.935   9.757   0.066
13470W        W81875  10.379  42.424  12.500
13471W        W81876  44.579   7.345   4.234
13472W        W81877  38.810  40.350  14.749
13473W        W81878  43.703  33.520   2.818
13474W        W81879  17.493   1.782   0.206
13475W        W81880   6.425   5.102  11.046
13476W        W81881   6.459  15.704  13.436
13477W        W81882  26.223   1.141   2.658
13478W        W81883  10.110  26.607   5.087
13479W        W81884  14.714  16.346  14.843
13480W        W81885  34.559  32.058  13.081
13481W        W81886  30.614  40.125   5.034
13482W        W81887   1.539   8.826   3.366
13483W        W81888  42.323   6.428   1.682
13484W        W81889  25.236  12.083  11.469
13485W        W81890  39.836  39.925  11.670
13486W        W81891   0.236  37.407  14.371
13487W        W81892  34.253  25.013   5.002
13488W        W81893  44.263  13.719   3.637
13489W        W81894  31.348  26.212   2.057
13490W        W81895  40.051  36.920   4.853
13491W        W81896   8.052  42.926  11.668
13492W        W81897  41.423  28.502  11.643
13493W        W81898  12.280  26.905   1.598
13494W        W81899  14.168  30.500   2.900
13495W        W81900  12.836  22.237  13.353
13496W        W81901  21.012  21.186   0.344
13497W        W81902  26.191  40.000  11.057
13498W        W81903   8.262  30.304   4.052
13499W        W81904  15.046  19.288   0.490
13500W        W81905  37.993  33.538  12.957
13501W        W81906  37.942  40.904  13.537
13502W        W81907  35.524  14.358  14.741
13503W        W81908  32.978  27.947   1.548
13504W        W81909   6.914  38.311   4.306
13505W        W81910  36.688   3.935  11.770
13506W        W81911   5.277  13.376   4.772
13507W        W81912  32.548  44.749   0.724
13508W        W81913  23.909   0.181  13.175
13509W        W81914  10.874  12.295   0.999
13510W        W81915  29.085  37.756  11.098
13511W        W81916  40.300  25.617   1.579
13512W        W81917  18.255  13.530  13.969
13513W        W81918  21.544  41.749  13.011
13514W        W81919  35.130  35.451   1.227
13515W        W81920  25.120  22.310  10.417
13516W        W81921  12.755  31.455   2.617
13517W        W81922  36.797   7.375   1.476
13518W        W81923  28.059  29.796   4.895
13519W        W81924  16.320   2.932  10.083
13520W        W81925  38.307  37.597   9.957
13521W        W81926  35.606  21.867   1.464
13522W        W81927  37.846  38.663   0.163
13523W        W81928  28.463  41.713   4.089
13524W        W81929  32.488  30.360  13.104
13525W        W81930  17.101   0.025   3.690
13526W        W81931   8.135   4.241  12.945
13527W        W81932  44.110  42.202   4.202
13528W        W81933   1.325  27.257  14.043
13529W        W81934   1.555  12.802  10.451
13530W        W81935   6.249  38.448   3.526
13531W        W81936  44.210  13.925   0.160
13532W        W81937   4.445   9.249   2.403
13533W        W81938   6.724   3.809  13.913
13534W        W81939  36.707  15.804   0.326
13535W        W81940  19.719  29.131   1.250
13536W        W81941  13.269  30.203   0.878
13537W        W81942  17.810   8.353  14.401
13538W        W81943   0.786  23.751  13.870
13539W        W81944  40.803  12.303   1.832
13540W        W81945   4.479  26.611  12.664
13541W        W81946  41.547  39.107  14.117
13542W        W81947  36.493  30.105   2.939
13543W        W81948  25.439  27.094   4.222
13544W        W81949  17.892  40.047   4.766
13545W        W81950  36.097  23.001   2.811
13546W        W81951  13.672  42.210  13.117
13547W        W81952  21.070  29.024   4.795
13548W        W81953  20.221  17.316   3.703
13549W        W81954  43.113  24.003  13.553
13550W        W81955  21.850   0.964  13.558
13551W        W81956  28.139  25.970   4.112
13552W        W81957  19.204  21.599   4.608
13553W        W81958  34.198  19.506   4.744
13554W        W81959  13.455  14.607   3.898
13555W        W81960  32.522  29.065   1.255
13556W        W81961  41.459  34.923  13.234
13557W        W81962  43.822  24.682   1.284
13558W        W81963   8.825  12.663  12.029
13559W        W81964   3.720  39.271  13.041
13560W        W81965  40.901  18.983  11.183
13561W        W81966  30.134  24.575  14.773
13562W        W81967  11.790   5.692   0.476
13563W        W81968  36.959  19.583  11.622
13564W        W81969  37.134   0.767   0.194
13565W        W81970  31.346  14.079   2.444
13566W        W81971  43.725   9.855   3.683
13567W        W81972  36.908  25.753   2.243
13568W        W81973  35.085   4.462  11.486
13569W        W81974  44.565   2.780  10.683
13570W        W81975  43.549  33.377   1.698
13571W        W81976  42.314   6.716   0.844
13572W        W81977  41.241   6.727   4.063
13573W        W81978  19.708   1.355  12.598
13574W        W81979  21.498  18.265  11.940
13575W        W81980  35.399  20.455  14.932
13576W        W81981  25.574  15.382  11.620
13577W        W81982  31.506   4.395   4.278
13578W        W81983  16.104   1.786  12.754
13579W        W81984   2.389   2.379  12.069
13580W        W81985  44.159  21.967  13.960
13581W        W81986   5.799  33.253   0.217
13582W        W81987  43.746  30.699   2.718
13583W        W81988   8.249  24.956  14.240
13584W        W81989  21.465  14.747   0.801
13585W        W81990  26.173  26.427   2.750
13586W        W81991   1.524   9.515  13.315
13587W        W81992  39.044  44.332  10.484
13588W        W81993  20.626  36.981   4.079
13589W        W81994  28.608  20.001  13.395
13590W        W81995   6.801   9.167  12.536
13591W        W81996  20.538  44.551   3.278
13592W        W81997  24.693  30.414   3.335
13593W        W81998   3.907  13.373  10.683
13594W        W81999  23.918  42.572   4.515
13595W        W82000  22.497   3.756  13.458
13596W        W82001  14.830  14.686  11.080
13597W        W82002  38.348   2.597   5.372
13598W        W82003  13.202  32.041   0.244
13599W        W82004  18.543  10.858   3.681
13600W        W82005  27.308  26.554  10.694
13601W        W82006  24.980  17.226   3.725
13602W        W82007  16.005  32.898  11.994
13603W        W82008  23.664  18.861   4.618
13604W        W82009   9.839  24.768  14.308
13605W        W82010  37.223  29.428  12.117
13606W        W82011  10.627  43.517   3.389
13607W        W82012  30.335  35.617  11.618
13608W        W82013  28.650  26.140   2.164
13609W        W82014  10.797  24.682  13.994
13610W        W82015  30.272  11.490  13.643
13611W        W82016   6.299  25.700   0.361
13612W        W82017  30.066  29.833   3.210
13613W        W82018  35.516   8.744   4.756
13614W        W82019  33.630   9.257   1.336
13615W        W82020   4.932  17.229  10.969
13616W        W82021  18.773   7.944   1.442
13617W        W82022  12.753  28.043   2.135
13618W        W82023  40.993  29.194   1.139
13619W        W82024  25.171   9.261   2.683
13620W        W82025   6.263  26.332  12.486
13621W        W82026  13.666   0.071   3.680
13622W        W82027  18.248  22.763  10.739
13623W        W82028   5.273   4.807   1.940
13624W        W82029  18.669  40.247  12.959
13625W        W82030  40.556  30.136  10.750
13626W        W82031   8.945  13.179   1.404
13627W        W82032  30.971  41.780  10.237
13628W        W82033  33.628  20.173  12.120
13629W        W82034   9.199  44.448  13.331
13630W        W82035  28.910  24.599  14.739
13631W        W82036  32.211   7.446   5.027
13632W        W82037   8.872  10.172  10.414
13633W        W82038  28.426   6.354  13.538
13634W        W82039   1.773  24.056  12.978
13635W        W82040  41.811  15.281  11.561
13636W        W82041  23.485  44.352   4.546
13637W        W82042  31.483  33.588  10.659
13638W        W82043  37.350  12.757   2.304
13639W        W82044   5.531  27.396   0.973
13640W        W82045  15.081  17.022  14.333
13641W        W82046  21.490  16.211   2.213
13642W        W82047  44.510  30.994  14.071
13643W        W82048  11.975  44.477   5.358
13644W        W82049   4.290  25.740   4.773
13645W        W82050  39.130  22.282   1.091
13646W        W82051  38.808  40.462  13.749
13647W        W82052  25.132  41.711   4.133
13648W        W82053  25.978   3.369  14.278
13649W        W82054  19.351  17.619   3.178
13650W        W82055   3.933  25.315  13.087
13651W        W82056  12.823  35.994   0.217
13652W        W82057  42.870  22.733  13.472
13653W        W82058  29.247  23.932  11.880
13654W        W82059   1.665  41.411  12.642
13655W        W82060  24.952  32.671   3.785
13656W        W82061  43.870  42.597   4.471
13657W        W82062  42.614  33.516  14.864
13658W        W82063   2.454  43.543  12.874
13659W        W82064  36.599  34.767  14.399
13660W        W82065  23.661  28.927  12.017
13661W        W82066  14.299  30.162   3.262
13662W        W82067  18.509  31.870   5.057
13663W        W82068   4.812  32.908   3.548
13664W        W82069  18.797  29.409  13.205
13665W        W82070  16.071   2.232   0.333
13666W        W82071   5.745   3.168  12.634
13667W        W82072  40.132   6.195  11.577
13668W        W82073  27.632  14.322   0.773
13669W        W82074   2.980  43.513  14.356
13670W        W82075  30.627  25.558  12.032
13671W        W82076  10.865  12.163  12.539
13672W        W82077  32.500  40.003  12.345
13673W        W82078  37.836  15.952  13.822
13674W        W82079  26.673   5.874   3.736
13675W        W82080  15.078  11.992  11.203
13676W        W82081   7.197  31.533   2.115
13677W        W82082  24.178  21.261   1.261
13678W        W82083  11.762   8.757   0.039
13679W        W82084  37.945  26.746  12.273
13680W        W82085  29.884  18.690   0.975
13681W        W82086  32.893  39.956  11.732
13682W        W82087  43.303  12.382  14.557
13683W        W82088  19.617  21.128  10.180
13684W        W82089   8.165   3.497   4.564
13685W        W82090  13.707  16.560  14.392
13686W        W82091   5.305  14.783   2.309
13687W        W82092  39.402  35.275   4.712
13688W        W82093   5.186  35.653  14.888
13689W        W82094  32.974   9.704   2.297
13690W        W82095  23.042  14.340  10.483
13691W        W82096  22.763  25.530  11.113
13692W        W82097  16.121  28.712   4.698
13693W        W82098   0.298  43.009  13.002
13694W        W82099  31.451   9.034   2.382
13695W        W82100  11.562   0.053  11.110
13696W        W82101  25.088  41.048   4.923
13697W        W82102   8.020  41.594   4.581
13698W        W82103  41.399  41.370  11.830
13699W        W82104  44.328   4.264  10.710
13700W        W82105  31.087  22.680   1.367
13701W        W82106  32.497   4.835  10.253
13702W        W82107  12.275  35.604   3.258
13703W        W82108  21.028  42.207  10.819
13704W        W82109   8.364   1.013   3.912
13705W        W82110  38.314   2.135  11.129
13706W        W82111  24.643   2.463   0.344
13707W        W82112  22.536  34.844  13.618
13708W        W82113  23.035   9.815  11.437
13709W        W82114  37.770  20.917   4.808
13710W        W82115  35.312  12.985  13.966
13711W        W82116  18.369  31.171  13.165
13712W        W82117   3.518  22.704  10.798
13713W        W82118  26.454  19.513  14.901
13714W        W82119  30.502  10.169  12.083
13715W        W82120  41.857  31.620   0.051
13716W        W82121  18.474  16.155   2.361
13717W        W82122  26.568  29.463   1.779
13718W        W82123   7.366  21.507  10.746
13719W        W82124  16.589  21.632   3.585
13720W        W82125  32.588  24.045  13.914
13721W        W82126   9.361  27.978   2.411
13722W        W82127  38.864  30.665   0.026
13723W        W82128  39.878  35.520   2.279
13724W        W82129  25.235   8.171   4.154
13725W        W82130   4.429  19.096  14.914
13726W        W82131  30.432  28.042  10.906
13727W        W82132   7.814  27.721  14.810
13728W        W82133  11.114  17.442   5.048
13729W        W82134  39.664  25.185  14.603
13730W        W82135   1.531  10.799   4.513
13731W        W82136  17.830  41.506  11.660
13732W        W82137   2.192  14.014  13.985
13733W        W82138   7.644   6.965  12.936
13734W        W82139  20.838  12.807   4.529
13735W        W82140  14.132  25.666   4.143
13736W        W82141  14.410  27.962   3.776
13737W        W82142  27.448   8.871   4.862
13738W        W82143  17.570  37.391   0.153
13739W        W82144  19.630  13.187   5.028
13740W        W82145  13.183  26.479  11.912
13741W        W82146  30.061  25.023   0.133
13742W        W82147   5.256  42.937   3.224
13743W        W82148  19.779  28.425  11.218
13744W        W82149   6.892  26.569  14.335
13745W        W82150  18.287  39.996   4.426
13746W        W82151  23.635  30.174  14.004
13747W        W82152  11.527   9.214   4.809
13748W        W82153  20.595  13.866  12.401
13749W        W82154  41.876  36.977  12.300
13750W        W82155  39.077  23.728  10.656
13751W        W82156  25.631   7.281   4.100
13752W        W82157  16.508   6.764   3.754
13753W        W82158  43.209  33.353  11.031
13754W        W82159   8.097   0.768   4.831
13755W        W82160   0.231  38.527  12.284
13756W        W82161  23.232  38.513   1.171
13757W        W82162  34.521  16.811   2.340
13758W        W82163   1.724  21.514  11.182
13759W        W82164  11.593  34.523  12.061
13760W        W82165  22.453  28.491  10.578
13761W        W82166  21.998  44.446  14.243
13762W        W82167  23.208   1.988  13.573
13763W        W82168  21.484   0.527  11.497
13764W        W82169  10.113  10.908   0.345
13765W        W82170  27.923  22.870   4.030
13766W        W82171  22.485  12.881   4.968
13767W        W82172   2.457  40.862   1.167
13768W        W82173   2.745  13.203  10.737
13769W        W82174   2.473   9.343  12.212
13770W        W82175  23.536  34.828   2.776
13771W        W82176  44.940   7.903  10.921
13772W        W82177  10.951   0.869  14.703
13773W        W82178   1.266  13.018   2.265
13774W        W82179  43.427  36.790  14.239
13775W        W82180  28.048  19.296  10.309
13776W        W82181   3.067   3.455  11.795
13777W        W82182   7.621  28.921   1.288
13778W        W82183  36.576  37.413  10.343
13779W        W82184  34.837  40.832   4.783
13780W        W82185  20.497   4.848   1.458
13781W        W82186  27.753  30.730   3.646
13782W        W82187  34.337  33.042  11.695
13783W        W82188  16.374  31.994   0.988
13784W        W82189  32.422   2.406  13.089
13785W        W82190  14.709  11.489   0.334
13786W        W82191   0.098  31.876  13.959
13787W        W82192  18.161   3.538  14.015
13788W        W82193  30.267  44.918  14.757
13789W        W82194  31.655  10.273  13.603
13790W        W82195  40.117  37.271   4.027
13791W        W82196   4.324  41.564  13.850
13792W        W82197  34.187  10.273  13.982
13793W        W82198   8.526  12.671  10.694
13794W        W82199  42.891  41.967   2.774
13795W        W82200  12.854  25.206  14.301
13796W        W82201  12.537   8.698   1.181
13797W        W82202  28.155  26.035  13.220
13798W        W82203  10.349  31.469   3.674
13799W        W82204  41.557   5.383   4.711
13800W        W82205  32.089  28.160  12.933
13801W        W82206  27.170   3.329   3.394
13802W        W82207   2.164  19.560  11.478
13803W        W82208  18.160  44.209   1.331
13804W        W82209   8.233  38.429   2.325
13805W        W82210   0.470  30.053  13.545
13806W        W82211  14.787   2.692  12.489
13807W        W82212  24.692  25.628  12.521
13808W        W82213  11.203   2.479   4.675
13809W        W82214  21.998  26.516   3.299
13810W        W82215  10.831   9.992  12.001
13811W        W82216   9.609  32.835   1.272
13812W        W82217  17.545   1.809  14.294
13813W        W82218  19.810  25.222   0.801
13814W        W82219  12.428  38.610   4.136
13815W        W82220  28.395  30.173  12.921
13816W        W82221  22.214  37.532  13.365
13817W        W82222  29.116  40.486  13.171
13818W        W82223   9.889  41.954   1.949
13819W        W82224  38.884  34.042   1.304
13820W        W82225   1.235  41.297  12.394
13821W        W82226  32.113  14.824  13.003
13822W        W82227  30.211  42.517   3.978
13823W        W82228  25.207   0.237  13.923
13824W        W82229  26.993   1.221   1.599
13825W        W82230   3.800  38.757  12.958
13826W        W82231   4.341  25.213  12.519
13827W        W82232  23.161  19.513   1.400
13828W        W82233   5.459  30.646   2.237
13829W        W82234  36.406   4.339  11.014
13830W        W82235  29.373   1.466   4.707
13831W        W82236   5.723  14.321   0.324
13832W        W82237  13.304  13.215   2.417
13833W        W82238  35.433   3.818  14.318
13834W        W82239   0.188   1.868  12.375
13835W        W82240  39.938  21.989  13.474
13836W        W82241  25.315   8.231   0.357
13837W        W82242  42.320  38.036   4.250
13838W        W82243   2.583  38.882   4.226
13839W        W82244   9.461  20.039   4.316
13840W        W82245  40.125  20.141  11.651
13841W        W82246  40.940  38.989   0.820
13842W        W82247  15.685   1.042  10.231
13843W        W82248   5.792   1.842   1.914
13844W        W82249  11.219  39.846   4.288
13845W        W82250   4.653  16.644  13.558
13846W        W82251   2.546  26.160  11.671
13847W        W82252  14.760   2.945  13.842
13848W        W82253  17.295  10.331   3.866
13849W        W82254   9.529  15.731  13.359
13850W        W82255   6.275  25.130   3.284
13851W        W82256   6.015  11.355  12.910
13852W        W82257  14.168  25.968   0.423
13853W        W82258  30.133  24.713  12.995
13854W        W82259  28.260  38.423  11.674
13855W        W82260  44.409  31.818  12.694
13856W        W82261  32.988   7.667  13.497
13857W        W82262  24.637  38.983  13.224
13858W        W82263  19.679  36.515   2.639
13859W        W82264   2.441   7.241   1.403
13860W        W82265  42.407  28.133   2.283
13861W        W82266  10.652  35.151  11.405
13862W        W82267  26.105  26.411  11.983
13863W        W82268  13.882   9.572  12.136
13864W        W82269  36.971  10.542  12.055
13865W        W82270  41.978  15.725   0.626
13866W        W82271  10.364  37.397   1.209
13867W        W82272  37.585  26.641   4.327
13868W        W82273  41.395  36.827  12.401
13869W        W82274   6.936  20.097   4.905
13870W        W82275  31.455   7.451  11.860
13871W        W82276  20.033  40.493  12.082
13872W        W82277  22.270   0.495   0.869
13873W        W82278  10.288  23.695  13.487
13874W        W82279  31.605   4.359  12.108
13875W        W82280   2.285  20.345   0.397
13876W        W82281  35.623  44.977   4.358
13877W        W82282  25.163  37.955   3.652
13878W        W82283  34.985  22.410   3.855
13879W        W82284   1.659  37.484  12.035
13880W        W82285   3.894   5.970  13.394
13881W        W82286  33.836  30.608   4.851
13882W        W82287  12.750  39.024   2.636
13883W        W82288  30.933  42.662   0.868
13884W        W82289  44.231   0.122  13.915
13885W        W82290  43.810  23.655   4.361
13886W        W82291  13.492  42.441   0.737
13887W        W82292  33.551   6.036  11.449
13888W        W82293  33.302  29.908  11.962
13889W        W82294  42.834  18.316   2.288
13890W        W82295  14.373  30.236   4.180
13891W        W82296   9.462  13.663   4.182
13892W        W82297   2.714  37.043  11.513
13893W        W82298   8.113   7.865   2.767
13894W        W82299  17.080  25.558  10.720
13895W        W82300   5.700  24.052   4.425
13896W        W82301  24.187  41.784  12.304
13897W        W82302  27.919   1.455  12.390
13898W        W82303   7.618  36.574  11.674
13899W        W82304  11.596  39.169  12.092
13900W        W82305   0.642  31.793   5.070
13901W        W82306   5.333   5.825  10.082
13902W        W82307  32.558  14.337   0.940
13903W        W82308  31.521  25.797  12.978
13904W        W82309   0.444  20.270  11.947
13905W        W82310  11.835  14.854   5.074
13906W        W82311  12.380  35.245   1.745
13907W        W82312  18.034   1.656  10.992
13908W        W82313  33.855   4.302   2.317
13909W        W82314  25.480  18.694  11.208
13910W        W82315  30.184  20.286  14.392
13911W        W82316  31.453   5.450  13.775
13912W        W82317  19.055  21.919   2.403
13913W        W82318  41.892  30.443   2.317
13914W        W82319  11.570  35.645  14.847
13915W        W82320  10.676  41.784  11.899
13916W        W82321   3.717  37.163  14.552
13917W        W82322   4.699   3.826   0.791
13918W        W82323   3.223  33.357   2.342
13919W        W82324   6.854  15.673   2.160
13920W        W82325  30.306   2.356   3.969
13921W        W82326  32.577   7.656  11.563
13922W        W82327  28.560  21.098  14.552
13923W        W82328  32.271  13.382   1.900
13924W        W82329  21.029  34.723   1.143
13925W        W82330  25.856  13.264  14.363
13926W        W82331  31.148   9.998  12.591
13927W        W82332  17.597  37.804   0.972
13928W        W82333   1.477  35.079  10.606
13929W        W82334  14.978  44.097   2.763
13930W        W82335  29.952  21.983   3.762
13931W        W82336   4.795  30.164  12.547
13932W        W82337  23.548   8.440  14.823
13933W        W82338   5.154  44.566  11.685
13934W        W82339  11.764  43.385  12.403
13935W        W82340   3.783  11.517  14.733
13936W        W82341   0.875  44.766  12.802
13937W        W82342   2.434  28.453  14.322
13938W        W82343  42.990  25.084   0.279
13939W        W82344  12.940  17.789   2.686
13940W        W82345   8.153  29.903   1.219
13941W        W82346   0.516  28.373  14.247
13942W        W82347  32.994  39.064  11.049
13943W        W82348  35.931  15.104   4.076
13944W        W82349  23.295  16.735   1.111
13945W        W82350  36.537  24.009  11.092
13946W        W82351  36.106  14.310  14.219
13947W        W82352   6.287  38.513   4.952
13948W        W82353  20.133  20.045  12.774
13949W        W82354   0.649  22.521   1.659
13950W        W82355  15.320  15.865  11.465
13951W        W82356  18.855  22.989   1.786
13952W        W82357   5.027  22.829   4.938
13953W        W82358  22.702   8.222  12.322
13954W        W82359  43.654  17.106   2.580
13955W        W82360  25.734  15.198   1.006
13956W        W82361   2.093  44.309   4.620
13957W        W82362   2.746  12.015  11.405
13958W        W82363  33.576  40.850  13.033
13959W        W82364  36.150  23.701   2.400
13960W        W82365  33.111  19.019  13.035
13961W        W82366  10.407  23.009  14.379
13962W        W82367  25.071  13.654   2.497
13963W        W82368  21.793   4.471   0.486
13964W        W82369  24.057  21.352  13.946
13965W        W82370  22.353  34.649  11.704
13966W        W82371  38.705   8.272   4.067
13967W        W82372  32.927  38.321   1.967
13968W        W82373  30.209   1.745   0.875
13969W        W82374   5.513  11.344  12.997
13970W        W82375   1.859   8.921   0.370
13971W        W82376  28.231   0.520   2.419
13972W        W82377  17.194  28.174  14.387
13973W        W82378  20.568   2.689   2.859
13974W        W82379  37.575   2.805   0.247
13975W        W82380  30.675  18.448   0.813
13976W        W82381  23.393  37.515   2.179
13977W        W82382  44.736  27.076   2.232
13978W        W82383  14.009  30.786   4.926
13979W        W82384  22.420  28.975   4.138
13980W        W82385  39.010  31.514   2.138
13981W        W82386  13.665  38.257  13.984
13982W        W82387  27.760  11.370   2.742
13983W        W82388  20.586  10.184   2.460
13984W        W82389  36.098   8.928  12.601
13985W        W82390  24.630  27.912  12.171
13986W        W82391  24.491   3.493   0.468
13987W        W82392  17.751  20.198   3.205
13988W        W82393   0.438   8.671   2.691
13989W        W82394  13.041   8.287   0.401
13990W        W82395  39.553   9.710  11.851
13991W        W82396  21.968  14.662   0.800
13992W        W82397  19.933  30.956  12.449
13993W        W82398  25.520   0.912  14.244
13994W        W82399  22.271   5.696   0.042
13995W        W82400  14.487  38.400   4.216
13996W        W82401  26.575  36.813   3.617
13997W        W82402   2.343  11.778   3.246
13998W        W82403  11.128  23.442   1.231
13999W        W82404   2.990   6.385  11.543
14000W        W82405   6.178  13.101  12.058
14001W        W82406  20.568  12.525  14.814
14002W        W82407  39.336  27.189   3.618
14003W        W82408  10.249  12.911   5.062
14004W        W82409  42.005  11.257   4.677
14005W        W82410  25.760  42.300   2.554
14006W        W82411  28.901   6.861   2.554
14007W        W82412  32.306  39.325   0.001
14008W        W82413  22.256  16.982  14.123
14009W        W82414  19.544  26.385   0.474
14010W        W82415  28.286  28.164   1.766
14011W        W82416  15.537  32.379   4.570
14012W        W82417  31.063  14.341  12.115
14013W        W82418  23.000   2.905   0.628
14014W        W82419  34.476   1.396  13.267
14015W        W82420   1.649  15.824   0.832
14016W        W82421   3.698  21.614   4.655
14017W        W82422  35.596  38.595  12.531
14018W        W82423  10.888  18.609   9.899
14019W        W82424  14.978   3.406   4.601
14020W        W82425   2.548  23.191  10.269
14021W        W82426  21.174   1.846   0.975
14022W        W82427  42.817  31.610  11.744
14023W        W82428  10.100  26.590  11.882
14024W        W82429  27.346  40.407   1.417
14025W        W82430  36.293   8.357   2.217
14026W        W82431  22.547  33.631  11.584
14027W        W82432  26.729  32.287  10.119
14028W        W82433   7.652   1.309  14.959
14029W        W82434  34.849  16.814   3.561
14030W        W82435  42.409  31.147  13.077
14031W        W82436  30.093   0.200   2.689
14032W        W82437  13.800  38.480  14.845
14033W        W82438   8.664   9.267  13.372
14034W        W82439   6.659  23.349   2.166
14035W        W82440   4.404   9.298  12.016
14036W        W82441   1.044  17.120  13.484
14037W        W82442  28.060  25.301  11.620
14038W        W82443  10.019  36.237   4.116
14039W        W82444  12.216   5.726  14.467
14040W        W82445  24.054  18.842  13.806
14041W        W82446  10.058  10.811   2.195
14042W        W82447  32.914  30.909  14.726
14043W        W82448  24.132   5.611   3.882
14044W        W82449  23.122  12.889  14.940
14045W        W82450  30.672  36.787   0.492
14046W        W82451  14.585  36.524   0.337
14047W        W82452  34.337  36.827  13.017
14048W        W82453   7.806  29.297   0.941
14049W        W82454  13.889  24.604   4.747
14050W        W82455  23.532  23.069   1.132
14051W        W82456  22.862  42.828   5.001
14052W        W82457  35.415  21.913  12.652
14053W        W82458  37.950  38.675   1.653
14054W        W82459  22.291   1.496   0.723
14055W        W82460  40.758  36.918  14.956
14056W        W82461  32.904  31.407  14.809
14057W        W82462  39.380  43.819   4.138
14058W        W82463  11.822  32.467   3.830
14059W        W82464  27.180  13.148  10.580
14060W        W82465  20.621  42.822   3.809
14061W        W82466  29.328  13.207  10.651
14062W        W82467  37.473  43.924   4.491
14063W        W82468  43.927  26.132  10.404
14064W        W82469  25.425  16.823  13.367
14065W        W82470  40.211  26.233  12.389
14066W        W82471  19.059  42.418   3.204
14067W        W82472  40.273  26.136   4.073
14068W        W82473  17.407  32.942  13.843
14069W        W82474  20.171  24.636   5.032
14070W        W82475  32.122  10.278   3.294
14071W        W82476  13.259  20.351   0.793
14072W        W82477  15.245  30.466   1.385
14073W        W82478  22.593  11.505   1.641
14074W        W82479   9.213  44.297  14.399
14075W        W82480  14.542   7.777  13.364
14076W        W82481  21.724  17.298   2.029
14077W        W82482  37.743  44.780   1.299
14078W        W82483   5.705  43.174   4.310
14079W        W82484  34.989  25.683   2.787
14080W        W82485  28.749  13.160   3.089
14081W        W82486  31.928  34.139  11.139
14082W        W82487  37.044  36.661   0.313
14083W        W82488   2.494  36.838  11.954
14084W        W82489  14.601  43.744   1.824
14085W        W82490  21.105   5.853  14.334
14086W        W82491  13.958   4.547   1.884
14087W        W82492  13.742  31.350   0.353
14088W        W82493  17.011  32.395  10.632
14089W        W82494   6.966   3.350  13.927
14090W        W82495  30.625  22.979  13.576
14091W        W82496  21.122   3.223   0.221
14092W        W82497  30.090  41.349  13.911
14093W        W82498  11.357  36.330   1.564
14094W        W82499  24.902  40.300   2.813
14095W        W82500  25.553  41.902   3.828
14096W        W82501  17.688  19.240  11.389
14097W        W82502  21.024   7.758  10.691
14098W        W82503  33.382  28.052  12.157
14099W        W82504  42.299  27.797  10.638
14100W        W82505   7.994  11.225   4.139
14101W        W82506  30.571  10.672  12.529
14102W        W82507  25.032  33.081  14.334
14103W        W82508   6.947  38.109  10.790
14104W        W82509  39.377  44.900  12.336
14105W        W82510  30.112  31.657   0.286
14106W        W82511  20.591  10.827   0.874
14107W        W82512  39.837  39.479   3.614
14108W        W82513  12.861   0.259  12.392
14109W        W82514  13.276  42.188   4.632
14110W        W82515   6.360   7.063  14.719
14111W        W82516  13.333  28.229  13.155
14112W        W82517   7.829  33.512  13.093
14113W        W82518  35.479  26.075   2.023
14114W        W82519  34.411  15.395  12.956
14115W        W82520   9.083  42.898  12.637
14116W        W82521  28.135  18.780   1.717
14117W        W82522  34.861   7.143  13.431
14118W        W82523  30.694  44.167  11.734
14119W        W82524  15.792  17.350   4.685
14120W        W82525  27.870   2.739  14.486
14121W        W82526  21.651  21.811   1.545
14122W        W82527  43.423  19.813  11.598
14123W        W82528  10.354   9.217   0.771
14124W        W82529  43.184  35.479   3.686
14125W        W82530  21.932  42.087  13.021
14126W        W82531   9.387  20.070   0.785
14127W        W82532  15.628  44.369  11.652
14128W        W82533  17.534  25.602  11.596
14129W        W82534  20.244  10.977  12.549
14130W        W82535  32.501  29.622   4.533
14131W        W82536  34.989  40.110   0.800
14132W        W82537  36.805  33.468   2.670
14133W        W82538  44.902  22.128  13.775
14134W        W82539  10.752  30.137   5.089
14135W        W82540  33.572   6.381  14.972
14136W        W82541  41.753  15.943  13.479
14137W        W82542  36.340  34.821  12.136
14138W        W82543  41.827  18.109   2.274
14139W        W82544   6.539  43.724  11.481
14140W        W82545  30.396   6.181  10.552
14141W        W82546  11.625   0.550  11.015
14142W        W82547  29.607  22.975   3.319
14143W        W82548  16.575  19.044  12.515
14144W        W82549  11.544   8.544   3.790
14145W        W82550  44.772  18.324  11.758
14146W        W82551  29.903  15.129   3.609
14147W        W82552  24.944  12.353  11.161
14148W        W82553  30.811  31.867  11.047
14149W        W82554  32.566  16.649  13.470
14150W        W82555   0.399  42.731  11.522
14151W        W82556  39.562   8.781  14.808
14152W        W82557  14.144  15.600  13.856
14153W        W82558  15.673  38.512   1.779
14154W        W82559  40.930  33.074   0.801
14155W        W82560  26.620   2.432   2.363
14156W        W82561  42.362  30.690  10.627
14157W        W82562   6.260  33.807   4.146
14158W        W82563  32.455  30.632   2.689
14159W        W82564   5.343  34.462   2.274
14160W        W82565  31.399  23.345   4.595
14161W        W82566  40.476  29.873  12.615
14162W        W82567  12.758  11.646   4.580
14163W        W82568  26.519  17.629  12.631
14164W        W82569  24.748  33.910   0.951
14165W        W82570  42.420  43.673  11.077
14166W        W82571  20.711  22.887  12.213
14167W        W82572  39.803  14.842   3.799
14168W        W82573   9.466  13.246  13.959
14169W        W82574  39.827  18.126  11.355
14170W        W82575  34.663  37.181   9.962
14171W        W82576  30.656  36.322   0.284
14172W        W82577  36.063   4.800   1.147
14173W        W82578   4.350  37.661  11.054
14174W        W82579  33.093  43.806   0.307
14175W        W82580   2.167  25.214  14.564
14176W        W82581  29.965  31.733   4.136
14177W        W82582  42.066   5.446   1.840
14178W        W82583  36.366  15.661   3.606
14179W        W82584  35.298  43.815   4.673
14180W        W82585  15.572  16.264  14.488
14181W        W82586   1.488   7.634   0.297
14182W        W82587  10.182  19.308  14.335
14183W        W82588   3.287  21.913  11.158
14184W        W82589  33.599  18.334   4.110
14185W        W82590  13.203  24.053  11.801
14186W        W82591  29.415  29.573   2.116
14187W        W82592  27.630  26.698  13.802
14188W        W82593  30.536   1.950   0.375
14189W        W82594  31.890  41.938  13.244
14190W        W82595  40.848  21.527  13.491
14191W        W82596  44.954  24.281   4.267
14192W        W82597  26.411  34.915  12.410
14193W        W82598  16.786  17.708   4.223
14194W        W82599  19.955  26.152  12.848
14195W        W82600  44.473  36.323  13.149
14196W        W82601  32.875   4.132   3.306
14197W        W82602   2.936  36.018  13.999
14198W        W82603  36.483  24.506   3.190
14199W        W82604   3.083  40.914  13.335
14200W        W82605  25.497   1.959  11.544
14201W        W82606  20.506  13.238  10.915
14202W        W82607  22.528  34.886  14.148
14203W        W82608  25.338  33.577  11.186
14204W        W82609  38.519   2.691  10.119
14205W        W82610  24.201  24.742   3.228
14206W        W82611  29.324  31.140  13.029
14207W        W82612  35.884  40.047  11.214
14208W        W82613   7.913   3.487   3.096
14209W        W82614   4.951  30.230  11.574
14210W        W82615   5.043  26.747   1.755
14211W        W82616   6.147  33.602   0.706
14212W        W82617   7.317  10.161   3.254
14213W        W82618  16.376  20.336   4.526
14214W        W82619  16.668   2.788  10.425
14215W        W82620   9.612  43.927   2.230
14216W        W82621  36.918  42.466  13.606
14217W        W82622  30.068  16.648   2.693
14218W        W82623  18.412  28.465   4.142
14219W        W82624  29.986  32.890   3.340
14220W        W82625  33.354   8.021   2.605
14221W        W82626   5.448  31.314  11.329
14222W        W82627   2.868  31.345  12.453
14223W        W82628  28.940  21.846   4.888
14224W        W82629  26.568  40.074   3.293
14225W        W82630  26.819   5.202   1.048
14226W        W82631  44.994   0.328   4.559
14227W        W82632  10.321  23.279   0.714
14228W        W82633  26.873  23.635   2.814
14229W        W82634  34.357   1.907  12.078
14230W        W82635  29.523  42.835   5.033
14231W        W82636  40.170  36.916  14.185
14232W        W82637  14.598  25.906  12.394
14233W        W82638  35.721  43.472   3.548
14234W        W82639  32.577   3.329   4.170
14235W        W82640   3.781  35.820   3.857
14236W        W82641   1.954  29.650  13.903
14237W        W82642   6.154   6.196  12.020
14238W        W82643  27.158  44.482  13.071
14239W        W82644  23.719  19.623  13.116
14240W        W82645  21.141  17.265  11.150
14241W        W82646  19.176   0.710   1.082
14242W        W82647   2.216  18.077   2.913
14243W        W82648  17.983  41.347  14.458
14244W        W82649   0.712  15.295   1.668
14245W        W82650  11.427  16.324  11.459
14246W        W82651  32.378   0.595   4.478
14247W        W82652  19.007   3.348  14.384
14248W        W82653  43.457  15.686  10.763
14249W        W82654  23.931  11.865  14.579
14250W        W82655   9.680   1.676  13.461
14251W        W82656  33.633  21.166   0.311
14252W        W82657   1.579   5.639  10.057
14253W        W82658  33.506  42.544   1.279
14254W        W82659  44.947  33.395   1.435
14255W        W82660  33.605  37.974   2.718
14256W        W82661  11.029  21.478  11.226
14257W        W82662  36.316  22.089   3.725
14258W        W82663   8.831  27.649   0.828
14259W        W82664  30.177  37.000   3.047
14260W        W82665  16.165  27.796   0.311
14261W        W82666  41.117  31.809   4.155
14262W        W82667  15.276  24.752  13.037
14263W        W82668   7.542  27.680   4.605
14264W        W82669  37.805  44.960   0.449
14265W        W82670  27.604  12.800   2.829
14266W        W82671   3.688  37.903   2.839
14267W        W82672  29.690   5.285  11.887
14268W        W82673  19.750  29.878   1.903
14269W        W82674  29.338   0.530  11.018
14270W        W82675  35.297   4.857   3.236
14271W        W82676  18.072   3.840   2.212
14272W        W82677  33.994   2.506   0.990
14273W        W82678  23.274   5.830   4.181
14274W        W82679   7.261   6.492   4.191
14275W        W82680  41.133   3.644   9.846
14276W        W82681  15.100  25.649   0.352
14277W        W82682  34.446  18.943   3.186
14278W        W82683  10.946  41.325   1.738
14279W        W82684  31.530  36.362  14.520
14280W        W82685  25.000  31.005   4.071
14281W        W82686  23.502  29.678  13.986
14282W        W82687  40.391  15.004  14.863
14283W        W82688  13.369  42.827  14.902
14284W        W82689   9.759  15.558   4.024
14285W        W82690  23.445  17.102  13.437
14286W        W82691  35.905  31.064   2.773
14287W        W82692  10.225   0.921  13.113
14288W        W82693   8.157  11.689  13.818
14289W        W82694  29.733  43.040  12.060
14290W        W82695  34.731  34.364   0.638
14291W        W82696   5.518  23.507  11.390
14292W        W82697  27.004   6.795  11.091
14293W        W82698  17.445  42.144  11.049
14294W        W82699  10.040   8.683   2.397
14295W        W82700  14.285  39.562   2.146
14296W        W82701  11.158  25.695   0.869
14297W        W82702  11.526  18.064  12.005
14298W        W82703  13.615  40.875   4.599
14299W        W82704   0.317  35.391  11.791
14300W        W82705  22.062   5.359   4.059
14301W        W82706  22.396  26.746   5.021
14302W        W82707   2.705   0.882  13.516
14303W        W82708  20.355  30.178   0.692
14304W        W82709  28.153   4.647   3.725
14305W        W82710  15.728  29.936   4.851
14306W        W82711   3.271  37.848   4.668
14307W        W82712  38.270  15.312  11.908
14308W        W82713  30.911  23.050  11.183
14309W        W82714  34.922  30.481  11.603
14310W        W82715   4.303  26.911   2.693
14311W        W82716  25.615  21.205   0.295
14312W        W82717  10.734  34.336   5.048
14313W        W82718   2.370   8.159  12.307
14314W        W82719  10.870  14.352   2.201
14315W        W82720  15.812  33.693  10.458
14316W        W82721  14.391  30.003  13.865
14317W        W82722  21.994  25.165  10.755
14318W        W82723  25.517  31.577  10.701
14319W        W82724  14.972  25.215  13.085
14320W        W82725   0.352   1.993  14.351
14321W        W82726  44.213  38.419   2.327
14322W        W82727  34.802  28.533   0.954
14323W        W82728  33.221  35.682  14.804
14324W        W82729  19.516  43.723  12.369
14325W        W82730  29.666  39.482  13.049
14326W        W82731  30.753  34.281  13.482
14327W        W82732  13.422   9.089  14.869
14328W        W82733  11.486  26.485  14.833
14329W        W82734  18.175  42.429   1.691
14330W        W82735  32.999   8.645   4.957
14331W        W82736  41.557   3.990   5.093
14332W        W82737  38.594  15.523  13.313
14333W        W82738   2.698  43.020   0.031
14334W        W82739  42.431  15.135   3.327
14335W        W82740  34.684  35.990   4.042
14336W        W82741   0.789  42.562   1.266
14337W        W82742  24.590   6.983  13.873
14338W        W82743   6.516  17.069  11.884
14339W        W82744  24.477   8.618   1.025
14340W        W82745  16.786  27.441  14.718
14341W        W82746   1.711  23.933   1.378
14342W        W82747   1.068  29.445   0.457
14343W        W82748  43.333   3.787   4.395
14344W        W82749  17.113   1.204  12.193
14345W        W82750  26.080  19.802  12.378
14346W        W82751  15.672  11.105   2.731
14347W        W82752  33.296  18.370  13.590
14348W        W82753  34.481  43.420   0.214
14349W        W82754   2.410  20.821   1.404
14350W        W82755  12.238   2.939   1.817
14351W        W82756  17.568   9.881   9.812
14352W        W82757  34.302  19.299  14.884
14353W        W82758   6.923   1.433  14.515
14354W        W82759  33.428  32.183  14.795
14355W        W82760  35.552  42.075   3.889
14356W        W82761  44.834  36.503   0.313
14357W        W82762   6.337   1.754   0.581
14358W        W82763  30.478  38.687   2.440
14359W        W82764   8.843  36.610  13.019
14360W        W82765   6.819   8.404   4.183
14361W        W82766  43.310  29.651   3.154
14362W        W82767  36.837  24.415  12.338
14363W        W82768  10.536   3.845   5.178
14364W        W82769  22.631  19.111  11.912
14365W        W82770  25.816   8.599   4.533
14366W        W82771  40.288  35.405  14.034
14367W        W82772  39.227   0.497  13.015
14368W        W82773  13.722  32.138  13.311
14369W        W82774   6.591  31.972  10.202
14370W        W82775  29.861  27.095  14.493
14371W        W82776  40.857  20.985   0.785
14372W        W82777  40.488   1.738  12.963
14373W        W82778  32.791  19.672  12.557
14374W        W82779  27.110  44.149   1.235
14375W        W82780   8.900  42.769   4.944
14376W        W82781  36.829  26.204  13.544
14377W        W82782   0.283  22.083  12.074
14378W        W82783  14.096  21.977   4.693
14379W        W82784   2.375  30.494   5.127
14380W        W82785  38.825  13.162   0.421
14381W        W82786  44.536  24.181   3.048
14382W        W82787  22.560   0.558   0.443
14383W        W82788  12.973   5.762  12.737
14384W        W82789  21.861  42.866   3.146
14385W        W82790  38.408  39.028  14.491
14386W        W82791  16.131  43.058  10.536
14387W        W82792  12.343  15.723   3.370
14388W        W82793  25.011  22.372   4.983
14389W        W82794  13.434  30.573  11.203
14390W        W82795  26.478  15.614  10.255
14391W        W82796  38.834   2.178   1.779
14392W        W82797   8.897  33.788   4.139
14393W        W82798  30.124  22.008   4.610
14394W        W82799  34.563  14.065   3.232
14395W        W82800  41.975  19.309   0.951
14396W        W82801   3.019  26.155   1.269
14397W        W82802  16.577  41.785   2.801
14398W        W82803   6.471   1.549   2.766
14399W        W82804  11.713  13.495  12.821
14400W        W82805  29.984   1.987  11.062
14401W        W82806  15.350  14.621  14.783
14402W        W82807   2.459   7.317  11.657
14403W        W82808  13.027  43.273   2.272
14404W        W82809   2.232  10.921   2.919
14405W        W82810   0.779  40.930  13.021
14406W        W82811  16.173   6.372  11.202
14407W        W82812  17.263  15.266  12.007
14408W        W82813  14.288  41.435   2.016
14409W        W82814   4.488  13.437   1.733
14410W        W82815  20.250   6.940  12.463
14411W        W82816  19.041  29.291   3.603
14412W        W82817  14.231  11.272  11.930
14413W        W82818  39.355  40.061   0.482
14414W        W82819  19.211   9.826  14.554
14415W        W82820  12.624  31.597  14.315
14416W        W82821  32.916   7.185   3.256
14417W        W82822  20.586  43.227  14.314
14418W        W82823   1.721   1.222  12.780
14419W        W82824  35.393  30.506   0.690
14420W        W82825  39.512  24.152   2.791
14421W        W82826  35.999   3.849  14.082
14422W        W82827  21.066  23.648  14.113
14423W        W82828  19.607  44.683   4.097
14424W        W82829  24.627  13.093   3.737
14425W        W82830  37.911   1.500  13.606
14426W        W82831  22.403  36.449   0.834
14427W        W82832  27.578   9.640   2.217
14428W        W82833  14.356  42.028  11.590
14429W        W82834  31.954  39.130  13.428
14430W        W82835  39.413   7.297   9.824
14431W        W82836  11.136  23.655   4.873
14432W        W82837  16.771   1.028   1.289
14433W        W82838  42.721  32.441   4.159
14434W        W82839  19.304   4.761  13.356
14435W        W82840   7.234  19.220   4.718
14436W        W82841  39.554  39.353   0.799
14437W        W82842   4.030  33.084   0.238
14438W        W82843  11.349   5.379   3.694
14439W        W82844  23.109   4.555  14.988
14440W        W82845   3.895  39.797  11.242
14441W        W82846  19.635  40.850   1.947
14442W        W82847  41.489  42.839  11.390
14443W        W82848   9.224   8.416   1.784
14444W        W82849  11.743  15.767   2.666
14445W        W82850  22.546   3.399  10.408
14446W        W82851  39.441   7.353   2.378
14447W        W82852  23.915  41.973   1.704
14448W        W82853  16.187  34.175  12.507
14449W        W82854  19.055  38.337   1.782
14450W        W82855  11.923  42.758   3.440
14451W        W82856  17.196  28.498   0.467
14452W        W82857  19.540  24.448  14.239
14453W        W82858   2.703  15.091  10.721
14454W        W82859  33.133   8.201  12.626
14455W        W82860  17.789  33.625  10.752
14456W        W82861  43.905  26.087  13.279
14457W        W82862  12.180  20.483   0.273
14458W        W82863   1.966  16.031   4.564
14459W        W82864  30.119   4.613  13.483
14460W        W82865   9.945   9.162  11.540
14461W        W82866  10.655  21.117   3.670
14462W        W82867   1.447  23.265   4.244
14463W        W82868  15.274  23.523   3.698
14464W        W82869  15.615  28.941  11.714
14465W        W82870  37.687  17.463   4.033
14466W        W82871  38.072  29.915   3.839
14467W        W82872   5.228  20.501  12.975
14468W        W82873  36.955   1.620   3.160
14469W        W82874   3.241  23.163   2.263
14470W        W82875  40.157  25.468   0.298
14471W        W82876  42.470  21.072  13.580
14472W        W82877   7.024  29.220  13.514
14473W        W82878  15.695   2.318   2.292
14474W        W82879  29.660  25.836   4.532
14475W        W82880   0.567   3.767  11.057
14476W        W82881  23.200  43.816   2.244
14477W        W82882  23.997   1.881  10.691
14478W        W82883  26.781  31.359  12.832
14479W        W82884  21.231  16.796   9.893
14480W        W82885  32.643  13.185   2.828
14481W        W82886  43.372  20.524  13.603
14482W        W82887   1.449   4.819  11.233
14483W        W82888   5.629  24.730  13.149
14484W        W82889  26.763  31.974  12.085
14485W        W82890   3.674  28.236   1.956
14486W        W82891  21.622   9.366  12.853
14487W        W82892   4.515  44.887   4.159
14488W        W82893  19.053  11.223   4.920
14489W        W82894  37.014   7.486  11.539
14490W        W82895  14.685  40.819   2.325
14491W        W82896   9.835  43.612  10.694
14492W        W82897  15.560  35.864  14.451
14493W        W82898  29.615  25.896   1.332
14494W        W82899  35.705   9.350   0.846
14495W        W82900  11.195   9.273   0.982
14496W        W82901  36.043  42.172  12.865
14497W        W82902  40.548  35.338   3.136
14498W        W82903  43.065  44.547  14.593
14499W        W82904  24.013  23.258   1.226
14500W        W82905   2.912  19.048  11.140
14501W        W82906  39.754  30.055   1.808
14502W        W82907  25.694  19.546   3.116
14503W        W82908  28.448   2.941  10.822
14504W        W82909   4.426   3.360   2.898
14505W        W82910  18.001  13.534  12.106
14506W        W82911   3.384   3.115  11.525
14507W        W82912  23.525  39.320  14.306
14508W        W82913  39.209  21.527  12.196
14509W        W82914  39.064  30.621   4.556
14510W        W82915   5.016   2.199  14.961
14511W        W82916   4.248  28.760  11.286
14512W        W82917  41.247   9.919   1.332
14513W        W82918  21.054  14.381   4.671
14514W        W82919  17.208  39.905   3.556
14515W        W82920  13.662  35.945  13.608
14516W        W82921  13.396  41.757  10.535
14517W        W82922  38.929  10.981   3.966
14518W        W82923   5.758   0.070  11.550
14519W        W82924   7.197  27.522  10.445
14520W        W82925  11.207   7.107  14.640
14521W        W82926  13.210  34.259   0.471
14522W        W82927  38.005  42.640  14.927
14523W        W82928  26.250  12.567   3.800
14524W        W82929  15.831  37.761   3.780
14525W        W82930  40.758  43.847   1.758
14526W        W82931  44.106  38.507   4.738
14527W        W82932  37.867   9.868  11.130
14528W        W82933  30.626  41.495   3.339
14529W        W82934   1.784  11.434  14.434
14530W        W82935  23.665  40.064  12.065
14531W        W82936  13.860  24.969  14.287
14532W        W82937  30.427  13.674  11.630
14533W        W82938  18.149   8.274   4.110
14534W        W82939   9.853  24.159  11.350
14535W        W82940  25.942  13.337   2.831
14536W        W82941  39.330  31.007   3.324
14537W        W82942  23.698  35.973  13.623
14538W        W82943   5.456  15.369  13.983
14539W        W82944   3.195  16.677  11.122
14540W        W82945  16.558  30.686   1.285
14541W        W82946  28.386   2.477   3.910
14542W        W82947   9.590  32.623   9.837
14543W        W82948  37.325  42.440   2.706
14544W        W82949  29.103  13.406  11.066
14545W        W82950  39.609  36.791   1.664
14546W        W82951  40.674   7.396   4.821
14547W        W82952  14.296  37.573   1.581
14548W        W82953   9.884   8.654   4.514
14549W        W82954  40.408  44.997  13.335
14550W        W82955  26.711  32.033  13.886
14551W        W82956  31.420  42.702   2.755
14552W        W82957  13.508   0.367  14.982
14553W        W82958  17.784   1.617  12.953
14554W        W82959  10.440  36.349  12.397
14555W        W82960  22.722  16.158  14.949
14556W        W82961  33.965   4.787  10.655
14557W        W82962  29.436  37.819   0.266
14558W        W82963  26.517  19.553  12.521
14559W        W82964  33.617   0.104   4.575
14560W        W82965  35.673  33.139  10.716
14561W        W82966   0.266  28.220   3.327
14562W        W82967  34.824   8.147   1.378
14563W        W82968  44.627   8.400   2.888
14564W        W82969  35.395   4.738   2.745
14565W        W82970   6.131   7.134  12.062
14566W        W82971  44.937  19.330   4.061
14567W        W82972  41.902  42.536   0.858
14568W        W82973   8.856  10.799  11.690
14569W        W82974  30.946  19.658   3.721
14570W        W82975   0.069  19.777  11.624
14571W        W82976  27.483  35.529   2.393
14572W        W82977   1.669  27.452  11.184
14573W        W82978  12.422  33.645   3.950
14574W        W82979  11.926   9.842   2.408
14575W        W82980  19.059   0.743  12.118
14576W        W82981  40.265  18.506   3.288
14577W        W82982  19.782   2.044   1.426
14578W        W82983   0.800  29.712   5.035
14579W        W82984  31.139  22.775  12.097
14580W        W82985  33.711  42.999   2.628
14581W        W82986  20.988  31.582  13.038
14582W        W82987  36.568  24.620   0.763
14583W        W82988   9.223  14.706   1.865
14584W        W82989  25.422  38.537   4.641
14585W        W82990  39.182  34.696  11.827
14586W        W82991  34.121  24.452   3.798
14587W        W82992   7.155  44.449   1.159
14588W        W82993  35.872  38.877  12.987
14589W        W82994  10.362  18.624  11.643
14590W        W82995  12.995  16.441   2.534
14591W        W82996  28.871  44.931  12.991
14592W        W82997  42.297  42.893   2.743
14593W        W82998  32.526  33.937  11.454
14594W        W82999  41.922  13.573  11.039
14595W        W83000  13.642  28.923   0.894
14596W        W83001   4.494  38.625   1.790
14597W        W83002  28.616  22.515   0.392
14598W        W83003  39.773   0.819   3.238
14599W        W83004  41.118  17.515   4.406
14600W        W83005  22.155  42.061   4.144
14601W        W83006  44.757  36.590   0.798
14602W        W83007  14.874   8.852   0.933
14603W        W83008  19.194  15.696   2.341
14604W        W83009   4.945  40.030  12.509
14605W        W83010   3.522  41.605  12.928
14606W        W83011   4.296   6.851  11.105
14607W        W83012  12.683  22.549   1.407
14608W        W83013   4.450  30.380   4.411
14609W        W83014  32.438   3.974  14.358
14610W        W83015  15.058  24.467   1.859
14611W        W83016  10.695  27.885  11.072
14612W        W83017  19.394  26.184   3.755
14613W        W83018  39.464  29.947   1.231
14614W        W83019  35.576   5.085  14.834
14615W        W83020  34.064  40.408  12.520
14616W        W83021  20.265  26.660   4.682
14617W        W83022   8.908  30.067   3.045
14618W        W83023   6.760  30.439   1.250
14619W        W83024  43.827   7.665   3.639
14620W        W83025  37.807  26.073  13.449
14621W        W83026  35.636  39.563   3.176
14622W        W83027  19.759   9.196   4.495
14623W        W83028  13.542  16.143  11.014
14624W        W83029  13.376  32.657   5.430
14625W        W83030   4.053   3.387  12.002
14626W        W83031  28.935  17.596  14.291
14627W        W83032   1.243  33.102   0.861
14628W        W83033  36.581  22.606  12.182
14629W        W83034   9.855  24.689   2.905
14630W        W83035  18.216   9.880   0.542
14631W        W83036   8.368   9.686   3.697
14632W        W83037  39.305  30.509  12.980
14633W        W83038  28.989   8.970   2.296
14634W        W83039   8.367  22.652  14.844
14635W        W83040  10.881   7.421   2.654
14636W        W83041   8.468  28.198   2.751
14637W        W83042  26.836  16.248   3.079
14638W        W83043  39.871  32.818   1.729
14639W        W83044  31.378  26.076  14.270
14640W        W83045  12.827  20.145  12.970
14641W        W83046  33.141  39.870   3.964
14642W        W83047  43.599  38.087   2.481
14643W        W83048  18.319  43.733   1.230
14644W        W83049  13.150   7.558  12.657
14645W        W83050  25.927  30.862  11.147
14646W        W83051  36.133   0.991  13.305
14647W        W83052  12.849   5.571  14.651
14648W        W83053   0.869   6.369   0.408
14649W        W83054  18.579  11.058   5.039
14650W        W83055  26.569   7.698  11.171
14651W        W83056  11.089  29.872   0.400
14652W        W83057  29.414  23.715  13.846
14653W        W83058  28.707   1.902   4.245
14654W        W83059  16.327  31.801   5.102
14655W        W83060  16.804  37.812  14.039
14656W        W83061   9.660   5.191   2.943
14657W        W83062   0.359  44.310  11.180
14658W        W83063   4.474   4.868  12.169
14659W        W83064  38.559   0.913  14.516
14660W        W83065  25.992  37.983   0.261
14661W        W83066  22.699  42.455   2.273
14662W        W83067   0.426  13.152   2.390
14663W        W83068  13.164  10.712  12.555
14664W        W83069   5.478   6.690  11.779
14665W        W83070   7.911  29.020  13.892
14666W        W83071  25.700  23.626   1.950
14667W        W83072  35.048  17.845   1.386
14668W        W83073   3.263  17.067  12.906
14669W        W83074  32.086  35.815  14.068
14670W        W83075  21.363  33.029   3.285
14671W        W83076   4.303  12.813  14.876
14672W        W83077  10.615  24.995   4.641
14673W        W83078  18.381   0.285   1.825
14674W        W83079  11.399  11.291  12.432
14675W        W83080  25.978  27.126  13.508
14676W        W83081  38.429  22.790  11.248
14677W        W83082   8.496  42.970   1.021
14678W        W83083  23.985  15.732  13.143
14679W        W83084  43.482   7.266  14.205
14680W        W83085  17.244  29.472   3.149
14681W        W83086  42.538  39.585  11.391
14682W        W83087  13.831  10.254   2.324
14683W        W83088  37.953   8.190  10.755
14684W        W83089  13.493  42.775   9.990
14685W        W83090   9.175  11.616   4.647
14686W        W83091   0.410   8.584   1.272
14687W        W83092  16.663  38.366  13.947
14688W        W83093  22.086  20.146   4.692
14689W        W83094   2.957   9.176   2.813
14690W        W83095  33.335  31.991  13.371
14691W        W83096  39.727  35.559   1.400
14692W        W83097  40.538  44.984   4.115
14693W        W83098   3.355  25.706   4.826
14694W        W83099   5.199   4.457  11.027
14695W        W83100  18.695  35.992  13.660
14696W        W83101   5.368  13.058   2.660
14697W        W83102  13.578   5.749   2.266
14698W        W83103  30.029  41.712   1.572
14699W        W83104  30.622  27.117  13.983
14700W        W83105  24.517   6.727   0.424
14701W        W83106  30.983   3.794   3.675
14702W        W83107  27.665   7.405  14.366
14703W        W83108  25.952  11.998   0.213
14704W        W83109  44.412  26.471   1.143
14705W        W83110   3.704  17.745  11.671
14706W        W83111  29.232   3.196   3.726
14707W        W83112  32.711  24.089   3.750
14708W        W83113  24.281   5.718  11.665
14709W        W83114  29.647   7.248  11.827
14710W        W83115  24.092  27.507  10.602
14711W        W83116  19.702  19.347   2.741
14712W        W83117  27.467  28.041  10.498
14713W        W83118   8.298  31.594   1.106
14714W        W83119  27.740  18.273  13.342
14715W        W83120  10.321   6.353  12.809
14716W        W83121  16.730  38.789   1.452
14717W        W83122  28.580  38.607   0.317
14718W        W83123  42.858   0.211   2.754
14719W        W83124  27.904  19.338   4.143
14720W        W83125  11.151   3.824  11.536
14721W        W83126  12.301   4.741  14.887
14722W        W83127  17.072  44.736   0.265
14723W        W83128   2.031  44.283   2.296
14724W        W83129  20.001   7.321   5.002
14725W        W83130  20.316   0.840   4.111
14726W        W83131  11.493   9.176  11.998
14727W        W83132  36.902  39.789  11.440
14728W        W83133   0.630  34.123   3.342
14729W        W83134   2.955  18.211   2.639
14730W        W83135   6.516  37.292   9.694
14731W        W83136  19.159  44.386  12.584
14732W        W83137   3.817  35.546   2.879
14733W        W83138  33.024  13.670  12.868
14734W        W83139  19.377   3.862   2.363
14735W        W83140   7.697   5.350  13.340
14736W        W83141  39.038  28.982  14.205
14737W        W83142  43.997  19.208  13.125
14738W        W83143  23.591  19.333   3.589
14739W        W83144  24.204   8.751  12.972
14740W        W83145  30.602  43.623  12.990
14741W        W83146  29.746  23.657   1.086
14742W        W83147  31.462  12.574   3.633
14743W        W83148  26.395  10.279  13.094
14744W        W83149  27.433  27.953  12.901
14745W        W83150  41.188  41.484   2.709
14746W        W83151  41.494  23.624  13.471
14747W        W83152  19.833   2.506   3.675
14748W        W83153  37.007   2.352  10.109
14749W        W83154  37.578  31.699  12.634
14750W        W83155  41.452  32.050   4.544
14751W        W83156  22.182  32.706  14.942
14752W        W83157   0.181  14.814   4.727
14753W        W83158  24.323  44.320   2.261
14754W        W83159  37.900  38.916   2.123
14755W        W83160  41.253  16.131  11.403
14756W        W83161  37.332  17.376   2.318
14757W        W83162  24.942   3.346   2.362
14758W        W83163  19.084  33.687  13.434
14759W        W83164  11.745  34.999   3.371
14760W        W83165  20.368  34.939  11.565
14761W        W83166   5.241  24.430  14.445
14762W        W83167  37.625  38.276  14.330
14763W        W83168   9.492  44.367   0.897
14764W        W83169  43.881   3.202  11.066
14765W        W83170  26.148  12.561   2.321
14766W        W83171   1.264  29.407   3.237
14767W        W83172  13.155  33.699   5.363
14768W        W83173  39.320  28.767   3.675
14769W        W83174  17.279  33.064  13.367
14770W        W83175  36.959   4.524  13.545
14771W        W83176  17.652  35.220  12.834
14772W        W83177  43.345   8.330  14.337
14773W        W83178   1.279  34.317  14.876
14774W        W83179  17.232  42.219  12.549
14775W        W83180  26.545  10.687   3.260
14776W        W83181  13.836  44.116  11.911
14777W        W83182  13.385  26.012  12.639
14778W        W83183  39.958   2.785   0.466
14779W        W83184  38.507  10.808   2.928
14780W        W83185  37.118  26.073  14.529
14781W        W83186  42.277  38.458   2.703
14782W        W83187   6.761  36.831   0.873
14783W        W83188  32.146  40.992   3.245
14784W        W83189   7.821  29.968   3.170
14785W        W83190  31.953  39.239   3.588
14786W        W83191  11.320  31.123   2.265
14787W        W83192  30.175  19.342   4.575
14788W        W83193  36.889  30.159   4.265
14789W        W83194   4.896  10.637   0.889
14790W        W83195  29.628  37.300   2.276
14791W        W83196  24.793   7.939  13.975
14792W        W83197   7.953   2.447   0.861
14793W        W83198  16.922  18.464  14.828
14794W        W83199  28.050  14.592   4.728
14795W        W83200  12.110  29.909   0.414
14796W        W83201  12.887  11.551   0.420
14797W        W83202  19.862  19.230   4.116
14798W        W83203   5.092  20.575   3.747
14799W        W83204  44.839  44.154  10.350
14800W        W83205  43.704  33.649   0.448
14801W        W83206  28.406  18.144   0.910
14802W        W83207  32.576  42.281   3.214
14803W        W83208  43.627   2.897  14.381
14804W        W83209  17.767  35.873   2.332
14805W        W83210  37.465  31.260   4.617
14806W        W83211  10.849   8.186   4.176
14807W        W83212  39.194  39.814  14.203
14808W        W83213  19.724  28.841  13.333
14809W        W83214   7.632  27.919   1.117
14810W        W83215  19.027  43.922  10.925
14811W        W83216  28.021   0.015  14.927
14812W        W83217   4.108   8.906  12.745
14813W        W83218  31.149  20.621   1.293
14814W        W83219  33.388  44.916  11.207
14815W        W83220   7.419  12.856  12.875
14816W        W83221  27.469   2.383   0.036
14817W        W83222   1.884  13.741  10.648
14818W        W83223  34.023   0.559   1.705
14819W        W83224   1.898  18.546   1.440
14820W        W83225  38.752  12.203   1.844
14821W        W83226   4.213  30.464  10.958
14822W        W83227  11.877  27.551   2.291
14823W        W83228   5.810  14.390  13.761
14824W        W83229  12.834  42.766   5.035
14825W        W83230   4.424   8.178  12.600
14826W        W83231   3.716  17.364   3.765
14827W        W83232  41.913  35.023   4.856
14828W        W83233  24.309   2.317  13.962
14829W        W83234  23.209  22.133  14.317
14830W        W83235  31.862  31.496  11.497
14831W        W83236   6.443  20.580  14.524
14832W        W83237  14.493  19.657  14.110
14833W        W83238   6.367  31.221  12.611
14834W        W83239  16.379  35.897  11.984
14835W        W83240  26.256  29.295  10.740
14836W        W83241   9.126   6.378   5.156
14837W        W83242  41.037  20.511  13.428
14838W        W83243  40.923  29.497  10.514
14839W        W83244  26.578  32.563   1.364
14840W        W83245  14.988  34.126   4.036
14841W        W83246   2.375   4.010  12.949
14842W        W83247   9.347  29.411   4.489
14843W        W83248  42.857  29.804  12.061
14844W        W83249  39.894  26.181  12.787
14845W        W83250  42.762   7.444   0.954
14846W        W83251  26.245  18.149  13.299
14847W        W83252   5.187  30.571  13.473
14848W        W83253  39.105  32.142  12.082
14849W        W83254   9.336  28.450  14.727
14850W        W83255  36.473  20.247  11.258
14851W        W83256  10.456  36.326  11.097
14852W        W83257  19.580  21.141  13.469
14853W        W83258   0.745  43.838   0.711
14854W        W83259   6.233  41.957  14.316
14855W        W83260   0.241  39.986  14.104
14856W        W83261  32.215   6.716   4.417
14857W        W83262   0.765   4.035  13.475
14858W        W83263   2.336   0.123   3.154
14859W        W83264  42.939  12.006   0.795
14860W        W83265  11.180  16.809  14.059
14861W        W83266  19.268  31.161   0.202
14862W        W83267  39.467  42.739   4.426
14863W        W83268  32.402   5.472  12.704
14864W        W83269  44.346  38.384  11.534
14865W        W83270  10.040   6.354   1.168
14866W        W83271  35.806   7.115   4.075
14867W        W83272  28.661   4.766   3.302
14868W        W83273  27.910  25.646   1.312
14869W        W83274  28.392  30.997   1.557
14870W        W83275  15.511  22.751   4.105
14871W        W83276   1.869  19.717   0.679
14872W        W83277  15.105  12.750   1.337
14873W        W83278  27.927  14.584  11.610
14874W        W83279  13.305  13.795   4.600
14875W        W83280  27.411  34.933   3.035
14876W        W83281  14.218  41.842   4.696
14877W        W83282  32.328  19.120  12.007
14878W        W83283  25.623  22.601   3.699
14879W        W83284  31.520  26.746  10.041
14880W        W83285  27.891  35.821  14.334
14881W        W83286  42.743  42.338   2.217
14882W        W83287  33.802  39.509  10.737
14883W        W83288   0.284  22.136  14.520
14884W        W83289  23.783  16.896  12.376
14885W        W83290  36.026  33.390  12.180
14886W        W83291  33.865  41.371  14.109
14887W        W83292  38.849  44.832   2.734
14888W        W83293  30.595  18.259   2.203
14889W        W83294  16.381  12.637  11.491
14890W        W83295  34.438  22.217  14.203
14891W        W83296  35.741  19.230  10.499
14892W        W83297  11.279  14.290  13.977
14893W        W83298  32.384  28.998   3.563
14894W        W83299  22.081   8.920  12.453
14895W        W83300  19.539  32.612  13.952
14896W        W83301  37.284   4.904   4.562
14897W        W83302  34.924  38.726   0.107
14898W        W83303  28.931  26.680  14.418
14899W        W83304  43.411  35.860   4.268
14900W        W83305   7.201  23.500   1.441
14901W        W83306  23.512   0.438   4.517
14902W        W83307   7.776  39.630   3.741
14903W        W83308  13.155   6.614  13.312
14904W        W83309  11.190  18.041   3.819
14905W        W83310   3.458  27.025  10.786
14906W        W83311   4.824  29.896  13.010
14907W        W83312  35.071   7.753   2.731
14908W        W83313   2.485  25.049   2.799
14909W        W83314   9.151  34.348  11.036
14910W        W83315  15.785  23.916  10.983
14911W        W83316  17.478  11.892  13.534
14912W        W83317  37.996  28.932   2.396
14913W        W83318  35.798  23.081   0.015
14914W        W83319  39.589  30.877   1.442
14915W        W83320  12.170  42.686   0.627
14916W        W83321  36.491  28.932   1.631
14917W        W83322  36.551  32.487   0.958
14918W        W83323  21.013   9.631   3.669
14919W        W83324  14.809  38.892   2.713
14920W        W83325  10.930  18.406   1.168
14921W        W83326  19.506  38.478   1.590
14922W        W83327  20.204  43.335   2.549
14923W        W83328  41.400   5.016   1.487
14924W        W83329  13.767  32.836  13.802
14925W        W83330  25.933  42.476   0.295
14926W        W83331  37.381   7.913   2.828
14927W        W83332  31.429  44.484   3.175
14928W        W83333  26.133  23.939  11.500
14929W        W83334  42.903  27.621  11.693
14930W        W83335  42.011  12.479   0.583
14931W        W83336  17.053  26.715  11.113
14932W        W83337  38.001  14.359   0.375
14933W        W83338  32.479  20.621   1.405
14934W        W83339   9.234  41.005  13.091
14935W        W83340   0.382   0.023   0.324
14936W        W83341  20.171  39.733  12.500
14937W        W83342  26.245  23.467   1.820
14938W        W83343  41.521  41.548   3.655
14939W        W83344  33.925   8.164  11.027
14940W        W83345  16.332  42.270   2.753
14941W        W83346  23.309   7.880   3.730
14942W        W83347  32.869   3.660   3.866
14943W        W83348  39.732  20.992  13.922
14944W        W83349  12.249  25.767   3.235
14945W        W83350   4.844  11.346   3.259
14946W        W83351   1.434  36.597  11.425
14947W        W83352  17.157  16.787   2.667
14948W        W83353  40.578  41.954  13.560
14949W        W83354  26.008  17.720  10.306
14950W        W83355  13.209  35.955   3.149
14951W        W83356  31.964  34.890  11.035
14952W        W83357  43.873   0.077  10.430
14953W        W83358  37.029  43.998   4.755
14954W        W83359   1.979  29.499   4.889
14955W        W83360  35.125  13.994  13.997
14956W        W83361  31.233  13.071   4.877
14957W        W83362  11.288  24.481   2.036
14958W        W83363  42.794   1.434  14.988
14959W        W83364  18.658  32.650   3.282
14960W        W83365  29.557   2.858  12.606
14961W        W83366   7.698  41.062  10.696
14962W        W83367  32.096  38.412  12.089
14963W        W83368  28.933  32.911  14.571
14964W        W83369  19.701   9.472   4.059
14965W        W83370  23.517   8.972   2.658
14966W        W83371  16.122   6.491  13.125
14967W        W83372   7.425  29.056  11.526
14968W        W83373   3.934  26.795   0.470
14969W        W83374  33.428  29.297   4.625
14970W        W83375  35.988  21.686   2.335
14971W        W83376  41.897  10.970  13.916
14972W        W83377  28.208   8.777   3.716
14973W        W83378  43.227   9.138   2.360
14974W        W83379  23.552  15.770   2.712
14975W        W83380   9.717   6.107  11.683
14976W        W83381  39.991  28.999  11.328
14977W        W83382  21.014  20.003  12.528
14978W        W83383  37.683  11.564  13.025
14979W        W83384  15.706   1.253  12.014
14980W        W83385  38.423  19.187  12.405
14981W        W83386   1.944   8.446   2.217
14982W        W83387  32.105  31.487   0.209
14983W        W83388  21.149  30.345   2.220
14984W        W83389  11.792  44.165  13.582
14985W        W83390  39.129  40.517   0.388
14986W        W83391  41.072   2.676   3.189
14987W        W83392  13.911   6.469   4.154
14988W        W83393  28.484  34.943  12.167
14989W        W83394  30.695  23.845  10.647
14990W        W83395   6.654   1.814   3.177
14991W        W83396  22.866  11.243   3.669
14992W        W83397  15.127  32.948  13.522
14993W        W83398  35.532   9.825  14.711
14994W        W83399  31.126   4.610  11.860
14995W        W83400  23.739   1.837  12.017
14996W        W83401  22.972  17.219   4.596
14997W        W83402  13.353  14.172  10.480
14998W        W83403  25.271  23.549  14.943
14999W        W83404  22.532  17.113   3.816
15000W        W83405  25.704  20.612  11.474
15001W        W83406  36.303  33.867   3.318
15002W        W83407  11.764  32.452   1.903
15003W        W83408   6.426  36.476   2.103
15004W        W83409  13.772  16.841  14.805
15005W        W83410  38.537   5.877   4.982
15006W        W83411  32.829  13.701   2.918
15007W        W83412  33.583  17.685   4.655
15008W        W83413  26.165   3.592  12.939
15009W        W83414  25.910  34.815  12.487
15010W        W83415  36.999  29.119  13.039
15011W        W83416  35.369   5.085  13.832
15012W        W83417  25.497  35.021  14.737
15013W        W83418  43.436   5.452   0.049
15014W        W83419  41.597  10.879  14.335
15015W        W83420  16.184   2.940   2.206
15016W        W83421   7.937   6.193  13.141
15017W        W83422  40.349  36.865   3.135
15018W        W83423  37.542  44.546   3.168
15019W        W83424  20.990   3.720  13.543
15020W        W83425  29.846   7.145  14.005
15021W        W83426  37.905  42.839   0.422
15022W        W83427  37.507   3.638   0.096
15023W        W83428  42.372  23.074   2.374
15024W        W83429  41.231  34.113   3.362
15025W        W83430   6.113  22.791  11.043
15026W        W83431   1.501  16.782   2.824
15027W        W83432  10.244  30.296  14.393
15028W        W83433  34.846  32.357   4.214
15029W        W83434  39.690  26.625   0.896
15030W        W83435  25.407   1.317  14.547
15031W        W83436   6.338  18.910  13.822
15032W        W83437  38.825  41.554   4.098
15033W        W83438  42.783  31.598   3.664
15034W        W83439  20.715   2.726   2.363
15035W        W83440  44.246   2.551   0.021
15036W        W83441  16.015  35.333  13.900
15037W        W83442  39.734   4.654   1.264
15038W        W83443  14.483  24.625   2.775
15039W        W83444  32.826  30.738  12.905
15040W        W83445  13.652  38.768  12.142
15041W        W83446  32.897   9.380   2.682
15042W        W83447  21.284  35.425   3.704
15043W        W83448  31.565  30.876   0.808
15044W        W83449   9.749  28.035  14.004
15045W        W83450  41.400  13.606  13.994
15046W        W83451   8.572  21.041  10.986
15047W        W83452   0.750  16.127  12.438
15048W        W83453  34.598   9.812  12.350
15049W        W83454  34.595  28.080  14.821
15050W        W83455  31.644  33.470   0.062
15051W        W83456  15.678  28.067   0.858
15052W        W83457  20.092  20.828   3.422
15053W        W83458  40.848   0.122  12.545
15054W        W83459  21.762   6.269   3.310
15055W        W83460   2.870  29.402  12.090
15056W        W83461   1.034  25.971   1.766
15057W        W83462  40.796  25.155  12.808
15058W        W83463  43.701  11.435  12.003
15059W        W83464  18.528  27.794   0.791
15060W        W83465  10.716   7.917  10.676
15061W        W83466  36.069   5.244  10.974
15062W        W83467  28.945  32.845  12.530
15063W        W83468   7.890  21.449  10.736
15064W        W83469  22.552   1.349  11.026
15065W        W83470  28.914   8.794   2.780
15066W        W83471  19.925  26.256  14.306
15067W        W83472  21.015   9.116  10.710
15068W        W83473  29.999  14.692  11.270
15069W        W83474  33.371  18.086   2.776
15070W        W83475  41.547  16.639  12.051
15071W        W83476  37.107  33.094  14.837
15072W        W83477  23.916   0.644  10.705
15073W        W83478  32.207  22.137   0.025
15074W        W83479  16.819  26.241  11.005
15075W        W83480  26.292  22.525  11.087
15076W        W83481  10.823  21.043  11.061
15077W        W83482   5.674  27.538   4.070
15078W        W83483  21.460  10.810   1.855
15079W        W83484  24.472  31.424  10.709
15080W        W83485  15.049   4.762  13.021
15081W        W83486  23.987  31.606   0.398
15082W        W83487  14.095   8.903  11.619
15083W        W83488   9.308  34.489  13.367
15084W        W83489  39.625   1.362  10.713
15085W        W83490   7.886  22.766  13.945
15086W        W83491  33.046  26.490   0.822
15087W        W83492   5.405  20.761  10.596
15088W        W83493  23.532  10.746   2.699
15089W        W83494  40.408   0.019  12.798
15090W        W83495  37.341   7.908  12.387
15091W        W83496  38.876   7.373   3.230
15092W        W83497  22.087  40.344  11.470
15093W        W83498  23.297   2.601   0.316
15094W        W83499  44.904   9.712  12.131
15095W        W83500   1.177  19.717  14.886
15096W        W83501   4.250   3.652  10.625
15097W        W83502   9.246   9.437   2.507
15098W        W83503  37.330   1.889  12.120
15099W        W83504  10.268   7.315   4.315
15100W        W83505   9.850   3.560  12.403
15101W        W83506  33.905  42.217  11.125
15102W        W83507  12.640   6.585   2.842
15103W        W83508   8.223  38.108   4.119
15104W        W83509  37.945  31.928   3.844
15105W        W83510  23.230  27.903   1.353
15106W        W83511   0.609  19.069  13.889
15107W        W83512   2.571  35.808   1.454
15108W        W83513  16.867  38.380   1.159
15109W        W83514   8.640  20.439   4.607
15110W        W83515  35.530  12.800   0.358
15111W        W83516  30.053   3.297  13.529
15112W        W83517  26.069   3.483   1.405
15113W        W83518  16.874  44.552  12.387
15114W        W83519  11.864  35.606   4.105
15115W        W83520   3.873  38.313   2.550
15116W        W83521  25.657  27.699  11.690
15117W        W83522  12.050  11.556   3.692
15118W        W83523  30.133  40.378   3.723
15119W        W83524  14.748  27.961   3.034
15120W        W83525  23.474  20.621   2.407
15121W        W83526  43.776  12.312  11.617
15122W        W83527  28.897  37.635  12.263
15123W        W83528  21.668  34.989  13.922
15124W        W83529  33.898  31.781  11.560
15125W        W83530  19.176  17.053  11.859
15126W        W83531   3.947  14.996  11.508
15127W        W83532  33.570  23.041  11.464
15128W        W83533  15.151  35.572   5.060
15129W        W83534  26.030  31.092   0.431
15130W        W83535  30.107  29.553   4.174
15131W        W83536  39.834  18.049  13.917
15132W        W83537   8.878  16.364   0.011
15133W        W83538  11.909  35.046  11.200
15134W        W83539  14.575  17.163  14.442
15135W        W83540  19.759  41.683   1.376
15136W        W83541   8.835  32.455  14.032
15137W        W83542  37.006  32.475   1.196
15138W        W83543  22.566  39.083   3.190
15139W        W83544   5.835  40.088   1.294
15140W        W83545  28.913  26.424   4.206
15141W        W83546  24.153   2.468   1.734
15142W        W83547  35.440  41.963   3.001
15143W        W83548  33.018  40.211  13.503
15144W        W83549  38.478  32.920   1.850
15145W        W83550   8.639  30.090  14.955
15146W        W83551  18.271  22.500   1.807
15147W        W83552  13.710  13.943   1.815
15148W        W83553  12.885  21.865   4.731
15149W        W83554  25.122  21.136   4.196
15150W        W83555  34.001  39.932  12.812
15151W        W83556  38.824  39.461  12.062
15152W        W83557  39.962   0.720   1.686
15153W        W83558  24.616  22.473  13.595
15154W        W83559  41.483  21.229   3.289
15155W        W83560  13.400  13.701   2.195
15156W        W83561   5.946  26.732  12.293
15157W        W83562   9.407  36.050  13.580
15158W        W83563  15.537  24.505   0.159
15159W        W83564   7.477  19.033   2.767
15160W        W83565  11.822  33.082  12.539
15161W        W83566   2.278  32.491   3.750
15162W        W83567  40.425  13.663  14.677
15163W        W83568  37.653  30.188  13.771
15164W        W83569  41.864  15.872  14.771
15165W        W83570  42.059  24.934   0.383
15166W        W83571  13.112   7.113  13.370
15167W        W83572  30.936  42.641   3.579
15168W        W83573  24.913  43.928   4.639
15169W        W83574   1.264   0.084   2.240
15170W        W83575  12.201  29.731  10.998
15171W        W83576   8.253  22.195  12.307
15172W        W83577   6.743   8.965   3.347
15173W        W83578  25.629  19.059  12.433
15174W        W83579  13.686  43.272  11.956
15175W        W83580  38.693  12.639   0.338
15176W        W83581   4.109  28.462  11.870
15177W        W83582   9.697  22.603  14.531
15178W        W83583   1.750  21.687  13.699
15179W        W83584   0.483  44.223   4.408
15180W        W83585  12.361  11.400  11.677
15181W        W83586   3.024   2.356  12.599
15182W        W83587   8.386  12.931  12.102
15183W        W83588  14.351  38.592   2.808
15184W        W83589   8.875  34.615  12.180
15185W        W83590  33.953   8.112   0.003
15186W        W83591  18.758   9.647   1.299
15187W        W83592  10.297  41.390  11.594
15188W        W83593   8.496  37.292  11.377
15189W        W83594  22.921   2.862  13.938
15190W        W83595   0.827  28.978   2.345
15191W        W83596  14.201  44.368  10.244
15192W        W83597  12.885  40.509   3.073
15193W        W83598  44.626  43.876   3.798
15194W        W83599  33.715  40.037  10.795
15195W        W83600  12.583  33.580   0.247
15196W        W83601  25.455  21.757  13.873
15197W        W83602  23.937  26.617  14.777
15198W        W83603   0.515   2.375  11.234
15199W        W83604  14.664  44.936   1.353
15200W        W83605  25.263  39.169  14.864
15201W        W83606  25.935  42.408  13.233
15202W        W83607  29.112  23.064   1.389
15203W        W83608  30.476   7.677  13.470
15204W        W83609  36.369  19.713   3.363
15205W        W83610  31.486  35.047  10.876
15206W        W83611   9.105  28.670  12.915
15207W        W83612  39.698  41.242   1.875
15208W        W83613  25.039  21.605   4.451
15209W        W83614  11.627   6.343  14.468
15210W        W83615   3.768  22.721  12.708
15211W        W83616  20.113  27.926  10.465
15212W        W83617  38.708  24.935   4.962
15213W        W83618  19.656  19.161  12.593
15214W        W83619  10.408  43.073   4.241
15215W        W83620   4.171  27.967  14.961
15216W        W83621  22.924  32.199   1.230
15217W        W83622  12.884   2.723   2.682
15218W        W83623  13.235  21.455   0.352
15219W        W83624   7.773  21.854   1.562
15220W        W83625  13.747  37.126  14.454
15221W        W83626  36.877  18.815   1.372
15222W        W83627  34.701   2.145  12.992
15223W        W83628  34.035  44.992  10.626
15224W        W83629  37.003  16.651  10.236
15225W        W83630  27.682  26.265  11.967
15226W        W83631  18.151  11.770   0.440
15227W        W83632  18.297  10.361  13.379
15228W        W83633  37.841  41.797   4.729
15229W        W83634  17.649  25.686   0.656
15230W        W83635  40.426  34.311   3.655
15231W        W83636   0.936  38.988   1.795
15232W        W83637  32.455  16.753   3.731
15233W        W83638  41.836   9.115  13.172
15234W        W83639  25.652   3.329  10.913
15235W        W83640  44.325  34.391  13.409
15236W        W83641  24.619  21.170   4.013
15237W        W83642  11.410  17.544  11.941
15238W        W83643  41.710   8.313  14.325
15239W        W83644  21.134  13.162  11.098
15240W        W83645  18.176  33.154   3.554
15241W        W83646   4.926   8.334   0.886
15242W        W83647  15.128  12.652   1.873
15243W        W83648  37.354  30.165   4.562
15244W        W83649   0.160   1.937  12.892
15245W        W83650   8.477  34.063   0.876
15246W        W83651  24.608  40.190  10.264
15247W        W83652  16.231  27.422  13.391
15248W        W83653  21.350   7.296   1.250
15249W        W83654  28.696  24.452  14.295
15250W        W83655   3.928  14.932   2.643
15251W        W83656  29.189  23.510   4.161
15252W        W83657  41.874   9.664   3.818
15253W        W83658  28.200  27.721   3.594
15254W        W83659  44.033  33.800  13.619
15255W        W83660  37.668  33.683  14.739
15256W        W83661  18.741  36.335   4.577
15257W        W83662  43.370  19.771   4.539
15258W        W83663   8.429  36.079   2.469
15259W        W83664  18.648  43.449  14.381
15260W        W83665   4.324  14.598   2.495
15261W        W83666  34.850  24.192  12.011
15262W        W83667   3.835  40.238  10.456
15263W        W83668  31.941  41.587  12.342
15264W        W83669  28.317  26.501  13.458
15265W        W83670  44.511   2.977  11.611
15266W        W83671  29.529  20.109   2.842
15267W        W83672  11.190  16.661   2.669
15268W        W83673   1.250  35.444   0.271
15269W        W83674  34.531  23.240   3.540
15270W        W83675   8.790   6.422  12.964
15271W        W83676  13.893  31.880   1.846
15272W        W83677  15.630   4.061  14.530
15273W        W83678  13.530  25.586  11.951
15274W        W83679  43.808   3.767   4.169
15275W        W83680  29.155  35.470  11.006
15276W        W83681   6.137  11.498   4.451
15277W        W83682  30.047  26.603   4.502
15278W        W83683  15.553  23.502  10.683
15279W        W83684  43.037  18.798   2.301
15280W        W83685  44.343  17.365  10.600
15281W        W83686  20.688  14.897  12.382
15282W        W83687  30.841  36.876  11.506
15283W        W83688  38.979  32.896   0.850
15284W        W83689  30.908  22.432  11.237
15285W        W83690  41.296  32.650   1.392
15286W        W83691  23.639  24.963  13.730
15287W        W83692  41.240   2.380   0.501
15288W        W83693  30.966  31.160   1.937
15289W        W83694  25.365  42.080   2.324
15290W        W83695   4.926  40.359   2.927
15291W        W83696  44.926  37.960   0.939
15292W        W83697  11.687   2.964  13.670
15293W        W83698   3.674  40.337   3.760
15294W        W83699  15.472  29.621   4.366
15295W        W83700  33.093  10.619  12.102
15296W        W83701  13.218  38.540  12.298
15297W        W83702  24.970  16.070   2.901
15298W        W83703  44.281   5.952   3.845
15299W        W83704  33.601  16.224   2.764
15300W        W83705   9.817  29.615   1.631
15301W        W83706  30.432  10.656   4.552
15302W        W83707   3.444  24.572   1.664
15303W        W83708  15.995  22.059  14.761
15304W        W83709   8.317  24.659  13.819
15305W        W83710   2.791  10.715   1.119
15306W        W83711  12.805   2.851  11.530
15307W        W83712  12.762   1.984   0.360
15308W        W83713  44.004  29.621   4.384
15309W        W83714  14.808  41.782   0.821
15310W        W83715  44.716  29.652  13.987
15311W        W83716  25.359  40.348   2.630
15312W        W83717  17.775  16.819   0.247
15313W        W83718  27.602  18.485   4.260
15314W        W83719  19.651  40.731  13.346
15315W        W83720  37.614  27.552   3.742
15316W        W83721  20.222  22.044   2.899
15317W        W83722  24.025  28.356   3.797
15318W        W83723  29.597  28.546  14.368
15319W        W83724   7.644   7.144  14.730
15320W        W83725  39.349  21.003   3.602
15321W        W83726  39.418   6.736  11.784
15322W        W83727  44.765   2.989   4.651
15323W        W83728  32.972  18.193  10.709
15324W        W83729   3.196   4.511  11.847
15325W        W83730   4.854  23.765   1.477
15326W        W83731  10.460  31.518   2.616
15327W        W83732   6.556  24.007   0.829
15328W        W83733  42.333  43.292   2.429
15329W        W83734  16.988   0.219   1.028
15330W        W83735  26.829   1.960  11.628
15331W        W83736  24.876  32.751   4.627
15332W        W83737  33.198  29.394  11.080
15333W        W83738  41.973  14.770  11.537
15334W        W83739  34.669  32.016   3.567
15335W        W83740  35.937  28.487   1.761
15336W        W83741  18.261  25.860  13.858
15337W        W83742   0.213  36.945   3.545
15338W        W83743  17.774  43.688   4.221
15339W        W83744  24.603  40.940   2.187
15340W        W83745   5.756  26.265  12.413
15341W        W83746  36.853  30.181   2.227
15342W        W83747  17.824  12.528   1.083
15343W        W83748  14.244  32.175  11.426
15344W        W83749  29.511  22.938  12.608
15345W        W83750  19.732   0.189  10.695
15346W        W83751   8.324  35.467  11.698
15347W        W83752  22.482  37.972   1.404
15348W        W83753   2.951  27.098   2.711
15349W        W83754  36.796  20.266   1.458
15350W        W83755  39.013   0.966   3.799
15351W        W83756  35.590  35.361  12.116
15352W        W83757   3.441  27.240  13.503
15353W        W83758  39.926  23.179   0.041
15354W        W83759   6.824  12.354  14.748
15355W        W83760  11.431  43.293  11.216
15356W        W83761  26.542  41.933  12.125
15357W        W83762   0.393  44.954  12.911
15358W        W83763  41.952   6.261   1.973
15359W        W83764  21.734  24.962  12.564
15360W        W83765  39.824  13.879   2.490
15361W        W83766  17.735  22.869  14.855
15362W        W83767  29.341  41.242   0.885
15363W        W83768  21.490  26.916   1.229
15364W        W83769  11.569   1.832   0.055
15365W        W83770  17.047   0.293   9.954
15366W        W83771  39.824  15.101   0.749
15367W        W83772  19.554  41.431  13.807
15368W        W83773  43.421   9.602  11.091
15369W        W83774  14.829   3.669  14.295
15370W        W83775  33.558  12.142  14.091
15371W        W83776  14.585  31.313   0.682
15372W        W83777  29.458  19.002   0.902
15373W        W83778  23.806  24.183  12.891
15374W        W83779  44.363  42.452   2.736
15375W        W83780  44.264   8.562  12.006
15376W        W83781  34.651  13.075  13.394
15377W        W83782   4.536  26.446   4.349
15378W        W83783   0.489   6.100   3.935
15379W        W83784   6.433  12.559   0.610
15380W        W83785   2.524  25.645   4.724
15381W        W83786  36.623   5.496   2.325
15382W        W83787  13.175  22.864   0.748
15383W        W83788  13.271  14.700  13.126
15384W        W83789   9.880  14.358   4.267
15385W        W83790  14.285   5.656   3.397
15386W        W83791  31.921  14.689   2.332
15387W        W83792  15.249  38.027  11.173
15388W        W83793  44.827   4.607  14.632
15389W        W83794  13.174   8.432  13.471
15390W        W83795  43.111  25.538   1.946
15391W        W83796   2.876  18.800   0.919
15392W        W83797  14.778   6.214  14.460
15393W        W83798  34.133  34.992  10.650
15394W        W83799  13.416   7.079  12.920
15395W        W83800  14.825  40.386   3.742
15396W        W83801  40.495  14.892   2.414
15397W        W83802   6.307  12.683   1.633
15398W        W83803  35.419  18.820   1.953
15399W        W83804  21.716  17.465   3.847
15400W        W83805  13.903   2.994   0.352
15401W        W83806   0.749   1.002   9.996
15402W        W83807   1.395  22.075  14.456
15403W        W83808   6.364  22.945   3.500
15404W        W83809  22.704  15.079  11.063
15405W        W83810  35.797  41.338   2.691
15406W        W83811  39.023  28.940   2.255
15407W        W83812  26.041   5.776   1.796
15408W        W83813  32.287  22.665  11.560
15409W        W83814  17.631  20.152   4.134
15410W        W83815   7.222   9.119   4.474
15411W        W83816  19.307  15.015  11.715
15412W        W83817  42.443   3.200   4.132
15413W        W83818  20.725  21.326   1.362
15414W        W83819  27.809  42.356   4.785
15415W        W83820  33.136  18.545   4.919
15416W        W83821  12.824  17.271   2.059
15417W        W83822  39.408   8.056  13.534
15418W        W83823  29.863  24.257   1.702
15419W        W83824  34.910   1.192   3.683
15420W        W83825   3.868  22.132   4.586
15421W        W83826  36.339  21.955  10.573
15422W        W83827  26.225  33.601  10.764
15423W        W83828   0.015  24.699   1.965
15424W        W83829  10.802  39.321   3.696
15425W        W83830  30.981   6.869  12.541
15426W        W83831  24.733  11.343   1.407
15427W        W83832  25.624  36.002   2.270
15428W        W83833   7.324  39.245  10.757
15429W        W83834  39.866  40.751   4.084
15430W        W83835  10.675  15.646   1.950
15431W        W83836  15.654  21.156  10.349
15432W        W83837  26.030  20.342   0.784
15433W        W83838  19.326  33.514  12.963
15434W        W83839  34.785   8.481   0.052
15435W        W83840   6.897  19.162  13.450
15436W        W83841  16.471   8.577  14.981
15437W        W83842  27.694   2.801  12.490
15438W        W83843  30.978  27.073  13.133
15439W        W83844  24.419  33.829  13.218
15440W        W83845  11.742  35.469  12.179
15441W        W83846  31.940  21.340   1.724
15442W        W83847  12.859  10.550   0.190
15443W        W83848  35.331   7.835  10.751
15444W        W83849   2.897  31.876   2.943
15445W        W83850  16.438  36.922   0.841
15446W        W83851  33.044  37.016  11.633
15447W        W83852  40.083   8.345  11.169
15448W        W83853  38.391   4.140   0.750
15449W        W83854  23.148  21.573   1.858
15450W        W83855  21.932  30.356  13.485
15451W        W83856  13.577  29.089  12.095
15452W        W83857   3.044  13.346  11.589
15453W        W83858  37.716   6.383   2.372
15454W        W83859  36.541  26.908  14.868
15455W        W83860  33.332  43.871  13.597
15456W        W83861  34.544  19.460  14.444
15457W        W83862  33.653  40.788   4.114
15458W        W83863  26.154  27.110  14.452
15459W        W83864  37.643  41.738   0.842
15460W        W83865  39.290  19.228   3.525
15461W        W83866  24.493   6.937   2.384
15462W        W83867  35.085  29.469  13.752
15463W        W83868  20.551  38.842   3.607
15464W        W83869   0.736   2.268  11.668
15465W        W83870   1.714  31.887   1.215
15466W        W83871   4.377  17.209   2.271
15467W        W83872  19.966  18.578  12.550
15468W        W83873  43.065  29.650   4.492
15469W        W83874   6.719  28.639   1.922
15470W        W83875  44.391  32.027   4.344
15471W        W83876  41.992   7.368  11.201
15472W        W83877  20.687  31.607   4.117
15473W        W83878  30.912  11.047  12.602
15474W        W83879   7.852   2.368   2.406
15475W        W83880  17.518  43.550   0.917
15476W        W83881  31.869   3.774   4.619
15477W        W83882   5.977  34.507  13.532
15478W        W83883   3.948  11.424   3.179
15479W        W83884  12.422  26.124   1.870
15480W        W83885  21.951  23.912  11.959
15481W        W83886   2.258  31.854  13.252
15482W        W83887  26.847  10.340   4.124
15483W        W83888  24.582  15.064   0.308
15484W        W83889  27.210   0.738   3.244
15485W        W83890  33.088  23.234   4.738
15486W        W83891  38.757   5.003   0.464
15487W        W83892  30.485  35.939   4.612
15488W        W83893  36.837  34.087   0.659
15489W        W83894  23.593  26.624  10.038
15490W        W83895  15.368   3.956   5.002
15491W        W83896  39.944  21.866  11.136
15492W        W83897  41.525  38.271   1.924
15493W        W83898  18.055  18.276   2.203
15494W        W83899  16.898  14.694   2.986
15495W        W83900  10.766   2.734  11.100
15496W        W83901  10.701   5.167  11.040
15497W        W83902  44.003  31.700   1.173
15498W        W83903  12.132  27.173  10.793
15499W        W83904  32.441  12.653   3.557
15500W        W83905  32.654  33.624   3.154
15501W        W83906  10.429   3.353   1.166
15502W        W83907  21.253  43.485  13.942
15503W        W83908   8.359  43.556  12.963
15504W        W83909  25.380  18.769  14.270
15505W        W83910  23.496  24.938   4.140
15506W        W83911  23.157  39.336  13.329
15507W        W83912  36.735  38.993   3.308
15508W        W83913  18.027  15.602  11.678
15509W        W83914  42.500  32.615  10.455
15510W        W83915  44.829  39.108  13.328
15511W        W83916  16.559  29.635  10.654
15512W        W83917   5.296  42.584  13.980
15513W        W83918  26.673  24.603  11.990
15514W        W83919   0.702  43.724   4.206
15515W        W83920  12.267  24.214  12.953
15516W        W83921  15.819  18.273  10.959
15517W        W83922   9.667  21.413   4.588
15518W        W83923  43.907   3.758  10.727
15519W        W83924   7.873   3.313   1.488
15520W        W83925  20.765  33.578   1.896
15521W        W83926  32.352  37.944  14.274
15522W        W83927   9.203  15.548   2.879
15523W        W83928  40.984   8.211  13.793
15524W        W83929  27.872  44.293  10.856
15525W        W83930  11.046   5.231   3.291
15526W        W83931   6.759  25.055   3.694
15527W        W83932   9.654  21.694   1.388
15528W        W83933  13.232  23.033   2.021
15529W        W83934  42.526  27.115   3.807
15530W        W83935  13.888  43.292   0.381
15531W        W83936   9.086   9.290  12.061
15532W        W83937  12.745   8.691   0.340
15533W        W83938  44.344  33.409   2.157
15534W        W83939  24.702   9.941  13.442
15535W        W83940  23.750   0.903   4.606
15536W        W83941  23.652  22.126   1.106
15537W        W83942   9.904   1.216  14.430
15538W        W83943  12.750  21.176   0.403
15539W        W83944  40.385  39.957  11.615
15540W        W83945  44.418  21.652   5.028
15541W        W83946  15.730   3.310  13.935
15542W        W83947   2.875  31.383   3.083
15543W        W83948  36.133  18.237  14.573
15544W        W83949  20.967  43.059  13.980
15545W        W83950  21.956  23.057  10.552
15546W        W83951  35.400  34.405  10.495
15547W        W83952  10.351  22.731   0.784
15548W        W83953   0.404  23.794   1.214
15549W        W83954  41.605  32.159   3.321
15550W        W83955  38.939  17.192   4.657
15551W        W83956  11.337  33.477  10.995
15552W        W83957   5.346  18.631  12.557
15553W        W83958  35.495  27.663  11.069
15554W        W83959   1.014  43.394  13.138
15555W        W83960  19.818  35.418   3.635
15556W        W83961   8.840  36.077   3.398
15557W        W83962  44.252  31.245  10.159
15558W        W83963  19.756  10.297  11.104
15559W        W83964  19.600  42.889  14.392
15560W        W83965  44.526  39.023  14.664
15561W        W83966   0.956   9.408   1.483
15562W        W83967  36.273  18.027   2.296
15563W        W83968  44.489  21.576  14.989
15564W        W83969  43.866  27.087   1.073
15565W        W83970  25.963  30.398  12.061
15566W        W83971  18.970  16.418  14.754
15567W        W83972  33.862   7.280   0.399
15568W        W83973  40.260  28.498  13.966
15569W        W83974  16.244   8.750   2.368
15570W        W83975  35.883  17.323  13.860
15571W        W83976   8.972   2.696   4.846
15572W        W83977  22.157  33.647   0.755
15573W        W83978  29.576  11.150  11.181
15574W        W83979  32.956  42.801   4.329
15575W        W83980  40.460  41.878  12.563
15576W        W83981  16.702  24.745   4.315
15577W        W83982  10.587   0.439   5.028
15578W        W83983  22.792  39.469  11.113
15579W        W83984   7.729  43.181  13.538
15580W        W83985  24.490  28.296  14.699
15581W        W83986   6.366   4.236   4.524
15582W        W83987  43.527  44.192  12.396
15583W        W83988   0.689  37.947   1.446
15584W        W83989  29.522  29.837   4.855
15585W        W83990  35.613  10.456   0.340
15586W        W83991  19.704  26.512  10.663
15587W        W83992  18.620  34.884  11.890
15588W        W83993  13.775  36.369   0.921
15589W        W83994   4.756  24.135  13.714
15590W        W83995   0.259  19.109   2.719
15591W        W83996  30.984  19.638  10.044
15592W        W83997   7.710  26.943  11.966
15593W        W83998  10.242   7.308   0.831
15594W        W83999  35.500  10.183  11.120
15595W        W84000  27.651  41.937   3.667
15596W        W84001  14.599  23.182   5.041
15597W        W84002  28.991  15.338   3.195
15598W        W84003  10.941  13.007  13.937
15599W        W84004  28.018  33.707  14.741
15600W        W84005  34.721  33.404   4.999
15601W        W84006  14.465  36.538  12.282
15602W        W84007  34.503  39.946  10.534
15603W        W84008  37.773  21.076   0.377
15604W        W84009  30.970  12.784  14.078
15605W        W84010  36.600  29.226  11.164
15606W        W84011   1.752  26.472  13.233
15607W        W84012   0.363  20.505   4.155
15608W        W84013  18.180  28.180  11.191
15609W        W84014  17.373  26.439   3.405
15610W        W84015  32.026   1.846   0.713
15611W        W84016   6.718  21.774   2.863
15612W        W84017  31.012  32.560   4.971
15613W        W84018  24.106  37.322   0.974
15614W        W84019  42.816  22.991  12.562
15615W        W84020  31.910  42.365  13.564
15616W        W84021  17.095  24.477   1.786
15617W        W84022  40.437  21.189   0.220
15618W        W84023  24.564   9.441   3.796
15619W        W84024  35.300  32.078   0.825
15620W        W84025   0.382  21.728  10.941
15621W        W84026  43.867  30.941   4.606
15622W        W84027  44.820  43.876  13.495
15623W        W84028  30.492  26.457   0.052
15624W        W84029  12.408  35.576   1.337
15625W        W84030  14.283  44.038  14.602
15626W        W84031  33.521  17.912  13.509
15627W        W84032  13.123  35.475  11.375
15628W        W84033  38.317  28.007   0.906
15629W        W84034  17.765   0.829   4.650
15630W        W84035  19.778  38.887   2.949
15631W        W84036  19.281  34.452   4.770
15632W        W84037  39.515   5.747  13.650
15633W        W84038   6.295  44.030   4.273
15634W        W84039   6.330  25.708  14.444
15635W        W84040   9.406  25.434   3.338
15636W        W84041  23.676   2.074   1.292
15637W        W84042  27.996  25.228   1.623
15638W        W84043  38.240  17.845  12.960
15639W        W84044  12.056   1.320  13.338
15640W        W84045   3.380  14.416  10.595
15641W        W84046  42.902   3.208   1.149
15642W        W84047  21.085   8.488  12.896
15643W        W84048  34.837  22.132   0.107
15644W        W84049  11.973   3.136  11.977
15645W        W84050   2.531  32.455  11.105
15646W        W84051   6.902   9.654   4.688
15647W        W84052  24.223  12.519   3.180
15648W        W84053   1.501   3.554  14.743
15649W        W84054  39.465   1.334   2.595
15650W        W84055  22.263  43.681  13.992
15651W        W84056  35.985  20.101  11.475
15652W        W84057   5.256   1.496  10.473
15653W        W84058  33.643  32.997  14.152
15654W        W84059   1.644  27.465   2.721
15655W        W84060   2.421  18.945  11.262
15656W        W84061  17.633  20.972   4.502
15657W        W84062  43.347  35.492   0.442
15658W        W84063  28.183  32.338  12.087
15659W        W84064  18.364   3.181  12.900
15660W        W84065  28.484  44.401  14.262
15661W        W84066  19.729  21.626   2.080
15662W        W84067  31.837  44.334   0.247
15663W        W84068   5.633  11.815  14.138
15664W        W84069  30.106  20.920  12.102
15665W        W84070  31.515  20.321   3.701
15666W        W84071   7.444  12.642   2.697
15667W        W84072  27.187   8.057  10.704
15668W        W84073   8.803  19.299  14.567
15669W        W84074  29.226   7.180  11.168
15670W        W84075  38.179  23.286   3.744
15671W        W84076  30.433   7.894   2.928
15672W        W84077  18.044  21.658   2.349
15673W        W84078   8.322  37.233  12.660
15674W        W84079  14.905  16.014  12.174
15675W        W84080   3.500   3.463   2.771
15676W        W84081  20.672  36.796  13.446
15677W        W84082  32.670  13.044   1.752
15678W        W84083   6.943  27.588  13.812
15679W        W84084  11.084   2.253   0.308
15680W        W84085  27.885  44.766  11.583
15681W        W84086   7.916  43.349   1.701
15682W        W84087  14.845   5.016  11.966
15683W        W84088  22.633  14.014   3.539
15684W        W84089   9.841  41.572   3.862
15685W        W84090  18.712  44.455   4.541
15686W        W84091  27.726  34.526   4.803
15687W        W84092  10.978  28.509   9.815
15688W        W84093   6.737  22.794  12.993
15689W        W84094  15.057   6.578  11.064
15690W        W84095   5.147  37.202   1.113
15691W        W84096  29.583   4.935   1.272
15692W        W84097  27.107  42.492   0.833
15693W        W84098  22.165   2.874   1.971
15694W        W84099   3.429  29.999  13.051
15695W        W84100  37.858   3.496   0.728
15696W        W84101  29.466  23.148  14.999
15697W        W84102  41.526  43.969  13.098
15698W        W84103   9.339  21.673   2.783
15699W        W84104  32.630   5.242  14.386
15700W        W84105  16.680  41.341   1.870
15701W        W84106  42.730   8.948   3.057
15702W        W84107  31.046  19.183   1.376
15703W        W84108  10.572  31.877  11.709
15704W        W84109   9.177   1.219   3.762
15705W        W84110  26.664  25.377  13.998
15706W        W84111  12.686   4.397  11.173
15707W        W84112  30.678  34.567   3.132
15708W        W84113  37.383  32.367  14.517
15709W        W84114   8.911  34.595   1.466
15710W        W84115  31.178  33.930  14.014
15711W        W84116  25.979  14.599  10.725
15712W        W84117  40.368  33.382   4.098
15713W        W84118  37.872  36.182   2.650
15714W        W84119  44.846  11.220  10.074
15715W        W84120   7.690  22.716   3.507
15716W        W84121  28.987  35.117  10.678
15717W        W84122  31.937   1.493   2.183
15718W        W84123  22.277  29.895   2.685
15719W        W84124  28.654  33.380  13.516
15720W        W84125  44.912  36.032   1.602
15721W        W84126  10.210  15.294   2.280
15722W        W84127  44.921  44.215   1.504
15723W        W84128  12.863  23.707   0.964
15724W        W84129   9.420   4.396  12.546
15725W        W84130  24.132  21.258  11.195
15726W        W84131  28.086  44.875  10.553
15727W        W84132  17.919   0.878   0.572
15728W        W84133  21.510  26.694  11.614
15729W        W84134  13.010  15.357  11.916
15730W        W84135  14.013  32.631   4.612
15731W        W84136  44.725  11.142  11.215
15732W        W84137  26.041   4.201  10.681
15733W        W84138  32.665  16.348  11.496
15734W        W84139  22.312  10.567   3.237
15735W        W84140  14.899  44.983  13.394
15736W        W84141  13.150   3.366  14.357
15737W        W84142  30.975  17.973   1.545
15738W        W84143  20.252  35.865   3.259
15739W        W84144  35.748  44.850  11.143
15740W        W84145  22.292  34.079   0.967
15741W        W84146  41.856   7.148   2.330
15742W        W84147  12.257  16.816   0.819
15743W        W84148  10.886   2.846  10.617
15744W        W84149   5.230   1.040   4.726
15745W        W84150   3.493  30.422   1.422
15746W        W84151  11.628  25.749  13.476
15747W        W84152  32.144  35.190  12.127
15748W        W84153  39.491  21.202  10.722
15749W        W84154  42.035   2.931   2.026
15750W        W84155  36.758   2.412   0.505
15751W        W84156  25.557  17.128   9.824
15752W        W84157  17.205  43.688   4.219
15753W        W84158  27.861   7.900   0.287
15754W        W84159  21.483   8.455  14.321
15755W        W84160   9.091  44.209   3.344
15756W        W84161  12.572  42.882  11.010
15757W        W84162  30.829   4.230  14.962
15758W        W84163   0.891  42.736  13.931
15759W        W84164  29.649   1.960   4.695
15760W        W84165   8.319   8.739   1.721
15761W        W84166  22.713  41.505  12.903
15762W        W84167  20.481  15.725   4.530
15763W        W84168   0.733  38.549  12.451
15764W        W84169  19.327  33.913   4.170
15765W        W84170  15.994  11.165  11.667
15766W        W84171  24.772  10.256   0.925
15767W        W84172  33.853  10.779  11.504
15768W        W84173  40.347  37.967  14.387
15769W        W84174  37.237  31.616   2.637
15770W        W84175  43.407  12.928  13.649
15771W        W84176  24.741   1.334  10.637
15772W        W84177   9.058  18.332  11.037
15773W        W84178  40.469   4.970  12.473
15774W        W84179   1.702   8.664  11.732
15775W        W84180   1.721  28.399   2.158
15776W        W84181   6.856  21.728  14.869
15777W        W84182  16.024  21.728   0.218
15778W        W84183  40.380  21.470  10.514
15779W        W84184  25.136  12.712   0.904
15780W        W84185  38.869   4.001  13.480
15781W        W84186  11.835  34.403  13.772
15782W        W84187  40.619  40.550   3.354
15783W        W84188   2.858  34.621   2.237
15784W        W84189   3.636  21.549  13.362
15785W        W84190  38.262   9.884   0.159
15786W        W84191  11.519  30.602  11.084
15787W        W84192   3.268  23.026   3.167
15788W        W84193  18.578   0.850  14.940
15789W        W84194  38.785  11.853  14.085
15790W        W84195   6.431  19.219   2.735
15791W        W84196  36.431  29.642   2.688
15792W        W84197  12.073  41.319  14.990
15793W        W84198  44.948  41.963   0.944
15794W        W84199  30.233   4.355   4.561
15795W        W84200   9.845   6.974   3.487
15796W        W84201  21.366  17.366  13.838
15797W        W84202  11.624  40.594  13.825
15798W        W84203  21.903  33.879   3.602
15799W        W84204   3.354  35.591  11.588
15800W        W84205  10.978   9.853   2.181
15801W        W84206  27.609  21.960  11.147
15802W        W84207  44.508  12.734   2.661
15803W        W84208  26.774  37.440  14.264
15804W        W84209  30.575  22.440   0.219
15805W        W84210  19.579  25.963  14.034
15806W        W84211   8.685  20.738  14.787
15807W        W84212  13.261  35.604   0.922
15808W        W84213   8.066  27.226  11.721
15809W        W84214   1.252  29.083  14.263
15810W        W84215  29.083  13.296  14.450
15811W        W84216  33.653  32.388  10.866
15812W        W84217  11.879  38.881   1.142
15813W        W84218  36.749   4.243  10.602
15814W        W84219  43.885  37.153  11.107
15815W        W84220   8.193  10.822  13.713
15816W        W84221  39.897  28.746  12.300
15817W        W84222  13.630   5.725   1.343
15818W        W84223  21.838   5.965   4.544
15819W        W84224  39.886   2.893   2.235
15820W        W84225  14.831  20.745   2.489
15821W        W84226  34.111  19.015  12.463
15822W        W84227  12.578   3.505  10.972
15823W        W84228   3.207  22.115   3.131
15824W        W84229  44.138  38.889   3.147
15825W        W84230  32.510  31.877   2.310
15826W        W84231  19.738  40.512   2.359
15827W        W84232  33.261  11.233  13.940
15828W        W84233  38.567  30.120  12.583
15829W        W84234  40.557  29.953   0.821
15830W        W84235  42.242  12.655   4.472
15831W        W84236  20.261  37.301   0.406
15832W        W84237  30.194  39.029   4.596
15833W        W84238  14.407  18.691  14.840
15834W        W84239  33.863  12.358  12.855
15835W        W84240   2.449  40.606   0.705
15836W        W84241  38.368  29.840   0.563
15837W        W84242   0.804  34.946   3.853
15838W        W84243  36.358   2.942  10.425
15839W        W84244   2.504  38.419   3.319
15840W        W84245   2.953  42.408   1.223
15841W        W84246  15.614   6.300   1.776
15842W        W84247  36.433  21.586   1.012
15843W        W84248  29.131   8.686   1.894
15844W        W84249  33.934  44.066   4.680
15845W        W84250   4.878  26.091  12.443
15846W        W84251  31.495   2.375   4.590
15847W        W84252  31.110  39.192   2.676
15848W        W84253  41.508  41.486  13.328
15849W        W84254  12.034  27.302   3.266
15850W        W84255  32.484  13.142   1.026
15851W        W84256  16.588  11.196  11.565
15852W        W84257  16.979  41.357  12.871
15853W        W84258  25.508  37.892   1.888
15854W        W84259  39.881  12.664   3.339
15855W        W84260  15.092  39.923   3.737
15856W        W84261   7.326   0.084   4.546
15857W        W84262  22.051  27.698  13.950
15858W        W84263   8.916  11.865  14.895
15859W        W84264   8.771  40.312   4.110
15860W        W84265  14.292  26.043  13.543
15861W        W84266  14.404  37.398  12.857
15862W        W84267  43.203  17.533   1.791
15863W        W84268  24.641   7.191   2.834
15864W        W84269  44.412  12.290  14.003
15865W        W84270  35.866  40.470  12.882
15866W        W84271  32.543   3.762   3.477
15867W        W84272   5.351  10.865  13.946
15868W        W84273   3.442  26.961   2.855
15869W        W84274  31.139   1.348   2.203
15870W        W84275  19.280  13.923  12.454
15871W        W84276  36.667  13.282  12.954
15872W        W84277   1.476  32.570   3.316
15873W        W84278  11.281   7.431  12.394
15874W        W84279   8.087  39.621   2.497
15875W        W84280  14.647  24.049   2.785
15876W        W84281  25.272  13.289  13.024
15877W        W84282  40.727  38.205  12.821
15878W        W84283  12.568  24.546  10.657
15879W        W84284  28.190  33.263   3.070
15880W        W84285   1.435   2.008  10.866
15881W        W84286  25.536   7.735  10.589
15882W        W84287  33.416  43.553   4.774
15883W        W84288  40.866  41.261  12.613
15884W        W84289  16.042  30.718  10.270
15885W        W84290  21.626   7.645  13.836
15886W        W84291   8.523   3.222   5.001
15887W        W84292  40.990   9.593  13.428
15888W        W84293   7.238  11.603   3.644
15889W        W84294  42.928  40.317   3.712
15890W        W84295  43.910   1.995   4.068
15891W        W84296  36.862  20.790  11.120
15892W        W84297   6.889  28.901   5.327
15893W        W84298  41.976   5.425  12.649
15894W        W84299  17.140   6.751  10.587
15895W        W84300   2.996  41.937   4.011
15896W        W84301  36.048   3.339   9.769
15897W        W84302  21.525  42.330  11.650
15898W        W84303  14.149   4.976   2.199
15899W        W84304   5.925  12.899  13.615
15900W        W84305   1.253  17.740   3.491
15901W        W84306  31.856  31.846  11.123
15902W        W84307  35.827   3.683   0.320
15903W        W84308  36.853   1.860  12.297
15904W        W84309  42.430  29.484   2.197
15905W        W84310  30.237  20.008  10.561
15906W        W84311   8.721   6.171  14.873
15907W        W84312  11.368  31.447   1.337
15908W        W84313  34.912   0.371   4.219
15909W        W84314  41.450  32.049  12.058
15910W        W84315   4.513   4.464   9.627
15911W        W84316  39.448  15.563  13.936
15912W        W84317  28.588   6.081   4.683
15913W        W84318  16.556  27.281  12.408
15914W        W84319  21.002   1.292   0.283
15915W        W84320   4.492  42.554   0.298
15916W        W84321  42.091   5.266  13.128
15917W        W84322  22.647  34.351  11.152
15918W        W84323  13.624   4.837   0.971
15919W        W84324   2.676  19.647  14.740
15920W        W84325  10.745  35.792   0.033
15921W        W84326  25.524   2.447  14.943
15922W        W84327  29.091   0.071  14.797
15923W        W84328  35.873  28.241  11.593
15924W        W84329  35.309  38.815   2.295
15925W        W84330   8.669  17.274  14.296
15926W        W84331   8.475   3.357   2.708
15927W        W84332   0.331   0.684  13.543
15928W        W84333  18.337  32.960   1.762
15929W        W84334   2.376  40.514  11.881
15930W        W84335  37.539   8.351  14.005
15931W        W84336  26.252  15.515   1.446
15932W        W84337   1.205   9.708   3.828
15933W        W84338  21.039  44.184  13.271
15934W        W84339  35.499  30.313  11.188
15935W        W84340  21.488  42.944   1.723
15936W        W84341  15.704  22.148   3.448
15937W        W84342  26.880  10.236  13.281
15938W        W84343  16.306  20.218   1.319
15939W        W84344  19.258  15.347  12.577
15940W        W84345  14.009  32.114  14.277
15941W        W84346  20.192   3.437   4.613
15942W        W84347   2.026  39.593  11.897
15943W        W84348  32.727  12.295   3.301
15944W        W84349  39.304   7.439  14.974
15945W        W84350  31.392  40.717   4.231
15946W        W84351   0.192  20.922   3.863
15947W        W84352  20.247  27.205  14.830
15948W        W84353  11.964  27.580   2.806
15949W        W84354  34.397  33.005   4.878
15950W        W84355  25.532  40.542   1.414
15951W        W84356   3.103  25.463   1.419
15952W        W84357  11.154  25.028  13.848
15953W        W84358  11.872  19.558   4.078
15954W        W84359   6.263  21.092   1.466
15955W        W84360  37.594  19.826   4.060
15956W        W84361  36.146   0.038   4.482
15957W        W84362  31.696  43.041  14.660
15958W        W84363  33.064  23.108   1.690
15959W        W84364   6.694  13.744   2.715
15960W        W84365  19.783  26.019  13.572
15961W        W84366  39.827  32.960   0.372
15962W        W84367  32.153  19.128   0.410
15963W        W84368  31.072  15.445   9.989
15964W        W84369  33.116  17.540  11.868
15965W        W84370  14.164  14.689   3.376
15966W        W84371   4.899  43.740  10.008
15967W        W84372  22.567  27.592  10.625
15968W        W84373  24.077  14.830   0.289
15969W        W84374   8.324  44.047  10.686
15970W        W84375  11.942  41.572   2.260
15971W        W84376   6.008  24.084  11.537
15972W        W84377  15.775  40.302   4.707
15973W        W84378  28.548  44.784   3.978
15974W        W84379  38.021  28.794   1.271
15975W        W84380  17.772   0.984   3.335
15976W        W84381  27.207  12.547   5.210
15977W        W84382  22.768  44.868   2.849
15978W        W84383  15.165  17.496  12.934
15979W        W84384  22.217   2.317   3.179
15980W        W84385  26.256  37.654   3.629
15981W        W84386  10.249  31.926   4.622
15982W        W84387  36.218  12.966   5.047
15983W        W84388  42.045   6.367  11.635
15984W        W84389  31.762   3.621  12.470
15985W        W84390  26.444  31.413   0.413
15986W        W84391  44.752  14.621  12.722
15987W        W84392  24.115   3.674  13.832
15988W        W84393  33.080   1.343  12.467
15989W        W84394  10.757   7.058  13.852
15990W        W84395   3.397   8.389   0.352
15991W        W84396  26.480   8.269  12.492
15992W        W84397  35.780  13.865   3.265
15993W        W84398  18.022  37.848  10.858
15994W        W84399  15.272  29.106  10.413
15995W        W84400  19.048  15.740   2.831
15996W        W84401   5.981  38.570  10.393
15997W        W84402  44.900  28.090  11.589
15998W        W84403  42.224  33.598   3.766
15999W        W84404  41.229  35.565  11.581
16000W        W84405  11.767   5.728  11.668
16001W        W84406  20.163  13.355   0.243
16002W        W84407  37.086  43.307  11.575
16003W        W84408  14.481   3.482   4.691
16004W        W84409  10.417  41.291   0.870
16005W        W84410  29.997  29.335  10.722
16006W        W84411  42.864  32.698   2.307
16007W        W84412  42.239  23.150   3.655
16008W        W84413   1.009  37.729   0.624
16009W        W84414  24.906  37.129   0.005
16010W        W84415  22.813  38.866   2.789
16011W        W84416  15.910   2.984  13.565
16012W        W84417   6.248  34.407   4.827
16013W        W84418  42.904  24.139  11.943
16014W        W84419  21.145  26.500  13.612
16015W        W84420  42.369  32.037   0.672
16016W        W84421  26.992   4.029  11.228
16017W        W84422  28.244  29.223  12.680
16018W        W84423  27.271  42.686   0.355
16019W        W84424  34.003  33.007  11.297
16020W        W84425  27.688  24.790  10.545
16021W        W84426  22.842   1.199  13.515
16022W        W84427  23.229  28.107  12.040
16023W        W84428   3.264  43.480   3.329
16024W        W84429  35.179   6.346   3.495
16025W        W84430   9.998  40.131  11.974
16026W        W84431  44.616   4.891  10.305
16027W        W84432   6.853   0.314   4.577
16028W        W84433   0.053  21.568  10.559
16029W        W84434  20.584  13.690   3.585
16030W        W84435   4.290  15.053   4.678
16031W        W84436   8.721  13.906   3.719
16032W        W84437  14.587  38.007   0.268
16033W        W84438  36.443  37.581   1.139
16034W        W84439  32.035  21.635   4.408
16035W        W84440  35.206  39.242  11.422
16036W        W84441  38.705   2.414   3.777
16037W        W84442  17.129  29.767   5.111
16038W        W84443  40.745  34.136   0.173
16039W        W84444  20.242  39.533  10.491
16040W        W84445  31.240  40.165  11.489
16041W        W84446  12.177  10.250   4.548
16042W        W84447  33.947  38.036   2.179
16043W        W84448  37.422  38.173  12.496
16044W        W84449  36.818  43.496  12.008
16045W        W84450  11.279  11.843  13.998
16046W        W84451  42.715  35.750  11.860
16047W        W84452  27.888   0.885   5.039
16048W        W84453  11.784  24.008  10.525
16049W        W84454  29.435  22.887  13.909
16050W        W84455  38.515  10.346   0.793
16051W        W84456  43.857  31.707   2.179
16052W        W84457  38.481  37.022  10.764
16053W        W84458   7.973  40.866   3.251
16054W        W84459   7.203  41.630   3.560
16055W        W84460  42.480  40.642   0.039
16056W        W84461  10.638  32.277   3.746
16057W        W84462  22.603  41.904   2.309
16058W        W84463  34.347  30.621   4.746
16059W        W84464  40.485  43.528  11.485
16060W        W84465   1.429  21.060  10.544
16061W        W84466  39.484   3.650   4.330
16062W        W84467   9.863  29.018   4.229
16063W        W84468  33.540   4.830   0.286
16064W        W84469  24.965  33.665   3.596
16065W        W84470  17.293  20.381   1.264
16066W        W84471   4.275   3.974   3.186
16067W        W84472   1.725  44.267  14.417
16068W        W84473  15.007  39.462  10.976
16069W        W84474  39.451  10.503  10.669
16070W        W84475  29.959  25.726  11.041
16071W        W84476   7.909  44.215   1.617
16072W        W84477   7.676  12.312  14.912
16073W        W84478  27.464  44.062  12.043
16074W        W84479   1.843  34.869   4.728
16075W        W84480  19.119   7.288  13.730
16076W        W84481  15.078   9.940   1.981
16077W        W84482  17.092   9.639   1.203
16078W        W84483  12.709   0.415  14.463
16079W        W84484   0.384  27.881  11.568
16080W        W84485  38.018   0.703  14.337
16081W        W84486   2.914  20.080  10.879
16082W        W84487  18.558  32.624  14.490
16083W        W84488  29.067  35.548   0.493
16084W        W84489  28.569   1.685   0.510
16085W        W84490   3.680  24.092  14.727
16086W        W84491  37.871  15.590   0.972
16087W        W84492   9.196  17.021   2.149
16088W        W84493  41.242  11.399   3.185
16089W        W84494  11.304  18.048  12.480
16090W        W84495  12.169  38.571   3.659
16091W        W84496  15.217   1.001   1.845
16092W        W84497   4.743   3.079  14.363
16093W        W84498  39.050  41.495   0.290
16094W        W84499  11.128  39.954  14.038
16095W        W84500   4.470  44.110   2.234
16096W        W84501  35.366   9.357  10.732
16097W        W84502  40.882  28.617   1.434
16098W        W84503  22.119  30.318   1.738
16099W        W84504  44.681  36.079  12.113
16100W        W84505  37.225  27.661   0.668
16101W        W84506  31.391  19.318   0.087
16102W        W84507  13.699   6.378  11.733
16103W        W84508  36.479  20.086   1.066
16104W        W84509  37.679   3.870   1.106
16105W        W84510  26.729  16.796   3.659
16106W        W84511   2.787   4.635  10.607
16107W        W84512  40.369   5.707  11.955
16108W        W84513   0.877  24.283   1.040
16109W        W84514   2.053  37.492  14.581
16110W        W84515  40.282  16.349  13.557
16111W        W84516  22.976  38.399   2.148
16112W        W84517  24.202  23.127   4.557
16113W        W84518  17.294  30.028   2.925
16114W        W84519  30.586  13.329  12.000
16115W        W84520  23.050  30.097   3.119
16116W        W84521  16.153   9.291  10.230
16117W        W84522   3.987  20.277   4.186
16118W        W84523   4.515  39.402   3.308
16119W        W84524  21.937  29.261   3.220
16120W        W84525   6.587  16.680  14.425
16121W        W84526  20.693  27.913   3.343
16122W        W84527  21.220   1.308  10.411
16123W        W84528   1.355  40.621  10.723
16124W        W84529  42.854  24.439  14.563
16125W        W84530  38.103  34.482  14.976
16126W        W84531  18.525  32.692   4.165
16127W        W84532  35.898  20.304   2.447
16128W        W84533  44.971  17.120   3.603
16129W        W84534  15.102  11.709  10.776
16130W        W84535  41.234  20.080   3.606
16131W        W84536  28.566   0.189   3.645
16132W        W84537   0.678  39.010  13.740
16133W        W84538  35.464  29.951  14.988
16134W        W84539  25.716  11.774   1.845
16135W        W84540  25.656  18.324  14.359
16136W        W84541  32.546  36.610  13.961
16137W        W84542   1.388   0.563   3.262
16138W        W84543  24.179   9.866  13.491
16139W        W84544  40.071  29.577  12.575
16140W        W84545  22.983  27.739  13.795
16141W        W84546  23.758  30.631   3.293
16142W        W84547  44.711  27.381  13.410
16143W        W84548   7.932  41.524   1.761
16144W        W84549   0.482  36.628   2.799
16145W        W84550  26.049  26.585   2.258
16146W        W84551  36.146  39.268  13.953
16147W        W84552  29.082  10.542   4.610
16148W        W84553  36.026  18.615  11.122
16149W        W84554  31.882   5.943  13.736
16150W        W84555  24.556   0.302   4.613
16151W        W84556  37.673  16.744   2.888
16152W        W84557  26.552  28.988  10.432
16153W        W84558  17.495  20.568  11.747
16154W        W84559   2.837  40.822   2.347
16155W        W84560  14.447  32.436   3.079
16156W        W84561  34.085   1.943  11.648
16157W        W84562  23.983  15.102  14.034
16158W        W84563   6.322   0.752  10.700
16159W        W84564  38.103  24.273  11.177
16160W        W84565  16.079  43.823   0.011
16161W        W84566  28.222  36.051   2.825
16162W        W84567  33.384  28.008   2.426
16163W        W84568  35.249  40.105   0.353
16164W        W84569   4.233  38.432   4.906
16165W        W84570  33.909  23.582  13.009
16166W        W84571  44.317  14.247   2.435
16167W        W84572  14.152  33.063  14.042
16168W        W84573  44.083  15.025  14.975
16169W        W84574  30.624  28.976  10.639
16170W        W84575  34.393  15.819  14.957
16171W        W84576  42.699  42.882  13.127
16172W        W84577  12.208   8.950  11.907
16173W        W84578  16.633  18.267   2.587
16174W        W84579  40.017  38.492   4.717
16175W        W84580  20.027  33.818  13.380
16176W        W84581   6.666   5.229   2.793
16177W        W84582  24.578  35.200   2.811
16178W        W84583   1.444  25.918  11.948
16179W        W84584  35.510  23.649   0.614
16180W        W84585  12.349  21.177   4.234
16181W        W84586  11.445  20.902  14.504
16182W        W84587  19.008  43.010   2.800
16183W        W84588  38.355  31.892  12.095
16184W        W84589  22.557  13.238   0.591
16185W        W84590  14.950   8.389   3.914
16186W        W84591  19.286  11.133  10.727
16187W        W84592   6.460  21.242   2.826
16188W        W84593  12.208   5.887  13.468
16189W        W84594   8.647  13.068  13.489
16190W        W84595   4.176   9.798   1.689
16191W        W84596  13.631   5.475  13.894
16192W        W84597  11.279  20.034  12.388
16193W        W84598   6.322   8.143   3.262
16194W        W84599  41.048   1.084   4.569
16195W        W84600  42.555   8.191   1.919
16196W        W84601   7.619   1.870  14.224
16197W        W84602  23.086  17.713   4.340
16198W        W84603  32.527  42.347   1.385
16199W        W84604  19.219  44.674  12.147
16200W        W84605  38.134  43.142   4.776
16201W        W84606  18.314  43.451   3.734
16202W        W84607  36.202   1.793  12.859
16203W        W84608  24.483   0.147  14.868
16204W        W84609   9.618  33.897   3.168
16205W        W84610  23.129  10.220  13.968
16206W        W84611  25.696  29.381  12.699
16207W        W84612  36.427  24.967   2.177
16208W        W84613   4.502  34.912   0.814
16209W        W84614  16.238   6.216   4.535
16210W        W84615  39.038   3.789   0.056
16211W        W84616  32.247  38.291  11.613
16212W        W84617  36.097  27.435   0.919
16213W        W84618   0.540  43.250  13.550
16214W        W84619  10.281  27.369   2.729
16215W        W84620  16.755  41.529   4.559
16216W        W84621  36.435  28.048  11.629
16217W        W84622  32.103  26.893  14.855
16218W        W84623  17.068  41.738  10.253
16219W        W84624  18.684  20.727  11.279
16220W        W84625  26.464  33.831   4.569
16221W        W84626  11.364  34.703   4.323
16222W        W84627   2.218  21.825   2.373
16223W        W84628  12.359  20.470  12.543
16224W        W84629  32.465  14.824   1.443
16225W        W84630   6.394  21.771  12.393
16226W        W84631  33.628  39.253  14.528
16227W        W84632  30.500  14.007   2.371
16228W        W84633   4.936  24.969   3.408
16229W        W84634  39.463   6.202  14.479
16230W        W84635   2.295  22.050  13.375
16231W        W84636  32.175  27.918  14.981
16232W        W84637  29.910  20.147   1.184
16233W        W84638  25.047   9.749  11.064
16234W        W84639  27.382  42.962   3.667
16235W        W84640   7.952  25.288  10.350
16236W        W84641  32.988   0.815   1.848
16237W        W84642  43.991   8.610   1.758
16238W        W84643  34.655  38.460   1.907
16239W        W84644  36.833  40.087  13.523
16240W        W84645  41.943  40.888  13.861
16241W        W84646  12.324  25.850  14.819
16242W        W84647  29.468   2.254   2.823
16243W        W84648  20.166  25.014   3.818
16244W        W84649   0.997  37.613  11.661
16245W        W84650  39.649  13.803   0.040
16246W        W84651  16.182   3.390   5.118
16247W        W84652  14.023  38.558   2.337
16248W        W84653  38.745  39.550   1.818
16249W        W84654  11.824  11.899  10.859
16250W        W84655  43.926  34.134  12.031
16251W        W84656  41.407  36.473   2.440
16252W        W84657  10.806  27.121  11.528
16253W        W84658  35.379  36.981  12.924
16254W        W84659   2.344  10.752   2.447
16255W        W84660   2.247  32.110  14.538
16256W        W84661   9.770   0.031   0.673
16257W        W84662  30.786  15.658  14.730
16258W        W84663  43.481  17.673  10.766
16259W        W84664   4.457   8.687  10.239
16260W        W84665  10.272   5.085  14.698
16261W        W84666  41.070   5.197   4.642
16262W        W84667  37.283   5.870  14.957
16263W        W84668  26.458  23.772  13.448
16264W        W84669  38.838  11.753   5.099
16265W        W84670  18.460  24.093  14.838
16266W        W84671  25.969  11.475   0.203
16267W        W84672  27.261  10.728  12.063
16268W        W84673  23.673  26.742   2.126
16269W        W84674   9.433   2.980  11.152
16270W        W84675  26.125  39.804   3.141
16271W        W84676   1.853   4.894   1.400
16272W        W84677  32.989  38.616   0.991
16273W        W84678  32.346  22.250   2.314
16274W        W84679  14.255  38.964  11.420
16275W        W84680  13.186  12.214  12.697
16276W        W84681  33.853  40.387  13.881
16277W        W84682  27.246  12.034  14.397
16278W        W84683  11.065  12.026   2.227
16279W        W84684  24.602  15.469  11.590
16280W        W84685  27.037  12.809   3.888
16281W        W84686  28.646  22.769  14.953
16282W        W84687  40.625  16.902   2.479
16283W        W84688  32.483   2.265  11.154
16284W        W84689  36.247  36.299   1.486
16285W        W84690  16.427   1.380  11.159
16286W        W84691  30.731   5.151   3.202
16287W        W84692  37.423  43.535   4.109
16288W        W84693  19.015  39.198   1.897
16289W        W84694  28.440   6.198   3.605
16290W        W84695  39.987   1.965   0.911
16291W        W84696  30.698   0.586   4.071
16292W        W84697  15.542  21.243   4.975
16293W        W84698  30.594  16.570  10.801
16294W        W84699  12.359  27.708   0.324
16295W        W84700   0.316  21.637   0.428
16296W        W84701   3.407  39.782  11.082
16297W        W84702  36.103  34.544   2.453
16298W        W84703  21.169  20.732   2.253
16299W        W84704   6.728   8.850  11.199
16300W        W84705  34.425  17.331   0.003
16301W        W84706  43.676  40.118  13.457
16302W        W84707  34.921  29.008   0.371
16303W        W84708  20.721  22.151   3.072
16304W        W84709  10.949  22.118  14.267
16305W        W84710  21.241   7.138   3.688
16306W        W84711  12.334   5.673  10.573
16307W        W84712  23.781  29.205  12.435
16308W        W84713  30.445   4.745   4.278
16309W        W84714   9.321  13.584   4.690
16310W        W84715   9.128   8.706  14.942
16311W        W84716  31.511  18.031   9.987
16312W        W84717  40.260  36.511   4.509
16313W        W84718  32.306  16.456  12.527
16314W        W84719  25.173   6.737   1.621
16315W        W84720  37.310  28.382  12.914
16316W        W84721  38.310  14.603   3.745
16317W        W84722  38.487   9.651  10.362
16318W        W84723  16.019   6.739  13.570
16319W        W84724  19.454  28.346  12.371
16320W        W84725   7.901  39.327  11.887
16321W        W84726  18.076   6.254   2.702
16322W        W84727   7.757   6.823  12.469
16323W        W84728  31.233  21.615   3.736
16324W        W84729   1.995   9.560   3.673
16325W        W84730   7.467  24.577  14.048
16326W        W84731  29.588  37.519  11.231
16327W        W84732  22.981  33.800  12.900
16328W        W84733  36.898  32.461  14.235
16329W        W84734  10.210  38.038  12.378
16330W        W84735  31.973  27.938   1.756
16331W        W84736  39.213  35.464   1.472
16332W        W84737  14.572  39.993   4.583
16333W        W84738  29.396  36.481   2.035
16334W        W84739  31.125   6.761   4.425
16335W        W84740   5.372   1.387   0.526
16336W        W84741  43.412  39.532  11.380
16337W        W84742  35.377  13.363  12.935
16338W        W84743  28.745  25.444   2.732
16339W        W84744  27.597  44.237   3.241
16340W        W84745  34.405  25.517   1.522
16341W        W84746  40.436  35.250  13.061
16342W        W84747  43.500  39.838  12.147
16343W        W84748   2.990  16.986  13.374
16344W        W84749  19.348   6.064  14.317
16345W        W84750  13.594   8.787   2.084
16346W        W84751  27.919  24.813  14.773
16347W        W84752  14.749  39.579  12.537
16348W        W84753  12.328  41.353   3.353
16349W        W84754  15.597  38.531  12.498
16350W        W84755  21.785  27.996  11.434
16351W        W84756  26.226  37.866   2.167
16352W        W84757  32.652  44.722  12.880
16353W        W84758  14.687  35.893  10.739
16354W        W84759   9.215  11.759   2.308
16355W        W84760  31.164  38.251  11.688
16356W        W84761  18.154  16.224   1.613
16357W        W84762  41.499  38.836   4.612
16358W        W84763  33.985  26.202   0.391
16359W        W84764   0.614  16.656  12.410
16360W        W84765  43.390  42.069  13.573
16361W        W84766  28.178  33.027  13.959
16362W        W84767   6.453  25.447   2.179
16363W        W84768  23.260  38.854  13.440
16364W        W84769  32.319   3.961   4.493
16365W        W84770  39.621  38.920   3.152
16366W        W84771  35.153  10.208  14.969
16367W        W84772  25.693  20.574  14.804
16368W        W84773  43.452  36.793  10.486
16369W        W84774  43.792  36.636  12.890
16370W        W84775  30.887  25.020   4.600
16371W        W84776  20.581  27.199  14.425
16372W        W84777  15.402  39.060  13.429
16373W        W84778  27.479   9.156  13.607
16374W        W84779  21.294  36.833   0.123
16375W        W84780  36.951  31.361  13.985
16376W        W84781  27.664  43.745  11.549
16377W        W84782  17.227  34.066  12.009
16378W        W84783  40.284  26.157  11.530
16379W        W84784   7.720  38.908  12.094
16380W        W84785  42.287  30.691   1.612
16381W        W84786   5.760  32.965  11.350
16382W        W84787  44.518   9.566   4.611
16383W        W84788   6.738  34.088   4.267
16384W        W84789   1.065  25.674   2.619
16385W        W84790  21.627  26.687  12.981
16386W        W84791  31.972  40.288   5.188
16387W        W84792   1.513  22.075   0.358
16388W        W84793  32.398  20.730  14.991
16389W        W84794  23.434  27.947   2.453
16390W        W84795  13.763  16.164   2.295
16391W        W84796  40.228  39.069   2.703
16392W        W84797   1.876  13.684  13.089
16393W        W84798  16.604  16.939  13.906
16394W        W84799  34.998  44.774   2.281
16395W        W84800  28.231  41.619  11.488
16396W        W84801  28.560  11.638  11.331
16397W        W84802   9.725   5.613  11.035
16398W        W84803  42.716  17.780  13.961
16399W        W84804  18.343  27.204  10.859
16400W        W84805   2.098  33.997  10.984
16401W        W84806  39.733  33.703  12.460
16402W        W84807  23.643  40.828  13.496
16403W        W84808  34.508  34.851   0.652
16404W        W84809   1.878   0.934   0.248
16405W        W84810  13.690  17.544   4.193
16406W        W84811  35.796  14.972  13.488
16407W        W84812  43.950  29.679  10.710
16408W        W84813  37.396  44.806  14.910
16409W        W84814  39.550   0.277  12.642
16410W        W84815  35.613  38.086   1.307
16411W        W84816  25.566   7.734  12.982
16412W        W84817  33.670  24.771   3.782
16413W        W84818  18.254  13.628   1.475
16414W        W84819  35.609  32.816   3.719
16415W        W84820   0.971  16.768   2.815
16416W        W84821  40.392   0.370  12.429
16417W        W84822  32.439   5.005  12.039
16418W        W84823  38.548   5.439  13.733
16419W        W84824   0.740   2.851   3.040
16420W        W84825  15.806   7.657  10.924
16421W        W84826   4.286  41.916  10.534
16422W        W84827  44.777   4.173   5.049
16423W        W84828  39.604   0.580   4.548
16424W        W84829  28.114   2.259   4.757
16425W        W84830  29.999  12.712   3.855
16426W        W84831  37.258  40.244   2.781
16427W        W84832  41.410  42.894   4.121
16428W        W84833  26.508  12.077  10.606
16429W        W84834  36.203  24.439  11.150
16430W        W84835  11.771  19.164  12.545
16431W        W84836   0.480   8.072   2.001
16432W        W84837  34.343  21.947  12.406
16433W        W84838  20.463  30.690  14.953
16434W        W84839  34.871  24.622   0.861
16435W        W84840  12.564  12.673  13.297
16436W        W84841   5.883  26.513   4.349
16437W        W84842  31.043  24.708  14.960
16438W        W84843   5.222   2.951  12.414
16439W        W84844  14.193  40.532   2.541
16440W        W84845   9.475  38.503  13.519
16441W        W84846  13.624  38.287   4.540
16442W        W84847  34.056   2.250   2.404
16443W        W84848  32.009  19.088   1.884
16444W        W84849  41.570  43.541  11.079
16445W        W84850   2.112  42.829  13.741
16446W        W84851  16.610  36.353   4.126
16447W        W84852  18.970  38.811   0.249
16448W        W84853   6.768   9.764   1.887
16449W        W84854  25.900  16.325   5.177
16450W        W84855  33.890  11.158  10.581
16451W        W84856   2.881  43.838   1.435
16452W        W84857   8.809  28.019  12.926
16453W        W84858  38.058   9.792   2.906
16454W        W84859  24.475  27.436   3.722
16455W        W84860   4.204  37.879   3.612
16456W        W84861   5.389  24.156  12.329
16457W        W84862  11.497  36.490   4.645
16458W        W84863   9.235  18.613  12.526
16459W        W84864  24.584  23.974   0.417
16460W        W84865  11.829  41.752  13.334
16461W        W84866  31.435  21.131  13.473
16462W        W84867   7.261   8.129  10.505
16463W        W84868   0.828   7.424  14.481
16464W        W84869  35.509  33.846   0.467
16465W        W84870  40.048  12.830  13.923
16466W        W84871  14.677   8.752  14.445
16467W        W84872  19.880  32.222  13.883
16468W        W84873   4.227   6.968  14.885
16469W        W84874  41.095  15.696   0.235
16470W        W84875  19.169  24.449  11.309
16471W        W84876  42.081   8.780   3.078
16472W        W84877  33.588  39.584  12.580
16473W        W84878  18.066  34.079  12.964
16474W        W84879  15.901   7.815   0.362
16475W        W84880  27.159   1.786  10.686
16476W        W84881  25.426  22.560   2.340
16477W        W84882  42.935  15.184   4.640
16478W        W84883  40.187  38.394   2.752
16479W        W84884   0.962  32.424   0.861
16480W        W84885  31.705   5.653  13.337
16481W        W84886  10.937  39.322  14.850
16482W        W84887  41.051  25.264  10.900
16483W        W84888  17.559  33.420  14.012
16484W        W84889  19.034  31.238   4.406
16485W        W84890  29.012  44.206   2.199
16486W        W84891   9.646  30.618   2.535
16487W        W84892  11.212  24.407  13.851
16488W        W84893  37.242   5.560  14.540
16489W        W84894  23.309   7.287   0.944
16490W        W84895   6.360  24.253  12.841
16491W        W84896  15.577  24.350   1.850
16492W        W84897  17.648  10.172   3.039
16493W        W84898  13.719  30.251  14.479
16494W        W84899  32.505  20.698   3.650
16495W        W84900  42.535  19.270  10.719
16496W        W84901   5.177  32.946   2.634
16497W        W84902  35.687  18.158  11.923
16498W        W84903  22.083  27.191  13.910
16499W        W84904   9.846  27.571  14.947
16500W        W84905  43.613   0.656   3.771
16501W        W84906  42.640  25.089   0.756
16502W        W84907   8.902  27.687   3.168
16503W        W84908   9.664  29.100   3.759
16504W        W84909   5.826  32.648  13.766
16505W        W84910  10.777  31.108  11.486
16506W        W84911  18.568  43.935  10.665
16507W        W84912  15.857  27.094  13.528
16508W        W84913   9.101  10.056  14.894
16509W        W84914  12.257  40.041   2.337
16510W        W84915  40.547   3.423  10.687
16511W        W84916  28.439  27.459  14.150
16512W        W84917  44.450  34.809   1.684
16513W        W84918  36.556  42.143  13.928
16514W        W84919  24.711  38.086  12.955
16515W        W84920  28.027  35.877   0.342
16516W        W84921  43.875  11.984   0.718
16517W        W84922  13.877  14.311  13.113
16518W        W84923   8.748  42.441   3.219
16519W        W84924  41.505  22.173   2.237
16520W        W84925   7.168  42.235  13.036
16521W        W84926  44.469   6.216   0.433
16522W        W84927   2.919  24.240   3.397
16523W        W84928  24.846  33.596  13.005
16524W        W84929  38.826   3.860   2.782
16525W        W84930   5.950  20.768  14.664
16526W        W84931  16.227  11.063   2.546
16527W        W84932   9.914   3.781   4.059
16528W        W84933  14.258  38.921   9.928
16529W        W84934  25.329   2.435  12.414
16530W        W84935   7.139  11.810  13.162
16531W        W84936  27.905  27.056  12.644
16532W        W84937  42.704  38.477   1.340
16533W        W84938   5.261  22.444  11.502
16534W        W84939   1.986  26.610   2.191
16535W        W84940  23.832  15.825   2.254
16536W        W84941  41.946  12.347   4.138
16537W        W84942  35.551  20.079  14.065
16538W        W84943   6.775  28.035   4.520
16539W        W84944  20.234  39.432  13.436
16540W        W84945  40.306  23.793   2.776
16541W        W84946  39.241  43.360   0.013
16542W        W84947  19.799  19.765  11.942
16543W        W84948  31.547  16.783   4.522
16544W        W84949  32.598  35.484   4.525
16545W        W84950  31.048  40.504   3.936
16546W        W84951  21.627  43.527  10.918
16547W        W84952  31.443   6.197  12.486
16548W        W84953  15.267  19.191   5.021
16549W        W84954  40.429  37.185   0.573
16550W        W84955   7.191  14.114  12.382
16551W        W84956  27.570  33.435  12.546
16552W        W84957  25.606  14.198   2.643
16553W        W84958  28.896  31.663  11.078
16554W        W84959  25.060  44.053   0.140
16555W        W84960  37.170  14.668   2.886
16556W        W84961   9.861  29.108   2.794
16557W        W84962   8.429   3.949  11.253
16558W        W84963   8.256  18.557  14.397
16559W        W84964  16.872  28.417   4.272
16560W        W84965   9.604   9.181  11.952
16561W        W84966  14.196  21.336   2.828
16562W        W84967  33.555  20.268   0.754
16563W        W84968  16.587  14.451  11.144
16564W        W84969  14.084  25.282  13.903
16565W        W84970  28.168  25.478  12.929
16566W        W84971  14.647  19.222   3.589
16567W        W84972  19.139  15.045   1.554
16568W        W84973  31.813  34.429  11.615
16569W        W84974  39.159  10.978   1.267
16570W        W84975  35.925   0.857   2.807
16571W        W84976   0.847  40.442   1.939
16572W        W84977  13.653  21.664  12.210
16573W        W84978  40.286  40.179   3.262
16574W        W84979  41.727  42.305   2.341
16575W        W84980  24.746  30.826  11.479
16576W        W84981   3.704  32.108   3.126
16577W        W84982  31.584  15.259  12.489
16578W        W84983   5.951  28.404   5.449
16579W        W84984   4.600  10.799   3.077
16580W        W84985  42.775  16.212  13.297
16581W        W84986  16.301   2.030   5.374
16582W        W84987  12.397  27.515   2.523
16583W        W84988  20.681   9.725   0.411
16584W        W84989  40.028  25.913  14.377
16585W        W84990   4.468  33.482   3.860
16586W        W84991  25.778  37.354  13.998
16587W        W84992  21.143  30.404   0.666
16588W        W84993  27.996  35.417   3.121
16589W        W84994  41.431   6.269   4.829
16590W        W84995  31.141  42.371   3.167
16591W        W84996  32.463  21.593   0.958
16592W        W84997   2.017  15.125   1.427
16593W        W84998  39.113   0.999   2.428
16594W        W84999   9.320  29.818   2.739
16595W        W85000  44.338  29.061  13.573
16596W        W85001  34.087  17.740  14.286
16597W        W85002   3.237  32.329  14.406
16598W        W85003  30.349  43.516   2.542
16599W        W85004  24.952  29.659   3.778
16600W        W85005  32.495  41.529  13.421
16601W        W85006   4.648  12.149  11.540
16602W        W85007   6.581   9.273   2.811
16603W        W85008   6.360  13.351   2.713
16604W        W85009   9.282  42.219  11.587
16605W        W85010   2.424  20.198   4.338
16606W        W85011   3.651  32.412  12.001
16607W        W85012   6.720   0.868  11.975
16608W        W85013  17.525  43.489   3.387
16609W        W85014  40.001  35.126   1.409
16610W        W85015  37.276   2.400   0.426
16611W        W85016  23.223  22.470  14.916
16612W        W85017   0.269   3.962  10.662
16613W        W85018  14.216  15.098  13.689
16614W        W85019  41.099  28.140   1.356
16615W        W85020  22.030  14.579  14.458
16616W        W85021  42.997  12.830  14.819
16617W        W85022  36.499  43.791  10.649
16618W        W85023  26.529   2.325  14.967
16619W        W85024   0.893  44.584  13.502
16620W        W85025  39.378  23.660   4.170
16621W        W85026   1.782  25.218  10.780
16622W        W85027   2.411  27.107   1.799
16623W        W85028  41.394   6.807  11.135
16624W        W85029  22.782   8.789   3.209
16625W        W85030  36.484  14.335  14.572
16626W        W85031  34.982  18.307   4.888
16627W        W85032  18.650   2.763   1.947
16628W        W85033  36.613   9.838  12.975
16629W        W85034  13.165  38.521   4.576
16630W        W85035  42.880  26.263   2.485
16631W        W85036  23.636   0.368   1.690
16632W        W85037  30.126   5.753  14.368
16633W        W85038  36.799  43.849  13.895
16634W        W85039  13.621  35.340  10.595
16635W        W85040  44.262  16.791   0.014
16636W        W85041  24.623   9.647  12.101
16637W        W85042   3.842  38.691  13.888
16638W        W85043   2.594   0.220   0.381
16639W        W85044  36.501   5.485  12.834
16640W        W85045  15.639   5.951   2.185
16641W        W85046  31.456   0.702   3.858
16642W        W85047  14.280  37.130  10.671
16643W        W85048   4.650   6.201   5.130
16644W        W85049   5.553  26.147  14.798
16645W        W85050   6.943  22.806   4.527
16646W        W85051  21.838  43.890  11.200
16647W        W85052  12.255  43.005   2.092
16648W        W85053   8.748  26.571   4.591
16649W        W85054  15.489  22.029  13.114
16650W        W85055  16.136   0.850  11.232
16651W        W85056  17.348  35.087  12.433
16652W        W85057  43.495  15.691  11.272
16653W        W85058  39.377   7.686   2.798
16654W        W85059  34.916  16.105  11.611
16655W        W85060  15.130   8.557  13.493
16656W        W85061  27.217   0.298  12.814
16657W        W85062  42.348  44.458   1.513
16658W        W85063  34.477  44.668  10.695
16659W        W85064  16.544  35.564  12.355
16660W        W85065   8.793  14.091  13.820
16661W        W85066  11.541  27.494  12.030
16662W        W85067  24.507  39.997   2.880
16663W        W85068  33.565  42.490  12.196
16664W        W85069  14.355  23.279  14.984
16665W        W85070   6.812   9.829  14.372
16666W        W85071  41.327  21.439   1.822
16667W        W85072  42.828  13.846   1.239
16668W        W85073  39.971  37.507  10.096
16669W        W85074   8.093  31.063   2.797
16670W        W85075  12.812  18.036  12.528
16671W        W85076  44.078  25.630  13.482
16672W        W85077  29.103  22.492  11.651
16673W        W85078   5.387  36.565  11.279
16674W        W85079  40.284   1.265   4.799
16675W        W85080  30.975  23.796  11.558
16676W        W85081   2.392  14.056   2.328
16677W        W85082  43.410  34.922  14.204
16678W        W85083   0.266  37.203  10.195
16679W        W85084  41.757  31.183   1.737
16680W        W85085   2.557  23.031  11.675
16681W        W85086  28.661  23.514  13.041
16682W        W85087   2.248   5.021   2.243
16683W        W85088  25.983  32.943   1.721
16684W        W85089  23.021  37.380   3.933
16685W        W85090   2.489  20.251  14.100
16686W        W85091   4.596  20.383   4.597
16687W        W85092  14.116  37.236   2.774
16688W        W85093  31.842  37.039  12.902
16689W        W85094  13.664  40.846   2.288
16690W        W85095   8.600  13.274   1.768
16691W        W85096  29.408   9.836   1.295
16692W        W85097  22.576   6.891   3.593
16693W        W85098  25.868  30.099  11.588
16694W        W85099  40.637  27.426  12.433
16695W        W85100  13.611  21.853   4.700
16696W        W85101  21.315  12.671  11.704
16697W        W85102   5.692  27.995  13.500
16698W        W85103  22.128  29.157  12.960
16699W        W85104   6.383   5.716  14.558
16700W        W85105  12.351  19.656   3.193
16701W        W85106  21.994   0.838   2.663
16702W        W85107  13.811  40.395   3.834
16703W        W85108  44.729   0.510  10.655
16704W        W85109   6.997   2.964  14.307
16705W        W85110  43.986  12.873  14.460
16706W        W85111  33.210  25.184   5.134
16707W        W85112  44.344  31.058   3.817
16708W        W85113   4.571  22.298  14.909
16709W        W85114  10.254  11.079  13.428
16710W        W85115  10.916  25.558   0.417
16711W        W85116  34.416  22.006  11.533
16712W        W85117  41.497  19.831  11.933
16713W        W85118  10.363  31.302  14.557
16714W        W85119  40.526  34.517   3.177
16715W        W85120   3.893  29.078  10.623
16716W        W85121  39.555  35.309  12.898
16717W        W85122   8.588  10.269  10.835
16718W        W85123  26.212   8.760  14.434
16719W        W85124  21.145  33.223  11.294
16720W        W85125  19.292  30.681  14.312
16721W        W85126  24.625  13.325   1.450
16722W        W85127  32.535  25.610  12.113
16723W        W85128   9.291  17.619  13.319
16724W        W85129  10.421  41.893   5.167
16725W        W85130  38.583   8.438   3.588
16726W        W85131  44.054  35.112   3.705
16727W        W85132  30.021  25.100   2.151
16728W        W85133  38.590  24.711  12.424
16729W        W85134  35.939  18.210  12.948
16730W        W85135  13.601  20.297   3.351
16731W        W85136  29.381  31.413  12.536
16732W        W85137  30.960  23.683   3.352
16733W        W85138   9.403  35.340  12.947
16734W        W85139  11.184  11.363   1.791
16735W        W85140  42.477  13.609  11.926
16736W        W85141  13.141  40.944   2.254
16737W        W85142   1.188   2.315  14.408
16738W        W85143   0.746  18.472  11.128
16739W        W85144  13.833  24.419  11.799
16740W        W85145  18.067   9.128   4.170
16741W        W85146  10.862  24.260   2.190
16742W        W85147  20.019  41.960  12.549
16743W        W85148  38.638  20.101   0.918
16744W        W85149  24.048   8.820   1.795
16745W        W85150  33.291   5.201   2.806
16746W        W85151  21.772  33.510  11.890
16747W        W85152   0.719  41.239  13.889
16748W        W85153  15.341   0.339  14.851
16749W        W85154  26.680  22.088  14.218
16750W        W85155   0.723  37.931   4.179
16751W        W85156  20.856  34.516   4.971
16752W        W85157   7.085  36.648   1.303
16753W        W85158  30.528  37.631  12.627
16754W        W85159  27.683   8.038   5.179
16755W        W85160  41.793  42.124   0.519
16756W        W85161  26.643  35.998   3.202
16757W        W85162  26.243  10.734   2.349
16758W        W85163  43.396  38.139   1.459
16759W        W85164  39.680  18.917   4.453
16760W        W85165  33.187  27.545   0.743
16761W        W85166  23.307  19.735  11.322
16762W        W85167  14.068  38.824  14.554
16763W        W85168  24.359  28.219  13.806
16764W        W85169  29.070  16.801  14.552
16765W        W85170   8.591   2.050  11.521
16766W        W85171   5.189  17.152  14.881
16767W        W85172  17.066   9.331  14.847
16768W        W85173   9.389  11.714  14.669
16769W        W85174  12.002  30.765   4.993
16770W        W85175  41.185  28.995  11.583
16771W        W85176  35.842  34.426   4.364
16772W        W85177  11.195  21.707  12.082
16773W        W85178  10.789  13.391   4.325
16774W        W85179   2.740  13.145   3.288
16775W        W85180  29.047  28.335   1.198
16776W        W85181  22.868  37.706  10.817
16777W        W85182  14.178  29.531   3.771
16778W        W85183   8.676   7.803  14.744
16779W        W85184   8.941  18.727   3.200
16780W        W85185   0.932  38.027   4.636
16781W        W85186   2.253  11.619  11.965
16782W        W85187  19.820  21.788   3.247
16783W        W85188  43.519   6.106  12.054
16784W        W85189   6.804  30.469   4.519
16785W        W85190  13.806  28.731  14.577
16786W        W85191  31.928  14.293   3.984
16787W        W85192  21.733  41.890  10.477
16788W        W85193  26.819   1.279   2.827
16789W        W85194   5.957   5.217  13.931
16790W        W85195  41.312  16.174  11.896
16791W        W85196  39.144  20.250  12.245
16792W        W85197   3.954  33.349  11.879
16793W        W85198  11.309  32.445   4.606
16794W        W85199  44.907   0.397   3.202
16795W        W85200   9.351  11.390   2.829
16796W        W85201  15.344  44.596   2.393
16797W        W85202  41.415  39.118   1.003
16798W        W85203  36.575   5.630   2.847
16799W        W85204  11.368  25.443  14.954
16800W        W85205  40.355  40.674   4.654
16801W        W85206   7.366  26.635   0.359
16802W        W85207  20.736   6.248   3.629
16803W        W85208  31.583  31.623  14.448
16804W        W85209  34.676  12.804   1.829
16805W        W85210  21.066  13.071   1.161
16806W        W85211   4.333  39.702   1.220
16807W        W85212  28.682   6.784  11.881
16808W        W85213   6.845  39.448  13.048
16809W        W85214  33.612  34.661   2.848
16810W        W85215  44.832   3.481  11.460
16811W        W85216  11.215   3.974  10.545
16812W        W85217   3.215  33.916   1.630
16813W        W85218   7.847  16.302  11.728
16814W        W85219  15.638  38.092  14.312
16815W        W85220  39.556   8.734  10.931
16816W        W85221  17.236  24.364   0.376
16817W        W85222  32.020  31.843   2.140
16818W        W85223  36.914  42.816  14.052
16819W        W85224  25.682  26.771  12.631
16820W        W85225  38.970  36.100  13.407
16821W        W85226  37.042  26.719   3.119
16822W        W85227   4.816   7.731  10.483
16823W        W85228   3.914  23.756  14.031
16824W        W85229  24.176   6.675  14.796
16825W        W85230  23.657  23.992  11.545
16826W        W85231  35.546   4.198  13.540
16827W        W85232  11.833   4.683  12.683
16828W        W85233  15.129  24.776   2.253
16829W        W85234  36.709  39.468   3.069
16830W        W85235  38.907   5.839  10.720
16831W        W85236  22.651  28.641   0.891
16832W        W85237  39.449  29.087  11.222
16833W        W85238   0.824  38.599  14.028
16834W        W85239   5.268  42.538   2.821
16835W        W85240  35.914  15.639   3.921
16836W        W85241  41.490  30.605  10.903
16837W        W85242  21.159  11.916   4.616
16838W        W85243   1.232  11.952   2.825
16839W        W85244   4.405  26.912   1.377
16840W        W85245  29.011  37.851   0.548
16841W        W85246  14.693  17.735   2.142
16842W        W85247   1.938  38.406  12.997
16843W        W85248  32.049  32.126   3.537
16844W        W85249  24.129  27.645  12.481
16845W        W85250  35.010  23.944  12.421
16846W        W85251  37.044  44.358  10.279
16847W        W85252   7.816   5.870  14.993
16848W        W85253   7.693  18.546   2.783
16849W        W85254  24.470  10.776   2.577
16850W        W85255  27.227  21.532   1.359
16851W        W85256  31.161  14.383  13.395
16852W        W85257  40.726  43.858   2.335
16853W        W85258  27.037  19.026   2.198
16854W        W85259  27.722  15.640   4.368
16855W        W85260  37.406  39.265  14.418
16856W        W85261   0.546  22.219  12.556
16857W        W85262  18.816  41.967   3.087
16858W        W85263  17.256  36.838  12.380
16859W        W85264   1.399  40.772   2.402
16860W        W85265  28.511  14.248  10.195
16861W        W85266   1.248  28.874   0.462
16862W        W85267  29.315  30.369  14.474
16863W        W85268   1.388  11.169  13.659
16864W        W85269  31.391  18.027  11.943
16865W        W85270  25.488  41.465  10.999
16866W        W85271  15.602  37.612  12.463
16867W        W85272  28.699  36.523   0.311
16868W        W85273   7.414  19.021  12.120
16869W        W85274  33.303  32.597   3.500
16870W        W85275  32.448  11.850  13.964
16871W        W85276  38.844  44.612  14.940
16872W        W85277   4.508  41.203  12.863
16873W        W85278  13.800  28.725  11.618
16874W        W85279   4.459   3.290   1.323
16875W        W85280  44.595  28.626  13.408
16876W        W85281   2.354  13.252   3.679
16877W        W85282   9.168  17.784   3.047
16878W        W85283  28.838  17.695   0.696
16879W        W85284   4.444  29.270   2.569
16880W        W85285  17.315   3.101   4.231
16881W        W85286  10.258   2.692   0.764
16882W        W85287   1.070  12.337  13.051
16883W        W85288  43.452   3.232   4.736
16884W        W85289  17.162  37.106   2.319
16885W        W85290  32.897  19.143   2.481
16886W        W85291   4.928  20.359   4.193
16887W        W85292  44.819  40.896   3.797
16888W        W85293  43.976  30.129   4.549
16889W        W85294   6.861  10.172  13.503
16890W        W85295  21.728  44.821  12.815
16891W        W85296   8.054  40.767   4.946
16892W        W85297  42.288  30.136  12.599
16893W        W85298  38.857  42.503   2.088
16894W        W85299  10.496  43.613   4.269
16895W        W85300  26.141  44.868   3.880
16896W        W85301  23.971   5.054   3.012
16897W        W85302  15.924  39.013   5.078
16898W        W85303  11.261  44.562   2.705
16899W        W85304  40.307  42.971   2.312
16900W        W85305  17.173  37.021   0.182
16901W        W85306  29.918   2.318  13.532
16902W        W85307  29.966  27.324   2.604
16903W        W85308  14.871  24.984   0.725
16904W        W85309  25.678  22.398  12.004
16905W        W85310  23.520  12.510  11.142
16906W        W85311   6.375  13.157  11.212
16907W        W85312  13.078  42.020   1.589
16908W        W85313  44.386  15.993   5.100
16909W        W85314  44.461  14.032   4.498
16910W        W85315  26.328  38.864  11.046
16911W        W85316  32.925  16.728  10.583
16912W        W85317   8.894   0.633  11.289
16913W        W85318  43.575  19.716  12.476
16914W        W85319  20.963   6.145  12.547
16915W        W85320  13.880  21.025   2.272
16916W        W85321  25.061   5.841  12.095
16917W        W85322  44.252   8.909   2.093
16918W        W85323  19.036  15.542   1.438
16919W        W85324  17.547  37.997  14.337
16920W        W85325   5.395  33.070   1.002
16921W        W85326   2.882  43.320  11.014
16922W        W85327  26.838  23.317   0.812
16923W        W85328   5.537  22.356  12.516
16924W        W85329   9.351  35.867  13.093
16925W        W85330   9.584  12.212   1.142
16926W        W85331  15.804  30.526  11.077
16927W        W85332  26.767  19.336   3.834
16928W        W85333   3.508  11.166  13.059
16929W        W85334  18.185  41.348  13.631
16930W        W85335  44.723  24.502  14.928
16931W        W85336  30.386  43.136  11.482
16932W        W85337  12.308   9.950  14.843
16933W        W85338  28.967  21.989  11.694
16934W        W85339  27.142  22.329  11.975
16935W        W85340  43.320  32.932   1.920
16936W        W85341  30.835   7.602   0.037
16937W        W85342  38.753  21.690   1.878
16938W        W85343  21.749  32.430  13.363
16939W        W85344  19.041  20.442  11.057
16940W        W85345   9.687  10.901  11.294
16941W        W85346  27.264  33.887  12.510
16942W        W85347   7.970  19.152   1.729
16943W        W85348   3.298  38.787  11.018
16944W        W85349  19.531  41.283   3.190
16945W        W85350  31.946  24.399  14.944
16946W        W85351   2.661  31.301  11.978
16947W        W85352   2.884   0.393  13.492
16948W        W85353  36.930  34.657  11.033
16949W        W85354  17.628   4.640  13.126
16950W        W85355  32.496  27.206   1.059
16951W        W85356  22.772  30.083   0.827
16952W        W85357  37.409   4.610   0.457
16953W        W85358  40.853  43.743   0.322
16954W        W85359  41.981  44.105   3.392
16955W        W85360   3.821  30.639  12.585
16956W        W85361  12.780  34.808   2.936
16957W        W85362  28.784  13.594  14.800
16958W        W85363  36.940  42.843   3.747
16959W        W85364  27.690  34.258   4.027
16960W        W85365  40.397  12.612   2.470
16961W        W85366  21.577   6.431  13.492
16962W        W85367  14.727  16.636  14.398
16963W        W85368  24.698  43.875   4.157
16964W        W85369  17.180  35.053  13.016
16965W        W85370  33.825  42.770  13.860
16966W        W85371  33.442  13.326   2.913
16967W        W85372  10.362  37.088  10.842
16968W        W85373  10.835  31.449  13.915
16969W        W85374  13.227  23.894   1.346
16970W        W85375  37.925   3.999  12.521
16971W        W85376  42.111   8.921  12.363
16972W        W85377  33.552  19.704  14.093
16973W        W85378  15.728  17.645  12.663
16974W        W85379  20.293   4.930  13.339
16975W        W85380  28.632  39.686  14.327
16976W        W85381   7.184  19.171  11.689
16977W        W85382  43.961   5.016  13.924
16978W        W85383   2.769   6.243  11.092
16979W        W85384  32.603  14.487   2.767
16980W        W85385   4.402  21.852   0.221
16981W        W85386  42.371  31.622  11.518
16982W        W85387  37.512  30.390   0.424
16983W        W85388  17.275   8.871  13.398
16984W        W85389  12.239   7.833   4.611
16985W        W85390  34.567   1.677   3.820
16986W        W85391  43.284  12.009   2.433
16987W        W85392  17.126   8.175  14.046
16988W        W85393  44.846  12.074  13.806
16989W        W85394  20.265   4.302  11.701
16990W        W85395  25.631  43.436   1.280
16991W        W85396  31.598  11.247   1.812
16992W        W85397   4.474  17.785   3.311
16993W        W85398   8.978   0.765  12.599
16994W        W85399  35.072  42.491  13.393
16995W        W85400   5.865  42.374  14.788
16996W        W85401  39.756  34.629  10.534
16997W        W85402  33.045   3.485   1.447
16998W        W85403  16.397  10.171   0.881
16999W        W85404  17.820  10.071   5.411
17000W        W85405  38.558  16.619  13.589
17001W        W85406  44.065  30.583  11.743
17002W        W85407  33.621  44.003   0.005
17003W        W85408  43.046  28.405  14.584
17004W        W85409  32.024  33.367  13.590
17005W        W85410  22.246  37.180   0.353
17006W        W85411  33.386  35.087  12.231
17007W        W85412  16.433  22.534  14.791
17008W        W85413  10.135  34.405  14.340
17009W        W85414  44.933   8.585  14.889
17010W        W85415  41.398   6.152   2.822
17011W        W85416  23.080   6.782   2.817
17012W        W85417  31.491  15.763  12.380
17013W        W85418  17.686   6.438   1.888
17014W        W85419  15.635  42.248   0.834
17015W        W85420  43.971  44.344   4.812
17016W        W85421  27.907  12.767  13.020
17017W        W85422  11.917   5.584  12.627
17018W        W85423   6.252  29.945   9.747
17019W        W85424  18.871  27.642   1.146
17020W        W85425   3.029   7.398  12.454
17021W        W85426  41.572  12.847  14.334
17022W        W85427  41.356  42.536   3.277
17023W        W85428  41.497  18.862   2.289
17024W        W85429  15.099  27.724  12.693
17025W        W85430   4.800  12.965  11.215
17026W        W85431  30.151  11.258  10.702
17027W        W85432  23.747  19.000   1.357
17028W        W85433   7.775  31.142   3.285
17029W        W85434  27.734   1.535   0.113
17030W        W85435   7.019  23.545  10.848
17031W        W85436  32.710  26.128  10.572
17032W        W85437   6.321  26.452   1.414
17033W        W85438  20.498  30.097  10.737
17034W        W85439  41.767  22.268   1.724
17035W        W85440  18.329   1.693   4.520
17036W        W85441   2.177  33.345  13.603
17037W        W85442  40.416   2.352   4.214
17038W        W85443  40.112  37.973   3.325
17039W        W85444   5.371  16.496  13.064
17040W        W85445  19.791  43.139   4.154
17041W        W85446  42.593  11.314  10.689
17042W        W85447  40.317  29.023  14.839
17043W        W85448  34.617   5.664   1.251
17044W        W85449  12.660  11.344  14.979
17045W        W85450  17.013   1.365   4.634
17046W        W85451  17.552  34.221   0.646
17047W        W85452  38.757  36.783   1.312
17048W        W85453  11.707  41.571  10.632
17049W        W85454  10.256  25.535   5.135
17050W        W85455  18.695   7.213  14.841
17051W        W85456  39.427  42.752  11.998
17052W        W85457  32.888  33.003   4.173
17053W        W85458  40.637  40.028  12.054
17054W        W85459   2.725  22.962   3.170
17055W        W85460  12.383  33.063   1.756
17056W        W85461  30.051  21.579   4.095
17057W        W85462  30.009  36.563  10.410
17058W        W85463  37.295  43.816  13.788
17059W        W85464   9.359  12.129  12.464
17060W        W85465  26.482  42.920   2.937
17061W        W85466   6.329  27.817   2.312
17062W        W85467  39.035   8.784  14.782
17063W        W85468  36.923  38.527   3.532
17064W        W85469  30.383  40.732   2.261
17065W        W85470  11.123  33.908   1.169
17066W        W85471  31.039  38.388  13.942
17067W        W85472  26.507   8.186  14.840
17068W        W85473   4.876   2.762   3.378
17069W        W85474  21.494  16.892  13.642
17070W        W85475  36.513   4.483   1.059
17071W        W85476   4.755  10.266  11.724
17072W        W85477  43.044  38.121  13.322
17073W        W85478  13.671   4.715   2.289
17074W        W85479  25.638  16.066   4.337
17075W        W85480   7.733  18.004   3.806
17076W        W85481  38.863  17.480  12.483
17077W        W85482  38.486  40.154   2.326
17078W        W85483  11.202  28.463   3.061
17079W        W85484  44.353   4.253   2.440
17080W        W85485  19.361  12.300  14.016
17081W        W85486   9.307  32.295  11.663
17082W        W85487  13.336  33.555   4.484
17083W        W85488  31.430  17.312   0.198
17084W        W85489   3.354  23.604   4.443
17085W        W85490  31.719  34.866   0.441
17086W        W85491  41.738  23.216   0.764
17087W        W85492  39.943  38.117  11.411
17088W        W85493   8.809  12.704  13.894
17089W        W85494  12.576  20.218  13.444
17090W        W85495  37.474  24.385   0.232
17091W        W85496  36.901  21.546   3.720
17092W        W85497  24.867  33.746   1.860
17093W        W85498   7.679  44.971  14.017
17094W        W85499  16.014  21.997  13.281
17095W        W85500  14.788   3.504  11.541
17096W        W85501   0.473  31.996  14.911
17097W        W85502  23.758   3.764  14.633
17098W        W85503  12.142  31.950   2.519
17099W        W85504  33.606  32.561   0.746
17100W        W85505  28.587  22.635  12.900
17101W        W85506  13.810  30.087   4.936
17102W        W85507  18.698  13.349   4.897
17103W        W85508  28.456  16.016  10.293
17104W        W85509  41.537  35.997   2.612
17105W        W85510  24.574  29.602  13.498
17106W        W85511  33.937  43.074   3.080
17107W        W85512   4.934  21.149  11.685
17108W        W85513  18.129   6.451   2.214
17109W        W85514   4.120   7.872   1.421
17110W        W85515  16.346  22.951  13.422
17111W        W85516  16.095  38.421  11.517
17112W        W85517  38.947  33.149   4.104
17113W        W85518  20.567   5.784   4.536
17114W        W85519  42.921  44.975  14.905
17115W        W85520  41.306  26.566  10.800
17116W        W85521  22.085  27.224   2.384
17117W        W85522   5.942  18.893   3.589
17118W        W85523  20.729  37.563   0.436
17119W        W85524   5.698   2.967  13.953
17120W        W85525  21.143   1.723  12.577
17121W        W85526  14.090  23.504  11.709
17122W        W85527  42.898  10.267   4.412
17123W        W85528  24.114  20.955   0.794
17124W        W85529  17.256  37.952   2.735
17125W        W85530  44.673  27.096   1.695
17126W        W85531  40.411  23.126  11.699
17127W        W85532   3.270  20.265   4.642
17128W        W85533  12.852  27.467   0.396
17129W        W85534  24.627  25.780   4.132
17130W        W85535  23.079  26.159  11.066
17131W        W85536  14.609  24.039  14.042
17132W        W85537   7.485  13.792  14.842
17133W        W85538   5.254  19.113   4.231
17134W        W85539  27.925  11.085  14.048
17135W        W85540  37.533  42.489  14.065
17136W        W85541  23.162  43.263  14.379
17137W        W85542  25.663  14.695   4.097
17138W        W85543  41.493  12.043   1.038
17139W        W85544  35.183  29.144  12.503
17140W        W85545   2.684  24.845  10.338
17141W        W85546   7.995  11.077   3.202
17142W        W85547  20.084  39.229  12.543
17143W        W85548  23.947  17.295  14.241
17144W        W85549  38.959   5.267   2.687
17145W        W85550  19.170  10.309   3.023
17146W        W85551   3.160  36.349   1.716
17147W        W85552   1.013   0.377  14.280
17148W        W85553  13.419  37.328  14.085
17149W        W85554  18.616  15.709  14.753
17150W        W85555  16.185   8.793   4.086
17151W        W85556  31.264  25.528   2.559
17152W        W85557  21.819  22.495   2.288
17153W        W85558   4.671   2.892   2.896
17154W        W85559  44.296   4.445   5.125
17155W        W85560   9.877  29.646  14.771
17156W        W85561  37.058   7.602   2.333
17157W        W85562  31.243  37.500  12.169
17158W        W85563  20.278  31.467  10.345
17159W        W85564  44.066  20.085   0.248
17160W        W85565  25.206  40.137  13.396
17161W        W85566  17.065  29.054  10.537
17162W        W85567  38.200   3.141   0.921
17163W        W85568  35.629   9.823  12.422
17164W        W85569  42.796  22.178   3.484
17165W        W85570  35.154   0.488   1.809
17166W        W85571  10.753   5.328   4.250
17167W        W85572  31.551  22.023  12.314
17168W        W85573  10.900  27.063  14.369
17169W        W85574  38.606   3.784   1.436
17170W        W85575  32.601  35.525   1.237
17171W        W85576  33.141   7.752   0.496
17172W        W85577  31.353  27.596  14.452
17173W        W85578  36.053  35.808  14.026
17174W        W85579  23.720  30.536  10.237
17175W        W85580   8.707  12.516   0.341
17176W        W85581   6.640   1.241  14.888
17177W        W85582  33.482   5.676  13.855
17178W        W85583  28.956  17.200  12.115
17179W        W85584  32.895  19.346   3.338
17180W        W85585  31.193  27.663   3.216
17181W        W85586  25.720   1.736  11.999
17182W        W85587  22.416  32.984   2.167
17183W        W85588  41.978  22.745  11.228
17184W        W85589  40.334  41.532  14.744
17185W        W85590  31.152  42.722  12.334
17186W        W85591  19.806  24.118  13.946
17187W        W85592   1.903  36.956   1.642
17188W        W85593  25.447  21.041   1.831
17189W        W85594  10.623  29.442  12.239
17190W        W85595   2.584  14.486  11.125
17191W        W85596  40.447  35.563  14.510
17192W        W85597  30.903  35.443  11.681
17193W        W85598   0.623  36.910  11.565
17194W        W85599  36.284  10.278  11.455
17195W        W85600  22.781  43.718  13.472
17196W        W85601  24.129  26.611  10.113
17197W        W85602  31.496  16.847   3.268
17198W        W85603  14.135  39.751  13.055
17199W        W85604  29.053  35.341  14.456
17200W        W85605   5.447  12.684   0.414
17201W        W85606  19.587  44.332  14.365
17202W        W85607  25.908  36.027   0.957
17203W        W85608  18.669  15.771  13.755
17204W        W85609  24.436  44.878   1.144
17205W        W85610  11.070  15.905   0.420
17206W        W85611   5.191  39.929  13.406
17207W        W85612  34.154  27.192  12.422
17208W        W85613  15.212  39.883  11.192
17209W        W85614  36.474   5.026   0.378
17210W        W85615  10.090  11.279  11.989
17211W        W85616   0.796  39.893   1.258
17212W        W85617  36.950  13.224   1.694
17213W        W85618  25.627  43.976   4.171
17214W        W85619  15.175  13.089   2.125
17215W        W85620   0.289  14.054  12.865
17216W        W85621  32.596  42.534  14.432
17217W        W85622  43.456  35.972   3.764
17218W        W85623  42.080  25.696   2.197
17219W        W85624   6.503  30.538   4.135
17220W        W85625  24.012   3.804  12.017
17221W        W85626   7.745  26.632  13.954
17222W        W85627  17.992   4.407  11.163
17223W        W85628  20.089   3.868   3.719
17224W        W85629  37.547  32.462   1.936
17225W        W85630  17.568  17.507  14.354
17226W        W85631  11.876  42.810   0.222
17227W        W85632  42.826  22.062   1.094
17228W        W85633  19.497  18.501  11.144
17229W        W85634  15.059  25.699   1.287
17230W        W85635  42.247  22.989   4.704
17231W        W85636  16.229  11.283   5.742
17232W        W85637  44.902  37.086   1.726
17233W        W85638  24.703  12.742  14.801
17234W        W85639   2.205  36.919  10.640
17235W        W85640   6.648  32.820   3.994
17236W        W85641  39.986  27.540  11.543
17237W        W85642  12.333  42.254   4.741
17238W        W85643  42.395  10.130   4.561
17239W        W85644  44.032  43.282   4.654
17240W        W85645   9.697  28.411   0.362
17241W        W85646  16.183  30.418  13.306
17242W        W85647   0.084  41.256  14.580
17243W        W85648  30.128  11.108  11.956
17244W        W85649  15.803  33.885  13.625
17245W        W85650  43.748  36.355  10.685
17246W        W85651  33.196  19.033   0.191
17247W        W85652   3.225  23.508  14.250
17248W        W85653  30.889   9.558  12.696
17249W        W85654  14.662   8.475  12.121
17250W        W85655  32.115  37.503   2.330
17251W        W85656   8.939  44.544  14.832
17252W        W85657  39.434  19.714   3.347
17253W        W85658  33.581  14.563   2.278
17254W        W85659  19.990  11.140  12.122
17255W        W85660  22.952   9.175  12.628
17256W        W85661  28.141  15.497   5.218
17257W        W85662  19.689  26.193  11.470
17258W        W85663  36.595  30.389   1.811
17259W        W85664  19.563  23.640   0.425
17260W        W85665   1.695  42.762  11.129
17261W        W85666  23.987  16.603  12.950
17262W        W85667  20.101  44.252   3.335
17263W        W85668  39.150  43.883  13.627
17264W        W85669  16.302  34.546   4.157
17265W        W85670  22.803  37.880   1.808
17266W        W85671  32.474  25.249   1.330
17267W        W85672  23.549  36.039   2.280
17268W        W85673  42.332  38.509  13.537
17269W        W85674  19.162  26.695  14.289
17270W        W85675   5.258  26.658  14.443
17271W        W85676  15.615  14.521   2.807
17272W        W85677  33.501  17.884  14.496
17273W        W85678  38.934   1.401  11.066
17274W        W85679   8.459  20.248  13.051
17275W        W85680  20.238  16.339   1.714
17276W        W85681  38.644   9.893   0.523
17277W        W85682  20.466  32.316   1.380
17278W        W85683   2.756   9.177   3.329
17279W        W85684  14.052  13.233   2.836
17280W        W85685   0.218  23.985  13.604
17281W        W85686  20.144  19.275  11.419
17282W        W85687   5.037  40.891   0.692
17283W        W85688  20.601  14.109   2.603
17284W        W85689  27.654  26.253  14.490
17285W        W85690   6.469  18.098   4.485
17286W        W85691  15.996   3.838   2.057
17287W        W85692   9.269   6.585  13.147
17288W        W85693  29.457  12.280  10.922
17289W        W85694   1.356   1.958   4.692
17290W        W85695  25.745   2.246  14.530
17291W        W85696  14.067  28.972  11.962
17292W        W85697   8.299  14.882  14.421
17293W        W85698   4.810  35.313   0.775
17294W        W85699  33.510  23.178  10.545
17295W        W85700  34.440  26.802  10.346
17296W        W85701  22.595   2.025   2.847
17297W        W85702  37.664  16.283   4.691
17298W        W85703  31.732  28.499  13.431
17299W        W85704  38.749  44.434  11.470
17300W        W85705  11.821  17.069   9.760
17301W        W85706   8.774  40.710   2.878
17302W        W85707  19.128  18.626   4.921
17303W        W85708  24.009  12.311  11.161
17304W        W85709  39.851  31.897  12.793
17305W        W85710  17.979  26.378  11.125
17306W        W85711  15.257  11.903  14.275
17307W        W85712   1.241  32.241   0.390
17308W        W85713  26.610  42.211  14.780
17309W        W85714   4.454  21.146   2.886
17310W        W85715   5.391  16.643   3.350
17311W        W85716  15.641  30.486  10.543
17312W        W85717  23.138  16.187   0.265
17313W        W85718   8.124  20.549   4.391
17314W        W85719  22.650  20.300  11.494
17315W        W85720  32.516  28.989   0.730
17316W        W85721  29.665  16.647  11.409
17317W        W85722   3.936  15.260  10.665
17318W        W85723  16.648  40.658  12.740
17319W        W85724  44.245   0.628  13.892
17320W        W85725  29.482   9.342  14.553
17321W        W85726  41.943  15.557   4.079
17322W        W85727  42.045   3.112   4.436
17323W        W85728  16.081  14.264  14.808
17324W        W85729  38.884  23.239  14.648
17325W        W85730  43.875  22.633  10.630
17326W        W85731  38.706  28.761  13.858
17327W        W85732   1.910  44.404  12.999
17328W        W85733  36.015  17.253   3.055
17329W        W85734  11.783   0.346   5.305
17330W        W85735  17.781  33.750   3.219
17331W        W85736  28.506  30.093  14.917
17332W        W85737  34.580  11.253  11.590
17333W        W85738  40.901  17.259  10.528
17334W        W85739  13.331  23.668   2.641
17335W        W85740  36.074  27.188  14.874
17336W        W85741  37.465  27.050  12.666
17337W        W85742  34.428  11.592  13.299
17338W        W85743  28.193  33.609   4.616
17339W        W85744  41.070  26.495  12.503
17340W        W85745   1.397  37.919  11.788
17341W        W85746  14.714  15.627  12.519
17342W        W85747  36.602   1.858   3.610
17343W        W85748  18.792  42.851   3.273
17344W        W85749   9.705  25.180   1.745
17345W        W85750  19.241  35.553   1.420
17346W        W85751   7.103   5.872  13.991
17347W        W85752  33.923  35.631  11.140
17348W        W85753  18.797  34.058   4.151
17349W        W85754   8.369   7.419   4.986
17350W        W85755  36.828  10.723  14.048
17351W        W85756  41.110   5.433   3.767
17352W        W85757  16.491  25.611   1.406
17353W        W85758  31.729  26.678   4.994
17354W        W85759   7.723   7.945  12.912
17355W        W85760  26.695   6.189  13.566
17356W        W85761  29.347  33.034   2.585
17357W        W85762  14.412   4.318   1.944
17358W        W85763   6.123  22.067   4.597
17359W        W85764  37.386  19.687  11.941
17360W        W85765  20.128  30.548   2.857
17361W        W85766   2.401   9.374  11.659
17362W        W85767  42.341   6.142   3.728
17363W        W85768  34.659  16.058  14.146
17364W        W85769  42.977  27.548   2.637
17365W        W85770  18.081  30.417  11.606
17366W        W85771   7.939   2.258   3.282
17367W        W85772  31.473  33.172  13.367
17368W        W85773   5.788  14.820   0.497
17369W        W85774   4.194   1.389  12.530
17370W        W85775  18.247  19.836  14.526
17371W        W85776  19.636  26.188  12.420
17372W        W85777   1.563  10.276   3.220
17373W        W85778  19.345  25.460   0.775
17374W        W85779  14.885  24.680  10.994
17375W        W85780  18.580  43.493  13.877
17376W        W85781  15.156  30.960  12.769
17377W        W85782  20.075  25.868  12.438
17378W        W85783  42.804   3.760   1.715
17379W        W85784  33.178   8.003  10.496
17380W        W85785  11.226  44.939  13.843
17381W        W85786  10.303  17.223  12.100
17382W        W85787  34.021  42.222   4.083
17383W        W85788  14.219  23.079   2.230
17384W        W85789  40.860  40.489  12.053
17385W        W85790  29.886  37.071  10.550
17386W        W85791  20.850  22.257  10.829
17387W        W85792  41.923  37.085   0.233
17388W        W85793   7.721   0.918  10.514
17389W        W85794  29.410  20.548  14.042
17390W        W85795  22.270   3.410   2.083
17391W        W85796   3.751  20.734   4.070
17392W        W85797  17.730  34.324  10.039
17393W        W85798  12.363  30.624  12.138
17394W        W85799  43.313  13.887   5.072
17395W        W85800  42.953  42.205  14.451
17396W        W85801  14.636  36.792   4.911
17397W        W85802  15.869  28.096   5.073
17398W        W85803  36.825  33.898  13.389
17399W        W85804  41.275  12.254   2.017
17400W        W85805   5.972   8.823   4.139
17401W        W85806  36.105   1.496  13.278
17402W        W85807  18.141  34.882   1.908
17403W        W85808  29.004  22.040   3.608
17404W        W85809   9.616  11.103  12.076
17405W        W85810  19.339   6.161   1.242
17406W        W85811  13.343  23.074   4.574
17407W        W85812   5.692   9.940   4.156
17408W        W85813   1.242  21.699   4.105
17409W        W85814  39.046  33.460  13.002
17410W        W85815   0.728  36.350   2.130
17411W        W85816  14.563   7.310   2.187
17412W        W85817  17.349   1.767   4.580
17413W        W85818  27.355   7.437   1.216
17414W        W85819  10.671  26.244   2.440
17415W        W85820  11.378   3.304   3.653
17416W        W85821  19.170   9.338   1.448
17417W        W85822  23.585  30.682  11.622
17418W        W85823  30.512  13.347   4.281
17419W        W85824  43.342  39.426  10.319
17420W        W85825  36.530   7.043  13.953
17421W        W85826  32.608  28.205  13.103
17422W        W85827  42.802  16.702   0.426
17423W        W85828  27.160  27.220   2.174
17424W        W85829  38.598  35.018  12.557
17425W        W85830  33.873  29.631   4.811
17426W        W85831  38.898   4.666   4.038
17427W        W85832  13.605  17.657  13.069
17428W        W85833  33.664  20.582  13.981
17429W        W85834  44.420  41.119  10.402
17430W        W85835  26.530  41.479   4.095
17431W        W85836  20.071  27.541  14.384
17432W        W85837   8.426  16.186  12.566
17433W        W85838  28.461  16.074  13.895
17434W        W85839   7.639  11.851   3.309
17435W        W85840  36.228  25.884   4.288
17436W        W85841   4.203  12.691   3.346
17437W        W85842  26.409  35.884   1.801
17438W        W85843   2.956  41.355   2.297
17439W        W85844  28.594  22.009   1.195
17440W        W85845  17.315  15.237  13.422
17441W        W85846  10.579   7.108  10.961
17442W        W85847  11.173  22.239  14.860
17443W        W85848   8.744  27.129  12.394
17444W        W85849  28.613  31.984  12.799
17445W        W85850  35.012  20.303  11.233
17446W        W85851  35.102  44.417   2.691
17447W        W85852  39.047  43.411   4.183
17448W        W85853  17.510  20.164  11.460
17449W        W85854  12.187   4.445  11.078
17450W        W85855   5.771  28.975  12.848
17451W        W85856  19.603   5.231  14.949
17452W        W85857   5.913  44.174   3.260
17453W        W85858  19.105  17.038  11.145
17454W        W85859  28.554   6.613   3.299
17455W        W85860  17.717  29.360  12.517
17456W        W85861  14.323  25.720   1.574
17457W        W85862  38.045   9.164  14.008
17458W        W85863  43.758  32.124  10.735
17459W        W85864  11.936  36.143  13.321
17460W        W85865  41.021   1.544   4.966
17461W        W85866   9.271  29.715  10.779
17462W        W85867  19.620   5.638   2.921
17463W        W85868  18.115  32.127   3.757
17464W        W85869  18.546   1.649  10.290
17465W        W85870   1.842   0.298  13.509
17466W        W85871  30.421  27.927   3.833
17467W        W85872  30.826   4.263   3.492
17468W        W85873  25.877  38.351  14.732
17469W        W85874  39.794  42.747  14.468
17470W        W85875  39.499  39.165   1.484
17471W        W85876  33.444  21.708  11.607
17472W        W85877  19.785  41.888  13.639
17473W        W85878  11.258  32.571  14.891
17474W        W85879  44.504   5.213   1.190
17475W        W85880   5.414  28.532  11.172
17476W        W85881  36.531   9.623   1.877
17477W        W85882  32.069   9.625  12.338
17478W        W85883  34.749  28.975  10.736
17479W        W85884  41.140  24.160   4.325
17480W        W85885   3.820  33.400   0.655
17481W        W85886   2.670  23.832   0.870
17482W        W85887  36.515  38.140   0.425
17483W        W85888  22.592  11.825   2.533
17484W        W85889   3.285   1.748  10.718
17485W        W85890   4.378  13.926  14.836
17486W        W85891  14.047  38.023  10.670
17487W        W85892   8.879  28.685  11.032
17488W        W85893  39.742  34.074  12.843
17489W        W85894   8.464  19.149   1.937
17490W        W85895  12.553   2.494  13.512
17491W        W85896  33.555  43.554  10.719
17492W        W85897  16.456  22.153  13.501
17493W        W85898  17.287  11.064   1.281
17494W        W85899  43.299  20.733  11.355
17495W        W85900  40.539  30.879   3.644
17496W        W85901  30.689   5.556  14.492
17497W        W85902  43.988   9.337   1.261
17498W        W85903  42.332  37.519   2.277
17499W        W85904   2.785  11.573   3.440
17500W        W85905  21.572  25.271   1.593
17501W        W85906   3.861  28.675   1.167
17502W        W85907   1.391   2.322   4.106
17503W        W85908  37.761  37.949  11.247
17504W        W85909  39.683  33.379  14.773
17505W        W85910  41.339  35.988   3.619
17506W        W85911  40.592  34.063  12.188
17507W        W85912  16.672  40.722  11.462
17508W        W85913  16.552  22.537   1.447
17509W        W85914  17.614   3.151   1.769
17510W        W85915  44.994   6.080  12.326
17511W        W85916  19.964   8.105  14.458
17512W        W85917  31.549  32.016  12.969
17513W        W85918   0.763   0.819  13.792
17514W        W85919  39.548  40.873  12.588
17515W        W85920  31.197  14.218  14.722
17516W        W85921  12.791  19.620  14.460
17517W        W85922   5.627   7.281  14.907
17518W        W85923  44.458  27.991   4.809
17519W        W85924  13.654  22.157   1.716
17520W        W85925  10.972  38.448  14.791
17521W        W85926  17.846  35.089  11.077
17522W        W85927  35.883  41.787  12.036
17523W        W85928  23.980   1.322   4.860
17524W        W85929  27.609  44.434   4.573
17525W        W85930  29.980  12.614   3.347
17526W        W85931  15.408  25.565   2.787
17527W        W85932  39.529  43.996   4.591
17528W        W85933  39.590  39.310   0.212
17529W        W85934  22.462   6.281  12.478
17530W        W85935   0.534   0.423   4.628
17531W        W85936   3.291  17.392  12.436
17532W        W85937  25.701  33.806  12.503
17533W        W85938  23.217  17.076   1.801
17534W        W85939  37.172   2.415   1.189
17535W        W85940  13.502  40.978  13.863
17536W        W85941  30.567   8.271  11.673
17537W        W85942  37.840  36.155   1.779
17538W        W85943  19.741  32.045   4.062
17539W        W85944   5.516   8.473   4.077
17540W        W85945  42.373  29.389   3.376
17541W        W85946  43.988   6.213   1.319
17542W        W85947  18.850  22.258   3.404
17543W        W85948  10.334   9.117   2.337
17544W        W85949  16.047  20.073   0.821
17545W        W85950   8.661  30.907  12.376
17546W        W85951  40.468   0.030  14.251
17547W        W85952  15.243   7.853   2.325
17548W        W85953  35.813  18.264   2.274
17549W        W85954  25.004  37.202  14.486
17550W        W85955   5.248  37.173  13.000
17551W        W85956  29.400  16.000  14.697
17552W        W85957   6.105  31.555   2.870
17553W        W85958  44.583  31.900  13.944
17554W        W85959  16.038  38.221   3.637
17555W        W85960  40.813  22.545  12.183
17556W        W85961  43.228  36.880  14.731
17557W        W85962  25.443   4.601   4.249
17558W        W85963  43.270   7.637  13.900
17559W        W85964   7.267  21.265  12.977
17560W        W85965  22.589   9.227   2.384
17561W        W85966  20.086  29.450   2.310
17562W        W85967   1.983  33.615  11.921
17563W        W85968  27.046  40.037   3.766
17564W        W85969  25.099   5.331  11.522
17565W        W85970  13.674   9.661   1.563
17566W        W85971  10.082  24.198  13.453
17567W        W85972  26.224  15.351   2.945
17568W        W85973  39.886  25.319  13.421
17569W        W85974  43.465  32.616  12.791
17570W        W85975  24.553  35.920  12.641
17571W        W85976  25.223  14.006  14.407
17572W        W85977  17.555  34.983   0.160
17573W        W85978   0.828   6.662   3.327
17574W        W85979   8.731   4.336   3.879
17575W        W85980  31.600  13.096  12.061
17576W        W85981  31.380  20.467   3.204
17577W        W85982  18.653  11.416  12.405
17578W        W85983  40.629  30.616  11.502
17579W        W85984  26.958   9.699  13.347
17580W        W85985  44.234  18.327   0.860
17581W        W85986   3.292   2.289  11.938
17582W        W85987  20.057  28.396   1.161
17583W        W85988  23.216  23.697   2.230
17584W        W85989  16.317  27.625   3.332
17585W        W85990   8.790  23.627   4.877
17586W        W85991   8.190  20.110  10.648
17587W        W85992   5.901  10.501   1.013
17588W        W85993  14.181  30.628   4.458
17589W        W85994  41.835  15.854   9.928
17590W        W85995  29.508  15.140   4.243
17591W        W85996  36.137  18.176   3.288
17592W        W85997   1.295  37.798  13.542
17593W        W85998   7.428  17.223  11.645
17594W        W85999   7.241  35.344   4.345
17595W        W86000   9.642   5.426   0.520
17596W        W86001   5.436  32.475   2.748
17597W        W86002   8.054  15.102   3.598
17598W        W86003  38.255  17.548   2.030
17599W        W86004  33.742  12.588  14.323
17600W        W86005  44.235   7.612  12.082
17601W        W86006  20.149  14.024   4.834
17602W        W86007  15.243  43.206   2.810
17603W        W86008   1.430  42.649  12.999
17604W        W86009  36.093   4.315   4.887
17605W        W86010  36.345   4.608   2.583
17606W        W86011   2.784   9.105  13.141
17607W        W86012  21.745  33.490   1.577
17608W        W86013  39.687  44.963   3.773
17609W        W86014   1.188   3.733   2.211
17610W        W86015  29.789  30.196   1.058
17611W        W86016  35.027  34.383  14.797
17612W        W86017  11.426  41.325   0.699
17613W        W86018   4.294  34.229  10.925
17614W        W86019  24.530  13.578  11.200
17615W        W86020  10.762  39.711  12.348
17616W        W86021  12.410  38.623  14.708
17617W        W86022   6.672  40.310   0.664
17618W        W86023  35.605  17.249   4.684
17619W        W86024  18.194  21.875  12.874
17620W        W86025  12.900  22.969   1.173
17621W        W86026   0.455  19.294  14.579
17622W        W86027  39.652  19.613   2.436
17623W        W86028  20.590  35.573  12.690
17624W        W86029  25.025  16.227   3.848
17625W        W86030  15.424  36.304  11.895
17626W        W86031   6.759   7.700  11.912
17627W        W86032  36.644   4.674   1.909
17628W        W86033  33.478  35.956   0.387
17629W        W86034  43.787  38.076   4.656
17630W        W86035  20.657  28.707  10.724
17631W        W86036  17.618  40.533   1.966
17632W        W86037   6.798   9.802  12.150
17633W        W86038   4.997  43.210   0.676
17634W        W86039   9.382  27.969   0.382
17635W        W86040  36.963  37.098   1.113
17636W        W86041  26.114  12.429   0.470
17637W        W86042  23.425  35.904   3.633
17638W        W86043   9.174  36.128   0.973
17639W        W86044  42.882   1.824   1.014
17640W        W86045   3.737  10.690   3.836
17641W        W86046   5.367  38.928  11.515
17642W        W86047  31.846  31.682   3.616
17643W        W86048  37.417   3.751  14.592
17644W        W86049  31.058  11.216   0.420
17645W        W86050  13.614   5.278   3.219
17646W        W86051  28.710   8.206  11.613
17647W        W86052  38.839  16.139  14.314
17648W        W86053  33.950   5.287   0.887
17649W        W86054  29.371  28.818   2.852
17650W        W86055  37.336  21.053  12.073
17651W        W86056  29.616  42.034   1.476
17652W        W86057  29.921  41.150   2.215
17653W        W86058  20.434  33.602  11.005
17654W        W86059   7.684  18.566   0.299
17655W        W86060   1.444   5.601  12.995
17656W        W86061  34.567  24.589   2.253
17657W        W86062  18.733  24.120   2.426
17658W        W86063  43.063  25.450   3.401
17659W        W86064  42.361  33.830   2.810
17660W        W86065   5.200  30.978   3.209
17661W        W86066  39.631  34.625  13.471
17662W        W86067  12.770  40.100  11.824
17663W        W86068   1.830   1.341   3.142
17664W        W86069  25.095  10.720   1.798
17665W        W86070  17.233   9.742   2.035
17666W        W86071  12.366  31.025  11.772
17667W        W86072  33.487  14.347   5.229
17668W        W86073   6.809  30.438  10.270
17669W        W86074  17.120  35.280  13.473
17670W        W86075   0.922  17.117  12.167
17671W        W86076  44.477  26.507   5.090
17672W        W86077  15.670  23.520   0.275
17673W        W86078   7.868  15.066  12.835
17674W        W86079  35.451  30.548  12.615
17675W        W86080  41.548  40.096   1.047
17676W        W86081   2.474  11.777   0.436
17677W        W86082  11.715  39.389   3.630
17678W        W86083  12.130   6.408   0.157
17679W        W86084  22.899  31.501   4.553
17680W        W86085   2.702  28.147  13.030
17681W        W86086  23.208   8.031  13.887
17682W        W86087  36.465  12.515   3.184
17683W        W86088  28.979   7.738   2.784
17684W        W86089  11.171   9.124  11.147
17685W        W86090   1.991  41.457  12.243
17686W        W86091  15.143  33.094   0.921
17687W        W86092  38.307  19.145  13.810
17688W        W86093   3.606   4.213   2.784
17689W        W86094  41.844  10.637  11.662
17690W        W86095   9.309  16.539  14.413
17691W        W86096  16.394  26.956  13.533
17692W        W86097   3.493   3.525   4.991
17693W        W86098  30.087  44.500   1.909
17694W        W86099  18.667  18.040  14.396
17695W        W86100   7.339  28.305  13.560
17696W        W86101  26.758  14.584  11.109
17697W        W86102  34.851  39.537   2.747
17698W        W86103  21.697  14.953  11.090
17699W        W86104  44.333  29.347  10.760
17700W        W86105   8.679  17.827  11.994
17701W        W86106  21.701  15.457  11.165
17702W        W86107  38.503  28.988   2.451
17703W        W86108  17.095   4.480  11.026
17704W        W86109   0.862  32.900  10.647
17705W        W86110  31.399  11.125   3.412
17706W        W86111   6.225  35.578  12.532
17707W        W86112   8.776   3.419   0.903
17708W        W86113  31.910  38.593  13.457
17709W        W86114   0.772  25.139   4.779
17710W        W86115  36.831  40.778   1.945
17711W        W86116  42.936  15.284  13.215
17712W        W86117  18.837  12.996  12.617
17713W        W86118  44.015  28.210  11.118
17714W        W86119  42.127  39.201  11.406
17715W        W86120  26.457  29.404   0.283
17716W        W86121  35.012   1.974  12.583
17717W        W86122  44.066  14.720   3.425
17718W        W86123  16.105  13.463   4.740
17719W        W86124   2.688  24.658  11.321
17720W        W86125  28.160   0.436  10.580
17721W        W86126   7.917  30.636  14.946
17722W        W86127  38.590  44.786  12.903
17723W        W86128  24.611   8.888   3.649
17724W        W86129  41.588  29.314   3.418
17725W        W86130   2.819  31.849  12.558
17726W        W86131  32.871  10.914   3.506
17727W        W86132  14.650  28.354  11.189
17728W        W86133  27.635   9.775  10.370
17729W        W86134   1.591  37.452   2.312
17730W        W86135  18.071  12.646   2.593
17731W        W86136  28.076  17.693   1.821
17732W        W86137  37.249  19.392   2.252
17733W        W86138  10.266  27.479  13.966
17734W        W86139  19.313  28.349   2.035
17735W        W86140  30.119  34.389  14.886
17736W        W86141  14.199  40.476  11.760
17737W        W86142  31.337   1.409   3.951
17738W        W86143  10.862  37.915  10.492
17739W        W86144  39.024  37.243  11.604
17740W        W86145   7.233  30.318   4.713
17741W        W86146  14.564  11.408  14.409
17742W        W86147  24.345  11.385   2.670
17743W        W86148   0.763  29.545  11.044
17744W        W86149  37.342  15.657   3.665
17745W        W86150  15.192  21.978  14.556
17746W        W86151  23.975   1.829   2.609
17747W        W86152  19.513  32.574  11.413
17748W        W86153  33.408  16.372  13.374
17749W        W86154  42.056  32.718  12.095
17750W        W86155  18.229  41.180   3.261
17751W        W86156   4.132  31.059   1.806
17752W        W86157  37.158  23.313  14.647
17753W        W86158  21.004  42.349   3.623
17754W        W86159  29.165   7.935   1.469
17755W        W86160  23.157   5.377  13.732
17756W        W86161   6.796  35.660   3.451
17757W        W86162   9.952  25.113   5.079
17758W        W86163   2.281   8.430   1.710
17759W        W86164  25.275  21.606   0.452
17760W        W86165  35.839  28.124  14.008
17761W        W86166   3.311  29.941   3.901
17762W        W86167  24.671  19.885  14.379
17763W        W86168  26.386   0.416  14.390
17764W        W86169  43.570  38.865  13.015
17765W        W86170  44.063  39.943   1.729
17766W        W86171  31.860  41.034  10.448
17767W        W86172   6.363  33.943  14.770
17768W        W86173  35.889  42.977  10.659
17769W        W86174   1.430   3.901  12.698
17770W        W86175  11.833   5.173   0.447
17771W        W86176  40.522  26.169   1.199
17772W        W86177  37.889  32.414  14.730
17773W        W86178  25.164   2.410   4.987
17774W        W86179   9.677  34.883   1.020
17775W        W86180  36.395   5.916   0.097
17776W        W86181  14.126  44.293  11.500
17777W        W86182   5.184  25.938   0.159
17778W        W86183   1.781  10.651   4.076
17779W        W86184  33.300  19.232  12.054
17780W        W86185  11.438  41.977  11.500
17781W        W86186  19.181  28.505   0.384
17782W        W86187  25.316  29.539  12.376
17783W        W86188  27.155  17.299  12.318
17784W        W86189   5.690  35.338   1.843
17785W        W86190  14.744  24.247  10.763
17786W        W86191   0.967  22.139   4.965
17787W        W86192  27.099  33.504   9.993
17788W        W86193  39.602   3.255   1.351
17789W        W86194  25.897  43.216  10.837
17790W        W86195   6.838  28.492   3.213
17791W        W86196  15.990  38.248  13.924
17792W        W86197  21.501  37.120   3.123
17793W        W86198  37.219  24.034   0.951
17794W        W86199  20.618  18.815   3.085
17795W        W86200  24.699   8.326  12.413
17796W        W86201  27.166   7.832  12.003
17797W        W86202   9.040  11.429  11.103
17798W        W86203   2.451   8.311   3.660
17799W        W86204  38.992  38.056   1.842
17800W        W86205  38.366   7.440  12.202
17801W        W86206   0.308  24.912   4.763
17802W        W86207   9.763  27.294   3.812
17803W        W86208   9.348  32.630   4.517
17804W        W86209   1.229  40.529   2.860
17805W        W86210  20.591  32.138  12.485
17806W        W86211  29.406  14.682   3.338
17807W        W86212   5.269  12.875  12.878
17808W        W86213  15.782   5.678  12.636
17809W        W86214  44.513  17.569   0.356
17810W        W86215  31.192  30.944  14.372
17811W        W86216   8.527  32.095  12.852
17812W        W86217  41.288  31.163  11.466
17813W        W86218  41.075  32.241   0.254
17814W        W86219  14.882  20.911  12.523
17815W        W86220  41.881  31.775   4.729
17816W        W86221  27.772  42.639  14.475
17817W        W86222   8.578  27.448   4.542
17818W        W86223  21.268  11.319  11.943
17819W        W86224  31.690  12.677   1.885
17820W        W86225  28.190   5.752   4.672
17821W        W86226   8.927  15.573  11.965
17822W        W86227  33.635  30.040   2.816
17823W        W86228  22.722   1.927   4.835
17824W        W86229  14.276  42.253   1.270
17825W        W86230  22.975  34.519   2.189
17826W        W86231  29.466   7.938   2.785
17827W        W86232  43.169  15.879   5.083
17828W        W86233   4.634  33.406   3.377
17829W        W86234  11.514  21.693   1.940
17830W        W86235  41.733  12.607  14.765
17831W        W86236   4.941  38.345   4.599
17832W        W86237  38.275  10.182   2.651
17833W        W86238  22.144  36.238   1.300
17834W        W86239  36.795   0.228   1.363
17835W        W86240  15.232  41.994   0.539
17836W        W86241  40.104  41.577   1.268
17837W        W86242  16.855   6.823   2.909
17838W        W86243  44.974  44.486   2.477
17839W        W86244  44.835  28.915  12.360
17840W        W86245  36.646   9.925  12.474
17841W        W86246  32.396  39.064   2.694
17842W        W86247   8.780   1.385   2.443
17843W        W86248  31.545  30.905  13.955
17844W        W86249  38.002  17.624   4.540
17845W        W86250   3.138  37.607   4.218
17846W        W86251  16.466  25.422   0.058
17847W        W86252  31.185  27.454   0.780
17848W        W86253  43.034  19.213  11.999
17849W        W86254   6.206   6.409  13.865
17850W        W86255  35.631   0.412   3.635
17851W        W86256  33.525  22.993   4.941
17852W        W86257  17.084  37.123   5.021
17853W        W86258  33.846  19.889   0.526
17854W        W86259  14.842  32.265   0.995
17855W        W86260  30.543   6.048  14.592
17856W        W86261  20.363  39.519   1.487
17857W        W86262  34.439  43.019   0.549
17858W        W86263  23.748  29.228  13.864
17859W        W86264  21.538  15.989  11.589
17860W        W86265  32.520  10.133  14.509
17861W        W86266  30.018   6.904  10.596
17862W        W86267  38.117   1.839  12.774
17863W        W86268   3.992  42.434  12.582
17864W        W86269  19.499  37.871  13.445
17865W        W86270  17.164   9.801  11.315
17866W        W86271  16.812  32.046  11.200
17867W        W86272   2.818  26.361   3.101
17868W        W86273  14.249  23.398  12.283
17869W        W86274  38.596  31.585  13.343
17870W        W86275   5.657  21.636   1.978
17871W        W86276  14.831  15.898   5.333
17872W        W86277   0.634  33.088  10.137
17873W        W86278  26.743  23.618   1.698
17874W        W86279   3.075  42.779   2.328
17875W        W86280  11.385  22.092   3.183
17876W        W86281  34.795  36.155   5.030
17877W        W86282  21.280   4.184  13.037
17878W        W86283  11.459  35.422   1.324
17879W        W86284  32.601  24.282   2.441
17880W        W86285  25.486  37.975   4.049
17881W        W86286   8.982   8.935   3.294
17882W        W86287   8.712  21.729  14.014
17883W        W86288  44.432  44.947  11.708
17884W        W86289  26.987   2.115   0.127
17885W        W86290  22.130  12.083  14.302
17886W        W86291   8.792  41.260  13.052
17887W        W86292  37.321  38.217  11.133
17888W        W86293  25.993  25.483  12.863
17889W        W86294  39.886  28.475   0.364
17890W        W86295  24.132  30.226  12.029
17891W        W86296   6.464  32.545  11.684
17892W        W86297  17.635   3.520   2.229
17893W        W86298   4.868  20.867   4.145
17894W        W86299  29.224  24.606  12.936
17895W        W86300   5.795  29.713  13.516
17896W        W86301   3.230  17.750   4.706
17897W        W86302  13.981   3.338   4.744
17898W        W86303  26.469  22.616   0.836
17899W        W86304  25.319  23.159  11.833
17900W        W86305  13.183   5.887  14.285
17901W        W86306  26.505  11.742   1.471
17902W        W86307  32.543  42.084  14.848
17903W        W86308   6.629  10.431  12.880
17904W        W86309  10.893  43.834  10.950
17905W        W86310  20.973   3.222  11.399
17906W        W86311   9.411   9.597   3.064
17907W        W86312  10.560  15.763  14.875
17908W        W86313  35.057  23.089   2.829
17909W        W86314  10.976  25.415   3.432
17910W        W86315  44.444  33.623  11.599
17911W        W86316  24.474  32.955   2.433
17912W        W86317  38.053  17.264   0.353
17913W        W86318   6.757  15.165   3.750
17914W        W86319   9.704  32.169  13.496
17915W        W86320   0.526  32.510  14.933
17916W        W86321   9.407  16.125   0.842
17917W        W86322  17.106  41.044   2.962
17918W        W86323  10.407   4.512  11.557
17919W        W86324   6.727  43.815   2.163
17920W        W86325  23.681  12.650   0.114
17921W        W86326  36.109  27.437  14.373
17922W        W86327  10.870  23.958   3.009
17923W        W86328   7.830   9.334  11.583
17924W        W86329  11.269  33.828   0.685
17925W        W86330  21.112  11.343   2.332
17926W        W86331  31.249  30.502   0.963
17927W        W86332   3.439   7.108  13.913
17928W        W86333  14.969  38.985  14.891
17929W        W86334  42.746  38.035   2.566
17930W        W86335   5.912  16.794   3.725
17931W        W86336  30.093   0.294  14.407
17932W        W86337  31.073  24.759   0.867
17933W        W86338  34.801  10.661  10.618
17934W        W86339   1.627  11.647  12.923
17935W        W86340  25.120  40.597   0.820
17936W        W86341  37.667  25.158   2.009
17937W        W86342  29.395  11.762  11.025
17938W        W86343  13.208  25.433   1.313
17939W        W86344  18.750   1.478   1.419
17940W        W86345  22.724  36.139   9.967
17941W        W86346  30.000  13.181   4.866
17942W        W86347   0.215   0.651   2.855
17943W        W86348  10.256   9.251   3.283
17944W        W86349  15.393  38.745   1.343
17945W        W86350  14.666  20.217   3.835
17946W        W86351  14.862   6.821  11.983
17947W        W86352  21.656  34.865   2.744
17948W        W86353   7.423   1.740  12.153
17949W        W86354   6.981   3.884  14.367
17950W        W86355  14.706  32.031  12.165
17951W        W86356  38.546  33.074  14.925
17952W        W86357  29.614  21.919   4.155
17953W        W86358  21.954  19.256  12.907
17954W        W86359   0.411  25.716  13.597
17955W        W86360  23.478  10.245   3.631
17956W        W86361   7.869  42.507   4.318
17957W        W86362  22.011  40.828  14.519
17958W        W86363  18.539  23.579   4.116
17959W        W86364   7.366  20.040   3.220
17960W        W86365   2.703  13.183  14.333
17961W        W86366  41.000  40.393  14.112
17962W        W86367  32.483  20.960  10.956
17963W        W86368  28.847  35.844  11.788
17964W        W86369   3.181  40.505   2.609
17965W        W86370  24.754   9.343  10.420
17966W        W86371  12.038  32.013   4.156
17967W        W86372  21.250  21.067  14.294
17968W        W86373  23.327  17.002  10.761
17969W        W86374  36.315  35.422  13.373
17970W        W86375  39.444  40.293   2.758
17971W        W86376  23.279  24.211   3.182
17972W        W86377  19.236  37.434   4.116
17973W        W86378   2.468  11.071   1.649
17974W        W86379  14.661  16.631  11.560
17975W        W86380  29.714   3.534  11.050
17976W        W86381  26.542  31.093   1.787
17977W        W86382  38.909  38.321   1.340
17978W        W86383  18.215  26.008  14.816
17979W        W86384  14.719   4.729   1.189
17980W        W86385   4.448  31.400   1.478
17981W        W86386   2.830  27.872  10.660
17982W        W86387  11.458  38.782   0.413
17983W        W86388  29.159  39.409   4.115
17984W        W86389  23.033   2.325   2.791
17985W        W86390  38.945  19.103   0.667
17986W        W86391  24.048  29.104   4.105
17987W        W86392  18.028  39.576  14.069
17988W        W86393  32.093  22.633  10.701
17989W        W86394  32.046  32.021   1.386
17990W        W86395  34.553   5.810   2.841
17991W        W86396   0.301   6.882  11.616
17992W        W86397  16.174  38.955   1.357
17993W        W86398   7.627  37.218   5.221
17994W        W86399  31.645  20.772   1.442
17995W        W86400  25.529  22.872  12.177
17996W        W86401  23.753  41.243   3.732
17997W        W86402   2.495  13.992   4.220
17998W        W86403  25.899  21.714  12.919
17999W        W86404  12.688  23.337  12.085
18000W        W86405  25.561  42.411   1.158
18001W        W86406  41.403  37.049   0.177
18002W        W86407  27.346  23.134   0.752
18003W        W86408  32.738   1.254   1.735
18004W        W86409  40.424  36.537  12.568
18005W        W86410  30.568   6.039   2.989
18006W        W86411  34.991   4.317  13.394
18007W        W86412   4.402  10.418  12.440
18008W        W86413  10.266   8.184   3.405
18009W        W86414   4.934  38.053   2.347
18010W        W86415   3.258  34.869   4.516
18011W        W86416  16.972  39.440  14.970
18012W        W86417  37.634  19.058   1.249
18013W        W86418   6.509  39.000  13.018
18014W        W86419  31.494   8.412  11.527
18015W        W86420  13.393  15.419  12.940
18016W        W86421  40.887  30.038  12.887
18017W        W86422  43.735  28.538  14.730
18018W        W86423  25.087   4.133  13.011
18019W        W86424  33.885  30.952   1.595
18020W        W86425  10.699  36.106   5.053
18021W        W86426  42.614   1.511   4.161
18022W        W86427  19.213  23.270   0.300
18023W        W86428  37.196   0.269   3.577
18024W        W86429  42.444  10.364  14.352
18025W        W86430   3.687   2.809   4.667
18026W        W86431  40.209  34.127   3.203
18027W        W86432  42.925   6.737  14.324
18028W        W86433   4.913   4.033  12.255
18029W        W86434  10.406  26.313   4.633
18030W        W86435  27.524  30.825  11.057
18031W        W86436  43.961   9.764   4.566
18032W        W86437   7.954  40.564  13.940
18033W        W86438  21.733  12.411   3.255
18034W        W86439  25.469  31.561   1.244
18035W        W86440  40.978   4.412   2.301
18036W        W86441  37.547  36.823  14.383
18037W        W86442   2.419  39.437  12.626
18038W        W86443  40.935  20.019   0.388
18039W        W86444  14.022  41.682  13.901
18040W        W86445   5.616   5.998   9.637
18041W        W86446  37.729   1.838   2.975
18042W        W86447  42.872   6.891   0.943
18043W        W86448  28.686  27.796   4.945
18044W        W86449  23.839   6.229   4.617
18045W        W86450  34.507  19.769  11.879
18046W        W86451  16.625  22.139   3.629
18047W        W86452  18.784  14.246  13.348
18048W        W86453   7.145  21.539  11.620
18049W        W86454  27.340  25.016  14.772
18050W        W86455   3.027  41.529   3.682
18051W        W86456  32.317  31.131  12.105
18052W        W86457  22.601  30.882   3.341
18053W        W86458   6.356  29.809  12.438
18054W        W86459  14.622  44.389  12.374
18055W        W86460  32.158  25.485   0.767
18056W        W86461   0.966  31.902   1.005
18057W        W86462  21.630  19.482  13.282
18058W        W86463  26.997   1.373  11.956
18059W        W86464   3.162  33.546  11.697
18060W        W86465  27.595  44.930   3.759
18061W        W86466   7.700  41.812  13.354
18062W        W86467  37.404  19.063   3.646
18063W        W86468  34.487  27.672  10.725
18064W        W86469  21.444  34.364   0.022
18065W        W86470   4.953  13.285   3.738
18066W        W86471   1.735   2.364   2.308
18067W        W86472  24.019  42.976  11.515
18068W        W86473   4.849  42.813  13.871
18069W        W86474  43.921  21.084  10.538
18070W        W86475  17.096  26.147   2.208
18071W        W86476  39.691   3.469   0.861
18072W        W86477  19.148  36.011   1.670
18073W        W86478  12.441  40.818   3.298
18074W        W86479   3.354  42.812  13.120
18075W        W86480   2.873  33.378  10.903
18076W        W86481  15.149  22.032   1.023
18077W        W86482  16.548  28.231   2.171
18078W        W86483  28.737  12.160  14.858
18079W        W86484  38.442  29.685  12.836
18080W        W86485  32.265   3.825  13.386
18081W        W86486  37.395  13.665  11.688
18082W        W86487  44.405   2.868  12.415
18083W        W86488  32.015  17.076   3.174
18084W        W86489   1.597   5.517   1.165
18085W        W86490  18.621  40.333   1.838
18086W        W86491  29.340  38.387  13.027
18087W        W86492   3.851  25.788   0.208
18088W        W86493  44.480  15.538   3.828
18089W        W86494  30.287  10.746   0.477
18090W        W86495  36.516  26.428   1.975
18091W        W86496  34.533  34.863   2.261
18092W        W86497  31.952   8.262   0.494
18093W        W86498  44.819  29.093  13.328
18094W        W86499   6.622   2.769  14.761
18095W        W86500  33.138  30.577   3.242
18096W        W86501  40.522  39.166   3.138
18097W        W86502   9.879  11.907  13.418
18098W        W86503   5.534  33.669   0.007
18099W        W86504  34.012   1.525  14.549
18100W        W86505  25.028  18.734  14.872
18101W        W86506  12.559  28.636  10.308
18102W        W86507  31.225  39.291   0.823
18103W        W86508  25.544  24.480  10.604
18104W        W86509  39.353   8.845  14.314
18105W        W86510  14.922   2.786  10.348
18106W        W86511   6.819  15.330  10.661
18107W        W86512  11.160  26.454   2.906
18108W        W86513   6.693  19.532  14.925
18109W        W86514  13.704   8.427   1.318
18110W        W86515  10.679   9.467  12.984
18111W        W86516  22.013  13.668  12.108
18112W        W86517  22.428  17.817   4.231
18113W        W86518  11.206   2.660   1.325
18114W        W86519  21.135   5.878   4.413
18115W        W86520  36.993   9.573  11.718
18116W        W86521  37.533  23.813  11.180
18117W        W86522   4.496  36.953  11.574
18118W        W86523   7.858  12.514  12.875
18119W        W86524   8.604  39.796  14.016
18120W        W86525  19.953  35.888   4.504
18121W        W86526  35.056  40.619  13.294
18122W        W86527  31.086  44.425   3.625
18123W        W86528  33.330  31.011   0.664
18124W        W86529   7.146  13.829   4.931
18125W        W86530   6.801  25.712  14.191
18126W        W86531  30.864  29.351   5.099
18127W        W86532  34.881   1.841  12.087
18128W        W86533  40.123  14.711   4.186
18129W        W86534  33.683  14.190  10.751
18130W        W86535  15.298  42.571  13.386
18131W        W86536  33.791  42.896   3.535
18132W        W86537  12.744  18.655   4.640
18133W        W86538  13.765   6.943  13.867
18134W        W86539  28.143  39.769  12.417
18135W        W86540  25.159  30.338  13.521
18136W        W86541   5.326   7.393   2.757
18137W        W86542  33.512  19.195  13.893
18138W        W86543  36.560  33.133   2.307
18139W        W86544  10.376  38.413   3.368
18140W        W86545   2.184  35.056   3.708
18141W        W86546   5.480  22.998   1.777
18142W        W86547  11.904  36.362  12.125
18143W        W86548   6.243  32.110  12.456
18144W        W86549   6.341  44.795  12.926
18145W        W86550  29.177   3.253  13.923
18146W        W86551  11.363   8.417  12.481
18147W        W86552   1.904  18.717  11.825
18148W        W86553   8.934  32.977  12.452
18149W        W86554  28.438  19.708   4.603
18150W        W86555  14.783  36.823   2.267
18151W        W86556  17.522  41.997   4.707
18152W        W86557  32.002  41.085   1.901
18153W        W86558  10.312  16.789  11.189
18154W        W86559  29.531  39.841   1.202
18155W        W86560  19.149  19.735  10.591
18156W        W86561   9.786  42.799  12.939
18157W        W86562  19.257  14.807   3.219
18158W        W86563  40.464  10.850  14.934
18159W        W86564   1.423  32.029   1.878
18160W        W86565   5.560   7.890  10.009
18161W        W86566  24.183  35.976   0.814
18162W        W86567   0.330  34.093  14.895
18163W        W86568   0.826  17.763   1.846
18164W        W86569   5.316  36.142  14.411
18165W        W86570  19.295  28.635  13.126
18166W        W86571  20.613  16.136   0.799
18167W        W86572  11.720  29.883  13.609
18168W        W86573  18.280   2.659   3.332
18169W        W86574  30.408  18.691  10.981
18170W        W86575   3.290   6.396  14.438
18171W        W86576  23.253   4.653   1.199
18172W        W86577  13.311  17.620   0.088
18173W        W86578  19.521   6.610   0.933
18174W        W86579  16.196  10.937   3.078
18175W        W86580  28.571  23.541   0.438
18176W        W86581  41.734  28.709   1.773
18177W        W86582  11.079   0.811   3.674
18178W        W86583   5.818  16.839   1.226
18179W        W86584  14.224  13.588   0.791
18180W        W86585   4.504  43.075   2.331
18181W        W86586  29.566  38.459  13.866
18182W        W86587  11.562  34.369  14.222
18183W        W86588  27.867  40.920   2.429
18184W        W86589  40.774  28.482  10.910
18185W        W86590  21.230  14.885   1.289
18186W        W86591   9.411  22.329  11.632
18187W        W86592  22.223   8.346  13.536
18188W        W86593   6.712  33.165   0.230
18189W        W86594  26.130  16.259   1.934
18190W        W86595  19.105  22.723  13.415
18191W        W86596  32.082  14.736   3.761
18192W        W86597  28.608  10.095  11.461
18193W        W86598   7.600  24.522   2.837
18194W        W86599  14.678  34.467   0.821
18195W        W86600  26.885  39.356  14.896
18196W        W86601  23.274  12.692   3.729
18197W        W86602  43.337  40.042  11.084
18198W        W86603  10.597   3.063   0.762
18199W        W86604  32.258  19.988   4.549
18200W        W86605  43.967   1.723  12.913
18201W        W86606  44.307  28.206  13.373
18202W        W86607  19.538  33.901  13.207
18203W        W86608   4.384   1.198   0.473
18204W        W86609   2.883  15.863   2.409
18205W        W86610   3.459  30.907  11.052
18206W        W86611  10.302  23.080   2.784
18207W        W86612  19.084  44.882   2.471
18208W        W86613   9.272  22.525  10.724
18209W        W86614   3.888   7.983  12.422
18210W        W86615  43.038  33.048   1.296
18211W        W86616  37.889   4.883  13.780
18212W        W86617  16.843  43.817   2.812
18213W        W86618  41.917  36.640  13.416
18214W        W86619  16.579   3.004  12.876
18215W        W86620   6.864   5.815  12.489
18216W        W86621  21.215  36.525   4.627
18217W        W86622  21.986   8.361  11.247
18218W        W86623  34.107  26.365   2.715
18219W        W86624  39.216  22.669   2.825
18220W        W86625   8.081  14.288   2.608
18221W        W86626  24.723  29.626  10.563
18222W        W86627  18.987   0.431  11.725
18223W        W86628  29.320  15.754  11.929
18224W        W86629  16.106  10.751   1.686
18225W        W86630  30.146  26.963   4.086
18226W        W86631  17.155  20.011   3.998
18227W        W86632  19.633  44.641  12.471
18228W        W86633   0.968  11.927   3.620
18229W        W86634  40.193  26.127   4.563
18230W        W86635   5.207  33.389   2.318
18231W        W86636   3.209  21.215   2.680
18232W        W86637   2.898  18.669   1.774
18233W        W86638  39.857  17.190   2.160
18234W        W86639  36.579  27.404  10.752
18235W        W86640  35.218  41.453   5.019
18236W        W86641  12.241   6.200  14.214
18237W        W86642  14.532   9.228   0.854
18238W        W86643   0.357  24.505  13.552
18239W        W86644  39.445   2.807  14.767
18240W        W86645   5.638   1.495   0.050
18241W        W86646  37.086  33.919  11.573
18242W        W86647  14.830  34.127   3.133
18243W        W86648  30.087  37.976   3.378
18244W        W86649  30.280  12.596   0.194
18245W        W86650  44.902  20.386  14.612
18246W        W86651  19.069   4.508   3.458
18247W        W86652  25.603  36.167   1.341
18248W        W86653  30.622  19.700  12.352
18249W        W86654  25.222  33.058   3.027
18250W        W86655  19.978  32.629  12.102
18251W        W86656  43.816   1.291  13.749
18252W        W86657   3.907   6.469   2.291
18253W        W86658  36.944   6.373   2.856
18254W        W86659  41.803  30.533  13.766
18255W        W86660   9.879  12.312   3.047
18256W        W86661  28.432  34.942   1.838
18257W        W86662  32.153  13.070  13.383
18258W        W86663  32.922  11.087   1.248
18259W        W86664  15.767  31.967  14.867
18260W        W86665  27.364  35.825   1.611
18261W        W86666  36.399   0.281   4.093
18262W        W86667  29.123  38.841   0.289
18263W        W86668  36.368  19.860   1.892
18264W        W86669  32.353  43.870   3.865
18265W        W86670  12.626  15.103  11.637
18266W        W86671  44.377  33.901   1.998
18267W        W86672  13.558   1.538  10.455
18268W        W86673  29.667  39.556  13.953
18269W        W86674  28.580  28.109  11.081
18270W        W86675  39.107   0.472   0.296
18271W        W86676  36.798   9.334   3.622
18272W        W86677  20.593  21.989  14.110
18273W        W86678   1.853  17.245   1.326
18274W        W86679  25.375  40.416  10.729
18275W        W86680   0.406  37.664  12.568
18276W        W86681   9.862  34.056  14.052
18277W        W86682  17.329  44.750  12.076
18278W        W86683  36.893  15.668  14.359
18279W        W86684  10.328  28.588   1.480
18280W        W86685  10.887  33.204  11.638
18281W        W86686   0.606  26.623  11.076
18282W        W86687  30.176  30.281  13.348
18283W        W86688  41.492  29.459  13.421
18284W        W86689  36.206   4.845  12.587
18285W        W86690  36.941  11.729   3.364
18286W        W86691  40.770  21.241  13.921
18287W        W86692  15.143  29.562   2.404
18288W        W86693   1.504  19.276  13.986
18289W        W86694  16.770  19.240  14.739
18290W        W86695   8.441  22.624  12.069
18291W        W86696  11.925  41.962  11.388
18292W        W86697  15.667   4.423   3.173
18293W        W86698  34.861   6.452  11.499
18294W        W86699  20.341   9.199   2.064
18295W        W86700  43.983  27.941  14.894
18296W        W86701   4.878  19.803   0.805
18297W        W86702   4.370  32.068  11.726
18298W        W86703  41.126   7.382   3.378
18299W        W86704   2.307  15.401  14.777
18300W        W86705  10.764  35.400   1.410
18301W        W86706  25.024   8.147  14.927
18302W        W86707  21.151  27.962   3.653
18303W        W86708  28.472  41.245   3.204
18304W        W86709   5.719  22.025   0.402
18305W        W86710  36.931   8.310   1.196
18306W        W86711   8.143   9.907   2.357
18307W        W86712  19.330  23.991  14.318
18308W        W86713  37.470  26.795  13.099
18309W        W86714  36.615  32.934  14.146
18310W        W86715  18.557  13.695   0.427
18311W        W86716  20.619  21.894  10.397
18312W        W86717   4.408  42.015   1.968
18313W        W86718  13.279  13.876  11.313
18314W        W86719   4.357  22.302   0.849
18315W        W86720  19.794  12.430   1.304
18316W        W86721   7.297  20.299  12.233
18317W        W86722  17.568  21.527  11.753
18318W        W86723  27.949  42.397  13.681
18319W        W86724  14.392   3.408   3.811
18320W        W86725  23.704  21.926  11.567
18321W        W86726  12.781   6.145  12.448
18322W        W86727  17.956  24.148  14.877
18323W        W86728  18.202   4.053  10.861
18324W        W86729  20.375  36.821   1.238
18325W        W86730  19.243  22.677  12.545
18326W        W86731  43.794  23.009   2.145
18327W        W86732  10.132  41.550   1.216
18328W        W86733  39.336  19.818   0.382
18329W        W86734  32.160  41.817  14.240
18330W        W86735   3.742  19.614   3.021
18331W        W86736  24.739   5.434   3.249
18332W        W86737  20.227  32.188  12.107
18333W        W86738   0.222  10.111  10.974
18334W        W86739  20.307  32.101  11.613
18335W        W86740   7.344  25.624   0.450
18336W        W86741  12.577  41.150  13.814
18337W        W86742  41.592  11.275   2.812
18338W        W86743  34.008   0.093   0.340
18339W        W86744  15.773   4.704   2.626
18340W        W86745  12.697   4.308   0.781
18341W        W86746  27.084  12.194   3.295
18342W        W86747  20.315  27.388   2.802
18343W        W86748   3.088   3.790   5.322
18344W        W86749  27.055  37.251  13.303
18345W        W86750  32.909  25.947  13.655
18346W        W86751  15.339  43.872   0.755
18347W        W86752  27.673  35.456  13.632
18348W        W86753  22.874   5.808  13.771
18349W        W86754  29.276  27.999  14.321
18350W        W86755  31.193  15.757   2.322
18351W        W86756  40.976  41.879   4.551
18352W        W86757   9.202  13.394  14.388
18353W        W86758  25.064  13.779  12.963
18354W        W86759  10.259  29.532  12.676
18355W        W86760  35.451  17.075  14.862
18356W        W86761  38.197  28.375  11.879
18357W        W86762   1.695  42.372   0.842
18358W        W86763  41.647  34.919  10.793
18359W        W86764   2.886  42.278   3.567
18360W        W86765  12.733  23.454   1.927
18361W        W86766  42.310  14.278   3.456
18362W        W86767   2.416  24.308   4.602
18363W        W86768   6.326  18.113   2.930
18364W        W86769  16.115  10.333  11.347
18365W        W86770  44.625   4.439  11.676
18366W        W86771   7.373   7.657  12.575
18367W        W86772  36.832  13.718  10.767
18368W        W86773   9.342  10.957   0.794
18369W        W86774  24.261  17.554  11.960
18370W        W86775  33.616   1.764  14.326
18371W        W86776  18.514  12.769  13.798
18372W        W86777  15.270  16.457  13.709
18373W        W86778  10.815  35.981  10.812
18374W        W86779   9.385  32.572  14.168
18375W        W86780  13.827  35.568   4.660
18376W        W86781  14.522   6.240  10.497
18377W        W86782  11.122  41.721   2.779
18378W        W86783  38.488  20.481   2.682
18379W        W86784  13.211  25.923   0.083
18380W        W86785  17.868  15.643   4.595
18381W        W86786   2.166  36.739   2.352
18382W        W86787  32.096  39.483   2.594
18383W        W86788  28.347   2.853  11.347
18384W        W86789  34.826  12.733  10.304
18385W        W86790   8.833  32.618   3.326
18386W        W86791  26.038  35.247  12.248
18387W        W86792  26.133  41.191  11.614
18388W        W86793  29.071  16.723   0.558
18389W        W86794  27.505  29.231   3.936
18390W        W86795   6.126   2.437   3.065
18391W        W86796  32.403  11.273  12.614
18392W        W86797  42.771  16.173   0.639
18393W        W86798  30.366  26.718  11.639
18394W        W86799  44.938  27.646   4.183
18395W        W86800  24.670   1.989  11.179
18396W        W86801  10.738  29.873  13.801
18397W        W86802   0.725  30.762   1.864
18398W        W86803  38.425   8.373  13.501
18399W        W86804  27.589  14.927  14.922
18400W        W86805  23.297  44.427  10.688
18401W        W86806  27.574   9.700  10.875
18402W        W86807   0.828   4.512   2.172
18403W        W86808   8.712  21.930   1.772
18404W        W86809  25.626  37.377   1.852
18405W        W86810   3.747  17.324  14.011
18406W        W86811   0.750  17.640  13.782
18407W        W86812  39.794  18.631   3.147
18408W        W86813   6.802  17.865  11.615
18409W        W86814  17.784  14.710   4.314
18410W        W86815  22.037  20.115  13.971
18411W        W86816  16.757   6.157   4.732
18412W        W86817  24.687   6.806   1.786
18413W        W86818  34.340  28.186   0.263
18414W        W86819  20.627  20.730  12.736
18415W        W86820  33.442   6.772   3.887
18416W        W86821  42.993  43.190  11.369
18417W        W86822  24.026  43.466  14.462
18418W        W86823   8.867  10.055   0.407
18419W        W86824  30.462   1.787  11.251
18420W        W86825  15.666  28.526   4.860
18421W        W86826  18.812  36.051  14.156
18422W        W86827  40.872  20.240   3.135
18423W        W86828  31.899  32.079   2.600
18424W        W86829   8.132   3.901   3.324
18425W        W86830  15.440  16.642   0.599
18426W        W86831  29.791  33.868   4.096
18427W        W86832  16.669  30.594   4.250
18428W        W86833  19.192  30.893   3.243
18429W        W86834  39.384  30.999  12.020
18430W        W86835  43.911  24.587   4.712
18431W        W86836  35.696  39.137   3.856
18432W        W86837   2.492  17.141  13.526
18433W        W86838   1.995  32.081   0.841
18434W        W86839  16.871   6.246   5.249
18435W        W86840   1.659   6.364  12.858
18436W        W86841  35.520  12.478  12.972
18437W        W86842  32.539  25.068   3.934
18438W        W86843   4.089  18.678  11.850
18439W        W86844   5.289  11.397   2.709
18440W        W86845   5.328  24.958   3.766
18441W        W86846   2.897  22.154   2.723
18442W        W86847  25.948  39.426   1.295
18443W        W86848  26.929  24.170  12.073
18444W        W86849  26.436  24.265  13.321
18445W        W86850  40.076  32.124   0.217
18446W        W86851   1.756  32.273   1.549
18447W        W86852  43.525  18.330  14.875
18448W        W86853  18.153   7.889  11.383
18449W        W86854   0.192  36.786  13.786
18450W        W86855  36.956   3.357   1.675
18451W        W86856  17.806  22.216   0.288
18452W        W86857  42.541  32.061   4.464
18453W        W86858  18.074  30.924   3.294
18454W        W86859   7.118   3.905   2.360
18455W        W86860   0.760   9.756  12.038
18456W        W86861  35.172  20.123   1.619
18457W        W86862  31.542  14.819  11.526
18458W        W86863  40.818   7.623  12.036
18459W        W86864  17.534  35.555   1.821
18460W        W86865  12.244   6.469   1.839
18461W        W86866   2.742  29.491  13.525
18462W        W86867  42.706   3.853   0.746
18463W        W86868  28.612   1.293   2.995
18464W        W86869  21.079   5.506   1.013
18465W        W86870  24.135  21.056   4.204
18466W        W86871  42.713  26.774  13.955
18467W        W86872  44.417  40.814   0.397
18468W        W86873  15.474  10.256  14.765
18469W        W86874  22.036   1.312   3.377
18470W        W86875  29.426  31.838   4.128
18471W        W86876  22.766  18.152  10.292
18472W        W86877  37.402  12.123   0.248
18473W        W86878  14.867  18.217   3.431
18474W        W86879  29.641  18.014   3.452
18475W        W86880  22.099   1.413  13.358
18476W        W86881  16.475  40.424  11.089
18477W        W86882  28.955  34.131   1.949
18478W        W86883  41.586   8.858   3.246
18479W        W86884   3.377  39.947  11.568
18480W        W86885  27.730  25.975   3.694
18481W        W86886  17.147  25.640   3.827
18482W        W86887   5.768  34.064  13.322
18483W        W86888   0.641  36.954   4.489
18484W        W86889  39.346  17.430   4.876
18485W        W86890  40.926   2.988   0.912
18486W        W86891  36.930  11.033  14.450
18487W        W86892  15.031  30.171   0.165
18488W        W86893   0.012  26.353   0.248
18489W        W86894  17.861  19.296  11.875
18490W        W86895  41.796  10.255  10.670
18491W        W86896   4.619  35.244  10.193
18492W        W86897  13.331  40.998   1.255
18493W        W86898  11.732  17.748  12.350
18494W        W86899  23.433  16.506   3.333
18495W        W86900  24.451   4.996   3.245
18496W        W86901  39.950  33.553  11.485
18497W        W86902  37.326  38.440   2.819
18498W        W86903  27.479  30.094   4.210
18499W        W86904  35.487  36.897   2.374
18500W        W86905   2.971  34.192  13.001
18501W        W86906  14.243  25.663   0.862
18502W        W86907  34.758  28.487   0.414
18503W        W86908  41.943  11.390  12.904
18504W        W86909  38.472   1.158  13.364
18505W        W86910  27.776  16.784   3.222
18506W        W86911  43.656  31.886  10.263
18507W        W86912  36.757  29.425   3.443
18508W        W86913  34.526  17.965  12.998
18509W        W86914  23.519  11.840   4.154
18510W        W86915  31.442  10.623   3.583
18511W        W86916   0.423  25.748   0.031
18512W        W86917  44.498  42.874  12.448
18513W        W86918  34.926  11.257  13.748
18514W        W86919  30.464  30.417   0.504
18515W        W86920  38.843  12.815   1.224
18516W        W86921  35.576  13.588  12.493
18517W        W86922  20.571  13.381   1.376
18518W        W86923  14.729  22.244   3.305
18519W        W86924  20.915   0.301   3.697
18520W        W86925  29.507  29.388  14.016
18521W        W86926   9.602  27.535   1.239
18522W        W86927  44.206  44.485  13.982
18523W        W86928   7.338  32.977  13.470
18524W        W86929  12.554  11.775  13.162
18525W        W86930  18.238  17.523  14.985
18526W        W86931  26.574  28.560  12.623
18527W        W86932  24.949  32.958   1.442
18528W        W86933  21.337  27.585   4.397
18529W        W86934  22.152  23.767   3.705
18530W        W86935  19.044   4.762  14.340
18531W        W86936   3.494  26.920   1.454
18532W        W86937  22.256   8.750  13.848
18533W        W86938  21.929   0.058  11.149
18534W        W86939   8.458  28.903   2.596
18535W        W86940  43.572  10.852   0.432
18536W        W86941  35.870   6.500  10.034
18537W        W86942   9.664   0.339   2.411
18538W        W86943  18.730   0.452   3.722
18539W        W86944  40.116  22.010   0.758
18540W        W86945  40.394   7.314   2.243
18541W        W86946  22.293  39.914   0.333
18542W        W86947  37.511  37.706   4.142
18543W        W86948  16.562  19.684   2.728
18544W        W86949   3.438  19.974  13.549
18545W        W86950  28.890  19.789  14.452
18546W        W86951  39.566  17.012   0.290
18547W        W86952  20.067  13.065  11.139
18548W        W86953   1.776  27.004   2.969
18549W        W86954  29.978  13.912  12.412
18550W        W86955  19.194   5.316   0.278
18551W        W86956   0.544  18.629   2.742
18552W        W86957   7.238  32.343  12.106
18553W        W86958  29.241  15.641   4.197
18554W        W86959  13.185  27.052   0.975
18555W        W86960  13.214   6.528   3.792
18556W        W86961  26.674  42.989  12.470
18557W        W86962  30.656  39.242   0.639
18558W        W86963  14.688   6.985  12.513
18559W        W86964   1.712  40.057  11.203
18560W        W86965   0.344  12.330  12.577
18561W        W86966  19.753  36.320  13.434
18562W        W86967  42.252  33.951   0.936
18563W        W86968  17.235  10.976   4.912
18564W        W86969  10.077  33.471  11.611
18565W        W86970  11.291  29.486   1.767
18566W        W86971  40.166  23.199   1.326
18567W        W86972  41.913  17.592   2.324
18568W        W86973  29.605  20.480  12.692
18569W        W86974  14.278  12.250  12.036
18570W        W86975   2.287  16.827  12.927
18571W        W86976  40.836  37.478  13.338
18572W        W86977   9.219  19.052  14.384
18573W        W86978  38.587  23.695  14.420
18574W        W86979  11.833  37.124  11.236
18575W        W86980  12.361  38.756  10.693
18576W        W86981  44.368  32.662  13.025
18577W        W86982  27.073  43.534  11.226
18578W        W86983   6.938  14.170   3.751
18579W        W86984   1.632  28.184   0.095
18580W        W86985  42.995  14.376   1.322
18581W        W86986  10.316  39.727   3.873
18582W        W86987  40.455   2.203   0.986
18583W        W86988  37.044  38.762   1.831
18584W        W86989  33.817  14.212   3.739
18585W        W86990  25.452   7.181   1.444
18586W        W86991  22.118  11.798   1.575
18587W        W86992  12.070  42.665   3.933
18588W        W86993  24.660   7.602   3.915
18589W        W86994  10.944  11.363   0.691
18590W        W86995  23.573  34.093   0.379
18591W        W86996  15.682  31.381  12.353
18592W        W86997  25.151  32.785  10.842
18593W        W86998  29.209  36.153  14.432
18594W        W86999  43.902  16.958   0.717
18595W        W87000  30.394   5.790  13.103
18596W        W87001  44.327  33.352   3.654
18597W        W87002   4.329  37.519  12.023
18598W        W87003   8.610  37.627   1.943
18599W        W87004   3.634   3.393   1.714
18600W        W87005  21.239   8.372  13.847
18601W        W87006  44.696  32.998  13.366
18602W        W87007  23.638  16.134  10.758
18603W        W87008  41.383  24.645   2.665
18604W        W87009  35.512  11.162  14.425
18605W        W87010  42.739  23.166   3.672
18606W        W87011  20.024   1.714   1.789
18607W        W87012  16.718  13.538   2.061
18608W        W87013  29.519   2.736   4.160
18609W        W87014  20.322   8.949  13.407
18610W        W87015  16.777  24.308   2.884
18611W        W87016   3.229  38.359   4.614
18612W        W87017  21.667  16.126  12.506
18613W        W87018  35.454  25.666  12.183
18614W        W87019  43.349  43.930   2.684
18615W        W87020  30.607  24.003  12.613
18616W        W87021  34.332  39.835  11.403
18617W        W87022  27.257   8.762   1.205
18618W        W87023   5.217  41.508  10.735
18619W        W87024  35.151  31.911   2.810
18620W        W87025  19.368  14.596   1.597
18621W        W87026  26.723   1.313   3.965
18622W        W87027  25.873  12.149   2.496
18623W        W87028  12.265  42.502  14.260
18624W        W87029  34.068  28.626   2.104
18625W        W87030  30.734  11.142   3.672
18626W        W87031  35.506   2.021   5.053
18627W        W87032   7.983  23.506  10.940
18628W        W87033  10.903  18.293  10.403
18629W        W87034  37.397  22.681  10.479
18630W        W87035   1.287  18.353  10.694
18631W        W87036  24.105   8.388   0.732
18632W        W87037  37.067  22.956  12.508
18633W        W87038  27.002  41.560   5.001
18634W        W87039  22.514   6.954  10.691
18635W        W87040  12.343  16.968   4.887
18636W        W87041   4.425  15.738   0.359
18637W        W87042  16.706  14.285   3.773
18638W        W87043  23.328  32.516  14.980
18639W        W87044  43.700  14.175  12.075
18640W        W87045   5.320  21.475  11.774
18641W        W87046  37.916  16.830   0.621
18642W        W87047  17.586  44.471   1.332
18643W        W87048   1.218  28.124  14.804
18644W        W87049   2.935  16.482  14.204
18645W        W87050  42.894  41.801   1.334
18646W        W87051  32.509  38.277   4.300
18647W        W87052  38.024  21.869   4.589
18648W        W87053  23.607  41.384  11.958
18649W        W87054  35.042  27.886  12.942
18650W        W87055  20.058  13.683  10.280
18651W        W87056  21.234  29.076  12.016
18652W        W87057  20.610  36.976  12.345
18653W        W87058  11.081  10.142   0.795
18654W        W87059  29.897   0.664   1.217
18655W        W87060  19.018   9.270   2.026
18656W        W87061   2.760  38.328  11.289
18657W        W87062   1.432  24.239   0.241
18658W        W87063  38.541  17.912  10.659
18659W        W87064  36.846  28.879  14.028
18660W        W87065  17.432  36.999   1.865
18661W        W87066  15.927  37.827   2.812
18662W        W87067  22.771  19.404   5.000
18663W        W87068  35.679  42.765  12.300
18664W        W87069  43.097  36.500   4.828
18665W        W87070  34.676  13.371  14.694
18666W        W87071   2.279  25.230   2.331
18667W        W87072   6.726  28.609  11.516
18668W        W87073   0.845  39.858   0.290
18669W        W87074  29.123  17.005   4.127
18670W        W87075   6.660   1.486  12.581
18671W        W87076  32.807  16.394  12.378
18672W        W87077   9.605  38.882  14.880
18673W        W87078  33.900   4.353  10.965
18674W        W87079  27.049   5.832   3.365
18675W        W87080  42.571  20.441   2.908
18676W        W87081  31.967  30.533  10.716
18677W        W87082  31.556  42.596  10.805
18678W        W87083  13.766   0.889   1.099
18679W        W87084  44.358   2.344  12.385
18680W        W87085  28.152  34.628  11.956
18681W        W87086  17.187  37.883  10.903
18682W        W87087  34.500  19.785  14.855
18683W        W87088  24.969  35.850  12.279
18684W        W87089  19.303   5.506   4.626
18685W        W87090  27.229  18.309   4.583
18686W        W87091  13.037  14.032  10.880
18687W        W87092   9.684  38.642   2.143
18688W        W87093  18.682  26.241  14.950
18689W        W87094   5.765   6.816  13.025
18690W        W87095  14.235  13.353   4.583
18691W        W87096  27.037  32.988   0.937
18692W        W87097  26.980   4.518  14.507
18693W        W87098   4.018   8.474  12.497
18694W        W87099  13.183  44.926   5.413
18695W        W87100  38.786   5.546   3.921
18696W        W87101   8.126  22.254  11.243
18697W        W87102  40.912  24.420  11.966
18698W        W87103  13.504  40.690   4.132
18699W        W87104   4.393  40.743  11.267
18700W        W87105  20.466  44.614  11.721
18701W        W87106   7.384  17.661  12.391
18702W        W87107   6.194  42.542   1.788
18703W        W87108  28.030   3.756  14.751
18704W        W87109  34.464  26.601  10.825
18705W        W87110  16.267  42.264   3.616
18706W        W87111  26.430  21.110   2.820
18707W        W87112   7.720  31.887   4.643
18708W        W87113  32.353   3.274  14.098
18709W        W87114  21.769  10.247   2.512
18710W        W87115  10.234  37.321  13.636
18711W        W87116  21.049  29.584  11.966
18712W        W87117  23.053  10.916   2.740
18713W        W87118  30.737  22.071  11.751
18714W        W87119  15.940  17.486   1.560
18715W        W87120   8.536  10.628  10.475
18716W        W87121   5.218  29.548   2.862
18717W        W87122  30.053   4.876  14.951
18718W        W87123  12.866  16.884  11.464
18719W        W87124  27.480   4.330   1.157
18720W        W87125   1.254  11.592   0.849
18721W        W87126  27.885  28.665  13.845
18722W        W87127  24.639  32.220  14.709
18723W        W87128  34.124  24.655   0.351
18724W        W87129  42.543   4.695   2.971
18725W        W87130  24.629  13.358   3.293
18726W        W87131   1.782  20.156   2.110
18727W        W87132  41.769  36.998   1.211
18728W        W87133   8.782   6.788   1.277
18729W        W87134   4.792  11.611   2.777
18730W        W87135  36.580  18.719   3.756
18731W        W87136  37.040  14.775  14.096
18732W        W87137  31.656  43.557  10.838
18733W        W87138  10.783  35.516   4.126
18734W        W87139  31.508  44.869  11.166
18735W        W87140  37.317  40.993  10.943
18736W        W87141  36.927  33.344  10.734
18737W        W87142  31.397  12.575  14.322
18738W        W87143  42.749  40.792   3.730
18739W        W87144  13.365  17.664   1.904
18740W        W87145   9.587  25.010  13.906
18741W        W87146   7.970  44.563  14.624
18742W        W87147   4.881   5.961   2.348
18743W        W87148  16.215  17.573   3.198
18744W        W87149  19.514  43.352   3.257
18745W        W87150  25.426  27.232  12.604
18746W        W87151  11.091  17.650   3.012
18747W        W87152  24.938  16.787  11.887
18748W        W87153   9.065  32.161  12.873
18749W        W87154  43.302  41.172  13.553
18750W        W87155  16.722  16.215  12.522
18751W        W87156  18.659  30.965   0.939
18752W        W87157  23.576  41.550   2.655
18753W        W87158   9.757  39.455  11.935
18754W        W87159   6.235  33.162   3.212
18755W        W87160  38.589   7.799   3.257
18756W        W87161  15.207   3.018   4.851
18757W        W87162   1.997  14.105  14.847
18758W        W87163  15.714  15.183   4.127
18759W        W87164  12.973   1.474   3.940
18760W        W87165  27.451  42.220   0.515
18761W        W87166  17.675  43.349   1.370
18762W        W87167  44.280  27.493   2.241
18763W        W87168   9.497   0.035   4.942
18764W        W87169  12.585  22.179  10.428
18765W        W87170  21.122  44.397  14.270
18766W        W87171  11.376   4.873  12.556
18767W        W87172   2.680   9.702  11.109
18768W        W87173  11.199   5.414   2.777
18769W        W87174  17.318  33.483   2.330
18770W        W87175  14.287  33.672  11.651
18771W        W87176  32.439   6.624  12.555
18772W        W87177  16.091  36.588   1.469
18773W        W87178  19.623   3.198  10.809
18774W        W87179  31.931  37.428   0.803
18775W        W87180  28.654  42.780   3.291
18776W        W87181  32.571  32.666   0.031
18777W        W87182  18.201  31.446   4.354
18778W        W87183  32.387  20.342   2.294
18779W        W87184  16.979   8.653  11.506
18780W        W87185  25.694  33.643   2.356
18781W        W87186  22.701  10.171   5.062
18782W        W87187  44.324   9.123  12.072
18783W        W87188   5.963  20.162   2.177
18784W        W87189  10.727   5.363   1.183
18785W        W87190  38.213   5.508  10.273
18786W        W87191  21.424  40.535   4.995
18787W        W87192  11.487  37.318   4.015
18788W        W87193   6.616  11.266  11.106
18789W        W87194  35.429  29.572  11.626
18790W        W87195  25.044  42.424  11.490
18791W        W87196  27.176   6.450  14.381
18792W        W87197  16.253  20.141  11.128
18793W        W87198  36.015   6.227  12.111
18794W        W87199   1.398  26.997  11.171
18795W        W87200  30.830  11.355   1.247
18796W        W87201  41.574  28.247   4.579
18797W        W87202   7.213  14.611   3.638
18798W        W87203  20.980  35.408  10.869
18799W        W87204  35.801  18.692   4.039
18800W        W87205  41.769  42.201   3.179
18801W        W87206   9.337  32.922  13.404
18802W        W87207  12.862  37.611  12.031
18803W        W87208  20.354   8.671  12.103
18804W        W87209  12.643   4.439   4.133
18805W        W87210   7.046   2.505   3.418
18806W        W87211  36.144  13.602  13.941
18807W        W87212  21.644  35.355   0.532
18808W        W87213   5.215   9.855  13.891
18809W        W87214  28.966  26.197   4.735
18810W        W87215   0.248  31.918   4.309
18811W        W87216   7.500  10.342   1.776
18812W        W87217  15.080  18.422   1.779
18813W        W87218  41.719  37.240   3.098
18814W        W87219  14.234  29.105  10.666
18815W        W87220  21.464   4.382   2.123
18816W        W87221  18.573   6.897  10.597
18817W        W87222   3.759  23.029  14.434
18818W        W87223   2.748   5.112  14.376
18819W        W87224  28.062  14.579   3.770
18820W        W87225  36.920  16.505  13.880
18821W        W87226  15.823   1.933   5.162
18822W        W87227  11.077  11.784   0.407
18823W        W87228  38.005  33.909   2.762
18824W        W87229  42.735  17.296  13.144
18825W        W87230  24.457  35.122   3.721
18826W        W87231  25.193  19.864   4.021
18827W        W87232  27.182  35.545   0.431
18828W        W87233  42.038  19.544   2.648
18829W        W87234  29.428  32.804   3.331
18830W        W87235  11.355  19.530  14.414
18831W        W87236  24.960   1.339  14.775
18832W        W87237  29.674  36.119  12.502
18833W        W87238  44.847  20.064   3.588
18834W        W87239  15.669   8.113  11.311
18835W        W87240  12.702  21.991   0.829
18836W        W87241  27.999  25.631   1.952
18837W        W87242  33.671  37.404  10.722
18838W        W87243   6.304   6.834  13.574
18839W        W87244   9.773  11.760  11.416
18840W        W87245  14.486  43.509  12.209
18841W        W87246  20.556   6.497  14.787
18842W        W87247  39.027  36.691   4.859
18843W        W87248   4.532   9.170   4.193
18844W        W87249  15.688  20.953   2.306
18845W        W87250  17.697  10.272  13.476
18846W        W87251  25.851  39.885  11.452
18847W        W87252  42.330  14.478   2.209
18848W        W87253   8.460  15.672   2.283
18849W        W87254   5.338  41.553   4.498
18850W        W87255  23.219  10.712  11.368
18851W        W87256  10.087  16.488  13.402
18852W        W87257  11.621  37.203   1.480
18853W        W87258  39.472  39.465  14.681
18854W        W87259  38.747   1.042   0.006
18855W        W87260  42.079  33.106  12.459
18856W        W87261   8.915  26.516   2.160
18857W        W87262  30.035   1.148  10.688
18858W        W87263  34.954  31.410  10.716
18859W        W87264  37.871  24.655   1.612
18860W        W87265   2.999  14.545   4.454
18861W        W87266  32.463  11.937  14.759
18862W        W87267   2.575  15.750   5.003
18863W        W87268  39.816  19.587  12.255
18864W        W87269  23.143  38.745  13.932
18865W        W87270  37.635  35.163  13.442
18866W        W87271  35.316  41.807   3.500
18867W        W87272   0.221  41.348  14.015
18868W        W87273  28.651   4.032   4.048
18869W        W87274  16.783  15.245   2.807
18870W        W87275  38.014  31.079  10.676
18871W        W87276  20.416  41.389  14.662
18872W        W87277  36.244  33.669  10.250
18873W        W87278  25.595  37.160  11.243
18874W        W87279   4.258  25.476   2.727
18875W        W87280   9.505  31.948   3.700
18876W        W87281  17.192   3.479   0.916
18877W        W87282  29.630  10.252  12.364
18878W        W87283  21.215   7.440  13.021
18879W        W87284  34.333  13.373   0.227
18880W        W87285  41.503  22.509   1.328
18881W        W87286  15.551   0.791   2.974
18882W        W87287  12.625  37.312  11.680
18883W        W87288  19.098  36.072  12.379
18884W        W87289  28.521  28.103  10.569
18885W        W87290   7.900  17.084   3.378
18886W        W87291  33.376   1.971   3.298
18887W        W87292  10.196  31.903   2.385
18888W        W87293  35.830   7.338  13.299
18889W        W87294  40.944  43.822  11.330
18890W        W87295  36.930  21.548  11.685
18891W        W87296  17.060   7.302   0.874
18892W        W87297  12.083  42.753  13.404
18893W        W87298  36.720  27.135  13.530
18894W        W87299  30.256  27.264   0.454
18895W        W87300  36.553  31.139  12.118
18896W        W87301   7.675   9.659   0.291
18897W        W87302  30.452  25.103  14.415
18898W        W87303  28.497  12.888  10.675
18899W        W87304  23.915  16.662   1.884
18900W        W87305  33.330  18.239   0.258
18901W        W87306  17.696  32.226   5.095
18902W        W87307  25.564  39.069   3.304
18903W        W87308  17.635  15.181   4.165
18904W        W87309   0.812  42.324  14.896
18905W        W87310  41.720  28.243   0.171
18906W        W87311  29.746   3.939  14.610
18907W        W87312  42.068  12.642  14.362
18908W        W87313  30.444  33.951   4.672
18909W        W87314  33.105  28.837   2.033
18910W        W87315  14.789  15.750   3.173
18911W        W87316  43.463  10.747   2.870
18912W        W87317   5.458  35.077   4.559
18913W        W87318  41.600  17.557   4.607
18914W        W87319  33.205   7.688   1.527
18915W        W87320  27.249  38.347  11.447
18916W        W87321  43.850  39.557   2.870
18917W        W87322  43.073  29.838   2.683
18918W        W87323  11.747  14.027  13.880
18919W        W87324  27.622  41.080  11.601
18920W        W87325  10.742  25.898   3.422
18921W        W87326   9.246  35.543   2.423
18922W        W87327  38.572  36.099   3.236
18923W        W87328  44.197  36.649  14.048
18924W        W87329  24.293  26.502   4.572
18925W        W87330  11.989  11.137   2.746
18926W        W87331  32.634  25.101  13.851
18927W        W87332  26.329   2.029  13.031
18928W        W87333  32.527   4.984   1.559
18929W        W87334  43.751  37.608  12.582
18930W        W87335  40.284  30.994  11.485
18931W        W87336  23.732  10.176   0.882
18932W        W87337   3.360  25.616  14.508
18933W        W87338  33.093  17.609  14.752
18934W        W87339  18.627  13.464  14.492
18935W        W87340  14.331  41.487  14.248
18936W        W87341   4.126  34.643  14.816
18937W        W87342  41.184  11.873  13.473
18938W        W87343  42.433  36.685  11.954
18939W        W87344  36.100   3.814   2.154
18940W        W87345  27.998  32.021  14.537
18941W        W87346  42.935  33.211   2.247
18942W        W87347  24.340   7.979  14.396
18943W        W87348  38.353  19.165  11.896
18944W        W87349  28.973  11.966   0.298
18945W        W87350  31.950   5.701   1.282
18946W        W87351  32.405  25.201   2.390
18947W        W87352  28.679   7.340   2.647
18948W        W87353  13.425  35.701  10.271
18949W        W87354   4.549  35.823   4.109
18950W        W87355  11.953  10.707   1.910
18951W        W87356  24.357  37.584   1.956
18952W        W87357   8.736  18.882   1.173
18953W        W87358  19.078  33.589   2.310
18954W        W87359  19.836   0.490  13.999
18955W        W87360  10.695   7.210   1.641
18956W        W87361  18.748  29.598   1.223
18957W        W87362  34.805   0.696   3.821
18958W        W87363  25.590  24.513   1.019
18959W        W87364  34.037   7.190  13.408
18960W        W87365   8.707   1.198  12.496
18961W        W87366  28.021  27.062  11.419
18962W        W87367  43.349   8.945  14.257
18963W        W87368  36.342  35.250   4.321
18964W        W87369  21.490  39.876  12.777
18965W        W87370  38.621  40.715   1.196
18966W        W87371  10.298  29.375  14.837
18967W        W87372  27.523  18.762  14.106
18968W        W87373  42.886  43.556  14.795
18969W        W87374   4.894  22.054  11.605
18970W        W87375  35.900   9.625  13.527
18971W        W87376   8.247  41.994   0.001
18972W        W87377  40.754   0.907   1.321
18973W        W87378  19.544  31.108   1.403
18974W        W87379  36.494  24.443  14.742
18975W        W87380  10.102  17.029  13.395
18976W        W87381  30.541   3.313  13.776
18977W        W87382  24.526  21.665   3.693
18978W        W87383  34.616  13.632  12.390
18979W        W87384  21.810  43.748   3.283
18980W        W87385  32.591  13.670   0.255
18981W        W87386  44.257  27.563   5.042
18982W        W87387  36.633  34.545   0.794
18983W        W87388  17.594  10.646   0.851
18984W        W87389  39.300   5.470   0.844
18985W        W87390  26.150  17.377  12.168
18986W        W87391  39.838  16.577  13.550
18987W        W87392  18.633  18.860   2.228
18988W        W87393  21.771  15.993  11.104
18989W        W87394  33.376  29.028  10.744
18990W        W87395  13.202  43.560   1.887
18991W        W87396  32.283  20.264   4.117
18992W        W87397  36.436  30.584   2.262
18993W        W87398  19.023  43.905  10.412
18994W        W87399  21.610  36.758  10.542
18995W        W87400  43.383   8.362   4.243
18996W        W87401  11.635  29.369   4.528
18997W        W87402  30.529   3.693   2.983
18998W        W87403  33.849  41.665   2.181
18999W        W87404  10.965  26.519  14.922
19000W        W87405  13.690   2.034  13.261
19001W        W87406  31.454  40.190  12.048
19002W        W87407  17.834  10.699  14.478
19003W        W87408  15.149  10.605  11.945
19004W        W87409   9.230  28.902  12.114
19005W        W87410  22.745  24.594   2.718
19006W        W87411  23.042  12.028  14.531
19007W        W87412  26.861   3.658   4.100
19008W        W87413  19.091  42.108  12.316
19009W        W87414  24.516  17.764   2.145
19010W        W87415   2.866  15.827  12.084
19011W        W87416  15.060  23.041  14.518
19012W        W87417  22.329  28.071   2.174
19013W        W87418   9.654  31.388   4.131
19014W        W87419  30.033  22.134  11.506
19015W        W87420  12.743   7.164  10.993
19016W        W87421   4.358  37.024   0.714
19017W        W87422   7.500  10.882  12.520
19018W        W87423  28.686  29.914   3.088
19019W        W87424  39.745  26.653  12.148
19020W        W87425  42.589  34.461   1.825
19021W        W87426   1.032  28.587   0.949
19022W        W87427  17.178  19.497  14.894
19023W        W87428  22.626  38.043   0.911
19024W        W87429  28.533   6.222   4.128
19025W        W87430  10.486  40.070   4.212
19026W        W87431  18.783   1.346   2.238
19027W        W87432  29.506  20.747   0.362
19028W        W87433  13.255  11.357  12.149
19029W        W87434   0.015  42.588   4.538
19030W        W87435   5.220  20.190   3.397
19031W        W87436   2.863   0.899   2.347
19032W        W87437  37.333  18.756  11.594
19033W        W87438  27.971   6.046   2.808
19034W        W87439  15.868  20.488   0.563
19035W        W87440  18.240  34.393  10.744
19036W        W87441  43.716  28.788  12.504
19037W        W87442   6.252   2.347  13.027
19038W        W87443   6.792  28.275   0.688
19039W        W87444  19.752  11.465   0.740
19040W        W87445   4.433   6.954   3.595
19041W        W87446   9.427  31.980   1.850
19042W        W87447  14.394  16.740  11.128
19043W        W87448  21.275  10.349   1.664
19044W        W87449  39.601   2.902  11.034
19045W        W87450  40.478  44.239   4.608
19046W        W87451  19.258  16.828   4.181
19047W        W87452  23.131  27.551  12.930
19048W        W87453  10.411  31.433   1.215
19049W        W87454   8.585   9.141   2.713
19050W        W87455  22.080  33.882  13.346
19051W        W87456   0.880   4.255   2.631
19052W        W87457  20.440  36.111   4.615
19053W        W87458  36.256  31.917   2.893
19054W        W87459  34.271  28.625   0.529
19055W        W87460  39.495  17.523   1.325
19056W        W87461  35.533   2.943  12.933
19057W        W87462  34.889   3.808   3.051
19058W        W87463  10.640  30.648  12.439
19059W        W87464   6.004   9.437  10.705
19060W        W87465  34.861  22.731  14.486
19061W        W87466   7.189  44.347   3.766
19062W        W87467  16.529   3.848  12.853
19063W        W87468  42.336   5.467   1.401
19064W        W87469   3.798  11.413   0.234
19065W        W87470  18.561   5.760  14.566
19066W        W87471  19.391  12.182   2.705
19067W        W87472   9.026  24.855  10.374
19068W        W87473  21.294   0.031   1.525
19069W        W87474  24.588  26.439  13.532
19070W        W87475   0.538  34.385  10.681
19071W        W87476  23.616   8.433  13.877
19072W        W87477  14.161  33.028  14.572
19073W        W87478  28.817  24.793  10.649
19074W        W87479   3.895  13.784   4.588
19075W        W87480  31.198  11.234   2.186
19076W        W87481  44.867  40.350  14.306
19077W        W87482  44.941  43.077  14.169
19078W        W87483   0.952  42.195  11.181
19079W        W87484   3.370  26.546  11.529
19080W        W87485   5.404   5.760  11.541
19081W        W87486  17.687  28.197   0.694
19082W        W87487  10.677  14.782   1.644
19083W        W87488  30.305  21.586  13.527
19084W        W87489   8.858  31.690   2.909
19085W        W87490  36.866   5.674  12.035
19086W        W87491   1.882  20.159  13.616
19087W        W87492  29.989  11.370  12.931
19088W        W87493   7.380  40.368   1.813
19089W        W87494   6.323   4.638   3.526
19090W        W87495  16.546  18.852   2.459
19091W        W87496   6.310  18.023  12.915
19092W        W87497  33.823  29.158   2.931
19093W        W87498  19.549  18.657   3.166
19094W        W87499  40.011  38.886  14.404
19095W        W87500  38.430  29.433   2.714
19096W        W87501  31.383  22.866  14.848
19097W        W87502  15.865  39.493   3.845
19098W        W87503  35.546  23.186   3.302
19099W        W87504  30.550  11.946   4.217
19100W        W87505  28.181  37.079  11.819
19101W        W87506   4.289   4.709   0.313
19102W        W87507  22.178  21.250  10.940
19103W        W87508  20.773   4.479  14.462
19104W        W87509  44.857  27.427   3.129
19105W        W87510  10.903  11.634   3.290
19106W        W87511  44.713  14.138  12.009
19107W        W87512  30.583  28.758  14.408
19108W        W87513  40.728  20.192   3.628
19109W        W87514   2.989  37.014  11.932
19110W        W87515   5.305   3.203   2.283
19111W        W87516  11.698  32.943  11.236
19112W        W87517  40.791  30.040   2.627
19113W        W87518  10.155  17.246   0.064
19114W        W87519  31.957  41.078  12.374
19115W        W87520   3.310  26.224   3.246
19116W        W87521  25.600  10.615  12.664
19117W        W87522  32.405  13.987  10.436
19118W        W87523  38.077   6.690   1.171
19119W        W87524  14.928  26.409  10.660
19120W        W87525  14.837  22.545  13.916
19121W        W87526  38.316  32.420  13.422
19122W        W87527  26.934  22.028   1.226
19123W        W87528  41.019  44.781  11.196
19124W        W87529  13.132  27.892  11.030
19125W        W87530  39.403  17.746   0.856
19126W        W87531  42.215  19.709  11.156
19127W        W87532  40.311   3.341  13.832
19128W        W87533  43.253  21.261   0.744
19129W        W87534   3.911  43.464  13.037
19130W        W87535  23.262   9.683   2.275
19131W        W87536  15.405  42.264  11.228
19132W        W87537  23.570  18.276   3.721
19133W        W87538  44.067  35.358  10.505
19134W        W87539  14.524  40.969  13.822
19135W        W87540   8.858  16.091   4.087
19136W        W87541   7.749  37.636  11.965
19137W        W87542  13.276   2.749   1.763
19138W        W87543  29.643   4.840   4.229
19139W        W87544  21.653  33.544  12.791
19140W        W87545  28.188   8.314  11.723
19141W        W87546  32.156  12.872   1.773
19142W        W87547  20.671  28.641  11.241
19143W        W87548  41.417  14.269  13.857
19144W        W87549  30.112   0.731   2.620
19145W        W87550  25.517  34.047  12.075
19146W        W87551  42.446  37.180   0.814
19147W        W87552  25.976   6.297   1.887
19148W        W87553  21.579  40.573  13.714
19149W        W87554  31.565  41.363   1.447
19150W        W87555  18.128  42.900  13.833
19151W        W87556  33.937  20.583   1.682
19152W        W87557  13.251   2.778  14.274
19153W        W87558  36.321  44.209  14.851
19154W        W87559   9.779   5.775   1.813
19155W        W87560  31.668  13.153  10.733
19156W        W87561  41.392  21.947  12.043
19157W        W87562   5.331  10.173  12.897
19158W        W87563  32.432  27.418   4.641
19159W        W87564  30.098  36.456  12.573
19160W        W87565  35.969  23.769  12.513
19161W        W87566  19.018  36.780   3.702
19162W        W87567  33.355   9.155   2.706
19163W        W87568   8.088  34.175  12.016
19164W        W87569  27.743   5.576   2.674
19165W        W87570  33.902  23.279  13.462
19166W        W87571  31.830  39.482  12.459
19167W        W87572  29.151  44.507   1.814
19168W        W87573  15.669  41.862   2.854
19169W        W87574   3.727  24.742  14.275
19170W        W87575  23.194  23.634   2.755
19171W        W87576  30.484  40.379  13.414
19172W        W87577  36.772  36.052   0.026
19173W        W87578   7.099  27.547   2.812
19174W        W87579  44.945  43.666  12.151
19175W        W87580  43.072  12.200  10.890
19176W        W87581  35.337  31.031  12.499
19177W        W87582  23.417  33.837   3.700
19178W        W87583   9.645  19.621  12.953
19179W        W87584  28.015  40.655  13.454
19180W        W87585   3.000  41.437   4.196
19181W        W87586  22.172  32.553  13.629
19182W        W87587  27.703   0.208  10.690
19183W        W87588   8.688  30.180   0.878
19184W        W87589  33.974  11.002   2.687
19185W        W87590   7.940  23.566   4.227
19186W        W87591   8.787  28.446   2.441
19187W        W87592  10.594  38.986   3.355
19188W        W87593   0.844  15.224  12.348
19189W        W87594  43.452  14.508   2.216
19190W        W87595  40.261  25.791   2.075
19191W        W87596   6.928  40.356  12.375
19192W        W87597  19.599  10.103  11.557
19193W        W87598  19.860  38.661   4.186
19194W        W87599   4.874  30.497  10.259
19195W        W87600  18.747  35.790   1.364
19196W        W87601  20.145  13.644   4.422
19197W        W87602  37.549  35.981   2.221
19198W        W87603  12.829  20.212   3.679
19199W        W87604  12.688  37.652   2.203
19200W        W87605   6.318  18.966  12.972
19201W        W87606  40.770  29.637   0.366
19202W        W87607   5.736  13.620   4.750
19203W        W87608  18.297  44.247   4.247
19204W        W87609  20.490  20.514  14.737
19205W        W87610  22.490  12.176   3.828
19206W        W87611  16.564   0.876  10.479
19207W        W87612   4.328  13.081  10.611
19208W        W87613   5.859  34.197  12.184
19209W        W87614   3.386  26.054   2.753
19210W        W87615  14.602   0.940   0.449
19211W        W87616  33.235  22.717   0.799
19212W        W87617  37.765   4.679   2.860
19213W        W87618  27.598  43.998   2.802
19214W        W87619  20.579  24.380   0.333
19215W        W87620  37.991   2.741   4.190
19216W        W87621  30.586  19.261  12.624
19217W        W87622  41.438  24.714  10.698
19218W        W87623  34.483   5.699   2.330
19219W        W87624  23.053  20.313  10.530
19220W        W87625  17.123  44.014   3.566
19221W        W87626   5.506   8.996   4.150
19222W        W87627  17.620  34.525  14.903
19223W        W87628  23.061  30.444  11.455
19224W        W87629  43.440  10.346  13.971
19225W        W87630   3.493  16.229  13.508
19226W        W87631  28.382  42.863   2.851
19227W        W87632  11.758  25.458  11.137
19228W        W87633  18.516  41.484   0.303
19229W        W87634  31.075  29.394  12.736
19230W        W87635  35.428  12.417   0.758
19231W        W87636  12.811  18.788  13.832
19232W        W87637  30.561  21.265   3.345
19233W        W87638  22.100  24.722   1.380
19234W        W87639  32.614  27.127   4.117
19235W        W87640  18.769   3.274   3.158
19236W        W87641  18.602  43.264   4.152
19237W        W87642  33.284  39.405  12.985
19238W        W87643  40.686  30.495  10.384
19239W        W87644   4.378  26.726  10.725
19240W        W87645  36.833  22.307   0.300
19241W        W87646  34.322  21.530  12.125
19242W        W87647   6.352  43.473   0.679
19243W        W87648  26.391  17.462   4.317
19244W        W87649  26.985  14.316   0.273
19245W        W87650   2.365  15.710  13.678
19246W        W87651   3.078   9.957  10.164
19247W        W87652  12.874  33.688   1.814
19248W        W87653   0.041  31.952   0.709
19249W        W87654  25.733  18.445   2.207
19250W        W87655  13.519   7.646   0.769
19251W        W87656  38.338  34.805  12.951
19252W        W87657  25.496  11.252   4.686
19253W        W87658  12.095  31.022  11.324
19254W        W87659   0.087  36.048   0.315
19255W        W87660  39.481  11.607   4.598
19256W        W87661  34.303   9.739   2.417
19257W        W87662  28.163  39.660  14.501
19258W        W87663  32.829  22.223   4.217
19259W        W87664  27.948   5.671  11.904
19260W        W87665   7.601   5.329   1.379
19261W        W87666   2.884  43.986  13.565
19262W        W87667   4.443  24.195   3.888
19263W        W87668  34.577  42.896  14.271
19264W        W87669  21.006  11.521   0.288
19265W        W87670  42.309  17.139  13.407
19266W        W87671   8.799  14.468   4.548
19267W        W87672  41.105  21.320   4.130
19268W        W87673   5.227  32.952  10.620
19269W        W87674  15.143  32.232  12.412
19270W        W87675  14.529  39.912  10.262
19271W        W87676  16.120  34.310   3.689
19272W        W87677  37.953   1.369  12.571
19273W        W87678  17.806  29.835  14.262
19274W        W87679  22.739  23.106  13.917
19275W        W87680  44.373  17.697   4.012
19276W        W87681   0.162  44.801  11.184
19277W        W87682  35.458   3.603   0.856
19278W        W87683   2.059  26.510   1.295
19279W        W87684  20.669  39.823  14.843
19280W        W87685  19.306  25.762   9.854
19281W        W87686  43.337  29.990  12.428
19282W        W87687   3.187  15.305  10.871
19283W        W87688  16.128  34.172   2.372
19284W        W87689  35.160  12.899  12.962
19285W        W87690  24.832  41.038   0.877
19286W        W87691  27.892  40.528   1.431
19287W        W87692  34.421  28.082  10.369
19288W        W87693  39.744  36.149  12.954
19289W        W87694  44.811   1.628  12.615
19290W        W87695  15.150  41.548  12.363
19291W        W87696  30.288  21.540  10.623
19292W        W87697  18.096  11.762   4.591
19293W        W87698  42.465   8.541   0.174
19294W        W87699   3.189   0.494  12.575
19295W        W87700   9.237  43.923   2.579
19296W        W87701   2.162   9.716   1.647
19297W        W87702  12.768  42.237   0.209
19298W        W87703  42.073   6.516  13.707
19299W        W87704  13.436  25.368   0.315
19300W        W87705  42.960  23.008   3.225
19301W        W87706  17.453   2.760  12.542
19302W        W87707   0.970  22.561   3.640
19303W        W87708  26.195   4.624  10.957
19304W        W87709  34.963  30.528   0.393
19305W        W87710  43.551  29.913   0.830
19306W        W87711  15.648  41.187  10.748
19307W        W87712  41.005  43.788  13.326
19308W        W87713  26.093   0.845   0.305
19309W        W87714   0.022  41.130   4.790
19310W        W87715   3.936  33.687   2.660
19311W        W87716  30.073  16.060   1.337
19312W        W87717  11.370  40.772   2.401
19313W        W87718  43.615  38.589   2.603
19314W        W87719  34.554  40.899   4.342
19315W        W87720   7.144   3.314  12.955
19316W        W87721   4.123   8.189   2.773
19317W        W87722  38.145   5.378  11.208
19318W        W87723  21.074  34.655  13.114
19319W        W87724  24.097  10.660  13.903
19320W        W87725  26.163   4.850   3.369
19321W        W87726  30.868   0.695  13.282
19322W        W87727  15.194  41.690   0.098
19323W        W87728  37.365  10.167   0.386
19324W        W87729  21.527   1.511  10.965
19325W        W87730   1.698  17.258   4.160
19326W        W87731  43.501  39.413   0.021
19327W        W87732  10.201  20.845   5.059
19328W        W87733  29.723   4.444   4.563
19329W        W87734  24.328   1.283   2.309
19330W        W87735  29.163   2.525  12.566
19331W        W87736   9.323   1.991  10.999
19332W        W87737  28.653   1.392   0.049
19333W        W87738   1.187  34.894  10.992
19334W        W87739  23.310  25.075   2.289
19335W        W87740  23.267   7.549  11.050
19336W        W87741   6.667  29.700   2.680
19337W        W87742  37.268   2.420   1.723
19338W        W87743   1.967  30.436   3.390
19339W        W87744  34.048  40.066  14.261
19340W        W87745  15.062  25.506   3.685
19341W        W87746  40.931  17.759  10.387
19342W        W87747   5.606   7.105  12.072
19343W        W87748  36.850  30.500   3.232
19344W        W87749   7.302  40.243  11.491
19345W        W87750  25.795   4.893  12.636
19346W        W87751  23.597  19.379   5.187
19347W        W87752  11.922   3.852   3.236
19348W        W87753   2.860  43.436   4.118
19349W        W87754   2.399  36.543  14.297
19350W        W87755   9.660  40.832   0.795
19351W        W87756  43.781  34.062   2.832
19352W        W87757  34.943  31.851   1.900
19353W        W87758  28.228  23.641  12.805
19354W        W87759  32.563   4.861   2.389
19355W        W87760   0.544   6.954   4.155
19356W        W87761  40.009  12.237   3.591
19357W        W87762  36.446  44.683  12.348
19358W        W87763  26.678  37.619  13.742
19359W        W87764   9.429  16.862  14.018
19360W        W87765   3.186  21.289   1.182
19361W        W87766  12.883  12.603  11.207
19362W        W87767  18.572  17.654  12.367
19363W        W87768  37.696  20.931   1.197
19364W        W87769  15.128  28.625  14.757
19365W        W87770  36.518  16.701   4.919
19366W        W87771  41.508  43.961  12.029
19367W        W87772  25.840   5.572   2.244
19368W        W87773  33.817  38.429   4.589
19369W        W87774  12.598  39.622   4.213
19370W        W87775   9.371  41.235  11.867
19371W        W87776  42.834  18.603  12.608
19372W        W87777  33.692  14.133   1.390
19373W        W87778  10.176  10.713   1.676
19374W        W87779  40.921  16.262   1.106
19375W        W87780  32.634  39.399  14.481
19376W        W87781  28.503  21.545  13.446
19377W        W87782   9.944  28.164   2.171
19378W        W87783  34.350   5.997  12.848
19379W        W87784  27.396  26.474  11.550
19380W        W87785  22.422   4.409   2.777
19381W        W87786  38.369  24.674   4.131
19382W        W87787  16.629   0.238   3.756
19383W        W87788   5.647  40.507  12.839
19384W        W87789  13.039   5.218   4.487
19385W        W87790  12.747  18.975  14.693
19386W        W87791   7.116   8.701  13.987
19387W        W87792  35.358   9.936  11.570
19388W        W87793   9.656  40.351   3.107
19389W        W87794  22.582  35.709  12.463
19390W        W87795  32.546  42.003   4.519
19391W        W87796  36.411  22.637   0.320
19392W        W87797   6.590   7.776   1.357
19393W        W87798  19.125  31.196   1.717
19394W        W87799  34.602   0.888  11.181
19395W        W87800   1.828  31.766   1.694
19396W        W87801  42.122   4.415   4.064
19397W        W87802  34.660  20.333   3.882
19398W        W87803  37.896  24.740   0.692
19399W        W87804  41.432  27.764   2.833
19400W        W87805   0.010  24.895  10.748
19401W        W87806  32.560  41.150  13.022
19402W        W87807   7.259   0.076  14.321
19403W        W87808   5.805  36.588   4.125
19404W        W87809  39.653  31.361  11.013
19405W        W87810  20.153  10.617  10.660
19406W        W87811   0.355  16.840  14.284
19407W        W87812   1.143  27.743   3.692
19408W        W87813  12.755   8.150   2.827
19409W        W87814  36.477  26.635  11.069
19410W        W87815  18.382  29.924   0.997
19411W        W87816  31.256  28.042  10.839
19412W        W87817  18.782  12.856   2.770
19413W        W87818  20.671  33.160  14.676
19414W        W87819  22.279  28.011  10.698
19415W        W87820  33.233  28.381   5.083
19416W        W87821   0.479  16.800   0.213
19417W        W87822  11.298   1.956   4.463
19418W        W87823  30.516  32.109  10.657
19419W        W87824  37.482  31.915   0.812
19420W        W87825  34.432  23.258  10.777
19421W        W87826   7.740  33.753   2.320
19422W        W87827   5.188  35.498   3.312
19423W        W87828  34.087  11.927   1.401
19424W        W87829  33.382  40.829   1.820
19425W        W87830  32.225  44.505   9.972
19426W        W87831  21.024  22.076   0.955
19427W        W87832   4.469  42.234   3.707
19428W        W87833  39.682  21.558  12.000
19429W        W87834  44.003  34.342  12.950
19430W        W87835  18.534  44.786   1.802
19431W        W87836   5.362  32.688   0.047
19432W        W87837  28.627  40.723  13.954
19433W        W87838  15.817  31.017  13.933
19434W        W87839   0.457  24.739  10.982
19435W        W87840  22.097  43.356   1.368
19436W        W87841  39.871  36.796   3.790
19437W        W87842  14.005  21.647  12.582
19438W        W87843  36.914  28.450   2.837
19439W        W87844  12.183  25.003   0.437
19440W        W87845  38.650  23.698  13.477
19441W        W87846  42.029  27.966   3.174
19442W        W87847  20.649  24.853   3.682
19443W        W87848  24.546  21.153   5.073
19444W        W87849   0.721  43.642  10.680
19445W        W87850   6.061  16.206  12.629
19446W        W87851  17.310  28.002   1.916
19447W        W87852  20.162   3.874   1.985
19448W        W87853  35.506   1.697  10.721
19449W        W87854  39.133  21.075   4.090
19450W        W87855   6.428  11.065   4.572
19451W        W87856  11.387   6.952   0.507
19452W        W87857  17.225   2.062  14.832
19453W        W87858   6.607  39.078  10.835
19454W        W87859  44.810  22.993   0.569
19455W        W87860   2.491   9.388   2.903
19456W        W87861  12.045   2.206  11.786
19457W        W87862   6.431  14.262   3.704
19458W        W87863  36.926   2.948   2.012
19459W        W87864  42.019  40.798  12.513
19460W        W87865  39.051   5.410   4.627
19461W        W87866  37.361  35.198   3.262
19462W        W87867  14.874  35.909   2.192
19463W        W87868  29.469  26.514   3.190
19464W        W87869  32.638  26.534  12.043
19465W        W87870   9.902   1.667  12.122
19466W        W87871  43.385   9.597   2.157
19467W        W87872  42.130  22.621   2.723
19468W        W87873  33.797  43.915  12.515
19469W        W87874   4.746  24.606   0.325
19470W        W87875  40.418  36.446   1.649
19471W        W87876  37.448   5.544   2.678
19472W        W87877  10.788  34.656  13.533
19473W        W87878  25.418   0.504   3.145
19474W        W87879  29.993  38.193  12.003
19475W        W87880  18.660   7.104   0.920
19476W        W87881  25.570  29.374   0.950
19477W        W87882  29.537  44.054  11.126
19478W        W87883   9.801  19.456  11.689
19479W        W87884  42.958   5.652   3.102
19480W        W87885  39.028  20.756  11.115
19481W        W87886   7.694   8.362  12.543
19482W        W87887   9.450  12.576   0.800
19483W        W87888  39.620   4.776  11.411
19484W        W87889  12.738   5.415   0.168
19485W        W87890  22.690  16.232   2.744
19486W        W87891  19.015  30.654   1.902
19487W        W87892  26.213   9.248   1.210
19488W        W87893  19.504  39.903   1.634
19489W        W87894  18.154   7.618   0.551
19490W        W87895   9.688  29.667  11.418
19491W        W87896  33.525  23.615   0.554
19492W        W87897  41.343  29.399   1.635
19493W        W87898  38.914   0.668   3.372
19494W        W87899  27.087  32.009   0.938
19495W        W87900  39.100  15.654  14.498
19496W        W87901  12.870  18.992   3.302
19497W        W87902  37.903  44.985  14.951
19498W        W87903  38.384  31.996  13.109
19499W        W87904  14.503   3.007   3.132
19500W        W87905  21.200   1.780  12.064
19501W        W87906  35.662  41.705  13.617
19502W        W87907  27.954  28.222   0.823
19503W        W87908  19.109  39.635   0.927
19504W        W87909  27.003  21.729  12.622
19505W        W87910  12.220  25.128   2.699
19506W        W87911  44.192  14.785   1.266
19507W        W87912  30.125   6.789   4.656
19508W        W87913  20.317  40.238   2.878
19509W        W87914  44.355  35.841  14.421
19510W        W87915   8.407  37.854   3.708
19511W        W87916  29.036  10.321  11.661
19512W        W87917   8.323  25.374   1.358
19513W        W87918  32.386  16.040   0.203
19514W        W87919  27.986  42.496  11.714
19515W        W87920  32.161  40.706  14.531
19516W        W87921  29.029  24.079  14.481
19517W        W87922  17.025  34.546  10.858
19518W        W87923  25.978  37.738   1.744
19519W        W87924  38.430  37.381   0.396
19520W        W87925   7.863  32.056   2.879
19521W        W87926  17.604  25.747   4.146
19522W        W87927  28.359  23.107   4.178
19523W        W87928  11.674   9.368   4.313
19524W        W87929  19.061  22.108  14.841
19525W        W87930   3.037   5.900  13.406
19526W        W87931  34.318  14.698  12.872
19527W        W87932  40.546  20.288   4.099
19528W        W87933  10.172  39.825  11.605
19529W        W87934  25.072  11.442   0.332
19530W        W87935  13.514  32.120   0.967
19531W        W87936  37.885  16.887  10.710
19532W        W87937   3.980  41.350  14.178
19533W        W87938  39.008   2.061   5.541
19534W        W87939  11.081  29.630  11.696
19535W        W87940  33.790  39.535  13.641
19536W        W87941  44.548  42.515  13.009
19537W        W87942  33.975  44.089  12.001
19538W        W87943  38.618  37.846  12.958
19539W        W87944  36.586  42.372  12.908
19540W        W87945  38.866  12.339  14.369
19541W        W87946  36.930  43.334  13.965
19542W        W87947  17.587  34.914   1.185
19543W        W87948  33.737  26.193  10.769
19544W        W87949  33.460   1.851  12.816
19545W        W87950   6.910   2.043   3.577
19546W        W87951  14.875  12.476  11.163
19547W        W87952  10.665  17.719   5.062
19548W        W87953   2.677  28.997   2.201
19549W        W87954  28.557  32.022   1.697
19550W        W87955   4.407  44.159  14.689
19551W        W87956  26.571  19.272  13.801
19552W        W87957  18.809  23.997  12.558
19553W        W87958  23.710  37.321  11.207
19554W        W87959   5.694  36.552  12.421
19555W        W87960   8.756  17.214   0.281
19556W        W87961  20.736  19.006  14.752
19557W        W87962  12.263  42.537   3.117
19558W        W87963  42.377  25.503   3.714
19559W        W87964   6.933  43.376   3.688
19560W        W87965   4.255  32.945  11.854
19561W        W87966  23.461  37.093  13.002
19562W        W87967  42.969   9.761   4.392
19563W        W87968   4.708  12.126   0.232
19564W        W87969   4.937  29.581   4.293
19565W        W87970  22.559  39.440  11.555
19566W        W87971  22.419  24.787   2.321
19567W        W87972  27.017  17.977  14.236
19568W        W87973  31.940  26.986   3.290
19569W        W87974   4.972  18.150   1.286
19570W        W87975  22.009   9.631   4.585
19571W        W87976  33.838  32.687   1.202
19572W        W87977  42.734   9.731   0.549
19573W        W87978   3.495  44.819   4.288
19574W        W87979  20.592  42.895   5.026
19575W        W87980  28.022  21.695  13.767
19576W        W87981  13.261   9.125  11.139
19577W        W87982  33.812  11.621  12.507
19578W        W87983  17.311  37.948  11.492
19579W        W87984   0.024  36.281  13.879
19580W        W87985  31.618  10.232   3.271
19581W        W87986   2.387  15.069   2.299
19582W        W87987  22.752  41.294   2.614
19583W        W87988  32.611  12.349   0.142
19584W        W87989  34.392  18.766  10.504
19585W        W87990  15.499  12.312   4.110
19586W        W87991  20.109  32.648  10.732
19587W        W87992  14.777  28.886   1.128
19588W        W87993  34.946  40.093  13.296
19589W        W87994   9.100  32.859   1.327
19590W        W87995  11.336  34.521   1.686
19591W        W87996  27.584   0.357   1.708
19592W        W87997  15.908  16.784  13.087
19593W        W87998  38.120   1.086  11.552
19594W        W87999  32.117  18.235   0.832
19595W        W88000  16.243  25.477  13.472
19596W        W88001  34.130   9.155   2.226
19597W        W88002  39.820  44.937  14.877
19598W        W88003  32.967  13.148   4.585
19599W        W88004  38.306  30.560  12.843
19600W        W88005  18.558   5.173   3.597
19601W        W88006  44.844   5.693  12.620
19602W        W88007  35.063  35.087   2.219
19603W        W88008  20.187   8.228  13.082
19604W        W88009  19.795  36.765  12.584
19605W        W88010  39.992  37.707  12.842
19606W        W88011  22.007  39.512  10.666
19607W        W88012  40.203  41.367   0.262
19608W        W88013  39.646  24.059   1.320
19609W        W88014  22.323  39.814   3.604
19610W        W88015  28.115   8.345   0.418
19611W        W88016  17.989   8.754  11.580
19612W        W88017   9.779   7.968  14.802
19613W        W88018  38.825  29.450  13.115
19614W        W88019  18.774  22.441   1.734
19615W        W88020  25.138  31.686  14.026
19616W        W88021  31.388   6.214   3.073
19617W        W88022  25.668  41.374   1.760
19618W        W88023  14.244  35.576  13.869
19619W        W88024  23.942  41.133   1.394
19620W        W88025  37.329   9.191  11.562
19621W        W88026  38.785  26.519  10.752
19622W        W88027  41.846  17.053  14.005
19623W        W88028   8.178  11.522  11.985
19624W        W88029   5.298  44.752   3.679
19625W        W88030  43.527  26.262  13.957
19626W        W88031  19.219  16.066  11.099
19627W        W88032  38.350   3.883  14.799
19628W        W88033  29.197  23.198   4.617
19629W        W88034   8.321  27.081   0.290
19630W        W88035  36.736  44.213   1.683
19631W        W88036  26.863  27.011   1.770
19632W        W88037   9.934  11.291   4.457
19633W        W88038  19.350  20.148   3.018
19634W        W88039  20.984  43.923   2.985
19635W        W88040  39.903  44.055   2.840
19636W        W88041  30.889  32.921   0.467
19637W        W88042  18.124  15.191  10.587
19638W        W88043  43.577   6.935  12.528
19639W        W88044  44.519   5.859  13.560
19640W        W88045  19.515   3.268  13.005
19641W        W88046  20.218  22.482   1.859
19642W        W88047  35.303  39.138   0.808
19643W        W88048   0.797  12.165   1.326
19644W        W88049  17.337  27.831  11.677
19645W        W88050  19.996  11.742  12.139
19646W        W88051  30.389  17.282   1.042
19647W        W88052   9.817  40.829  13.818
19648W        W88053  24.629  12.378   1.319
19649W        W88054  21.437   9.193  11.014
19650W        W88055   0.457   2.326  13.090
19651W        W88056  11.609  23.003  13.046
19652W        W88057  30.246  26.182   3.785
19653W        W88058   9.264  30.627  10.756
19654W        W88059  42.566  12.284  10.725
19655W        W88060  37.376   1.999  12.635
19656W        W88061   3.289   2.835  11.114
19657W        W88062  31.775  39.464   4.522
19658W        W88063  28.082   3.508   2.462
19659W        W88064   9.249  19.611  14.390
19660W        W88065  15.617  17.994   3.762
19661W        W88066  30.113  22.122   2.830
19662W        W88067   5.411  38.257   2.361
19663W        W88068  32.412  32.193   2.726
19664W        W88069  22.975   4.197   1.228
19665W        W88070  10.865  12.116  11.300
19666W        W88071   5.468  43.396  10.507
19667W        W88072   3.186  20.598   0.869
19668W        W88073  41.430   1.259   4.895
19669W        W88074  10.431  35.323  11.847
19670W        W88075  18.422   4.926   4.036
19671W        W88076  17.130  38.885   2.746
19672W        W88077  44.717  25.574   0.323
19673W        W88078  29.071  20.045  11.616
19674W        W88079  35.810  42.933  11.609
19675W        W88080  33.313  37.755   5.052
19676W        W88081  12.035  42.973  11.051
19677W        W88082  10.441  43.001   3.377
19678W        W88083  10.774  31.122   4.543
19679W        W88084  33.392  18.888  11.651
19680W        W88085  34.876  36.066  13.034
19681W        W88086   9.265  10.812   4.607
19682W        W88087  21.574   7.460   5.098
19683W        W88088  42.196  18.239   1.214
19684W        W88089  23.243  44.959  12.308
19685W        W88090  34.972  22.653   0.009
19686W        W88091  36.942   9.697  11.232
19687W        W88092  44.455  26.615   2.192
19688W        W88093   7.121  28.791   1.256
19689W        W88094  13.011   2.524  10.286
19690W        W88095  11.364  29.501   4.105
19691W        W88096  25.947  19.485  11.523
19692W        W88097  27.166  35.347  13.533
19693W        W88098  44.948  15.623   3.656
19694W        W88099   2.374  26.809  12.417
19695W        W88100   8.699  35.327   5.137
19696W        W88101  40.312  28.423  12.424
19697W        W88102   9.189  37.899   3.230
19698W        W88103  30.643   6.723   4.640
19699W        W88104  33.372  44.999   3.635
19700W        W88105   2.692  17.276   4.422
19701W        W88106  15.563  30.355   4.588
19702W        W88107  17.442  32.319  10.091
19703W        W88108  20.207  36.995   1.725
19704W        W88109  23.721  42.018  12.412
19705W        W88110  10.704  16.315   3.899
19706W        W88111  35.328  32.843   0.314
19707W        W88112   5.215  26.107  11.985
19708W        W88113  19.571  24.745   4.483
19709W        W88114  37.423  25.538   4.712
19710W        W88115   4.137  26.747   1.906
19711W        W88116   5.706  20.293   3.650
19712W        W88117  42.723   4.274   1.873
19713W        W88118  39.442  28.757   2.513
19714W        W88119  12.313  10.686   1.540
19715W        W88120   0.346  15.702  14.895
19716W        W88121  29.253  13.364   0.447
19717W        W88122  15.249   7.616  11.097
19718W        W88123  12.600  24.123   0.788
19719W        W88124  24.169  14.334   3.701
19720W        W88125  10.323   9.762  13.969
19721W        W88126  42.980  20.132  14.491
19722W        W88127   8.932  20.166  12.880
19723W        W88128  28.276  24.673   2.192
19724W        W88129  32.214  17.494  14.835
19725W        W88130  13.410  16.143   0.216
19726W        W88131  17.223  16.489   1.408
19727W        W88132  39.753  19.966   3.647
19728W        W88133  37.109  10.143   1.806
19729W        W88134   9.679  22.123  10.785
19730W        W88135  13.809  19.269  11.896
19731W        W88136  12.856  23.117  12.519
19732W        W88137  30.088  10.882   3.589
19733W        W88138   1.747  39.984   4.814
19734W        W88139  43.724  18.465   0.961
19735W        W88140   8.310  23.364  13.515
19736W        W88141  44.992   9.985  12.950
19737W        W88142  34.886  28.472   2.674
19738W        W88143  33.784  37.509   2.417
19739W        W88144  21.598  18.005  12.778
19740W        W88145  21.690  23.152  12.388
19741W        W88146  25.599   6.397   0.329
19742W        W88147  28.600  41.534  14.421
19743W        W88148  23.273  36.583  12.274
19744W        W88149  29.340  35.970   3.810
19745W        W88150  16.631   6.236  11.028
19746W        W88151  13.113  10.939  11.574
19747W        W88152  16.673   3.736  10.720
19748W        W88153  44.560  14.800  14.928
19749W        W88154  13.678  24.820  11.446
19750W        W88155  21.302  37.574   3.267
19751W        W88156  28.224  44.336  12.768
19752W        W88157  38.438  20.801   0.436
19753W        W88158  40.542  18.610   4.631
19754W        W88159   2.544  40.059   4.285
19755W        W88160  31.463  44.724   4.123
19756W        W88161   6.997  30.543  11.921
19757W        W88162   2.784  32.475  10.643
19758W        W88163  23.678   1.496   2.915
19759W        W88164  32.706   5.284  13.463
19760W        W88165  33.647  32.658   2.430
19761W        W88166   4.358  25.180   3.635
19762W        W88167  22.179  31.347   0.486
19763W        W88168  11.615  32.886   4.532
19764W        W88169  11.047  15.347   5.003
19765W        W88170   4.861  32.959  14.321
19766W        W88171  32.615   1.386   3.553
19767W        W88172  38.933  28.914   0.850
19768W        W88173  18.244  29.725  12.585
19769W        W88174  12.382  13.857  11.913
19770W        W88175  40.968  27.540   3.601
19771W        W88176  29.586   8.626   0.630
19772W        W88177  36.922  16.211   1.222
19773W        W88178  15.610  14.737   0.432
19774W        W88179   7.543  42.308   0.317
19775W        W88180  37.885  43.823   2.812
19776W        W88181  28.000  41.028   3.747
19777W        W88182   0.859   2.994   2.041
19778W        W88183  44.374  20.332  14.476
19779W        W88184  15.593  16.719   1.985
19780W        W88185   3.408  38.080   1.477
19781W        W88186  15.334  30.948  13.766
19782W        W88187  22.262  29.028  11.115
19783W        W88188  42.548  28.034   3.235
19784W        W88189   9.903  41.305   0.813
19785W        W88190  29.963  42.927  12.930
19786W        W88191   8.437  37.466   0.027
19787W        W88192  11.566  22.446   4.107
19788W        W88193   3.687  10.352  10.695
19789W        W88194   4.333  10.917  12.308
19790W        W88195   6.354  16.624   2.617
19791W        W88196  44.100  31.077  12.058
19792W        W88197  43.977  25.493  12.071
19793W        W88198  21.404  24.213   2.748
19794W        W88199  33.644  12.389  11.974
19795W        W88200  11.942  28.974   3.616
19796W        W88201  16.262  32.601  14.337
19797W        W88202  22.152   7.308  12.571
19798W        W88203  33.815  38.015   1.667
19799W        W88204  20.001  18.665   2.225
19800W        W88205  42.453  38.365   0.162
19801W        W88206  44.457  24.058   4.048
19802W        W88207   1.993  33.306   1.263
19803W        W88208  42.651   0.041  10.400
19804W        W88209  15.822  44.555   4.646
19805W        W88210  37.818   1.857   2.466
19806W        W88211  39.903  37.938   0.346
19807W        W88212  41.592   9.406  14.387
19808W        W88213  20.457  30.683   2.462
19809W        W88214  13.059   2.856  11.975
19810W        W88215  27.498  35.425   3.205
19811W        W88216   6.190  22.037  13.599
19812W        W88217  12.748   8.514  14.844
19813W        W88218  28.311  11.160   2.773
19814W        W88219  22.776   7.650  12.994
19815W        W88220  31.041  18.850   1.775
19816W        W88221  43.907  29.314   2.256
19817W        W88222  43.903  29.370   3.949
19818W        W88223  17.358  27.600  11.109
19819W        W88224  21.033   5.247  13.041
19820W        W88225  35.203  40.890  10.394
19821W        W88226  35.087  36.487   3.162
19822W        W88227  41.461  22.184   3.140
19823W        W88228   7.558  43.077  11.679
19824W        W88229  39.994  39.128  11.765
19825W        W88230  16.551  39.317   0.234
19826W        W88231   3.898  44.039   4.422
19827W        W88232  39.948   4.453  14.451
19828W        W88233  18.187  38.586   2.229
19829W        W88234  15.812  31.555   2.166
19830W        W88235   1.401   4.143   4.994
19831W        W88236  41.308   5.958  14.412
19832W        W88237   8.537   1.493  14.881
19833W        W88238  43.787  28.966   3.634
19834W        W88239  18.265  20.753  14.491
19835W        W88240  36.067  20.156  12.487
19836W        W88241  20.284  37.971   1.846
19837W        W88242   6.894   2.056  13.860
19838W        W88243  44.473  37.546   4.668
19839W        W88244   6.596  34.790  11.086
19840W        W88245   2.850   1.237   0.265
19841W        W88246  19.894  22.390   9.815
19842W        W88247  16.680  19.398   0.220
19843W        W88248  44.330  32.918  11.536
19844W        W88249  39.345   0.309  11.290
19845W        W88250  37.668  37.151   0.912
19846W        W88251  32.334  10.833  12.333
19847W        W88252   7.880  36.025   0.703
19848W        W88253  11.590  29.177   1.459
19849W        W88254  23.488  42.569  13.804
19850W        W88255  20.217  24.784   1.726
19851W        W88256  22.235  23.099  12.567
19852W        W88257  37.922  42.732   3.141
19853W        W88258   2.096   2.787   4.285
19854W        W88259  36.377   6.256  10.073
19855W        W88260   7.137  30.249   5.220
19856W        W88261  20.898  15.685   1.758
19857W        W88262  27.534  42.421   3.769
19858W        W88263  11.677  15.829   2.155
19859W        W88264  15.278  44.358   3.695
19860W        W88265  26.113   4.092   3.930
19861W        W88266  34.703  32.808   2.441
19862W        W88267   3.445  42.978   0.478
19863W        W88268  19.092   3.237   3.570
19864W        W88269  14.344  11.581  13.282
19865W        W88270  11.354  23.687   1.670
19866W        W88271  41.547  15.522   1.810
19867W        W88272  17.647  38.056   4.788
19868W        W88273   0.164   7.293  12.844
19869W        W88274  11.469  13.832   3.748
19870W        W88275  15.902  19.473  13.591
19871W        W88276   1.849  10.266  11.234
19872W        W88277   9.163  30.961  11.155
19873W        W88278  35.401  38.116   3.243
19874W        W88279   5.229  21.862  13.740
19875W        W88280  37.253  29.352   1.234
19876W        W88281  30.092  13.209  13.418
19877W        W88282  27.105  25.626  14.101
19878W        W88283   9.805   1.303   2.383
19879W        W88284  11.382  40.378   0.637
19880W        W88285   7.147  19.841  12.923
19881W        W88286   2.154  11.299   3.254
19882W        W88287  43.456  38.573   1.710
19883W        W88288   8.842   6.801   0.385
19884W        W88289  28.908   4.103  14.476
19885W        W88290  27.106  44.886   2.343
19886W        W88291   8.626  10.684   4.338
19887W        W88292  16.162  16.261   4.495
19888W        W88293  23.568  12.763  14.613
19889W        W88294  21.708   7.429  11.245
19890W        W88295  38.616  11.108  14.472
19891W        W88296  15.591  26.535   4.706
19892W        W88297  26.655   9.301  14.956
19893W        W88298  24.134  28.415   1.823
19894W        W88299   8.877   3.711  11.201
19895W        W88300   5.057  18.127   2.213
19896W        W88301   6.856   8.474   2.280
19897W        W88302  10.955  14.696  11.998
19898W        W88303  43.888  34.909   1.372
19899W        W88304  30.551  13.065   0.858
19900W        W88305  10.963  42.385  14.991
19901W        W88306  37.481  10.312   4.177
19902W        W88307  23.689  32.651   1.660
19903W        W88308   8.845  16.333  14.179
19904W        W88309  20.160   7.214   3.126
19905W        W88310  26.931  17.529  14.463
19906W        W88311  25.606  20.869   4.103
19907W        W88312   7.243  39.064   4.198
19908W        W88313  17.338  28.941   3.159
19909W        W88314   1.970  30.936  12.826
19910W        W88315   1.320  41.904  14.070
19911W        W88316  20.208  34.273   2.808
19912W        W88317  26.113   6.472   2.374
19913W        W88318   2.970  12.057   2.190
19914W        W88319  40.281  38.941  12.116
19915W        W88320  16.570  28.442   3.819
19916W        W88321  38.559   9.145  13.910
19917W        W88322  35.896   6.185   4.542
19918W        W88323  17.770  43.398   1.891
19919W        W88324  24.377  14.874  14.321
19920W        W88325  21.105  40.353  11.114
19921W        W88326  38.376  44.294   3.727
19922W        W88327  10.150  38.672   2.392
19923W        W88328  11.852  13.062   2.000
19924W        W88329  37.301   5.426  11.997
19925W        W88330  38.424  11.245   0.344
19926W        W88331   1.848   7.403   2.315
19927W        W88332  44.364  22.518  14.392
19928W        W88333  35.075  37.281  13.389
19929W        W88334  40.992  33.267   2.909
19930W        W88335   3.458   6.224   2.204
19931W        W88336  26.913  13.862  13.283
19932W        W88337  40.583  16.663  13.301
19933W        W88338  44.357  22.833   0.347
19934W        W88339  11.475   6.577   4.969
19935W        W88340   6.471  29.141   2.601
19936W        W88341  19.954  23.194   0.361
19937W        W88342  27.692  11.387   2.066
19938W        W88343  43.413  39.995  11.605
19939W        W88344  32.901  10.170  11.951
19940W        W88345   9.249  40.503  13.099
19941W        W88346   7.737  21.708   1.042
19942W        W88347  13.609  22.311   0.392
19943W        W88348  41.900  15.250   3.665
19944W        W88349  14.737   7.328   1.172
19945W        W88350  11.107  36.841  12.021
19946W        W88351   9.236  42.846   0.443
19947W        W88352  34.009  41.069   3.164
19948W        W88353  44.475  17.020   3.308
19949W        W88354   3.280  33.155  10.587
19950W        W88355  34.029   6.283   1.812
19951W        W88356  19.574   6.864   0.422
19952W        W88357  42.327  18.861   4.111
19953W        W88358  10.204  33.042  13.626
19954W        W88359  14.562  11.153   4.596
19955W        W88360  30.011  14.455  10.809
19956W        W88361  37.631  16.560  13.261
19957W        W88362  15.694   5.708  14.957
19958W        W88363  27.463  17.212  11.516
19959W        W88364  25.672   3.408  12.870
19960W        W88365  40.771   6.941   4.041
19961W        W88366  22.079  36.072   3.107
19962W        W88367  18.211  42.757  12.426
19963W        W88368  12.421   1.987   2.184
19964W        W88369  42.836  26.966  11.133
19965W        W88370  27.538  14.608  12.150
19966W        W88371  25.506  32.496  12.366
19967W        W88372  10.614  36.652  14.132
19968W        W88373  27.493  14.332   4.513
19969W        W88374   4.022  44.379   2.251
19970W        W88375  25.198  16.839  10.920
19971W        W88376  18.080  37.547  11.480
19972W        W88377  15.181  12.252  10.772
19973W        W88378  32.140  33.066   2.723
19974W        W88379  20.672  11.060   3.240
19975W        W88380   1.390  24.588  13.614
19976W        W88381  37.263  32.912   1.145
19977W        W88382  17.352   4.741   0.339
19978W        W88383  17.415   0.648  13.063
19979W        W88384   8.152  21.261  12.044
19980W        W88385  26.575  31.573  12.390
19981W        W88386  13.312  14.224  13.352
19982W        W88387   6.351  32.019   3.598
19983W        W88388   6.871   5.764   3.095
19984W        W88389  39.457  33.082   1.923
19985W        W88390   6.897  42.259  14.569
19986W        W88391  36.534  27.696   1.441
19987W        W88392  40.971  18.558   1.374
19988W        W88393  18.785  36.558  10.735
19989W        W88394   4.731  18.223   3.447
19990W        W88395  29.131  43.082   2.009
19991W        W88396  41.990  42.105   1.772
19992W        W88397  22.913   5.820   3.791
19993W        W88398  26.570  34.525  11.212
19994W        W88399  21.510  17.060   2.437
19995W        W88400  24.256  10.339   2.726
19996W        W88401  21.034  34.462  11.742
19997W        W88402  44.988  40.008  10.614
19998W        W88403  24.475  20.815   2.454
19999W        W88404  43.886   9.647   1.941
20000W        W88405  21.190  29.313   4.036
20001W        W88406   9.228  41.413   3.092
20002W        W88407   1.852  21.581  13.207
20003W        W88408  20.008  17.192   2.239
20004W        W88409  35.302  24.007   0.313
20005W        W88410  38.241  44.750  10.667
20006W        W88411   6.118   0.031  11.932
20007W        W88412  12.110  19.656   3.644
20008W        W88413  23.476  17.340   3.688
20009W        W88414   1.774   8.154  14.843
20010W        W88415   4.408  37.408   2.141
20011W        W88416  14.862   9.811  14.379
20012W        W88417  10.765  34.031   4.116
20013W        W88418   8.118  31.692  11.068
20014W        W88419  20.262  17.853  11.548
20015W        W88420  21.732  28.618   0.851
20016W        W88421  34.840  39.086   4.125
20017W        W88422  14.557  13.235  13.938
20018W        W88423  40.962  38.758   2.221
20019W        W88424  28.595  25.007  13.636
20020W        W88425  27.619   4.632  10.217
20021W        W88426  21.552   4.527  14.574
20022W        W88427  40.877  32.178   3.867
20023W        W88428  15.721  44.408   0.083
20024W        W88429  17.277  24.719   0.882
20025W        W88430  29.890  10.616  12.046
20026W        W88431  40.314  15.850  13.484
20027W        W88432  29.645  32.150  14.113
20028W        W88433  30.027  22.297  14.423
20029W        W88434  13.682  33.328   3.630
20030W        W88435  42.969  31.156   0.842
20031W        W88436  15.553  15.258   1.493
20032W        W88437  22.100  32.064  13.535
20033W        W88438  37.299   2.622   2.264
20034W        W88439   0.926  31.682  10.733
20035W        W88440  41.395   2.879  13.876
20036W        W88441  18.870   5.370   0.704
20037W        W88442  32.109  38.951  10.748
20038W        W88443  38.578   8.928   0.848
20039W        W88444  40.469   0.958   0.375
20040W        W88445   3.273   1.250   1.486
20041W        W88446   3.916   4.905  12.425
20042W        W88447  27.544  35.206  11.137
20043W        W88448   4.538  16.851   3.147
20044W        W88449  27.929  18.624   3.139
20045W        W88450  13.120  41.554   3.005
20046W        W88451  41.737  11.469  13.859
20047W        W88452  15.592  35.528   3.681
20048W        W88453  40.961  40.374  11.119
20049W        W88454  32.980  40.462   3.170
20050W        W88455  13.870  44.837  14.274
20051W        W88456  10.149  35.129  11.382
20052W        W88457  17.185  43.413   2.782
20053W        W88458  21.594  27.386   2.324
20054W        W88459   7.612  39.943   1.771
20055W        W88460   3.268  24.153   1.359
20056W        W88461  28.648  18.053  12.959
20057W        W88462  17.525  42.637  11.134
20058W        W88463  40.719  26.215   4.330
20059W        W88464  15.254  21.527  12.009
20060W        W88465  11.186  20.493   4.846
20061W        W88466  29.150  17.656   2.735
20062W        W88467  21.440  22.020  13.479
20063W        W88468   2.807  29.104  12.551
20064W        W88469   1.704  32.072   3.310
20065W        W88470  43.123   0.571  11.129
20066W        W88471  14.746  36.450  10.769
20067W        W88472  11.711  39.959  14.899
20068W        W88473   1.057  35.019   4.977
20069W        W88474   3.022  17.965   1.298
20070W        W88475  11.065  31.048   4.986
20071W        W88476  15.934  39.915   4.155
20072W        W88477  19.515  18.338  13.270
20073W        W88478  16.103  21.922   2.319
20074W        W88479  20.847   0.246  14.776
20075W        W88480  20.324  33.922  14.279
20076W        W88481  26.156  11.837   2.827
20077W        W88482  33.999  14.605  10.670
20078W        W88483  10.695  39.516   3.229
20079W        W88484  26.625   4.954  11.052
20080W        W88485   2.773   8.158  11.087
20081W        W88486  40.006   9.687   1.715
20082W        W88487  21.639  36.888  13.307
20083W        W88488  20.265  38.297   4.242
20084W        W88489  21.612   4.585  13.023
20085W        W88490  19.202  17.532  12.822
20086W        W88491  14.139  24.783  13.840
20087W        W88492  44.954   9.350   3.753
20088W        W88493  22.802  34.909  13.165
20089W        W88494   3.794  39.110   2.768
20090W        W88495  36.511  25.587  11.503
20091W        W88496  10.687  29.462   1.118
20092W        W88497  39.028  10.180  14.857
20093W        W88498  17.149  35.412   1.487
20094W        W88499  15.301  11.792   2.477
20095W        W88500   0.610  11.836  10.666
20096W        W88501   7.905  25.260  11.822
20097W        W88502  39.161  42.952   2.742
20098W        W88503  20.881  16.219   4.907
20099W        W88504  21.584  43.290   3.235
20100W        W88505  23.778  41.237   2.260
20101W        W88506  37.627   0.426   3.351
20102W        W88507  18.367  22.579   4.110
20103W        W88508  13.738  26.038   0.809
20104W        W88509  17.256  19.522  10.863
20105W        W88510  20.810  36.601   1.372
20106W        W88511   7.128  39.541   4.049
20107W        W88512  31.941  43.594  12.508
20108W        W88513   1.563  40.498  14.888
20109W        W88514   3.226  25.160   0.291
20110W        W88515  29.589  32.843   0.747
20111W        W88516  16.937   0.916   3.525
20112W        W88517  35.356  31.820   1.319
20113W        W88518  24.468   3.445  12.512
20114W        W88519  33.456  20.273  12.925
20115W        W88520  24.318   1.610   1.751
20116W        W88521   7.141  34.149   3.339
20117W        W88522   1.844  20.159   2.624
20118W        W88523  13.421  43.730   0.868
20119W        W88524  19.154  35.450  11.464
20120W        W88525  21.684  12.113   2.302
20121W        W88526  15.227  37.770  12.133
20122W        W88527  21.791  22.397  14.394
20123W        W88528  38.523  15.332   3.617
20124W        W88529  29.342  44.478  11.346
20125W        W88530   2.363  17.223   3.458
20126W        W88531  29.385  34.791  10.567
20127W        W88532  24.910  39.974   9.884
20128W        W88533  32.679  25.631   2.249
20129W        W88534   7.548  34.999   0.786
20130W        W88535  40.334  34.866  11.010
20131W        W88536   0.876   6.910   2.498
20132W        W88537  22.261  34.248  14.930
20133W        W88538  20.027  31.905  10.192
20134W        W88539  26.514   1.443   1.363
20135W        W88540  28.285  27.056  11.836
20136W        W88541  28.520   9.893  13.211
20137W        W88542  11.579  35.419   2.195
20138W        W88543  19.124  34.573   2.182
20139W        W88544  39.740  13.101   1.720
20140W        W88545  42.915  29.917  14.845
20141W        W88546  37.370  42.096   4.104
20142W        W88547  44.015  41.099   0.227
20143W        W88548  25.926  44.386   4.064
20144W        W88549  21.728   4.941  14.278
20145W        W88550   7.418  23.512  11.703
20146W        W88551  20.786  25.323   4.606
20147W        W88552  28.714   0.692  14.253
20148W        W88553  23.947  28.937  11.541
20149W        W88554  14.279  14.195  14.461
20150W        W88555  16.024  16.281  10.954
20151W        W88556   9.661  33.083  11.134
20152W        W88557   4.323  16.088   3.797
20153W        W88558   2.745  26.249  14.457
20154W        W88559  33.346  38.569  13.554
20155W        W88560  29.889  28.508  14.851
20156W        W88561  43.467  18.133   3.364
20157W        W88562   1.050   8.729  13.364
20158W        W88563  41.282  29.958  12.560
20159W        W88564  35.522   5.298   2.144
20160W        W88565  18.508   0.953  12.890
20161W        W88566  22.121  43.344   4.939
20162W        W88567   0.728  36.897  13.814
20163W        W88568   1.609  43.711   1.952
20164W        W88569  34.189  19.092  14.421
20165W        W88570  14.624  34.561  10.965
20166W        W88571  29.459  21.804  13.973
20167W        W88572  29.936   3.909   2.860
20168W        W88573  13.650  29.879   1.387
20169W        W88574  36.111  18.077   4.070
20170W        W88575  21.475  13.770   2.370
20171W        W88576  38.047  42.232   2.264
20172W        W88577  42.045  43.334  11.087
20173W        W88578  44.886   0.992   0.502
20174W        W88579  24.230   0.424   2.349
20175W        W88580  28.729  40.886  14.958
20176W        W88581  12.460   3.431  12.661
20177W        W88582  14.774  16.860   3.369
20178W        W88583  24.805  28.608  11.122
20179W        W88584   6.400  42.827   5.070
20180W        W88585  26.109   4.502  11.560
20181W        W88586   6.815  37.345   0.768
20182W        W88587  15.806  17.644   0.048
20183W        W88588  42.961  13.640   3.015
20184W        W88589   2.150   5.266  12.414
20185W        W88590  10.574  27.001  12.013
20186W        W88591  21.520  41.232  11.584
20187W        W88592   5.104  31.416   0.635
20188W        W88593  11.866  18.672   3.981
20189W        W88594  44.840  36.003  10.801
20190W        W88595  18.354  35.008  12.599
20191W        W88596  41.959  20.021  13.873
20192W        W88597  29.857  16.860  11.846
20193W        W88598  18.762  15.207  14.840
20194W        W88599  22.697  37.197  13.942
20195W        W88600  19.739   2.778  13.129
20196W        W88601  27.453   0.078   0.377
20197W        W88602  37.041   0.295   2.739
20198W        W88603  14.621  27.850  12.602
20199W        W88604  36.009  32.632  14.720
20200W        W88605  13.646  19.180   1.288
20201W        W88606  10.780  20.503  14.868
20202W        W88607  37.818  22.499  13.432
20203W        W88608  26.640  16.662   2.373
20204W        W88609  23.140  13.200  13.293
20205W        W88610  42.845   3.455  14.231
20206W        W88611  21.649   6.815   2.303
20207W        W88612  13.725  40.447   2.809
20208W        W88613  28.658   5.784   3.832
20209W        W88614  37.616  39.563   3.280
20210W        W88615   1.537   0.466  14.324
20211W        W88616  23.519   2.722  11.019
20212W        W88617  12.187  17.387  14.490
20213W        W88618  41.431  32.118  12.961
20214W        W88619  30.473  41.609   1.348
20215W        W88620  29.213  22.665  12.144
20216W        W88621  26.108  36.624   3.822
20217W        W88622  39.412   4.261   1.427
20218W        W88623  41.026   5.464  11.550
20219W        W88624  35.727   2.518  11.065
20220W        W88625  32.188  19.104  11.096
20221W        W88626  24.864  17.052  14.714
20222W        W88627   9.745  40.332  13.830
20223W        W88628  37.364  31.258   0.260
20224W        W88629  16.080   9.322   1.654
20225W        W88630   7.755  17.411   4.203
20226W        W88631  30.227  40.666  14.718
20227W        W88632  33.386  41.651  10.288
20228W        W88633   1.366  40.054   3.524
20229W        W88634  25.402  20.894   3.328
20230W        W88635  38.825  13.751   3.608
20231W        W88636  14.228  40.040   2.352
20232W        W88637   8.443   3.519  10.792
20233W        W88638  25.208  29.213   3.797
20234W        W88639  36.349  15.118  14.963
20235W        W88640  38.939  14.843   0.812
20236W        W88641  40.145  19.011   3.227
20237W        W88642  41.267  34.681   2.699
20238W        W88643  42.044  29.471   0.433
20239W        W88644  42.576  32.824   1.355
20240W        W88645  30.041  41.027  14.394
20241W        W88646  13.524  27.059  14.973
20242W        W88647   3.455  33.533   2.755
20243W        W88648  26.722  44.860  13.747
20244W        W88649  44.997   2.344   0.408
20245W        W88650  29.998   4.997   0.833
20246W        W88651  42.826  32.384   1.379
20247W        W88652  44.674  29.181  10.389
20248W        W88653  25.278   6.779   4.706
20249W        W88654  44.259  41.735   2.148
20250W        W88655  34.534  35.188  13.006
20251W        W88656  11.143   7.862  12.081
20252W        W88657  33.597  39.141   0.351
20253W        W88658  19.286  15.154  14.830
20254W        W88659  43.935  40.554  12.031
20255W        W88660  14.740  22.265   0.726
20256W        W88661  31.509  29.511   2.902
20257W        W88662   9.778  23.743  13.465
20258W        W88663  19.010  44.705  11.381
20259W        W88664  40.508  38.512   4.963
20260W        W88665  40.369  23.053   2.225
20261W        W88666  30.533   7.225   0.330
20262W        W88667  22.145  28.074   2.682
20263W        W88668  15.645  17.558  10.670
20264W        W88669   5.188  31.818   4.194
20265W        W88670  24.986   3.538   1.874
20266W        W88671   1.288  20.179   3.359
20267W        W88672  37.985  38.857   3.713
20268W        W88673  39.561  26.072   0.031
20269W        W88674  31.030   9.563  14.538
20270W        W88675   1.336   8.425   2.934
20271W        W88676  33.511   9.082   0.511
20272W        W88677   8.404  14.354  11.109
20273W        W88678  44.025  24.763   0.376
20274W        W88679  27.471   5.895  13.398
20275W        W88680   0.410  10.050   9.992
20276W        W88681  11.244   0.086  11.522
20277W        W88682  13.321  34.250  11.490
20278W        W88683  12.259  35.548   3.768
20279W        W88684  13.605  43.836  10.712
20280W        W88685  34.896  42.163   2.099
20281W        W88686  20.257   2.495   4.620
20282W        W88687   8.847  13.114  11.141
20283W        W88688  13.826  40.333   4.377
20284W        W88689  20.970  17.815   2.722
20285W        W88690   4.924  30.986   2.772
20286W        W88691  15.661  10.695   1.388
20287W        W88692   4.912  22.758  13.846
20288W        W88693  15.342   2.343  12.924
20289W        W88694  42.005  21.094  10.369
20290W        W88695  23.558  31.173   1.642
20291W        W88696   4.125   5.369  14.388
20292W        W88697   7.224   4.130   2.842
20293W        W88698  26.505  22.968   3.274
20294W        W88699  27.022  25.161   2.367
20295W        W88700  21.746   1.085  11.209
20296W        W88701  30.378  13.120   2.107
20297W        W88702  21.770  38.911   2.773
20298W        W88703  21.539  30.179   4.586
20299W        W88704   5.209   6.398   0.168
20300W        W88705  35.829  40.608   1.743
20301W        W88706  10.223  12.841   1.420
20302W        W88707  35.189   7.632   4.529
20303W        W88708  14.068  19.321   0.547
20304W        W88709   9.230   9.913  13.831
20305W        W88710   9.607  11.640  13.791
20306W        W88711  31.374  13.704   4.300
20307W        W88712  11.935  15.463   0.643
20308W        W88713  39.269  20.308  11.747
20309W        W88714  18.355  44.776  13.604
20310W        W88715   9.588  22.589   1.402
20311W        W88716  19.228  16.727  14.446
20312W        W88717  14.035  41.773   3.803
20313W        W88718   5.302  31.620   2.139
20314W        W88719   1.816  16.859   2.304
20315W        W88720  35.048   3.000   1.292
20316W        W88721  24.104   1.380  10.786
20317W        W88722  22.655  13.114   0.056
20318W        W88723  13.851  12.262   2.331
20319W        W88724   5.917   5.145   0.857
20320W        W88725  31.018  17.971   3.775
20321W        W88726   6.639  11.968   3.195
20322W        W88727  19.067  20.583   4.291
20323W        W88728  15.984  42.956   2.501
20324W        W88729  41.433  25.169  14.405
20325W        W88730  31.649  40.002   4.839
20326W        W88731  35.454  28.673  11.618
20327W        W88732   7.661   8.863   3.773
20328W        W88733  34.450  38.566  11.477
20329W        W88734  13.090  33.091   4.536
20330W        W88735  28.612  10.375   2.253
20331W        W88736  41.447  43.304   2.694
20332W        W88737  28.219   1.290   3.773
20333W        W88738   0.220  29.616  11.049
20334W        W88739   7.304  44.032   3.179
20335W        W88740  18.700  12.197   1.454
20336W        W88741  23.576  23.093  14.318
20337W        W88742  26.887  17.675   4.083
20338W        W88743  17.798  26.401  13.472
20339W        W88744   5.110  10.887   3.242
20340W        W88745   7.523  12.145  13.066
20341W        W88746  34.713  23.249   0.813
20342W        W88747   7.340  27.479  14.756
20343W        W88748  17.346  23.498   0.930
20344W        W88749  28.435  29.174  11.925
20345W        W88750  35.899  22.288  12.892
20346W        W88751  20.149  36.903  11.674
20347W        W88752  35.659  34.585   3.742
20348W        W88753  30.055  14.637   3.678
20349W        W88754  42.782  35.442  14.276
20350W        W88755  20.767  32.462  14.427
20351W        W88756  29.788  43.928  12.474
20352W        W88757   9.180  15.632  13.741
20353W        W88758  30.191   7.711   4.700
20354W        W88759   5.880  11.636  10.921
20355W        W88760   4.237  33.930  10.484
20356W        W88761  40.672  32.647  11.071
20357W        W88762  23.516  34.050  13.966
20358W        W88763  30.592  42.392  14.471
20359W        W88764   5.379   5.764   2.134
20360W        W88765   3.679   0.683  12.548
20361W        W88766  44.894  34.389  14.917
20362W        W88767  41.869  31.100  12.650
20363W        W88768  13.702  25.721   0.054
20364W        W88769  39.790   0.878  13.483
20365W        W88770   2.286   4.888   9.700
20366W        W88771  43.744  21.542   2.939
20367W        W88772   1.973  30.860   5.118
20368W        W88773  35.198  30.533   1.762
20369W        W88774   0.242   0.327  13.954
20370W        W88775   7.832  40.485  11.555
20371W        W88776  14.315  31.154  12.388
20372W        W88777  41.112   2.942   4.667
20373W        W88778  28.208   7.230  12.629
20374W        W88779  44.602  18.854   3.752
20375W        W88780  22.742  23.632   3.643
20376W        W88781  44.925  15.738   2.959
20377W        W88782   6.230  28.705  11.212
20378W        W88783  33.906   5.734   3.662
20379W        W88784  26.519  23.225  14.895
20380W        W88785  40.301  30.870   0.760
20381W        W88786  10.499  28.589   0.962
20382W        W88787   6.151  30.534  14.525
20383W        W88788  35.341  16.924  11.726
20384W        W88789  14.680  28.887  14.847
20385W        W88790  23.039   1.992   0.612
20386W        W88791  34.472  42.608   0.198
20387W        W88792  20.080   7.957  11.722
20388W        W88793  28.054   7.327  12.146
20389W        W88794  30.396  21.663  12.996
20390W        W88795  43.844   9.944  12.927
20391W        W88796  29.129  18.790  12.026
20392W        W88797  43.896   5.850   3.235
20393W        W88798   1.091   7.850   4.955
20394W        W88799   6.295   2.298  13.914
20395W        W88800   4.269  24.198   2.441
20396W        W88801  44.877   6.553   4.520
20397W        W88802  32.203  34.630   3.275
20398W        W88803  26.023  31.641  10.632
20399W        W88804   0.371  35.483  12.634
20400W        W88805  39.313  30.449  12.068
20401W        W88806  13.212  22.562   1.234
20402W        W88807  36.887   1.669  13.914
20403W        W88808  18.314  17.523   2.665
20404W        W88809   1.239  44.058  12.393
20405W        W88810   4.771  34.547  10.751
20406W        W88811   4.234   0.996  11.167
20407W        W88812  14.953   9.346   3.222
20408W        W88813  31.588  38.413   1.895
20409W        W88814  26.575  35.000  12.926
20410W        W88815  13.642  13.928  12.556
20411W        W88816  20.854  32.684  14.948
20412W        W88817  37.834  16.098  12.388
20413W        W88818  42.576  23.852   4.794
20414W        W88819  20.413  37.004   3.584
20415W        W88820   7.307  35.214   1.203
20416W        W88821  42.772  12.640   4.501
20417W        W88822  40.447  26.462   1.907
20418W        W88823  13.828  40.905  10.980
20419W        W88824   0.291  43.964   4.849
20420W        W88825  15.055  41.835   1.502
20421W        W88826  30.686   1.899  13.515
20422W        W88827   2.021   4.953  13.869
20423W        W88828  29.093  27.562  14.531
20424W        W88829  31.366  36.959  11.577
20425W        W88830   6.655  35.414  10.626
20426W        W88831  32.952  13.657   4.700
20427W        W88832  31.446   7.023   3.026
20428W        W88833  29.271  39.351  13.347
20429W        W88834   1.473  16.649  11.276
20430W        W88835   1.003  16.464  11.040
20431W        W88836  29.470  21.553   4.977
20432W        W88837  29.073  43.581   5.117
20433W        W88838  23.972  39.010   0.280
20434W        W88839  37.914  24.533  14.526
20435W        W88840  14.700  31.540  13.079
20436W        W88841   0.488  21.778   3.611
20437W        W88842  32.588  10.913   4.720
20438W        W88843  20.365  38.484  13.566
20439W        W88844   2.691  40.109   3.754
20440W        W88845  22.312  12.754  12.666
20441W        W88846  40.740  23.109  10.409
20442W        W88847  21.291   3.002   1.153
20443W        W88848  17.723   2.139   1.761
20444W        W88849  24.570  22.686   2.852
20445W        W88850  33.149  26.571  13.023
20446W        W88851  41.550  35.983   3.133
20447W        W88852  38.292  25.522   3.316
20448W        W88853   6.140   7.322  10.659
20449W        W88854  23.243  20.710   1.938
20450W        W88855  38.033  19.674   3.359
20451W        W88856   5.404  32.036   2.455
20452W        W88857  33.723   9.309  11.456
20453W        W88858  18.554  32.402   3.717
20454W        W88859  15.391  11.727   1.453
20455W        W88860   2.987  33.675  13.037
20456W        W88861  34.860  17.282   4.921
20457W        W88862  28.242  25.515   2.834
20458W        W88863  31.688  42.264  12.807
20459W        W88864   9.285  31.663  14.371
20460W        W88865  18.948  39.278   2.888
20461W        W88866  16.796   5.877  13.024
20462W        W88867  12.146   3.244  13.737
20463W        W88868  37.354   1.636   2.641
20464W        W88869  23.149   9.464   0.636
20465W        W88870  31.621   3.765   3.348
20466W        W88871  35.088  22.816   0.883
20467W        W88872  44.052  15.573  10.012
20468W        W88873   8.602  36.073  14.518
20469W        W88874  14.114  11.883  12.922
20470W        W88875  23.760   8.931  11.106
20471W        W88876  24.631  40.568   1.044
20472W        W88877  16.081  27.162  12.102
20473W        W88878  43.837  40.281  11.603
20474W        W88879  34.202  40.977   0.804
20475W        W88880  27.608  26.115   4.195
20476W        W88881  28.702  17.584   4.069
20477W        W88882  28.730  13.178   3.619
20478W        W88883  43.621  26.757   4.711
20479W        W88884   1.808   3.897   0.350
20480W        W88885  12.128  35.372   2.240
20481W        W88886  11.853  23.670  14.739
20482W        W88887  31.779  29.650  13.368
20483W        W88888  28.483  44.616  11.058
20484W        W88889   7.996  18.129  13.079
20485W        W88890   1.401   1.526  14.817
20486W        W88891  13.385  25.119  12.144
20487W        W88892   0.715  44.714  11.141
20488W        W88893  28.009  13.382  13.488
20489W        W88894   0.045   9.270   2.801
20490W        W88895   3.719   1.273  11.104
20491W        W88896   7.820  42.041  12.509
20492W        W88897  43.340  43.807   4.481
20493W        W88898  16.057  23.561  10.610
20494W        W88899  15.260  17.856  11.401
20495W        W88900   5.217  13.221   4.255
20496W        W88901  12.126  30.444   1.451
20497W        W88902   3.877  15.220   1.488
20498W        W88903  41.634  12.738   4.304
20499W        W88904  24.111  16.185  10.542
20500W        W88905  11.682   5.399   4.133
20501W        W88906   4.527  18.200   2.852
20502W        W88907  12.773  32.383  11.517
20503W        W88908  23.788  42.928   1.756
20504W        W88909  26.690  21.500  10.681
20505W        W88910   4.910  31.928   4.615
20506W        W88911  21.651  16.637   1.675
20507W        W88912   6.645  16.821   4.621
20508W        W88913  29.102  23.779   0.337
20509W        W88914  37.234  17.332  13.640
20510W        W88915  24.138  28.498   1.287
20511W        W88916   9.159  39.960  11.679
20512W        W88917  29.931  42.306   4.360
20513W        W88918  36.598  23.104   0.513
20514W        W88919  44.368  31.608  10.536
20515W        W88920  34.529  33.927  11.317
20516W        W88921  34.321  28.294  10.925
20517W        W88922  26.797  44.374  14.990
20518W        W88923  20.722   1.034  14.479
20519W        W88924   1.073   6.787  13.956
20520W        W88925   2.509   5.422  14.755
20521W        W88926  44.719  41.514  12.523
20522W        W88927  44.448  20.709   0.415
20523W        W88928  40.344  40.540  11.093
20524W        W88929  21.155   7.424  11.143
20525W        W88930  12.813  30.449   3.110
20526W        W88931  10.649   7.319   3.630
20527W        W88932  22.755  44.845   3.706
20528W        W88933  33.398   8.641  12.641
20529W        W88934  13.833  11.854  14.728
20530W        W88935   2.810  20.568  11.657
20531W        W88936  12.778  32.056  11.084
20532W        W88937  41.292   5.469  11.107
20533W        W88938  18.226   8.814  11.127
20534W        W88939  13.611  28.328   4.026
20535W        W88940   3.347  31.681   3.124
20536W        W88941  36.037  31.604  13.604
20537W        W88942  40.588  20.620   2.198
20538W        W88943  12.798  16.650  10.451
20539W        W88944  36.607  37.876  13.040
20540W        W88945   9.118  42.805   3.515
20541W        W88946  41.136  43.515   2.342
20542W        W88947   0.080  15.585  11.567
20543W        W88948  28.579  15.269   3.628
20544W        W88949  16.621   5.606  14.879
20545W        W88950  40.882  44.710  14.421
20546W        W88951  21.016  42.811   1.837
20547W        W88952  42.603  10.331   3.598
20548W        W88953  29.993  26.986   1.780
20549W        W88954   9.757  14.082   2.892
20550W        W88955  21.459  28.597   0.399
20551W        W88956  27.039  18.691   3.200
20552W        W88957  40.052   0.980   3.656
20553W        W88958  31.758  26.133  13.915
20554W        W88959  37.284  28.051   2.928
20555W        W88960  23.857   5.954  13.458
20556W        W88961  24.113  43.554   1.786
20557W        W88962   2.011  22.793  12.389
20558W        W88963   0.695   2.838   3.578
20559W        W88964  30.161  11.259   0.529
20560W        W88965  41.717  21.352  10.713
20561W        W88966  10.030  20.684  10.796
20562W        W88967  33.341  20.670  12.159
20563W        W88968  44.036  44.273  12.359
20564W        W88969   9.177   9.165   0.201
20565W        W88970   8.705  25.109   0.364
20566W        W88971  41.072   1.495  13.505
20567W        W88972  24.034  29.898   3.633
20568W        W88973  12.457  11.287  13.043
20569W        W88974  18.588  40.610   4.415
20570W        W88975   0.988  17.277   1.931
20571W        W88976  18.808   2.233   3.220
20572W        W88977  12.783  36.425   3.301
20573W        W88978  26.918  30.023   1.224
20574W        W88979  34.465  40.963  13.512
20575W        W88980  43.899  16.150   5.084
20576W        W88981   5.437  16.499   1.169
20577W        W88982   6.836  39.054  11.796
20578W        W88983  13.880  41.409  12.066
20579W        W88984  30.478   5.243  10.701
20580W        W88985  34.471   2.272   3.662
20581W        W88986  14.918  29.683  11.661
20582W        W88987  34.030  39.995  14.773
20583W        W88988   9.485  27.063   4.600
20584W        W88989  36.276   5.855   2.484
20585W        W88990  24.418  42.528  14.021
20586W        W88991  34.177  18.945   3.763
20587W        W88992   1.247  26.438  12.083
20588W        W88993  18.055   3.013  14.501
20589W        W88994  25.995  28.532  13.892
20590W        W88995   8.086   4.908  12.596
20591W        W88996  28.662  17.720   2.564
20592W        W88997  15.784  24.686   9.830
20593W        W88998  32.074   1.533  11.493
20594W        W88999  32.683  14.844   0.970
20595W        W89000  10.334   1.254  11.416
20596W        W89001  37.820  13.610   4.595
20597W        W89002  24.423  41.352  10.154
20598W        W89003  10.238  21.699  11.917
20599W        W89004  17.760  24.944   3.054
20600W        W89005  23.366  24.178  11.958
20601W        W89006   7.340   6.188  14.851
20602W        W89007  32.018  44.435   2.813
20603W        W89008  35.160  19.230  11.199
20604W        W89009  43.906  16.840  11.117
20605W        W89010  21.953  14.225   4.333
20606W        W89011   6.154  21.084   2.382
20607W        W89012  10.606  22.070  11.915
20608W        W89013  35.686  12.643   1.681
20609W        W89014   4.914  24.245   2.216
20610W        W89015  19.061  10.160  14.020
20611W        W89016  29.396  19.298   2.162
20612W        W89017  41.556  15.756  13.001
20613W        W89018  41.165  42.798  13.439
20614W        W89019  42.886  33.120  13.915
20615W        W89020  12.208  25.350  14.978
20616W        W89021  37.015   2.777  12.497
20617W        W89022  35.839   4.076   5.273
20618W        W89023  28.526  21.209   1.503
20619W        W89024  25.501   7.226   2.314
20620W        W89025  20.978  25.639  13.469
20621W        W89026  44.349  32.101   4.842
20622W        W89027   1.381  38.469  14.833
20623W        W89028  12.192   3.355  14.279
20624W        W89029  24.664  31.129   0.020
20625W        W89030  38.442  34.339  13.834
20626W        W89031  42.934  11.296  12.589
20627W        W89032   5.173  32.561  13.479
20628W        W89033  10.821  38.309   3.651
20629W        W89034  20.128   8.450  11.710
20630W        W89035  33.914  36.318  13.314
20631W        W89036  15.971  40.236  13.855
20632W        W89037  43.816  15.074  13.593
20633W        W89038  42.026  44.803  14.904
20634W        W89039   0.386  39.450  12.237
20635W        W89040  36.821   1.931   2.765
20636W        W89041   3.210  44.606   3.026
20637W        W89042   9.646  32.112  11.337
20638W        W89043  23.417  18.324   0.846
20639W        W89044  19.219   0.515  12.627
20640W        W89045   8.712   5.288  11.981
20641W        W89046  43.909   0.900   2.378
20642W        W89047  10.153   8.056  11.572
20643W        W89048  10.124  26.941  10.339
20644W        W89049   6.832  15.640   3.560
20645W        W89050  20.171  42.913   1.230
20646W        W89051  18.083  36.895  12.634
20647W        W89052   6.126  33.566  13.506
20648W        W89053  20.756  34.950  11.160
20649W        W89054  22.593  36.518   1.346
20650W        W89055   8.176  35.351  11.218
20651W        W89056  12.770  36.800  11.642
20652W        W89057  39.966  42.753  11.107
20653W        W89058  15.433  35.825   1.423
20654W        W89059  28.026  33.014   2.147
20655W        W89060   3.912  21.776   4.207
20656W        W89061  35.572  13.404  11.188
20657W        W89062  19.300  39.246   0.615
20658W        W89063   0.758  16.123  10.732
20659W        W89064  33.299   4.017  13.387
20660W        W89065  20.160  35.397  11.468
20661W        W89066  25.923  44.816   2.896
20662W        W89067  39.375  23.201   0.379
20663W        W89068   2.800   8.083  13.413
20664W        W89069   3.231   6.532   0.370
20665W        W89070  10.401   4.455  11.024
20666W        W89071  21.177  36.784  12.451
20667W        W89072  43.299  29.430  11.188
20668W        W89073  14.488  34.083   2.190
20669W        W89074  26.252   5.848   1.315
20670W        W89075  31.030  43.828  14.690
20671W        W89076  11.081  40.521   2.759
20672W        W89077  38.868  16.609  10.705
20673W        W89078   8.250   0.153  14.659
20674W        W89079  14.147  26.164   3.234
20675W        W89080  14.660  10.137  10.026
20676W        W89081  30.891  13.818  14.955
20677W        W89082  35.361  24.687   3.094
20678W        W89083  10.355  14.623  12.648
20679W        W89084   4.418  26.997  14.815
20680W        W89085  11.832  37.619   3.139
20681W        W89086  43.368  24.800  10.532
20682W        W89087  34.734  38.776   2.372
20683W        W89088  20.524  25.316  13.442
20684W        W89089   9.778  20.690  12.871
20685W        W89090  38.532  14.788  14.348
20686W        W89091   9.694   2.961   0.968
20687W        W89092  23.237   4.872  13.612
20688W        W89093  18.338  30.421   4.138
20689W        W89094  26.626  11.511  10.630
20690W        W89095  27.885   8.058  14.802
20691W        W89096  39.672  24.736   0.392
20692W        W89097  17.213  26.368   5.095
20693W        W89098  25.775  22.714  12.837
20694W        W89099  25.656  42.286   0.681
20695W        W89100  35.588  30.270   4.862
20696W        W89101  21.041  20.809  12.407
20697W        W89102  18.851  37.292   5.043
20698W        W89103  14.680  21.991   2.461
20699W        W89104  39.051  35.473  12.196
20700W        W89105  35.919  43.033   2.407
20701W        W89106  36.839  40.266   4.176
20702W        W89107  28.530  17.544  12.101
20703W        W89108   3.440  37.985   3.283
20704W        W89109  33.693  23.719   4.184
20705W        W89110  26.538  18.203  11.431
20706W        W89111  42.514  34.070  13.874
20707W        W89112  29.877  36.232   0.818
20708W        W89113   6.493  10.397  14.994
20709W        W89114  19.681   4.736   2.269
20710W        W89115  40.097  17.175   4.961
20711W        W89116  17.057   4.724   5.142
20712W        W89117   5.976  42.114  12.546
20713W        W89118  10.510  42.054  13.312
20714W        W89119  15.793  29.676  14.311
20715W        W89120  22.230  26.035  13.588
20716W        W89121  21.459  34.471  12.110
20717W        W89122  39.971  18.795  13.036
20718W        W89123  20.736  43.490   1.389
20719W        W89124  36.984  30.567   4.597
20720W        W89125  22.985  41.724   3.381
20721W        W89126  32.494   1.281  10.698
20722W        W89127  20.849  18.018  12.276
20723W        W89128  25.070  31.409  12.068
20724W        W89129  41.945  30.656  11.134
20725W        W89130  15.548  16.493   3.795
20726W        W89131  39.111  29.376  14.942
20727W        W89132  39.994  15.755  11.534
20728W        W89133   5.270  39.699  11.096
20729W        W89134  33.148   5.441   5.042
20730W        W89135   9.360  18.983  10.094
20731W        W89136  28.149   5.452  12.361
20732W        W89137   4.760   5.572   2.743
20733W        W89138  13.640  38.622  12.629
20734W        W89139  38.442  18.738   2.282
20735W        W89140   7.345  11.576  14.878
20736W        W89141   0.789  12.920   2.097
20737W        W89142   6.439  30.249   3.381
20738W        W89143  30.565  15.229   3.744
20739W        W89144   6.211  34.588   2.381
20740W        W89145  14.286   2.596   3.659
20741W        W89146  13.607  16.807  13.014
20742W        W89147  23.253   2.756   4.262
20743W        W89148  17.303  30.943   3.534
20744W        W89149  25.039  27.440   1.684
20745W        W89150  30.262  32.596   3.649
20746W        W89151  41.428  21.980  12.713
20747W        W89152  41.011  25.653   3.095
20748W        W89153   0.361  38.324  13.228
20749W        W89154   6.908  16.695   0.384
20750W        W89155  25.228   0.077   3.857
20751W        W89156  35.043  24.585  12.902
20752W        W89157  31.403  30.939   4.323
20753W        W89158  36.279  44.868   0.386
20754W        W89159  44.626   0.607   0.227
20755W        W89160  35.574  10.679  12.094
20756W        W89161  20.439  13.628   2.180
20757W        W89162  29.004  20.590   4.140
20758W        W89163  34.116   9.643  14.728
20759W        W89164   4.709  12.520   1.106
20760W        W89165  12.260  39.510   0.327
20761W        W89166  41.552  31.637   1.553
20762W        W89167  42.787  44.453   4.609
20763W        W89168  40.564   3.284   3.685
20764W        W89169  29.966  39.487   4.543
20765W        W89170  24.051   0.280   1.383
20766W        W89171  10.161  37.476   3.670
20767W        W89172  39.467  15.349   3.193
20768W        W89173  32.262   3.258  12.051
20769W        W89174   9.832   2.923   4.839
20770W        W89175  26.737  10.079  10.717
20771W        W89176  25.667  12.605   0.243
20772W        W89177  35.817  20.584   0.946
20773W        W89178   5.321   9.377  14.070
20774W        W89179  13.735   1.005  13.755
20775W        W89180  16.673  16.832  10.564
20776W        W89181  41.909  40.533  12.065
20777W        W89182  32.190  40.397  13.514
20778W        W89183  44.560  25.618   2.808
20779W        W89184   1.094  10.836  14.814
20780W        W89185  20.154  11.440  11.750
20781W        W89186  23.631  24.965  14.235
20782W        W89187  20.497  30.345   3.761
20783W        W89188  26.075   2.472  12.116
20784W        W89189  42.853  15.369  14.217
20785W        W89190   8.811  43.194   3.678
20786W        W89191  20.250  12.228   1.431
20787W        W89192  22.111  36.456   3.443
20788W        W89193   3.213  25.178   3.220
20789W        W89194  15.887  24.511   4.267
20790W        W89195  21.219  24.656   5.160
20791W        W89196   0.409  26.205   4.193
20792W        W89197  30.140  30.579  14.208
20793W        W89198  41.469  10.583  14.956
20794W        W89199  14.816  25.941   2.124
20795W        W89200   0.947  31.344   1.352
20796W        W89201  35.537  22.491  13.916
20797W        W89202  33.155  37.417  12.889
20798W        W89203   1.843  30.998   0.752
20799W        W89204  23.604  20.035   0.681
20800W        W89205  42.324   7.649   1.180
20801W        W89206  39.796  40.086   1.271
20802W        W89207  30.504  26.412   1.367
20803W        W89208  18.683  32.931  13.811
20804W        W89209  16.651  24.005  14.287
20805W        W89210  41.277  37.589  13.918
20806W        W89211  41.917  17.523   2.843
20807W        W89212  14.713  17.593  11.178
20808W        W89213   8.897  30.795   5.154
20809W        W89214  14.250  22.252  11.707
20810W        W89215   3.831  26.421  11.323
20811W        W89216  24.121  26.465   1.811
20812W        W89217  20.984   7.224  13.419
20813W        W89218   0.512   3.770  14.828
20814W        W89219   7.947  16.752  11.092
20815W        W89220  33.475  22.244   1.495
20816W        W89221  16.368   1.411   3.049
20817W        W89222  21.469  13.452   3.246
20818W        W89223  23.654  12.071   0.801
20819W        W89224   2.716  28.147   3.998
20820W        W89225  16.793  15.545   4.614
20821W        W89226  13.851  17.034   2.821
20822W        W89227  11.524  11.343   1.380
20823W        W89228  27.896  30.112  12.970
20824W        W89229   7.013  44.866   2.722
20825W        W89230  29.217  41.293   1.793
20826W        W89231  10.975  33.347   3.174
20827W        W89232  14.176  30.094  11.461
20828W        W89233   4.263  37.640   0.822
20829W        W89234  26.567   8.258   4.897
20830W        W89235  16.730  11.153   2.761
20831W        W89236  14.876   6.176  11.400
20832W        W89237   6.431  26.142   1.860
20833W        W89238  37.645  36.359  13.104
20834W        W89239  36.648  31.433  12.508
20835W        W89240  18.207   6.770   3.147
20836W        W89241  17.113  41.268  12.271
20837W        W89242  26.133  31.180   3.202
20838W        W89243  14.100   0.696   3.861
20839W        W89244  41.956   3.488  12.874
20840W        W89245  17.544  29.601   1.262
20841W        W89246   4.946  43.097   5.083
20842W        W89247   1.931  10.316  11.729
20843W        W89248  27.653  24.083  11.806
20844W        W89249  34.003  19.509  12.598
20845W        W89250  21.585  33.906  13.621
20846W        W89251  14.398  27.514  10.591
20847W        W89252  17.748  27.676  14.544
20848W        W89253  23.096   0.802  12.832
20849W        W89254  19.464  18.733   1.190
20850W        W89255  41.332   8.547  12.560
20851W        W89256  12.523  26.208  14.408
20852W        W89257  34.276  43.834  12.340
20853W        W89258   4.239  20.470   2.829
20854W        W89259   7.586  37.191   1.231
20855W        W89260  17.232  22.100  11.685
20856W        W89261   6.911  31.490  13.388
20857W        W89262  32.095   8.410   1.496
20858W        W89263   1.489  42.772   0.252
20859W        W89264   3.794  43.209  11.988
20860W        W89265  38.521   2.946  14.800
20861W        W89266  35.956  15.459  13.355
20862W        W89267   3.425  34.448  10.768
20863W        W89268   1.306   5.745   0.224
20864W        W89269  28.945  35.119   4.544
20865W        W89270   2.056  16.753  14.492
20866W        W89271   8.576  12.021   0.285
20867W        W89272   5.911  19.412   3.808
20868W        W89273  21.052  32.835   4.766
20869W        W89274  29.131  11.224  10.905
20870W        W89275  35.367  15.260   2.493
20871W        W89276   4.554  29.133  13.298
20872W        W89277  18.388  14.876  14.847
20873W        W89278  35.376  38.765  12.971
20874W        W89279   0.341  20.517  14.874
20875W        W89280  13.827   2.854   0.851
20876W        W89281  15.810  43.052  12.779
20877W        W89282   0.659  42.827  14.863
20878W        W89283  36.958  32.406  13.726
20879W        W89284  21.365  30.670   4.640
20880W        W89285  41.949  26.209  12.112
20881W        W89286  23.202   5.634  14.705
20882W        W89287  38.516  18.471   0.998
20883W        W89288   8.436  10.736  14.581
20884W        W89289  38.605   1.359   5.082
20885W        W89290  30.379  16.536  12.511
20886W        W89291   9.487   8.617   0.928
20887W        W89292  30.564  37.169   4.995
20888W        W89293   1.830   0.757  10.745
20889W        W89294   3.261  27.607   3.579
20890W        W89295  30.073  33.034   0.064
20891W        W89296   7.140  17.630  13.356
20892W        W89297  14.846  36.975  12.108
20893W        W89298  28.716  38.239   4.444
20894W        W89299   4.222   9.658  12.330
20895W        W89300  30.282  16.281  14.279
20896W        W89301  27.899  38.586  12.023
20897W        W89302  31.356  11.130  14.196
20898W        W89303  21.139   4.095  10.965
20899W        W89304  39.354  20.628  12.549
20900W        W89305  34.013  15.175  11.980
20901W        W89306   2.878  44.437  14.434
20902W        W89307  42.304  35.466   2.657
20903W        W89308  24.938  20.135   4.395
20904W        W89309  43.722  39.495  14.500
20905W        W89310   6.791  10.648   1.007
20906W        W89311  44.079  20.606   0.058
20907W        W89312  13.909  44.294  10.682
20908W        W89313  42.850   8.946  14.822
20909W        W89314  41.000  20.457  12.150
20910W        W89315  42.023  17.489  14.234
20911W        W89316  32.804  19.268  13.505
20912W        W89317  13.058  44.489  11.170
20913W        W89318  25.071  36.884   1.280
20914W        W89319  26.978   5.384  11.046
20915W        W89320  28.321  44.033   0.384
20916W        W89321  39.827  22.345  13.122
20917W        W89322  31.465   3.943   4.861
20918W        W89323  37.337  14.365   1.745
20919W        W89324  28.606  27.611   2.224
20920W        W89325  16.757  34.480   0.972
20921W        W89326  25.269  30.205   3.650
20922W        W89327  37.846  31.279  12.568
20923W        W89328  25.781  23.260   1.039
20924W        W89329  44.031  16.282   3.834
20925W        W89330  42.453  12.219   2.363
20926W        W89331  12.893  21.071   3.396
20927W        W89332  19.439   5.186   2.144
20928W        W89333  11.224  40.654   0.203
20929W        W89334  14.647  25.366   3.413
20930W        W89335  34.119  23.984   4.625
20931W        W89336   4.307  34.635   4.826
20932W        W89337  10.192   9.995  14.437
20933W        W89338  15.150   6.750  14.444
20934W        W89339   2.352  20.146   4.897
20935W        W89340   0.532  44.187  13.513
20936W        W89341   0.683   4.229   4.634
20937W        W89342   0.958   0.915   2.230
20938W        W89343  44.099  17.636   1.285
20939W        W89344  27.871  27.847   1.798
20940W        W89345  35.582  29.969   3.381
20941W        W89346  30.425  12.003  13.442
20942W        W89347   9.388  24.539   3.631
20943W        W89348  41.206  37.897   1.747
20944W        W89349   5.346  32.467  10.769
20945W        W89350  44.486  44.260   0.004
20946W        W89351  31.820  20.985   0.702
20947W        W89352   2.412  16.098   2.347
20948W        W89353  12.848  22.273   3.233
20949W        W89354  16.608  39.073  10.133
20950W        W89355  38.585  28.031   0.463
20951W        W89356  21.043  34.208   1.270
20952W        W89357  36.618  36.637  11.032
20953W        W89358  12.744  21.177   2.425
20954W        W89359   8.671  38.091   1.365
20955W        W89360   8.399   1.919  10.788
20956W        W89361  28.160   5.964   0.900
20957W        W89362   6.411  13.286   3.794
20958W        W89363  39.955  18.767  13.602
20959W        W89364  27.893  22.297   4.073
20960W        W89365  26.066  16.715   9.995
20961W        W89366  41.950  35.026  12.509
20962W        W89367  16.767  12.162   3.559
20963W        W89368   9.122  13.681   0.358
20964W        W89369   0.130  20.023   4.008
20965W        W89370  31.092  39.879   3.195
20966W        W89371  34.367   9.848  12.797
20967W        W89372  24.831  41.422   2.278
20968W        W89373  13.389  30.852  12.045
20969W        W89374  32.502  23.067  10.541
20970W        W89375  40.694  44.650  10.834
20971W        W89376   4.120  14.307  13.067
20972W        W89377   6.132  16.926   0.814
20973W        W89378  36.661  13.093   0.805
20974W        W89379   9.708  13.938  12.485
20975W        W89380  22.252  16.921   4.229
20976W        W89381  30.487  26.337   4.592
20977W        W89382   9.193  20.113  12.422
20978W        W89383  23.462  34.600  12.752
20979W        W89384  34.254   0.629   3.766
20980W        W89385   5.311  39.752   4.184
20981W        W89386  21.135   6.966   0.185
20982W        W89387  38.822  34.391  11.622
20983W        W89388  16.265   0.569   5.377
20984W        W89389  33.188   6.689  10.989
20985W        W89390   9.735  38.446   0.698
20986W        W89391  35.441   2.237   3.702
20987W        W89392  34.989   6.832   1.852
20988W        W89393  27.615   6.991   4.237
20989W        W89394  25.975  25.572   1.026
20990W        W89395  27.415  13.280   2.907
20991W        W89396  30.705   4.378  12.041
20992W        W89397   7.743  21.960   2.825
20993W        W89398   8.434  18.763   3.227
20994W        W89399   1.582   2.008  14.821
20995W        W89400  35.939   7.411   1.502
20996W        W89401  17.567  16.752   4.281
20997W        W89402   3.224   0.499   3.226
20998W        W89403  30.404  25.173   2.513
20999W        W89404  26.139  31.227  14.923
21000W        W89405  33.132  11.244   1.720
21001W        W89406  38.476  21.626  12.340
21002W        W89407  15.844  39.610  14.683
21003W        W89408  33.188  35.424  11.604
21004W        W89409  29.886  19.992   2.264
21005W        W89410   0.162   1.622  11.880
21006W        W89411   6.988  10.192   3.678
21007W        W89412  21.179  44.877   0.548
21008W        W89413  41.571   7.562   3.209
21009W        W89414  18.494  33.062   0.985
21010W        W89415   3.919  25.195  10.650
21011W        W89416   8.387  24.649  14.876
21012W        W89417  17.798  20.310  10.495
21013W        W89418  15.302  26.105   2.525
21014W        W89419  31.614  42.216   4.119
21015W        W89420   4.212  42.840   1.872
21016W        W89421  36.534  25.516  10.646
21017W        W89422  26.901  30.184  11.518
21018W        W89423  14.806  11.165   3.288
21019W        W89424  23.639  21.983   4.826
21020W        W89425  32.435  32.990  11.613
21021W        W89426   2.684   7.300  14.331
21022W        W89427   2.209  43.834   4.898
21023W        W89428  26.997  10.845   2.812
21024W        W89429  18.797  32.894  13.267
21025W        W89430  39.522   9.555   0.781
21026W        W89431   8.409  39.499  11.902
21027W        W89432  18.834  14.151  11.560
21028W        W89433   7.118  37.547   3.846
21029W        W89434  32.388  33.413  10.401
21030W        W89435   9.924  36.079  13.493
21031W        W89436  44.313   3.711   2.495
21032W        W89437  15.789  19.271  14.882
21033W        W89438  26.121  16.677  14.552
21034W        W89439  23.189   8.072   4.320
21035W        W89440  27.087  16.116  13.289
21036W        W89441  25.037  29.412   4.948
21037W        W89442   7.477  31.706  10.472
21038W        W89443  29.914  36.644   2.655
21039W        W89444  36.678  36.060   4.085
21040W        W89445   0.497  40.463  11.139
21041W        W89446  37.813   2.353   0.300
21042W        W89447   9.799   8.129   1.671
21043W        W89448  21.771   0.451   2.917
21044W        W89449  16.147  33.591  13.385
21045W        W89450  34.490   0.942  13.922
21046W        W89451   7.930   3.910   4.217
21047W        W89452  22.931  30.266   4.641
21048W        W89453  24.029  30.452  11.533
21049W        W89454  20.602  27.641   0.398
21050W        W89455  12.849  33.509   3.130
21051W        W89456  37.799   3.734  12.961
21052W        W89457  36.087  17.177  12.874
21053W        W89458  34.797  10.725  13.309
21054W        W89459  17.855  31.000   0.268
21055W        W89460  42.379  44.239  12.855
21056W        W89461  31.250   9.277  14.949
21057W        W89462  19.076  38.574  14.609
21058W        W89463  39.376  40.968   0.367
21059W        W89464  31.838  18.674   0.506
21060W        W89465  12.693  38.823   4.572
21061W        W89466  15.967  41.929   4.570
21062W        W89467  11.161  23.147  14.878
21063W        W89468   2.825   9.101  11.934
21064W        W89469   4.572  43.544  14.963
21065W        W89470   3.413  12.533  10.574
21066W        W89471  32.367  16.794   1.992
21067W        W89472  29.549  23.061  12.115
21068W        W89473   9.788  32.564  11.141
21069W        W89474   3.250  16.566   1.944
21070W        W89475  15.406  10.606   2.808
21071W        W89476  37.738  17.649   2.063
21072W        W89477  32.292  19.366  14.943
21073W        W89478  20.268  25.478   4.676
21074W        W89479  19.525   7.767  13.422
21075W        W89480  10.254  23.295  11.137
21076W        W89481  26.610   0.827  13.920
21077W        W89482  21.947  32.601  11.049
21078W        W89483  31.147  33.146  13.961
21079W        W89484  30.392  36.449   2.742
21080W        W89485  26.163  32.756   0.614
21081W        W89486  13.891  13.573   5.110
21082W        W89487  22.623  25.723  11.925
21083W        W89488   0.788  23.494   0.442
21084W        W89489  31.184  16.467   0.287
21085W        W89490   6.370  30.511   2.423
21086W        W89491   7.930   4.329   4.522
21087W        W89492  34.866  23.134   3.922
21088W        W89493  23.212  23.750  11.594
21089W        W89494  30.680  20.536   1.711
21090W        W89495  28.819  12.366   3.120
21091W        W89496  32.953  19.091   4.125
21092W        W89497  13.645   2.920   3.346
21093W        W89498   4.286   2.194   4.431
21094W        W89499  31.964  10.222   1.943
21095W        W89500  25.982  38.058   4.121
21096W        W89501  17.939  10.729  13.425
21097W        W89502  14.794  37.502  12.115
21098W        W89503  29.958  14.378   1.731
21099W        W89504  14.849  12.172   0.926
21100W        W89505  19.086  11.760   2.652
21101W        W89506  22.460  27.589  11.923
21102W        W89507  10.123  33.019   4.335
21103W        W89508  41.248  14.818   1.334
21104W        W89509  10.640   9.724  13.456
21105W        W89510   3.908  39.963   1.119
21106W        W89511  10.703   4.009   4.692
21107W        W89512  30.075  43.489   4.229
21108W        W89513  40.549  29.559   1.775
21109W        W89514  21.243  22.655  10.591
21110W        W89515  23.084  12.559  14.518
21111W        W89516  23.141   4.554   4.147
21112W        W89517  12.111   9.886   0.321
21113W        W89518  16.981  43.220   4.183
21114W        W89519  34.474  14.743   4.701
21115W        W89520  19.671  36.466   5.135
21116W        W89521  24.714  37.071  10.930
21117W        W89522  21.715  32.090  11.038
21118W        W89523  18.262  31.561  13.498
21119W        W89524  11.687  37.361  13.662
21120W        W89525  31.118  11.842   0.989
21121W        W89526  13.080  41.617  13.410
21122W        W89527  13.847  31.103   2.605
21123W        W89528  34.159  35.234   2.287
21124W        W89529  40.805  35.668   1.314
21125W        W89530  14.585  25.611   3.872
21126W        W89531  17.206  35.509  14.929
21127W        W89532  18.884  37.829  13.916
21128W        W89533  42.861  43.610  12.292
21129W        W89534  31.171  37.132  14.270
21130W        W89535   6.845  11.560  12.376
21131W        W89536  30.571  33.225   2.009
21132W        W89537  34.676  41.840  13.924
21133W        W89538  15.346  44.742   0.167
21134W        W89539  12.588  14.940  14.330
21135W        W89540   9.235  34.518   0.469
21136W        W89541  21.228  17.522  14.312
21137W        W89542  29.976  25.754   3.874
21138W        W89543  14.315  38.028  12.415
21139W        W89544  32.365  31.519  11.558
21140W        W89545   7.717  32.027  10.877
21141W        W89546  32.905  29.708   0.314
21142W        W89547  44.672  31.107   2.808
21143W        W89548  37.221  17.199  11.843
21144W        W89549  16.134   1.285  10.313
21145W        W89550   4.853  11.746   4.115
21146W        W89551   0.347  14.816   2.696
21147W        W89552  15.554  17.834   4.756
21148W        W89553   7.133  36.145  14.467
21149W        W89554  38.445   2.623   9.612
21150W        W89555  20.228  14.651  10.582
21151W        W89556   7.998  34.932  10.675
21152W        W89557   5.100  38.905  12.268
21153W        W89558  19.604  44.756   3.128
21154W        W89559  22.620  24.990  12.781
21155W        W89560  28.053   2.624  13.132
21156W        W89561  28.635  20.820  11.643
21157W        W89562  30.566  32.606  13.035
21158W        W89563  19.204  41.810   4.025
21159W        W89564   8.271   5.110  12.160
21160W        W89565  10.716  36.617   1.751
21161W        W89566  20.137  25.645   2.962
21162W        W89567  35.709  28.016   1.828
21163W        W89568  29.556  17.687  12.512
21164W        W89569   0.337  20.873  12.582
21165W        W89570  11.254  21.767  11.589
21166W        W89571   9.813   1.190  12.244
21167W        W89572   6.651  32.679  10.645
21168W        W89573  39.820  29.395  12.984
21169W        W89574  27.871  14.902  14.469
21170W        W89575   4.138  33.899   0.227
21171W        W89576  13.304  31.635   3.396
21172W        W89577  39.356  15.248   3.703
21173W        W89578  34.947  29.093   4.555
21174W        W89579  44.284  41.177   2.147
21175W        W89580  38.531   7.420   3.788
21176W        W89581  20.831  23.297   5.109
21177W        W89582  32.897  18.151   4.690
21178W        W89583  16.258  22.702   4.597
21179W        W89584  10.178   7.188  10.662
21180W        W89585  26.195  31.095  11.525
21181W        W89586  36.871   4.167  11.109
21182W        W89587  25.097  28.352   4.580
21183W        W89588  13.567  39.906   0.240
21184W        W89589   7.294  12.265   2.359
21185W        W89590  37.126   5.893  13.435
21186W        W89591  31.765   8.748  14.271
21187W        W89592  16.970   5.613  12.562
21188W        W89593  34.077  39.610   2.272
21189W        W89594  22.796   5.434   0.487
21190W        W89595  38.816  33.878  11.017
21191W        W89596  16.214  24.031   2.563
21192W        W89597  13.694  28.501  13.583
21193W        W89598   5.607  15.163   2.500
21194W        W89599   9.314  28.100  13.336
21195W        W89600  10.229   7.105   3.847
21196W        W89601  18.140  31.508   4.896
21197W        W89602  14.197  35.011  14.778
21198W        W89603  15.098  34.492  11.719
21199W        W89604  13.313  28.736   1.250
21200W        W89605  44.726  39.887  14.043
21201W        W89606   4.044  29.145   1.923
21202W        W89607   0.260  40.238   0.366
21203W        W89608   5.939  24.939  11.019
21204W        W89609  28.482  11.848  12.265
21205W        W89610  44.987   6.848   3.709
21206W        W89611  24.676   2.454  12.826
21207W        W89612  39.968   6.733   4.268
21208W        W89613  28.500  26.983  13.348
21209W        W89614  41.436  29.205   2.944
21210W        W89615  25.352  25.676   4.183
21211W        W89616  43.562  18.113   2.848
21212W        W89617   7.585  11.049  11.956
21213W        W89618  39.852  11.201   0.156
21214W        W89619  23.608  16.603  10.572
21215W        W89620  23.175  33.577  13.614
21216W        W89621  40.517  11.357   3.759
21217W        W89622   0.418   7.148  14.280
21218W        W89623   6.176   3.015  14.832
21219W        W89624  12.201  35.695  12.286
21220W        W89625  35.054  36.432  11.464
21221W        W89626  42.756  41.301  13.367
21222W        W89627  38.131  14.240   2.231
21223W        W89628  24.507  23.773  13.925
21224W        W89629  40.104   8.365   0.391
21225W        W89630  41.787  36.896  11.367
21226W        W89631  12.839  44.525  12.526
21227W        W89632  41.909  23.088  14.764
21228W        W89633  32.712  35.477  14.886
21229W        W89634  35.550  33.980  10.738
21230W        W89635  40.971  10.141   0.132
21231W        W89636  40.706   8.448  10.040
21232W        W89637  44.174  35.501   4.028
21233W        W89638  44.304  11.799   5.037
21234W        W89639  38.594  43.730   2.392
21235W        W89640   7.888  15.300   4.071
21236W        W89641  34.856  16.971  14.265
21237W        W89642  38.609   6.358   3.218
21238W        W89643  11.312  20.653  13.075
21239W        W89644  21.612  34.878   2.222
21240W        W89645  22.576  37.095   3.827
21241W        W89646  17.696   3.700   2.858
21242W        W89647  32.599   0.262  11.883
21243W        W89648   4.757  13.894   1.681
21244W        W89649   1.896   4.819   1.905
21245W        W89650  11.389  43.844   0.796
21246W        W89651   3.380  37.302  11.081
21247W        W89652  15.606  22.110  10.393
21248W        W89653  18.892  43.824   2.927
21249W        W89654  29.645  27.607  13.406
21250W        W89655  25.076  12.718   1.946
21251W        W89656  42.826  23.516  12.397
21252W        W89657   5.201  28.638   0.219
21253W        W89658  27.204  20.542   4.556
21254W        W89659   1.202  17.315  12.564
21255W        W89660   8.369   7.383   3.370
21256W        W89661  11.108  29.427  13.023
21257W        W89662   2.186   2.490   3.621
21258W        W89663  38.829  20.613  12.500
21259W        W89664   8.785  23.148   4.586
21260W        W89665  34.627  21.256  10.798
21261W        W89666  20.829  44.611   3.694
21262W        W89667  12.949  31.154  10.392
21263W        W89668  44.840  44.372   3.381
21264W        W89669   0.891  19.249  11.599
21265W        W89670   7.910  29.936   2.196
21266W        W89671  14.652  18.212   3.893
21267W        W89672  28.508  35.606   0.617
21268W        W89673   6.224  29.938   4.259
21269W        W89674   8.448  41.574   4.285
21270W        W89675   3.727  15.736   1.459
21271W        W89676  20.236  36.512   3.488
21272W        W89677  21.716  12.218   4.298
21273W        W89678   8.899   4.666  12.891
21274W        W89679  12.194   4.767  12.325
21275W        W89680  24.052   8.650   3.621
21276W        W89681  11.734  13.438  10.519
21277W        W89682  33.702  35.359  11.520
21278W        W89683  11.593  11.860   0.490
21279W        W89684   1.277  28.932   1.833
21280W        W89685  30.858  25.564  12.481
21281W        W89686  33.135   0.029   2.451
21282W        W89687  11.216   6.342  10.559
21283W        W89688  18.767  41.353   2.187
21284W        W89689  44.251  16.648   0.514
21285W        W89690  26.130  18.189   2.886
21286W        W89691  32.111  11.563  10.356
21287W        W89692  18.117  10.943  12.989
21288W        W89693   4.013   9.109   5.053
21289W        W89694  35.422   4.471  13.133
21290W        W89695  43.435   6.716  14.478
21291W        W89696  33.074  16.092   1.876
21292W        W89697  21.374  24.919  14.952
21293W        W89698  35.221  13.660   2.472
21294W        W89699  42.426  11.403   3.772
21295W        W89700  30.238  22.818   0.507
21296W        W89701   7.537  41.693  11.578
21297W        W89702  21.037   7.815   4.633
21298W        W89703  34.083  42.487   1.829
21299W        W89704   6.821  36.574   3.737
21300W        W89705  41.329  35.036   1.223
21301W        W89706  43.071  23.695   0.264
21302W        W89707  14.158  28.641  12.331
21303W        W89708  23.673  40.896   4.124
21304W        W89709  12.226  26.742  11.979
21305W        W89710  21.167   3.497   1.413
21306W        W89711  42.835  25.408  14.457
21307W        W89712  20.621  12.303   4.103
21308W        W89713  38.057  13.739  13.414
21309W        W89714  33.900   1.190  12.509
21310W        W89715  32.666  10.220   2.312
21311W        W89716  31.521   2.282   1.862
21312W        W89717  10.904  30.421  12.016
21313W        W89718  41.764   4.986  11.854
21314W        W89719   7.175  14.820  10.236
21315W        W89720  22.929   8.378  11.250
21316W        W89721  11.878  19.449  14.522
21317W        W89722  10.370  14.618   4.580
21318W        W89723  15.147  19.643   3.280
21319W        W89724  44.410  10.561   0.445
21320W        W89725  14.340  40.375   3.991
21321W        W89726  41.422  24.033  13.857
21322W        W89727  34.917   8.185   0.449
21323W        W89728  26.654  11.900   3.324
21324W        W89729  29.822  19.600   3.207
21325W        W89730   5.513   0.015  14.661
21326W        W89731   7.375  14.860   2.256
21327W        W89732   4.247   9.922   4.316
21328W        W89733  42.743  30.429   4.156
21329W        W89734  30.985  18.293  11.722
21330W        W89735  21.816  41.322  14.609
21331W        W89736   7.386   4.945  14.277
21332W        W89737  10.051  32.208  12.052
21333W        W89738  13.537  14.240  14.923
21334W        W89739  18.482   0.461   1.064
21335W        W89740  44.236  35.116   2.325
21336W        W89741  35.792  28.401   3.671
21337W        W89742  28.903  20.096  10.736
21338W        W89743  15.262  32.507   2.742
21339W        W89744  17.126   5.210   0.464
21340W        W89745  15.284  42.942  10.660
21341W        W89746   9.822  30.668  13.105
21342W        W89747  41.221  38.162  12.962
21343W        W89748  13.129  17.687   4.873
21344W        W89749  32.813   5.800   1.817
21345W        W89750  40.058  25.131   2.699
21346W        W89751  26.544  17.292  13.429
21347W        W89752   4.478   1.471  14.574
21348W        W89753  41.852  36.039  11.611
21349W        W89754  35.937   0.070   2.303
21350W        W89755  33.434  17.137  13.879
21351W        W89756  14.137  14.050  11.579
21352W        W89757  13.545  31.836   1.448
21353W        W89758  17.320  28.684   4.221
21354W        W89759   6.212   6.902   2.856
21355W        W89760  26.989  42.937   2.226
21356W        W89761   5.154  35.295   2.390
21357W        W89762  40.511  10.941  11.470
21358W        W89763   9.451   3.220   2.281
21359W        W89764  27.540  22.769   2.236
21360W        W89765  30.527   2.170   4.944
21361W        W89766  43.022   3.980  11.182
21362W        W89767  43.103  31.514  14.460
21363W        W89768   2.749  40.483   4.606
21364W        W89769  15.627  22.772   0.731
21365W        W89770  19.701   5.584   1.960
21366W        W89771  16.973   8.576   0.264
21367W        W89772   6.833   1.884   1.774
21368W        W89773  44.760  13.761   3.828
21369W        W89774  16.149  26.726  11.857
21370W        W89775  32.449  44.328   3.127
21371W        W89776  18.189  30.639  12.925
21372W        W89777   4.650  21.656   3.592
21373W        W89778  40.146  38.704  13.916
21374W        W89779  41.505  35.118  14.223
21375W        W89780  20.683  13.539  12.810
21376W        W89781  28.420  15.380   1.700
21377W        W89782   4.815  27.542  13.286
21378W        W89783  17.882  40.853   4.121
21379W        W89784  24.560  27.851   0.658
21380W        W89785   1.843  30.984   4.647
21381W        W89786  14.346  42.388   0.321
21382W        W89787   3.919  31.701  13.642
21383W        W89788  41.367  25.553   2.198
21384W        W89789   4.502  37.157  12.492
21385W        W89790   6.025  35.361   3.801
21386W        W89791  32.566  33.423  11.394
21387W        W89792  19.206  28.867   0.009
21388W        W89793   0.248  12.376   4.166
21389W        W89794  20.131  30.293  14.951
21390W        W89795  41.092  17.699  14.813
21391W        W89796  41.461   1.346  10.833
21392W        W89797   5.344   8.942   3.309
21393W        W89798   3.215   2.333  11.184
21394W        W89799  23.732   3.217   3.089
21395W        W89800  26.420   5.732   4.556
21396W        W89801  40.048  11.288  12.160
21397W        W89802  30.798  27.426  12.472
21398W        W89803   3.673  42.479  11.029
21399W        W89804  33.553   1.796  13.823
21400W        W89805   3.089  43.424  11.475
21401W        W89806  24.124  18.516  11.759
21402W        W89807  13.637  38.623   0.878
21403W        W89808  14.866   3.797   4.920
21404W        W89809   1.731  36.527   0.006
21405W        W89810  18.569   3.124  13.387
21406W        W89811  26.104   4.529  14.960
21407W        W89812  36.943  27.974  11.441
21408W        W89813  23.056   6.954   4.816
21409W        W89814  42.041  16.564  10.927
21410W        W89815  39.760  20.783   2.484
21411W        W89816  43.558  43.699   2.271
21412W        W89817  38.385   7.892   4.196
21413W        W89818  39.230   3.969  11.756
21414W        W89819   0.258  15.956   3.912
21415W        W89820  14.849  29.653  14.507
21416W        W89821  13.335  10.175   3.230
21417W        W89822   4.151  36.158  13.442
21418W        W89823  17.052  23.196   2.347
21419W        W89824   5.158  15.617   3.215
21420W        W89825   2.853  31.687  14.283
21421W        W89826  23.709  19.514   1.386
21422W        W89827   0.105   0.476   0.347
21423W        W89828  35.338  37.966   1.743
21424W        W89829  20.761  11.813  10.605
21425W        W89830  11.567   6.406  12.400
21426W        W89831  31.327  15.097   4.078
21427W        W89832  40.696  20.588   4.814
21428W        W89833   8.457   8.680  12.697
21429W        W89834  21.070  27.911  10.709
21430W        W89835  39.278   4.713   0.009
21431W        W89836  25.382  30.020  11.626
21432W        W89837   5.945   6.867  14.993
21433W        W89838   8.041  29.112   0.508
21434W        W89839  11.848   5.356  14.469
21435W        W89840   1.770  38.610   1.749
21436W        W89841  34.796   8.611  10.719
21437W        W89842  13.581  33.876   0.486
21438W        W89843  43.778  39.423   1.124
21439W        W89844   7.460  14.811  13.102
21440W        W89845  27.179  23.168  14.086
21441W        W89846  19.918  39.057  11.072
21442W        W89847   2.281  25.026   4.121
21443W        W89848  31.038   4.669   3.744
21444W        W89849  24.660  40.119   2.402
21445W        W89850   2.747  35.427   1.817
21446W        W89851  15.771  23.612  14.333
21447W        W89852  18.145  44.875   2.878
21448W        W89853  40.461   1.342  13.956
21449W        W89854   3.864  28.784  14.673
21450W        W89855  21.506  42.542  12.491
21451W        W89856  34.119  24.533   4.704
21452W        W89857  33.612  29.635  12.980
21453W        W89858  28.400  19.827   1.377
21454W        W89859   7.073   2.969   1.238
21455W        W89860  34.829  42.470   0.751
21456W        W89861  22.330  24.285  12.857
21457W        W89862  31.159  22.526  12.979
21458W        W89863   1.948   2.728   3.203
21459W        W89864  35.629  31.341  12.148
21460W        W89865  15.717  28.920  12.213
21461W        W89866  37.892   7.640  11.607
21462W        W89867  26.450  18.748   1.020
21463W        W89868  18.602  27.010  13.591
21464W        W89869   7.368  16.351  14.263
21465W        W89870  42.280  13.605  13.385
21466W        W89871  25.739  14.162   4.980
21467W        W89872  39.359  22.472  14.767
21468W        W89873  24.730  20.169   4.893
21469W        W89874  24.646  10.230  10.653
21470W        W89875  36.557  16.731   0.396
21471W        W89876  13.207   8.641   0.033
21472W        W89877  37.589   7.822  14.931
21473W        W89878  37.597  13.813   3.731
21474W        W89879  30.930  42.187   1.703
21475W        W89880  12.553  16.121  12.008
21476W        W89881  34.505  37.511  11.283
21477W        W89882  27.820  24.561   2.442
21478W        W89883  23.609   5.395  14.029
21479W        W89884  33.849  35.395  12.349
21480W        W89885   5.748  18.685  11.239
21481W        W89886  32.748  37.349   1.118
21482W        W89887  38.184  26.070   0.269
21483W        W89888  18.227  27.180   2.248
21484W        W89889   4.438  33.747   2.647
21485W        W89890   2.728   5.235  11.188
21486W        W89891  17.098   1.367   3.713
21487W        W89892   9.872  31.087  13.890
21488W        W89893  10.823  24.477  11.110
21489W        W89894  15.881  13.697  11.105
21490W        W89895   9.109  10.442   0.717
21491W        W89896   3.851  23.285   0.350
21492W        W89897  30.042  44.956  11.886
21493W        W89898   9.472  13.060   4.388
21494W        W89899  27.158  14.635   3.753
21495W        W89900   9.529  32.859  12.923
21496W        W89901   2.572  36.655   0.900
21497W        W89902   1.876  41.867  12.890
21498W        W89903  35.332  35.573   1.757
21499W        W89904  39.476  14.243   0.707
21500W        W89905  36.246  44.941  14.093
21501W        W89906  25.795   0.370  12.580
21502W        W89907   1.402  10.921   3.612
21503W        W89908  22.028  24.709  14.804
21504W        W89909  19.979  10.767  11.139
21505W        W89910  44.883  44.040  11.804
21506W        W89911  13.634  38.798   4.674
21507W        W89912  32.985   7.881  11.811
21508W        W89913  12.902  35.202   1.762
21509W        W89914   6.638  12.980  13.444
21510W        W89915  34.899  27.182  10.477
21511W        W89916  37.873  13.091   4.602
21512W        W89917   5.439   2.431   2.837
21513W        W89918  22.632   3.508   4.437
21514W        W89919  44.900  41.801   1.805
21515W        W89920  16.293  21.986  11.492
21516W        W89921  41.886  43.679   3.861
21517W        W89922  14.708  33.355   0.791
21518W        W89923   7.138  32.547  10.755
21519W        W89924  28.466  17.032  12.108
21520W        W89925  42.922  12.082  14.170
21521W        W89926  15.171  25.914  14.124
21522W        W89927  38.821  34.872   4.219
21523W        W89928   7.358  22.286   2.787
21524W        W89929  22.890  19.223   1.725
21525W        W89930  24.236  10.956   3.863
21526W        W89931  17.839  35.969   4.649
21527W        W89932   4.341  26.666   3.186
21528W        W89933  10.266  39.682   2.373
21529W        W89934  44.971  24.782   0.935
21530W        W89935  21.551  13.003   1.862
21531W        W89936  10.184  12.873  12.060
21532W        W89937  43.259  38.514   2.220
21533W        W89938   0.558  22.473  13.558
21534W        W89939   4.981  23.739   4.106
21535W        W89940   2.738  22.730  12.058
21536W        W89941  28.397   1.730   4.628
21537W        W89942  12.777  17.728  13.839
21538W        W89943   5.245  34.543   4.473
21539W        W89944  15.042  16.134  14.495
21540W        W89945  17.878  32.215   4.214
21541W        W89946  12.161  36.370  11.365
21542W        W89947  30.379  42.451  11.080
21543W        W89948  36.054  31.883  14.019
21544W        W89949   0.259  41.578   2.338
21545W        W89950  30.099   9.244  13.407
21546W        W89951   4.921  14.290  14.873
21547W        W89952  14.016  37.930   1.296
21548W        W89953  28.611   9.846  14.761
21549W        W89954   4.934  12.277   1.676
21550W        W89955  43.077  29.553  12.575
21551W        W89956  39.445   4.957  12.858
21552W        W89957  13.688  12.374  14.910
21553W        W89958  18.524   4.286   0.910
21554W        W89959  13.782  30.934   0.045
21555W        W89960  44.925  26.020   0.649
21556W        W89961  36.838  24.764   2.444
21557W        W89962   1.057  34.976   0.443
21558W        W89963  17.323   4.638  11.533
21559W        W89964  35.862  26.670  12.231
21560W        W89965  40.527  32.579  10.591
21561W        W89966   1.012  31.673   1.886
21562W        W89967  37.182  40.804  13.084
21563W        W89968   7.209  21.619  14.466
21564W        W89969   0.048  33.961  13.491
21565W        W89970  29.907  41.984   2.976
21566W        W89971  37.970   8.262   4.572
21567W        W89972  24.213  37.393  12.028
21568W        W89973   7.450  43.562   3.674
21569W        W89974  22.450  36.980  10.388
21570W        W89975  24.772  15.623   2.721
21571W        W89976  16.654  41.798   3.301
21572W        W89977  12.591  31.333  12.113
21573W        W89978  25.367  38.824  12.599
21574W        W89979  32.522  30.520  11.485
21575W        W89980  25.447   1.220  11.981
21576W        W89981   5.384  22.604   4.578
21577W        W89982  29.548  24.560   4.165
21578W        W89983   3.392  23.649   1.279
21579W        W89984  25.142   9.588  13.453
21580W        W89985  21.495  42.842   4.915
21581W        W89986  33.656  40.586   1.385
21582W        W89987  43.037  19.026  12.821
21583W        W89988  25.048   5.758  13.910
21584W        W89989  40.794  32.550  12.448
21585W        W89990  41.364   7.190   4.244
21586W        W89991  12.556  44.658   4.532
21587W        W89992  36.868  32.484   4.802
21588W        W89993   7.482  39.560  12.180
21589W        W89994  38.905  20.320  11.395
21590W        W89995  33.664  38.618   0.367
21591W        W89996  17.717  25.394  14.821
21592W        W89997  25.220  36.312  14.371
21593W        W89998  28.138  41.433   4.964
21594W        W89999  19.455  24.509   3.324
21595W        W90000  24.765  13.577   4.654
21596W        W90001  15.490  30.357  13.116
21597W        W90002  10.601  22.800   2.155
21598W        W90003  27.684   8.437  12.581
21599W        W90004  43.285  16.334  11.495
21600W        W90005   5.511  29.272  12.394
21601W        W90006   7.784  26.755   3.272
21602W        W90007   5.983  24.362  14.907
21603W        W90008  43.392  18.013  12.056
21604W        W90009  23.857  32.291  12.144
21605W        W90010  19.544  35.957  14.745
21606W        W90011   1.078  21.698   1.786
21607W        W90012  12.916  21.794   3.090
21608W        W90013   9.250  17.128  11.211
21609W        W90014  12.175  18.085  11.123
21610W        W90015  23.894  14.679  14.333
21611W        W90016  12.874  44.375  10.677
21612W        W90017  22.988  43.344   0.929
21613W        W90018  42.107  19.015   0.088
21614W        W90019  22.992  32.948   4.914
21615W        W90020  17.083   5.409   5.325
21616W        W90021  15.847  14.732  14.951
21617W        W90022  21.469  44.350   4.455
21618W        W90023  26.838  35.578   1.771
21619W        W90024  37.786  39.320   0.823
21620W        W90025  22.329   2.605  11.397
21621W        W90026  12.912  20.634  14.405
21622W        W90027   3.191   8.858  11.614
21623W        W90028  30.526  12.917   2.572
21624W        W90029  14.572   8.624   3.245
21625W        W90030   2.807  33.289  11.414
21626W        W90031  10.643  14.045   2.804
21627W        W90032   1.248  40.419  12.483
21628W        W90033  13.227  24.232  12.272
21629W        W90034  40.410  34.560  14.524
21630W        W90035  21.679   3.943  11.835
21631W        W90036  20.123   8.467  13.526
21632W        W90037  15.163  31.619   4.339
21633W        W90038  29.509  44.370  14.432
21634W        W90039  21.113  31.887  12.603
21635W        W90040  23.284  15.941  11.102
21636W        W90041  28.033  10.216  12.499
21637W        W90042  13.764   5.344   0.817
21638W        W90043   1.410  20.757  13.043
21639W        W90044  38.794  24.046   4.572
21640W        W90045  19.776   5.346   0.419
21641W        W90046  37.160  36.103   3.213
21642W        W90047  11.747  16.080   1.341
21643W        W90048  39.658   5.907   0.041
21644W        W90049  38.830  28.960  13.307
21645W        W90050  37.219  22.415  14.285
21646W        W90051  35.828  38.306   0.813
21647W        W90052  22.446  16.691   0.789
21648W        W90053  24.809  26.529  10.758
21649W        W90054   3.431  40.736  14.791
21650W        W90055  22.496  44.259  11.488
21651W        W90056  32.370   0.111  14.292
21652W        W90057  37.569  19.796  12.411
21653W        W90058  19.352  34.977  11.565
21654W        W90059  36.279  23.571  13.827
21655W        W90060  43.523  40.506   2.196
21656W        W90061   0.075   9.856  10.547
21657W        W90062  29.423   2.963   2.340
21658W        W90063   1.458  44.299   4.565
21659W        W90064  40.107  16.509   0.675
21660W        W90065  27.197  10.060  12.926
21661W        W90066  43.495  26.976  11.314
21662W        W90067   9.885  31.481   1.230
21663W        W90068  41.901  33.523  12.978
21664W        W90069   2.307   6.271   4.250
21665W        W90070  29.414  17.557   1.939
21666W        W90071  10.367   5.409  11.413
21667W        W90072  33.705  30.192  11.112
21668W        W90073  24.265  22.344   4.088
21669W        W90074  32.845   6.260  13.994
21670W        W90075   9.213  21.556   4.366
21671W        W90076   9.368  37.485   5.009
21672W        W90077  22.598  43.527  12.502
21673W        W90078  33.792   6.828  14.140
21674W        W90079  24.519   7.972  14.881
21675W        W90080   4.333   4.851   4.151
21676W        W90081   2.001  19.256  12.586
21677W        W90082  13.264  26.586   2.657
21678W        W90083  43.030   6.780   3.669
21679W        W90084   3.610  43.533  11.509
21680W        W90085  18.322  34.656   0.157
21681W        W90086  26.364  39.787  11.485
21682W        W90087  35.508   8.038   2.715
21683W        W90088  39.080   0.752  14.401
21684W        W90089  31.984  25.340  12.641
21685W        W90090  27.320   8.669  11.561
21686W        W90091   8.789  28.818   4.019
21687W        W90092  27.100  33.603   1.731
21688W        W90093  10.212  44.832   0.477
21689W        W90094   2.489  28.432   1.283
21690W        W90095  41.332  41.324   3.207
21691W        W90096  36.026  24.580  14.502
21692W        W90097  18.724  17.510   2.340
21693W        W90098  21.575  19.043   1.842
21694W        W90099  16.301  42.967  13.836
21695W        W90100  40.451  21.734   1.029
21696W        W90101  22.356  34.558  14.519
21697W        W90102  34.303   7.374   3.184
21698W        W90103  38.732   6.179   2.310
21699W        W90104  39.461  30.631   1.008
21700W        W90105   0.596  30.990   4.122
21701W        W90106   7.944  36.945  11.541
21702W        W90107  40.904  39.516   3.223
21703W        W90108  39.073  25.723  13.116
21704W        W90109  36.916  11.252   2.547
21705W        W90110  13.840  25.959  12.406
21706W        W90111  13.785  18.497  13.655
21707W        W90112   7.439   2.688   0.926
21708W        W90113  24.444  17.663  12.863
21709W        W90114  18.179  33.274   2.739
21710W        W90115  29.552  26.901  14.114
21711W        W90116  44.749  16.121   2.178
21712W        W90117  22.474  28.662  12.431
21713W        W90118  14.137  27.448   4.640
21714W        W90119  12.233  35.322   0.918
21715W        W90120  15.304  18.064   3.229
21716W        W90121  44.765  30.344   3.090
21717W        W90122  19.127  25.569   2.261
21718W        W90123  23.113   2.329  12.233
21719W        W90124  10.065  25.161  14.047
21720W        W90125   8.890  32.047   4.022
21721W        W90126  25.799  12.411  13.377
21722W        W90127  15.071   1.919  13.088
21723W        W90128  25.362  37.102  13.050
21724W        W90129  19.995  12.713   2.208
21725W        W90130   3.946  38.401  14.322
21726W        W90131  35.644   3.251   1.197
21727W        W90132   1.929   1.769  11.631
21728W        W90133  24.300   3.868   0.971
21729W        W90134   0.857  13.717  10.146
21730W        W90135  43.888  38.465   0.285
21731W        W90136  15.602  15.746   0.722
21732W        W90137  41.713   3.691   2.582
21733W        W90138  10.632  12.588   0.169
21734W        W90139   4.040  37.947  10.358
21735W        W90140  38.652  23.746   5.013
21736W        W90141  38.832  13.684   0.344
21737W        W90142  39.380  28.418   4.564
21738W        W90143  21.943  23.448   0.124
21739W        W90144  34.532  21.074  12.777
21740W        W90145  15.237   9.338   1.301
21741W        W90146  25.416  40.064   9.863
21742W        W90147  12.213  31.712   4.563
21743W        W90148  10.174   6.681   2.185
21744W        W90149  37.930  32.429   3.843
21745W        W90150  31.575   1.317  10.789
21746W        W90151  30.506   1.381   4.813
21747W        W90152  39.468  13.527   4.209
21748W        W90153  38.032  33.848   0.931
21749W        W90154  30.403  28.179   1.629
21750W        W90155   3.454  36.184   1.215
21751W        W90156  42.031  35.057   2.794
21752W        W90157  34.054   8.750  13.524
21753W        W90158  38.820  20.029  13.824
21754W        W90159  15.311   2.996   2.802
21755W        W90160   3.708   3.201  12.916
21756W        W90161   5.388  18.876   1.462
21757W        W90162  44.269  22.736  10.932
21758W        W90163  13.437  34.761  12.681
21759W        W90164  20.734  36.905   2.633
21760W        W90165  37.384  18.045   1.411
21761W        W90166  16.410  38.005   2.861
21762W        W90167  34.038  20.203  10.810
21763W        W90168   5.354  14.186  11.756
21764W        W90169  40.984  26.441   0.469
21765W        W90170  12.710   5.751  13.599
21766W        W90171  19.781  18.625   3.631
21767W        W90172  35.928  36.375   1.098
21768W        W90173  23.946   2.985  12.465
21769W        W90174   6.925   2.489   2.366
21770W        W90175   2.341  43.908   1.483
21771W        W90176  14.650  21.216  10.680
21772W        W90177  21.515  10.707   1.337
21773W        W90178  35.794  23.644  13.407
21774W        W90179  14.680  27.325   2.226
21775W        W90180   0.710  12.419  13.410
21776W        W90181   8.261  32.056   0.796
21777W        W90182  24.039  27.087   3.404
21778W        W90183   1.370   8.115   3.929
21779W        W90184  29.897  23.281  10.824
21780W        W90185  14.589   9.594  10.253
21781W        W90186  32.580  14.939  12.507
21782W        W90187  43.553  34.479  12.090
21783W        W90188   8.218  17.523  14.575
21784W        W90189  30.057  24.583   4.300
21785W        W90190  41.823  43.044   0.966
21786W        W90191  37.383  40.774  12.010
21787W        W90192  13.752  37.446   4.172
21788W        W90193  38.833  30.160  13.878
21789W        W90194  38.989  32.687  12.089
21790W        W90195  33.032   3.830   0.897
21791W        W90196  16.457  41.339  14.404
21792W        W90197   8.622  28.234  11.962
21793W        W90198   8.754  12.205  14.018
21794W        W90199  13.629  39.970  14.713
21795W        W90200  28.989  17.724  12.324
21796W        W90201  17.564  40.452   4.864
21797W        W90202   8.331  43.548  14.731
21798W        W90203  12.290  35.855   2.404
21799W        W90204   0.967  40.343  12.033
21800W        W90205  39.354  21.293  13.318
21801W        W90206  17.050  37.151  13.329
21802W        W90207  31.569  22.649  10.724
21803W        W90208   5.726  42.888   4.768
21804W        W90209   5.667  39.831   0.417
21805W        W90210  26.813  43.316  10.835
21806W        W90211  40.910  35.023  13.243
21807W        W90212  36.002  12.977   1.944
21808W        W90213   0.167  37.183  12.514
21809W        W90214  14.857  23.511   9.888
21810W        W90215  42.478  18.245   4.744
21811W        W90216  38.514  42.696   4.884
21812W        W90217  21.683  41.167   0.181
21813W        W90218   8.310  19.717   4.376
21814W        W90219  31.191  38.503   2.292
21815W        W90220  22.980  40.939  10.667
21816W        W90221  26.255   7.034  14.436
21817W        W90222  35.198  41.057  13.018
21818W        W90223  23.519  33.300   2.781
21819W        W90224  35.449  16.591  14.723
21820W        W90225  31.558  19.508  13.852
21821W        W90226  40.073  14.027   1.319
21822W        W90227  21.705   3.499  14.424
21823W        W90228  20.676   9.744  10.247
21824W        W90229  31.177  12.705   1.966
21825W        W90230  28.190  36.995   4.638
21826W        W90231   4.056  13.593  13.577
21827W        W90232  44.004  43.503   0.716
21828W        W90233  30.807  41.990   1.244
21829W        W90234  40.969  13.686   1.836
21830W        W90235  37.948   4.126  14.352
21831W        W90236   4.542   8.852  13.014
21832W        W90237   5.741   1.818  11.860
21833W        W90238  14.139  32.134   4.604
21834W        W90239   0.119   9.198   5.466
21835W        W90240  10.142  35.983   0.369
21836W        W90241  23.037  26.445   0.398
21837W        W90242   4.204  27.547  12.575
21838W        W90243  41.431  19.216   1.903
21839W        W90244  26.045  16.908  12.297
21840W        W90245  29.955  37.200  10.015
21841W        W90246  30.074   2.232  14.021
21842W        W90247  20.534  31.981   3.780
21843W        W90248  36.950   5.306   2.683
21844W        W90249  40.119   0.025  11.055
21845W        W90250   3.381   4.963   1.797
21846W        W90251  11.374   1.948  12.961
21847W        W90252  16.708  40.553  14.406
21848W        W90253  33.001  37.609   3.714
21849W        W90254   4.823  37.368  12.840
21850W        W90255  17.327  15.536   3.237
21851W        W90256   2.853  21.227   1.643
21852W        W90257   0.253  17.781  13.735
21853W        W90258  37.427  23.495   2.575
21854W        W90259  27.464  16.997  12.955
21855W        W90260   6.845   6.925  14.888
21856W        W90261  24.995  38.038   1.962
21857W        W90262  34.643   8.353  12.404
21858W        W90263   4.424  22.222   4.778
21859W        W90264   2.691  44.831  14.739
21860W        W90265  20.538  11.779   4.622
21861W        W90266  10.112  27.734   2.420
21862W        W90267  12.443  36.368   2.474
21863W        W90268  13.654  32.918  11.530
21864W        W90269  39.999   8.182   4.364
21865W        W90270  44.441  26.042   3.863
21866W        W90271  41.880  38.777   0.730
21867W        W90272  11.758  21.502  12.019
21868W        W90273  44.101  25.274   4.198
21869W        W90274  19.641  12.601   1.802
21870W        W90275  44.527  41.808  12.066
21871W        W90276  42.609  34.164  12.411
21872W        W90277   8.601  39.355   1.135
21873W        W90278  20.136  38.932  13.453
21874W        W90279  10.912  43.033   3.159
21875W        W90280  10.041  15.590  13.313
21876W        W90281  11.126  28.011  14.946
21877W        W90282  22.318  26.763   2.364
21878W        W90283  37.586  38.642  12.606
21879W        W90284   0.985  11.387  13.919
21880W        W90285  15.638  25.502   0.219
21881W        W90286   8.230  19.052   0.809
21882W        W90287   1.832  26.519  13.761
21883W        W90288  21.631  32.070   2.275
21884W        W90289   3.362   8.359  11.128
21885W        W90290  11.493  30.751   2.840
21886W        W90291  28.959  11.443   0.318
21887W        W90292  12.232  32.747  11.152
21888W        W90293  12.576  22.710   5.051
21889W        W90294  26.895  31.613   2.258
21890W        W90295   9.377  40.969   0.355
21891W        W90296  40.569   8.115  14.239
21892W        W90297  14.425  15.302   9.907
21893W        W90298   7.913  15.264  13.292
21894W        W90299  36.383  10.199   1.154
21895W        W90300   1.795  29.500   2.408
21896W        W90301  25.081   9.707   1.854
21897W        W90302   1.429  24.129   1.886
21898W        W90303  17.057  10.372  14.900
21899W        W90304  25.038   9.410   3.170
21900W        W90305   1.046  25.465   1.851
21901W        W90306  39.784   2.799   2.741
21902W        W90307  38.840  24.244  12.516
21903W        W90308   0.639  41.960  14.240
21904W        W90309   2.081  25.738   4.397
21905W        W90310  13.590  28.087  13.993
21906W        W90311  35.064   8.395   1.792
21907W        W90312  27.385  29.559  11.555
21908W        W90313  13.331  22.177  13.425
21909W        W90314  43.585   2.419   4.115
21910W        W90315  27.919   3.507  10.439
21911W        W90316   7.869  31.284   1.061
21912W        W90317  20.303  44.468  11.238
21913W        W90318   3.066  32.257   4.253
21914W        W90319  30.169  30.585   2.791
21915W        W90320  39.897  32.559   3.772
21916W        W90321  18.574  42.379   2.209
21917W        W90322   9.107  43.270   3.191
21918W        W90323  44.141  30.166  12.933
21919W        W90324  17.409  19.068   3.631
21920W        W90325  40.062  31.058  12.744
21921W        W90326   7.786  27.358   0.964
21922W        W90327  25.952  42.429   9.754
21923W        W90328   5.863  23.108  11.538
21924W        W90329  13.595   5.828   0.342
21925W        W90330  29.987  11.793   2.586
21926W        W90331  44.445  11.075  10.755
21927W        W90332  31.620   3.338  13.504
21928W        W90333  37.811   7.303   4.246
21929W        W90334   2.217  17.869   1.604
21930W        W90335  14.861  22.354  13.432
21931W        W90336  17.685   0.902   0.112
21932W        W90337  18.519  24.525   4.200
21933W        W90338   8.785  27.080  11.473
21934W        W90339   4.739  13.387  10.314
21935W        W90340   7.495  14.844  12.523
21936W        W90341  41.790  22.948   2.452
21937W        W90342  40.284  39.956   2.344
21938W        W90343  44.172  15.730   0.406
21939W        W90344  44.890   1.804   1.931
21940W        W90345  11.457   5.846   0.860
21941W        W90346  14.052   4.730  12.437
21942W        W90347  34.117  36.473   1.182
21943W        W90348   8.901  23.760  11.076
21944W        W90349  19.049  26.716   4.082
21945W        W90350  21.677  38.706  10.516
21946W        W90351  31.963  25.176   1.256
21947W        W90352  21.102  42.373   3.105
21948W        W90353  12.698   5.700   2.506
21949W        W90354   4.196  41.715   4.530
21950W        W90355  31.035  18.991  14.869
21951W        W90356  37.421  44.410  12.968
21952W        W90357  19.353  10.408  11.988
21953W        W90358  28.059  31.784   3.374
21954W        W90359  21.541  36.511  12.947
21955W        W90360   1.219  20.752   0.571
21956W        W90361  23.103  38.867   2.351
21957W        W90362   9.299   5.999   1.872
21958W        W90363  33.248  21.454  14.378
21959W        W90364  24.496  37.789   3.318
21960W        W90365  33.657  39.935   2.286
21961W        W90366   5.185  43.494   4.299
21962W        W90367  28.612  26.620   4.567
21963W        W90368  25.948  34.144   3.328
21964W        W90369  43.937  14.075   4.206
21965W        W90370  11.030   3.797   5.032
21966W        W90371  43.789  35.817  12.668
21967W        W90372   8.897   5.748   1.567
21968W        W90373  43.969  11.416  14.581
21969W        W90374  22.258  20.178  14.456
21970W        W90375  16.989  31.411   2.793
21971W        W90376   5.032  20.641  11.532
21972W        W90377  28.111  14.160   4.043
21973W        W90378  36.609  16.588   3.894
21974W        W90379  35.662  17.774   2.708
21975W        W90380  22.136  22.311   3.896
21976W        W90381   1.909  28.403  12.025
21977W        W90382  27.323  34.223  14.948
21978W        W90383  28.026  33.540   2.060
21979W        W90384  24.356  23.796  14.817
21980W        W90385   8.338  10.318  12.550
21981W        W90386  12.065  24.398  10.764
21982W        W90387  28.960   4.818  12.371
21983W        W90388  23.175  18.277  13.014
21984W        W90389   5.932   3.369   1.240
21985W        W90390  16.341  24.711  11.199
21986W        W90391  24.887  27.755   3.753
21987W        W90392  31.901  21.642   4.925
21988W        W90393   2.464  17.778  14.306
21989W        W90394  26.231  32.093  13.412
21990W        W90395  38.653   5.702   0.011
21991W        W90396   8.836  30.563  11.161
21992W        W90397  39.503  38.576   3.523
21993W        W90398  36.809  33.976   3.334
21994W        W90399   9.670  31.930   2.340
21995W        W90400   3.453  22.155  12.095
21996W        W90401  41.228   7.773  13.984
21997W        W90402  18.135  42.869  10.965
21998W        W90403  10.578  11.389  14.629
21999W        W90404  34.883  19.766   2.912
22000W        W90405  39.783  43.161  11.332
22001W        W90406  15.169  18.927   2.643
22002W        W90407  24.807  28.446  14.325
22003W        W90408  10.454  12.700   0.949
22004W        W90409  31.034  22.148  14.063
22005W        W90410  34.547  19.294  11.109
22006W        W90411  32.941  23.251  14.256
22007W        W90412  44.810  23.137  11.238
22008W        W90413  33.035  32.903   2.675
22009W        W90414   3.578  11.206  10.399
22010W        W90415  14.050  39.119  12.194
22011W        W90416  42.775  22.908  14.399
22012W        W90417  16.046  44.721   2.771
22013W        W90418  44.108  28.059  10.635
22014W        W90419  35.371  39.520   2.731
22015W        W90420  11.454  28.193   2.211
22016W        W90421  14.564  34.579   2.312
22017W        W90422  18.117  22.093  10.253
22018W        W90423  26.105   7.457   2.199
22019W        W90424  40.633  40.401  13.744
22020W        W90425   8.460  14.287   4.915
22021W        W90426  13.871  34.957  11.453
22022W        W90427  24.056  18.582  14.858
22023W        W90428  37.495  14.780  13.409
22024W        W90429  34.632  14.261  13.751
22025W        W90430   0.464   3.321   1.934
22026W        W90431  41.032  27.577   4.533
22027W        W90432  37.993  43.836   0.766
22028W        W90433   6.265  29.826  13.786
22029W        W90434   4.316  29.449  14.811
22030W        W90435  26.120  34.280  13.930
22031W        W90436   3.658  28.177  11.109
22032W        W90437  29.535  32.192  13.180
22033W        W90438  36.480  42.666  13.783
22034W        W90439  27.379  26.253   2.292
22035W        W90440  21.317  30.042  12.014
22036W        W90441   7.376   8.435  12.144
22037W        W90442  18.342  17.069   0.654
22038W        W90443  44.981  29.296  11.780
22039W        W90444  15.928  43.415  13.132
22040W        W90445  32.109  20.648   1.016
22041W        W90446  44.017  38.404   0.801
22042W        W90447  21.768  24.100  14.010
22043W        W90448  19.509  12.364  10.795
22044W        W90449  16.552   1.733   2.395
22045W        W90450  12.122   6.642  13.965
22046W        W90451   8.198  43.830   0.675
22047W        W90452  33.968  25.986  11.722
22048W        W90453  29.887   6.218  11.760
22049W        W90454  39.576  18.688   4.004
22050W        W90455  19.616  42.337   1.910
22051W        W90456  36.437  40.894  13.541
22052W        W90457  18.183  10.084  10.747
22053W        W90458  28.014   7.473  13.694
22054W        W90459   5.402  35.401   1.368
22055W        W90460  15.785  20.707   2.900
22056W        W90461   2.708  36.496   0.436
22057W        W90462  44.413  27.990   2.308
22058W        W90463  18.767  41.181   1.688
22059W        W90464   7.132  30.878   3.418
22060W        W90465  39.807   2.535   0.039
22061W        W90466  23.245  28.322   0.068
22062W        W90467  42.678   5.935   4.517
22063W        W90468  25.636  21.634   3.669
22064W        W90469   6.880  21.760   2.382
22065W        W90470  24.117   3.066   2.234
22066W        W90471   0.946  42.408   2.165
22067W        W90472  44.221   4.921  14.955
22068W        W90473  25.161  18.787  13.343
22069W        W90474  41.476  11.804  11.758
22070W        W90475  35.412  37.376  11.929
22071W        W90476  43.939  16.354   1.742
22072W        W90477  31.810  26.064   3.331
22073W        W90478  43.539  34.832  13.047
22074W        W90479  31.616  39.577  11.519
22075W        W90480   4.969  34.877  14.417
22076W        W90481  22.526  40.554   4.086
22077W        W90482  34.431   3.407   1.855
22078W        W90483   6.191   9.974  14.937
22079W        W90484  42.307   4.671   1.885
22080W        W90485   9.544  24.169  12.658
22081W        W90486  15.820  24.469  14.305
22082W        W90487  19.655  39.852  12.826
22083W        W90488  27.000  41.116   2.459
22084W        W90489  32.660  40.549  14.407
22085W        W90490  20.262  25.476   0.919
22086W        W90491  37.622  40.646  12.429
22087W        W90492  36.556  21.031   9.987
22088W        W90493  42.734  24.639  12.002
22089W        W90494  21.320  20.080  12.061
22090W        W90495  43.033  34.977   3.735
22091W        W90496   0.938  34.533   3.281
22092W        W90497  44.872  40.555  12.130
22093W        W90498   1.302  30.685  13.481
22094W        W90499  15.227  30.437   2.961
22095W        W90500  31.705  44.936  10.660
22096W        W90501  27.062  20.564   2.328
22097W        W90502  14.764  44.257  10.144
22098W        W90503  33.054  29.259   4.986
22099W        W90504  14.030  33.967   0.742
22100W        W90505   1.604  40.853   0.403
22101W        W90506  23.005   5.313   2.169
22102W        W90507  32.903  44.273  13.096
22103W        W90508  27.063  36.155  14.720
22104W        W90509   1.491  40.535   3.298
22105W        W90510  39.041  26.657  12.629
22106W        W90511  24.059  24.006   0.285
22107W        W90512   8.357  22.236   3.964
22108W        W90513   1.869  36.484  10.704
22109W        W90514  28.460  16.126  12.979
22110W        W90515  13.923   2.204   3.274
22111W        W90516  20.080  28.966   0.296
22112W        W90517  37.071  31.835   0.352
22113W        W90518  11.708  43.259   0.455
22114W        W90519   0.863  10.651  12.198
22115W        W90520   3.170   4.409  11.337
22116W        W90521  25.588   1.684  11.110
22117W        W90522  24.665  26.924  12.133
22118W        W90523  16.745  16.036  12.040
22119W        W90524   2.584  28.943  14.404
22120W        W90525  35.385  11.942  13.436
22121W        W90526  40.862  33.771   9.846
22122W        W90527  31.051  28.065  14.020
22123W        W90528   3.693  19.576   0.367
22124W        W90529  27.624   7.803  13.828
22125W        W90530   8.862  10.152   3.602
22126W        W90531  41.852  30.953   4.908
22127W        W90532   9.463  24.351   0.063
22128W        W90533  44.379  24.995   4.558
22129W        W90534   3.660  44.912   2.852
22130W        W90535  28.378  34.090   0.742
22131W        W90536  28.489  10.397  12.355
22132W        W90537  12.303  37.781   3.281
22133W        W90538   9.445  41.820  13.081
22134W        W90539  19.560  10.906  11.964
22135W        W90540  23.502  34.017  10.719
22136W        W90541  22.657  36.551   2.708
22137W        W90542  35.379   5.745   3.719
22138W        W90543  27.040  16.536  10.980
22139W        W90544  29.044  10.254  10.258
22140W        W90545  14.604  32.875  12.283
22141W        W90546  20.183  37.796   4.145
22142W        W90547   0.900   3.933  12.545
22143W        W90548  29.171  23.423  11.998
22144W        W90549  29.076  12.842   2.769
22145W        W90550  10.937  21.396  13.836
22146W        W90551   3.069  27.777   4.039
22147W        W90552   0.221  12.207   3.682
22148W        W90553  30.309  16.671  12.036
22149W        W90554   3.978  37.113   3.797
22150W        W90555  20.736  39.720  11.065
22151W        W90556  24.862  32.390  10.687
22152W        W90557  14.786   5.301   3.646
22153W        W90558  15.632  29.698   2.466
22154W        W90559   8.674  14.197  14.786
22155W        W90560  42.017  24.186   2.760
22156W        W90561  14.227  25.251  11.997
22157W        W90562  11.872  14.558  11.610
22158W        W90563  16.220  44.891   2.307
22159W        W90564  23.833  44.396  14.197
22160W        W90565  35.889  20.136  10.955
22161W        W90566  43.109  22.229   3.912
22162W        W90567   1.747  28.909   2.297
22163W        W90568  11.891   2.569  12.845
22164W        W90569   8.512  14.278   0.979
22165W        W90570  39.475   5.143   1.242
22166W        W90571  19.088  18.075  13.439
22167W        W90572  39.554  17.532   0.398
22168W        W90573  27.613  40.757  13.762
22169W        W90574  34.084   8.427   4.158
22170W        W90575  27.609  15.512  13.084
22171W        W90576  30.677  30.457   4.396
22172W        W90577  14.823  16.483  13.452
22173W        W90578  19.217  15.757  14.139
22174W        W90579  14.218  18.100   1.605
22175W        W90580  21.946   0.747  12.554
22176W        W90581   9.671  12.724   1.328
22177W        W90582  13.405  19.025  11.071
22178W        W90583  23.181  18.267   3.166
22179W        W90584  27.521  43.208  13.026
22180W        W90585  19.756   4.963   3.650
22181W        W90586  37.203   6.262   2.356
22182W        W90587   8.684   0.314  10.959
22183W        W90588  41.383  31.443   3.904
22184W        W90589  10.657  41.186  13.025
22185W        W90590  10.276   9.608   4.615
22186W        W90591  15.701  19.457  13.057
22187W        W90592  11.192   2.834   5.053
22188W        W90593  16.420  40.270  13.008
22189W        W90594  42.002   0.451  10.601
22190W        W90595  23.601  10.943   2.230
22191W        W90596  21.992  22.942  13.492
22192W        W90597   5.615   6.056   2.781
22193W        W90598  23.988   4.376   1.686
22194W        W90599  43.276  32.194   1.175
22195W        W90600  43.460  11.555   2.273
22196W        W90601  15.109  37.827   4.465
22197W        W90602   7.299  28.097  11.213
22198W        W90603   3.451  12.613   0.386
22199W        W90604  12.258   2.510   0.193
22200W        W90605  26.747  36.306   0.535
22201W        W90606  41.148   0.419  12.883
22202W        W90607  41.269   3.352  12.567
22203W        W90608  41.454  25.539   4.056
22204W        W90609  43.799  39.647  12.560
22205W        W90610  31.574  38.022   4.383
22206W        W90611  42.419  12.836   3.134
22207W        W90612  22.071   1.332  14.498
22208W        W90613  13.249  43.862   1.393
22209W        W90614  24.952  15.848   4.986
22210W        W90615  15.823  26.809   3.814
22211W        W90616  11.390  28.486  10.329
22212W        W90617  31.632  29.542   4.247
22213W        W90618  12.318  11.055  12.042
22214W        W90619  35.797   4.294   1.854
22215W        W90620  10.091  27.521  14.461
22216W        W90621  10.847  17.848  10.148
22217W        W90622   8.170   4.225  14.754
22218W        W90623  44.146  22.995  14.520
22219W        W90624  33.389  17.118   1.431
22220W        W90625  33.409  32.500  13.927
22221W        W90626  16.736  23.492  14.273
22222W        W90627   7.208  28.372  14.825
22223W        W90628   6.785   2.523  14.074
22224W        W90629  36.592  16.116  13.997
22225W        W90630  16.039  30.306  11.985
22226W        W90631  34.812  39.526  10.648
22227W        W90632  37.278  25.671   0.856
22228W        W90633   4.737  16.262   0.879
22229W        W90634  17.557  22.095   3.604
22230W        W90635  28.053  34.403   4.399
22231W        W90636  26.719  44.880  14.284
22232W        W90637   7.235  42.862  10.895
22233W        W90638   1.030  15.311  14.428
22234W        W90639  22.653  34.170  12.506
22235W        W90640  29.003   1.170   2.266
22236W        W90641  40.709  17.678  13.351
22237W        W90642  15.181  22.985   1.907
22238W        W90643  43.988   4.242   0.335
22239W        W90644  32.419  11.813  10.693
22240W        W90645  29.676  31.582   3.746
22241W        W90646   9.313  39.972  13.100
22242W        W90647  13.320  33.860   1.407
22243W        W90648  42.327   6.874   3.249
22244W        W90649   9.728  36.800  14.669
22245W        W90650   8.379  23.510  12.223
22246W        W90651   4.410   4.928  13.058
22247W        W90652   7.117  15.558  11.621
22248W        W90653   9.123  36.046  14.425
22249W        W90654  35.877  22.683   2.189
22250W        W90655   1.896  20.759   3.897
22251W        W90656  20.306  31.531  14.491
22252W        W90657  39.315  41.346  13.411
22253W        W90658   9.783  42.419   3.047
22254W        W90659   1.903  37.889  14.274
22255W        W90660   4.799  10.655   1.404
22256W        W90661  19.111  39.894  13.778
22257W        W90662  20.948  13.681   2.289
22258W        W90663  21.780  31.566   2.274
22259W        W90664  36.793   0.675   4.799
22260W        W90665   5.044  16.157   4.348
22261W        W90666  21.105  20.649  14.016
22262W        W90667   4.832  31.158  13.422
22263W        W90668  27.475  25.663  13.707
22264W        W90669  10.458  36.974   0.383
22265W        W90670  11.785  12.321   3.993
22266W        W90671  19.802  20.883  12.825
22267W        W90672  11.245   7.598  14.935
22268W        W90673  27.084  36.443  12.902
22269W        W90674  34.127   0.531   2.647
22270W        W90675  17.581  13.326   2.243
22271W        W90676  25.621  19.212   0.501
22272W        W90677  29.601   4.650   3.739
22273W        W90678  21.521  22.645  13.032
22274W        W90679  10.389   4.743   3.192
22275W        W90680  16.554  31.367   1.792
22276W        W90681   2.274  30.665  12.474
22277W        W90682  14.822  31.047  12.033
22278W        W90683  32.592  26.090   4.094
22279W        W90684  24.591  19.942   0.810
22280W        W90685  22.603  22.577  11.019
22281W        W90686  32.496   8.583   2.826
22282W        W90687  42.328  43.446  11.551
22283W        W90688  33.623  10.219  12.570
22284W        W90689  23.203  41.480   0.549
22285W        W90690  40.691  30.730   0.361
22286W        W90691  13.666  24.030  12.119
22287W        W90692  21.310  29.946   0.911
22288W        W90693  37.307  10.218   2.399
22289W        W90694  22.605  26.442   0.710
22290W        W90695  13.941   8.755  13.973
22291W        W90696  23.195  37.009  11.482
22292W        W90697  43.868  19.828  13.823
22293W        W90698  31.026  39.415  13.795
22294W        W90699  17.484  30.186  12.060
22295W        W90700   3.801  40.393   1.355
22296W        W90701  42.384  14.744  13.571
22297W        W90702  44.297   9.306  14.080
22298W        W90703  17.406  28.558   1.911
22299W        W90704  23.875  29.883   4.463
22300W        W90705  44.256  40.575  11.633
22301W        W90706  37.336   2.428   3.516
22302W        W90707  15.821   5.321  11.377
22303W        W90708  37.088  12.643   4.581
22304W        W90709  14.928   8.729  13.047
22305W        W90710   7.152  29.541   0.310
22306W        W90711  21.507  26.646   1.674
22307W        W90712  19.838  27.387  11.022
22308W        W90713  14.556  18.858   4.691
22309W        W90714  11.961  18.490   1.101
22310W        W90715  38.970  34.916   2.805
22311W        W90716  23.466   6.809   0.434
22312W        W90717  34.945   7.839  14.065
22313W        W90718  13.313  24.546   0.185
22314W        W90719   4.882  36.838   4.579
22315W        W90720  11.428  29.461  13.426
22316W        W90721  16.846  14.988  11.963
22317W        W90722  42.072   4.908   4.241
22318W        W90723  21.813   7.907  11.412
22319W        W90724  26.926  11.632  14.594
22320W        W90725  17.424  11.022   0.258
22321W        W90726   4.913   1.643  13.781
22322W        W90727  20.949  27.320   0.634
22323W        W90728  28.103   0.465  11.950
22324W        W90729  18.654  43.983  13.610
22325W        W90730  39.933  23.365   2.299
22326W        W90731  36.836   9.966   2.199
22327W        W90732  28.383  21.803   1.962
22328W        W90733  42.851  37.783  11.522
22329W        W90734  17.707  44.025  13.471
22330W        W90735  42.059  28.626  13.549
22331W        W90736  25.181  19.961  10.712
22332W        W90737  22.044  31.194  12.128
22333W        W90738  29.130  34.043   3.476
22334W        W90739  37.532  22.557  14.653
22335W        W90740  30.189  44.714  11.459
22336W        W90741  35.993   0.308  14.492
22337W        W90742  11.458  27.992   2.851
22338W        W90743   4.822  14.745  13.388
22339W        W90744  24.974  14.821   0.553
22340W        W90745  26.062  43.363  13.726
22341W        W90746  12.472   8.876  12.371
22342W        W90747   2.738  20.512  10.624
22343W        W90748  18.241  20.075   3.018
22344W        W90749  36.781  27.616   4.133
22345W        W90750  36.485  15.623   3.108
22346W        W90751  18.735  24.959   2.124
22347W        W90752  10.910  37.617  12.015
22348W        W90753   8.151  16.683  11.568
22349W        W90754  43.814  37.453   1.268
22350W        W90755  21.539   9.846   0.848
22351W        W90756  37.007  44.915   1.764
22352W        W90757   0.990  28.491  11.426
22353W        W90758  30.500  29.869  13.376
22354W        W90759  35.681  30.779   1.026
22355W        W90760   5.196  43.960  11.048
22356W        W90761  38.938  22.146  14.818
22357W        W90762  44.344  21.057   4.249
22358W        W90763  13.168   9.408   0.808
22359W        W90764  17.782  31.296  12.547
22360W        W90765  43.007  13.758  14.883
22361W        W90766   5.430   5.271  13.874
22362W        W90767  31.367  22.506  13.857
22363W        W90768  31.974  44.481  10.556
22364W        W90769  44.522  27.448   2.706
22365W        W90770  22.204  35.948   0.863
22366W        W90771  10.856  44.887   2.670
22367W        W90772   2.272   3.845   3.563
22368W        W90773  37.678  25.014  14.406
22369W        W90774  42.458   7.774  14.357
22370W        W90775  21.376  17.087   1.664
22371W        W90776  22.428  29.485   1.490
22372W        W90777  14.034  39.058   3.751
22373W        W90778  33.911  37.924   4.621
22374W        W90779  10.347  28.296  11.642
22375W        W90780   5.385  10.332  14.065
22376W        W90781   1.874  23.927  13.493
22377W        W90782   5.718  43.216   1.325
22378W        W90783  26.179  28.534  11.235
22379W        W90784  30.063  19.709  11.147
22380W        W90785  22.193  36.583   2.931
22381W        W90786   1.571  20.993  11.072
22382W        W90787  24.996  25.327  11.678
22383W        W90788  17.108  10.767  12.814
22384W        W90789  29.127   1.947  14.840
22385W        W90790  23.617  34.554  12.273
22386W        W90791  26.496   4.346   0.753
22387W        W90792  27.076  37.123  12.497
22388W        W90793  43.816  42.951  13.918
22389W        W90794   4.397  31.445   0.028
22390W        W90795   6.821  12.483   2.377
22391W        W90796  24.516  31.405   4.261
22392W        W90797  22.982   3.363   3.744
22393W        W90798  21.044  33.435   4.109
22394W        W90799   7.386   7.229   0.195
22395W        W90800   5.702   2.530  11.190
22396W        W90801   4.804   3.248   3.258
22397W        W90802  10.356  40.107  10.295
22398W        W90803  11.247   2.565   4.180
22399W        W90804   0.379  44.069  10.434
22400W        W90805  10.551   9.194   4.798
22401W        W90806  25.076  15.766   4.106
22402W        W90807  30.090  34.380   2.414
22403W        W90808  39.357   6.910  14.766
22404W        W90809  23.098   8.171   1.432
22405W        W90810  32.099  43.373   1.125
22406W        W90811  29.100  23.944   2.666
22407W        W90812  18.743  18.296  13.101
22408W        W90813  29.408   0.854   2.343
22409W        W90814   4.378  14.027   4.581
22410W        W90815  34.328  17.197   4.825
22411W        W90816   8.483  11.164   4.232
22412W        W90817  15.676   7.285  10.564
22413W        W90818   6.326  25.620   2.665
22414W        W90819  27.737  21.610  10.797
22415W        W90820  22.755  19.619  12.068
22416W        W90821  20.689  38.797  12.734
22417W        W90822  15.150  27.413   4.627
22418W        W90823  29.988  23.771   3.201
22419W        W90824  13.391  39.629   1.823
22420W        W90825  28.194  19.450  12.875
22421W        W90826  43.406  33.571   3.674
22422W        W90827  40.346  39.113  11.255
22423W        W90828  39.761   0.816   1.221
22424W        W90829  11.156   5.167  13.932
22425W        W90830  37.024  16.791   0.211
22426W        W90831  24.702  18.717   1.342
22427W        W90832  29.452  25.470  14.034
22428W        W90833  30.069  17.336   3.116
22429W        W90834  15.628   9.212  14.928
22430W        W90835  17.640  42.734  13.957
22431W        W90836  33.350   7.329   0.283
22432W        W90837  34.127  37.509   0.328
22433W        W90838  27.169  39.738   1.883
22434W        W90839  43.248  12.907   1.405
22435W        W90840  39.604   0.309   0.380
22436W        W90841  31.193   5.788  13.456
22437W        W90842  21.820   6.250   2.294
22438W        W90843   1.441   1.178   1.187
22439W        W90844  17.051  12.122   2.606
22440W        W90845  21.958  26.662  11.907
22441W        W90846  19.149  43.274   4.163
22442W        W90847  27.710  11.605  13.550
22443W        W90848  36.690  29.852  13.194
22444W        W90849  39.203   9.734   4.769
22445W        W90850  30.157  18.028  12.672
22446W        W90851  12.095  34.032   2.690
22447W        W90852  22.470   6.084   1.830
22448W        W90853   1.467  19.277   1.756
22449W        W90854  14.109  31.857   4.133
22450W        W90855  20.617  25.160   9.986
22451W        W90856  33.511  13.076   3.334
22452W        W90857  29.754  19.772  10.750
22453W        W90858  43.810  35.105   0.007
22454W        W90859   3.417  12.927  13.333
22455W        W90860  23.723  43.493   3.289
22456W        W90861   8.778  34.276  10.715
22457W        W90862  16.142  16.798   4.560
22458W        W90863  28.362   3.764  12.056
22459W        W90864   6.220  32.149  11.449
22460W        W90865  13.716   3.931   4.041
22461W        W90866   8.383   1.870   3.644
22462W        W90867  30.036  20.986  14.928
22463W        W90868  30.664  24.251   0.433
22464W        W90869  30.153  42.941  11.068
22465W        W90870  41.321  18.682  12.430
22466W        W90871  36.479  18.107   1.072
22467W        W90872  42.883   5.459  14.967
22468W        W90873  30.932   3.346  10.602
22469W        W90874  27.386  38.828   4.957
22470W        W90875  19.215  12.721  14.414
22471W        W90876   1.339  29.691  11.669
22472W        W90877  31.490  27.461   4.565
22473W        W90878  25.419  40.465  14.038
22474W        W90879  29.588  10.897   2.702
22475W        W90880  34.127  29.379   4.319
22476W        W90881  16.973  17.574  11.451
22477W        W90882  23.141  14.798   1.400
22478W        W90883   7.445  29.428   1.319
22479W        W90884  34.164  42.281   2.692
22480W        W90885  10.901  38.863   0.399
22481W        W90886  40.583  27.865   3.720
22482W        W90887  41.081  41.852  13.475
22483W        W90888  37.092  44.305   3.200
22484W        W90889  43.489   9.450   1.287
22485W        W90890  13.528  25.525  12.463
22486W        W90891  36.584   3.543   0.872
22487W        W90892   6.716   7.407   3.142
22488W        W90893  13.056   0.236  10.532
22489W        W90894  37.847  19.337  11.993
22490W        W90895  37.029  16.222  13.008
22491W        W90896   4.318   4.714  10.034
22492W        W90897  22.525  33.975  13.075
22493W        W90898  20.194  11.219  11.288
22494W        W90899  13.687  39.486  14.956
22495W        W90900  29.198  20.566  14.947
22496W        W90901  19.800  42.462   2.619
22497W        W90902  44.295   2.875   4.462
22498W        W90903  36.945  31.963  14.347
22499W        W90904   8.804   1.147  14.414
22500W        W90905  19.162  12.656  12.836
22501W        W90906  30.134  39.841  13.925
22502W        W90907  16.928   2.351   2.839
22503W        W90908  40.487  29.194   1.277
22504W        W90909  13.598  38.885   0.299
22505W        W90910  13.136   5.375   3.408
22506W        W90911  17.804   0.474  13.361
22507W        W90912  33.323   8.266   1.663
22508W        W90913  37.408  15.285   1.782
22509W        W90914  18.343  25.250   5.458
22510W        W90915  24.183  31.972  10.261
22511W        W90916  13.383  10.866  13.012
22512W        W90917  18.473  13.761  12.124
22513W        W90918  32.251  39.203   0.715
22514W        W90919   9.833   7.191  13.378
22515W        W90920  44.232  11.006  14.769
22516W        W90921   5.459  20.138  13.964
22517W        W90922  16.219  23.450   3.868
22518W        W90923  22.071  34.982   3.868
22519W        W90924  11.508  23.541  13.089
22520W        W90925  34.961   0.697  13.909
22521W        W90926  33.851  40.455  12.050
22522W        W90927  22.947   1.915  11.513
22523W        W90928   0.788  29.163   1.837
22524W        W90929  36.985   7.657   4.158
22525W        W90930  24.657  30.368  11.217
22526W        W90931  22.320  17.205   3.353
22527W        W90932   5.364  14.310   4.535
22528W        W90933  33.517  26.273  12.469
22529W        W90934  27.313  11.261  12.090
22530W        W90935  41.509  24.117  14.366
22531W        W90936   7.317  23.221   4.626
22532W        W90937   2.009  27.585  11.571
22533W        W90938  40.896  23.031  12.402
22534W        W90939  19.135  14.165  11.147
22535W        W90940   5.359   1.693   1.135
22536W        W90941  31.528  39.459  10.183
22537W        W90942  44.698  43.454   4.095
22538W        W90943  44.329  23.587  11.997
22539W        W90944  26.014   4.917  14.379
22540W        W90945  19.252  14.584  12.972
22541W        W90946  19.696  12.265   2.255
22542W        W90947  36.199   8.193  11.745
22543W        W90948  43.475   5.224  14.564
22544W        W90949  35.972  36.062   2.792
22545W        W90950  34.020  25.203  13.315
22546W        W90951  44.156  26.675  10.779
22547W        W90952  42.021  42.634   1.808
22548W        W90953  39.824  20.576  14.256
22549W        W90954  28.550  43.305  14.860
22550W        W90955  23.005  44.902  13.294
22551W        W90956  32.602  21.405   0.186
22552W        W90957  25.653  16.649  12.091
22553W        W90958  20.832  38.095  11.522
22554W        W90959   2.980   6.048   2.432
22555W        W90960   6.755  15.553   4.944
22556W        W90961  23.169   7.476   3.399
22557W        W90962  34.325  24.768   0.820
22558W        W90963   8.874  16.150   0.821
22559W        W90964  40.857  42.595  13.015
22560W        W90965  35.510  17.728   4.512
22561W        W90966  23.068  29.439  11.426
22562W        W90967  30.426   1.877   1.331
22563W        W90968  17.680   2.196  11.617
22564W        W90969   1.950   1.952   4.691
22565W        W90970  13.009  17.840  14.321
22566W        W90971  35.391   9.821  13.369
22567W        W90972   1.993  17.045   4.861
22568W        W90973  44.813  40.048  12.008
22569W        W90974  25.928  20.186   2.909
22570W        W90975  38.030  19.543  12.446
22571W        W90976  22.301  33.479   2.305
22572W        W90977  24.419   1.247   0.030
22573W        W90978   1.934  43.999  13.943
22574W        W90979   3.793  20.151  12.584
22575W        W90980  37.082  18.593   1.797
22576W        W90981  11.616  39.456  10.947
22577W        W90982   2.206  34.385   0.763
22578W        W90983  32.644   8.720   4.594
22579W        W90984  35.472  31.008  13.416
22580W        W90985   9.233   6.154  12.833
22581W        W90986  20.756  44.523  10.979
22582W        W90987  36.234   4.879  13.933
22583W        W90988  33.258  17.091   2.790
22584W        W90989  29.155  42.931  12.447
22585W        W90990  38.857   9.995   4.108
22586W        W90991  15.325  42.106  13.183
22587W        W90992  26.429  41.681  11.243
22588W        W90993  19.958  13.673  11.963
22589W        W90994  35.563  43.456  11.559
22590W        W90995  21.058  28.032  12.115
22591W        W90996  26.431  29.032   2.460
22592W        W90997  29.054  23.217  11.403
22593W        W90998  37.170  22.442   1.730
22594W        W90999  43.234  40.335  12.448
22595W        W91000  30.721  28.825   2.857
22596W        W91001  22.963  43.247  13.404
22597W        W91002  14.140  39.229  13.128
22598W        W91003  10.977  15.647   3.307
22599W        W91004  33.709  19.058  11.261
22600W        W91005  19.284  20.199   1.137
22601W        W91006   1.303  11.672   3.277
22602W        W91007  44.932   8.173   4.693
22603W        W91008  38.049  38.448   1.191
22604W        W91009  19.214   5.481   4.084
22605W        W91010  17.506  17.709   1.770
22606W        W91011   2.012   2.138  13.880
22607W        W91012  29.669  24.067   0.694
22608W        W91013  24.485   9.869   1.111
22609W        W91014  34.196  39.391   1.826
22610W        W91015  43.887  20.844   3.251
22611W        W91016   5.832  12.749   4.871
22612W        W91017  19.732  21.212   3.646
22613W        W91018  36.888   1.277  11.059
22614W        W91019  17.159  19.172   0.307
22615W        W91020   2.631  37.893  11.009
22616W        W91021  30.130  14.063   3.231
22617W        W91022  26.256  41.671   3.679
22618W        W91023  17.740  42.992   0.214
22619W        W91024   2.704  20.240   3.607
22620W        W91025  27.689  25.616   0.383
22621W        W91026  42.558  23.491   0.219
22622W        W91027  29.099  24.095  11.407
22623W        W91028  39.409   2.144   9.763
22624W        W91029   9.326  34.268   1.422
22625W        W91030  33.919  35.913  13.981
22626W        W91031  22.516  14.253  12.494
22627W        W91032  15.082  35.927  14.146
22628W        W91033  13.863  41.349   2.368
22629W        W91034   7.228   6.161   1.240
22630W        W91035  14.345  32.612   1.691
22631W        W91036  26.931  29.006   2.595
22632W        W91037  44.819  11.616  12.382
22633W        W91038   5.754  31.623  11.579
22634W        W91039   0.030  16.144  14.833
22635W        W91040  35.278  10.898  13.438
22636W        W91041  40.080  10.752  10.939
22637W        W91042   2.869  31.942  12.060
22638W        W91043   3.885   5.784   2.837
22639W        W91044  34.728   1.479  12.420
22640W        W91045  32.367  41.255   4.111
22641W        W91046  33.449  34.613   4.299
22642W        W91047  16.883  23.596   0.697
22643W        W91048  24.764   2.769  13.890
22644W        W91049  36.342  35.391  10.766
22645W        W91050  11.872  21.237  12.452
22646W        W91051  18.134   8.801  14.479
22647W        W91052  34.598   5.846  13.520
22648W        W91053  17.023  18.396   0.938
22649W        W91054   0.810  33.993   3.910
22650W        W91055  15.470   8.328   4.008
22651W        W91056  16.341   7.453   0.304
22652W        W91057  12.367   2.042  14.953
22653W        W91058  37.958   7.051  11.521
22654W        W91059   9.709  43.657  14.625
22655W        W91060  41.437  39.920  11.636
22656W        W91061  23.797  15.683  14.856
22657W        W91062  26.466  39.601  12.559
22658W        W91063  37.762  17.541  12.482
22659W        W91064  31.855  19.471  14.652
22660W        W91065  24.011  44.212  13.164
22661W        W91066  19.747  33.674   5.034
22662W        W91067   4.813   4.189  13.560
22663W        W91068  41.240  23.157  13.377
22664W        W91069  18.101  22.960  13.021
22665W        W91070  32.145   9.727   1.740
22666W        W91071  41.060  42.452   0.230
22667W        W91072  23.201  16.187  12.468
22668W        W91073  40.967  44.008   4.648
22669W        W91074   8.362  30.502   1.733
22670W        W91075  36.429  35.937   0.455
22671W        W91076  18.332  38.989  12.875
22672W        W91077   4.371  22.212   2.849
22673W        W91078  34.370  30.394   0.893
22674W        W91079  29.546  41.426  13.384
22675W        W91080  25.477  17.764  13.513
22676W        W91081  35.423  14.446  13.274
22677W        W91082  30.022  41.990   2.463
22678W        W91083  31.121  44.995  13.836
22679W        W91084   7.889  30.112   0.395
22680W        W91085   0.338  11.063   1.308
22681W        W91086  42.935  41.994  10.492
22682W        W91087   3.163  37.436   0.363
22683W        W91088   9.260  15.078  12.469
22684W        W91089  42.734  19.113   2.630
22685W        W91090  34.313  11.482   1.460
22686W        W91091  31.073  30.969  12.167
22687W        W91092  14.519  37.881  13.020
22688W        W91093  29.452   3.844   1.916
22689W        W91094  29.247  43.781  11.467
22690W        W91095  37.285  27.940  13.927
22691W        W91096  29.615  24.892   2.408
22692W        W91097   1.538  21.122   0.354
22693W        W91098  13.558  15.350  14.768
22694W        W91099   3.784  15.679  14.597
22695W        W91100  26.229  40.487   2.880
22696W        W91101  34.441   5.459  12.917
22697W        W91102  17.779  32.088  13.980
22698W        W91103  42.340   1.540   2.745
22699W        W91104   4.460   0.450   0.876
22700W        W91105  13.459  32.415  14.984
22701W        W91106  20.008  35.175   2.966
22702W        W91107  36.025  43.526  13.739
22703W        W91108   3.976  15.691   0.079
22704W        W91109  23.415  40.307  11.144
22705W        W91110   8.398  44.873   0.448
22706W        W91111  41.879  11.438   1.871
22707W        W91112  10.787  17.423  10.677
22708W        W91113  17.471   3.343   0.483
22709W        W91114  17.997  17.830   0.310
22710W        W91115   1.889  17.393  11.972
22711W        W91116  11.380  35.366  10.375
22712W        W91117  37.566  34.601   0.740
22713W        W91118  34.860  27.680  12.504
22714W        W91119   1.529  17.891  10.888
22715W        W91120  15.191  11.448  13.801
22716W        W91121  43.018  27.824  14.877
22717W        W91122  30.733   7.708   3.324
22718W        W91123  33.454  32.166  10.154
22719W        W91124  10.776   1.341  11.678
22720W        W91125  37.808  29.196  14.029
22721W        W91126  12.028  21.710   1.911
22722W        W91127   8.332  27.922   2.316
22723W        W91128  22.063   4.475  13.225
22724W        W91129   8.732  44.009   0.902
22725W        W91130  11.767  28.364   0.475
22726W        W91131  26.205  40.469   1.850
22727W        W91132  41.514  35.375   4.159
22728W        W91133  34.034   3.186   2.667
22729W        W91134   0.279  36.361  14.354
22730W        W91135   9.670  42.875  10.872
22731W        W91136  38.578   0.403  14.386
22732W        W91137  15.832  35.898  13.304
22733W        W91138  21.593  20.177  10.699
22734W        W91139  25.430  28.804  11.071
22735W        W91140   3.365  19.028  12.144
22736W        W91141  10.449  20.636   3.630
22737W        W91142   8.344   0.400  13.060
22738W        W91143  12.266  39.578   1.268
22739W        W91144  39.376  37.439  10.597
22740W        W91145  21.785  30.224  12.003
22741W        W91146   8.205   6.142   0.906
22742W        W91147   3.515  38.984  14.816
22743W        W91148  24.491  30.633  12.136
22744W        W91149  12.353  19.117  11.023
22745W        W91150  39.459   6.191   3.676
22746W        W91151  43.249  42.277   3.336
22747W        W91152  35.100   0.818   0.906
22748W        W91153  35.073  27.100   4.505
22749W        W91154  13.649   7.866   3.230
22750W        W91155  39.696  36.906  14.000
22751W        W91156  20.507  44.711  12.324
22752W        W91157  40.786   6.901  14.252
22753W        W91158   7.868  41.936   2.848
22754W        W91159   2.987  25.450  14.076
22755W        W91160  42.125  26.895  10.618
22756W        W91161  13.059   1.473   3.147
22757W        W91162  35.596   7.422  12.502
22758W        W91163  29.043   1.904   0.365
22759W        W91164  39.249  11.809  13.881
22760W        W91165   0.846   6.690   1.291
22761W        W91166  12.145  34.331   4.108
22762W        W91167   0.469   9.493   1.303
22763W        W91168  31.969  28.263  14.258
22764W        W91169  21.133  13.284   0.248
22765W        W91170  35.380  23.280  12.152
22766W        W91171   1.665  25.106   0.499
22767W        W91172   8.039  38.802   2.616
22768W        W91173   1.846   8.256  11.437
22769W        W91174  25.031  13.119  14.336
22770W        W91175   3.285  37.010  10.634
22771W        W91176  25.611  12.593  14.728
22772W        W91177  30.541   8.632   3.675
22773W        W91178  28.068  32.068   1.876
22774W        W91179   3.937  15.628  11.047
22775W        W91180   1.802   5.494  11.611
22776W        W91181   2.667   5.607   4.227
22777W        W91182   6.285  26.652   4.043
22778W        W91183  10.315   4.380  10.500
22779W        W91184  13.245  39.637  12.168
22780W        W91185  36.180  34.436  13.458
22781W        W91186  10.480   1.896  11.002
22782W        W91187  35.333  40.590  12.846
22783W        W91188  21.031   8.190  14.299
22784W        W91189  13.084  43.047   0.291
22785W        W91190   9.653  35.390   0.850
22786W        W91191  10.912  17.773   3.479
22787W        W91192   2.043   9.808   0.837
22788W        W91193  22.560  15.626  12.981
22789W        W91194  38.383  23.241   0.322
22790W        W91195  39.971  15.209   4.179
22791W        W91196  19.188  14.564   0.294
22792W        W91197   0.772  10.172   3.902
22793W        W91198  37.456  22.871  14.194
22794W        W91199   8.567  29.329   2.331
22795W        W91200   0.813   7.011  11.066
22796W        W91201  10.333  12.438   3.929
22797W        W91202   4.685  36.839   3.249
22798W        W91203  16.400  12.647  12.911
22799W        W91204   0.465   7.620  12.001
22800W        W91205  44.809  17.766   3.308
22801W        W91206  30.983  37.084  11.973
22802W        W91207  12.683  23.288  14.265
22803W        W91208  28.127  19.530   3.710
22804W        W91209  15.705  16.316  13.183
22805W        W91210  39.357  25.191   0.458
22806W        W91211  32.469  44.221  12.827
22807W        W91212  43.857  13.800  12.489
22808W        W91213   1.745   7.083  13.426
22809W        W91214  42.859  31.857  13.341
22810W        W91215  17.159   8.824  14.826
22811W        W91216  38.037  31.558   2.195
22812W        W91217  12.776  14.214   4.132
22813W        W91218  16.736  44.823  13.725
22814W        W91219  24.106  25.512   0.395
22815W        W91220   1.108  40.027  11.649
22816W        W91221  23.823  28.656  14.460
22817W        W91222  21.180  38.959  12.618
22818W        W91223   0.077  18.263  13.651
22819W        W91224   0.793  14.935  11.466
22820W        W91225  25.164  32.697  13.046
22821W        W91226   2.770  14.755  11.518
22822W        W91227  13.096  31.548   1.553
22823W        W91228  43.272   6.745  12.937
22824W        W91229  30.932  14.320   3.775
22825W        W91230  22.619  14.727  10.661
22826W        W91231  15.403   2.128   5.358
22827W        W91232  30.033  34.022  14.502
22828W        W91233  38.373  27.159  14.441
22829W        W91234   4.443  29.810   4.514
22830W        W91235  16.338  13.826  14.928
22831W        W91236  25.510  37.663  11.275
22832W        W91237  43.365  29.125  10.295
22833W        W91238  34.738  39.448  11.407
22834W        W91239  39.851  42.117   3.894
22835W        W91240  39.556  21.583  14.957
22836W        W91241  31.035  39.698   2.720
22837W        W91242   3.556  41.581   1.480
22838W        W91243  26.173  43.823   2.416
22839W        W91244  34.638   9.049  14.392
22840W        W91245  38.505   9.301   4.098
22841W        W91246  19.998  29.965   2.340
22842W        W91247  25.629  35.675  12.964
22843W        W91248  44.556  23.556  14.778
22844W        W91249  14.153  34.500   0.931
22845W        W91250  32.446  31.370  13.399
22846W        W91251  29.920   3.171   2.680
22847W        W91252  38.897  26.210   4.957
22848W        W91253  20.683  31.497   3.627
22849W        W91254  10.645  21.049   4.739
22850W        W91255  16.751   9.766  13.064
22851W        W91256  30.039  18.340  14.477
22852W        W91257  40.460  21.988  12.218
22853W        W91258  15.250  13.678   2.485
22854W        W91259   6.509   0.981  12.448
22855W        W91260  17.975  34.917  14.818
22856W        W91261  42.628  12.520  13.499
22857W        W91262   2.666  11.142   3.163
22858W        W91263  34.126   7.160   0.853
22859W        W91264   0.457  26.243  12.950
22860W        W91265   9.337  30.570   1.751
22861W        W91266   0.005  17.477   0.495
22862W        W91267  14.375  37.954  11.485
22863W        W91268  22.225  26.441  13.273
22864W        W91269  15.576  43.483   5.056
22865W        W91270  39.438  18.405  13.764
22866W        W91271  41.951  39.896  10.793
22867W        W91272  13.230  42.520  13.131
22868W        W91273  24.971  12.173   4.743
22869W        W91274  42.384   0.790  11.506
22870W        W91275  38.092  29.381  11.620
22871W        W91276  42.356  12.028  14.937
22872W        W91277  21.659  31.089  11.801
22873W        W91278  20.602   2.049  14.244
22874W        W91279  22.824  40.607  12.412
22875W        W91280  11.121  33.829   4.454
22876W        W91281  33.523  21.126   3.731
22877W        W91282  28.461   0.573  11.110
22878W        W91283   2.312  15.659  11.915
22879W        W91284  41.857  44.348   4.591
22880W        W91285  16.785  23.315  13.367
22881W        W91286   5.339   7.782   3.332
22882W        W91287  35.383  32.091  14.840
22883W        W91288   2.715   6.859   3.558
22884W        W91289   8.426   2.225   0.759
22885W        W91290  20.843  11.078  13.780
22886W        W91291  20.095  34.485   0.730
22887W        W91292  14.648   3.519   2.211
22888W        W91293  14.102  20.279   2.686
22889W        W91294  43.923  13.135  10.366
22890W        W91295  42.029  38.412  12.391
22891W        W91296  18.499  19.180   0.530
22892W        W91297  41.482  17.158   4.255
22893W        W91298  37.765  23.137  11.913
22894W        W91299  42.933  37.144   1.828
22895W        W91300  16.076  19.070  14.363
22896W        W91301   1.457  12.063  14.386
22897W        W91302  21.500  26.601   4.155
22898W        W91303  14.360  23.517   0.660
22899W        W91304  10.569   6.710  12.554
22900W        W91305  31.113  12.240  12.023
22901W        W91306   6.846  27.225   1.876
22902W        W91307  27.515  41.365   0.493
22903W        W91308  31.535  43.739  12.200
22904W        W91309   2.842   6.192   4.136
22905W        W91310   9.565  22.841   5.064
22906W        W91311  18.995  12.060   4.935
22907W        W91312  28.630   0.328   3.144
22908W        W91313  24.531  39.582   0.070
22909W        W91314  23.336  39.475  12.019
22910W        W91315  29.916  26.553  14.266
22911W        W91316   2.323  41.790  11.568
22912W        W91317   6.744  14.233  13.802
22913W        W91318  21.422  18.225  13.796
22914W        W91319  27.361  37.420   0.056
22915W        W91320  38.220  12.372   1.909
22916W        W91321  13.214  40.976   0.285
22917W        W91322  21.767  33.926   4.626
22918W        W91323   3.005  41.054  11.477
22919W        W91324  40.544  24.087  14.388
22920W        W91325  22.060   3.608   2.740
22921W        W91326  11.610  34.894  13.921
22922W        W91327  25.450  43.800   3.694
22923W        W91328  33.663   6.848  11.082
22924W        W91329   1.811  10.415  13.037
22925W        W91330  18.966  37.357   2.778
22926W        W91331  35.945  43.034  14.483
22927W        W91332  22.723  15.272   1.879
22928W        W91333  37.829  39.591   2.759
22929W        W91334  35.453  44.087  13.903
22930W        W91335  26.809  32.196   0.043
22931W        W91336   3.381  29.494   3.270
22932W        W91337  17.460  26.192  12.374
22933W        W91338  22.763  12.640   3.816
22934W        W91339   8.646  31.966   1.157
22935W        W91340  24.056  35.789   4.330
22936W        W91341   4.195  34.548   4.312
22937W        W91342  20.019  22.479  11.048
22938W        W91343  15.617  16.780   2.500
22939W        W91344  22.261  22.511  10.604
22940W        W91345  18.089  42.534   2.186
22941W        W91346  35.431   9.778   4.117
22942W        W91347  10.222   0.390  11.527
22943W        W91348  19.682   7.338  11.192
22944W        W91349  38.054  43.883   3.845
22945W        W91350  39.358  32.262   1.280
22946W        W91351  20.064  16.603   2.955
22947W        W91352   5.047  40.376   3.438
22948W        W91353  16.643  14.746  10.703
22949W        W91354  30.474  10.189  13.768
22950W        W91355  40.991   7.207  12.866
22951W        W91356  32.478  34.073   3.654
22952W        W91357  33.402   0.654   2.136
22953W        W91358  36.655  38.615  10.625
22954W        W91359   1.724  26.383  11.927
22955W        W91360  33.894  31.687   0.848
22956W        W91361  25.085  40.852  11.981
22957W        W91362  32.493  22.151  11.576
22958W        W91363  39.967   0.302  10.645
22959W        W91364  21.071   2.273  14.490
22960W        W91365  43.313  18.330   4.194
22961W        W91366   9.211   1.752   1.014
22962W        W91367  29.681  14.475   0.867
22963W        W91368   0.479  34.555   4.541
22964W        W91369  41.132   3.047  11.292
22965W        W91370  37.352  42.100   0.398
22966W        W91371  23.043  43.275  12.533
22967W        W91372  30.537   1.558  13.174
22968W        W91373  11.813  14.280   1.847
22969W        W91374  42.539  14.658   3.165
22970W        W91375  37.269   3.767   2.831
22971W        W91376  32.133  34.507   5.056
22972W        W91377  27.191  19.290   1.700
22973W        W91378   8.326  18.426  10.626
22974W        W91379   7.461   8.842  12.515
22975W        W91380  14.557   9.423   2.888
22976W        W91381  40.033  16.300   1.633
22977W        W91382  12.182  24.599  13.870
22978W        W91383   3.342  12.764   3.130
22979W        W91384   2.614  28.217  14.953
22980W        W91385  40.851  14.183  12.137
22981W        W91386  42.605  13.628   0.808
22982W        W91387   3.507   4.156  11.620
22983W        W91388  28.066  21.929  14.495
22984W        W91389  10.717  38.392   2.719
22985W        W91390  18.874  37.330  13.829
22986W        W91391  15.072  17.157  13.456
22987W        W91392  24.607   8.782   0.544
22988W        W91393   9.062  44.012  11.811
22989W        W91394  28.598  12.214   3.571
22990W        W91395  30.233  41.777  10.690
22991W        W91396  37.452  35.090  12.435
22992W        W91397   0.439   6.215  13.529
22993W        W91398  33.471  38.874  10.956
22994W        W91399  31.660   8.603   4.360
22995W        W91400  23.663  22.479   3.081
22996W        W91401  19.163  26.263   9.750
22997W        W91402  39.957  31.692   2.159
22998W        W91403  39.936  15.629   3.187
22999W        W91404  40.929   9.343   0.793
23000W        W91405  31.378   5.845  12.965
23001W        W91406  14.209  15.656   3.372
23002W        W91407  14.155  28.555   1.464
23003W        W91408  16.240  21.963  10.977
23004W        W91409  37.515  29.993   0.046
23005W        W91410   2.456   4.700  13.686
23006W        W91411   3.994   6.984   2.353
23007W        W91412  14.793   5.349  10.703
23008W        W91413  31.930  11.677  11.910
23009W        W91414  34.823   9.121  12.480
23010W        W91415  24.600  10.743   2.070
23011W        W91416  42.514  25.722   4.194
23012W        W91417  43.088   1.998   2.538
23013W        W91418  37.406  41.932  12.595
23014W        W91419   9.621  10.062   1.937
23015W        W91420  17.724  44.849   4.360
23016W        W91421   5.159  37.832   3.662
23017W        W91422  17.880   5.881   3.065
23018W        W91423  37.314   1.342  11.643
23019W        W91424   7.183  33.087  14.353
23020W        W91425   8.654  34.536   1.010
23021W        W91426  32.522  14.016  10.949
23022W        W91427   5.341  44.884  11.278
23023W        W91428  10.677  14.866   4.208
23024W        W91429  21.239  44.306   1.882
23025W        W91430   8.083  21.383   3.831
23026W        W91431  23.238  19.625   4.910
23027W        W91432  19.045  41.530  10.708
23028W        W91433  37.751  41.059  10.708
23029W        W91434  26.418  24.478   4.263
23030W        W91435  17.264   4.339   2.864
23031W        W91436  31.911  44.377  13.259
23032W        W91437   7.701   8.546   4.187
23033W        W91438  21.115   3.951   4.530
23034W        W91439   6.215  22.021   1.323
23035W        W91440   1.920  15.111  14.600
23036W        W91441  33.882   8.698   1.870
23037W        W91442   2.718  21.725  13.398
23038W        W91443   7.445  36.993   2.097
23039W        W91444  39.420  32.557  13.471
23040W        W91445   9.914  13.742  12.055
23041W        W91446  39.442  37.915  13.139
23042W        W91447  41.395  26.030   3.826
23043W        W91448  26.744   9.168   0.891
23044W        W91449  29.408  14.333   1.627
23045W        W91450  23.173   0.160   1.838
23046W        W91451  24.249   7.952  11.127
23047W        W91452  19.211  33.922  11.623
23048W        W91453  31.979  18.517  12.423
23049W        W91454  31.511  29.849   0.498
23050W        W91455  44.928  38.106   2.921
23051W        W91456  24.285  25.482  13.777
23052W        W91457  28.618  43.904   1.895
23053W        W91458   7.101  10.237  13.015
23054W        W91459  14.674  36.971  12.983
23055W        W91460  17.622  27.587   0.023
23056W        W91461  10.335  43.081  11.996
23057W        W91462  12.478  17.556   4.848
23058W        W91463   5.926  30.657  11.977
23059W        W91464  23.006  42.424   3.647
23060W        W91465   1.306  22.839   3.340
23061W        W91466  43.928  17.309  12.036
23062W        W91467   6.251   0.483   3.228
23063W        W91468  30.564  37.483   1.880
23064W        W91469   8.240  33.944  13.023
23065W        W91470  28.481   4.174   2.833
23066W        W91471  32.408  26.126  14.514
23067W        W91472  21.570  43.759   3.803
23068W        W91473  39.361  34.872   3.780
23069W        W91474  21.583  32.601  12.881
23070W        W91475  23.686  29.427   4.283
23071W        W91476  36.422  43.620  14.131
23072W        W91477  44.990  31.323   0.028
23073W        W91478  21.633   0.604  14.460
23074W        W91479  35.841  18.346   1.022
23075W        W91480  27.426  29.977   1.336
23076W        W91481  12.276  19.346   2.607
23077W        W91482  28.451  36.628  11.612
23078W        W91483   9.845  32.013  12.485
23079W        W91484  19.298  19.499   1.875
23080W        W91485  12.390   9.827   0.774
23081W        W91486  14.902  37.682   2.693
23082W        W91487  17.747  16.293  12.550
23083W        W91488  24.678   6.560   0.873
23084W        W91489  24.697  25.708  14.035
23085W        W91490   9.498  27.139   9.923
23086W        W91491  39.575   7.456  14.536
23087W        W91492  31.046  19.230  13.012
23088W        W91493  42.120   0.529   4.134
23089W        W91494  20.257   1.319   4.959
23090W        W91495  39.956  37.131  11.509
23091W        W91496  30.522  26.051   2.337
23092W        W91497  35.754  32.397  12.530
23093W        W91498  41.504  33.546  12.005
23094W        W91499  11.349  13.746  13.630
23095W        W91500  40.836  39.465  14.502
23096W        W91501   1.919  15.315   2.260
23097W        W91502   0.066  31.550   3.663
23098W        W91503   0.449  25.715  11.573
23099W        W91504  36.756  24.126   0.763
23100W        W91505   6.123  24.277   0.566
23101W        W91506   0.433  13.352  13.745
23102W        W91507  16.450  26.330   3.203
23103W        W91508  18.784  30.178   1.912
23104W        W91509   3.458  27.784   4.415
23105W        W91510  37.977  32.804  11.605
23106W        W91511  30.727  12.562   1.746
23107W        W91512  34.244  17.746   2.364
23108W        W91513  24.065  15.233   3.864
23109W        W91514  34.590  10.335   0.692
23110W        W91515  36.628  34.856   0.363
23111W        W91516  11.827   4.108   0.490
23112W        W91517  18.876  14.187  14.455
23113W        W91518  28.682  40.911   4.388
23114W        W91519  44.877  38.405  10.469
23115W        W91520  13.547  29.507  10.750
23116W        W91521   9.415  35.531  11.988
23117W        W91522  42.269  20.489  11.555
23118W        W91523  43.888  36.676   4.271
23119W        W91524  32.356  17.583   4.984
23120W        W91525  23.010   0.505   3.627
23121W        W91526  33.817  33.135   0.119
23122W        W91527  31.632  38.929   4.344
23123W        W91528  11.747  16.760  12.754
23124W        W91529  24.132  19.032  11.048
23125W        W91530  41.383  12.241   1.507
23126W        W91531   1.373   7.908  10.783
23127W        W91532  33.384  13.201   0.507
23128W        W91533  18.554  21.703   2.288
23129W        W91534   9.462   7.593  13.444
23130W        W91535   6.133  37.075  12.158
23131W        W91536   4.071  24.448  13.083
23132W        W91537  38.075  26.879   3.141
23133W        W91538  31.914  31.022  14.894
23134W        W91539  16.874  21.287  11.250
23135W        W91540  42.496  37.022   3.589
23136W        W91541  30.948  44.497  10.207
23137W        W91542  17.321  29.232   2.270
23138W        W91543  31.450   1.602  13.968
23139W        W91544   2.329   4.630  14.705
23140W        W91545   9.136  31.335  14.904
23141W        W91546   6.426   7.760  10.612
23142W        W91547  40.271  20.625  11.519
23143W        W91548   6.469  26.628   4.534
23144W        W91549  14.143  14.549  11.536
23145W        W91550  37.921  15.240   1.769
23146W        W91551  23.170  27.516  14.501
23147W        W91552  42.305  44.283   1.988
23148W        W91553   5.177  30.526  12.631
23149W        W91554  14.092   9.511  14.361
23150W        W91555  16.124   0.984   2.223
23151W        W91556  22.482  30.999   0.743
23152W        W91557  42.769  17.302   1.929
23153W        W91558  44.467  41.151   4.104
23154W        W91559  28.075  10.597  13.994
23155W        W91560   5.112  32.550  11.905
23156W        W91561   3.436  36.905   0.778
23157W        W91562  42.599  17.499   4.853
23158W        W91563  28.392  40.559   2.819
23159W        W91564  22.513  25.572   3.707
23160W        W91565   2.218  31.111  12.182
23161W        W91566   7.351  17.251   3.555
23162W        W91567   8.910  25.705  13.517
23163W        W91568  44.290  26.817   9.871
23164W        W91569  14.132  41.557   4.265
23165W        W91570  22.360  27.621   1.209
23166W        W91571  34.028  24.941  14.769
23167W        W91572  20.805   8.901  14.809
23168W        W91573   7.176  22.575   2.153
23169W        W91574   7.850  25.918   0.025
23170W        W91575  16.142  17.012  14.284
23171W        W91576  11.795  33.904   2.277
23172W        W91577  41.225  42.399   1.369
23173W        W91578  16.296  22.592   0.873
23174W        W91579   9.670   1.872   0.203
23175W        W91580  39.262   9.968   1.272
23176W        W91581  38.442  16.589   2.283
23177W        W91582  15.364   4.192   2.159
23178W        W91583   9.066   6.211   1.406
23179W        W91584  22.701  23.099  11.643
23180W        W91585  27.413  21.563  12.987
23181W        W91586  10.406   1.219   4.561
23182W        W91587  38.532  11.518  12.484
23183W        W91588  29.630  36.469   1.583
23184W        W91589  19.526  21.713   2.554
23185W        W91590   1.192  35.520  13.041
23186W        W91591   8.623   2.192  13.605
23187W        W91592  15.992  41.979   1.798
23188W        W91593  36.727  25.471  14.951
23189W        W91594  21.969  21.821   0.842
23190W        W91595  35.865  16.151   1.317
23191W        W91596   4.703  28.652   2.822
23192W        W91597  42.064  31.148  14.919
23193W        W91598   5.722  33.063  11.858
23194W        W91599  20.880  31.473   4.795
23195W        W91600  29.398  35.945   4.357
23196W        W91601  26.544   8.318   3.487
23197W        W91602  35.974   7.666   0.900
23198W        W91603  15.840  13.378   5.165
23199W        W91604  33.986  11.565  11.150
23200W        W91605  13.772  30.403  14.983
23201W        W91606  37.299  35.630   1.906
23202W        W91607   9.350  34.023   0.711
23203W        W91608  38.491   1.938  13.124
23204W        W91609  33.537  12.893   2.405
23205W        W91610  41.870   6.846  14.494
23206W        W91611  24.909   3.442   4.286
23207W        W91612  42.347  14.468   0.586
23208W        W91613   7.777  24.258   4.471
23209W        W91614  36.987  27.989  10.537
23210W        W91615  12.482  27.151  12.808
23211W        W91616  17.328   0.186  11.560
23212W        W91617  19.132  42.018   1.751
23213W        W91618  23.976  27.995  10.658
23214W        W91619  21.430  33.810  10.719
23215W        W91620  33.249  28.048   3.999
23216W        W91621  14.246  10.360  12.886
23217W        W91622  42.139   5.837   4.427
23218W        W91623  39.917  27.580  13.895
23219W        W91624  43.849  30.566   1.846
23220W        W91625  23.296  12.745   2.686
23221W        W91626  23.552   9.072   1.874
23222W        W91627   7.699  35.482  10.499
23223W        W91628  21.646  10.067   1.383
23224W        W91629   2.930  22.835   3.608
23225W        W91630  44.857  25.654  12.335
23226W        W91631  16.204  24.241   3.571
23227W        W91632  44.961  16.337   2.770
23228W        W91633  17.886  25.482  13.847
23229W        W91634  30.272  37.080   0.647
23230W        W91635  30.669  40.994   2.608
23231W        W91636  23.509  19.194  13.390
23232W        W91637  42.376   2.416  10.767
23233W        W91638  41.394   9.264  12.041
23234W        W91639  42.010  31.673   0.852
23235W        W91640  39.851   0.977  14.975
23236W        W91641  15.279  16.058   3.823
23237W        W91642  44.422  10.255   3.619
23238W        W91643   9.724  18.387  10.762
23239W        W91644  15.724  16.975   3.824
23240W        W91645  30.623  10.859  13.044
23241W        W91646  42.443   0.720   3.181
23242W        W91647   5.174  35.421   1.867
23243W        W91648   2.320  22.201   4.603
23244W        W91649  18.034  42.102   4.640
23245W        W91650  41.999  30.954   2.237
23246W        W91651   4.146  19.416   3.760
23247W        W91652   4.524  44.679  11.195
23248W        W91653  16.091   9.822  11.632
23249W        W91654  23.997  28.018   4.565
23250W        W91655  27.013  16.616  14.539
23251W        W91656  18.836  44.371  10.650
23252W        W91657  12.669  23.586  12.549
23253W        W91658  11.586   5.177  10.928
23254W        W91659  30.481  17.543   2.835
23255W        W91660  11.892  30.302   2.335
23256W        W91661  37.657  12.727  11.102
23257W        W91662   8.680  20.206  10.535
23258W        W91663  22.331  10.463   1.791
23259W        W91664  22.973  20.516   3.838
23260W        W91665   4.891  37.628  14.241
23261W        W91666  21.247  44.304  10.295
23262W        W91667  21.866  33.416  14.259
23263W        W91668  42.258  12.104  11.105
23264W        W91669  21.467  11.984  10.139
23265W        W91670  10.675  41.185   4.232
23266W        W91671  10.107   2.326   4.114
23267W        W91672  12.210  27.136  14.177
23268W        W91673  40.941  22.141   3.121
23269W        W91674   4.656  30.973   3.222
23270W        W91675  14.695  43.035  13.214
23271W        W91676   1.826  10.826  11.597
23272W        W91677  24.730   7.297  11.344
23273W        W91678  29.457  30.961   2.129
23274W        W91679  26.638   0.796  10.756
23275W        W91680  18.693  37.380  14.316
23276W        W91681  29.064  12.564   1.410
23277W        W91682   3.169  24.622   0.160
23278W        W91683   1.429   3.840  12.215
23279W        W91684  36.739   4.175   4.108
23280W        W91685  13.164  32.077   1.760
23281W        W91686  23.193  16.020   4.974
23282W        W91687  42.290   4.655   0.981
23283W        W91688  36.633  19.193   4.641
23284W        W91689  36.525  33.861   4.663
23285W        W91690   7.281  40.694   0.197
23286W        W91691   4.234  12.815  13.862
23287W        W91692  26.983  41.114   1.925
23288W        W91693  38.386  32.910  12.995
23289W        W91694   1.320  11.561   1.871
23290W        W91695  40.399   9.823  12.615
23291W        W91696  43.105  25.678  13.834
23292W        W91697  26.372   2.770  11.737
23293W        W91698  20.193  17.331  11.481
23294W        W91699  16.168  11.793   0.896
23295W        W91700  30.360   6.308   4.382
23296W        W91701  20.669  35.633   4.587
23297W        W91702  43.520  29.527   4.748
23298W        W91703  13.628  14.891   3.465
23299W        W91704  44.164  15.282   3.171
23300W        W91705  25.835  25.837   4.186
23301W        W91706   0.356  43.242  14.467
23302W        W91707   1.177  30.489   1.802
23303W        W91708   2.260  23.557  11.043
23304W        W91709  30.099  39.570  10.644
23305W        W91710   8.655  19.337   0.992
23306W        W91711   6.639   1.483   1.529
23307W        W91712   7.903   6.462   0.641
23308W        W91713  37.412   7.817  13.980
23309W        W91714  14.346  11.745  14.768
23310W        W91715  18.499  39.374  14.960
23311W        W91716  31.345  32.653   1.311
23312W        W91717   6.811   9.311   3.738
23313W        W91718  23.475  14.386  13.985
23314W        W91719   2.011   8.435  10.435
23315W        W91720  31.067  40.115  13.264
23316W        W91721  21.621  21.203  10.657
23317W        W91722  32.525  41.492   4.558
23318W        W91723  11.256  16.739  11.183
23319W        W91724  26.036  22.468   4.061
23320W        W91725  27.805   7.459   4.177
23321W        W91726  43.922  28.549   0.662
23322W        W91727  19.575  34.228   3.322
23323W        W91728  42.557  42.860   3.651
23324W        W91729  33.083  36.493  12.506
23325W        W91730  37.419  37.851   1.354
23326W        W91731   0.704  14.191   4.212
23327W        W91732  21.835  34.793  11.631
23328W        W91733   6.736   1.377  14.003
23329W        W91734  43.433  29.024   4.613
23330W        W91735  23.963  37.328  13.430
23331W        W91736   7.836   3.419  14.958
23332W        W91737  31.032   1.778   3.703
23333W        W91738  20.036  27.583  13.438
23334W        W91739  36.918  44.113  10.744
23335W        W91740  18.860  21.501  10.273
23336W        W91741  29.150   4.165   3.758
23337W        W91742  31.683   2.715   1.262
23338W        W91743  18.171  32.340  11.863
23339W        W91744  30.826  35.569   4.626
23340W        W91745   7.799   9.743   0.787
23341W        W91746  34.087  41.988   1.840
23342W        W91747  15.661   8.337   0.532
23343W        W91748  11.376   0.208  13.393
23344W        W91749  13.820  23.028  11.531
23345W        W91750  20.092   6.295   2.357
23346W        W91751  38.061  19.684   3.875
23347W        W91752  20.732  34.964  13.925
23348W        W91753   9.450  12.189   4.314
23349W        W91754  29.672  33.570  10.592
23350W        W91755   7.942  13.325   1.819
23351W        W91756  17.089  21.884   3.598
23352W        W91757  14.902   5.266  11.205
23353W        W91758  18.614  15.041   3.147
23354W        W91759  10.047  14.774  11.231
23355W        W91760  26.463   7.023  12.152
23356W        W91761  39.287   6.646  13.156
23357W        W91762   7.656  33.092   4.200
23358W        W91763  18.688  26.947   3.299
23359W        W91764   3.287   1.708   1.249
23360W        W91765  41.431  33.703   1.250
23361W        W91766   2.804   5.306  13.116
23362W        W91767   2.954  41.358  14.135
23363W        W91768   0.370   7.864  10.600
23364W        W91769  34.380  39.982  12.427
23365W        W91770   7.293  11.650   4.596
23366W        W91771  24.065  31.992  11.258
23367W        W91772  37.852  10.375   2.409
23368W        W91773  44.926  34.141  12.143
23369W        W91774  33.987  26.917  11.991
23370W        W91775  41.979  21.574  11.437
23371W        W91776   5.701  40.668  13.346
23372W        W91777  27.485  24.135  11.175
23373W        W91778  35.484  15.695  12.569
23374W        W91779   8.613  20.314  14.452
23375W        W91780  18.032  28.478  13.533
23376W        W91781  16.694  11.693   0.862
23377W        W91782  24.347  16.360   4.114
23378W        W91783  17.653  13.834  14.579
23379W        W91784  22.092   6.146   2.740
23380W        W91785  42.282   3.315  11.965
23381W        W91786  33.543  18.736  12.950
23382W        W91787   1.366  41.908  11.225
23383W        W91788   2.704  40.907  14.014
23384W        W91789  27.682  26.510   0.462
23385W        W91790  28.397  12.704  12.880
23386W        W91791  44.731   2.732   4.210
23387W        W91792   9.361  22.514   0.912
23388W        W91793  22.967   9.809   1.714
23389W        W91794   2.938  17.982  14.496
23390W        W91795  19.677  17.499   4.984
23391W        W91796   2.725   4.352   4.520
23392W        W91797   8.690   3.426  11.615
23393W        W91798  18.234  19.626   2.752
23394W        W91799  33.665  16.809   2.945
23395W        W91800  10.418  32.762   2.236
23396W        W91801  16.582  31.573   3.958
23397W        W91802  24.542  14.859  13.428
23398W        W91803  22.596  32.142   0.279
23399W        W91804  26.553  14.268  13.999
23400W        W91805  31.660  21.275   4.486
23401W        W91806  37.375  20.432  14.818
23402W        W91807  41.785   4.823   2.277
23403W        W91808  12.871   6.108  13.937
23404W        W91809  22.593  43.396  11.306
23405W        W91810  19.525   1.157   4.199
23406W        W91811  29.176  18.313   5.270
23407W        W91812  22.050   5.021   0.965
23408W        W91813  35.196   7.846   2.238
23409W        W91814  10.342  29.557   1.882
23410W        W91815  17.095  23.734   4.126
23411W        W91816  38.287  32.692   4.392
23412W        W91817  32.662  33.535   0.702
23413W        W91818  17.195  30.698   0.399
23414W        W91819  40.181  36.402  12.022
23415W        W91820  28.554  28.468   0.170
23416W        W91821  17.084  23.730  13.532
23417W        W91822  18.277   4.259  10.396
23418W        W91823   3.763  44.717   0.908
23419W        W91824  26.742   0.275   2.914
23420W        W91825  11.160  26.225  14.510
23421W        W91826  17.733   9.841   2.186
23422W        W91827  21.555   9.061   1.359
23423W        W91828  29.973  25.501  13.373
23424W        W91829  25.460  42.001  13.020
23425W        W91830  44.199  25.254  14.614
23426W        W91831  29.681  22.488  14.780
23427W        W91832  11.201  38.892  14.974
23428W        W91833  31.901  30.127  13.577
23429W        W91834  10.127  34.126  10.492
23430W        W91835  39.166  26.561   3.667
23431W        W91836   1.709  28.026   1.015
23432W        W91837   3.190  31.938   1.727
23433W        W91838  19.417  17.081  14.119
23434W        W91839  32.366  15.131  14.308
23435W        W91840  17.553   3.983  12.002
23436W        W91841  29.004  29.897  11.613
23437W        W91842  10.806   6.468   2.908
23438W        W91843  34.927  18.159   3.310
23439W        W91844  14.318  14.192   4.192
23440W        W91845   3.276   0.676   0.892
23441W        W91846  33.377  19.685   2.688
23442W        W91847  31.172  42.860  11.084
23443W        W91848  15.972   0.381   2.209
23444W        W91849  44.773  43.183   1.381
23445W        W91850  25.340  27.686   0.276
23446W        W91851  33.876  31.604   3.293
23447W        W91852  39.361  24.307  11.514
23448W        W91853  37.454   0.688   1.897
23449W        W91854  26.513  32.646  11.377
23450W        W91855   1.273   7.145  14.484
23451W        W91856  14.694   3.219   1.783
23452W        W91857  12.207  39.491   4.686
23453W        W91858  37.096  14.779   0.370
23454W        W91859  14.033  35.861   1.589
23455W        W91860   2.821  39.273  14.336
23456W        W91861  37.071  11.249  14.885
23457W        W91862  29.204  32.608   2.903
23458W        W91863  19.723  22.559   1.940
23459W        W91864   3.133   3.445   1.851
23460W        W91865   1.249  34.554   2.870
23461W        W91866  40.555   6.465  14.403
23462W        W91867  37.988   1.064  10.336
23463W        W91868  28.836  24.043  10.982
23464W        W91869  26.591  35.743  14.252
23465W        W91870  40.125  35.807  11.048
23466W        W91871  44.568  36.053   0.317
23467W        W91872  13.805  13.801  11.232
23468W        W91873  44.771  31.241   4.113
23469W        W91874   2.955  29.251  11.581
23470W        W91875  39.412  28.204   0.303
23471W        W91876  16.544   2.280   3.809
23472W        W91877  37.806   0.382   2.076
23473W        W91878  28.544  43.239  11.467
23474W        W91879  22.660  19.778   3.422
23475W        W91880  39.821  18.645  14.943
23476W        W91881  24.511  36.026  12.073
23477W        W91882  34.525   6.999   4.369
23478W        W91883   7.405   0.741  12.912
23479W        W91884  13.092  24.687  10.624
23480W        W91885  14.160  24.598   0.780
23481W        W91886  30.885  25.341  13.396
23482W        W91887  34.023  15.072   1.009
23483W        W91888  26.192  34.425  12.257
23484W        W91889  31.677  35.694   2.001
23485W        W91890   8.668  33.492  14.701
23486W        W91891  16.801  36.091  11.648
23487W        W91892  38.525  30.514   4.605
23488W        W91893   5.926   3.960  13.432
23489W        W91894  38.028  36.249   4.863
23490W        W91895  36.482  39.704  11.705
23491W        W91896  10.797  19.737   1.245
23492W        W91897  37.301  13.722   1.235
23493W        W91898  12.948  40.516   0.299
23494W        W91899  31.912   9.733  10.884
23495W        W91900  22.012   2.702   0.222
23496W        W91901  22.544  25.770  10.602
23497W        W91902  32.014  17.835  13.825
23498W        W91903  30.219  11.713  14.674
23499W        W91904   7.687  41.774   4.187
23500W        W91905   3.866   3.908  10.867
23501W        W91906  35.844   2.798   4.682
23502W        W91907   1.061  33.984  11.258
23503W        W91908  20.133  14.453  11.574
23504W        W91909   8.929  23.482   0.883
23505W        W91910  39.970  25.067   1.624
23506W        W91911  40.914  39.678  11.173
23507W        W91912  22.175  22.435  13.370
23508W        W91913  18.990  20.496  13.107
23509W        W91914  43.073  18.170   2.745
23510W        W91915   0.528   4.423  11.516
23511W        W91916  11.093  23.207  11.128
23512W        W91917   7.689  15.844   1.182
23513W        W91918   1.049   9.423   2.811
23514W        W91919   8.190  32.638   1.699
23515W        W91920   6.700   5.403   1.190
23516W        W91921   2.028  35.966   0.275
23517W        W91922   6.751  30.055  13.340
23518W        W91923  27.109  14.600   1.826
23519W        W91924  26.593  18.544  12.608
23520W        W91925  26.710   6.250  14.488
23521W        W91926  41.305  15.330  11.566
23522W        W91927  33.889   9.570   3.336
23523W        W91928  34.917  19.485  10.816
23524W        W91929  12.512   4.664   3.286
23525W        W91930  33.630  23.187  12.469
23526W        W91931  29.448   3.269  14.356
23527W        W91932  15.242  22.383  12.194
23528W        W91933  41.970   9.276  10.409
23529W        W91934  39.582  25.589  11.524
23530W        W91935  32.593  32.513   4.149
23531W        W91936  40.472  31.610  10.840
23532W        W91937  29.011  10.722   0.071
23533W        W91938  30.471  12.846  14.794
23534W        W91939   6.604   0.379  13.825
23535W        W91940  34.848  25.272  11.945
23536W        W91941  16.854   0.728  14.772
23537W        W91942  41.029   0.840   2.233
23538W        W91943   0.833  42.082  11.952
23539W        W91944  31.931   0.850  12.505
23540W        W91945  21.584  30.139   2.349
23541W        W91946  26.873  18.479   1.305
23542W        W91947  23.099   9.196   2.166
23543W        W91948  13.249  13.308   1.384
23544W        W91949  16.144  40.454   3.387
23545W        W91950  29.214  25.640   2.723
23546W        W91951  32.671  26.473  14.188
23547W        W91952   0.987   1.112   2.800
23548W        W91953  39.908  27.479  11.025
23549W        W91954  18.223  37.833  13.955
23550W        W91955  42.076  18.581   4.734
23551W        W91956   7.639  25.477   0.847
23552W        W91957  19.698   2.723  12.632
23553W        W91958  26.241   3.169   1.798
23554W        W91959   5.356  19.585  12.480
23555W        W91960  21.285  15.440   0.318
23556W        W91961  40.306  21.264   3.769
23557W        W91962  25.570  11.648  13.665
23558W        W91963  28.224  27.523  11.606
23559W        W91964  27.480  43.845  11.074
23560W        W91965  11.139  24.049  11.201
23561W        W91966   6.854  31.364  12.396
23562W        W91967   1.654  33.052   1.878
23563W        W91968  19.997  42.287   3.766
23564W        W91969   1.480  34.617   4.159
23565W        W91970  19.030  12.866  13.942
23566W        W91971   3.493   1.293  10.599
23567W        W91972  20.492   8.192  11.973
23568W        W91973  18.815  35.514  12.947
23569W        W91974  43.408  19.617   3.536
23570W        W91975  30.401  13.616  12.543
23571W        W91976  43.788  34.967  11.269
23572W        W91977  44.788  42.412  14.729
23573W        W91978  27.657   1.472  11.169
23574W        W91979  15.111  29.000  11.883
23575W        W91980   3.274  11.572   2.141
23576W        W91981  38.347  34.445  11.809
23577W        W91982   2.530   2.738  13.405
23578W        W91983   5.215  20.166  14.428
23579W        W91984   5.731  31.521  10.900
23580W        W91985   9.588   7.757  12.962
23581W        W91986  25.441   6.956   3.715
23582W        W91987  16.042  25.989  11.481
23583W        W91988  40.926  26.683   0.964
23584W        W91989   4.188  17.340  13.327
23585W        W91990  33.591  40.752   3.198
23586W        W91991  42.961  39.407  11.081
23587W        W91992  11.049  24.960  11.262
23588W        W91993  41.478  29.196   2.408
23589W        W91994  18.801  17.768  13.116
23590W        W91995  32.096   4.691   3.283
23591W        W91996  21.797  30.934   3.494
23592W        W91997  26.560  26.725  12.059
23593W        W91998   5.910  28.157   2.247
23594W        W91999  16.092  26.471  14.402
23595W        W92000  15.485   9.633  12.984
23596W        W92001  22.137  11.797   3.757
23597W        W92002  33.452  39.643   4.691
23598W        W92003  41.917   8.251   4.735
23599W        W92004  19.670  34.234  14.046
23600W        W92005  41.237  12.418  11.007
23601W        W92006  25.512   3.658   4.455
23602W        W92007  10.731  22.711  12.610
23603W        W92008  42.424  14.383  14.087
23604W        W92009  22.544  15.700   2.865
23605W        W92010  37.848  20.582  12.473
23606W        W92011  24.384  17.137  12.985
23607W        W92012  23.749  10.588   3.245
23608W        W92013  37.348  27.608  10.195
23609W        W92014  41.599  44.869   1.929
23610W        W92015  28.633  42.400   0.793
23611W        W92016  22.160  38.513   0.274
23612W        W92017  25.964  42.018  12.861
23613W        W92018  36.965  40.236   3.276
23614W        W92019  43.224   3.913   2.729
23615W        W92020  14.267   5.923   2.804
23616W        W92021  37.218   3.917  13.164
23617W        W92022  31.084  32.724  14.316
23618W        W92023  35.414  44.567  11.974
23619W        W92024   4.261  36.147   2.683
23620W        W92025  35.505   8.120  14.482
23621W        W92026  38.081   1.796   3.359
23622W        W92027  22.415  23.650  14.994
23623W        W92028  27.020  17.754  12.592
23624W        W92029   8.718  27.116   4.920
23625W        W92030  23.082  39.603  14.261
23626W        W92031  30.359   5.478  11.130
23627W        W92032  27.047  19.686  11.624
23628W        W92033  34.978   6.288   0.769
23629W        W92034   7.784   1.982  13.393
23630W        W92035  39.765  25.822  13.520
23631W        W92036  16.800   3.518  11.161
23632W        W92037  13.188  40.773  14.792
23633W        W92038  25.517   5.928   2.778
23634W        W92039  27.141  31.594   0.618
23635W        W92040  37.514  33.817  12.941
23636W        W92041  23.453  20.270  12.441
23637W        W92042  35.526  11.001   3.236
23638W        W92043  43.779   5.399  13.430
23639W        W92044  31.610  18.203  14.916
23640W        W92045  17.824   3.875  14.634
23641W        W92046  26.964  10.190   4.621
23642W        W92047  41.778   5.004  14.511
23643W        W92048   0.346  31.993   3.792
23644W        W92049   5.820  41.987   3.804
23645W        W92050  40.584  19.711  11.928
23646W        W92051   1.969  42.854  13.249
23647W        W92052  31.371  35.470   0.759
23648W        W92053  23.028   1.728  12.893
23649W        W92054  44.964  15.823   1.207
23650W        W92055  16.650  12.628   1.594
23651W        W92056  39.250  39.398  12.885
23652W        W92057  18.231  25.078   2.169
23653W        W92058   3.459   7.701  14.043
23654W        W92059  12.669  24.702   4.056
23655W        W92060  21.008  25.218   3.748
23656W        W92061  43.491  40.102   0.832
23657W        W92062  16.316  37.514   3.723
23658W        W92063  38.051   6.579  11.893
23659W        W92064  11.132  19.146   0.027
23660W        W92065  43.395  24.218  14.466
23661W        W92066  42.231  18.206  11.527
23662W        W92067  20.253   7.330  10.439
23663W        W92068  24.273   6.291  12.105
23664W        W92069  40.084   0.135   0.290
23665W        W92070  39.585   6.999  10.838
23666W        W92071  19.124  43.055   1.821
23667W        W92072   6.799  17.162  14.340
23668W        W92073  27.078   3.988  14.417
23669W        W92074  35.361  36.513   0.365
23670W        W92075   2.257   8.079  11.075
23671W        W92076  19.586  14.166  12.890
23672W        W92077  11.073  33.065  13.590
23673W        W92078   4.804  11.245   0.105
23674W        W92079  18.594   3.304   3.680
23675W        W92080   2.948  10.835  14.326
23676W        W92081  18.979  37.770  10.986
23677W        W92082  21.346  24.119  11.266
23678W        W92083  12.381  30.999   4.202
23679W        W92084  20.251  12.291   2.341
23680W        W92085  43.364  26.447   1.852
23681W        W92086   4.767  28.368   4.083
23682W        W92087  37.106   3.775   5.284
23683W        W92088  39.365  26.321   4.592
23684W        W92089  20.683   7.384  10.727
23685W        W92090  10.282  14.640   0.791
23686W        W92091  32.146  24.754   3.495
23687W        W92092  24.003  27.141  14.846
23688W        W92093  37.438   8.493   0.938
23689W        W92094  22.960  15.292   2.737
23690W        W92095  37.191  36.386  10.718
23691W        W92096  28.099  22.524   3.649
23692W        W92097  24.734  30.642   0.811
23693W        W92098  25.061  19.028   2.799
23694W        W92099  44.357  29.260   1.835
23695W        W92100  26.608  37.673  10.437
23696W        W92101  20.673  28.548   2.398
23697W        W92102   3.810  25.950   4.671
23698W        W92103  10.876  43.720   1.680
23699W        W92104  35.409  38.082  13.795
23700W        W92105  44.805  28.997   1.747
23701W        W92106  33.995  29.196  11.218
23702W        W92107  35.112  17.875  13.434
23703W        W92108  22.167   4.854  14.589
23704W        W92109   3.635  21.772  11.792
23705W        W92110  30.614   8.903  11.952
23706W        W92111  26.091  32.863   4.082
23707W        W92112  18.838  35.047  11.459
23708W        W92113  21.501  26.442   3.409
23709W        W92114  19.297   3.533   3.215
23710W        W92115  33.790  13.379  13.568
23711W        W92116   1.662  29.984  12.008
23712W        W92117  35.267  19.941  12.594
23713W        W92118  27.897  43.187  14.361
23714W        W92119   0.246  44.082  14.404
23715W        W92120   3.905  37.865  13.789
23716W        W92121  22.132  29.479   0.547
23717W        W92122  19.996  16.530  14.038
23718W        W92123  19.626  35.084  10.597
23719W        W92124  43.918   3.388   0.378
23720W        W92125  22.817  44.308   0.012
23721W        W92126   2.821  20.335   1.777
23722W        W92127   8.387  41.326   4.920
23723W        W92128  38.517  41.751  11.139
23724W        W92129  35.875  22.749  12.497
23725W        W92130  19.543  28.493  14.497
23726W        W92131  11.395  34.936   0.454
23727W        W92132  13.600  32.366  13.779
23728W        W92133   7.859  17.806   0.931
23729W        W92134  14.811  21.243  12.067
23730W        W92135  22.671  28.005   2.679
23731W        W92136  17.030   8.314   2.269
23732W        W92137  20.811  37.957  14.818
23733W        W92138  42.461  18.469  14.495
23734W        W92139  12.585  34.580   4.036
23735W        W92140  20.708  12.782  10.714
23736W        W92141  18.498  15.767   4.065
23737W        W92142  23.767   8.522  11.858
23738W        W92143  28.669   1.551   3.859
23739W        W92144  25.083  39.042   3.529
23740W        W92145   4.480  20.285   3.332
23741W        W92146  44.067  26.648  13.198
23742W        W92147  13.629  36.995  12.020
23743W        W92148  15.153  41.311  12.828
23744W        W92149  17.713  27.110  11.929
23745W        W92150   4.784  34.511  13.137
23746W        W92151   5.768  24.539  14.471
23747W        W92152  36.786  42.555   0.505
23748W        W92153  24.481  20.747   3.302
23749W        W92154  23.228  22.044   0.733
23750W        W92155  44.820  39.841   4.413
23751W        W92156  32.627   9.257  13.950
23752W        W92157  17.657  20.545   0.392
23753W        W92158  14.673  36.101  14.477
23754W        W92159  44.217  15.586   0.973
23755W        W92160  42.270  32.985  13.227
23756W        W92161  39.980  25.651   4.581
23757W        W92162   0.365  44.757   2.709
23758W        W92163   5.651   0.876  11.337
23759W        W92164  44.713  29.005  10.871
23760W        W92165  17.702  42.993  13.500
23761W        W92166  40.356  29.032   1.820
23762W        W92167   4.420  44.255  12.017
23763W        W92168  27.524  37.215  10.702
23764W        W92169  21.804  12.044  12.218
23765W        W92170  14.516  29.129  13.799
23766W        W92171  39.922  12.604   4.376
23767W        W92172  23.818  13.362   4.720
23768W        W92173  16.565  22.609  12.563
23769W        W92174  16.458  13.095   1.393
23770W        W92175  19.178  40.037  12.961
23771W        W92176  37.162   6.425  14.100
23772W        W92177  10.567  17.451   0.289
23773W        W92178   1.730   4.416   2.155
23774W        W92179  43.167  22.931   1.316
23775W        W92180   4.566  21.164  10.073
23776W        W92181  18.122   1.360   0.678
23777W        W92182  37.964  17.170  13.223
23778W        W92183   2.334   2.235  13.466
23779W        W92184   9.360  22.048   3.130
23780W        W92185   5.413   3.124   1.185
23781W        W92186  32.091  12.354  12.956
23782W        W92187  15.097  22.074   4.588
23783W        W92188   5.737  31.815   4.191
23784W        W92189  29.030  12.097  10.694
23785W        W92190  16.893   5.196   2.195
23786W        W92191  13.117   1.478   4.445
23787W        W92192   1.529   6.116   1.319
23788W        W92193  38.007  32.515   2.174
23789W        W92194  32.600   2.917  13.816
23790W        W92195  16.265  30.395  12.780
23791W        W92196  25.158  34.515  13.078
23792W        W92197  23.537  26.352   0.640
23793W        W92198  17.268   4.706  12.576
23794W        W92199  34.745  26.178  14.257
23795W        W92200  33.924   0.716   3.290
23796W        W92201   7.242   9.582   2.413
23797W        W92202  11.256  30.305   3.730
23798W        W92203   4.086   9.512  14.511
23799W        W92204  24.109   7.814  12.872
23800W        W92205  21.569  12.342  10.718
23801W        W92206  17.277  35.306   1.005
23802W        W92207  40.366  31.173   0.351
23803W        W92208  14.266  44.681  10.656
23804W        W92209   2.007  17.962  11.090
23805W        W92210  29.249  18.794   2.280
23806W        W92211  33.933   6.750  13.649
23807W        W92212   2.387  32.970   1.359
23808W        W92213  22.478  12.377  10.937
23809W        W92214  33.479   0.354  13.802
23810W        W92215  22.755   2.693   4.160
23811W        W92216  27.719  41.435   3.684
23812W        W92217   0.907  23.110   1.882
23813W        W92218   0.501   1.975  12.000
23814W        W92219  38.129  37.964  12.950
23815W        W92220  42.212   3.721   2.750
23816W        W92221  22.530  20.656  12.134
23817W        W92222  39.505  22.117   1.440
23818W        W92223   3.374   5.715  12.574
23819W        W92224   3.052   4.726   0.870
23820W        W92225  42.078  43.450   0.175
23821W        W92226  34.663  28.278  12.224
23822W        W92227  32.163  33.832   3.224
23823W        W92228  37.564  23.379  14.337
23824W        W92229  28.931   2.288   2.714
23825W        W92230  36.701  41.294  11.486
23826W        W92231  32.821   1.471   3.067
23827W        W92232  35.400  23.781   1.093
23828W        W92233  14.219   5.268   0.219
23829W        W92234  12.370   6.339   1.287
23830W        W92235  43.938  42.852   4.931
23831W        W92236  31.398  31.939   0.971
23832W        W92237  12.665  25.213   1.211
23833W        W92238  40.190   9.556  10.789
23834W        W92239  31.652   9.066  12.878
23835W        W92240  32.814   2.061   0.755
23836W        W92241   1.686  38.857   3.854
23837W        W92242  28.176  34.788  12.858
23838W        W92243  33.948   8.627   3.693
23839W        W92244   8.889  28.424   4.383
23840W        W92245  17.339  37.498   1.928
23841W        W92246  10.764  29.404   0.106
23842W        W92247  19.480  36.847  11.272
23843W        W92248   8.906  15.614   3.853
23844W        W92249  23.448   8.926   1.355
23845W        W92250  13.588   7.388   1.922
23846W        W92251   3.205   6.850   3.402
23847W        W92252  41.492  10.604   2.231
23848W        W92253  23.688  17.886   0.838
23849W        W92254  40.973   8.304   1.918
23850W        W92255   0.953  22.992  11.156
23851W        W92256  17.177  12.409  10.758
23852W        W92257  38.374  14.051  11.562
23853W        W92258  20.750  11.146   2.691
23854W        W92259  22.951  34.680  13.870
23855W        W92260  13.079  39.092  13.580
23856W        W92261   1.019  33.753  12.867
23857W        W92262   9.834  37.318   1.348
23858W        W92263  10.908  18.759  14.167
23859W        W92264   8.028  29.077  12.637
23860W        W92265  16.539  15.907  14.370
23861W        W92266   9.199  35.504  12.473
23862W        W92267  25.612  33.373   3.209
23863W        W92268  20.079   2.254   1.786
23864W        W92269  34.101  20.632  11.104
23865W        W92270  44.797  23.218  11.745
23866W        W92271  32.166  36.586  11.585
23867W        W92272   6.022  34.200   1.614
23868W        W92273  32.047  25.888  14.852
23869W        W92274  33.031   5.510  12.436
23870W        W92275  18.161   2.443   1.874
23871W        W92276   6.808  26.620   5.042
23872W        W92277  20.664  10.310   1.017
23873W        W92278  32.693  12.262  10.666
23874W        W92279  10.392  37.799  13.512
23875W        W92280  14.613  43.708  12.892
23876W        W92281  31.333   7.430  13.755
23877W        W92282  15.180  18.712   4.027
23878W        W92283   3.381  10.717  11.899
23879W        W92284  34.975  19.833  13.046
23880W        W92285  18.134   6.421   1.265
23881W        W92286  23.584  26.255  11.170
23882W        W92287  34.080   2.054   1.240
23883W        W92288  32.592   1.001  14.348
23884W        W92289  28.092   9.060   3.086
23885W        W92290  17.075  24.260   3.314
23886W        W92291  28.453  12.757  12.354
23887W        W92292   4.713  21.090  14.513
23888W        W92293  20.759  29.018  13.732
23889W        W92294   3.242  36.869  14.273
23890W        W92295   3.726   9.889   4.324
23891W        W92296   2.336  30.225   4.486
23892W        W92297  30.181  31.592  13.898
23893W        W92298  25.094  20.038   1.300
23894W        W92299   6.483   5.412   4.133
23895W        W92300  26.655   5.240   4.763
23896W        W92301  35.712   3.431   2.069
23897W        W92302  38.227  15.641  14.786
23898W        W92303  35.032  13.573   0.836
23899W        W92304  20.253  29.635  10.701
23900W        W92305  32.132  16.694  14.309
23901W        W92306   0.030   5.323  12.941
23902W        W92307  10.214  20.478   0.800
23903W        W92308  10.199   1.434   1.879
23904W        W92309  15.064  42.967   0.359
23905W        W92310  44.072  13.049   0.355
23906W        W92311  33.658  13.723  12.422
23907W        W92312  13.562  32.508   3.262
23908W        W92313  24.803  39.621   0.803
23909W        W92314  17.219  27.239   4.699
23910W        W92315  30.975   1.353   3.187
23911W        W92316  32.534  15.036   3.059
23912W        W92317   3.740   9.726  13.338
23913W        W92318  21.675  40.909   2.143
23914W        W92319  30.486   1.055   3.940
23915W        W92320  11.286  25.767  11.998
23916W        W92321  19.866  39.414   0.472
23917W        W92322  42.391  40.408  10.280
23918W        W92323  29.245  40.326  11.868
23919W        W92324  38.867  44.799   5.192
23920W        W92325   6.723  13.907  12.444
23921W        W92326   4.897  19.353  14.867
23922W        W92327   1.129  13.294   1.850
23923W        W92328  26.017  21.266  14.959
23924W        W92329  41.756  13.189  13.980
23925W        W92330  17.650  34.635  13.838
23926W        W92331  43.926  14.619   2.942
23927W        W92332  13.550  22.178   3.553
23928W        W92333   3.175  24.146   2.373
23929W        W92334  26.728  13.280  14.925
23930W        W92335   6.064   3.367   1.877
23931W        W92336  39.020  12.309  10.657
23932W        W92337  16.209  22.269  13.942
23933W        W92338  37.260   7.762   0.534
23934W        W92339  38.488   9.657  12.551
23935W        W92340  36.224  35.822   4.127
23936W        W92341  27.690  36.627  12.060
23937W        W92342  27.163  44.121   4.444
23938W        W92343  36.485   2.736  13.324
23939W        W92344  17.171  25.571   3.312
23940W        W92345  14.554  16.536   1.917
23941W        W92346  17.694  40.934  14.314
23942W        W92347  23.033   4.788   3.712
23943W        W92348  41.828  38.886  12.311
23944W        W92349  43.795  28.606   4.647
23945W        W92350  44.262  35.045  13.479
23946W        W92351  30.464   4.117   0.807
23947W        W92352  24.958   5.369   1.372
23948W        W92353  39.593   5.163  12.414
23949W        W92354   0.866  14.223   0.896
23950W        W92355  22.237  30.693   4.223
23951W        W92356  11.576   6.831   4.511
23952W        W92357  25.504  13.041   1.972
23953W        W92358   9.726  23.249   2.808
23954W        W92359  32.665  23.293   0.483
23955W        W92360  22.563  37.371  14.422
23956W        W92361  37.538   8.219  11.643
23957W        W92362  17.175   2.055  11.561
23958W        W92363   5.844  40.492  14.239
23959W        W92364  41.322   9.775  13.075
23960W        W92365  18.194   2.000   1.571
23961W        W92366  28.152  13.694   2.840
23962W        W92367  37.107   0.585   3.188
23963W        W92368  41.142   8.740  12.053
23964W        W92369  31.965  22.772  12.473
23965W        W92370  23.716  41.496   1.728
23966W        W92371  16.257  28.163  13.864
23967W        W92372  31.129  27.286   4.917
23968W        W92373  29.095   1.473  14.572
23969W        W92374  23.502  23.201   0.613
23970W        W92375  34.663  24.807  14.481
23971W        W92376   1.582  39.864  10.694
23972W        W92377  16.139  35.054  12.223
23973W        W92378  17.301  14.730   3.318
23974W        W92379   8.239   4.416   1.643
23975W        W92380  29.577  20.322  13.600
23976W        W92381   3.353  29.470   5.101
23977W        W92382  12.948  21.212  12.031
23978W        W92383  32.321  33.893   2.334
23979W        W92384  18.643  13.364  14.996
23980W        W92385  41.543  38.306  12.532
23981W        W92386  13.783  11.555   4.503
23982W        W92387  32.958   2.346  10.948
23983W        W92388  22.773  12.263   3.417
23984W        W92389  44.929  40.858  11.727
23985W        W92390  13.055  37.910   0.277
23986W        W92391  39.585  13.501  11.153
23987W        W92392  14.812  44.893  11.573
23988W        W92393  44.468  10.140  14.074
23989W        W92394  39.639  20.036  11.490
23990W        W92395  24.187  39.971   2.254
23991W        W92396  36.825  10.638   0.927
23992W        W92397   4.171  40.369   3.834
23993W        W92398  19.951   6.314  10.207
23994W        W92399  14.160  33.866  14.509
23995W        W92400  43.615  28.139  10.705
23996W        W92401   2.908  14.026   4.545
23997W        W92402  32.857  43.532  12.445
23998W        W92403  14.077  40.085   1.824
23999W        W92404  33.477  36.489   0.331
24000W        W92405  22.663  37.758   5.201
24001W        W92406  42.845  15.291  10.767
24002W        W92407  30.147  16.535  11.573
24003W        W92408  12.139  17.118  14.021
24004W        W92409   2.646   7.956   0.824
24005W        W92410   8.695  16.092   1.330
24006W        W92411  15.981  28.180   0.008
24007W        W92412  22.141  26.476   2.792
24008W        W92413  35.414  32.919  14.783
24009W        W92414  35.431  36.029  10.780
24010W        W92415  39.304  27.700  13.436
24011W        W92416   6.939   8.384  12.946
24012W        W92417  41.424  28.982   0.928
24013W        W92418  21.317  11.008  11.539
24014W        W92419   9.546  11.389  11.163
24015W        W92420  32.561   8.152  14.819
24016W        W92421  13.867  20.823  13.563
24017W        W92422  36.065  25.287  10.666
24018W        W92423  36.535  28.634   5.017
24019W        W92424  40.988  41.716   2.292
24020W        W92425  26.031  18.025   2.095
24021W        W92426  12.825  32.064  10.210
24022W        W92427  21.498  40.265   0.287
24023W        W92428   4.363  22.097   4.235
24024W        W92429  20.207   7.284  12.892
24025W        W92430  42.705  42.015  13.045
24026W        W92431  20.873  24.122  11.068
24027W        W92432  31.966  43.389  12.998
24028W        W92433  21.039   3.300  12.854
24029W        W92434  31.071   4.424  12.963
24030W        W92435  10.438  43.977   5.046
24031W        W92436  43.443  31.383   0.905
24032W        W92437  31.879  21.046   3.042
24033W        W92438  13.943  40.874   3.716
24034W        W92439  25.810  26.088  14.882
24035W        W92440  41.006  29.032   2.355
24036W        W92441   7.695  27.641   3.675
24037W        W92442  35.588   3.859  11.344
24038W        W92443  27.532   1.704   2.362
24039W        W92444  38.387  27.193   1.868
24040W        W92445  39.312  42.082   1.138
24041W        W92446  10.642  44.997  13.331
24042W        W92447  21.280   6.763   4.094
24043W        W92448  40.145  28.445   3.182
24044W        W92449  42.573  17.148  11.533
24045W        W92450  42.380  13.630   2.759
24046W        W92451  25.518   1.862   1.825
24047W        W92452  19.490   0.959   2.847
24048W        W92453  40.288  41.111  14.432
24049W        W92454  32.301  25.755  12.584
24050W        W92455  20.715  11.463   1.678
24051W        W92456  18.601  41.011  13.606
24052W        W92457  20.645  16.741   0.295
24053W        W92458  19.879  28.198   5.050
24054W        W92459  21.207  34.169  13.933
24055W        W92460  16.963   0.972   4.050
24056W        W92461  26.161  25.940   2.905
24057W        W92462  39.362   3.911   2.836
24058W        W92463   5.060  29.096  13.416
24059W        W92464  44.839  23.519   0.509
24060W        W92465  22.484  22.207   4.817
24061W        W92466  14.823  12.734  11.614
24062W        W92467  29.515  33.683   3.427
24063W        W92468   9.523   0.506   4.223
24064W        W92469  28.652   1.905   0.031
24065W        W92470   7.685  31.442  12.824
24066W        W92471  36.197  32.091  12.387
24067W        W92472  15.654  39.091  10.474
24068W        W92473  13.302  40.699  13.437
24069W        W92474  38.937   2.151  12.898
24070W        W92475  41.810   5.444   1.327
24071W        W92476   8.084  34.262   9.802
24072W        W92477  40.523  15.038  11.075
24073W        W92478   0.865  37.667   2.723
24074W        W92479  35.302  29.550   0.294
24075W        W92480  23.571  25.427  14.461
24076W        W92481   1.666  12.514  12.076
24077W        W92482  28.390  40.404  14.969
24078W        W92483  13.329  41.489   0.260
24079W        W92484  31.994  29.746   3.765
24080W        W92485  32.976  44.568   4.249
24081W        W92486  35.935  31.921  10.678
24082W        W92487  26.930  41.805   2.666
24083W        W92488  40.404  29.567  13.923
24084W        W92489  36.525  29.458   0.726
24085W        W92490   6.660  41.834   1.848
24086W        W92491  23.653  18.371  12.584
24087W        W92492  39.818   6.774   3.744
24088W        W92493  31.391  21.126   2.847
24089W        W92494  17.262  30.242   0.146
24090W        W92495  43.896  10.865  14.404
24091W        W92496  31.913   7.121   0.032
24092W        W92497  44.003  36.945   0.417
24093W        W92498  13.669  24.144   1.515
24094W        W92499   0.774  25.790   1.121
24095W        W92500  21.727   9.677  13.807
24096W        W92501  35.935  29.388   2.753
24097W        W92502  28.644  16.532  10.744
24098W        W92503  38.579   0.638  10.959
24099W        W92504   6.906   0.502   1.472
24100W        W92505   9.716  38.972  11.220
24101W        W92506  14.492  40.831   3.785
24102W        W92507  27.531  44.016  13.427
24103W        W92508  13.335  39.051   0.714
24104W        W92509   5.198  12.703   2.327
24105W        W92510  44.896  44.635   3.825
24106W        W92511   0.296  10.369   3.850
24107W        W92512  16.687  39.506   3.094
24108W        W92513   9.194  11.833  12.042
24109W        W92514   2.642  43.390   1.267
24110W        W92515  36.360  15.709   2.123
24111W        W92516  28.518   4.980   1.754
24112W        W92517   0.258  12.312   2.748
24113W        W92518  21.078  38.821  14.068
24114W        W92519   0.967  14.449  12.378
24115W        W92520  36.347  12.768  11.718
24116W        W92521  32.471   8.729  13.983
24117W        W92522  11.694  21.649   3.352
24118W        W92523  43.857   0.952   4.124
24119W        W92524  13.416  35.501   1.413
24120W        W92525  30.631  15.749   3.729
24121W        W92526  21.180  15.240   1.751
24122W        W92527   4.370  35.528  14.384
24123W        W92528  23.449   4.758   0.703
24124W        W92529  24.763  17.730   1.680
24125W        W92530  29.583  33.479   2.425
24126W        W92531  22.749   4.796   2.728
24127W        W92532  23.848   6.157  10.831
24128W        W92533  44.408  40.449   2.973
24129W        W92534  24.742  12.892  12.410
24130W        W92535  30.460   0.184  12.077
24131W        W92536  31.577   7.270  14.641
24132W        W92537  36.479  36.871   2.743
24133W        W92538  43.710  42.457  13.498
24134W        W92539  38.819  26.154   3.919
24135W        W92540  25.002  40.318  14.345
24136W        W92541  35.308  12.608   1.245
24137W        W92542  17.947  13.395  14.379
24138W        W92543  42.820  30.924  10.568
24139W        W92544   8.723  44.125  14.567
24140W        W92545  40.427  42.929  12.083
24141W        W92546  31.915  44.780  14.424
24142W        W92547  31.311   6.346   4.159
24143W        W92548  43.018  20.214   1.842
24144W        W92549   7.335   0.974   0.240
24145W        W92550  11.561  14.035  14.903
24146W        W92551  24.374  23.470  11.936
24147W        W92552  14.589  32.949  14.283
24148W        W92553  26.790  13.557  11.237
24149W        W92554  20.723  11.301   0.705
24150W        W92555  16.674   6.191  14.869
24151W        W92556  22.540  30.193   3.098
24152W        W92557   8.598  41.031  12.068
24153W        W92558  12.805  21.645   1.223
24154W        W92559   2.791  11.302  13.893
24155W        W92560  24.641  30.653   3.804
24156W        W92561  33.828  29.990  12.032
24157W        W92562  30.050  17.007  11.338
24158W        W92563  21.674  34.414   2.414
24159W        W92564  25.252  22.390   4.068
24160W        W92565   3.267  28.586   3.716
24161W        W92566  37.046  18.015  11.510
24162W        W92567  22.077  29.661  12.866
24163W        W92568  10.702  23.543  11.214
24164W        W92569   8.949  22.118  14.498
24165W        W92570  27.346   0.222   3.412
24166W        W92571  34.382   6.485  13.901
24167W        W92572  27.006  10.736   3.766
24168W        W92573  34.917  41.994  13.460
24169W        W92574  41.510  26.370  11.917
24170W        W92575  19.080   6.300   3.459
24171W        W92576   9.037  22.102   0.939
24172W        W92577  25.710  42.065  12.114
24173W        W92578  20.524   1.493   0.399
24174W        W92579  15.437  16.758  10.229
24175W        W92580   6.751   2.270   4.321
24176W        W92581   2.881   4.749  13.996
24177W        W92582   9.669  32.461   1.900
24178W        W92583  38.403   8.907  10.723
24179W        W92584  22.121  29.136   4.559
24180W        W92585   0.471  11.748   3.486
24181W        W92586  37.906  42.454  12.063
24182W        W92587  18.634   4.557  11.809
24183W        W92588  35.786  38.686   3.567
24184W        W92589   2.534  12.608  12.821
24185W        W92590  30.415  35.314  13.488
24186W        W92591  26.683  32.386   4.545
24187W        W92592  21.128  40.809  13.531
24188W        W92593  20.289  16.941   3.329
24189W        W92594   0.884   5.426   0.438
24190W        W92595  23.788  40.903  12.618
24191W        W92596  36.978   8.561  12.648
24192W        W92597  29.595  16.111   2.109
24193W        W92598  26.920  20.367  12.626
24194W        W92599  30.016  13.435  14.524
24195W        W92600  23.040  43.525  11.086
24196W        W92601   4.366   2.861  13.546
24197W        W92602  30.685  38.370  11.593
24198W        W92603  42.731  29.734   0.891
24199W        W92604  10.782  29.263   1.759
24200W        W92605   5.266  11.901   2.939
24201W        W92606   4.923  25.538  13.071
24202W        W92607  38.297  13.006   0.393
24203W        W92608   0.780  27.697   0.852
24204W        W92609  20.101   2.299  14.299
24205W        W92610  28.415  26.474   3.247
24206W        W92611  22.246   2.971  11.039
24207W        W92612  13.325   0.370  10.956
24208W        W92613  21.236   5.774   3.924
24209W        W92614   7.650  20.142  10.599
24210W        W92615   5.733   7.055   2.723
24211W        W92616  11.053   2.946   0.913
24212W        W92617  37.409  29.509  11.411
24213W        W92618   8.603  12.550  13.441
24214W        W92619  40.531  31.913   4.129
24215W        W92620   3.615  10.249   2.529
24216W        W92621   6.787  17.758   0.821
24217W        W92622  23.473   7.652  11.593
24218W        W92623   7.614  15.474  11.526
24219W        W92624  11.597  25.177  14.064
24220W        W92625  18.075  22.774   2.243
24221W        W92626   5.566  34.015   1.747
24222W        W92627  33.137   2.324   4.759
24223W        W92628  22.962  15.429  14.869
24224W        W92629  20.833   0.472   4.807
24225W        W92630   6.674  21.225   1.164
24226W        W92631  31.413   4.401   1.280
24227W        W92632  13.668  35.635  13.190
24228W        W92633   7.336  33.070   1.856
24229W        W92634  11.844  25.168   4.526
24230W        W92635  43.697  21.179  12.811
24231W        W92636  19.640   9.550   0.462
24232W        W92637   7.323  24.418  11.901
24233W        W92638  19.973  29.835  11.957
24234W        W92639  27.763  21.244  12.431
24235W        W92640   8.606  20.049   2.166
24236W        W92641  31.078  24.175   1.480
24237W        W92642  37.406  42.999  14.174
24238W        W92643  42.511  42.023  13.902
24239W        W92644  30.648  33.864  12.393
24240W        W92645  15.324  25.068  14.458
24241W        W92646  10.673   6.383  10.456
24242W        W92647  26.567   3.120  13.469
24243W        W92648  33.143   7.894  13.061
24244W        W92649  25.696   6.364   5.147
24245W        W92650  26.911  37.851   1.786
24246W        W92651   4.441   5.314   4.353
24247W        W92652  43.502  14.659  14.924
24248W        W92653  41.210  23.036  14.069
24249W        W92654  26.557  14.045   2.125
24250W        W92655  25.284   4.623  11.970
24251W        W92656  41.805  28.583   2.874
24252W        W92657  25.681   7.837   1.459
24253W        W92658   0.997  24.226   2.190
24254W        W92659  21.568  27.976  13.850
24255W        W92660  10.361  32.902  14.089
24256W        W92661  28.155  17.990   1.371
24257W        W92662  33.908  30.236   1.788
24258W        W92663  11.784  31.362  13.931
24259W        W92664  42.580  30.334   0.736
24260W        W92665  23.764  42.637   3.657
24261W        W92666  28.613   5.723   4.336
24262W        W92667  12.240  25.029  12.593
24263W        W92668  29.839  22.113  12.251
24264W        W92669  14.754  10.487   1.822
24265W        W92670  35.937  20.697  10.998
24266W        W92671  34.099  10.514   0.832
24267W        W92672  22.672  38.505  12.572
24268W        W92673  22.018  11.128  14.235
24269W        W92674  32.058  36.723  14.258
24270W        W92675   8.683  10.592   2.023
24271W        W92676   4.537  38.252  13.336
24272W        W92677  27.271  22.456   1.269
24273W        W92678  27.042  29.635   1.699
24274W        W92679  20.457  22.056   1.687
24275W        W92680  23.532  42.239   4.407
24276W        W92681   3.764  20.830  11.964
24277W        W92682   5.695   8.100   1.288
24278W        W92683  41.471  35.017   4.571
24279W        W92684   8.219  29.459  13.875
24280W        W92685  13.692   1.291  11.163
24281W        W92686  19.247  20.474   2.203
24282W        W92687  43.512  28.896  10.737
24283W        W92688  33.914  28.339  13.831
24284W        W92689  15.032  44.029   1.745
24285W        W92690  39.111  18.087  12.894
24286W        W92691   3.107  28.881  14.287
24287W        W92692  15.701   3.916  14.032
24288W        W92693  12.533  15.853  13.326
24289W        W92694  15.232  38.352   1.024
24290W        W92695  28.655  29.824  11.981
24291W        W92696  11.792  40.990  10.656
24292W        W92697  36.940  44.763  11.217
24293W        W92698  35.373  42.854   4.680
24294W        W92699  25.147   6.755   2.137
24295W        W92700  24.410  41.751   1.841
24296W        W92701  27.079  25.976   1.943
24297W        W92702   5.484  38.996   4.558
24298W        W92703  40.380  22.467  12.464
24299W        W92704  19.250  13.021   3.726
24300W        W92705  43.370  27.704  10.778
24301W        W92706  22.631  42.184   1.848
24302W        W92707  18.472  15.179   0.809
24303W        W92708  23.457  22.697   4.108
24304W        W92709  15.583  35.589   0.260
24305W        W92710  29.620   1.250   2.798
24306W        W92711  26.003  35.571   1.876
24307W        W92712  17.191  25.138  13.553
24308W        W92713  18.144  25.715  10.702
24309W        W92714  21.428   9.420  10.512
24310W        W92715  37.167  37.275   4.245
24311W        W92716  44.944  26.652   4.617
24312W        W92717  25.801  25.265  14.368
24313W        W92718   5.911  15.074  14.295
24314W        W92719  18.791  31.724   4.209
24315W        W92720   6.651   5.960  11.044
24316W        W92721  23.381  31.910   1.363
24317W        W92722  21.507  25.160   3.819
24318W        W92723  37.779  20.253   3.128
24319W        W92724   7.068   9.492  14.677
24320W        W92725  32.620  43.389  10.681
24321W        W92726  20.503  13.711  10.658
24322W        W92727  29.156   3.915  12.590
24323W        W92728   2.012  25.950  11.982
24324W        W92729  14.150  36.547   4.857
24325W        W92730   2.316  34.880   5.000
24326W        W92731   3.211   9.679  14.961
24327W        W92732  18.633  15.273   4.275
24328W        W92733  23.580  30.756  12.521
24329W        W92734  18.683  44.244  11.128
24330W        W92735  15.510   9.366   2.350
24331W        W92736  27.181  10.762   2.143
24332W        W92737  33.939  43.305  13.034
24333W        W92738  43.873  28.042  11.597
24334W        W92739   5.786  24.687   3.809
24335W        W92740   9.811  16.744  14.900
24336W        W92741   3.783  41.450  13.378
24337W        W92742  15.570  21.985   2.432
24338W        W92743  30.956  40.020   4.115
24339W        W92744   5.113  41.881  14.871
24340W        W92745  38.846  39.552  14.935
24341W        W92746  44.950  33.558  10.543
24342W        W92747   7.710  41.384   0.136
24343W        W92748  10.667  25.557   4.339
24344W        W92749  16.772  27.019  10.552
24345W        W92750   1.765  15.180  12.349
24346W        W92751  11.682  40.415  11.373
24347W        W92752  21.099  25.181   0.345
24348W        W92753  38.665  22.263   1.313
24349W        W92754  16.643  12.700   0.230
24350W        W92755  30.934  34.017  13.089
24351W        W92756   6.348  18.279   0.386
24352W        W92757  33.890  33.174   1.382
24353W        W92758  30.720   2.375  12.057
24354W        W92759  15.751  35.158   4.634
24355W        W92760   6.310   5.926  10.672
24356W        W92761  36.863  15.021  14.945
24357W        W92762  31.197   4.724  10.485
24358W        W92763  21.132  17.189   4.163
24359W        W92764  22.568  39.002  11.230
24360W        W92765  10.919  18.269   2.444
24361W        W92766  25.245  42.875  11.353
24362W        W92767  34.445   5.810   3.335
24363W        W92768  24.051  42.953  10.882
24364W        W92769  33.479  27.045  11.982
24365W        W92770  41.212  35.520   3.778
24366W        W92771  28.859  31.365  12.338
24367W        W92772  34.645   7.637   1.412
24368W        W92773   6.294  15.531  12.972
24369W        W92774   9.292   2.260  13.907
24370W        W92775   8.308  31.311   2.379
24371W        W92776  20.152  19.457  14.097
24372W        W92777   5.115   3.299   4.456
24373W        W92778   6.904  15.765   5.383
24374W        W92779   1.960   5.922   2.349
24375W        W92780  18.691  34.227  13.377
24376W        W92781  22.604  16.260  13.738
24377W        W92782  31.948   0.887  13.507
24378W        W92783  38.024  39.474  14.002
24379W        W92784  19.281  23.192  12.489
24380W        W92785  28.448   5.417  12.866
24381W        W92786  18.551  25.706   0.989
24382W        W92787  12.646   7.606   4.849
24383W        W92788   8.431  21.264   4.179
24384W        W92789  44.777   5.934   3.703
24385W        W92790  10.030  37.458  11.680
24386W        W92791   5.703   4.847   4.587
24387W        W92792  20.843  34.424  13.602
24388W        W92793  27.441  37.456   1.290
24389W        W92794   9.403  18.272  14.059
24390W        W92795  11.856  19.690  12.546
24391W        W92796  36.815  34.921  11.969
24392W        W92797  29.541   2.004  13.709
24393W        W92798  28.390  14.838  14.459
24394W        W92799   4.921  43.851   2.253
24395W        W92800  21.914   0.843   1.185
24396W        W92801  17.546   0.831   0.935
24397W        W92802  40.798  33.969   0.675
24398W        W92803  16.984  27.246  11.004
24399W        W92804  26.714   9.637   2.397
24400W        W92805  37.982  14.407  12.933
24401W        W92806  33.390  16.704   5.399
24402W        W92807  10.613  42.526   2.160
24403W        W92808  25.470  36.799   3.188
24404W        W92809  30.031  35.883   4.829
24405W        W92810  41.282  29.898   3.534
24406W        W92811   9.031  39.862   2.493
24407W        W92812  35.376  40.397  12.020
24408W        W92813  18.801  34.963  10.140
24409W        W92814  38.494  35.518   4.596
24410W        W92815  24.085   4.468  10.417
24411W        W92816  22.352   0.438  11.727
24412W        W92817  44.868  11.363   2.784
24413W        W92818  10.000   5.431   3.251
24414W        W92819   9.368   2.765  13.764
24415W        W92820  37.637  20.753   3.632
24416W        W92821  24.373  37.507  12.531
24417W        W92822  22.734  42.110  14.901
24418W        W92823   4.161  26.195   5.019
24419W        W92824  20.345  30.947  12.883
24420W        W92825  18.270  34.607  12.243
24421W        W92826   0.608  18.162  13.596
24422W        W92827  39.879  33.836   0.961
24423W        W92828  11.362  42.963   0.206
24424W        W92829  17.282   9.337   2.806
24425W        W92830  24.613  14.133  14.858
24426W        W92831  41.343  12.913  11.178
24427W        W92832  28.160  11.287   1.232
24428W        W92833  24.742  22.563   4.012
24429W        W92834  11.370   3.010  10.480
24430W        W92835  39.612  29.623  10.600
24431W        W92836   0.547  10.837  13.974
24432W        W92837  44.270  31.429  12.382
24433W        W92838  17.651   1.941  11.156
24434W        W92839  15.905   5.266  13.456
24435W        W92840   9.927  17.519   1.213
24436W        W92841  23.524  17.358  13.891
24437W        W92842  25.524  38.958   4.339
24438W        W92843  28.487   3.301  12.356
24439W        W92844  14.859   5.383   0.846
24440W        W92845  13.094  31.436  12.113
24441W        W92846   8.872  30.729   1.119
24442W        W92847  33.196  43.437   1.258
24443W        W92848   0.142  19.146  14.098
24444W        W92849  29.632  24.342  10.609
24445W        W92850   0.349  34.419  13.060
24446W        W92851  17.174  26.716   3.018
24447W        W92852  23.507   1.589   1.384
24448W        W92853  32.950  17.714  10.489
24449W        W92854  22.605  38.994   0.929
24450W        W92855  26.615  16.109  14.915
24451W        W92856  19.094  14.686   1.164
24452W        W92857  19.485  42.370  14.264
24453W        W92858   4.757  30.710   1.002
24454W        W92859  39.677  11.648  11.589
24455W        W92860  41.386   2.359  13.709
24456W        W92861   4.958  42.337   0.268
24457W        W92862  18.261  22.257  14.210
24458W        W92863  37.409  21.489   1.696
24459W        W92864  13.695  23.158   3.170
24460W        W92865  42.797   7.832  14.804
24461W        W92866  34.137  10.614  11.109
24462W        W92867  17.304  17.534   1.304
24463W        W92868   0.236  40.632   1.422
24464W        W92869   8.982  41.894   2.342
24465W        W92870  41.692  19.124  13.555
24466W        W92871  22.944  26.585  11.906
24467W        W92872  31.228  28.428   1.820
24468W        W92873  30.885  28.258   3.756
24469W        W92874  17.149  19.496   2.286
24470W        W92875  25.315  14.807   4.486
24471W        W92876   8.701  10.495  11.281
24472W        W92877  19.111  33.166  13.571
24473W        W92878  15.806  30.694  14.441
24474W        W92879  43.260  39.942   1.271
24475W        W92880  13.330  19.246   3.650
24476W        W92881   8.217  41.075   0.830
24477W        W92882  13.299  44.859  10.870
24478W        W92883  15.690  42.710  12.416
24479W        W92884  20.156  26.058   4.156
24480W        W92885   2.189  32.698   0.189
24481W        W92886   8.356   3.954   1.861
24482W        W92887  22.875  30.805   3.793
24483W        W92888  15.650  12.243  11.634
24484W        W92889  40.316  17.083  10.676
24485W        W92890  33.143   1.451  11.197
24486W        W92891  23.709  38.568   3.781
24487W        W92892  16.196  10.675   4.816
24488W        W92893  17.136   8.263   0.856
24489W        W92894   1.944  32.941   2.321
24490W        W92895  29.028  34.137   1.384
24491W        W92896   5.196  14.098   3.634
24492W        W92897   8.820  24.547  13.929
24493W        W92898   9.864   3.796   3.198
24494W        W92899  39.248   4.033  14.311
24495W        W92900   4.861  36.301   0.777
24496W        W92901  11.312  36.330   0.442
24497W        W92902  10.078  25.425   3.729
24498W        W92903  14.243  34.953  13.500
24499W        W92904  28.695   1.445  13.032
24500W        W92905  20.302  32.062   0.189
24501W        W92906  34.531  34.333  14.346
24502W        W92907  39.470  18.051  12.030
24503W        W92908  16.987   1.913   1.058
24504W        W92909  13.571  17.090  14.265
24505W        W92910  41.116  10.254   4.703
24506W        W92911   7.977   6.223   2.307
24507W        W92912  17.108  34.673  12.167
24508W        W92913   8.242  37.921  14.751
24509W        W92914  44.514  38.716  12.994
24510W        W92915  25.470  29.703   5.005
24511W        W92916  33.829   1.953  11.082
24512W        W92917   0.185  39.021  13.842
24513W        W92918  14.795  36.142  11.173
24514W        W92919   4.141  44.394  11.563
24515W        W92920  23.637  44.910  11.966
24516W        W92921  40.291  12.253   1.721
24517W        W92922   2.708  27.073  14.045
24518W        W92923  25.963  12.528   1.448
24519W        W92924  13.769   9.860  10.771
24520W        W92925  19.275  28.915  12.011
24521W        W92926   5.994  39.552   3.194
24522W        W92927  24.685  13.640  13.830
24523W        W92928   4.423   9.609  13.466
24524W        W92929  10.632  41.551  12.565
24525W        W92930   7.974  33.990   0.815
24526W        W92931   3.291  38.579  11.895
24527W        W92932  26.848  32.325   1.736
24528W        W92933  40.804  28.258   4.073
24529W        W92934  11.467  41.147   0.142
24530W        W92935  24.990  42.951   3.018
24531W        W92936  23.181  43.935  11.379
24532W        W92937  27.624  18.990  11.895
24533W        W92938  14.065  22.778  13.575
24534W        W92939  44.937  25.949  14.960
24535W        W92940  33.997  37.706   3.251
24536W        W92941  35.353  28.631  12.891
24537W        W92942  32.449  15.461  10.505
24538W        W92943  19.765  11.464   3.348
24539W        W92944   3.004  30.080  14.856
24540W        W92945   2.336  19.811   0.447
24541W        W92946   9.574   0.512   5.072
24542W        W92947  17.397  35.878   9.590
24543W        W92948  15.734   1.673  11.045
24544W        W92949  21.315  35.799  12.168
24545W        W92950  17.277  27.383  11.981
24546W        W92951   8.242  24.456  11.973
24547W        W92952  33.600  23.168   0.311
24548W        W92953  30.007   2.246   0.861
24549W        W92954  11.809  20.271  10.728
24550W        W92955  31.450  11.808  12.410
24551W        W92956  21.098  18.842  13.944
24552W        W92957  18.142  42.470  11.645
24553W        W92958  21.612  42.210   2.937
24554W        W92959   8.632  39.992   4.859
24555W        W92960  33.134  11.415  14.408
24556W        W92961  32.163  13.034  11.645
24557W        W92962   9.308  30.674   0.246
24558W        W92963  12.812  38.771  13.880
24559W        W92964  11.085  12.785   0.356
24560W        W92965  39.288  15.138   2.243
24561W        W92966  32.193   7.474  11.119
24562W        W92967  34.581  22.209  12.022
24563W        W92968  36.397   5.393  11.883
24564W        W92969  17.437  31.746  12.102
24565W        W92970   3.983  32.438   4.461
24566W        W92971  18.221  33.893  10.714
24567W        W92972   8.249  42.253   3.078
24568W        W92973  34.567  38.745   4.417
24569W        W92974  16.272  13.925   1.381
24570W        W92975   9.665  10.228   5.238
24571W        W92976   1.864  23.781  14.981
24572W        W92977  30.781   8.781   1.219
24573W        W92978   8.278  20.076   0.724
24574W        W92979  39.482  10.578   0.900
24575W        W92980  39.328  37.251  11.085
24576W        W92981   9.772  12.698   4.944
24577W        W92982  31.172  20.725  13.774
24578W        W92983  13.057  22.943  14.393
24579W        W92984   6.188  21.527  14.439
24580W        W92985  18.738  11.619  13.010
24581W        W92986  18.843  25.550  11.925
24582W        W92987  23.532  12.242  14.802
24583W        W92988  41.908   6.792   0.512
24584W        W92989  43.454  38.549  14.493
24585W        W92990  20.017   0.907  13.760
24586W        W92991  44.871   7.063   4.594
24587W        W92992  27.648  28.304   3.786
24588W        W92993  15.772   2.992  12.446
24589W        W92994  10.061  25.013   2.195
24590W        W92995  34.026  27.438  14.721
24591W        W92996  38.332  25.561  12.653
24592W        W92997  29.950   9.852   0.860
24593W        W92998  15.394  21.580  10.521
24594W        W92999  10.362   3.914   0.369
24595W        W93000  26.005   7.916   3.303
24596W        W93001  43.019  10.848   4.731
24597W        W93002   9.391   7.723  10.735
24598W        W93003  39.803  33.843   1.746
24599W        W93004  32.250  35.183   2.255
24600W        W93005  31.219  38.079  12.164
24601W        W93006  28.269  31.024  12.165
24602W        W93007  34.685  39.411   1.931
24603W        W93008   4.044  16.840   3.010
24604W        W93009  20.013  34.912   1.010
24605W        W93010   3.016  38.920  14.973
24606W        W93011  36.513  40.432   3.144
24607W        W93012   5.852  24.497  13.553
24608W        W93013  31.801  22.178  10.803
24609W        W93014   1.270  30.461  14.844
24610W        W93015  25.666  20.794  12.909
24611W        W93016  40.161  41.384   5.136
24612W        W93017  11.330  19.828  13.965
24613W        W93018  10.183  37.039   4.505
24614W        W93019  40.307  12.572  13.538
24615W        W93020  12.788   1.190  14.922
24616W        W93021  21.239   9.731  14.022
24617W        W93022   0.054  32.662  10.729
24618W        W93023  37.506  16.327  10.697
24619W        W93024   6.754  26.621  13.320
24620W        W93025  38.329  22.672  14.398
24621W        W93026  37.059   0.993  14.741
24622W        W93027   2.238  43.419   2.252
24623W        W93028  41.088  17.609   2.448
24624W        W93029  25.149  23.783  11.581
24625W        W93030  40.794  40.360   2.676
24626W        W93031   3.228  16.331   0.478
24627W        W93032  13.904  29.169   0.202
24628W        W93033  36.005  34.920  13.537
24629W        W93034  20.558  39.590  13.080
24630W        W93035   0.526  13.675   4.089
24631W        W93036  21.983  18.213  13.087
24632W        W93037  44.422  43.437  12.890
24633W        W93038   3.295  19.369   2.835
24634W        W93039  27.301  23.204   2.734
24635W        W93040   0.792  15.647  13.126
24636W        W93041   8.849  14.137  10.096
24637W        W93042  36.569  21.286   3.223
24638W        W93043  26.682  15.528  14.018
24639W        W93044   1.814  25.731   3.094
24640W        W93045  37.017  22.795   2.066
24641W        W93046  36.718  23.874   3.155
24642W        W93047  42.020  12.726  13.852
24643W        W93048   8.687   2.278   2.616
24644W        W93049  23.742  32.854   2.850
24645W        W93050   3.437  13.864   3.276
24646W        W93051   4.623  28.483  11.076
24647W        W93052  34.411  16.708  14.286
24648W        W93053  29.422   3.690   3.666
24649W        W93054  11.301  16.631   1.015
24650W        W93055  44.385  41.010  13.507
24651W        W93056  26.307  31.830  11.017
24652W        W93057  34.344   8.839   3.341
24653W        W93058   1.403   6.903   1.693
24654W        W93059  18.036  10.049  14.804
24655W        W93060  20.015  39.382   1.851
24656W        W93061  40.739  28.679  13.929
24657W        W93062  29.224  28.970   3.351
24658W        W93063  19.547  32.191   3.619
24659W        W93064  12.885  41.784  10.574
24660W        W93065  22.316   1.785   1.766
24661W        W93066  30.901  31.684   2.587
24662W        W93067  22.807  40.910  14.061
24663W        W93068  13.309  33.337  10.640
24664W        W93069  13.552  31.988  11.482
24665W        W93070  13.908  16.955  12.313
24666W        W93071  28.703  35.117   0.424
24667W        W93072  36.049  26.627  14.853
24668W        W93073  21.624  14.800   2.236
24669W        W93074  44.239  44.979   1.185
24670W        W93075   6.471  43.931   3.439
24671W        W93076  37.065  17.241   2.759
24672W        W93077  10.917  23.589  14.957
24673W        W93078   4.801  13.055   2.371
24674W        W93079  38.865  14.197   1.843
24675W        W93080  23.642  25.515  11.558
24676W        W93081  33.488  26.725   5.001
24677W        W93082  36.073  32.492  13.314
24678W        W93083  24.463  39.206   0.475
24679W        W93084  30.861  12.571   2.366
24680W        W93085  22.272  14.205  11.149
24681W        W93086  43.085  30.777   5.056
24682W        W93087  43.069  38.881  11.153
24683W        W93088   9.666   6.699  13.480
24684W        W93089  26.071   7.652  13.103
24685W        W93090  17.130  37.468   0.454
24686W        W93091  36.282  32.014   0.991
24687W        W93092  18.122   5.743   2.617
24688W        W93093  28.060  23.001  11.668
24689W        W93094  30.389  34.931   4.124
24690W        W93095  30.396  20.339  13.543
24691W        W93096  35.118  21.666   3.092
24692W        W93097  41.898   0.678  11.334
24693W        W93098   8.756  25.418   4.117
24694W        W93099  13.991  35.876   0.732
24695W        W93100  16.090   4.729   2.215
24696W        W93101  40.286  11.702   2.330
24697W        W93102  23.064  23.090  14.324
24698W        W93103  10.366   0.260   0.211
24699W        W93104  28.094  31.660   0.903
24700W        W93105  39.835  42.515   4.761
24701W        W93106  32.465  31.135   0.974
24702W        W93107  15.777   1.398   4.989
24703W        W93108  29.226  38.921  13.019
24704W        W93109  23.009   3.335  10.644
24705W        W93110  27.890  30.841   4.136
24706W        W93111  25.946   0.719  11.125
24707W        W93112  39.115  30.576   1.403
24708W        W93113   5.736  40.001  12.787
24709W        W93114  24.964  27.533   4.289
24710W        W93115  42.539  15.910  11.115
24711W        W93116   4.672   3.207   4.188
24712W        W93117  42.458  43.062   0.298
24713W        W93118  15.747   1.694   2.617
24714W        W93119   3.934   7.342   3.211
24715W        W93120  27.202  39.780  12.603
24716W        W93121   7.761  20.547  11.109
24717W        W93122  34.578  22.743   0.825
24718W        W93123  31.793  20.060   4.060
24719W        W93124  17.078   4.783   4.104
24720W        W93125  16.246  41.041   4.146
24721W        W93126   3.229   8.864  10.703
24722W        W93127   0.182  40.493  10.738
24723W        W93128   5.378  21.730  13.267
24724W        W93129  44.713  16.320  12.496
24725W        W93130  36.402  21.605  12.498
24726W        W93131  31.793  43.953  13.548
24727W        W93132   5.307  29.051   4.407
24728W        W93133  37.937   8.296   1.647
24729W        W93134  43.679  14.100  11.234
24730W        W93135  27.060  44.339  14.422
24731W        W93136  43.052   0.772   1.910
24732W        W93137   5.597  31.725   0.816
24733W        W93138  12.795   3.342   4.499
24734W        W93139   2.466  34.809  10.727
24735W        W93140  26.840   1.767  12.953
24736W        W93141  28.352   9.613   1.160
24737W        W93142  31.565   7.032  14.013
24738W        W93143  34.880  15.063   2.458
24739W        W93144  39.919  22.023  12.097
24740W        W93145  40.983  38.243   2.150
24741W        W93146   1.885  15.692  13.917
24742W        W93147  40.496  37.180   2.736
24743W        W93148   6.482   1.056  11.055
24744W        W93149   2.737   4.733   1.288
24745W        W93150  34.383  31.553  11.567
24746W        W93151  12.628  11.634   1.917
24747W        W93152  36.929   0.625  13.816
24748W        W93153  22.976   7.294   0.321
24749W        W93154  21.416  33.136   1.335
24750W        W93155  19.107  27.725  14.351
24751W        W93156  23.606  29.459  12.024
24752W        W93157   4.118   4.672  13.439
24753W        W93158   3.248  27.512  12.684
24754W        W93159  30.731  25.055  11.289
24755W        W93160  17.570  30.106   2.451
24756W        W93161  23.212  14.054   2.180
24757W        W93162  21.755  22.776   4.615
24758W        W93163  16.201  42.426   4.588
24759W        W93164  42.506  24.834  13.477
24760W        W93165  40.480  23.933  10.590
24761W        W93166  12.575   3.185   4.068
24762W        W93167   7.909   8.988   2.392
24763W        W93168   0.148  29.108  11.133
24764W        W93169  17.952  20.980   9.744
24765W        W93170   0.883  11.422   3.485
24766W        W93171  12.774  32.946  12.894
24767W        W93172  16.688  20.124   3.352
24768W        W93173   5.026  25.965  13.791
24769W        W93174   9.413   8.660   3.235
24770W        W93175  18.680  16.866  11.426
24771W        W93176  25.579  25.451   0.667
24772W        W93177   7.586  41.256   2.062
24773W        W93178  39.395  11.263  10.935
24774W        W93179  29.061  44.439  13.510
24775W        W93180  14.266  43.084   2.287
24776W        W93181  27.730   8.331  13.070
24777W        W93182  15.111  17.997  13.042
24778W        W93183  28.088  43.976  14.921
24779W        W93184  26.514  32.360   3.704
24780W        W93185  17.530  27.767   1.491
24781W        W93186  25.587   6.129  10.124
24782W        W93187  14.411  42.866  11.008
24783W        W93188  31.593  26.791  11.493
24784W        W93189   2.980  19.139  11.685
24785W        W93190  15.913  10.231   5.024
24786W        W93191  40.831  41.594  10.655
24787W        W93192  31.528   9.880  13.271
24788W        W93193  33.723  30.337  14.675
24789W        W93194  21.575  17.132   0.782
24790W        W93195  11.867  33.114   1.779
24791W        W93196  40.432  42.347  10.663
24792W        W93197  23.633  39.059  13.857
24793W        W93198  31.790  30.960  12.970
24794W        W93199  28.509  37.523  13.833
24795W        W93200  20.051   5.756   0.614
24796W        W93201  22.573  38.283   0.456
24797W        W93202  11.841  29.894  14.107
24798W        W93203   6.748  32.485   1.371
24799W        W93204  33.889   8.144   4.551
24800W        W93205  22.275  12.622   0.727
24801W        W93206  40.637  19.243   3.622
24802W        W93207  30.716   5.019   4.646
24803W        W93208  37.586   2.218   2.167
24804W        W93209  16.705   6.474   1.036
24805W        W93210  28.142  21.332   1.840
24806W        W93211  38.921  16.708   2.978
24807W        W93212  21.153  32.682   2.636
24808W        W93213   0.193  12.298   1.895
24809W        W93214  30.186  40.275  12.980
24810W        W93215  44.566  36.942   0.403
24811W        W93216   6.415   0.206  14.289
24812W        W93217  12.367  26.436  11.489
24813W        W93218  21.764  29.737  10.726
24814W        W93219  22.430  13.592   2.196
24815W        W93220  19.557   6.807   1.421
24816W        W93221  27.326   1.459   2.824
24817W        W93222  40.564   3.979   0.214
24818W        W93223  10.278  10.860  12.854
24819W        W93224   9.437  18.772   4.163
24820W        W93225  29.998  36.380  13.556
24821W        W93226  13.870  42.534  14.059
24822W        W93227  15.823  23.163   9.803
24823W        W93228  25.094  41.722   3.036
24824W        W93229   3.313  36.541   2.792
24825W        W93230  44.428  12.891   1.199
24826W        W93231  35.278  42.784   1.386
24827W        W93232  27.103   3.769  13.940
24828W        W93233  16.842  17.856   1.326
24829W        W93234  37.861   7.433  13.400
24830W        W93235   6.128  32.509  13.333
24831W        W93236  27.422  24.878   2.573
24832W        W93237  42.449  31.061   1.281
24833W        W93238  44.456  10.722   3.871
24834W        W93239  32.628  20.133  11.957
24835W        W93240  11.839  28.500   4.760
24836W        W93241  33.872  39.983  12.324
24837W        W93242  23.770  23.179  13.841
24838W        W93243  17.478  40.672   2.451
24839W        W93244   2.688  29.367   4.652
24840W        W93245  16.177  12.171  11.657
24841W        W93246   1.329  12.634  12.494
24842W        W93247  35.743  10.140   3.553
24843W        W93248   0.908  15.455  11.359
24844W        W93249  20.650   4.218   1.271
24845W        W93250  40.397   5.159   2.239
24846W        W93251  18.118  44.440   3.773
24847W        W93252   6.828   9.880   0.536
24848W        W93253  15.271  18.702   1.333
24849W        W93254  42.028  27.667   1.427
24850W        W93255  16.543  16.083  13.428
24851W        W93256   3.436  35.394   3.769
24852W        W93257  24.195  11.105   2.265
24853W        W93258   2.379  38.418   4.353
24854W        W93259  16.884  11.529   9.822
24855W        W93260  21.296  26.472   0.487
24856W        W93261  23.083  24.910   0.852
24857W        W93262  22.549  41.091   1.219
24858W        W93263  41.202  26.768  12.086
24859W        W93264   9.661  25.245  11.806
24860W        W93265  41.203  20.651  11.693
24861W        W93266  17.633  30.537  13.578
24862W        W93267   7.043  41.333   4.347
24863W        W93268   6.241   1.850   0.086
24864W        W93269   4.752   4.967   3.783
24865W        W93270  20.123  17.396  12.435
24866W        W93271  26.955  27.587   3.213
24867W        W93272  32.368  41.809  11.936
24868W        W93273   9.574   4.035  11.166
24869W        W93274  35.636  40.402   3.112
24870W        W93275  10.149  44.814  13.385
24871W        W93276  17.103   6.290  10.842
24872W        W93277  32.918  42.390  14.059
24873W        W93278  44.886   4.303   2.740
24874W        W93279  14.161  14.744  12.406
24875W        W93280  10.130  19.066  11.744
24876W        W93281   3.498   5.883   1.779
24877W        W93282  27.984  16.213  12.800
24878W        W93283   2.318  27.435   1.190
24879W        W93284  26.526   2.653   4.300
24880W        W93285   8.438  10.289   3.883
24881W        W93286  37.769  42.381  10.821
24882W        W93287  40.358  40.508  12.923
24883W        W93288  31.646  24.753   1.228
24884W        W93289  16.112  26.161  13.192
24885W        W93290  22.997  13.643  13.541
24886W        W93291  38.545  13.673   4.033
24887W        W93292  33.343  43.479  12.099
24888W        W93293   0.129  43.820   3.840
24889W        W93294  16.124   3.525  11.488
24890W        W93295  35.965   5.902   0.390
24891W        W93296  18.746   3.899  12.392
24892W        W93297  38.114  31.676   1.288
24893W        W93298  30.953  36.658   4.861
24894W        W93299  17.607  36.427  14.594
24895W        W93300  27.471  33.949  14.007
24896W        W93301  16.814  37.680   2.813
24897W        W93302  19.530  15.554   2.869
24898W        W93303   2.503  26.784   3.179
24899W        W93304  29.612  19.607  13.963
24900W        W93305  12.942  44.994   3.257
24901W        W93306  24.767  11.253  11.786
24902W        W93307  14.998  40.362  14.110
24903W        W93308  10.716  42.999   4.696
24904W        W93309   5.381  15.450   0.932
24905W        W93310  42.060  31.934   3.229
24906W        W93311  40.340   1.875   2.195
24907W        W93312  25.264  33.113   3.556
24908W        W93313  42.389  20.262  14.058
24909W        W93314   4.220  24.106  13.797
24910W        W93315   4.134  40.075  14.372
24911W        W93316  28.056  39.525   2.803
24912W        W93317  36.216   9.917  10.644
24913W        W93318  33.578  15.851   0.759
24914W        W93319  38.940  38.959  12.013
24915W        W93320  20.195  23.262  14.887
24916W        W93321  32.811   2.687   4.606
24917W        W93322  30.329  35.329  10.884
24918W        W93323  29.972  23.458   2.802
24919W        W93324   5.296  40.197  14.092
24920W        W93325  29.015  32.925  11.532
24921W        W93326  32.613   7.455   4.187
24922W        W93327  41.803   4.945   1.135
24923W        W93328  17.669  16.955   1.493
24924W        W93329   5.627  22.550   2.472
24925W        W93330   3.079  10.142   3.311
24926W        W93331  11.318  35.284   3.260
24927W        W93332  36.560  22.975  12.569
24928W        W93333   2.349  21.284  13.091
24929W        W93334  44.608   8.297   3.760
24930W        W93335  23.542  35.387   3.704
24931W        W93336  27.507  38.570  13.813
24932W        W93337  17.611  11.822  14.494
24933W        W93338  18.838  10.860   4.571
24934W        W93339  15.021  40.961  13.988
24935W        W93340  33.418  19.383  11.528
24936W        W93341   7.998  31.673  10.563
24937W        W93342   8.301  33.461  12.873
24938W        W93343  42.979   4.355   4.298
24939W        W93344  21.163  28.576   1.695
24940W        W93345  22.722  14.568  11.184
24941W        W93346   8.465  43.761  12.444
24942W        W93347  32.253  41.848   3.650
24943W        W93348  22.186  11.637  13.528
24944W        W93349   7.711   8.802   0.968
24945W        W93350  17.184   5.865   5.098
24946W        W93351  43.000  34.041  14.037
24947W        W93352  40.046  42.491  14.859
24948W        W93353  37.424   2.729  13.288
24949W        W93354  18.002  37.902   3.841
24950W        W93355  21.798  30.038   3.600
24951W        W93356   9.397  26.166   2.578
24952W        W93357  31.486  26.072   1.023
24953W        W93358  20.770  38.420   1.188
24954W        W93359  34.301  41.013   1.801
24955W        W93360  43.822  33.923   0.894
24956W        W93361  20.691  18.962   1.824
24957W        W93362   5.399  23.208   4.097
24958W        W93363  24.773  17.635  11.938
24959W        W93364  36.045  30.144   3.181
24960W        W93365  21.212   7.315  13.869
24961W        W93366  38.324  39.710   1.567
24962W        W93367  43.916  10.236  13.380
24963W        W93368  31.277   4.858   1.765
24964W        W93369  16.612   0.809   1.749
24965W        W93370  29.117  36.624  11.945
24966W        W93371  10.312   0.195   5.874
24967W        W93372  28.925   5.341   3.920
24968W        W93373   8.348  42.483   4.090
24969W        W93374  39.431  28.900  13.040
24970W        W93375  13.280  42.043  14.367
24971W        W93376   4.368  32.390  10.737
24972W        W93377  15.041  36.677  11.141
24973W        W93378  17.930  24.092  13.728
24974W        W93379  26.607  15.786   3.146
24975W        W93380  41.310   7.724  12.165
24976W        W93381  27.053   4.725   1.121
24977W        W93382  40.813  13.624   3.766
24978W        W93383  41.002  14.042  12.902
24979W        W93384  19.997  31.548  13.035
24980W        W93385  28.200  38.961   4.657
24981W        W93386  13.797   1.878   0.458
24982W        W93387  28.660  26.396   2.786
24983W        W93388  20.550   1.269  11.029
24984W        W93389   1.836  10.313  10.721
24985W        W93390  41.553  22.600  10.993
24986W        W93391  30.697   7.437  14.360
24987W        W93392  15.536  23.264   2.367
24988W        W93393  27.942  34.593  10.149
24989W        W93394  44.670  22.884  14.616
24990W        W93395  22.683  36.580  14.848
24991W        W93396   3.458  33.914  12.943
24992W        W93397  31.019  43.467   4.002
24993W        W93398   6.596  41.399  11.090
24994W        W93399  22.872  23.221  10.700
24995W        W93400  33.030  31.243   4.627
24996W        W93401  30.396  11.766  12.927
24997W        W93402  16.637  44.754   3.614
24998W        W93403   4.244  15.745   4.222
24999W        W93404   6.882  37.903  14.475
25000W        W93405  39.550  13.699  13.421
25001W        W93406  19.065  13.187   1.350
25002W        W93407  29.443   4.702  14.292
25003W        W93408  13.123  35.283  10.395
25004W        W93409  19.840  22.443   4.091
25005W        W93410  38.588  17.209   3.062
25006W        W93411   4.441   8.304  14.973
25007W        W93412   8.852  11.679  10.692
25008W        W93413  34.448   9.851   0.544
25009W        W93414  32.839  17.072   1.914
25010W        W93415  20.748  40.296   2.560
25011W        W93416   7.250  33.952  10.776
25012W        W93417   9.317   3.762   0.789
25013W        W93418  20.868  14.093   3.440
25014W        W93419  44.224   2.376  11.545
25015W        W93420  36.790  19.846   0.724
25016W        W93421  39.938   8.745   2.216
25017W        W93422  43.900  43.492  13.796
25018W        W93423   2.521  26.230  13.593
25019W        W93424   5.347  33.199  14.942
25020W        W93425   8.784   8.365  13.543
25021W        W93426  19.235  38.742  12.598
25022W        W93427  20.312  33.622   0.910
25023W        W93428  16.268  33.886  13.874
25024W        W93429  11.668  31.659  14.334
25025W        W93430   6.258  15.747   1.423
25026W        W93431  11.577  24.041   3.598
25027W        W93432   5.791  44.961   3.704
25028W        W93433  22.176  41.588   3.259
25029W        W93434  18.168  15.736   2.308
25030W        W93435  41.321  18.104   3.868
25031W        W93436  31.400  16.346  11.169
25032W        W93437   5.133  38.407   1.140
25033W        W93438   8.169  35.505   3.348
25034W        W93439   7.874  11.244  12.323
25035W        W93440  21.627  37.124  14.782
25036W        W93441  18.697  31.063   1.962
25037W        W93442  36.408  15.387   0.399
25038W        W93443   9.653   3.455  14.945
25039W        W93444  44.381  41.699  14.402
25040W        W93445  26.884  38.147  14.996
25041W        W93446  23.672   8.484   2.761
25042W        W93447  30.368  14.420  12.988
25043W        W93448  43.244  31.809   3.435
25044W        W93449   9.341   3.447   2.800
25045W        W93450  37.975  15.151  14.797
25046W        W93451  32.858  44.013   1.396
25047W        W93452  21.269  12.435   4.491
25048W        W93453  22.819  21.925  11.996
25049W        W93454  30.715  14.307   0.012
25050W        W93455   1.771  31.029  13.339
25051W        W93456  20.993  33.172  13.012
25052W        W93457  37.417  33.980   4.576
25053W        W93458  19.268  24.466   0.989
25054W        W93459   9.079  10.831   4.124
25055W        W93460  13.373  44.964  14.273
25056W        W93461  19.495  16.252  14.475
25057W        W93462  37.289  23.713   3.782
25058W        W93463  19.183  18.037  12.914
25059W        W93464  41.563  39.695  13.376
25060W        W93465  37.338   7.469  13.387
25061W        W93466  13.483  35.997   0.664
25062W        W93467  44.895  31.598  11.980
25063W        W93468   9.964   5.666  14.456
25064W        W93469  28.044  16.007   4.519
25065W        W93470  10.379  20.015   1.061
25066W        W93471  31.957  18.117  11.994
25067W        W93472  12.084  12.826  12.450
25068W        W93473  33.901  35.415  13.335
25069W        W93474   0.975  33.475   3.009
25070W        W93475  33.160   3.456  14.480
25071W        W93476   4.679  30.859   5.174
25072W        W93477  10.703   2.815  13.797
25073W        W93478  19.625  23.743   1.069
25074W        W93479   9.599  33.016   4.242
25075W        W93480  43.048  40.403   0.868
25076W        W93481  27.602   4.664   1.947
25077W        W93482   6.329  20.591  10.713
25078W        W93483  12.870  29.149  14.520
25079W        W93484  33.392  26.893   4.506
25080W        W93485  37.068  13.331  14.822
25081W        W93486  34.930   4.463   0.734
25082W        W93487  36.697  44.985  13.267
25083W        W93488  26.541  16.901  10.627
25084W        W93489  11.378  40.237   2.335
25085W        W93490  24.915  35.709  14.876
25086W        W93491  32.114  30.736   1.748
25087W        W93492   4.472  16.812   1.292
25088W        W93493  42.695  24.004  12.609
25089W        W93494  26.184  41.150   1.067
25090W        W93495  40.825  20.219   1.359
25091W        W93496  35.072  24.238   1.154
25092W        W93497  29.075  18.372   4.759
25093W        W93498  29.508  16.013   2.978
25094W        W93499  39.138  25.716  13.989
25095W        W93500  10.446  34.712   2.127
25096W        W93501  38.765   0.847   1.431
25097W        W93502  18.221  44.770   4.241
25098W        W93503  18.621  30.124  10.812
25099W        W93504  39.254  42.962   3.991
25100W        W93505  13.682  29.755  13.487
25101W        W93506  23.214   1.973   1.610
25102W        W93507  43.912  42.856   1.151
25103W        W93508  39.950  19.758   5.017
25104W        W93509  31.999   8.687  12.872
25105W        W93510  43.301  42.272   2.838
25106W        W93511  38.500  38.894  12.677
25107W        W93512   9.816  43.434   3.789
25108W        W93513   0.308  32.853  12.572
25109W        W93514  25.907  21.141   2.791
25110W        W93515  21.255  30.862  11.610
25111W        W93516   4.924  29.046   1.767
25112W        W93517  18.820  41.723  11.115
25113W        W93518  10.770  40.596  11.097
25114W        W93519  27.174   8.416   1.688
25115W        W93520   4.928  19.194  10.317
25116W        W93521  24.931  19.703   4.730
25117W        W93522  16.543   6.420  12.067
25118W        W93523  31.159  21.319   1.761
25119W        W93524  26.634   3.954  10.368
25120W        W93525  43.931  39.780  10.711
25121W        W93526   4.901  29.129   2.754
25122W        W93527  11.005  13.837   1.849
25123W        W93528  15.308  16.072  14.044
25124W        W93529   8.656  35.608   2.618
25125W        W93530   5.411  44.398   3.262
25126W        W93531  36.070  40.707   3.292
25127W        W93532  14.578  28.145  11.641
25128W        W93533   6.917  19.725   0.820
25129W        W93534  32.909  19.132   4.626
25130W        W93535  30.986  38.896  10.232
25131W        W93536  21.670  25.645   1.252
25132W        W93537  10.229  19.869   4.454
25133W        W93538  34.016  22.995  14.779
25134W        W93539  27.048  34.863  14.415
25135W        W93540  18.068  34.994  13.014
25136W        W93541  11.882  22.199   4.464
25137W        W93542  23.454  21.523  13.124
25138W        W93543   4.334   3.027   3.298
25139W        W93544   8.188  43.719   3.269
25140W        W93545   6.875  35.132  13.002
25141W        W93546  21.466   9.617  12.406
25142W        W93547   6.181  19.667  12.090
25143W        W93548   3.434   5.807   0.849
25144W        W93549  27.044  38.956  12.599
25145W        W93550  16.751  28.704   2.394
25146W        W93551  30.681  27.039  11.935
25147W        W93552  18.763   1.331  10.655
25148W        W93553  37.975  32.425  13.824
25149W        W93554  37.893  18.575  11.514
25150W        W93555   1.458  10.442  14.882
25151W        W93556  43.063  27.091   0.399
25152W        W93557  27.901  27.107   2.807
25153W        W93558  38.036   9.005   0.098
25154W        W93559  41.066  40.407   3.103
25155W        W93560  10.961  36.294  14.291
25156W        W93561  36.351   1.428   3.741
25157W        W93562  26.939  42.891   1.141
25158W        W93563  27.898  17.425   2.254
25159W        W93564  44.932  13.599  13.859
25160W        W93565  10.630  15.248  14.448
25161W        W93566  36.075   2.786  12.957
25162W        W93567  24.002  39.008  14.333
25163W        W93568  26.009  42.897  13.491
25164W        W93569   0.947  18.277   1.787
25165W        W93570   0.720  10.442   4.975
25166W        W93571  28.975  14.370   0.295
25167W        W93572   9.809  25.737  11.061
25168W        W93573  10.176  26.577   3.869
25169W        W93574  15.281  20.514  10.998
25170W        W93575  25.042  16.489  13.336
25171W        W93576  21.702  38.390   0.021
25172W        W93577  20.307  26.869   2.857
25173W        W93578  35.872  37.186  11.083
25174W        W93579  37.649  38.064  10.733
25175W        W93580   8.594   9.487  12.002
25176W        W93581  23.533  38.071  14.787
25177W        W93582  22.003  25.089   2.887
25178W        W93583  29.172  15.234  12.560
25179W        W93584  41.396  40.501  12.041
25180W        W93585   9.744  30.766   5.496
25181W        W93586   5.620   7.379  13.527
25182W        W93587   8.700  31.942   2.043
25183W        W93588  22.721  43.410  14.087
25184W        W93589  38.983  22.588   0.094
25185W        W93590  19.030  23.679  13.451
25186W        W93591  30.055  38.514   4.517
25187W        W93592  42.495   8.058   3.252
25188W        W93593  36.420   3.261  11.920
25189W        W93594   1.220  22.464   0.838
25190W        W93595  17.111   8.867   2.620
25191W        W93596  42.115  26.531  12.477
25192W        W93597  38.088  19.724   1.401
25193W        W93598   2.447  29.095  10.713
25194W        W93599  38.116  38.793   9.890
25195W        W93600  42.317  33.560  12.609
25196W        W93601  15.388  17.600   1.429
25197W        W93602   2.321  33.405  11.603
25198W        W93603  34.595  33.539   2.164
25199W        W93604  37.534  33.373   1.881
25200W        W93605  17.728   7.944  12.042
25201W        W93606   6.279  27.995  12.106
25202W        W93607  29.500  24.119  14.191
25203W        W93608  13.290  40.099   1.406
25204W        W93609  24.557  30.916  13.972
25205W        W93610  26.469  31.902   1.606
25206W        W93611  37.345   3.500  12.905
25207W        W93612  10.106  19.576  11.225
25208W        W93613  34.689  34.367   3.689
25209W        W93614  41.001  22.659   0.377
25210W        W93615  33.174   2.119  13.561
25211W        W93616  10.940  20.704   3.852
25212W        W93617  18.288   6.723  12.426
25213W        W93618  22.596   2.648   0.845
25214W        W93619  20.472  41.670  12.488
25215W        W93620  23.030  14.202   0.726
25216W        W93621   4.436   4.172  12.373
25217W        W93622  42.987   1.531  13.847
25218W        W93623  21.242  36.349   1.419
25219W        W93624  15.669  38.569   0.803
25220W        W93625  20.710   6.777  14.378
25221W        W93626  39.253  14.555  14.784
25222W        W93627  13.256   6.416  14.140
25223W        W93628  15.615  11.897  12.066
25224W        W93629  10.907   0.472   2.407
25225W        W93630  13.824  21.494   1.383
25226W        W93631  44.972  29.699   1.455
25227W        W93632  39.820  44.060  11.156
25228W        W93633  40.818   6.714  11.573
25229W        W93634  36.078  42.068  14.831
25230W        W93635  32.447  44.315  10.439
25231W        W93636   2.956  15.126   1.808
25232W        W93637  30.096  22.973   2.356
25233W        W93638   5.854  40.810   4.380
25234W        W93639  37.921  19.186   0.669
25235W        W93640  36.791  13.072   4.581
25236W        W93641  11.247  14.622   3.367
25237W        W93642   1.462  12.223   2.420
25238W        W93643   3.141  10.341  13.648
25239W        W93644  11.070   2.689  10.168
25240W        W93645   7.371   7.882  12.121
25241W        W93646  30.724  18.970  11.285
25242W        W93647  18.539  19.070  12.616
25243W        W93648  15.863  20.483   1.367
25244W        W93649  15.267  18.170   1.350
25245W        W93650  39.482   9.640   1.690
25246W        W93651  36.092  29.118   3.186
25247W        W93652   1.479   2.895  13.402
25248W        W93653  28.505  11.163  11.502
25249W        W93654  11.111   6.250  14.935
25250W        W93655  26.708  10.650  12.965
25251W        W93656   6.343  34.198   2.080
25252W        W93657   6.003  30.161   3.675
25253W        W93658  36.232  34.754   4.467
25254W        W93659  44.640  26.073  14.522
25255W        W93660   7.234  29.898  14.931
25256W        W93661   4.410   0.491  14.992
25257W        W93662  27.672  18.550  11.635
25258W        W93663  30.932  29.121   4.121
25259W        W93664  43.452   0.914  13.100
25260W        W93665  33.929   1.025   3.700
25261W        W93666  39.364  13.932  12.991
25262W        W93667   9.650  28.932   2.347
25263W        W93668  15.428  26.515   4.147
25264W        W93669   5.417  29.751  10.965
25265W        W93670   7.339  31.246  14.729
25266W        W93671  25.172  30.444   1.788
25267W        W93672   6.948  21.759   3.339
25268W        W93673  31.746  16.782   0.852
25269W        W93674   0.380  19.595   0.956
25270W        W93675  23.660   8.289   3.769
25271W        W93676  32.160  43.915   0.279
25272W        W93677  35.174  21.305   4.544
25273W        W93678  24.592  43.509  11.969
25274W        W93679   3.954  12.748   1.798
25275W        W93680  21.725  35.036  14.754
25276W        W93681   9.422  25.604   0.426
25277W        W93682  16.696  17.392   5.109
25278W        W93683  30.449  44.713   3.160
25279W        W93684   4.709  26.982   0.924
25280W        W93685  20.668  35.369   4.148
25281W        W93686  34.368  11.667   3.694
25282W        W93687  17.890  10.895   0.465
25283W        W93688  15.790  16.194   1.420
25284W        W93689  25.691   0.477   0.386
25285W        W93690  29.036  23.276   0.299
25286W        W93691  35.834  41.390  14.002
25287W        W93692  41.095   1.035   2.700
25288W        W93693  35.072   6.164  12.170
25289W        W93694  27.456   7.738   2.624
25290W        W93695   3.927  42.039  11.123
25291W        W93696  12.342  25.478   3.671
25292W        W93697  11.262  31.277  11.582
25293W        W93698  43.853  19.089  14.323
25294W        W93699  30.648  22.046   4.730
25295W        W93700  40.682   1.869   2.643
25296W        W93701  30.433   5.636   0.903
25297W        W93702  17.446  30.951  12.371
25298W        W93703   4.234  42.761   4.499
25299W        W93704  33.567  25.029  14.998
25300W        W93705  16.293   5.968  13.111
25301W        W93706  27.441   5.144   1.860
25302W        W93707  38.925   7.708  14.741
25303W        W93708  41.470   0.902  14.559
25304W        W93709  34.262  16.067   2.656
25305W        W93710  44.426  29.971  12.530
25306W        W93711  17.537  22.836   0.614
25307W        W93712  37.489   0.554   2.825
25308W        W93713  20.696  14.225   3.905
25309W        W93714  11.795   9.335  12.429
25310W        W93715  40.592   5.335  10.637
25311W        W93716   2.677  13.718  13.995
25312W        W93717  37.875  29.610   3.190
25313W        W93718  35.111  32.762  13.796
25314W        W93719  36.841  43.975   0.243
25315W        W93720   0.802  11.367   2.983
25316W        W93721  26.512  14.516   0.457
25317W        W93722  17.487  33.542   4.101
25318W        W93723  25.607  40.739   0.912
25319W        W93724  32.249   5.742   5.202
25320W        W93725  29.492  16.261   3.417
25321W        W93726  23.825  32.121  13.000
25322W        W93727  23.813  14.302  10.373
25323W        W93728  32.860  28.439   0.240
25324W        W93729  19.841  24.036  14.470
25325W        W93730   2.146  27.596   2.646
25326W        W93731  44.369  14.762  13.970
25327W        W93732  11.430  12.617  14.946
25328W        W93733  23.740   7.436   4.198
25329W        W93734  41.403  16.326   0.880
25330W        W93735   5.191  25.305   4.729
25331W        W93736  36.405  17.909   4.728
25332W        W93737  20.721  16.675   2.144
25333W        W93738  35.760  43.942   3.795
25334W        W93739   5.841  38.017   3.222
25335W        W93740  17.854   3.866   1.304
25336W        W93741  11.151  41.768   0.771
25337W        W93742  40.256  17.931  13.393
25338W        W93743   5.443  40.986   1.488
25339W        W93744  15.473  40.307  11.103
25340W        W93745   7.180  31.578  12.765
25341W        W93746  28.647  31.619   1.401
25342W        W93747  15.813  40.340   2.172
25343W        W93748  17.337   5.485   2.161
25344W        W93749  35.187  18.077  14.333
25345W        W93750  24.177   6.376   5.071
25346W        W93751  29.546   9.989   1.781
25347W        W93752  33.216  35.940  12.186
25348W        W93753  21.460   7.817  10.987
25349W        W93754   6.384  29.339  13.884
25350W        W93755   7.102  31.543  10.899
25351W        W93756  28.528   3.298  11.499
25352W        W93757  39.534  24.991  12.142
25353W        W93758  30.525   3.442   4.717
25354W        W93759  32.839  28.353   3.744
25355W        W93760  21.500  39.171   2.417
25356W        W93761  21.922   3.829  14.960
25357W        W93762   3.110  43.347   2.369
25358W        W93763  39.964  31.052  13.744
25359W        W93764  15.791  37.633  13.398
25360W        W93765  35.078  15.536   3.999
25361W        W93766  10.141  17.820  14.418
25362W        W93767  17.835  18.600  14.322
25363W        W93768  37.449  19.335   0.808
25364W        W93769  24.619  13.830  11.644
25365W        W93770  11.057  36.463   4.337
25366W        W93771  22.241  42.885   4.743
25367W        W93772  25.284  34.855   2.258
25368W        W93773  38.349  19.636  10.265
25369W        W93774  41.008  25.175  11.488
25370W        W93775  12.119  40.524  11.595
25371W        W93776  24.213   1.386   2.810
25372W        W93777  13.001  27.701  12.497
25373W        W93778  15.495  40.695   0.281
25374W        W93779  32.942  28.958  12.997
25375W        W93780   6.922  15.999  13.427
25376W        W93781  42.519  14.116  10.757
25377W        W93782  11.396  13.714  12.118
25378W        W93783  18.508  34.025   4.575
25379W        W93784   8.712  32.152  10.318
25380W        W93785  44.568  12.382  12.109
25381W        W93786  28.185   1.258   2.729
25382W        W93787  14.627   9.613  13.946
25383W        W93788  29.309   1.808  12.417
25384W        W93789  16.188   1.719   4.873
25385W        W93790  10.838   5.889   0.266
25386W        W93791  19.710  15.747   2.424
25387W        W93792  16.159  20.637  10.952
25388W        W93793  39.804  13.100  12.096
25389W        W93794  24.804  29.453   3.346
25390W        W93795  27.151  44.108  10.385
25391W        W93796   9.409  41.565   4.109
25392W        W93797  33.366  12.291   0.051
25393W        W93798  43.271  20.114   3.682
25394W        W93799  31.035  41.896   3.356
25395W        W93800  43.871  17.252   3.037
25396W        W93801   0.395  41.589   1.495
25397W        W93802  10.141  34.898   0.787
25398W        W93803   5.920  40.766  12.458
25399W        W93804  28.909  21.266   0.722
25400W        W93805  16.614   8.215   0.917
25401W        W93806   9.847  27.498  11.841
25402W        W93807  24.969   1.506   2.447
25403W        W93808  38.328  13.281  13.455
25404W        W93809  17.381   0.711   0.473
25405W        W93810  11.369  14.053   4.211
25406W        W93811  20.765  38.428   3.357
25407W        W93812  25.760  19.015  12.952
25408W        W93813  40.929  16.526   1.754
25409W        W93814  31.890   8.766   2.204
25410W        W93815  20.266  40.513   2.462
25411W        W93816  11.281  14.069   2.415
25412W        W93817  17.674  39.917  11.294
25413W        W93818   6.723  27.189   1.341
25414W        W93819  44.484  36.568   1.237
25415W        W93820  37.782   8.839   3.689
25416W        W93821  32.977  13.887  11.982
25417W        W93822  36.052  18.117   2.755
25418W        W93823  44.903  25.228   2.910
25419W        W93824  41.889  28.167  12.440
25420W        W93825  19.271  40.158   4.457
25421W        W93826  38.303  30.250   4.192
25422W        W93827  14.870  32.123  10.779
25423W        W93828  17.193  34.412  13.109
25424W        W93829  22.346  42.335  12.086
25425W        W93830  25.060  34.494   2.903
25426W        W93831  40.276  20.828   4.102
25427W        W93832  31.609   1.039  14.910
25428W        W93833   4.033  33.867  13.940
25429W        W93834   0.444  16.005   1.212
25430W        W93835  16.533  38.390  14.820
25431W        W93836   1.856   9.063  12.998
25432W        W93837   8.383  35.669   4.260
25433W        W93838  43.399  25.598  10.944
25434W        W93839  25.590  11.768   3.255
25435W        W93840  29.699  32.703   3.741
25436W        W93841  34.846  42.562  11.131
25437W        W93842  18.641  16.697   0.066
25438W        W93843  35.091  34.577  11.267
25439W        W93844  16.921  36.559  12.106
25440W        W93845   4.206  17.843  11.544
25441W        W93846   6.486  12.263  13.919
25442W        W93847   7.604   3.974   2.193
25443W        W93848   7.718  38.409  14.713
25444W        W93849  42.810   4.663   4.702
25445W        W93850  34.399  19.089   1.444
25446W        W93851  22.699  13.664   4.416
25447W        W93852  15.592   6.910   5.177
25448W        W93853  18.025  12.088  11.572
25449W        W93854  36.684  22.099  11.531
25450W        W93855   9.367  34.713   3.031
25451W        W93856  39.495  26.962   3.186
25452W        W93857  37.214  28.628  11.834
25453W        W93858  12.850  20.967  11.049
25454W        W93859  44.403  21.084   2.301
25455W        W93860  25.733  29.256   0.445
25456W        W93861  42.282  20.750   3.241
25457W        W93862  14.316  10.167   3.337
25458W        W93863  36.325  43.912   0.309
25459W        W93864   3.464  20.085  14.048
25460W        W93865  28.386  16.157   0.748
25461W        W93866   2.128  26.378  12.248
25462W        W93867  44.909  39.536  12.024
25463W        W93868  36.275  31.003   0.947
25464W        W93869  10.599  32.972   4.572
25465W        W93870  11.250  37.862  11.671
25466W        W93871  19.850   1.897  11.814
25467W        W93872  28.814  41.412   4.322
25468W        W93873  24.125  16.698  10.621
25469W        W93874  33.106  21.128   0.292
25470W        W93875  42.711  13.198   2.880
25471W        W93876   2.455  13.809  13.513
25472W        W93877  11.685  21.264   2.662
25473W        W93878   6.756  31.627  11.924
25474W        W93879  25.524  18.634  14.765
25475W        W93880   4.167  19.131   2.939
25476W        W93881   8.243  37.284   1.804
25477W        W93882   4.134  10.580  10.826
25478W        W93883  43.877   2.516   2.777
25479W        W93884  24.709   6.515   2.207
25480W        W93885  35.320  10.457  10.713
25481W        W93886  40.630   8.374   0.370
25482W        W93887  22.785  37.208  10.707
25483W        W93888  34.934   6.392  13.945
25484W        W93889  43.616  13.761  12.951
25485W        W93890  22.021   4.699   1.373
25486W        W93891   9.337  23.470  12.091
25487W        W93892  12.151  42.216  12.162
25488W        W93893  25.258  37.306   2.219
25489W        W93894  22.737  10.243   0.016
25490W        W93895  15.180   8.430  11.229
25491W        W93896  33.716   4.332   1.443
25492W        W93897  25.675  27.991   3.387
25493W        W93898  41.257  27.504  10.828
25494W        W93899  37.983  26.968  10.596
25495W        W93900  38.069  36.355   0.835
25496W        W93901  25.744   1.247   2.858
25497W        W93902  34.307  12.557   3.151
25498W        W93903   1.458   6.399  12.085
25499W        W93904  17.579   9.406  10.645
25500W        W93905  28.616  31.095   2.568
25501W        W93906  20.562  11.588  11.465
25502W        W93907  39.102  25.257  12.841
25503W        W93908  10.705  14.856  14.794
25504W        W93909  38.444   9.360   3.112
25505W        W93910  39.791  35.515   4.028
25506W        W93911  36.762   3.819   2.820
25507W        W93912  40.548  30.902  11.045
25508W        W93913  35.894  11.551   0.522
25509W        W93914  43.322  34.782  11.140
25510W        W93915  40.836  33.572   4.330
25511W        W93916  38.285  35.803   1.774
25512W        W93917  13.092  19.541   0.423
25513W        W93918   8.827  29.199  11.973
25514W        W93919  42.791   8.342   2.374
25515W        W93920  17.565  33.022   2.268
25516W        W93921  18.735  22.283   3.913
25517W        W93922  32.046  34.364  13.879
25518W        W93923  22.947  14.132   4.556
25519W        W93924  10.713  43.347  13.815
25520W        W93925  23.045  28.936  11.577
25521W        W93926  31.445  32.826   4.878
25522W        W93927  11.632  13.724   0.713
25523W        W93928  19.267  31.398   3.142
25524W        W93929  25.575  29.867  11.165
25525W        W93930  43.903   1.950  11.546
25526W        W93931  25.551  43.071  14.434
25527W        W93932  31.611  32.305  11.134
25528W        W93933  30.657  28.384  14.797
25529W        W93934  11.598  14.715  10.013
25530W        W93935  41.925  12.294  13.578
25531W        W93936  39.920   7.449   3.148
25532W        W93937  32.505  34.645  14.025
25533W        W93938  28.918  41.003   0.679
25534W        W93939  10.278   6.807   3.118
25535W        W93940  33.504  16.630   0.345
25536W        W93941  40.048  24.815  13.506
25537W        W93942  42.339  34.808   2.482
25538W        W93943   3.771  19.074  12.955
25539W        W93944  25.646  12.185  12.133
25540W        W93945   8.854  28.448  14.323
25541W        W93946  18.243  25.980  12.114
25542W        W93947   5.200   3.816   2.257
25543W        W93948  31.784  22.718  11.610
25544W        W93949   4.812   5.019   2.007
25545W        W93950   7.638  38.357  11.247
25546W        W93951  40.964  14.342   3.736
25547W        W93952  16.464   1.301   1.610
25548W        W93953  37.082  31.677   3.790
25549W        W93954  36.947  43.290   4.030
25550W        W93955   9.106  17.780   3.557
25551W        W93956  15.785  44.443  13.648
25552W        W93957  15.852   2.712  11.557
25553W        W93958  17.703   5.341  14.039
25554W        W93959  12.758  37.797   4.511
25555W        W93960  21.545  25.377   0.145
25556W        W93961   2.381  30.218   3.935
25557W        W93962  33.657  43.791   4.343
25558W        W93963   6.673  43.329  12.488
25559W        W93964  15.573  25.536  14.263
25560W        W93965  15.594  10.512  14.319
25561W        W93966  40.449  18.165  11.994
25562W        W93967   8.487  33.981   1.830
25563W        W93968   9.836  44.148  10.617
25564W        W93969   7.765   0.975  14.467
25565W        W93970  32.817  33.056  14.775
25566W        W93971  26.674  20.697  12.976
25567W        W93972  27.364  27.005   1.668
25568W        W93973   4.419  11.442  12.125
25569W        W93974  14.287  28.046   3.279
25570W        W93975  16.811  37.667   3.675
25571W        W93976  41.484   0.432  10.692
25572W        W93977   4.247   4.826   2.185
25573W        W93978   2.925   7.187   0.579
25574W        W93979  38.347  20.465   4.331
25575W        W93980  19.537  15.360  14.396
25576W        W93981  32.192   8.185  13.510
25577W        W93982  11.912  42.272   0.257
25578W        W93983  44.013   3.685  12.017
25579W        W93984  22.251   4.896  12.408
25580W        W93985  13.668  27.040   2.415
25581W        W93986  14.015  39.343  14.570
25582W        W93987  29.588   7.145   0.410
25583W        W93988  44.239  28.033   1.812
25584W        W93989   4.035  41.361  12.015
25585W        W93990   2.080  34.046   4.490
25586W        W93991  41.966  41.122  14.391
25587W        W93992  20.608  44.106  11.694
25588W        W93993   6.479  35.496  14.415
25589W        W93994  29.194  19.573  12.458
25590W        W93995   8.082  36.119  13.375
25591W        W93996  23.102  35.941   2.732
25592W        W93997   5.528   3.833   4.249
25593W        W93998  29.926  32.433  10.534
25594W        W93999  19.371  32.172  13.725
25595W        W94000  38.300   1.338   4.238
25596W        W94001   3.503  16.269   4.148
25597W        W94002  32.212  22.368   1.814
25598W        W94003  15.384  29.986  14.293
25599W        W94004  10.330  22.407  12.446
25600W        W94005   9.876   4.280  10.253
25601W        W94006   0.330  25.005   1.699
25602W        W94007  29.182  17.773  14.713
25603W        W94008   9.909  32.964  11.593
25604W        W94009  17.255  38.029  12.997
25605W        W94010  29.939   4.791  12.030
25606W        W94011  30.010   6.122  12.983
25607W        W94012   4.750  15.417   1.332
25608W        W94013  31.564  12.043  13.578
25609W        W94014  38.834  18.502  11.448
25610W        W94015   2.511  18.293  13.555
25611W        W94016  38.524  36.863   4.286
25612W        W94017  12.582  30.015   2.878
25613W        W94018  11.209   4.049  10.037
25614W        W94019   1.761  36.994  13.763
25615W        W94020  19.629  12.819   0.772
25616W        W94021  34.277  37.412   2.205
25617W        W94022  15.499   4.881   3.342
25618W        W94023  28.967  12.614  10.596
25619W        W94024  23.429  15.891  13.856
25620W        W94025  23.618  10.413  14.049
25621W        W94026  23.304  31.975  14.863
25622W        W94027  44.750  42.330  13.470
25623W        W94028  30.074  30.140  13.847
25624W        W94029  12.186   2.638   1.362
25625W        W94030  34.482  21.291   3.733
25626W        W94031   9.715  23.138   4.632
25627W        W94032  43.732  44.907   2.675
25628W        W94033  35.534  27.735  12.842
25629W        W94034   9.673   4.336   2.387
25630W        W94035  13.705  15.619   4.176
25631W        W94036  37.842   9.153  14.639
25632W        W94037   3.469  25.647  10.193
25633W        W94038  44.440  31.696   0.819
25634W        W94039  30.824  14.191  13.047
25635W        W94040  32.664  30.318   0.519
25636W        W94041  34.028   8.846   0.416
25637W        W94042  12.692   6.474  14.243
25638W        W94043  30.718  20.302  14.369
25639W        W94044  23.485  39.699  10.714
25640W        W94045  27.909  20.025   2.311
25641W        W94046  29.978  13.826   4.073
25642W        W94047  14.775  11.881  12.995
25643W        W94048  38.408  34.303  12.948
25644W        W94049  12.411  44.704   1.833
25645W        W94050  13.725  43.004   2.830
25646W        W94051  29.654  37.037  13.786
25647W        W94052   8.012  10.544   1.719
25648W        W94053   3.369  19.704   3.870
25649W        W94054  42.044  28.496   3.821
25650W        W94055  43.392  33.098  14.032
25651W        W94056   3.431  39.793   1.326
25652W        W94057  44.735  29.010  11.402
25653W        W94058  26.634  20.324  12.104
25654W        W94059  11.330  21.226  11.993
25655W        W94060  34.402  37.594   0.833
25656W        W94061  31.729  34.480  10.673
25657W        W94062  17.421  29.268  10.840
25658W        W94063  31.469   4.858  12.135
25659W        W94064  43.506   1.727   2.323
25660W        W94065   9.922   0.752  10.343
25661W        W94066  27.575  32.211   0.822
25662W        W94067  26.245  26.792  13.832
25663W        W94068  26.620   9.522  11.993
25664W        W94069  15.134   1.413   2.136
25665W        W94070  32.642  20.993  12.285
25666W        W94071  27.289   0.343  11.506
25667W        W94072  42.043  17.242   3.888
25668W        W94073  43.060  17.667   1.314
25669W        W94074  21.562   5.423   4.666
25670W        W94075  33.984  14.679   4.548
25671W        W94076  15.835   9.039  11.024
25672W        W94077  44.376   9.664  14.950
25673W        W94078  38.924  30.297  10.580
25674W        W94079  41.945  29.111  11.284
25675W        W94080   1.233   1.035  14.959
25676W        W94081  43.850  24.025  14.274
25677W        W94082  35.058  31.035   0.274
25678W        W94083  33.870  27.211   3.650
25679W        W94084  43.812   1.763   0.493
25680W        W94085  17.303   7.667  11.973
25681W        W94086  15.028  42.338   3.181
25682W        W94087   0.009  28.435  14.358
25683W        W94088  32.401  31.687   3.359
25684W        W94089   9.831   2.728  12.072
25685W        W94090  31.112  28.472  14.418
25686W        W94091   3.958  18.550   1.841
25687W        W94092  17.467  18.485  13.512
25688W        W94093   9.573   1.691  12.514
25689W        W94094  22.565  28.909  12.884
25690W        W94095   4.956  33.848  11.071
25691W        W94096  14.730  43.378  14.210
25692W        W94097  25.991  13.660  10.828
25693W        W94098   6.873  18.144   4.801
25694W        W94099   9.939  36.553   4.499
25695W        W94100  30.066  25.268  13.819
25696W        W94101  44.350  44.670   2.136
25697W        W94102   1.761  10.922  14.495
25698W        W94103  34.810   6.688   4.809
25699W        W94104   9.956  19.309  12.167
25700W        W94105  35.365  20.645  11.489
25701W        W94106  10.150   6.589  14.803
25702W        W94107   5.855  19.706  14.675
25703W        W94108  39.246  35.981  13.868
25704W        W94109  34.900  13.361   0.186
25705W        W94110  11.424  31.650   2.246
25706W        W94111   5.158   6.680   4.494
25707W        W94112  28.083  16.223  13.347
25708W        W94113  30.148  35.539  12.101
25709W        W94114  30.229   1.907   4.242
25710W        W94115  16.672  37.525  14.677
25711W        W94116  39.525  33.418  12.060
25712W        W94117  15.004  24.122  14.381
25713W        W94118  40.646  40.050  13.365
25714W        W94119  30.168  18.515   2.328
25715W        W94120   3.461  23.286   2.725
25716W        W94121  21.447  39.672   2.291
25717W        W94122  22.892  20.312  11.027
25718W        W94123  39.496  25.608  12.024
25719W        W94124  14.431  28.831  13.389
25720W        W94125  33.874  30.673   2.055
25721W        W94126  28.118  15.819  10.645
25722W        W94127   9.438  35.809  10.844
25723W        W94128   8.882  13.954   0.757
25724W        W94129   0.399   9.606  10.855
25725W        W94130  10.893  27.954   1.377
25726W        W94131  34.480  41.767   2.421
25727W        W94132  23.624  30.478   0.988
25728W        W94133  18.947  34.488  12.992
25729W        W94134  11.897  25.116   1.711
25730W        W94135  33.530   5.929   3.338
25731W        W94136  13.213  36.403   0.936
25732W        W94137  26.667  28.064   1.370
25733W        W94138  12.672  43.393  10.738
25734W        W94139  36.026   0.343   1.773
25735W        W94140  35.008   0.448   0.156
25736W        W94141   6.719  44.874  10.752
25737W        W94142  29.093   4.786   0.498
25738W        W94143  17.539  15.124   0.487
25739W        W94144  13.810  10.087  14.043
25740W        W94145  24.323  37.874   4.978
25741W        W94146  15.232  42.314  14.375
25742W        W94147  33.513  33.608   4.542
25743W        W94148  44.817  37.670   3.181
25744W        W94149  16.011   3.726  11.960
25745W        W94150  14.217  22.478   3.177
25746W        W94151   8.129  20.293   2.177
25747W        W94152  33.681  19.112   3.809
25748W        W94153   1.594   0.907  11.580
25749W        W94154  13.312  44.306   3.153
25750W        W94155  40.519  22.531  13.482
25751W        W94156   9.804  22.522   2.325
25752W        W94157  32.707  11.206   0.789
25753W        W94158  24.652  42.488   0.739
25754W        W94159   7.688  30.932  11.499
25755W        W94160  41.636   6.146   2.355
25756W        W94161  28.071  33.137  14.854
25757W        W94162   2.939  34.333  14.469
25758W        W94163   3.047  10.134   2.390
25759W        W94164   0.565  26.853   3.809
25760W        W94165  39.511  23.880  11.759
25761W        W94166  23.696   4.437   4.759
25762W        W94167   8.780  13.779   1.724
25763W        W94168  15.257   5.214  11.583
25764W        W94169   5.943  30.960  12.805
25765W        W94170   2.558   3.451   4.748
25766W        W94171   1.271  33.051  14.807
25767W        W94172  33.748  34.089  11.980
25768W        W94173  40.522  11.714  12.852
25769W        W94174  18.090   1.214  13.045
25770W        W94175   3.481   1.531   4.539
25771W        W94176   2.284   8.956  11.946
25772W        W94177  44.317  33.378  11.143
25773W        W94178  21.993  42.803   0.473
25774W        W94179  12.274  35.330  14.900
25775W        W94180  37.428   1.864  11.623
25776W        W94181  41.806  43.420  11.557
25777W        W94182  15.253  39.069   2.893
25778W        W94183  15.783  13.123  12.888
25779W        W94184  41.975   6.897   2.770
25780W        W94185  30.177   9.819   4.296
25781W        W94186  12.127  16.320   0.850
25782W        W94187  40.526   3.805  13.860
25783W        W94188  26.492  25.451  12.783
25784W        W94189   5.833  18.571   2.174
25785W        W94190  38.255  30.172   1.483
25786W        W94191  43.575  40.866   0.393
25787W        W94192   1.037  42.363  12.461
25788W        W94193   5.218  33.429   0.385
25789W        W94194   2.510   7.028   0.915
25790W        W94195  24.235  40.120  13.369
25791W        W94196  18.227   4.716  14.896
25792W        W94197   4.862  44.007  14.899
25793W        W94198  18.646  22.672   3.103
25794W        W94199  16.380  14.239  10.716
25795W        W94200  43.866   0.492   2.026
25796W        W94201  18.123  20.837   1.261
25797W        W94202  25.644  35.810   3.162
25798W        W94203  13.288   7.127  11.602
25799W        W94204  14.979  23.056   4.552
25800W        W94205   0.110  13.203   0.327
25801W        W94206  18.261  44.157   2.359
25802W        W94207  28.758  29.525   3.783
25803W        W94208  12.578  43.882  13.103
25804W        W94209  33.704  23.415   2.248
25805W        W94210  34.599  11.305   1.866
25806W        W94211  26.680  13.783   3.838
25807W        W94212  29.141  19.215   4.928
25808W        W94213   4.164   0.853   1.750
25809W        W94214  15.818  20.989  13.798
25810W        W94215  41.100  11.234  10.648
25811W        W94216  23.547  31.667   1.804
25812W        W94217  24.239  36.256   4.230
25813W        W94218  24.263  32.468  14.991
25814W        W94219   8.773  31.577   2.406
25815W        W94220  25.175  31.872  12.251
25816W        W94221  18.312  34.157  11.208
25817W        W94222  40.382  14.869   3.346
25818W        W94223  39.901   3.886   2.295
25819W        W94224  40.916  39.506  12.590
25820W        W94225  27.468  43.190   0.351
25821W        W94226  41.387  19.146  14.003
25822W        W94227  30.640  20.173   2.100
25823W        W94228   1.407  27.943  12.254
25824W        W94229  15.257  15.637   4.674
25825W        W94230  39.481  14.815  12.556
25826W        W94231  20.707  25.144   2.389
25827W        W94232  22.863  17.095  13.474
25828W        W94233  14.903  17.811   1.200
25829W        W94234  19.975  26.231   0.732
25830W        W94235   8.426  30.568  14.944
25831W        W94236   4.405  10.051  12.074
25832W        W94237  14.153  39.545  14.009
25833W        W94238  15.171   4.299  11.459
25834W        W94239  12.048  28.608  10.348
25835W        W94240  36.143  30.453   2.747
25836W        W94241  20.699  12.848  13.478
25837W        W94242  19.312  17.296  12.366
25838W        W94243  11.750   8.970   1.574
25839W        W94244  20.793  35.138  12.521
25840W        W94245  28.454  44.214   1.241
25841W        W94246  31.580  42.977   4.575
25842W        W94247   8.683  42.556  10.615
25843W        W94248  14.059   5.199  13.863
25844W        W94249  43.636  19.740  10.277
25845W        W94250  26.640  33.703  11.788
25846W        W94251   2.427   8.438   0.832
25847W        W94252  19.356  14.846  10.609
25848W        W94253   2.727  21.258  14.376
25849W        W94254  28.661  32.240   4.575
25850W        W94255   7.217  24.019   3.300
25851W        W94256   0.077   6.887   2.851
25852W        W94257  38.602   6.246  13.840
25853W        W94258   7.639  25.806   3.273
25854W        W94259   9.817  28.151  13.477
25855W        W94260  12.308  33.440  14.803
25856W        W94261  39.292   1.832   1.208
25857W        W94262   6.100  16.720  12.438
25858W        W94263  10.832   1.880  13.045
25859W        W94264  21.501   2.691   4.237
25860W        W94265   2.265  22.557   3.161
25861W        W94266  28.774   3.409  11.946
25862W        W94267  19.144   4.287  14.529
25863W        W94268  31.062  26.500  10.058
25864W        W94269  28.606  28.691   4.430
25865W        W94270  11.141  10.432  14.175
25866W        W94271   4.893  12.591  12.138
25867W        W94272  19.815  34.472  12.638
25868W        W94273  23.100  21.681  10.365
25869W        W94274  44.969  44.483   1.950
25870W        W94275  28.640  19.587   1.797
25871W        W94276   9.461   8.953   4.609
25872W        W94277   2.816  11.542  11.239
25873W        W94278  25.620  26.914   2.244
25874W        W94279  44.857  28.562   3.228
25875W        W94280  37.759   2.389  11.723
25876W        W94281  37.863  41.824  12.797
25877W        W94282  17.678  30.527  13.042
25878W        W94283  15.640  29.209   2.632
25879W        W94284  11.081  11.633  11.295
25880W        W94285  34.555   3.431   2.892
25881W        W94286   1.737  17.471   4.654
25882W        W94287  12.180  35.484  10.863
25883W        W94288  38.834  35.920  10.433
25884W        W94289  31.722   7.493  14.187
25885W        W94290   6.393  11.563   0.240
25886W        W94291  15.346   8.168  12.590
25887W        W94292  26.062  13.656  12.991
25888W        W94293  29.167   9.144  13.523
25889W        W94294  42.559  43.807   2.110
25890W        W94295  39.144   3.129   4.955
25891W        W94296  33.422  40.604   3.681
25892W        W94297  39.722  10.196  14.465
25893W        W94298  30.392  34.486   1.112
25894W        W94299  42.436  23.218  14.712
25895W        W94300   2.696  32.020   1.916
25896W        W94301  24.580  44.486   3.744
25897W        W94302  39.886   7.932   0.646
25898W        W94303   6.408  19.444  13.874
25899W        W94304  26.523   0.801   4.205
25900W        W94305  30.386  32.233   1.867
25901W        W94306   8.435  14.045   9.810
25902W        W94307   9.112  26.964  10.226
25903W        W94308   5.127  44.384   0.159
25904W        W94309  27.086  15.774   2.187
25905W        W94310  23.747  15.614   3.743
25906W        W94311  41.012  11.351   4.026
25907W        W94312  12.236  29.627   2.184
25908W        W94313  33.355   5.310   1.410
25909W        W94314  36.267   7.482  14.708
25910W        W94315  23.922  37.486   2.268
25911W        W94316   0.142  19.517  14.960
25912W        W94317  29.464   2.482  11.767
25913W        W94318   7.430  32.941  14.843
25914W        W94319   3.276   5.953  11.622
25915W        W94320  19.100  31.431   3.930
25916W        W94321  42.282  31.588   0.409
25917W        W94322   0.734   1.057  12.397
25918W        W94323  22.029   7.200  11.559
25919W        W94324  24.642  33.469   4.202
25920W        W94325  23.132  34.105   2.476
25921W        W94326  12.625  40.129   4.230
25922W        W94327   8.854  23.781   2.697
25923W        W94328   4.940  24.475   3.243
25924W        W94329  18.029  14.137  12.847
25925W        W94330  34.542  40.931  12.223
25926W        W94331  42.860  11.253   1.874
25927W        W94332  39.841  19.139  11.967
25928W        W94333  38.794  37.752  14.590
25929W        W94334  22.606  16.887  11.582
25930W        W94335  22.556   7.980  14.485
25931W        W94336  17.641   8.666   3.324
25932W        W94337  15.840   4.744  11.987
25933W        W94338  18.829   1.612  12.049
25934W        W94339   8.751  25.997   2.287
25935W        W94340   0.477   9.779  12.832
25936W        W94341  23.138  29.509  12.408
25937W        W94342  20.337  43.934  11.315
25938W        W94343  12.700  13.825   1.750
25939W        W94344  28.511  28.790   2.877
25940W        W94345  25.766  19.758  11.141
25941W        W94346  19.013  17.087   2.394
25942W        W94347  40.692  11.761  12.324
25943W        W94348  16.699  27.669  11.141
25944W        W94349  37.066  32.063   3.223
25945W        W94350  27.683   1.762  13.345
25946W        W94351  26.555  12.741   0.705
25947W        W94352  19.096  30.881  14.755
25948W        W94353  15.588  11.029  14.343
25949W        W94354  36.562   0.704   3.146
25950W        W94355   8.665  27.107  10.455
25951W        W94356  30.572   8.816   1.701
25952W        W94357  28.058  28.682   2.596
25953W        W94358  36.728   6.677   3.251
25954W        W94359  26.164  21.531   1.689
25955W        W94360  34.936  21.536   0.703
25956W        W94361  15.187   8.027  13.456
25957W        W94362  11.803   2.679   4.165
25958W        W94363  41.574  10.587   4.652
25959W        W94364  26.486  12.870  14.684
25960W        W94365   8.732  33.464  13.190
25961W        W94366  31.511  11.278   0.204
25962W        W94367  33.165   8.230   3.593
25963W        W94368  28.449  25.645   3.727
25964W        W94369  30.913   7.183   4.646
25965W        W94370  10.336  26.275  11.129
25966W        W94371  18.407   0.244   3.326
25967W        W94372  16.274  17.616   4.143
25968W        W94373   2.985  37.208   1.974
25969W        W94374  38.269   2.326   4.001
25970W        W94375  14.245  26.959   3.761
25971W        W94376   2.383  23.572  13.847
25972W        W94377   3.860  41.256  11.552
25973W        W94378  34.105  40.337  10.629
25974W        W94379  16.301  44.177   1.798
25975W        W94380   5.883   1.923   4.342
25976W        W94381  17.410  11.558   3.260
25977W        W94382  34.151   8.854  14.507
25978W        W94383  36.960  35.882   0.945
25979W        W94384  43.380  41.819   2.595
25980W        W94385  26.478  31.001  11.112
25981W        W94386  18.215  35.322  11.638
25982W        W94387   3.555   0.889  14.626
25983W        W94388   3.467  42.058   0.942
25984W        W94389   9.726  25.187  13.441
25985W        W94390  33.463   5.056  11.395
25986W        W94391  38.042  39.911   3.149
25987W        W94392  17.131  12.249  13.662
25988W        W94393  28.320  26.744  11.141
25989W        W94394   2.457   8.185  11.520
25990W        W94395  44.420  19.354   2.778
25991W        W94396  36.448  33.993   1.879
25992W        W94397  43.559  11.055  11.659
25993W        W94398  44.499  17.997   1.214
25994W        W94399  36.625  32.274   1.994
25995W        W94400  15.698  27.988   2.671
25996W        W94401   8.155   5.240   1.434
25997W        W94402  37.575  30.664   3.666
25998W        W94403  39.329  26.884  13.902
25999W        W94404   7.665  43.472  13.964
26000W        W94405  29.427   4.700   2.826
26001W        W94406  41.430  36.813   0.811
26002W        W94407  32.070   7.402   2.203
26003W        W94408  36.482  29.038   3.942
26004W        W94409  36.079  27.163  12.375
26005W        W94410  18.877  28.226  13.805
26006W        W94411  35.018  14.308  11.597
26007W        W94412  33.067  29.295   1.781
26008W        W94413  35.480   8.813  13.332
26009W        W94414  35.809  37.578   4.546
26010W        W94415   8.975  18.772  13.985
26011W        W94416  41.794  43.460  14.730
26012W        W94417   5.301  36.665  14.372
26013W        W94418  26.215  38.599  13.053
26014W        W94419  12.350  12.942   1.815
26015W        W94420  43.334  19.812  13.931
26016W        W94421  21.148  39.971   4.075
26017W        W94422  12.808   5.585  14.099
26018W        W94423   3.325  44.755  11.458
26019W        W94424  10.750  22.778   4.077
26020W        W94425  23.712   5.716  12.533
26021W        W94426  18.118  22.053   2.701
26022W        W94427   5.593  25.046  11.420
26023W        W94428  33.486   7.911  11.102
26024W        W94429   3.397  32.579  12.622
26025W        W94430  34.539  41.344   2.129
26026W        W94431  18.008  25.047  12.897
26027W        W94432  41.580  38.474  12.047
26028W        W94433  16.607  26.628  12.108
26029W        W94434  17.431  24.993   0.048
26030W        W94435  17.965  34.069   0.914
26031W        W94436  16.795  22.503   2.725
26032W        W94437  34.401  35.816  11.058
26033W        W94438  43.705  44.423  13.824
26034W        W94439  31.171   2.869   2.803
26035W        W94440   6.692  15.097  10.221
26036W        W94441   2.756  38.086   3.667
26037W        W94442  28.076  31.127   3.748
26038W        W94443   9.659  43.964   4.216
26039W        W94444  31.891  10.832   2.664
26040W        W94445  42.083  26.396   9.970
26041W        W94446   4.793  23.247   1.457
26042W        W94447  43.426  21.534   3.616
26043W        W94448  28.903  14.330   2.720
26044W        W94449  40.412  43.200   4.689
26045W        W94450   5.394   8.147   0.851
26046W        W94451   7.760  40.034  10.718
26047W        W94452  25.935  26.576   5.013
26048W        W94453  31.866  27.235  11.387
26049W        W94454  15.300  16.186  12.483
26050W        W94455  35.047  34.772   1.300
26051W        W94456  32.958  14.245   3.558
26052W        W94457   1.912  23.918   2.390
26053W        W94458  39.542  22.392   0.786
26054W        W94459   8.673  12.337  14.879
26055W        W94460  21.618  33.346  11.436
26056W        W94461  35.800  34.970  14.038
26057W        W94462  43.803   1.645   4.792
26058W        W94463  33.808   2.433   1.477
26059W        W94464  44.317   3.582  10.400
26060W        W94465  12.210  30.741   3.664
26061W        W94466  35.242  13.265   2.824
26062W        W94467  42.181   0.164  12.704
26063W        W94468   0.047   6.753   5.004
26064W        W94469  14.901  27.457   3.085
26065W        W94470   4.250   1.286   3.910
26066W        W94471  17.809  10.856  10.537
26067W        W94472   5.898  27.066  13.093
26068W        W94473   5.736  10.647  14.368
26069W        W94474  39.487  42.111   3.544
26070W        W94475  22.487  16.366  11.534
26071W        W94476  31.399   7.882  14.012
26072W        W94477   5.016  30.124   3.727
26073W        W94478  43.646  33.129  13.514
26074W        W94479  32.764  41.928   3.664
26075W        W94480  13.815  13.308   0.590
26076W        W94481  25.515  34.927   0.265
26077W        W94482  39.531  31.361   1.267
26078W        W94483  25.111  43.712  11.027
26079W        W94484  14.282  32.898   2.137
26080W        W94485  25.993   6.904   4.175
26081W        W94486  28.268  13.096   0.686
26082W        W94487  30.460  38.778  15.000
26083W        W94488  29.954   2.455  12.561
26084W        W94489  28.038   9.757  13.390
26085W        W94490  39.943  23.109  11.466
26086W        W94491  26.142   8.395   2.127
26087W        W94492  34.287   8.033   1.501
26088W        W94493  24.978  23.464   1.246
26089W        W94494  25.649  32.926  12.984
26090W        W94495  41.758  39.653   1.328
26091W        W94496  29.789   2.044  11.893
26092W        W94497   7.131  28.455   1.657
26093W        W94498  40.395   6.746  11.284
26094W        W94499   3.207   1.277  13.064
26095W        W94500   8.818  19.133  10.752
26096W        W94501  27.050   7.777  14.306
26097W        W94502  42.617   9.906   2.332
26098W        W94503  27.693   2.612   0.571
26099W        W94504  39.687   9.736  10.884
26100W        W94505  14.653  18.201  12.408
26101W        W94506  10.315  28.534   1.988
26102W        W94507   9.792   7.150  11.467
26103W        W94508  18.254   6.937   4.938
26104W        W94509   6.666  41.257   4.775
26105W        W94510   2.430  10.304  11.883
26106W        W94511   4.556  10.362   3.853
26107W        W94512  10.222  39.737   3.353
26108W        W94513   3.664  12.948   1.404
26109W        W94514  19.642  44.657  11.768
26110W        W94515   9.951  28.162   3.679
26111W        W94516  38.785  35.960  12.949
26112W        W94517  25.930  39.078   4.068
26113W        W94518   7.877  41.516  12.874
26114W        W94519  17.985  25.786  13.405
26115W        W94520  44.480  14.279  12.448
26116W        W94521   4.202  13.138   3.090
26117W        W94522  20.856   2.412  12.419
26118W        W94523  13.863  35.894   3.927
26119W        W94524   9.408  39.486   2.457
26120W        W94525  33.612   5.705   1.199
26121W        W94526   5.087  18.702  11.933
26122W        W94527   2.934  37.366   3.744
26123W        W94528  36.616  37.349  13.531
26124W        W94529  40.809  23.623   3.766
26125W        W94530  31.805  14.185   2.252
26126W        W94531  28.393  13.559   0.932
26127W        W94532   2.743   7.317   1.849
26128W        W94533   6.866  10.130  12.540
26129W        W94534  31.776  23.213   3.657
26130W        W94535  23.000   9.067   4.116
26131W        W94536  24.997  26.492  14.314
26132W        W94537  29.602  44.729   3.071
26133W        W94538  18.589   2.156  10.478
26134W        W94539  40.996  24.892  14.281
26135W        W94540  23.506   3.366   1.660
26136W        W94541  12.679   7.342  12.456
26137W        W94542   0.013  18.535  14.710
26138W        W94543  39.081  26.646  13.470
26139W        W94544  25.859   8.138  13.091
26140W        W94545   9.822  18.138   5.434
26141W        W94546  30.609  22.743   3.118
26142W        W94547  43.684  40.953  14.403
26143W        W94548  38.520   5.333  11.678
26144W        W94549  30.017   3.722   4.704
26145W        W94550  29.362  42.785  11.219
26146W        W94551  20.704   1.543  12.031
26147W        W94552  15.985   2.175  13.624
26148W        W94553  42.315  29.912  11.025
26149W        W94554  39.427  24.097  13.105
26150W        W94555   3.212  42.481   0.772
26151W        W94556  30.588  36.355   1.800
26152W        W94557  37.405  21.031  10.578
26153W        W94558  42.020  41.656  13.404
26154W        W94559  41.026  18.030  12.021
26155W        W94560   1.652  34.749   3.210
26156W        W94561  13.604  10.326   2.791
26157W        W94562  12.341  14.242   2.141
26158W        W94563  36.106   1.019   1.793
26159W        W94564  19.567  13.398  14.599
26160W        W94565  26.917  24.908   0.435
26161W        W94566   0.531  23.578  13.465
26162W        W94567  24.435  44.813   2.099
26163W        W94568  28.267  43.661   3.329
26164W        W94569   8.343  15.766  14.054
26165W        W94570   4.375   3.805  11.102
26166W        W94571  16.777  31.551  12.478
26167W        W94572  11.937  14.942   0.708
26168W        W94573  42.987  16.793  12.093
26169W        W94574  12.212  38.289   3.216
26170W        W94575  16.249   6.719   2.375
26171W        W94576  22.342  27.850   1.683
26172W        W94577  15.256  43.883   3.381
26173W        W94578   5.013  13.049  11.675
26174W        W94579  20.123  16.119   3.104
26175W        W94580  17.809  36.819  12.161
26176W        W94581  22.024  26.191  12.861
26177W        W94582  24.013  44.526   0.957
26178W        W94583  11.167  30.945  11.202
26179W        W94584  40.397  44.499   3.198
26180W        W94585  38.540  25.695   2.880
26181W        W94586  29.876  19.297   1.245
26182W        W94587  24.474  31.647   1.886
26183W        W94588  17.174  13.603   1.510
26184W        W94589   9.777  14.134   0.897
26185W        W94590  38.185  19.083   0.242
26186W        W94591  39.741  16.750   2.425
26187W        W94592   0.772   3.850   0.852
26188W        W94593  13.112  14.541  10.730
26189W        W94594  22.556  29.029  10.204
26190W        W94595   7.230  44.048   2.244
26191W        W94596  30.922  22.126   1.374
26192W        W94597   6.846  27.078   0.317
26193W        W94598  20.830  21.208  12.147
26194W        W94599  14.673  20.142   4.354
26195W        W94600  42.540  39.346  13.786
26196W        W94601  33.207  22.662  11.454
26197W        W94602  11.791  27.478   1.286
26198W        W94603  28.645  39.592   4.213
26199W        W94604  23.147  41.885   0.873
26200W        W94605  37.450  29.656  10.377
26201W        W94606  38.939   4.460  14.325
26202W        W94607  13.204  26.044  11.183
26203W        W94608   6.815  10.402   0.546
26204W        W94609  44.007  38.978  10.996
26205W        W94610  40.011  39.000   5.255
26206W        W94611  16.146  40.480   0.825
26207W        W94612  31.870  13.145  14.713
26208W        W94613  31.476  42.449   2.300
26209W        W94614  24.523  13.336   1.939
26210W        W94615  21.978   5.671  14.102
26211W        W94616  22.480  31.670   2.817
26212W        W94617  26.429  42.744   5.045
26213W        W94618   5.610  33.862  12.575
26214W        W94619  22.090  41.578   1.904
26215W        W94620  41.460  21.168   2.791
26216W        W94621  29.283  11.977   4.210
26217W        W94622  39.329   0.480  10.810
26218W        W94623  16.860  32.645   3.405
26219W        W94624  21.804  30.607  13.921
26220W        W94625  44.396  16.071  12.845
26221W        W94626  39.274  35.952  10.755
26222W        W94627  26.554   9.995   3.628
26223W        W94628   7.835  39.190  11.038
26224W        W94629  31.077  22.492   0.423
26225W        W94630  34.055  36.535  12.351
26226W        W94631  35.824   5.215  10.526
26227W        W94632  14.194  14.351   1.290
26228W        W94633  20.576  11.797   0.269
26229W        W94634  27.255  32.488  14.797
26230W        W94635  14.634  35.040   2.583
26231W        W94636  17.595  33.455   1.827
26232W        W94637  25.417  35.898   4.134
26233W        W94638  23.057  27.892  11.572
26234W        W94639  26.473  40.241   3.775
26235W        W94640  14.566  26.029   4.198
26236W        W94641  33.109  41.832  10.705
26237W        W94642  21.248  10.788  13.447
26238W        W94643   5.198  27.468   2.426
26239W        W94644  33.030  22.280   0.433
26240W        W94645  38.093  37.168   1.755
26241W        W94646  36.467  28.096   3.743
26242W        W94647  30.410  10.383  10.675
26243W        W94648  36.065  21.322  14.309
26244W        W94649   8.929   0.860   2.759
26245W        W94650  33.587  44.203  11.490
26246W        W94651   3.712  37.896  14.285
26247W        W94652  38.980  39.402  13.919
26248W        W94653  40.018  35.419  13.589
26249W        W94654  33.315  33.850  13.805
26250W        W94655  37.924  17.056  12.363
26251W        W94656  17.626  29.161  13.543
26252W        W94657  43.846  33.176   3.735
26253W        W94658  31.436  41.459  13.799
26254W        W94659   7.175  11.745  14.053
26255W        W94660  23.196  14.907   4.106
26256W        W94661  21.679  25.066   4.688
26257W        W94662  40.407  11.550   0.413
26258W        W94663   9.738   5.811  12.624
26259W        W94664  23.221   8.723  12.618
26260W        W94665  28.792   7.439  11.162
26261W        W94666  42.953  38.508   1.797
26262W        W94667  25.949   6.969   2.313
26263W        W94668  14.796  40.187   0.551
26264W        W94669   8.809  32.921   4.612
26265W        W94670  10.792  43.537   4.737
26266W        W94671  17.379  40.820   4.169
26267W        W94672   9.947  40.127   2.280
26268W        W94673  24.594  28.668   1.828
26269W        W94674  10.433  32.857   0.919
26270W        W94675  20.415  33.397   0.456
26271W        W94676   5.647  21.189   2.313
26272W        W94677  15.073  12.776  12.085
26273W        W94678  16.580  26.156  12.297
26274W        W94679   6.942  10.487   3.237
26275W        W94680  29.575  23.922  12.866
26276W        W94681  34.413  33.481   0.725
26277W        W94682  41.764  44.443   0.692
26278W        W94683  11.202  22.714   3.811
26279W        W94684  41.297  17.845  14.004
26280W        W94685  19.871  23.670  11.233
26281W        W94686  10.488  11.886  14.476
26282W        W94687  34.657  43.731  11.531
26283W        W94688  27.892  20.494  14.622
26284W        W94689  29.290   5.712   2.031
26285W        W94690   0.700  26.766   4.306
26286W        W94691   4.846  38.821   0.871
26287W        W94692   0.419  32.005   2.818
26288W        W94693  18.007  37.722   5.026
26289W        W94694  41.025  16.002   0.670
26290W        W94695   3.995  31.348  11.077
26291W        W94696  17.772  36.358  11.707
26292W        W94697  43.716  14.259   2.626
26293W        W94698  32.624   9.291   3.772
26294W        W94699  20.512  18.166  11.894
26295W        W94700   6.437  42.843   0.824
26296W        W94701   3.714  20.530   4.571
26297W        W94702  26.972  17.547  13.529
26298W        W94703  36.834  22.502  12.611
26299W        W94704  15.158  17.002   1.404
26300W        W94705  12.166  17.564  13.103
26301W        W94706  32.943   1.388  14.507
26302W        W94707  17.861  27.424  11.062
26303W        W94708  11.910  19.927  13.009
26304W        W94709  15.246  36.333   4.306
26305W        W94710   2.418   9.795  13.439
26306W        W94711  34.665  33.514   1.656
26307W        W94712   3.991  36.221   0.454
26308W        W94713  42.787   2.436   4.523
26309W        W94714   8.591  26.955  14.371
26310W        W94715  26.265  14.801   1.848
26311W        W94716  41.847  39.817   3.319
26312W        W94717  27.537  36.227   1.891
26313W        W94718   0.762  41.405   2.370
26314W        W94719  40.643  35.940  10.257
26315W        W94720  11.352  41.353  14.397
26316W        W94721  33.609  11.175  10.136
26317W        W94722  21.265  30.085   3.601
26318W        W94723  26.736  17.627  13.989
26319W        W94724  31.121  36.571   0.331
26320W        W94725  42.718  44.057  13.954
26321W        W94726  11.476   5.881  12.559
26322W        W94727  17.629  33.965   1.599
26323W        W94728  26.626   4.767   4.551
26324W        W94729  25.078   4.838   2.192
26325W        W94730  38.518  25.398   4.713
26326W        W94731  42.651  30.395  14.957
26327W        W94732  23.940  42.579  14.521
26328W        W94733  31.539  12.652  10.632
26329W        W94734  39.521  38.258   0.142
26330W        W94735   5.015   3.717   4.142
26331W        W94736  28.054  10.630  12.162
26332W        W94737  28.604  10.412   4.747
26333W        W94738  27.388  14.611  11.642
26334W        W94739  39.145  11.114  14.589
26335W        W94740   8.960  13.752  14.789
26336W        W94741  25.381  17.865  14.349
26337W        W94742  41.868   4.456  12.556
26338W        W94743  16.311  28.686   3.208
26339W        W94744   4.698  37.186   4.154
26340W        W94745  15.083  19.993  13.401
26341W        W94746  16.516  21.255   0.430
26342W        W94747  18.195  28.735  12.375
26343W        W94748  35.828  34.902   4.132
26344W        W94749  27.741  35.521  13.094
26345W        W94750  38.584  22.544   4.462
26346W        W94751  22.261  10.906  11.429
26347W        W94752  42.992  40.776   1.664
26348W        W94753  33.418  37.830   0.685
26349W        W94754  35.550   1.509   4.940
26350W        W94755  30.110   2.486  10.972
26351W        W94756  13.138  32.813  11.434
26352W        W94757   0.370  37.272  13.889
26353W        W94758  44.342  39.549  11.551
26354W        W94759  41.062   1.224   3.184
26355W        W94760   1.020  31.072  12.512
26356W        W94761  17.685  14.745  11.710
26357W        W94762  11.013  43.783   4.329
26358W        W94763  36.549  16.755  12.002
26359W        W94764  13.162   5.269  13.907
26360W        W94765  37.896  25.593  11.378
26361W        W94766  29.202  43.172   1.512
26362W        W94767  11.551  18.918   2.522
26363W        W94768   0.268  10.108  13.378
26364W        W94769  37.901  32.481   0.705
26365W        W94770  10.666  29.109   3.078
26366W        W94771  14.354  37.620   0.572
26367W        W94772  14.559  32.825  13.752
26368W        W94773  40.383  33.895   1.715
26369W        W94774   1.750  29.925  11.480
26370W        W94775  29.510  43.543   1.342
26371W        W94776  21.259  12.423   2.443
26372W        W94777  40.377  28.022   1.830
26373W        W94778  28.136  42.569   4.415
26374W        W94779  44.260  35.912   4.334
26375W        W94780  42.703  21.195   0.837
26376W        W94781  13.669  10.627  12.653
26377W        W94782  11.751  37.781   3.806
26378W        W94783  10.512  26.081   1.638
26379W        W94784  39.296   9.452   1.240
26380W        W94785  31.464   8.361   1.770
26381W        W94786  32.238  44.032   1.867
26382W        W94787  41.315  12.938   3.926
26383W        W94788   3.369  14.882   2.924
26384W        W94789  31.144  22.056   0.106
26385W        W94790  44.446  10.841   3.380
26386W        W94791   6.274  42.181  11.248
26387W        W94792  42.507  30.893  14.989
26388W        W94793  43.891  31.942   3.626
26389W        W94794   3.304  27.826  11.863
26390W        W94795  13.625  33.561  10.984
26391W        W94796  35.376  28.766   4.578
26392W        W94797   7.725  24.615   1.651
26393W        W94798  24.261   8.539   2.200
26394W        W94799   9.662  37.493  13.001
26395W        W94800   1.158  21.231   0.742
26396W        W94801  21.280  25.633   2.720
26397W        W94802  28.579  37.157  11.499
26398W        W94803  17.912   9.685  14.434
26399W        W94804  16.330  15.059   2.250
26400W        W94805  16.051  22.464  14.408
26401W        W94806  25.689  34.545  12.002
26402W        W94807  19.630   1.437   2.118
26403W        W94808  40.986  33.472  11.887
26404W        W94809  27.026  26.854  10.370
26405W        W94810  44.299  23.041  10.513
26406W        W94811  37.029   1.543   0.963
26407W        W94812  31.182  43.001   0.576
26408W        W94813   5.965  15.803  11.044
26409W        W94814  33.731  17.547  12.955
26410W        W94815  41.892  39.379  10.976
26411W        W94816  27.183  18.267   0.213
26412W        W94817   7.361   3.366  11.968
26413W        W94818  17.608  12.602   3.740
26414W        W94819  29.416   2.401   4.523
26415W        W94820  22.578  11.934   3.039
26416W        W94821   6.181   0.777   5.026
26417W        W94822  25.604  22.203  11.536
26418W        W94823  22.087  15.389   0.675
26419W        W94824  31.963  11.610   2.710
26420W        W94825   8.909  26.546   3.136
26421W        W94826   6.998   6.886   0.375
26422W        W94827   8.805  30.214   3.525
26423W        W94828   7.334  23.112   2.233
26424W        W94829   1.792  22.230   3.620
26425W        W94830  33.754  11.149  13.805
26426W        W94831  39.891  30.686   4.205
26427W        W94832  19.200  26.373  11.587
26428W        W94833  26.644   9.477   4.942
26429W        W94834  26.098  41.832  12.392
26430W        W94835  24.928  43.471  13.973
26431W        W94836  28.191  22.551  10.772
26432W        W94837  33.819   9.695  14.295
26433W        W94838   0.491  38.426   4.010
26434W        W94839  12.399  33.173  12.458
26435W        W94840  26.459   1.116  13.511
26436W        W94841   2.447  11.785  12.412
26437W        W94842  36.934   9.618   3.210
26438W        W94843   8.234  22.210  13.894
26439W        W94844  25.959  42.024  14.522
26440W        W94845  18.135  14.107  14.827
26441W        W94846  32.758  41.196   0.150
26442W        W94847  40.390  14.003   4.425
26443W        W94848  41.104  41.129  13.320
26444W        W94849  27.876  27.552   1.378
26445W        W94850  28.510   7.116  12.216
26446W        W94851  22.225  18.341   0.413
26447W        W94852  43.789  39.952   1.246
26448W        W94853  25.360  12.232  14.000
26449W        W94854  44.891  25.708  13.375
26450W        W94855  23.487  13.726   2.793
26451W        W94856  38.793  14.282   5.090
26452W        W94857  15.163  10.274  12.326
26453W        W94858  18.341   2.209   4.583
26454W        W94859  21.083  20.782  10.237
26455W        W94860  19.350  29.610   0.418
26456W        W94861  26.495   3.191  12.036
26457W        W94862   5.551   4.364  12.860
26458W        W94863  33.827  28.169  10.146
26459W        W94864  14.855  40.373   3.224
26460W        W94865  25.039  27.791  10.526
26461W        W94866  41.907  38.289  13.844
26462W        W94867   8.687   2.917  11.523
26463W        W94868  11.427  18.360   2.380
26464W        W94869  31.252  13.212   1.840
26465W        W94870   2.936   4.413   0.467
26466W        W94871   0.415  32.732   4.129
26467W        W94872  41.471   4.224   4.583
26468W        W94873   1.191  26.268  13.688
26469W        W94874  26.529  38.743   3.560
26470W        W94875  38.587  37.432  13.303
26471W        W94876  22.972   6.563  11.202
26472W        W94877  34.403  37.655  11.745
26473W        W94878   7.862  22.190   3.409
26474W        W94879   5.201   3.847   0.919
26475W        W94880  40.444  38.631   4.424
26476W        W94881   3.883   2.374   2.040
26477W        W94882  27.234  36.195   3.170
26478W        W94883  36.555  36.462   0.330
26479W        W94884  10.073   8.845   4.086
26480W        W94885   4.674  23.232   4.965
26481W        W94886  32.978  10.662   4.477
26482W        W94887  22.440  22.237   1.939
26483W        W94888  16.802  13.842   3.509
26484W        W94889   2.788  37.506  10.310
26485W        W94890  39.084  33.964   4.714
26486W        W94891  37.248  35.872  10.735
26487W        W94892  11.111  24.018  13.443
26488W        W94893  31.253  18.513  13.605
26489W        W94894  42.005   8.120   1.982
26490W        W94895  33.089   3.448   0.519
26491W        W94896  20.196  40.605  14.994
26492W        W94897  21.351   5.251  13.491
26493W        W94898  28.636  19.662   0.836
26494W        W94899  31.037  12.191   4.840
26495W        W94900  43.057   9.725   2.526
26496W        W94901  21.071  44.414  13.744
26497W        W94902  39.075  25.882  14.898
26498W        W94903  26.070   8.898  11.113
26499W        W94904   0.857  25.283  14.730
26500W        W94905  19.579  26.723   0.084
26501W        W94906   1.850  39.880   3.388
26502W        W94907  41.237   0.886   0.014
26503W        W94908  38.444  41.068  13.528
26504W        W94909  29.364  19.923  12.034
26505W        W94910   5.149  15.155  10.789
26506W        W94911  26.639  21.752   0.818
26507W        W94912  18.048  10.985   3.570
26508W        W94913  15.815  16.300  11.886
26509W        W94914  22.491  32.177  13.891
26510W        W94915   9.800  29.133  14.792
26511W        W94916  11.166  21.884  13.837
26512W        W94917  14.731  20.216   1.572
26513W        W94918  43.305   1.585   2.787
26514W        W94919  12.848   5.261  13.454
26515W        W94920  27.131   3.778   3.109
26516W        W94921  12.026  12.227   2.292
26517W        W94922  38.562  21.417  14.878
26518W        W94923  32.473   0.532   3.461
26519W        W94924  26.449  32.477  13.950
26520W        W94925  24.394  37.440   3.668
26521W        W94926  11.791  43.810  14.355
26522W        W94927   5.508  21.995   0.865
26523W        W94928  42.742  25.164   2.175
26524W        W94929  32.969  19.062  14.047
26525W        W94930  25.705   8.523   3.721
26526W        W94931  19.658   1.098   1.186
26527W        W94932  22.730  24.252   4.080
26528W        W94933  43.177  10.780  13.846
26529W        W94934  12.087  10.269   0.679
26530W        W94935  28.713  35.387   1.913
26531W        W94936  28.223  15.572   4.232
26532W        W94937  28.654  30.616  14.806
26533W        W94938   3.913  10.263   1.829
26534W        W94939  39.458  29.042   0.832
26535W        W94940  13.677  19.283  14.372
26536W        W94941   0.943  32.606  14.657
26537W        W94942   5.714  15.704  10.630
26538W        W94943   6.890  25.268  14.946
26539W        W94944  26.349  11.868   4.590
26540W        W94945   2.391  22.614  13.318
26541W        W94946  18.422   5.336   2.799
26542W        W94947  41.525  23.557  14.411
26543W        W94948  17.611  10.659   1.364
26544W        W94949  32.055  43.029  13.395
26545W        W94950  38.812   8.261   2.612
26546W        W94951  43.252   4.118  12.467
26547W        W94952  39.017  14.661   0.266
26548W        W94953   6.812  36.102   2.136
26549W        W94954  34.032   1.215   4.581
26550W        W94955  38.305   7.159  13.462
26551W        W94956  29.026   1.350  10.391
26552W        W94957  42.510  23.442   4.075
26553W        W94958  29.988  24.692  13.828
26554W        W94959  16.909  31.815   3.594
26555W        W94960  39.051  39.971   2.836
26556W        W94961  15.437  34.772   1.358
26557W        W94962  24.935  43.005  10.486
26558W        W94963  38.879  24.157  11.628
26559W        W94964  17.649  39.340   3.571
26560W        W94965  25.000  14.834   4.095
26561W        W94966  36.316  44.378  10.942
26562W        W94967  35.564   9.088  12.839
26563W        W94968   1.488  32.096  11.565
26564W        W94969  11.834  41.593   3.289
26565W        W94970  21.732  29.106   0.544
26566W        W94971   0.425  44.493   2.216
26567W        W94972   9.952  20.258   4.288
26568W        W94973  43.713  43.572   2.847
26569W        W94974  42.984  27.025  13.519
26570W        W94975  21.719  15.800  12.097
26571W        W94976   9.025  14.893  13.100
26572W        W94977   9.441  21.285   0.325
26573W        W94978  22.681   5.251  13.973
26574W        W94979  16.516  11.583  13.224
26575W        W94980  16.715   5.371   3.565
26576W        W94981  39.925   7.215  13.158
26577W        W94982   3.702  29.748   2.797
26578W        W94983  31.758   8.180   2.444
26579W        W94984  17.366   8.199   1.325
26580W        W94985   4.331   3.993  14.480
26581W        W94986   9.129  23.521   3.381
26582W        W94987  25.292   2.405  13.699
26583W        W94988  43.082   0.827  14.742
26584W        W94989  39.464  18.890   1.836
26585W        W94990  31.455  11.644   2.811
26586W        W94991  24.750  28.851  12.956
26587W        W94992  39.824  10.947   1.026
26588W        W94993  38.481  25.034   3.354
26589W        W94994  24.709   5.328   2.729
26590W        W94995  21.676  19.510   4.258
26591W        W94996  10.312   1.437  11.899
26592W        W94997  30.389  27.441  12.168
26593W        W94998  44.662   9.681  13.903
26594W        W94999   0.787   7.623   1.837
26595W        W95000  26.766  38.330   3.773
26596W        W95001  16.036  24.767  10.706
26597W        W95002  21.140  39.485   4.312
26598W        W95003   1.418  19.099  13.487
26599W        W95004  10.023  18.158   2.250
26600W        W95005  26.324   8.604  11.728
26601W        W95006  30.533  43.591   4.476
26602W        W95007  43.755  12.568   0.465
26603W        W95008   4.401   7.949  13.990
26604W        W95009  17.685  41.285  13.447
26605W        W95010  40.948  44.836   0.883
26606W        W95011  21.642  38.044  11.275
26607W        W95012   6.881  32.669  14.347
26608W        W95013  31.731  18.824   2.874
26609W        W95014  43.042   8.647  13.872
26610W        W95015   1.218  29.460   0.973
26611W        W95016  41.382  40.426   1.708
26612W        W95017  27.486   4.682   4.807
26613W        W95018   2.247  10.138  10.456
26614W        W95019   5.685  17.189   0.657
26615W        W95020  26.511   4.591   5.051
26616W        W95021  44.383  28.692   0.930
26617W        W95022  34.607  21.093  11.792
26618W        W95023  21.039  26.972  13.822
26619W        W95024  22.142  12.366   4.611
26620W        W95025   5.751  29.455  13.030
26621W        W95026   1.223  33.034   3.256
26622W        W95027  17.343  44.119  11.521
26623W        W95028   2.538  14.768   4.621
26624W        W95029  10.276  39.287   3.045
26625W        W95030  32.631  22.596  10.685
26626W        W95031  32.354  20.718  12.611
26627W        W95032  33.907   4.431   0.983
26628W        W95033   9.637  18.895   3.688
26629W        W95034  20.381   6.743  11.992
26630W        W95035  39.791  44.186   1.904
26631W        W95036  33.768  34.057  13.703
26632W        W95037   2.780  25.460   3.278
26633W        W95038   9.196   5.391  12.083
26634W        W95039  23.296  36.789  11.016
26635W        W95040  37.341  43.428  12.859
26636W        W95041  22.261   4.769  11.497
26637W        W95042  42.500  16.234   3.850
26638W        W95043   5.037   6.910   0.327
26639W        W95044  12.715  13.835   2.743
26640W        W95045   2.203  20.019   3.642
26641W        W95046   9.967  42.383  12.089
26642W        W95047  28.491  20.774   0.446
26643W        W95048  26.674  44.273   4.551
26644W        W95049  40.964   4.584  12.277
26645W        W95050  26.760  35.577  12.148
26646W        W95051  12.821  41.783   0.507
26647W        W95052  14.550  40.615   0.707
26648W        W95053  14.554  28.464   4.626
26649W        W95054  20.131   8.820   2.358
26650W        W95055  41.577  22.755  10.507
26651W        W95056  15.170  15.300   4.266
26652W        W95057  11.741  31.667   0.652
26653W        W95058   0.152  33.480   4.595
26654W        W95059  27.561  33.424   1.885
26655W        W95060  13.589   6.770   2.425
26656W        W95061  43.478   9.704  12.062
26657W        W95062   2.402  18.800  14.451
26658W        W95063  33.501  30.559   1.679
26659W        W95064  12.799  11.593   1.406
26660W        W95065  37.565  25.061  13.445
26661W        W95066   9.413   4.990   1.786
26662W        W95067   7.619  11.627  13.028
26663W        W95068  35.183  18.866  13.482
26664W        W95069  12.654  25.596  13.023
26665W        W95070   4.116  28.013  13.847
26666W        W95071  24.958   2.030   0.963
26667W        W95072  25.005  33.976  12.071
26668W        W95073  36.760   7.788   0.509
26669W        W95074  34.146  10.633   1.335
26670W        W95075  38.716  19.026   0.204
26671W        W95076  26.730  20.255  13.454
26672W        W95077  10.695   5.517   1.671
26673W        W95078  42.783  15.045   2.643
26674W        W95079   5.466  26.968  12.806
26675W        W95080  36.814  31.187   3.902
26676W        W95081  15.072   1.853   1.851
26677W        W95082  27.024  36.004   0.219
26678W        W95083  39.493  44.826  11.404
26679W        W95084  42.923   7.246   0.509
26680W        W95085  15.486   4.412   0.806
26681W        W95086  11.949   1.810   2.536
26682W        W95087   0.741  25.811   2.191
26683W        W95088  23.110  22.437  11.140
26684W        W95089  22.070  36.028  13.516
26685W        W95090  43.865  40.887   2.251
26686W        W95091  24.326  15.718   1.327
26687W        W95092   8.219  12.203  11.451
26688W        W95093  22.559  17.995   0.986
26689W        W95094  28.115  43.022   4.144
26690W        W95095   6.220  21.859   4.144
26691W        W95096  23.288  19.492   3.187
26692W        W95097  32.521  14.637  14.422
26693W        W95098  16.647  35.897  13.974
26694W        W95099  28.422   1.015   0.955
26695W        W95100   4.140  15.640   3.221
26696W        W95101  43.350  38.276   0.373
26697W        W95102   9.014  38.788   0.685
26698W        W95103  21.638  44.909   1.985
26699W        W95104  35.776   3.478   3.441
26700W        W95105  23.020  15.769  12.236
26701W        W95106  42.939  34.569   0.301
26702W        W95107  41.027  33.005  12.451
26703W        W95108   9.117  24.214   4.229
26704W        W95109   6.250  30.244   5.576
26705W        W95110  38.526   1.013  11.914
26706W        W95111  20.225  34.871  12.511
26707W        W95112  39.889  29.133   4.790
26708W        W95113   2.583   6.440   3.285
26709W        W95114  36.936  23.748   4.151
26710W        W95115  38.139  36.825   3.535
26711W        W95116  35.945  14.376   0.301
26712W        W95117  35.298   0.847  12.288
26713W        W95118   5.340   6.943   4.108
26714W        W95119   4.689  40.394   1.386
26715W        W95120  14.138  19.275  14.053
26716W        W95121  40.513  15.810  11.595
26717W        W95122  30.830  26.132   3.724
26718W        W95123   6.192   6.941   0.999
26719W        W95124  12.908  35.044  11.067
26720W        W95125  28.361  39.084   9.755
26721W        W95126   5.796   3.890  11.347
26722W        W95127  34.625   8.850  11.192
26723W        W95128  28.016  24.167   2.153
26724W        W95129  43.672  21.698  14.865
26725W        W95130   9.644  40.547   3.653
26726W        W95131  11.714  15.425   4.231
26727W        W95132  22.819   2.414  11.383
26728W        W95133  19.867  29.194  11.555
26729W        W95134  26.218   3.689   3.130
26730W        W95135  22.579  26.027   1.822
26731W        W95136  32.527   1.688  12.477
26732W        W95137  30.605  36.459  14.273
26733W        W95138  32.809   4.404   2.410
26734W        W95139  44.727  19.828  14.697
26735W        W95140  29.531  22.565  12.958
26736W        W95141  32.374  11.869  12.528
26737W        W95142  39.103  31.180  14.993
26738W        W95143  15.549  20.295  13.942
26739W        W95144  23.372  31.013  12.987
26740W        W95145  10.348  21.297   1.115
26741W        W95146  14.417   2.162   3.374
26742W        W95147   7.892   1.712  13.816
26743W        W95148  34.307   6.794   1.668
26744W        W95149  24.460  16.362  12.588
26745W        W95150  43.367   1.036   4.043
26746W        W95151   1.597  10.925  14.956
26747W        W95152  11.570  19.988   4.082
26748W        W95153  17.591  14.750  13.768
26749W        W95154  12.292  16.333  14.469
26750W        W95155  35.837  25.751  10.810
26751W        W95156  37.634  37.898   3.199
26752W        W95157   0.523  12.811   4.264
26753W        W95158  26.991  15.328   0.333
26754W        W95159  33.593  26.560   2.631
26755W        W95160   9.255  14.718  10.641
26756W        W95161  29.951   5.840  11.156
26757W        W95162  34.634  19.109   2.705
26758W        W95163  26.104  10.540  12.570
26759W        W95164  19.356   3.244   0.834
26760W        W95165  36.015  28.747  14.946
26761W        W95166  35.418  18.780   2.826
26762W        W95167  36.508   4.927  11.587
26763W        W95168  44.258  32.055   2.265
26764W        W95169  18.836  17.252  12.567
26765W        W95170   2.013  13.198  12.956
26766W        W95171  17.101  14.608   3.783
26767W        W95172  19.031   0.463  13.574
26768W        W95173  14.569  18.594   3.211
26769W        W95174   9.123   5.145  12.911
26770W        W95175  29.601  13.064  14.384
26771W        W95176  36.608  37.028  12.887
26772W        W95177  42.303  28.199  12.166
26773W        W95178   8.346   1.267  11.089
26774W        W95179  40.504   9.091  14.004
26775W        W95180  36.945   9.774   4.685
26776W        W95181  27.365  25.581   0.780
26777W        W95182  12.379  41.321  11.851
26778W        W95183   9.887  33.690  12.479
26779W        W95184  36.310   3.387  14.788
26780W        W95185  28.160  38.065   3.675
26781W        W95186  11.696  14.358  13.499
26782W        W95187   0.368  13.806   1.701
26783W        W95188  30.514   4.105  12.462
26784W        W95189  16.460   5.853  12.609
26785W        W95190  36.080  35.428  11.481
26786W        W95191  39.954   0.470   2.255
26787W        W95192   1.884   0.893   1.717
26788W        W95193   5.214  41.912  14.327
26789W        W95194  14.138  10.556   2.994
26790W        W95195   2.882  19.692  11.786
26791W        W95196  29.501  20.743   2.151
26792W        W95197   8.301  27.352   9.700
26793W        W95198  12.635  37.093   3.754
26794W        W95199  13.495  34.799   4.913
26795W        W95200   7.733  21.134   5.317
26796W        W95201  26.991   9.307   1.914
26797W        W95202  25.066  40.336   1.263
26798W        W95203   3.965  26.194  13.931
26799W        W95204  15.697  29.909  12.092
26800W        W95205  40.526  17.203   3.720
26801W        W95206  22.480  40.045   3.153
26802W        W95207  20.255  22.156   3.813
26803W        W95208  28.107  10.306   2.234
26804W        W95209  33.827  43.345   2.227
26805W        W95210  14.192  31.419  11.962
26806W        W95211  24.609   5.567  14.742
26807W        W95212  19.516  31.555   4.206
26808W        W95213   5.639  42.819  14.385
26809W        W95214  29.518  17.682  14.336
26810W        W95215  36.973   1.486  12.624
26811W        W95216  19.572  10.801   2.391
26812W        W95217   6.918  25.713  12.138
26813W        W95218  11.812  31.476  12.407
26814W        W95219  35.968  41.518  10.773
26815W        W95220   4.945  36.089  14.779
26816W        W95221  38.256  42.185   4.218
26817W        W95222   1.582   0.679   4.214
26818W        W95223  20.885  40.011   3.576
26819W        W95224   9.813  15.007   2.465
26820W        W95225  43.809  19.224  12.567
26821W        W95226  43.341  11.742  10.606
26822W        W95227  14.793  11.341  12.979
26823W        W95228  38.380  12.741   3.273
26824W        W95229  25.458  42.463  13.945
26825W        W95230  23.581   3.353  14.250
26826W        W95231  10.583  44.153   1.701
26827W        W95232  30.019  23.272   3.284
26828W        W95233  18.042  37.531   0.862
26829W        W95234  37.345  34.205   0.473
26830W        W95235  28.230   9.109   1.211
26831W        W95236   6.174  32.614  12.581
26832W        W95237  41.142   4.141  11.921
26833W        W95238   8.281   4.876  10.759
26834W        W95239  40.570   5.321   1.718
26835W        W95240  42.717  16.670   1.336
26836W        W95241  15.079  31.482   0.475
26837W        W95242  38.714  25.963   2.422
26838W        W95243  27.429  43.517  13.445
26839W        W95244  22.477  33.971   1.496
26840W        W95245  43.900  38.380  11.802
26841W        W95246   5.758  29.434  10.733
26842W        W95247  29.266  41.327   2.857
26843W        W95248  19.465  36.136  12.035
26844W        W95249   3.455  22.567   2.393
26845W        W95250  32.627  25.108  11.970
26846W        W95251   6.834   5.463  13.670
26847W        W95252  29.372  16.623   3.829
26848W        W95253  23.306   3.777  10.622
26849W        W95254  11.083   3.380   4.187
26850W        W95255  31.122   2.131  10.610
26851W        W95256  15.784   1.361  12.901
26852W        W95257   6.807  16.281   3.268
26853W        W95258   5.690  37.022   4.367
26854W        W95259  21.668  32.519   0.939
26855W        W95260  30.376  14.715  13.728
26856W        W95261  30.207  30.689  11.535
26857W        W95262   6.727   2.773  10.628
26858W        W95263  21.542  20.842  12.545
26859W        W95264  36.419  39.479   2.635
26860W        W95265  17.742  34.254   3.220
26861W        W95266  18.295  11.694  14.921
26862W        W95267  23.190  39.965  14.643
26863W        W95268  24.500   3.695   1.837
26864W        W95269  41.593  20.045  13.508
26865W        W95270   4.315   5.275   3.866
26866W        W95271  32.920  44.027  12.638
26867W        W95272  17.045   0.724   0.914
26868W        W95273  38.210  18.463  13.155
26869W        W95274   2.678   1.329   2.153
26870W        W95275  24.568  35.433   2.334
26871W        W95276  31.024  23.115  12.627
26872W        W95277   0.817  43.005  14.388
26873W        W95278  36.241  25.617  11.071
26874W        W95279  17.595  43.488   2.373
26875W        W95280  42.902  43.483   4.555
26876W        W95281   6.457  28.616  13.136
26877W        W95282  11.240  28.470   4.116
26878W        W95283  42.300   0.303  13.743
26879W        W95284  19.177  35.577   2.439
26880W        W95285  11.751  34.635   0.245
26881W        W95286  39.983   9.229   1.978
26882W        W95287  19.035  12.199  14.408
26883W        W95288  35.182   7.254   2.651
26884W        W95289  26.658   7.475   4.136
26885W        W95290  38.180  43.459   3.565
26886W        W95291  17.141  20.885  13.449
26887W        W95292  12.255  15.667   2.849
26888W        W95293   9.684  34.861  11.490
26889W        W95294  17.240  32.599  14.729
26890W        W95295   3.815  23.582  13.538
26891W        W95296   7.121   6.457  12.987
26892W        W95297  33.669  10.903   3.307
26893W        W95298   2.666  14.937   2.724
26894W        W95299  15.286  40.459   3.950
26895W        W95300   6.994  20.028  11.936
26896W        W95301  41.137  25.103   0.702
26897W        W95302  38.881  43.896  10.749
26898W        W95303  40.217  44.120   4.154
26899W        W95304  40.542  31.230   1.391
26900W        W95305  24.673  12.275   0.403
26901W        W95306  14.198  19.696   3.897
26902W        W95307   1.373  13.265   4.822
26903W        W95308  12.643  29.104  11.596
26904W        W95309  15.214  31.391   1.489
26905W        W95310   8.397  43.333  11.636
26906W        W95311  32.993   3.991  14.357
26907W        W95312  17.678  40.426   4.377
26908W        W95313  16.100  20.624   2.318
26909W        W95314  24.969  16.064  14.993
26910W        W95315   8.158  25.030   3.636
26911W        W95316  38.816  20.098   3.835
26912W        W95317   9.487  16.352  11.215
26913W        W95318  26.651   6.641   3.278
26914W        W95319  16.279  31.152   0.288
26915W        W95320  34.166   6.857  11.220
26916W        W95321  26.869  15.680  13.530
26917W        W95322   0.437  25.278   2.836
26918W        W95323   1.800  32.576   1.950
26919W        W95324   8.750   6.332   3.050
26920W        W95325  40.778   1.304   1.843
26921W        W95326  29.530  34.138   3.158
26922W        W95327  30.515   2.473  14.295
26923W        W95328   9.984  18.704   0.769
26924W        W95329  22.244  44.937   2.853
26925W        W95330  41.330  10.370   0.436
26926W        W95331  16.775  43.326   1.939
26927W        W95332  30.521  10.660   2.725
26928W        W95333   1.747  18.194   2.743
26929W        W95334  39.430  39.016  10.261
26930W        W95335  10.865   0.281   4.540
26931W        W95336   7.756   7.908  13.827
26932W        W95337   1.266   5.352  14.472
26933W        W95338  17.778  12.409   3.295
26934W        W95339   0.225  20.130   3.208
26935W        W95340  24.201  23.480  12.998
26936W        W95341  15.599  35.665  13.941
26937W        W95342  12.740  38.091  11.058
26938W        W95343  21.217  23.111  13.057
26939W        W95344   5.916  41.433  12.984
26940W        W95345  11.925  23.003   1.236
26941W        W95346  22.134  20.269  10.590
26942W        W95347  42.473  18.799  13.347
26943W        W95348   8.202  27.374   4.110
26944W        W95349  16.053  18.036  12.577
26945W        W95350  12.578   1.047  11.633
26946W        W95351  30.650  29.184  14.120
26947W        W95352  41.526  40.467  12.962
26948W        W95353  41.949  10.512  14.191
26949W        W95354  17.603  36.096   2.846
26950W        W95355  20.416  29.347  14.049
26951W        W95356   7.814   3.204   0.454
26952W        W95357  31.471  43.310  12.893
26953W        W95358  41.840  13.615  13.681
26954W        W95359  32.993   1.291   3.891
26955W        W95360  43.438  23.689  14.372
26956W        W95361  33.879  22.748   3.202
26957W        W95362  37.853   5.235   1.876
26958W        W95363  27.429  14.114  14.000
26959W        W95364   8.031   2.565  10.810
26960W        W95365  16.999  29.474  14.771
26961W        W95366  13.714   4.296  10.279
26962W        W95367  25.309   8.806   2.861
26963W        W95368  20.114  36.121  14.479
26964W        W95369  35.681  18.748  13.369
26965W        W95370  13.581  15.710   2.123
26966W        W95371  44.304  34.074   1.013
26967W        W95372  43.168  34.286   3.254
26968W        W95373   2.258  24.087  12.093
26969W        W95374   8.433  31.995  14.023
26970W        W95375  28.876  38.848   0.787
26971W        W95376  29.597  31.812   2.479
26972W        W95377   2.313   0.759   4.538
26973W        W95378  39.735   9.212   1.498
26974W        W95379  13.111   0.464  11.404
26975W        W95380  29.625  32.042   0.429
26976W        W95381  40.614  12.637  12.431
26977W        W95382  20.324  18.766   2.653
26978W        W95383  44.020  32.091   1.818
26979W        W95384  37.614  27.869   0.379
26980W        W95385  42.388  29.931  14.107
26981W        W95386  38.497  43.749  13.041
26982W        W95387  23.128  41.355  10.954
26983W        W95388  41.762  26.539  10.393
26984W        W95389  39.028   1.419  13.838
26985W        W95390  20.688  37.440  10.972
26986W        W95391  36.678  41.416   2.255
26987W        W95392  25.169  29.853   2.841
26988W        W95393  10.928  37.153   0.315
26989W        W95394   5.728   0.923   1.697
26990W        W95395   2.884   5.596  12.405
26991W        W95396  21.204  24.208   4.267
26992W        W95397  33.067  14.763  10.768
26993W        W95398  13.354  36.017   4.037
26994W        W95399   6.372  28.289   3.334
26995W        W95400   6.390  36.911   2.457
26996W        W95401  35.545  31.548  13.466
26997W        W95402   8.212  36.570  10.814
26998W        W95403  33.574  10.544  11.882
26999W        W95404   9.635  20.625   3.288
27000W        W95405  34.324  39.598   0.986
27001W        W95406  18.173  18.633  11.520
27002W        W95407  31.649  25.716  14.535
27003W        W95408   4.873  42.817  11.649
27004W        W95409  31.359  17.064  13.088
27005W        W95410  30.927  28.436  10.701
27006W        W95411  14.163  19.050   1.953
27007W        W95412  26.869   2.865  11.748
27008W        W95413  33.631  29.674  11.102
27009W        W95414  23.398  34.828   4.159
27010W        W95415  38.411  37.419  10.435
27011W        W95416  25.511   4.375  12.827
27012W        W95417  29.115  36.494  10.628
27013W        W95418  22.132   3.257  13.785
27014W        W95419  16.228  40.527  10.653
27015W        W95420   6.271   8.172   2.326
27016W        W95421  19.132  35.046   3.456
27017W        W95422  40.818  14.856   0.770
27018W        W95423   1.545  35.601  11.663
27019W        W95424   9.590  10.103   3.292
27020W        W95425  29.501  44.846   4.046
27021W        W95426  40.730  36.354   4.318
27022W        W95427  31.966  22.281  13.079
27023W        W95428  18.479  41.263  14.407
27024W        W95429  14.576  39.385   3.255
27025W        W95430  23.063  42.818   2.311
27026W        W95431  21.665   3.688  12.527
27027W        W95432   9.296   2.659   3.158
27028W        W95433   8.908  37.071  11.622
27029W        W95434  24.502  18.855  12.979
27030W        W95435  31.454   8.102  11.142
27031W        W95436  13.579  38.310  13.076
27032W        W95437   4.086  11.733   4.664
27033W        W95438  38.641  13.880  11.987
27034W        W95439  14.124  33.020   0.106
27035W        W95440   8.727  27.425   3.593
27036W        W95441  42.407   6.201  13.489
27037W        W95442  39.721  39.242   2.743
27038W        W95443  18.794   2.768   3.260
27039W        W95444   3.431  42.720  13.636
27040W        W95445  34.076  16.531  11.597
27041W        W95446  22.728   8.758  10.974
27042W        W95447  38.439  24.997  12.972
27043W        W95448  41.748  16.107  12.644
27044W        W95449  28.148  40.025  11.954
27045W        W95450   5.215  41.011  14.427
27046W        W95451   3.066  38.568   5.055
27047W        W95452  17.488  17.832   0.224
27048W        W95453   4.984   4.278   0.716
27049W        W95454  38.587  28.500   2.287
27050W        W95455  28.947  40.115  14.500
27051W        W95456  16.476  22.920   2.372
27052W        W95457  15.726  43.882  11.791
27053W        W95458  35.324  33.630  12.534
27054W        W95459   8.673  11.675   4.402
27055W        W95460  37.568   3.517   5.447
27056W        W95461  40.813   2.504  14.926
27057W        W95462  23.217   5.479   0.191
27058W        W95463  20.371  17.280   1.889
27059W        W95464   2.411  39.364   0.300
27060W        W95465  29.406  39.772   2.379
27061W        W95466  41.558  13.767   4.053
27062W        W95467   2.841  44.420  10.733
27063W        W95468  32.074  32.718   4.067
27064W        W95469  43.680  26.550   0.375
27065W        W95470  28.743  24.439  12.896
27066W        W95471  41.095  24.566  13.412
27067W        W95472   2.999   2.293   0.968
27068W        W95473  43.132   3.891   0.396
27069W        W95474  18.608  43.929   4.541
27070W        W95475  40.319  12.629   1.326
27071W        W95476   2.289  37.567  13.788
27072W        W95477  42.363   9.237   4.319
27073W        W95478   8.035   5.635   3.348
27074W        W95479  26.899  24.717   4.306
27075W        W95480   3.413  42.904  14.579
27076W        W95481   0.342  25.041   1.194
27077W        W95482  32.123  21.312  12.891
27078W        W95483  32.059  32.199   4.039
27079W        W95484  37.109   3.851   1.860
27080W        W95485  43.732  29.733  11.176
27081W        W95486  31.088  39.785   0.888
27082W        W95487  11.900  17.607   0.241
27083W        W95488  35.006  35.349  12.818
27084W        W95489   2.413  28.519  13.321
27085W        W95490  11.253  31.779   2.755
27086W        W95491  24.466  22.275   0.868
27087W        W95492   7.357  40.029   3.267
27088W        W95493  39.537  31.194  13.426
27089W        W95494  44.311  25.713   2.350
27090W        W95495  37.176  12.802  14.053
27091W        W95496  22.202  34.083  11.179
27092W        W95497   8.665  39.009   0.318
27093W        W95498  30.378  10.578  13.433
27094W        W95499  40.778  11.616  14.586
27095W        W95500  36.036  14.013  12.847
27096W        W95501  21.199  38.627  12.239
27097W        W95502  11.097  24.795   1.073
27098W        W95503  29.173   7.419   1.410
27099W        W95504  10.968  28.035   2.137
27100W        W95505  17.290   0.228   0.359
27101W        W95506  39.601  26.124  10.827
27102W        W95507  37.944  40.981  12.658
27103W        W95508   7.297  15.470   1.982
27104W        W95509   3.460   3.895  13.581
27105W        W95510  40.059  16.050  12.628
27106W        W95511  22.509  40.852   2.795
27107W        W95512  12.437  30.338  13.482
27108W        W95513  21.918  38.534  12.008
27109W        W95514  35.814  35.013   3.087
27110W        W95515  23.728  22.125   2.452
27111W        W95516  17.336  25.725  11.138
27112W        W95517  29.132  12.244   2.202
27113W        W95518  24.691  23.150   4.283
27114W        W95519  44.658  32.546   3.673
27115W        W95520  11.852   7.276  14.110
27116W        W95521  24.983  37.568   2.728
27117W        W95522  44.531  22.258   2.177
27118W        W95523   5.979  38.823  14.904
27119W        W95524  35.889  38.362  12.946
27120W        W95525  25.631  10.825   1.274
27121W        W95526  32.573  15.785  14.782
27122W        W95527  11.079  21.615  14.301
27123W        W95528  42.265  12.674   1.180
27124W        W95529  39.865  38.970  11.317
27125W        W95530  37.851  20.997   1.664
27126W        W95531  16.594  18.893  11.535
27127W        W95532   3.995   2.000   0.810
27128W        W95533  31.798  40.593  13.829
27129W        W95534   1.832  24.653  10.825
27130W        W95535  22.655   0.310   1.281
27131W        W95536  30.493  24.394  13.892
27132W        W95537   7.479  29.611   2.315
27133W        W95538  37.935  31.677  14.382
27134W        W95539  13.838  14.184   0.430
27135W        W95540  27.685  29.154  14.961
27136W        W95541  44.457  38.500   1.860
27137W        W95542   9.634  37.408  11.331
27138W        W95543  38.076  20.995   0.814
27139W        W95544  40.791  35.580   2.771
27140W        W95545  40.265   0.732  11.591
27141W        W95546   3.836  19.583   9.863
27142W        W95547  24.089  27.149   0.890
27143W        W95548  23.753   6.333   0.273
27144W        W95549  26.687  25.812  11.130
27145W        W95550   5.375  25.904  12.427
27146W        W95551  18.853  31.088   2.836
27147W        W95552   1.996   3.248  10.249
27148W        W95553  24.740  35.463  13.932
27149W        W95554  33.004  29.677  13.739
27150W        W95555  18.746   4.212   4.495
27151W        W95556   9.683  26.498  13.629
27152W        W95557  44.110  16.130   1.304
27153W        W95558  15.909  32.933  13.851
27154W        W95559  17.611  33.572   0.048
27155W        W95560  36.631  25.018  12.446
27156W        W95561   3.478   1.820   2.646
27157W        W95562   2.848  10.154   3.787
27158W        W95563  30.985  41.004   4.150
27159W        W95564  35.865  12.198   2.632
27160W        W95565  38.380  40.331   3.276
27161W        W95566  41.063  36.580  14.368
27162W        W95567  14.186  38.107  14.843
27163W        W95568  16.577  16.806  11.606
27164W        W95569  35.941  22.533  11.958
27165W        W95570  32.388   4.310  13.582
27166W        W95571  20.331   4.891   0.718
27167W        W95572  44.696  28.586  14.809
27168W        W95573  32.172  17.996   4.187
27169W        W95574   3.771  23.746  10.187
27170W        W95575  44.490  17.059   1.821
27171W        W95576  13.849  24.353  13.024
27172W        W95577  14.492  43.519  13.372
27173W        W95578  35.682  37.222   0.960
27174W        W95579  16.162   2.799  11.119
27175W        W95580  16.256  10.119   2.305
27176W        W95581  21.044  32.390  12.585
27177W        W95582  14.240  24.244   1.817
27178W        W95583  25.214  18.536  10.752
27179W        W95584  20.746  30.924   1.222
27180W        W95585   2.864  17.714   2.424
27181W        W95586  44.817  43.695   1.496
27182W        W95587  26.946  28.466  14.848
27183W        W95588  38.145  41.981  10.845
27184W        W95589  10.774   0.812  12.994
27185W        W95590  25.720  21.046   1.380
27186W        W95591  21.839  42.994  12.144
27187W        W95592  27.972   8.599   3.290
27188W        W95593  22.236  38.865   1.917
27189W        W95594  36.316   3.833   9.795
27190W        W95595  32.912  44.925   1.984
27191W        W95596  37.500   8.715  11.505
27192W        W95597   2.274  12.261  13.099
27193W        W95598  31.873  29.154  13.221
27194W        W95599  10.601  26.458   1.235
27195W        W95600   7.309  36.388   3.692
27196W        W95601  32.492  11.256  10.559
27197W        W95602   4.684  40.815   1.689
27198W        W95603  17.775  11.107  11.852
27199W        W95604  14.672   5.733  11.242
27200W        W95605  19.745  43.948  10.477
27201W        W95606  19.583  28.838  12.420
27202W        W95607  42.687   3.633   4.019
27203W        W95608  27.163  39.526   0.848
27204W        W95609  44.810   3.506   2.374
27205W        W95610   7.086  11.428   1.319
27206W        W95611  31.498  34.321   4.493
27207W        W95612  19.290  33.523  13.916
27208W        W95613  43.400  16.716  14.844
27209W        W95614  11.116   4.902  12.126
27210W        W95615   6.993  29.322   3.608
27211W        W95616  38.470  39.006  11.249
27212W        W95617  23.806  44.314  10.741
27213W        W95618  40.181  33.834  13.027
27214W        W95619   5.693  28.135   0.903
27215W        W95620  40.734   5.397  13.990
27216W        W95621  26.206  28.623  11.719
27217W        W95622  42.704  19.663  13.336
27218W        W95623  17.946  16.872   3.425
27219W        W95624   8.730  25.798   0.795
27220W        W95625  14.662  17.714  12.933
27221W        W95626  36.544  14.974  12.862
27222W        W95627  26.755  33.088  11.197
27223W        W95628  36.131  26.134  11.072
27224W        W95629  41.412  16.821  13.827
27225W        W95630   6.503  12.247   1.918
27226W        W95631  17.034  38.122   3.666
27227W        W95632   7.828  23.119   2.365
27228W        W95633   4.239   5.210   0.401
27229W        W95634  35.492  32.330  13.041
27230W        W95635   6.842  27.804  14.760
27231W        W95636  40.257  18.038  12.462
27232W        W95637  28.910  28.412  10.820
27233W        W95638  14.069   7.757   4.219
27234W        W95639   0.829  35.220  12.782
27235W        W95640   3.599  31.366  13.008
27236W        W95641   5.794  42.788   0.598
27237W        W95642  15.623  36.745   5.512
27238W        W95643   7.296   0.618  10.620
27239W        W95644  31.860  40.360  14.291
27240W        W95645  22.586   3.060   3.594
27241W        W95646  34.430  32.036   1.717
27242W        W95647  38.334  15.483  10.988
27243W        W95648  30.967  36.589  12.125
27244W        W95649  13.427  37.489  14.592
27245W        W95650   7.212   1.893   0.013
27246W        W95651  33.151  25.958  11.690
27247W        W95652  40.772  26.611  10.816
27248W        W95653  41.804  40.896   4.712
27249W        W95654   5.938  18.203   1.332
27250W        W95655  33.356  36.046  11.721
27251W        W95656  34.287   9.382  12.559
27252W        W95657  26.916  22.822   0.656
27253W        W95658  14.255   0.461  12.038
27254W        W95659  42.840  17.577  11.591
27255W        W95660  37.309  30.579  12.646
27256W        W95661  24.505  27.506   2.834
27257W        W95662  18.305  12.682   0.598
27258W        W95663   4.966  25.651  11.189
27259W        W95664  11.633  36.388   3.583
27260W        W95665  28.182  37.507  10.043
27261W        W95666  14.200  40.448  14.326
27262W        W95667   5.079  37.081   2.340
27263W        W95668   2.979  35.010   2.735
27264W        W95669   2.774   2.450   4.799
27265W        W95670  28.609  19.058  11.163
27266W        W95671  23.649   8.671   4.718
27267W        W95672  12.213  34.017  13.858
27268W        W95673  36.008  26.990  11.339
27269W        W95674  43.514  21.249  11.538
27270W        W95675   6.399  42.593  10.956
27271W        W95676  13.495   4.261   5.078
27272W        W95677   7.400   8.257   3.556
27273W        W95678  32.501  11.537  12.153
27274W        W95679  25.036   2.373  14.748
27275W        W95680   0.324  25.446   2.359
27276W        W95681  10.064  27.936   4.131
27277W        W95682   2.631  34.279  11.618
27278W        W95683  41.832  25.949  14.437
27279W        W95684  30.455   8.064   0.970
27280W        W95685   8.684   0.924   4.986
27281W        W95686  41.097  44.241  12.288
27282W        W95687   6.622   5.977   0.697
27283W        W95688  42.405  20.956   4.774
27284W        W95689  28.851  22.037  14.977
27285W        W95690  30.871  40.383   5.410
27286W        W95691  35.548  38.168  14.913
27287W        W95692  41.930  19.550   4.382
27288W        W95693  11.921   8.241   0.258
27289W        W95694  13.724   2.239   0.076
27290W        W95695  22.976  25.431  13.567
27291W        W95696   4.629   4.398  14.415
27292W        W95697  26.912  43.506  12.060
27293W        W95698  28.733  13.158   0.925
27294W        W95699  44.530  27.409  12.936
27295W        W95700  39.494  11.349  13.801
27296W        W95701  19.232  16.164   3.083
27297W        W95702  27.897   9.324  12.724
27298W        W95703  27.423  20.601  12.549
27299W        W95704  37.402  29.123   3.649
27300W        W95705  41.941  19.357   1.858
27301W        W95706   2.896  32.890   4.705
27302W        W95707  26.517  13.324  14.460
27303W        W95708  24.545  19.480  13.506
27304W        W95709   7.704  32.455   2.559
27305W        W95710  36.428  30.459  12.597
27306W        W95711  25.746  38.422   0.693
27307W        W95712  13.108  12.777   2.639
27308W        W95713   6.662   6.842   0.772
27309W        W95714   0.224  33.401   1.894
27310W        W95715  25.565   6.254  11.590
27311W        W95716  16.773  19.784  11.360
27312W        W95717  17.778  19.936  12.518
27313W        W95718  39.797   5.472  13.992
27314W        W95719  32.078  30.303  12.720
27315W        W95720   4.783  22.556   4.551
27316W        W95721   8.821  32.527   3.854
27317W        W95722   6.977  15.069   2.858
27318W        W95723  16.802  27.922  11.656
27319W        W95724  11.604   2.987  12.641
27320W        W95725  42.798   8.345   1.457
27321W        W95726   6.052  31.245   2.147
27322W        W95727  22.608  11.365   2.167
27323W        W95728   3.892  13.627  13.077
27324W        W95729  31.835   4.244   3.290
27325W        W95730  31.915  41.325   5.053
27326W        W95731  38.043  18.685  13.613
27327W        W95732   0.166  44.939   2.265
27328W        W95733  37.521  20.795   0.723
27329W        W95734  26.989   4.252  13.080
27330W        W95735  12.123  37.357  13.396
27331W        W95736  27.409  16.809  13.468
27332W        W95737  12.597   4.827   0.836
27333W        W95738  21.925   6.870  11.953
27334W        W95739  16.539  44.853  10.625
27335W        W95740   8.874  35.097   1.369
27336W        W95741  18.184  22.608   0.735
27337W        W95742  34.439  28.984   3.679
27338W        W95743  11.804  12.056  11.509
27339W        W95744  12.184  20.084   1.639
27340W        W95745  19.609  13.510  10.504
27341W        W95746  10.300  23.163  13.425
27342W        W95747  40.071   2.697   4.098
27343W        W95748  19.278  30.133  14.296
27344W        W95749   3.688  43.729  12.645
27345W        W95750   3.541  18.781  13.652
27346W        W95751  29.712  11.679   5.124
27347W        W95752  22.084  11.844   4.710
27348W        W95753  37.281  27.458   4.161
27349W        W95754  27.608  27.192   4.063
27350W        W95755  40.356  30.145  13.056
27351W        W95756   8.304  29.432   1.030
27352W        W95757   3.008  28.520   4.801
27353W        W95758  24.979   1.405   3.972
27354W        W95759  11.295   3.467  10.714
27355W        W95760   5.238  31.361  14.739
27356W        W95761   6.999  12.276  12.981
27357W        W95762  17.773  44.217   4.115
27358W        W95763   5.179  33.927  10.526
27359W        W95764   2.564  41.807   4.885
27360W        W95765  17.675  20.546   9.821
27361W        W95766   6.215  20.835   4.211
27362W        W95767  19.572  37.031  10.815
27363W        W95768  42.048   8.553  12.015
27364W        W95769  24.191   5.230  12.981
27365W        W95770  34.115  41.125  11.949
27366W        W95771  25.688  18.532   2.848
27367W        W95772  34.083  11.421  14.106
27368W        W95773  38.934  21.677  12.582
27369W        W95774   6.231   9.638   2.332
27370W        W95775  20.661  36.282  11.287
27371W        W95776  30.916  35.130  12.110
27372W        W95777  38.451  12.174   1.425
27373W        W95778  12.568  12.103   0.415
27374W        W95779  15.549  13.124   2.745
27375W        W95780  24.952  13.200  13.828
27376W        W95781  16.822  13.973  11.474
27377W        W95782  32.222  15.173  13.358
27378W        W95783  16.587  13.787  13.533
27379W        W95784   7.807   0.257   0.938
27380W        W95785  40.453  27.597  12.890
27381W        W95786   7.858  23.214   0.376
27382W        W95787  11.238  25.716  11.074
27383W        W95788  38.218  23.126   4.573
27384W        W95789  24.185   6.760   1.959
27385W        W95790  38.940  31.702   3.194
27386W        W95791  11.132   3.977  13.005
27387W        W95792  34.039  27.412  13.566
27388W        W95793  19.137  10.938   1.674
27389W        W95794  30.889  11.683   4.875
27390W        W95795  24.682  19.982   2.124
27391W        W95796  41.145  29.593   2.694
27392W        W95797  11.702  22.634   0.451
27393W        W95798  19.517  11.409   4.275
27394W        W95799  36.024   9.138  14.884
27395W        W95800  42.337  13.900  14.295
27396W        W95801  33.210  20.751  13.840
27397W        W95802   6.796  31.203   3.027
27398W        W95803  22.139  26.703  12.836
27399W        W95804  34.003  11.826  12.068
27400W        W95805  18.036  12.606  11.558
27401W        W95806  32.345  41.002  13.503
27402W        W95807   9.843  21.642  10.624
27403W        W95808  41.898  32.382  13.012
27404W        W95809  41.504   1.849   3.612
27405W        W95810  37.979  44.904  11.316
27406W        W95811   6.888  26.246  14.957
27407W        W95812  34.452  10.260   3.116
27408W        W95813  10.899  18.658   4.194
27409W        W95814   5.815  42.163   4.284
27410W        W95815  40.057  15.884  14.472
27411W        W95816  38.294   9.900  13.527
27412W        W95817  11.701   1.764   1.386
27413W        W95818   6.327  11.416  10.700
27414W        W95819  27.924  32.650   0.756
27415W        W95820  21.007  22.054   4.515
27416W        W95821   7.463  20.841   4.651
27417W        W95822  12.635  32.857  11.467
27418W        W95823  18.672  36.080   1.869
27419W        W95824   0.758  36.044   4.266
27420W        W95825  30.214  28.860   3.049
27421W        W95826  21.958   0.174   4.535
27422W        W95827   9.837  39.428   0.674
27423W        W95828   4.989  35.637   3.794
27424W        W95829  30.671   0.491   0.921
27425W        W95830  43.006  14.562   3.453
27426W        W95831  37.616   7.866   2.357
27427W        W95832  17.413   0.929   3.716
27428W        W95833  23.754  13.825  11.515
27429W        W95834  16.312  34.356  12.978
27430W        W95835  43.254  22.261  13.130
27431W        W95836  37.134  20.229   1.872
27432W        W95837   7.170  43.280   2.728
27433W        W95838  29.746   5.744   2.401
27434W        W95839  33.702  18.114  11.268
27435W        W95840   4.712   0.288   1.337
27436W        W95841   5.848  23.391   1.341
27437W        W95842  33.685  32.945  10.875
27438W        W95843  13.308  18.935  11.904
27439W        W95844  37.691   8.990  13.302
27440W        W95845  30.434   2.957  13.404
27441W        W95846  10.986   9.343  13.513
27442W        W95847  19.557  35.231   3.221
27443W        W95848  31.705  26.942  10.974
27444W        W95849   3.732  35.540  10.912
27445W        W95850  27.721  22.796   0.439
27446W        W95851  33.921  34.733   0.365
27447W        W95852   3.790  17.932   2.256
27448W        W95853  19.721   0.382  12.528
27449W        W95854   0.486  43.491   4.658
27450W        W95855  19.584  38.759   2.477
27451W        W95856   8.080  30.394  14.505
27452W        W95857   7.215  43.276  10.592
27453W        W95858   6.284  11.935   3.562
27454W        W95859  39.958  20.217   0.469
27455W        W95860  28.209   9.912  14.404
27456W        W95861  23.089  26.461   3.965
27457W        W95862   2.851  26.902  13.108
27458W        W95863  23.009  27.385  11.507
27459W        W95864  24.544  15.103   1.878
27460W        W95865  37.439  15.888  10.980
27461W        W95866   5.854  11.540   3.381
27462W        W95867   4.352  23.157   0.274
27463W        W95868  12.374   9.929   4.153
27464W        W95869  33.011  15.498  12.944
27465W        W95870  37.079  14.326   2.230
27466W        W95871  27.982  32.488   4.084
27467W        W95872  16.384  38.580   4.384
27468W        W95873  16.758  13.002  13.580
27469W        W95874  18.182   2.145  10.892
27470W        W95875  28.624   4.618  13.900
27471W        W95876  36.768  10.219  13.340
27472W        W95877  31.338  33.505   3.660
27473W        W95878  25.106  13.870  11.133
27474W        W95879  21.337  40.260   3.691
27475W        W95880   5.292  43.915  10.540
27476W        W95881  43.245  35.990   0.022
27477W        W95882  35.977  35.109  13.027
27478W        W95883  38.026  36.909   2.208
27479W        W95884  34.147  43.626  13.436
27480W        W95885  19.126   7.863  11.679
27481W        W95886  11.740   6.627   2.662
27482W        W95887  42.057  43.898  14.507
27483W        W95888  42.996  17.294  14.862
27484W        W95889  44.025  13.589  13.880
27485W        W95890  23.496  14.566  10.682
27486W        W95891  43.759  22.613   3.344
27487W        W95892  44.724  37.334   4.243
27488W        W95893  34.016   3.415   4.614
27489W        W95894  20.911  44.456  11.477
27490W        W95895  16.385  10.118   4.127
27491W        W95896   4.446  44.025   3.131
27492W        W95897  14.233  20.285   0.888
27493W        W95898  12.317  39.428  14.181
27494W        W95899   5.820   1.747   4.985
27495W        W95900  17.288  30.771  11.917
27496W        W95901  14.605  18.784  13.811
27497W        W95902  25.203  21.947  10.758
27498W        W95903   5.632   9.218   2.921
27499W        W95904   1.737  21.953   2.492
27500W        W95905  38.018  44.178   2.443
27501W        W95906   0.818  12.535  12.656
27502W        W95907  29.715  34.533   4.619
27503W        W95908  10.825  44.949   4.141
27504W        W95909  30.110  36.865   1.090
27505W        W95910   8.336  16.176  11.678
27506W        W95911  24.041   4.870  12.043
27507W        W95912  41.467  12.285   4.478
27508W        W95913  22.496  20.733   3.134
27509W        W95914  33.932  28.283   1.716
27510W        W95915  44.387  21.350  12.603
27511W        W95916  13.910  37.145  12.444
27512W        W95917  18.742  14.660  12.999
27513W        W95918  12.736  39.054  14.812
27514W        W95919  39.384  11.216   0.870
27515W        W95920   3.392  23.156  13.898
27516W        W95921  33.960  13.713   3.752
27517W        W95922   8.777  42.778   0.043
27518W        W95923   4.269  39.985   0.249
27519W        W95924  34.529  17.104   1.399
27520W        W95925  22.969  20.736  11.326
27521W        W95926  15.618  10.331  10.626
27522W        W95927  31.564  44.553   4.622
27523W        W95928  41.361  27.983  10.969
27524W        W95929  37.757  31.853   4.639
27525W        W95930  12.113  42.831  10.157
27526W        W95931  21.626  13.642   3.713
27527W        W95932  26.569  24.310   5.150
27528W        W95933   3.211  24.624   3.187
27529W        W95934  17.285  44.328  10.563
27530W        W95935  32.105   9.346   0.921
27531W        W95936  44.524   8.695   1.714
27532W        W95937  10.628  44.950   3.678
27533W        W95938  17.253  44.874   0.726
27534W        W95939  40.879  30.191   0.084
27535W        W95940   4.384  36.534  12.142
27536W        W95941  21.133  19.547   1.303
27537W        W95942  32.452  19.092   1.194
27538W        W95943  31.544  18.855  12.361
27539W        W95944  21.927  36.865  12.031
27540W        W95945  19.763   7.573   3.715
27541W        W95946  12.423  18.210   1.224
27542W        W95947  18.657   9.411   3.599
27543W        W95948  43.993  17.591  12.440
27544W        W95949  20.593  37.131   3.085
27545W        W95950  28.065  21.245  11.061
27546W        W95951  40.030  35.660   0.076
27547W        W95952  42.846  37.501   1.449
27548W        W95953   9.033   8.957   0.937
27549W        W95954  27.621  28.888  10.550
27550W        W95955   3.831  37.750   0.280
27551W        W95956  13.123  12.181  11.033
27552W        W95957  18.460  39.001  10.326
27553W        W95958  14.118  24.635  10.496
27554W        W95959  30.998   3.869   3.174
27555W        W95960  15.115  21.084   4.590
27556W        W95961  26.337  20.641   0.469
27557W        W95962  23.243  25.154  11.374
27558W        W95963   3.618   1.793  11.095
27559W        W95964  10.609  10.423   1.651
27560W        W95965  19.893  35.117   5.082
27561W        W95966  34.018  26.367   4.172
27562W        W95967  37.425   2.730  11.926
27563W        W95968  39.477   0.891  10.526
27564W        W95969  13.613  44.529  11.096
27565W        W95970  20.492  41.510  14.162
27566W        W95971  28.550  10.048  12.722
27567W        W95972  12.757  33.483   2.615
27568W        W95973  20.159  27.836  13.878
27569W        W95974  20.245  28.075   1.843
27570W        W95975   5.465  17.807   3.077
27571W        W95976   0.340  20.665  13.866
27572W        W95977  31.667  31.351   4.562
27573W        W95978  20.726   2.730  12.863
27574W        W95979   5.906  24.461   4.685
27575W        W95980  18.495  30.173  11.798
27576W        W95981  14.640  23.046  13.983
27577W        W95982  20.782  40.621   0.872
27578W        W95983  40.636  24.518   0.220
27579W        W95984  23.448  12.861  12.996
27580W        W95985   3.250   9.742  13.077
27581W        W95986  24.853  26.019  14.430
27582W        W95987  11.058  31.066   3.300
27583W        W95988   9.789  10.227  10.641
27584W        W95989  33.886  13.672   1.630
27585W        W95990   6.560  22.958  14.559
27586W        W95991  36.569  19.195   2.632
27587W        W95992  37.999  42.410  13.475
27588W        W95993  43.218  32.728  12.360
27589W        W95994  12.220  22.548  10.395
27590W        W95995  20.999  10.909   3.671
27591W        W95996   6.473  37.875  10.825
27592W        W95997  43.464   6.295  14.128
27593W        W95998   5.683  27.595  11.415
27594W        W95999  24.277  16.172  13.050
27595W        W96000   1.761   6.960   1.328
27596W        W96001  19.671  28.569  14.986
27597W        W96002  41.805  38.221  11.623
27598W        W96003  14.650  16.859   1.522
27599W        W96004  20.859  24.254   5.250
27600W        W96005  41.928  10.635  13.479
27601W        W96006   6.981  34.927  13.988
27602W        W96007  34.569  22.996  14.862
27603W        W96008  40.380  25.204   3.635
27604W        W96009  44.099  27.102  11.072
27605W        W96010  20.320  28.287  14.777
27606W        W96011  41.578  42.536   0.266
27607W        W96012   3.143  18.585  12.203
27608W        W96013  11.868  17.741   1.743
27609W        W96014  33.400  24.163   4.165
27610W        W96015  19.550  28.147   0.244
27611W        W96016  31.570  16.021  14.780
27612W        W96017   7.656  44.933  11.504
27613W        W96018  13.610  37.374   3.683
27614W        W96019  21.306  15.734   3.151
27615W        W96020  30.358  19.260  11.044
27616W        W96021  10.064   1.242  10.399
27617W        W96022  15.864   9.572  14.362
27618W        W96023  42.058  38.060  13.390
27619W        W96024   3.562  22.772  14.851
27620W        W96025  34.434  33.737  12.588
27621W        W96026  21.170  25.881  10.634
27622W        W96027  27.600   7.182  12.465
27623W        W96028  23.884  16.191   4.316
27624W        W96029  30.005  21.067  10.091
27625W        W96030  16.746  18.498  13.189
27626W        W96031  41.249  32.618   0.552
27627W        W96032  13.866   3.413  11.540
27628W        W96033  21.339   1.404   0.713
27629W        W96034  38.356  14.657  10.750
27630W        W96035  30.148   1.877   3.258
27631W        W96036  12.405  43.662  14.379
27632W        W96037  36.204  19.232   0.840
27633W        W96038  27.112  26.918   4.076
27634W        W96039  17.485  41.018   0.755
27635W        W96040   2.483  40.824  12.526
27636W        W96041  29.490  40.325  14.327
27637W        W96042   9.330  28.611   0.649
27638W        W96043  30.064  17.670  14.592
27639W        W96044  15.712  31.184  14.406
27640W        W96045  29.888  14.759  12.627
27641W        W96046  16.951  43.877  14.456
27642W        W96047  16.372  21.516  10.760
27643W        W96048  27.398  12.766  11.733
27644W        W96049  19.195  36.528   2.437
27645W        W96050  11.019   4.088   1.431
27646W        W96051  12.784  10.233   1.876
27647W        W96052  39.619  26.830  13.481
27648W        W96053  18.077  41.770   0.373
27649W        W96054  43.821  24.458   2.492
27650W        W96055  30.701  24.906  13.146
27651W        W96056   3.816   3.219   3.598
27652W        W96057  30.204  26.717  14.664
27653W        W96058  22.947  13.328   0.929
27654W        W96059  41.355  40.123  13.867
27655W        W96060  16.106  39.873   4.721
27656W        W96061  35.579   8.822  11.534
27657W        W96062  39.855  43.021  10.445
27658W        W96063  33.101  21.957  12.953
27659W        W96064  31.661  37.883   0.452
27660W        W96065  34.073   5.257  10.891
27661W        W96066   6.346  23.205  10.332
27662W        W96067  21.036   7.381   3.269
27663W        W96068  20.559  22.696   3.051
27664W        W96069  22.458  17.697   3.324
27665W        W96070  36.326   4.456   3.912
27666W        W96071  17.235   6.009   4.599
27667W        W96072  33.308  28.382  12.573
27668W        W96073  35.564  36.550   1.824
27669W        W96074  42.401  16.376   1.653
27670W        W96075  35.028  11.694   0.381
27671W        W96076  20.067  21.288   0.245
27672W        W96077   0.522   4.940   1.152
27673W        W96078  33.463  26.442  11.117
27674W        W96079  10.860  30.607   1.969
27675W        W96080  10.110   2.418   0.331
27676W        W96081  40.510   0.978  10.685
27677W        W96082   0.436  25.169  14.992
27678W        W96083  13.357   6.278  11.163
27679W        W96084  43.380  12.288   0.753
27680W        W96085  14.914  22.251  11.151
27681W        W96086  22.117  14.153   0.786
27682W        W96087  28.737  44.650   1.189
27683W        W96088  38.012  14.557   4.892
27684W        W96089  28.213  39.049  14.051
27685W        W96090  34.002  26.658  14.019
27686W        W96091  32.175  37.399  12.093
27687W        W96092  21.786  43.042  11.132
27688W        W96093  34.063  31.583   4.660
27689W        W96094  37.478   9.419  12.456
27690W        W96095   2.475  17.788  13.343
27691W        W96096   6.623   2.385   3.831
27692W        W96097  22.125  43.031   2.753
27693W        W96098  22.077   8.695   1.826
27694W        W96099  10.651  43.525  12.016
27695W        W96100  11.799  17.621  14.215
27696W        W96101  10.705  22.742  14.021
27697W        W96102  21.483   2.117   1.869
27698W        W96103  38.213   1.860   4.214
27699W        W96104  42.500   9.746   4.180
27700W        W96105  10.242  27.335  13.443
27701W        W96106  42.786  11.168   3.413
27702W        W96107   3.426  20.485  13.490
27703W        W96108  40.035  43.180   1.893
27704W        W96109  25.702  44.963   0.366
27705W        W96110  26.108   6.819   1.841
27706W        W96111   0.266  43.852  10.888
27707W        W96112  39.235  33.565  11.202
27708W        W96113  20.755  31.478  11.743
27709W        W96114  35.483  33.005  13.509
27710W        W96115  24.249  30.528  13.873
27711W        W96116  35.920  32.127  14.857
27712W        W96117  13.392  24.145  13.585
27713W        W96118  44.312  43.998   2.863
27714W        W96119  17.632  13.733  10.907
27715W        W96120  19.652   8.400   1.062
27716W        W96121  40.857  34.159   4.285
27717W        W96122   2.652  12.569   5.062
27718W        W96123  26.634  13.809   1.676
27719W        W96124  31.411  43.017  11.511
27720W        W96125  16.871  27.604   4.902
27721W        W96126  33.383  13.533  14.328
27722W        W96127   9.733  19.160   0.001
27723W        W96128  12.579  31.419  12.977
27724W        W96129  27.549  14.638  13.167
27725W        W96130  18.003  35.496  13.993
27726W        W96131  29.047  24.472   2.611
27727W        W96132  30.607  36.135   3.242
27728W        W96133   4.372   3.964   4.537
27729W        W96134  11.094  19.581   4.682
27730W        W96135  24.356  34.424  10.746
27731W        W96136  38.781  39.071   2.709
27732W        W96137   9.736  44.843   2.242
27733W        W96138   1.182  37.152   1.347
27734W        W96139  27.602  10.449  11.698
27735W        W96140  42.325  24.096  14.678
27736W        W96141  21.639  40.157   4.091
27737W        W96142  30.398  35.470   0.674
27738W        W96143  12.661  15.591   2.162
27739W        W96144   7.666   4.875   2.439
27740W        W96145  15.487  31.513  11.003
27741W        W96146  30.139  33.884   1.432
27742W        W96147  26.530  21.928   0.169
27743W        W96148  16.537  18.148   0.057
27744W        W96149  42.412  19.784   1.320
27745W        W96150   2.966  23.354   1.832
27746W        W96151  22.975  13.198  13.820
27747W        W96152  14.767  32.448   4.083
27748W        W96153   0.808   9.460   2.328
27749W        W96154  10.201   0.526  12.222
27750W        W96155  42.303  36.961  13.576
27751W        W96156  37.599  34.552   2.848
27752W        W96157   7.660  10.228   0.874
27753W        W96158   0.742  29.992   1.185
27754W        W96159  26.178  39.890   1.294
27755W        W96160  10.496   0.686   1.491
27756W        W96161  32.244  30.082   4.559
27757W        W96162   4.905  30.235   1.167
27758W        W96163  33.605  36.750  14.861
27759W        W96164  16.188  34.533  14.895
27760W        W96165  16.308  27.627  12.090
27761W        W96166  22.544  37.870  14.194
27762W        W96167   8.919  33.086   9.872
27763W        W96168  30.026  17.667   2.629
27764W        W96169  12.306  28.666  10.765
27765W        W96170  37.977  34.531  12.140
27766W        W96171   7.209  40.829   4.341
27767W        W96172  18.610  31.558   4.652
27768W        W96173  34.919  26.990   1.261
27769W        W96174   2.129  38.815  14.728
27770W        W96175  23.624   7.289  10.780
27771W        W96176  30.698  42.903   3.199
27772W        W96177   2.996  29.039  13.432
27773W        W96178   1.719  44.005   5.128
27774W        W96179  21.723  17.076   2.904
27775W        W96180  41.399   7.336  10.476
27776W        W96181  15.594  19.789   0.846
27777W        W96182   8.441  22.039  14.375
27778W        W96183  28.540  41.511   2.450
27779W        W96184  40.275  30.653  10.661
27780W        W96185   2.000   1.231  12.349
27781W        W96186  33.067  12.280   4.646
27782W        W96187   1.226  40.832  13.949
27783W        W96188  38.267  43.522   4.387
27784W        W96189  26.204  18.136   4.612
27785W        W96190  28.007  18.730  13.338
27786W        W96191   0.908  19.125  13.474
27787W        W96192  38.274  38.122   3.713
27788W        W96193  11.091  36.670   0.774
27789W        W96194  38.838   2.776  10.605
27790W        W96195   7.858  26.010  11.903
27791W        W96196  41.449  30.684   1.261
27792W        W96197  35.101  38.694  11.170
27793W        W96198  33.066   5.437  14.569
27794W        W96199  33.031  35.796   1.152
27795W        W96200   8.825  11.147  10.716
27796W        W96201   2.356  44.545  10.095
27797W        W96202  15.387  32.685   3.239
27798W        W96203  12.644  38.429  12.900
27799W        W96204  34.536   4.774  14.455
27800W        W96205   0.813   1.967   0.258
27801W        W96206  17.710  14.924  12.180
27802W        W96207  28.710  26.456   3.697
27803W        W96208  30.186  36.824   4.274
27804W        W96209  35.984  22.745   4.147
27805W        W96210  44.385   5.219  11.570
27806W        W96211  36.670  42.196  12.146
27807W        W96212  16.136  39.998   3.658
27808W        W96213   6.920  28.050  13.252
27809W        W96214   8.409   7.376   4.418
27810W        W96215   7.570  30.069   5.004
27811W        W96216  38.109  19.261   1.146
27812W        W96217  41.319  13.557   0.853
27813W        W96218  24.744  36.353  14.067
27814W        W96219  33.405   3.132  11.151
27815W        W96220   1.193   8.233   0.789
27816W        W96221  42.189  35.891  13.004
27817W        W96222  33.048  38.507  14.536
27818W        W96223  41.037  42.056  10.789
27819W        W96224   4.473  32.892  13.364
27820W        W96225  13.039   6.882  14.225
27821W        W96226  39.273  15.361  13.447
27822W        W96227   5.338  31.081  13.406
27823W        W96228  25.005  29.631   0.239
27824W        W96229  28.002   9.960   1.402
27825W        W96230  18.094  26.090  10.339
27826W        W96231  11.396  28.424  13.400
27827W        W96232  38.865  41.255  11.626
27828W        W96233   9.871  17.219   3.141
27829W        W96234  26.185  39.953   5.024
27830W        W96235  44.107  40.904  14.737
27831W        W96236  15.589  27.195   2.238
27832W        W96237  16.338   2.303  11.001
27833W        W96238  18.338  14.143  11.513
27834W        W96239  17.346  16.697  11.164
27835W        W96240  11.821  18.686   1.559
27836W        W96241  41.836   5.901   0.719
27837W        W96242  35.504  16.546   1.298
27838W        W96243  22.285  33.882  10.718
27839W        W96244  43.987  38.074  12.732
27840W        W96245  35.177   0.810  11.750
27841W        W96246  35.655  31.491  13.964
27842W        W96247  20.211  41.540  12.048
27843W        W96248  24.984  36.384  10.696
27844W        W96249  34.468  14.864  11.417
27845W        W96250   8.093  44.534  13.046
27846W        W96251  27.050  21.747  14.078
27847W        W96252  20.638   4.164   4.549
27848W        W96253  34.852  18.494   4.384
27849W        W96254   4.784  43.843   3.551
27850W        W96255  25.441  22.176   1.727
27851W        W96256  24.512   0.015  12.034
27852W        W96257  14.529   4.301   0.972
27853W        W96258  16.567   9.406   3.318
27854W        W96259  40.418  21.021  10.198
27855W        W96260  20.772  19.998  12.050
27856W        W96261   9.429  16.237  12.546
27857W        W96262  41.164   1.884  12.479
27858W        W96263  24.162   0.172   2.804
27859W        W96264  44.389  14.105   3.948
27860W        W96265  10.218  36.644  11.429
27861W        W96266  43.831  11.527   1.891
27862W        W96267  17.555   6.158   2.795
27863W        W96268  11.937  15.934  10.189
27864W        W96269  10.454  26.807   4.769
27865W        W96270  33.423  24.543   0.854
27866W        W96271  30.878   1.283   3.691
27867W        W96272  14.510   3.289   2.704
27868W        W96273   8.854  18.869  12.818
27869W        W96274  35.108  32.038   3.299
27870W        W96275  10.764  36.823  12.396
27871W        W96276   3.483   1.749   3.997
27872W        W96277  41.613  27.604  11.214
27873W        W96278  14.231  31.402  12.856
27874W        W96279  43.475  11.396  14.384
27875W        W96280  24.732  42.241   1.719
27876W        W96281  11.355   6.831  10.705
27877W        W96282   9.669   9.821  12.348
27878W        W96283   5.289   6.628   0.684
27879W        W96284  18.802  12.710   1.340
27880W        W96285  41.010  24.665  12.897
27881W        W96286  35.561  43.084   2.774
27882W        W96287  20.437  36.037   0.749
27883W        W96288  32.998   4.360  10.329
27884W        W96289   1.973  16.045   3.636
27885W        W96290  34.724  29.671  14.048
27886W        W96291  33.587   7.423   1.775
27887W        W96292  32.801  27.567  14.249
27888W        W96293  35.902  36.373  12.560
27889W        W96294  19.474  38.495   0.863
27890W        W96295  13.182  38.053   4.339
27891W        W96296  15.105   7.960  11.444
27892W        W96297  29.722  36.050  14.340
27893W        W96298   5.051  14.592  14.481
27894W        W96299   0.801  30.605  12.479
27895W        W96300  23.538  36.795  14.449
27896W        W96301  41.818   2.896   0.090
27897W        W96302  34.982   1.197   1.282
27898W        W96303  18.619  11.874   4.605
27899W        W96304  10.791  34.678   0.387
27900W        W96305  43.262   7.242  10.595
27901W        W96306  19.711  15.212   4.969
27902W        W96307  11.019   4.467   4.657
27903W        W96308   2.272  36.798   1.297
27904W        W96309  27.446  18.771   2.398
27905W        W96310  18.738  20.589   5.177
27906W        W96311  37.137  35.670  13.555
27907W        W96312  37.378  36.804   1.182
27908W        W96313  38.948   5.436  14.528
27909W        W96314  37.294   3.321  13.839
27910W        W96315  25.872  16.717   1.886
27911W        W96316  41.814   3.626  13.534
27912W        W96317  40.472  32.574  14.379
27913W        W96318  38.973  16.499   4.709
27914W        W96319  25.771  36.522  11.954
27915W        W96320   0.291  10.648   0.340
27916W        W96321   5.014  32.072  10.713
27917W        W96322  33.844  15.648  13.717
27918W        W96323   7.634  35.923  13.223
27919W        W96324  31.144  34.955  11.692
27920W        W96325  34.461  21.566   4.559
27921W        W96326  37.485  26.453   3.288
27922W        W96327  33.285  26.370   4.620
27923W        W96328  32.709   3.764  14.751
27924W        W96329  31.966  44.191   1.435
27925W        W96330   6.788  34.852   3.735
27926W        W96331  28.291   8.300   0.921
27927W        W96332  38.295  28.565   4.598
27928W        W96333   9.352  30.375  13.935
27929W        W96334   9.020  24.180   0.405
27930W        W96335  44.429  39.463   1.289
27931W        W96336  41.799  32.565   1.246
27932W        W96337  16.188   3.532   2.919
27933W        W96338  26.159  10.546   4.911
27934W        W96339  28.696   3.531   0.683
27935W        W96340  10.086  17.271  11.044
27936W        W96341   2.534   2.058   4.511
27937W        W96342  32.581  10.804  12.803
27938W        W96343  11.167   5.633   4.132
27939W        W96344   2.283   3.223  13.301
27940W        W96345  38.375  17.240  14.067
27941W        W96346  35.608  28.757   4.093
27942W        W96347  37.861  26.273   0.634
27943W        W96348  27.441  37.450  12.382
27944W        W96349  28.008   1.469  13.777
27945W        W96350   4.190  26.243  10.723
27946W        W96351   9.192  38.025  11.500
27947W        W96352  28.183  14.057   1.414
27948W        W96353  39.095  34.203  12.019
27949W        W96354  23.648  15.932  12.451
27950W        W96355   1.301   1.172  11.192
27951W        W96356  37.247   9.167  12.061
27952W        W96357  34.655   9.378   0.957
27953W        W96358  26.844  35.129  13.887
27954W        W96359  11.572  17.082  13.581
27955W        W96360  16.774  20.514   2.980
27956W        W96361  15.535   7.384   2.411
27957W        W96362  28.186  31.024   2.888
27958W        W96363  15.059  30.658  14.904
27959W        W96364  43.479  35.270   2.744
27960W        W96365  41.335   4.215   1.847
27961W        W96366  26.858  37.948  14.115
27962W        W96367  14.300  43.610   2.344
27963W        W96368  17.050  32.513   0.720
27964W        W96369   8.971  17.344  12.040
27965W        W96370  35.435  30.432   0.173
27966W        W96371  30.675  42.287   3.825
27967W        W96372  44.027  16.330  11.109
27968W        W96373   3.849  37.651  12.133
27969W        W96374  23.768   7.425  12.891
27970W        W96375  38.157  42.390  11.631
27971W        W96376  35.627   6.123   2.032
27972W        W96377   7.861  43.441  13.034
27973W        W96378  33.052  37.633  13.345
27974W        W96379  18.715  13.766   1.221
27975W        W96380  26.255  39.483  14.111
27976W        W96381  12.870  17.438  11.512
27977W        W96382  25.550  36.132   4.571
27978W        W96383  12.156   5.944  11.423
27979W        W96384  24.529   2.088   1.766
27980W        W96385  36.174  27.968  14.358
27981W        W96386  40.406  15.891   5.086
27982W        W96387  24.976  23.512   2.832
27983W        W96388  29.591  13.922   3.324
27984W        W96389   0.106   3.958  12.886
27985W        W96390  10.779  20.239   3.621
27986W        W96391  40.822  40.552   1.789
27987W        W96392  44.750   2.380  14.934
27988W        W96393  31.807   9.732   1.309
27989W        W96394  38.968  22.557   2.383
27990W        W96395  32.441   2.409  14.599
27991W        W96396  42.759  11.551  13.065
27992W        W96397  40.819  22.448   0.854
27993W        W96398  11.397  30.643   1.979
27994W        W96399  38.405   1.718   0.728
27995W        W96400  29.041   3.249  11.543
27996W        W96401  40.009   1.476  13.114
27997W        W96402  27.978  19.498   2.277
27998W        W96403  11.670  15.297  14.408
27999W        W96404   3.777  27.159   4.309
28000W        W96405  43.857  35.629  14.216
28001W        W96406  11.679   3.758  12.106
28002W        W96407  25.639  44.273  14.850
28003W        W96408  17.962  20.489  12.506
28004W        W96409  37.492  12.211   3.448
28005W        W96410  37.935  14.931   4.542
28006W        W96411  14.189   2.133  13.232
28007W        W96412  17.622  21.773  10.697
28008W        W96413   3.846  23.150  12.373
28009W        W96414  38.604   5.090  10.351
28010W        W96415  36.336   0.520   1.357
28011W        W96416  20.161  39.034   3.293
28012W        W96417  20.806  33.641  11.345
28013W        W96418  27.949   1.319  13.270
28014W        W96419  25.530   5.855   1.865
28015W        W96420   8.240  42.858   0.354
28016W        W96421  24.770  38.324   0.854
28017W        W96422   1.851  21.708  10.727
28018W        W96423  44.734   3.982   4.579
28019W        W96424  15.639  16.033   2.785
28020W        W96425   8.152  36.115  12.032
28021W        W96426  29.016   6.601  10.657
28022W        W96427  21.658   5.638   4.207
28023W        W96428  41.584  21.585  11.753
28024W        W96429  28.439  39.777   3.022
28025W        W96430  42.505  14.631  11.593
28026W        W96431  43.788  43.833   0.031
28027W        W96432  38.140  42.506   1.400
28028W        W96433   5.562  18.143   2.296
28029W        W96434   1.227   3.116  13.918
28030W        W96435  27.642   5.807   4.040
28031W        W96436  33.143  12.730   0.842
28032W        W96437  18.688  37.528   4.197
28033W        W96438   5.199  24.561   2.803
28034W        W96439  23.328  38.848   2.943
28035W        W96440  21.292  14.264   3.691
28036W        W96441  13.893  12.385   3.247
28037W        W96442  43.022  43.209   4.972
28038W        W96443  35.951  18.735  12.915
28039W        W96444  39.072  30.116  11.051
28040W        W96445  33.665   1.948   3.739
28041W        W96446  11.624   2.208   4.152
28042W        W96447   5.240  40.227  11.131
28043W        W96448  17.998  12.463   4.054
28044W        W96449  34.507  11.801  12.051
28045W        W96450  25.140  17.711   3.883
28046W        W96451  30.408  27.276   1.776
28047W        W96452  23.775  30.483   3.801
28048W        W96453   4.797  13.789   3.646
28049W        W96454   1.804  18.147   1.769
28050W        W96455  12.167  21.799  12.946
28051W        W96456  19.983  38.430   1.793
28052W        W96457  17.599  20.865  14.883
28053W        W96458  31.631  43.089  11.059
28054W        W96459  24.655  32.196  10.247
28055W        W96460  38.969   0.842  10.688
28056W        W96461  39.551  20.278   1.390
28057W        W96462  24.129   3.402   0.831
28058W        W96463   9.818  11.152  12.926
28059W        W96464   0.659   5.981  12.964
28060W        W96465  21.787  29.850  13.405
28061W        W96466   0.840   8.170  14.956
28062W        W96467   5.608   3.315   1.635
28063W        W96468  28.392  25.459   4.721
28064W        W96469  15.632  24.769   2.177
28065W        W96470   9.678  11.181   1.185
28066W        W96471   2.515  36.388   3.705
28067W        W96472   7.094  41.496  11.145
28068W        W96473  40.590  11.726  11.074
28069W        W96474   5.728  39.601  14.460
28070W        W96475  42.554  35.032  13.934
28071W        W96476  42.316   0.904   1.309
28072W        W96477  13.243  30.377  14.987
28073W        W96478  14.948  23.266  11.228
28074W        W96479  33.954  25.456  14.362
28075W        W96480  15.342  35.042  12.379
28076W        W96481  18.764  24.554  10.968
28077W        W96482  32.880  33.939  14.615
28078W        W96483   1.416   5.022   1.171
28079W        W96484  26.741   2.248   5.092
28080W        W96485  31.017   7.851  11.131
28081W        W96486  28.022  24.695   0.334
28082W        W96487  15.266   4.902  14.368
28083W        W96488   1.411   9.749   4.594
28084W        W96489  19.425  30.207  12.451
28085W        W96490  21.773  20.758   4.741
28086W        W96491  21.535   7.337  10.776
28087W        W96492   9.095   6.667   0.872
28088W        W96493  42.360   5.663  12.387
28089W        W96494  14.683   9.707   0.737
28090W        W96495  16.347  15.072  13.193
28091W        W96496   2.056   0.143   0.422
28092W        W96497   1.862   8.486   4.165
28093W        W96498   7.371  29.428   4.250
28094W        W96499  19.664  25.509   1.705
28095W        W96500  35.499  31.561   0.861
28096W        W96501  24.877  18.884  14.379
28097W        W96502  34.574  18.485  12.934
28098W        W96503  35.906  10.855   1.750
28099W        W96504  43.247   4.346   1.808
28100W        W96505   2.007  11.825  14.151
28101W        W96506   1.001  11.097  11.876
28102W        W96507   0.268  38.793   4.617
28103W        W96508  24.896   9.225   0.550
28104W        W96509   8.337   1.740   0.920
28105W        W96510  38.665  25.445  13.024
28106W        W96511  36.471  19.063  14.025
28107W        W96512  41.395  10.754  11.884
28108W        W96513  17.132  31.132   0.760
28109W        W96514  20.193  36.727   3.979
28110W        W96515  44.873   6.941   2.378
28111W        W96516  33.191  34.667  10.953
28112W        W96517  17.208  15.865   2.212
28113W        W96518   9.102  31.645   0.829
28114W        W96519  31.755  32.958  14.889
28115W        W96520  40.188   3.337   0.724
28116W        W96521  10.012   0.169   9.692
28117W        W96522  11.521   1.238  13.379
28118W        W96523  39.579  21.789  12.449
28119W        W96524  31.409   8.997  13.961
28120W        W96525  25.286  22.130  12.200
28121W        W96526  25.793  15.644   4.602
28122W        W96527   8.589  34.242  11.976
28123W        W96528  19.278   5.006  11.564
28124W        W96529  31.688  42.906  14.161
28125W        W96530  36.334   0.526   4.567
28126W        W96531  33.029   6.842   0.288
28127W        W96532  16.977  29.073   0.482
28128W        W96533  25.587   1.948   1.311
28129W        W96534  20.250   7.998   2.921
28130W        W96535  37.894  29.008  13.122
28131W        W96536  14.246  27.198  13.920
28132W        W96537  39.821  29.694  11.212
28133W        W96538  40.355   5.987  14.435
28134W        W96539  15.288  35.848   4.471
28135W        W96540  11.165  14.199  13.491
28136W        W96541  23.592  37.122  10.739
28137W        W96542  16.731   3.999   3.747
28138W        W96543  35.746   4.727  13.943
28139W        W96544  44.904  32.734   4.091
28140W        W96545   6.926  28.998   2.817
28141W        W96546  41.466  16.638   0.457
28142W        W96547  30.932  11.639  11.164
28143W        W96548  44.932  26.905  10.588
28144W        W96549   6.678  13.187   4.246
28145W        W96550  32.174  41.523   3.246
28146W        W96551  14.675   0.991   1.370
28147W        W96552   1.000  35.924   2.247
28148W        W96553  24.299   8.355  13.287
28149W        W96554  17.760  25.960  10.932
28150W        W96555  20.258  13.845   1.721
28151W        W96556  11.752   0.365   2.937
28152W        W96557  30.693   1.449  12.559
28153W        W96558  28.329  17.838  10.759
28154W        W96559  41.300  43.066  13.015
28155W        W96560   7.385  23.551  12.713
28156W        W96561  32.655  43.362   1.368
28157W        W96562  38.591  36.929  11.640
28158W        W96563  14.536  14.296  11.200
28159W        W96564  26.009  36.437  13.207
28160W        W96565  38.426  23.640   4.559
28161W        W96566  11.127  18.610  11.210
28162W        W96567   1.613  29.028   1.417
28163W        W96568  24.751  15.131   0.937
28164W        W96569   7.772  26.448   0.093
28165W        W96570  17.432  17.249   0.400
28166W        W96571  32.931   5.896   3.621
28167W        W96572  16.701  16.010   2.291
28168W        W96573  19.050  43.933  12.342
28169W        W96574  10.288  22.588   4.549
28170W        W96575  34.936   5.455  11.665
28171W        W96576  14.106   5.913   1.438
28172W        W96577  31.120   4.688  14.903
28173W        W96578  12.514  44.799  11.183
28174W        W96579  24.918   5.980  14.951
28175W        W96580  25.756  34.486   0.386
28176W        W96581  27.875  18.709   2.644
28177W        W96582  14.667  16.097   4.518
28178W        W96583  33.930  44.685   1.409
28179W        W96584  13.050  23.714   3.298
28180W        W96585  25.844  15.799  10.308
28181W        W96586  39.125  13.068   4.350
28182W        W96587   9.765   7.275   4.849
28183W        W96588  12.268  14.433   1.659
28184W        W96589   8.000   4.867  11.189
28185W        W96590  33.807  29.746  12.505
28186W        W96591  10.350   8.261   2.426
28187W        W96592  22.636  19.924   0.824
28188W        W96593  17.706   5.940  13.890
28189W        W96594  31.840  24.856  10.436
28190W        W96595   4.996   3.697  13.540
28191W        W96596   4.381  16.118   4.715
28192W        W96597  14.109  43.825  10.737
28193W        W96598  34.443  32.685  12.609
28194W        W96599   6.923  15.492  13.323
28195W        W96600  29.577  26.194   0.894
28196W        W96601  23.551  25.763  11.998
28197W        W96602  22.479   6.197   4.234
28198W        W96603   3.880  22.275   4.097
28199W        W96604  32.979  41.526  13.680
28200W        W96605  17.384  11.176  10.504
28201W        W96606  39.341  17.198   2.276
28202W        W96607  30.567  35.057  13.920
28203W        W96608  25.088  38.916   4.083
28204W        W96609  35.966  19.467   3.616
28205W        W96610   0.434  30.075  12.555
28206W        W96611  26.634   0.007   0.353
28207W        W96612  31.889  21.069  13.760
28208W        W96613  27.139  16.340  12.300
28209W        W96614  13.781   6.290   1.278
28210W        W96615   0.485  40.827  11.687
28211W        W96616  11.237  26.758   2.457
28212W        W96617   1.946  39.911   2.860
28213W        W96618  10.293  30.080   0.836
28214W        W96619  13.543  36.851   3.639
28215W        W96620  41.989  32.125   3.719
28216W        W96621  24.514  29.877  12.865
28217W        W96622  41.815  11.924   1.422
28218W        W96623  30.499   4.322  10.774
28219W        W96624  44.256  14.533  12.850
28220W        W96625  19.805  17.595   3.831
28221W        W96626  33.905  33.156  13.313
28222W        W96627  10.780  25.001  13.480
28223W        W96628  22.198  23.925  13.202
28224W        W96629  36.839  29.985  13.945
28225W        W96630  12.338   3.364   0.055
28226W        W96631  11.584  10.785  12.545
28227W        W96632  44.966  11.571   3.260
28228W        W96633  20.626  24.456   1.736
28229W        W96634  12.176   5.152   2.770
28230W        W96635   3.455  10.154  14.969
28231W        W96636  29.887  30.224  11.568
28232W        W96637  18.672   6.554   3.286
28233W        W96638   3.680  15.180  12.838
28234W        W96639  29.578  41.418   1.362
28235W        W96640  20.612   3.232  10.685
28236W        W96641  14.817  26.364  12.505
28237W        W96642  21.343  23.070   3.431
28238W        W96643   5.952  20.151  12.029
28239W        W96644  36.580  19.103  14.527
28240W        W96645  40.526  36.138  13.518
28241W        W96646  11.117  15.092  10.672
28242W        W96647  18.183   3.990  14.304
28243W        W96648  21.167  33.942   0.813
28244W        W96649  24.708  44.208   3.309
28245W        W96650  38.304  25.594  12.101
28246W        W96651  43.596  38.553   4.843
28247W        W96652  16.717  15.351  10.685
28248W        W96653   5.824  11.287  10.556
28249W        W96654  40.595  22.659  11.042
28250W        W96655  43.362  12.011   1.182
28251W        W96656  25.094  24.002   2.683
28252W        W96657  14.861  18.653  12.372
28253W        W96658   3.747  11.355   4.731
28254W        W96659  26.927  36.955   0.675
28255W        W96660   1.159   9.675   1.935
28256W        W96661  11.231  26.966  13.955
28257W        W96662  37.329   7.296  12.056
28258W        W96663  22.142  26.010   0.551
28259W        W96664  20.141  10.824  14.196
28260W        W96665  31.706  23.729   4.402
28261W        W96666  27.588  26.191  13.965
28262W        W96667  11.154  29.562   0.897
28263W        W96668  39.886  10.593   1.851
28264W        W96669   2.974  32.482  14.829
28265W        W96670  36.586   5.626  10.697
28266W        W96671  37.884  29.557   0.326
28267W        W96672  13.325  24.158   4.509
28268W        W96673  19.097  33.543  12.055
28269W        W96674  40.457  20.238   0.363
28270W        W96675  26.433   3.233   2.916
28271W        W96676  29.962  16.348   0.920
28272W        W96677  27.930  14.097  14.007
28273W        W96678  13.774  19.522   3.630
28274W        W96679  19.919   0.425   1.155
28275W        W96680  11.284  22.561   2.404
28276W        W96681  43.889   8.895  12.957
28277W        W96682  13.384  37.267  13.060
28278W        W96683   5.179   8.244   3.637
28279W        W96684  22.829  35.577   2.991
28280W        W96685  30.160  34.690  12.445
28281W        W96686  16.528  10.764  13.992
28282W        W96687  28.035   9.628  11.075
28283W        W96688  42.322  39.398  14.540
28284W        W96689  44.692  24.454   1.218
28285W        W96690  11.376   9.413  11.535
28286W        W96691  17.313  37.899   0.270
28287W        W96692  41.787  17.451  11.922
28288W        W96693  15.735   4.316   1.809
28289W        W96694  32.078  40.427   3.737
28290W        W96695  24.678  27.621  11.304
28291W        W96696  16.836   3.358  12.064
28292W        W96697   5.779  23.050  14.521
28293W        W96698  27.245  29.421  14.975
28294W        W96699  31.653  42.088  10.630
28295W        W96700   3.335  34.924   5.022
28296W        W96701  17.841  21.175   2.221
28297W        W96702   7.840  27.768   0.668
28298W        W96703  40.357   1.742  11.888
28299W        W96704  19.085   5.890  14.823
28300W        W96705  35.768  28.234  14.540
28301W        W96706  25.968  28.486  13.394
28302W        W96707  23.185   1.503  13.755
28303W        W96708  17.539   9.167   0.027
28304W        W96709  17.118   0.994   2.775
28305W        W96710  19.986  31.902  14.274
28306W        W96711  41.216  25.543   1.695
28307W        W96712   1.963  26.050   2.707
28308W        W96713  29.621  12.760  13.936
28309W        W96714   9.828   8.783  11.171
28310W        W96715  16.611  29.419  11.998
28311W        W96716  12.140  16.122  12.479
28312W        W96717  43.893  31.422   4.365
28313W        W96718  10.414  13.831  13.107
28314W        W96719  20.265  14.363  14.080
28315W        W96720  10.882  33.383  14.876
28316W        W96721   7.022  31.874  14.134
28317W        W96722  36.371   4.889   3.617
28318W        W96723   5.662  19.044  11.620
28319W        W96724  32.549  30.477   1.843
28320W        W96725   1.943   9.240   4.110
28321W        W96726   7.701  17.230   1.507
28322W        W96727  23.002  21.036   1.296
28323W        W96728  18.776  30.332   5.060
28324W        W96729  10.657  41.464   2.870
28325W        W96730  42.986  38.083   2.112
28326W        W96731  13.280  33.316   0.073
28327W        W96732  11.113  12.300   0.513
28328W        W96733  34.922  27.220  14.846
28329W        W96734  42.089  15.711   3.541
28330W        W96735   9.845  39.567   3.712
28331W        W96736   2.449   8.424   2.217
28332W        W96737  22.258  43.260  14.251
28333W        W96738  24.984  41.636   4.963
28334W        W96739  17.199  40.121  13.822
28335W        W96740   1.300  30.786   0.254
28336W        W96741  20.555  35.768  10.008
28337W        W96742  14.325  21.288  11.935
28338W        W96743  36.405  38.957  10.921
28339W        W96744  41.752  11.454  12.092
28340W        W96745  11.657  16.172   2.992
28341W        W96746  44.441  20.916   4.768
28342W        W96747  41.343  26.092  11.493
28343W        W96748  26.351  29.510  13.354
28344W        W96749  10.862  24.629   1.772
28345W        W96750   4.579  39.436  14.689
28346W        W96751   9.110  35.632   2.918
28347W        W96752  22.310   7.810  13.139
28348W        W96753  21.609  23.307   0.882
28349W        W96754  21.689   1.745   0.908
28350W        W96755  23.661  11.786   0.028
28351W        W96756  26.093  25.340   4.169
28352W        W96757  25.115  39.364  11.752
28353W        W96758  11.377  18.884   0.415
28354W        W96759  23.032  16.431  13.994
28355W        W96760   4.358   7.221   0.328
28356W        W96761   4.719  39.597   1.894
28357W        W96762  12.294  39.367  13.108
28358W        W96763  29.711  20.894  12.426
28359W        W96764  39.136  24.684  12.459
28360W        W96765  43.017   3.464   2.602
28361W        W96766  43.836  25.108   4.611
28362W        W96767  16.588  11.149  14.420
28363W        W96768  31.695   6.672   4.295
28364W        W96769   7.353  37.428   2.393
28365W        W96770  40.966  40.366   0.978
28366W        W96771  34.463  13.652   2.019
28367W        W96772  40.670  13.815  14.266
28368W        W96773  22.199  20.483   2.328
28369W        W96774  38.889  40.433   1.990
28370W        W96775  34.416  16.108   3.139
28371W        W96776  21.862  11.339   3.753
28372W        W96777   1.842  31.430   2.216
28373W        W96778  20.374  16.569   0.708
28374W        W96779   1.008  17.987  14.581
28375W        W96780  14.337  36.289   1.677
28376W        W96781   7.281   4.474   0.252
28377W        W96782  44.396  15.300   1.735
28378W        W96783  11.454  39.353  14.950
28379W        W96784  42.830  10.303  10.804
28380W        W96785  21.151  33.619   3.146
28381W        W96786   9.766  44.993  13.004
28382W        W96787  39.788  35.169   3.631
28383W        W96788  34.705  43.738  12.617
28384W        W96789  30.412  33.639   0.900
28385W        W96790  27.211   5.583  14.819
28386W        W96791  29.473  23.658   4.594
28387W        W96792   6.891  29.462   4.418
28388W        W96793   9.397  21.139  11.168
28389W        W96794  35.373  34.763   2.879
28390W        W96795  27.919  17.662   0.308
28391W        W96796  16.861  21.622   0.615
28392W        W96797   9.452  28.879   4.510
28393W        W96798   3.958  10.257  12.166
28394W        W96799  33.980  21.618  10.842
28395W        W96800   7.646  37.862  12.425
28396W        W96801  41.231  32.936  13.466
28397W        W96802  26.082  36.788   4.661
28398W        W96803  10.762   0.264  12.893
28399W        W96804   0.150  22.462  11.730
28400W        W96805  31.024  23.925   2.392
28401W        W96806  33.833   6.337  13.944
28402W        W96807   9.101  26.052   0.347
28403W        W96808  13.667  27.248  11.712
28404W        W96809  16.214  30.054  12.392
28405W        W96810  39.120  13.796   2.684
28406W        W96811  24.935  15.298   3.909
28407W        W96812   9.255  13.304   2.827
28408W        W96813   5.183   5.233   0.322
28409W        W96814  28.960  21.599   3.371
28410W        W96815  11.627  36.081  14.040
28411W        W96816  16.173   7.190   3.662
28412W        W96817  31.071  42.884   1.329
28413W        W96818  20.267   0.936  14.240
28414W        W96819   7.327  12.218   4.804
28415W        W96820  15.598  17.641  10.131
28416W        W96821  33.400   4.615  10.974
28417W        W96822  10.102  40.438   2.727
28418W        W96823  24.679   3.490  11.995
28419W        W96824  19.033   1.889   1.715
28420W        W96825   5.879  34.950   0.042
28421W        W96826   8.776  22.566   3.554
28422W        W96827  24.044  12.110  14.086
28423W        W96828  13.771  34.877  10.406
28424W        W96829  43.465  12.160   4.607
28425W        W96830   7.444  41.921   0.665
28426W        W96831  18.652  39.625  11.167
28427W        W96832  43.236   1.790  14.790
28428W        W96833  12.623  44.711   2.308
28429W        W96834  19.592  38.917  13.523
28430W        W96835  42.112  26.981  11.769
28431W        W96836  24.202  38.348  11.645
28432W        W96837  32.495  33.266   0.285
28433W        W96838  18.696  24.731   1.305
28434W        W96839  24.725  34.940   2.229
28435W        W96840  37.093  11.728   0.381
28436W        W96841  22.718  18.748   1.619
28437W        W96842  14.602  19.085  12.437
28438W        W96843  37.045  28.269  10.983
28439W        W96844  27.551   3.946  14.852
28440W        W96845  37.528   5.454  12.460
28441W        W96846  32.499  22.665   3.538
28442W        W96847  10.651  21.267   0.702
28443W        W96848  36.029   4.489  11.425
28444W        W96849  35.162  17.109   2.697
28445W        W96850  26.448  25.841   1.839
28446W        W96851  19.708   5.864   3.665
28447W        W96852   4.880  32.617   3.999
28448W        W96853  28.528  28.858  14.825
28449W        W96854  25.360  11.274   4.140
28450W        W96855  12.000  11.191  12.861
28451W        W96856   9.091  27.028   2.365
28452W        W96857   0.859  25.814  14.754
28453W        W96858  23.859  11.109   3.540
28454W        W96859  38.745  27.188  14.856
28455W        W96860  34.120  42.477  13.449
28456W        W96861  25.127   3.263  11.713
28457W        W96862  27.874   8.124  10.838
28458W        W96863  29.081  13.847  12.540
28459W        W96864  26.433  30.911  12.872
28460W        W96865  29.998  26.550   0.168
28461W        W96866  24.156  38.076   2.016
28462W        W96867  16.237   4.905   3.514
28463W        W96868  39.838  18.061   0.793
28464W        W96869  44.681  14.310  11.139
28465W        W96870  29.120   4.151   1.383
28466W        W96871   5.286  43.310  14.479
28467W        W96872  35.608  38.400  10.519
28468W        W96873  11.094   2.303  13.188
28469W        W96874  12.440  15.729  12.326
28470W        W96875  19.703  28.456  11.940
28471W        W96876  36.378   9.662  13.855
28472W        W96877   4.157  33.160  11.401
28473W        W96878  17.062   9.112   1.216
28474W        W96879  43.396  31.363  11.105
28475W        W96880  28.031   1.503   2.276
28476W        W96881  37.871  28.959   3.789
28477W        W96882  13.238  19.538  12.566
28478W        W96883  13.576  42.610   1.935
28479W        W96884  32.564   3.752   0.251
28480W        W96885  41.784  37.378  11.045
28481W        W96886  28.971  38.950  13.461
28482W        W96887  17.968  40.838   2.357
28483W        W96888  19.257   0.945   2.075
28484W        W96889  40.696  29.446   2.468
28485W        W96890  17.936  28.986  10.819
28486W        W96891   5.217  25.074  11.061
28487W        W96892  30.948  18.017   4.582
28488W        W96893   8.402  30.543   1.219
28489W        W96894  19.505  40.706  14.902
28490W        W96895  38.355  20.550  11.632
28491W        W96896  24.142  28.060  12.040
28492W        W96897  35.888  31.684   4.344
28493W        W96898  21.491  42.781   1.207
28494W        W96899   3.281   3.236  10.679
28495W        W96900  31.384  19.038   0.969
28496W        W96901  14.400  19.838   1.308
28497W        W96902   8.706  16.359  12.162
28498W        W96903   0.017  42.709  13.280
28499W        W96904   6.037  37.738  10.566
28500W        W96905  38.376  35.545  12.378
28501W        W96906  43.118  21.701  12.414
28502W        W96907  32.677   2.785  12.848
28503W        W96908  42.966  12.270   4.826
28504W        W96909   4.383  29.960   1.561
28505W        W96910  22.163   6.527  13.734
28506W        W96911   7.314  22.025  11.607
28507W        W96912  34.930  17.334   3.672
28508W        W96913  30.901  10.063   0.058
28509W        W96914  24.832  32.132   0.710
28510W        W96915  43.113   8.732   2.797
28511W        W96916  31.957  17.525   2.834
28512W        W96917  27.078  39.677   9.737
28513W        W96918  30.658   0.461   2.378
28514W        W96919  25.761  44.448   1.547
28515W        W96920  29.921  23.203   0.263
28516W        W96921  34.633  38.991  12.380
28517W        W96922  33.559  40.083   3.745
28518W        W96923   2.406  32.806  10.768
28519W        W96924   7.212   8.169  12.554
28520W        W96925   7.732  32.464  12.044
28521W        W96926   9.288  43.353   3.747
28522W        W96927   7.293   5.100  12.610
28523W        W96928   0.254  26.676   1.151
28524W        W96929  28.217  32.009   2.380
28525W        W96930   4.342  28.947  14.873
28526W        W96931   7.070  14.514  14.126
28527W        W96932   1.733  24.598  12.840
28528W        W96933  20.993  36.954  13.059
28529W        W96934  22.669  16.059   1.369
28530W        W96935  21.193  16.298  12.412
28531W        W96936  33.495  24.119  12.398
28532W        W96937   0.954   8.725   1.747
28533W        W96938  31.035  32.010   1.445
28534W        W96939  22.715  34.170  10.673
28535W        W96940  10.937   5.235  13.465
28536W        W96941  36.615  35.522   3.951
28537W        W96942  12.651   0.671  14.932
28538W        W96943   8.195   3.832   2.810
28539W        W96944   3.177   4.682   5.441
28540W        W96945   4.681   0.941   0.901
28541W        W96946  40.171  15.559  12.030
28542W        W96947  35.334  26.467   0.272
28543W        W96948  44.239  39.396  10.521
28544W        W96949  42.402  22.553   3.602
28545W        W96950   0.632  32.108  11.918
28546W        W96951  42.910   9.571   3.906
28547W        W96952  21.340   6.253   5.240
28548W        W96953  39.265  22.892  14.480
28549W        W96954  15.072   7.814  10.639
28550W        W96955   3.760  16.223   0.385
28551W        W96956  29.713  20.560  14.897
28552W        W96957  35.727  10.054   5.271
28553W        W96958  21.180  23.158  13.879
28554W        W96959  10.858  27.065   1.750
28555W        W96960  18.459  28.907  10.684
28556W        W96961  19.758  32.134   1.448
28557W        W96962  22.079  20.956  11.344
28558W        W96963  36.180  33.576   1.766
28559W        W96964  39.508  44.381   2.770
28560W        W96965  40.083  22.815  13.225
28561W        W96966  29.629  36.303  13.894
28562W        W96967  18.979  34.203  12.549
28563W        W96968  15.277  10.618  13.385
28564W        W96969  26.139  28.570  14.403
28565W        W96970  25.229   8.806   2.341
28566W        W96971   0.832  16.767   1.918
28567W        W96972  39.252  37.397  12.522
28568W        W96973   2.820  14.693  13.883
28569W        W96974   7.224  24.710  10.568
28570W        W96975  29.398   1.546  13.266
28571W        W96976  15.134  21.274   4.108
28572W        W96977  21.690  22.589   0.315
28573W        W96978  11.167  36.338   2.186
28574W        W96979   6.965   5.132  14.047
28575W        W96980  25.079  20.231  12.498
28576W        W96981  16.885  24.904  14.374
28577W        W96982   4.659  40.495   2.495
28578W        W96983   6.904  26.975  12.498
28579W        W96984   3.801  33.460  12.351
28580W        W96985  36.586   6.500  14.058
28581W        W96986  33.438   3.218  14.871
28582W        W96987  19.819  38.309  10.706
28583W        W96988  33.748  14.376   4.215
28584W        W96989  32.635  25.290   4.404
28585W        W96990  20.044  27.575   2.372
28586W        W96991  30.417   1.987  10.771
28587W        W96992  40.990  39.915   2.911
28588W        W96993  33.418  13.902   4.845
28589W        W96994  30.818  25.722  11.118
28590W        W96995   5.846  24.152   3.942
28591W        W96996  19.055  18.726  14.089
28592W        W96997  12.414  31.930  13.009
28593W        W96998  14.476   5.777  10.756
28594W        W96999  41.555  34.440   3.080
28595W        W97000  36.897  20.237   2.464
28596W        W97001  36.963  38.259   3.969
28597W        W97002  10.830   8.044   1.065
28598W        W97003  44.278  41.589  11.661
28599W        W97004  12.733  39.537   0.049
28600W        W97005  14.426  31.699  11.574
28601W        W97006   8.848   8.762  14.416
28602W        W97007   0.802  28.438   4.627
28603W        W97008  14.297  30.976  13.338
28604W        W97009  40.164  15.825  11.053
28605W        W97010  42.392  40.411   3.705
28606W        W97011   4.276  43.930   3.620
28607W        W97012  12.790  23.050  13.365
28608W        W97013  30.460   1.593   3.848
28609W        W97014  44.686  39.044  13.813
28610W        W97015  32.045  18.354  12.950
28611W        W97016  34.494   3.255   4.680
28612W        W97017  20.010   9.219  13.813
28613W        W97018  40.873  35.175   2.033
28614W        W97019   6.977  36.994   2.371
28615W        W97020  10.666  18.172   4.348
28616W        W97021  43.364  11.748   4.939
28617W        W97022   6.731  34.636  13.077
28618W        W97023  32.630  34.897   0.515
28619W        W97024  41.573   7.731  10.817
28620W        W97025  33.858  18.132  10.763
28621W        W97026  21.086  39.056  14.518
28622W        W97027   4.982  38.403  14.336
28623W        W97028  12.638  18.279   1.723
28624W        W97029  40.440   4.438   2.853
28625W        W97030  34.143  19.811  13.513
28626W        W97031  13.674  11.061  14.106
28627W        W97032  43.754  30.477  13.679
28628W        W97033  32.395  15.726   1.460
28629W        W97034  25.211  36.263   5.104
28630W        W97035  40.007   4.016   3.252
28631W        W97036  31.972  29.933  14.824
28632W        W97037  37.168  30.661   1.152
28633W        W97038  10.278   7.352   1.384
28634W        W97039  34.647  35.069  10.651
28635W        W97040  13.547  31.985   3.132
28636W        W97041  43.879  30.053   0.425
28637W        W97042  23.964  26.351   2.306
28638W        W97043  22.035   0.305  10.712
28639W        W97044   8.187  39.863   3.548
28640W        W97045   3.658  13.713   0.965
28641W        W97046  20.219  16.206   1.173
28642W        W97047  14.610  15.322  12.955
28643W        W97048  10.736  40.519   3.385
28644W        W97049  10.897  44.500   3.841
28645W        W97050  19.889  38.990  13.012
28646W        W97051  10.266  14.840   3.600
28647W        W97052   6.986  19.637  11.626
28648W        W97053   5.417   0.743   3.618
28649W        W97054  40.408  39.302  13.709
28650W        W97055  23.213  38.000  12.857
28651W        W97056  25.998  18.597  11.187
28652W        W97057   8.382  39.375   3.655
28653W        W97058   2.865  38.784  13.034
28654W        W97059  13.083  27.567   0.874
28655W        W97060  38.662  25.032   4.388
28656W        W97061  13.186  31.482   4.841
28657W        W97062  19.866  26.657  12.398
28658W        W97063   1.472   8.431  13.453
28659W        W97064   7.795   5.167   3.279
28660W        W97065   4.802  30.531   4.767
28661W        W97066  31.586  44.068   2.879
28662W        W97067  32.564  24.019   0.754
28663W        W97068  28.021   2.518   2.350
28664W        W97069   8.163   0.546  13.517
28665W        W97070  40.410  37.098   4.443
28666W        W97071  25.054  25.456   3.830
28667W        W97072   2.954  16.712   0.737
28668W        W97073   6.522  39.093   4.530
28669W        W97074  22.133  15.084  14.490
28670W        W97075  28.436  30.043   4.580
28671W        W97076  36.951  33.826   4.366
28672W        W97077  29.201  11.320  14.360
28673W        W97078   0.949  42.438   3.175
28674W        W97079   7.223  18.115   2.479
28675W        W97080  26.086  19.285  12.366
28676W        W97081  25.468  32.973  14.043
28677W        W97082   1.219  36.509   2.314
28678W        W97083  40.445  28.441   0.693
28679W        W97084  29.677  20.519  11.215
28680W        W97085   2.700  25.413  13.645
28681W        W97086   9.939  15.108  11.659
28682W        W97087  43.078  28.816  14.257
28683W        W97088  40.749  11.617  10.577
28684W        W97089   1.353  41.960   1.908
28685W        W97090   3.425   6.888  14.417
28686W        W97091  12.270  30.344   5.165
28687W        W97092  12.255  25.608   1.609
28688W        W97093   9.369  11.074  12.538
28689W        W97094  31.226  15.368   0.379
28690W        W97095  18.620  23.152  12.118
28691W        W97096  31.113  33.937  12.615
28692W        W97097  41.441  34.378  10.639
28693W        W97098  20.666  25.216  14.429
28694W        W97099  25.327  40.873  10.945
28695W        W97100  43.798  19.254   0.230
28696W        W97101  36.832   8.645  13.406
28697W        W97102  36.053  22.730  13.886
28698W        W97103  32.737  14.080  14.951
28699W        W97104  18.751  43.528   1.436
28700W        W97105  11.142  35.017   1.444
28701W        W97106  11.607  42.977   1.371
28702W        W97107  33.043  14.189   3.060
28703W        W97108  10.235  33.517   4.167
28704W        W97109  20.092  24.395   1.377
28705W        W97110  29.184  34.510   3.299
28706W        W97111  29.542  28.743   0.353
28707W        W97112  42.990  11.210   1.352
28708W        W97113  38.381   8.103   1.874
28709W        W97114  34.997  16.598   2.039
28710W        W97115  29.913  32.568   0.398
28711W        W97116  22.599  38.257   3.178
28712W        W97117  33.164  13.591  12.373
28713W        W97118  20.799  19.621  10.768
28714W        W97119  39.510  27.961  12.058
28715W        W97120  42.347  15.118  10.770
28716W        W97121  39.633  27.800  12.546
28717W        W97122  21.747  40.317  12.831
28718W        W97123  32.373  38.030  12.906
28719W        W97124   3.494  28.443  12.462
28720W        W97125  42.521  31.506   0.932
28721W        W97126  27.893  13.394   0.908
28722W        W97127  32.672   8.244   3.696
28723W        W97128  42.681  37.423   3.226
28724W        W97129  13.097  12.227   3.720
28725W        W97130  28.412  35.140   4.575
28726W        W97131  37.802   9.270  11.323
28727W        W97132   4.959  43.527  10.507
28728W        W97133   0.370  44.595   4.054
28729W        W97134  40.047  43.326   3.188
28730W        W97135  31.594  39.090   4.840
28731W        W97136  17.014  26.767   4.799
28732W        W97137  42.179  20.526   4.971
28733W        W97138  44.632  32.408   2.327
28734W        W97139  28.605  38.876  10.577
28735W        W97140  41.803   5.389   0.788
28736W        W97141  36.546  40.353  14.386
28737W        W97142  34.662  29.174  12.530
28738W        W97143   0.282  11.716  13.199
28739W        W97144  19.387  21.428   3.267
28740W        W97145  19.365  19.157   4.276
28741W        W97146   1.405  31.078   4.921
28742W        W97147  14.260  36.330   0.719
28743W        W97148  33.518  35.561   1.140
28744W        W97149  15.640   7.250   1.914
28745W        W97150  14.330  43.547   0.501
28746W        W97151   6.814   6.476   1.307
28747W        W97152   7.481  21.128  14.261
28748W        W97153  35.490   6.288  10.359
28749W        W97154   5.445  36.097  13.102
28750W        W97155   5.733  21.739  14.546
28751W        W97156  14.605  13.730  11.570
28752W        W97157  16.022   9.797   3.831
28753W        W97158  38.964  11.709   1.980
28754W        W97159  39.982  20.166   1.765
28755W        W97160   7.689  42.031  14.328
28756W        W97161  18.874  34.545  12.178
28757W        W97162  31.076  43.364   4.498
28758W        W97163  41.084  20.330  11.243
28759W        W97164  41.812  35.911  14.685
28760W        W97165  41.568  11.846   1.866
28761W        W97166  20.002  39.662  14.184
28762W        W97167  34.534  24.462  14.005
28763W        W97168   1.976  12.168   2.388
28764W        W97169  38.443  14.914   3.354
28765W        W97170  44.124  14.409  11.182
28766W        W97171  43.472  25.067   1.307
28767W        W97172  15.309   5.351  10.581
28768W        W97173  31.383  41.956   2.942
28769W        W97174  37.428  17.126   0.148
28770W        W97175  43.894  40.000  12.960
28771W        W97176  20.857  42.563   2.682
28772W        W97177  39.360  44.489   1.825
28773W        W97178  34.457  34.677  12.902
28774W        W97179  19.096  38.602   2.372
28775W        W97180  14.829  32.048  13.160
28776W        W97181  35.347  43.335   2.363
28777W        W97182   4.901  19.294  10.950
28778W        W97183   3.236  26.455   0.874
28779W        W97184  15.305  25.221   1.978
28780W        W97185  40.595  14.898   4.307
28781W        W97186  28.053  36.865  11.363
28782W        W97187  40.378  23.981  13.332
28783W        W97188  20.103  42.952  14.288
28784W        W97189  24.296  25.326   3.166
28785W        W97190  27.186   6.495   2.633
28786W        W97191  12.756  11.731  11.716
28787W        W97192  32.237  16.677   2.710
28788W        W97193  37.301  32.728   4.607
28789W        W97194   4.635  15.335  13.185
28790W        W97195  24.646  13.844  10.773
28791W        W97196  32.179  31.381   2.295
28792W        W97197   7.362  18.231   4.714
28793W        W97198  36.369   8.920  10.768
28794W        W97199  28.563  32.503   1.498
28795W        W97200   2.949  18.591  13.815
28796W        W97201   7.786  34.763  14.451
28797W        W97202  32.134  29.406   1.372
28798W        W97203  25.945   2.038   4.729
28799W        W97204   2.690   8.654   3.346
28800W        W97205  17.742  35.435   0.036
28801W        W97206  38.766  14.797  12.076
28802W        W97207  13.500   3.682  11.861
28803W        W97208   2.601  44.163   4.562
28804W        W97209  30.799  29.967  14.332
28805W        W97210  42.776  33.277  11.625
28806W        W97211  32.884  13.849  10.615
28807W        W97212  17.841  26.202   2.928
28808W        W97213  44.475  41.324   0.326
28809W        W97214   4.899  43.933  13.053
28810W        W97215  29.128  30.083  13.468
28811W        W97216  34.957  29.738  13.313
28812W        W97217  19.315  34.523   3.696
28813W        W97218  24.119  27.986   2.934
28814W        W97219  24.990  13.369  11.150
28815W        W97220  44.452  26.977   0.382
28816W        W97221  30.849  31.691  10.559
28817W        W97222  21.305  23.235  14.370
28818W        W97223  26.578  25.891   2.620
28819W        W97224  13.490  18.133  10.905
28820W        W97225  15.643  15.549  12.681
28821W        W97226   2.933  43.153   4.637
28822W        W97227  25.377   1.516   3.649
28823W        W97228  28.330   4.388   0.264
28824W        W97229  29.175   4.982  13.320
28825W        W97230   8.386  24.385   3.109
28826W        W97231  24.587  34.961   0.272
28827W        W97232  33.935   3.021  14.806
28828W        W97233  26.146  23.792   0.467
28829W        W97234  25.916   8.942  14.833
28830W        W97235  28.852   5.455  14.740
28831W        W97236  32.008  16.706  10.621
28832W        W97237  41.141  38.991  13.797
28833W        W97238  31.844   4.492   2.721
28834W        W97239   7.491  28.614   4.638
28835W        W97240  20.974  27.445  10.513
28836W        W97241  30.080  35.587   0.274
28837W        W97242  18.489  15.317  10.974
28838W        W97243  43.519  31.572  12.962
28839W        W97244   1.953   2.588   0.474
28840W        W97245  38.271  27.449  14.868
28841W        W97246  41.477  43.337   4.900
28842W        W97247  10.695  40.340  14.151
28843W        W97248  16.470   3.135  13.469
28844W        W97249  20.066  19.528  12.470
28845W        W97250  41.109  40.997   2.808
28846W        W97251  37.454  11.702  11.673
28847W        W97252  44.812  18.265  13.225
28848W        W97253  44.673  38.823   0.488
28849W        W97254   1.435   0.734   1.481
28850W        W97255  24.026  30.175   3.185
28851W        W97256   4.200   9.140   0.403
28852W        W97257  38.832   9.667   1.358
28853W        W97258  34.158  38.469   1.795
28854W        W97259  23.616  30.603   4.935
28855W        W97260   5.545   9.304  14.588
28856W        W97261  32.418  12.629   4.078
28857W        W97262  37.325   3.667   1.415
28858W        W97263   2.290  14.726  14.481
28859W        W97264  17.680   2.264  10.746
28860W        W97265  32.079   9.628   0.392
28861W        W97266  21.681  24.190   4.859
28862W        W97267  34.162  24.717  13.108
28863W        W97268  16.029  24.610   5.089
28864W        W97269  11.520   4.150   1.309
28865W        W97270   0.677  12.920  13.525
28866W        W97271  24.228  11.889  12.402
28867W        W97272  29.448   5.342   2.366
28868W        W97273   5.118  16.757  14.432
28869W        W97274  16.144  15.603  14.419
28870W        W97275  36.824   1.241   4.113
28871W        W97276  18.984   1.040   2.924
28872W        W97277  28.313  24.976  10.720
28873W        W97278  29.067  16.196  12.079
28874W        W97279  31.064  33.751  14.513
28875W        W97280  39.923  31.965   0.682
28876W        W97281  33.128  41.031  12.035
28877W        W97282   8.392   2.750   0.854
28878W        W97283  11.663  22.042  10.715
28879W        W97284  26.225   5.949   4.104
28880W        W97285  30.816  32.442  11.530
28881W        W97286  11.402  35.433   0.564
28882W        W97287  15.967  29.515   4.405
28883W        W97288  24.555  37.984  12.493
28884W        W97289   2.230  28.921  11.166
28885W        W97290  21.804  10.004  12.408
28886W        W97291  35.929   1.613  13.750
28887W        W97292  20.274   2.032   2.257
28888W        W97293  38.517  33.799  10.610
28889W        W97294  16.408  32.571   3.171
28890W        W97295  27.744  16.069  10.381
28891W        W97296  41.872  29.717   0.867
28892W        W97297  18.147  38.235  11.986
28893W        W97298   4.708   0.934   4.973
28894W        W97299  19.755   1.720   4.284
28895W        W97300  40.798  26.966  11.661
28896W        W97301  14.240  11.709   0.276
28897W        W97302  14.267  10.296   2.027
28898W        W97303  44.996  27.494   1.752
28899W        W97304  23.307   4.708  10.725
28900W        W97305  25.753  18.210  13.411
28901W        W97306  24.052   0.481   4.544
28902W        W97307  43.072   8.178   3.881
28903W        W97308  23.768  18.161  11.144
28904W        W97309  18.515  18.246  11.749
28905W        W97310  32.855  37.658   0.687
28906W        W97311  27.918  20.490  12.479
28907W        W97312  28.950  23.086   2.325
28908W        W97313  44.981  16.699   0.926
28909W        W97314  12.797  10.893  14.760
28910W        W97315   6.655   5.869  13.405
28911W        W97316  25.496  32.690   3.790
28912W        W97317  43.397  38.548  13.433
28913W        W97318  26.862  21.077  10.410
28914W        W97319   6.398  27.125   2.664
28915W        W97320  40.405  24.422   3.421
28916W        W97321  40.471  43.789  12.459
28917W        W97322  38.817   1.484   0.300
28918W        W97323   2.785  29.986   3.076
28919W        W97324  24.313  41.367   2.340
28920W        W97325  16.388  28.614  12.095
28921W        W97326  44.827  37.096  14.387
28922W        W97327  16.550   7.515  13.485
28923W        W97328  26.002   4.572   0.648
28924W        W97329  15.244  41.217   1.201
28925W        W97330  43.082  29.183  10.753
28926W        W97331  25.939  40.250  12.126
28927W        W97332  33.384  26.223   5.112
28928W        W97333  27.498  33.883   2.167
28929W        W97334  27.474   0.053  14.862
28930W        W97335  43.872   1.850  10.733
28931W        W97336  24.480   5.184   1.426
28932W        W97337  20.131   1.006  12.924
28933W        W97338  27.205  13.285   4.681
28934W        W97339  18.111   1.212   0.160
28935W        W97340  23.494  22.530   3.616
28936W        W97341   7.965  42.265  13.443
28937W        W97342  25.379  24.855   5.212
28938W        W97343  42.049   7.842  11.005
28939W        W97344  21.054  30.083  13.852
28940W        W97345  17.236  17.770  11.855
28941W        W97346   5.094   2.686   1.211
28942W        W97347  34.619  16.292   2.285
28943W        W97348   8.085  14.033   4.628
28944W        W97349  35.327  30.633   3.129
28945W        W97350  26.205  13.072  11.533
28946W        W97351  44.630  29.477   2.360
28947W        W97352  38.787  18.329  13.455
28948W        W97353   0.886   1.313  10.905
28949W        W97354  22.550  40.980  12.609
28950W        W97355  21.284  37.927   3.640
28951W        W97356  33.883  19.251  13.513
28952W        W97357  22.489  14.056   2.762
28953W        W97358   2.001   2.445  12.513
28954W        W97359  13.040  22.238   2.758
28955W        W97360  43.738  38.833   3.630
28956W        W97361  32.494  26.244   1.416
28957W        W97362  36.323  12.161   4.105
28958W        W97363  11.001  23.757  12.984
28959W        W97364   4.154  35.651  11.212
28960W        W97365   9.062  32.346   1.911
28961W        W97366  44.488  11.504  10.468
28962W        W97367  28.602  27.435  12.829
28963W        W97368  39.278  10.545   2.261
28964W        W97369  12.098  25.461  11.854
28965W        W97370  43.421  22.141  11.879
28966W        W97371  41.002  28.617  12.561
28967W        W97372  24.729  12.577   3.728
28968W        W97373  38.828  30.417   9.996
28969W        W97374  37.511  10.895  14.502
28970W        W97375  13.640   2.156  14.579
28971W        W97376  15.376  29.522  14.554
28972W        W97377  17.679  26.670   4.128
28973W        W97378   1.942  41.385  13.073
28974W        W97379   8.281  19.047  13.059
28975W        W97380  35.800   0.746  12.377
28976W        W97381  11.712  36.699   1.656
28977W        W97382  21.985  43.302  13.531
28978W        W97383  12.083  40.340   2.715
28979W        W97384   0.833  40.330   0.961
28980W        W97385  40.385  28.755  14.397
28981W        W97386   7.169  17.704   4.859
28982W        W97387  29.473  10.945  14.913
28983W        W97388   1.993  35.354  12.320
28984W        W97389  11.712   8.684   0.559
28985W        W97390  41.954  30.366  10.727
28986W        W97391  16.631  24.515  14.117
28987W        W97392  23.117  16.106  10.634
28988W        W97393  18.821  36.500   4.100
28989W        W97394  38.957  41.398  12.117
28990W        W97395  28.899  28.627  12.492
28991W        W97396   3.344  24.521   0.639
28992W        W97397  38.390  13.098  12.980
28993W        W97398  28.229  41.471   3.625
28994W        W97399   0.845  25.947   0.265
28995W        W97400  34.899  40.419   1.902
28996W        W97401  10.333  16.255  12.988
28997W        W97402  37.066  36.553  13.475
28998W        W97403   4.734  38.550   4.191
28999W        W97404   7.776  24.634  11.247
29000W        W97405  15.779  36.517  12.817
29001W        W97406  28.995  27.742   3.719
29002W        W97407  20.805  15.641   4.144
29003W        W97408  24.773  44.021   1.077
29004W        W97409  34.488  13.978  13.339
29005W        W97410   5.192  36.602  12.237
29006W        W97411  27.378  22.611   0.788
29007W        W97412   2.786  22.582   1.567
29008W        W97413  13.122   1.095   0.310
29009W        W97414  13.483   0.432  14.065
29010W        W97415  10.724  11.989   4.720
29011W        W97416  17.977  25.966   3.551
29012W        W97417  26.157  42.717   1.802
29013W        W97418  35.980  12.298  13.981
29014W        W97419   3.455  30.918  12.820
29015W        W97420  18.810  19.316   1.971
29016W        W97421  33.972  25.732  10.923
29017W        W97422   4.246  39.397   2.173
29018W        W97423  25.987   0.209  13.425
29019W        W97424  28.929   9.486   2.191
29020W        W97425  22.165  36.655   4.919
29021W        W97426   2.467   9.495   0.708
29022W        W97427   6.771  18.082   3.205
29023W        W97428  30.545  10.336   0.311
29024W        W97429  20.152  16.164   2.594
29025W        W97430  17.012  28.976   4.526
29026W        W97431  20.152   9.233  10.292
29027W        W97432  10.334  42.007   4.249
29028W        W97433   9.973   4.214  10.866
29029W        W97434  30.429  44.082   4.177
29030W        W97435   6.261  42.923  10.599
29031W        W97436  28.980  21.578  13.959
29032W        W97437  20.743  12.536   2.716
29033W        W97438  16.641  43.976   0.267
29034W        W97439   8.423  16.561   2.337
29035W        W97440  34.101  38.099  11.122
29036W        W97441  26.436  27.271   2.678
29037W        W97442  16.294  27.788   3.826
29038W        W97443  41.099  12.164  13.916
29039W        W97444  11.030  10.675   3.250
29040W        W97445  10.693  33.645   0.314
29041W        W97446   8.175  12.280   0.086
29042W        W97447   2.190  12.185   0.512
29043W        W97448  40.352  24.980  13.122
29044W        W97449  26.691   2.024   3.347
29045W        W97450  40.202   6.256   2.190
29046W        W97451  36.790  28.484   4.582
29047W        W97452  19.755  11.291   1.229
29048W        W97453  18.251  41.250  14.884
29049W        W97454  27.515  24.584   0.000
29050W        W97455  42.705  40.315  13.489
29051W        W97456  35.620  32.404   0.544
29052W        W97457   4.322  12.196   2.703
29053W        W97458  21.626  23.649   0.482
29054W        W97459  29.467  12.602  12.490
29055W        W97460  34.479  19.496  12.874
29056W        W97461  42.562  11.345   4.725
29057W        W97462  18.751  23.464  14.850
29058W        W97463  17.931  30.799  12.509
29059W        W97464  40.222  18.777  11.695
29060W        W97465  29.248  19.682  10.712
29061W        W97466  28.488   5.238   0.065
29062W        W97467   9.096  14.034   4.596
29063W        W97468  23.989   2.108   4.082
29064W        W97469   1.869  15.063  13.261
29065W        W97470  10.651  18.330  14.310
29066W        W97471  40.984  42.539   2.716
29067W        W97472  21.758  38.066   2.737
29068W        W97473  44.553  14.644   0.853
29069W        W97474   3.448   7.401   2.267
29070W        W97475  33.492  11.867  12.019
29071W        W97476   5.658  25.062  14.425
29072W        W97477  36.851  38.745   4.115
29073W        W97478  35.894  24.078   1.747
29074W        W97479  31.546  10.834   2.118
29075W        W97480  21.327  28.525   1.176
29076W        W97481  39.940  24.105   1.788
29077W        W97482  36.828  35.871   1.861
29078W        W97483  11.233  22.027   0.411
29079W        W97484  30.396  33.699   3.450
29080W        W97485   8.667   1.839   1.854
29081W        W97486  32.795  12.245  11.183
29082W        W97487  10.719  41.568  11.123
29083W        W97488  12.394  12.742  14.694
29084W        W97489  44.366  31.192   0.906
29085W        W97490   8.108   2.293   3.790
29086W        W97491  28.129  23.155   4.647
29087W        W97492  26.900  25.599   4.078
29088W        W97493  11.284  44.706   1.403
29089W        W97494  16.276   2.408   0.784
29090W        W97495  34.475  28.676   2.451
29091W        W97496  43.365  14.072  10.809
29092W        W97497  18.512   6.621   0.957
29093W        W97498  37.090  14.321   3.289
29094W        W97499   2.911  33.165  13.069
29095W        W97500  31.559  26.439  11.086
29096W        W97501   1.495  15.565  14.293
29097W        W97502  39.524   7.506   4.713
29098W        W97503  33.675  10.725   1.490
29099W        W97504  29.898   1.529  13.311
29100W        W97505  27.550  37.035  11.188
29101W        W97506   7.738  43.829   2.377
29102W        W97507  30.337  11.601  12.005
29103W        W97508   1.589  21.062   4.173
29104W        W97509  44.954  26.426  14.741
29105W        W97510  37.505  32.942   2.690
29106W        W97511  30.481  19.185  12.111
29107W        W97512   2.090   8.105  11.861
29108W        W97513  14.459  29.456  12.531
29109W        W97514  15.986  14.300   3.117
29110W        W97515   1.452  14.013   2.213
29111W        W97516  12.800   7.219  11.494
29112W        W97517  37.124  10.725  13.051
29113W        W97518  15.787   6.260  14.856
29114W        W97519  30.370  25.213   4.555
29115W        W97520   6.723  24.157   3.134
29116W        W97521  19.589  11.408  12.866
29117W        W97522   8.360  23.492   4.523
29118W        W97523  14.092  36.110  13.356
29119W        W97524   7.643  30.584   0.447
29120W        W97525  32.978  30.225   2.006
29121W        W97526  12.294  42.555  10.738
29122W        W97527   3.021  29.940   0.892
29123W        W97528  18.590  14.101   3.182
29124W        W97529   2.782  10.105   2.863
29125W        W97530  41.565  18.035   4.847
29126W        W97531  19.544  12.124   1.655
29127W        W97532   5.219  30.590   3.806
29128W        W97533  39.476  41.405  10.966
29129W        W97534   7.050  26.680  12.898
29130W        W97535  39.335   2.758  12.410
29131W        W97536  24.132  16.615   1.351
29132W        W97537   8.367  23.002  14.399
29133W        W97538  25.717  42.291  14.881
29134W        W97539   1.716   5.188  14.293
29135W        W97540  27.176  36.960  13.727
29136W        W97541   0.308   6.447   3.048
29137W        W97542  23.569  23.991   4.278
29138W        W97543  35.969   2.464  11.588
29139W        W97544  43.508  40.802   1.719
29140W        W97545  34.586  32.448  11.066
29141W        W97546  18.639   4.906   4.953
29142W        W97547  18.202  25.917  11.209
29143W        W97548   0.186   3.445  10.698
29144W        W97549  20.792  10.285   1.521
29145W        W97550  14.216   8.468  14.308
29146W        W97551  15.601  18.135   0.948
29147W        W97552  25.462  30.175  10.778
29148W        W97553  41.925  31.885  13.732
29149W        W97554  34.817  26.271  11.564
29150W        W97555  29.410  14.214   2.641
29151W        W97556  30.519  40.497  14.334
29152W        W97557  30.545  21.070   1.411
29153W        W97558  14.606   5.932   2.333
29154W        W97559  42.951  38.914   2.355
29155W        W97560   6.479  15.870   3.251
29156W        W97561  32.467   2.387  12.567
29157W        W97562  36.525   9.790  14.357
29158W        W97563  22.015  36.683   0.436
29159W        W97564  39.513  25.012  12.653
29160W        W97565  20.126  28.646   0.714
29161W        W97566  16.000  37.036  14.267
29162W        W97567  10.827  10.823  11.188
29163W        W97568  11.619  10.235   4.569
29164W        W97569  43.503   7.836   3.236
29165W        W97570   4.013  19.354  10.814
29166W        W97571   1.200   6.239   0.026
29167W        W97572  15.898  33.974   3.085
29168W        W97573  10.260  29.396   2.930
29169W        W97574  16.990  38.108  10.492
29170W        W97575   7.397  24.439  10.968
29171W        W97576  28.618  12.176  13.790
29172W        W97577  23.018  40.596   0.031
29173W        W97578  40.322  30.621   4.513
29174W        W97579  13.609  33.089  14.211
29175W        W97580  24.989  16.369  11.587
29176W        W97581  21.776   7.287   0.905
29177W        W97582  24.995  33.417  12.553
29178W        W97583  33.876  18.555  12.484
29179W        W97584  26.766  28.105   4.628
29180W        W97585   2.747  27.188  14.570
29181W        W97586  11.156  27.788  12.195
29182W        W97587  11.810  24.368   1.300
29183W        W97588  19.115  27.566   4.002
29184W        W97589  11.227  30.859   4.538
29185W        W97590  21.535  30.684  14.347
29186W        W97591  13.438  16.705   0.938
29187W        W97592  17.602  39.846   3.223
29188W        W97593  15.370  30.361   0.876
29189W        W97594  17.031  27.131  12.544
29190W        W97595  30.148  26.044   0.150
29191W        W97596  36.450  33.878   2.836
29192W        W97597  18.641  27.079  11.709
29193W        W97598  16.335  21.647   0.708
29194W        W97599  33.627  25.142   4.304
29195W        W97600  39.010   5.946  14.543
29196W        W97601  13.661  19.300  12.372
29197W        W97602  24.831  29.944   2.458
29198W        W97603   0.139  14.139   0.294
29199W        W97604  28.359  29.495   0.378
29200W        W97605   0.461  39.160  12.900
29201W        W97606  11.672  37.132   1.979
29202W        W97607  12.153  14.191  10.705
29203W        W97608   4.430  22.507  13.937
29204W        W97609  39.529  29.161   2.193
29205W        W97610  14.714  26.439   9.949
29206W        W97611  40.030  40.424   2.372
29207W        W97612  28.049  17.573  12.811
29208W        W97613  32.334  12.689   0.440
29209W        W97614  22.422  28.468   3.240
29210W        W97615  40.097   3.231   2.776
29211W        W97616  13.807  38.898   1.883
29212W        W97617   8.344  41.048  13.012
29213W        W97618  27.190  39.779  14.856
29214W        W97619  15.016   5.752  13.257
29215W        W97620  44.764   1.920   0.214
29216W        W97621  24.606   4.174  13.562
29217W        W97622   3.257  13.800  11.717
29218W        W97623  15.492  30.901  14.781
29219W        W97624  28.950  25.473  12.079
29220W        W97625   4.715  36.507   3.640
29221W        W97626  13.605  12.039   4.403
29222W        W97627   7.791  24.262  12.821
29223W        W97628  34.970  14.760   3.348
29224W        W97629  31.132  35.170   4.739
29225W        W97630   8.647   3.955   3.512
29226W        W97631  20.934  41.641   4.186
29227W        W97632  30.455  44.102   0.372
29228W        W97633  13.113  27.505   4.874
29229W        W97634  18.102  16.731   1.682
29230W        W97635  38.735  29.357   4.207
29231W        W97636  19.195  17.078   0.395
29232W        W97637  36.909  11.594  12.482
29233W        W97638  33.552  34.580   2.324
29234W        W97639  20.666  20.785   2.731
29235W        W97640  16.056  42.797  13.393
29236W        W97641   6.477   4.917  12.082
29237W        W97642   4.065  20.932  11.541
29238W        W97643   4.035  30.485   2.319
29239W        W97644  14.157  36.063  14.805
29240W        W97645  15.908  33.753  14.904
29241W        W97646   5.280   2.591  12.862
29242W        W97647  39.281   5.392   2.226
29243W        W97648  22.609  13.138  12.518
29244W        W97649  24.260   6.599  12.546
29245W        W97650  38.343  39.496  14.733
29246W        W97651  15.902  12.652  13.071
29247W        W97652   1.495  22.728  14.884
29248W        W97653  20.699  13.877   1.274
29249W        W97654  17.531   3.210   3.749
29250W        W97655  31.186  23.914  10.481
29251W        W97656  35.441   7.106  14.807
29252W        W97657  24.042   4.433  10.934
29253W        W97658  31.416  21.639  14.642
29254W        W97659  11.379  17.956   3.347
29255W        W97660  20.290  35.363   3.358
29256W        W97661   4.851  35.611  13.840
29257W        W97662  22.225   8.065  14.011
29258W        W97663  13.720  16.294  13.950
29259W        W97664  44.449  31.607   4.647
29260W        W97665  37.050  43.005   4.732
29261W        W97666  11.136  18.160   0.051
29262W        W97667  37.232  35.525   2.863
29263W        W97668  13.098  38.102   1.335
29264W        W97669  40.923   3.486  13.745
29265W        W97670   2.137  40.801  13.877
29266W        W97671  28.543  30.139   2.209
29267W        W97672  43.641  19.390  13.955
29268W        W97673  33.583  32.388  12.021
29269W        W97674  41.022   4.883  10.209
29270W        W97675  36.383  32.827  11.246
29271W        W97676  15.034  35.882   0.864
29272W        W97677  19.677   0.257  11.562
29273W        W97678  17.126  10.594   1.166
29274W        W97679   7.234   2.268  11.032
29275W        W97680   7.416   3.159  10.183
29276W        W97681   7.259  43.282   4.088
29277W        W97682  19.222  31.222  13.461
29278W        W97683  40.077   2.477  13.772
29279W        W97684  41.846  35.494  12.873
29280W        W97685   1.266  39.864  13.830
29281W        W97686   9.671   5.575  12.152
29282W        W97687   6.296  26.699   0.292
29283W        W97688   1.456  44.319  10.431
29284W        W97689   5.593  17.316   1.168
29285W        W97690  17.371   8.436   4.426
29286W        W97691   0.819  25.071  14.241
29287W        W97692   0.419  43.756  12.430
29288W        W97693  16.004   8.288   4.116
29289W        W97694  40.552  15.847   2.133
29290W        W97695  21.944  38.308  12.923
29291W        W97696  30.207  14.439   0.711
29292W        W97697  13.857  18.838  13.097
29293W        W97698  29.819  44.233   2.836
29294W        W97699  11.752  38.372  11.473
29295W        W97700   3.404  20.788   2.391
29296W        W97701   1.979  42.922   3.295
29297W        W97702  39.135  40.037   3.979
29298W        W97703   7.377  38.259  13.794
29299W        W97704  10.385  18.208   2.593
29300W        W97705  19.572  31.081  14.781
29301W        W97706  17.827  36.906   1.495
29302W        W97707  37.410  27.942  11.160
29303W        W97708  40.251  44.945   1.519
29304W        W97709  32.985  39.444   4.806
29305W        W97710  30.771  33.070  13.001
29306W        W97711   2.851  44.391   1.714
29307W        W97712  39.332  17.189  10.799
29308W        W97713  12.647  39.448  11.033
29309W        W97714   8.469  41.844   2.218
29310W        W97715   0.344  42.007   0.208
29311W        W97716  38.574  33.775   3.594
29312W        W97717   5.914   2.346   1.687
29313W        W97718  10.640  22.453  11.193
29314W        W97719  27.657   5.897  14.297
29315W        W97720  20.560  42.651   1.972
29316W        W97721  22.790  14.719  12.538
29317W        W97722  13.325   9.493  13.484
29318W        W97723   3.409  40.469  14.330
29319W        W97724  19.755  38.788  14.536
29320W        W97725  35.308  44.737   1.431
29321W        W97726  40.543   4.319  13.874
29322W        W97727  38.397  18.016   3.820
29323W        W97728  21.587  27.439   4.837
29324W        W97729  31.722  14.763  12.499
29325W        W97730  42.288  34.854  13.485
29326W        W97731  13.896  31.150  13.610
29327W        W97732  30.256  24.336   1.314
29328W        W97733  37.182  39.898   0.294
29329W        W97734  26.468  35.449   4.859
29330W        W97735   2.590  23.242   3.592
29331W        W97736  19.299  21.161   4.879
29332W        W97737  30.580   6.933  11.966
29333W        W97738  37.481  21.107  13.085
29334W        W97739   0.785  13.275   4.317
29335W        W97740  20.086  28.954  12.525
29336W        W97741  33.394  25.349   2.326
29337W        W97742  30.949  32.118   2.866
29338W        W97743   6.975  34.833  12.597
29339W        W97744  40.445  36.203   0.785
29340W        W97745  42.814  32.993   4.159
29341W        W97746  12.137  35.858  14.048
29342W        W97747  34.562  41.801   1.909
29343W        W97748   3.003  26.578   4.870
29344W        W97749  28.309  16.787  11.074
29345W        W97750  37.354  16.581   2.280
29346W        W97751  39.799  40.343   3.239
29347W        W97752  33.500   1.357  12.753
29348W        W97753  32.930   1.681  12.118
29349W        W97754  37.569  32.122   3.277
29350W        W97755   6.723  18.308   4.083
29351W        W97756  32.570  25.522   3.265
29352W        W97757  23.065  14.329   1.736
29353W        W97758  30.553   2.554  11.614
29354W        W97759  37.588  20.036   2.693
29355W        W97760  24.150  17.778  14.401
29356W        W97761  15.646  44.805   1.914
29357W        W97762   9.692  42.876   2.261
29358W        W97763   9.007  17.929   1.363
29359W        W97764  29.704  24.559   3.306
29360W        W97765  16.966  26.589  12.979
29361W        W97766   5.385  42.358  14.982
29362W        W97767   4.109   4.234   2.776
29363W        W97768   9.119  23.607   1.351
29364W        W97769  41.492   3.841  12.669
29365W        W97770  21.385  42.599   2.666
29366W        W97771   4.806  38.593  10.391
29367W        W97772  23.161  18.776   2.423
29368W        W97773  10.641  43.377   2.356
29369W        W97774  30.024  13.075  13.913
29370W        W97775  35.823  28.866   2.833
29371W        W97776  33.639  31.848  12.024
29372W        W97777  23.869  11.762  11.035
29373W        W97778   4.671  38.616  10.897
29374W        W97779  44.169  16.934  14.087
29375W        W97780  30.610  18.260  12.581
29376W        W97781  36.005  24.030  13.681
29377W        W97782  41.819  19.066   1.417
29378W        W97783   3.288  36.391  13.376
29379W        W97784  21.515  16.986   3.730
29380W        W97785  37.791  42.394   4.074
29381W        W97786  16.107  38.116   2.434
29382W        W97787  23.735  35.626   3.261
29383W        W97788   0.401  10.843  12.121
29384W        W97789  44.962  14.508  13.527
29385W        W97790  18.412   3.868   1.175
29386W        W97791  35.921  30.523   4.538
29387W        W97792  23.571  23.006   4.602
29388W        W97793  34.344   4.688   3.063
29389W        W97794  42.065  25.622  11.521
29390W        W97795   9.233  18.354   5.298
29391W        W97796   3.196  43.881  10.741
29392W        W97797   8.174  13.800   0.480
29393W        W97798  25.206  19.130   0.169
29394W        W97799  12.284  17.957   0.367
29395W        W97800  39.908  34.108   3.613
29396W        W97801  43.805  12.799   4.536
29397W        W97802  11.370  42.977   2.758
29398W        W97803  37.064  39.426  13.829
29399W        W97804  14.696  24.645   4.065
29400W        W97805  25.134  19.571  14.911
29401W        W97806   4.751  28.640  14.939
29402W        W97807   0.699  28.071  11.978
29403W        W97808  28.969  40.459  11.437
29404W        W97809  13.497  10.077  11.170
29405W        W97810  43.803  23.953   0.856
29406W        W97811  26.207   3.940   2.276
29407W        W97812  40.950  33.669   0.039
29408W        W97813  24.080  25.066  13.991
29409W        W97814  27.543  22.273  12.464
29410W        W97815  36.186   7.701  13.031
29411W        W97816  38.384   1.943  14.431
29412W        W97817  38.347  20.246   2.234
29413W        W97818  16.345   0.705  14.037
29414W        W97819   2.809   3.299   4.325
29415W        W97820  25.703  30.941  14.800
29416W        W97821  27.970  40.587  10.750
29417W        W97822  14.802  32.576  14.565
29418W        W97823  31.892  41.513   4.176
29419W        W97824   1.190  36.657  12.837
29420W        W97825  20.985  23.917   3.872
29421W        W97826  39.382  11.766   2.739
29422W        W97827   2.397  19.724   4.585
29423W        W97828  34.008  18.858   1.704
29424W        W97829  39.968  21.562   0.274
29425W        W97830  29.450  11.630   3.307
29426W        W97831   6.440   7.912   1.911
29427W        W97832  33.560  17.137   4.026
29428W        W97833   4.234  29.476  12.122
29429W        W97834  32.556   4.202  13.118
29430W        W97835  15.585  10.917  11.971
29431W        W97836  31.561   8.180  11.991
29432W        W97837   1.375  25.126   4.010
29433W        W97838   3.097  23.356   3.534
29434W        W97839   9.425  29.890  12.243
29435W        W97840  12.154  20.019  13.900
29436W        W97841  29.384   2.227   3.567
29437W        W97842  20.898  36.677  12.019
29438W        W97843  12.805   4.517   5.025
29439W        W97844   3.125  30.301  11.580
29440W        W97845  44.915  16.592  13.403
29441W        W97846  12.398  19.439   4.023
29442W        W97847  38.414  36.339   0.419
29443W        W97848  44.366  44.248  10.667
29444W        W97849   2.957  16.281   3.253
29445W        W97850  44.058  11.814   2.856
29446W        W97851  36.930  40.885  11.276
29447W        W97852  23.088  37.081   2.231
29448W        W97853  32.571  41.829  13.853
29449W        W97854  31.523  43.224  12.352
29450W        W97855  37.996  21.772  12.930
29451W        W97856  24.064  25.758   2.968
29452W        W97857  29.957  27.210  10.576
29453W        W97858   9.636  42.318   1.672
29454W        W97859  11.726   3.987  14.776
29455W        W97860   2.627  37.357  12.064
29456W        W97861  16.309  42.095  12.803
29457W        W97862  18.255  20.607  11.539
29458W        W97863  12.808  15.437  14.234
29459W        W97864  37.135  30.148  13.017
29460W        W97865  35.034   7.191   4.802
29461W        W97866  33.044  44.428  14.462
29462W        W97867  43.904   2.983  12.485
29463W        W97868  10.820  41.891  10.638
29464W        W97869  25.261  26.129   0.609
29465W        W97870  33.432  14.568  14.943
29466W        W97871  29.884  31.388  14.814
29467W        W97872   9.799  25.090  11.341
29468W        W97873  21.645  43.474   1.777
29469W        W97874  29.250  32.309   3.333
29470W        W97875  26.933  14.136   4.599
29471W        W97876  11.725  24.402   2.265
29472W        W97877   2.614  22.134   2.284
29473W        W97878   3.222   1.183  14.899
29474W        W97879  17.648  40.557  14.989
29475W        W97880  15.607  32.479  11.114
29476W        W97881  41.827  21.092   1.229
29477W        W97882  22.962   9.848   1.198
29478W        W97883  15.651  12.821  12.063
29479W        W97884  32.428   8.262  13.075
29480W        W97885  11.408  24.045   1.289
29481W        W97886   6.260   2.448  12.062
29482W        W97887  42.900  11.483  10.282
29483W        W97888   8.041  44.365   4.495
29484W        W97889  43.356  24.479   3.817
29485W        W97890   8.800  22.254  14.016
29486W        W97891  22.507  43.094   0.918
29487W        W97892  10.217  33.184  12.011
29488W        W97893  37.321  19.294  13.496
29489W        W97894  28.870  25.121   3.244
29490W        W97895  28.557  29.511  10.777
29491W        W97896   9.650  30.085   3.828
29492W        W97897  29.035  20.311   4.574
29493W        W97898  16.283  34.952   1.719
29494W        W97899  15.534  19.976  13.104
29495W        W97900  16.335  26.967   2.631
29496W        W97901  33.866   2.341  10.655
29497W        W97902  34.360  35.940   1.314
29498W        W97903   1.598  41.428   3.610
29499W        W97904   1.803   9.914  14.219
29500W        W97905  32.666  22.651  12.986
29501W        W97906  27.420  11.653   2.427
29502W        W97907  20.253  28.611  12.931
29503W        W97908  14.818  12.903  10.854
29504W        W97909  39.052   0.406  12.534
29505W        W97910  13.783   9.243   2.272
29506W        W97911  40.835   2.992   2.088
29507W        W97912  12.547  14.137  11.054
29508W        W97913  17.630  37.145  12.533
29509W        W97914  29.152  31.394   1.437
29510W        W97915  14.939  34.712  10.125
29511W        W97916  30.876  30.047   3.183
29512W        W97917  33.650   7.779   0.326
29513W        W97918  25.418   8.657   4.213
29514W        W97919   6.639  34.609   4.520
29515W        W97920  13.045  31.955  11.511
29516W        W97921  40.041  25.143  10.764
29517W        W97922  43.527  29.395   1.369
29518W        W97923  13.508  20.695   1.712
29519W        W97924  17.506   4.775   1.691
29520W        W97925  43.379  40.305   2.685
29521W        W97926  38.623  42.126   3.318
29522W        W97927  31.144  31.617   5.078
29523W        W97928  19.337   0.896  13.600
29524W        W97929   3.505   4.232   1.466
29525W        W97930   1.015  19.234  14.815
29526W        W97931  10.358  44.470  11.673
29527W        W97932  31.356  31.449   2.594
29528W        W97933   2.972  43.649  12.984
29529W        W97934  19.988  31.403   4.392
29530W        W97935  33.098  33.266  12.921
29531W        W97936  33.871  29.715   1.883
29532W        W97937   5.309  39.478  10.623
29533W        W97938  36.455   4.271  13.428
29534W        W97939   7.898  35.665  11.909
29535W        W97940  37.555  37.831  14.887
29536W        W97941   7.834  39.827   3.149
29537W        W97942  18.171  15.234   2.737
29538W        W97943   1.644  10.242   0.373
29539W        W97944  10.770  12.272  14.707
29540W        W97945   2.793   8.454  13.795
29541W        W97946  24.612  30.922   2.370
29542W        W97947  27.156  16.601  14.010
29543W        W97948  13.324  21.171   3.658
29544W        W97949  20.859   0.885  13.554
29545W        W97950  14.093   4.234   2.829
29546W        W97951  34.830   2.806   4.695
29547W        W97952  36.747  44.885  13.965
29548W        W97953  35.752  43.322   0.238
29549W        W97954  44.384  18.092   0.387
29550W        W97955  36.714  34.313   1.264
29551W        W97956  35.183  24.985  11.661
29552W        W97957  40.319  34.618   0.923
29553W        W97958  20.763   5.714  14.726
29554W        W97959  36.480   7.850   0.925
29555W        W97960  31.155  29.975  12.589
29556W        W97961  28.640  27.902   3.173
29557W        W97962  24.148  41.803   2.671
29558W        W97963  25.739  38.124   1.461
29559W        W97964  35.703  11.413  10.811
29560W        W97965  13.766  11.935   0.237
29561W        W97966  32.535  34.389   2.479
29562W        W97967  43.070   2.360   4.091
29563W        W97968  32.480  43.561  14.398
29564W        W97969   0.764  33.984   0.188
29565W        W97970  11.729  17.342   3.941
29566W        W97971  43.486   9.835   2.829
29567W        W97972   4.258  15.265   0.249
29568W        W97973  37.892  20.521   0.992
29569W        W97974   5.252  12.166  10.979
29570W        W97975   7.088   9.208   2.766
29571W        W97976  37.321  15.655   4.190
29572W        W97977   9.229   4.203   3.156
29573W        W97978  12.667  27.520   4.041
29574W        W97979  16.038  24.107   0.784
29575W        W97980  21.114   0.797  10.588
29576W        W97981  42.318  24.948  14.873
29577W        W97982  32.629  35.810  13.339
29578W        W97983  13.865  42.292   2.245
29579W        W97984  31.788   9.946   0.028
29580W        W97985  10.167  11.814  12.128
29581W        W97986  16.271  39.886  14.560
29582W        W97987  15.805   3.968  12.357
29583W        W97988  42.479  22.945   0.311
29584W        W97989   7.627   0.872   3.293
29585W        W97990  40.069   9.696  11.613
29586W        W97991  23.731  14.757   3.797
29587W        W97992   9.267  40.004  14.958
29588W        W97993  27.766  19.622   0.341
29589W        W97994  10.289  20.673  10.338
29590W        W97995  31.865  24.429  13.516
29591W        W97996   0.737   1.047  14.760
29592W        W97997  11.646  31.960  12.366
29593W        W97998  20.213  11.636   2.793
29594W        W97999  29.149   3.806  11.710
29595W        W98000  17.973   9.402   2.384
29596W        W98001  35.556  18.763  13.875
29597W        W98002  33.927   4.430  14.981
29598W        W98003  41.493   7.061   0.361
29599W        W98004  33.936   3.523  14.079
29600W        W98005  24.423  43.265  12.487
29601W        W98006  20.171   4.735   2.410
29602W        W98007   3.849  25.429   4.652
29603W        W98008  36.993  41.353   3.865
29604W        W98009  15.689  12.824  11.157
29605W        W98010  26.642  22.582  12.069
29606W        W98011  42.892  23.599   1.738
29607W        W98012  26.992   3.925  11.729
29608W        W98013  34.204  28.947  11.623
29609W        W98014  27.084  25.967   4.418
29610W        W98015  29.719  12.348   0.006
29611W        W98016  28.671  20.719   1.403
29612W        W98017   0.826  24.997   1.863
29613W        W98018  36.933  32.399  12.408
29614W        W98019  28.128  31.988  13.097
29615W        W98020  29.095  36.426   3.792
29616W        W98021  18.159  13.169  14.825
29617W        W98022  23.869  29.475  14.320
29618W        W98023  15.432  43.316   0.997
29619W        W98024  32.454  32.882   1.317
29620W        W98025  11.752  41.350   3.741
29621W        W98026  18.128  21.791  10.671
29622W        W98027  41.854   4.565   3.616
29623W        W98028  30.613  34.505  14.771
29624W        W98029   4.503   8.700   0.321
29625W        W98030  14.788  12.358  12.046
29626W        W98031  17.238  27.729   4.557
29627W        W98032   9.230   5.885  13.900
29628W        W98033  36.928  23.681   0.381
29629W        W98034   3.763  11.552  12.751
29630W        W98035  41.477   3.389  11.534
29631W        W98036  30.424  42.735   0.891
29632W        W98037   0.968  29.948  11.341
29633W        W98038  24.154  25.209  11.724
29634W        W98039  30.557  34.556   4.522
29635W        W98040  37.017   5.960  14.287
29636W        W98041  25.268  21.347   1.444
29637W        W98042  32.857  20.629  11.999
29638W        W98043  37.072  33.037   1.930
29639W        W98044  12.066  36.910   1.328
29640W        W98045  26.502  18.145  14.856
29641W        W98046  20.000  20.733   3.923
29642W        W98047  24.466  14.115   1.837
29643W        W98048  10.756  16.728  11.883
29644W        W98049  30.994  24.164   0.064
29645W        W98050  26.176   4.145  11.201
29646W        W98051   3.010  30.120   1.619
29647W        W98052  20.107   1.824  14.104
29648W        W98053  19.607  37.317  12.523
29649W        W98054  37.929  33.871   4.709
29650W        W98055  24.625  29.139   2.016
29651W        W98056   2.000  22.940  13.458
29652W        W98057   9.148   1.416  12.639
29653W        W98058  36.542  44.176  12.402
29654W        W98059  34.803   1.618  12.922
29655W        W98060  32.139  21.139  12.408
29656W        W98061  33.405  40.078  12.526
29657W        W98062  33.005   5.811  13.789
29658W        W98063  33.111  15.140   4.491
29659W        W98064  25.659  25.563   4.600
29660W        W98065  22.693  39.927  11.796
29661W        W98066  26.596  32.659  14.882
29662W        W98067  11.785  42.053  12.930
29663W        W98068  22.717  26.948   0.796
29664W        W98069  22.616  20.441   0.748
29665W        W98070  12.082   9.687  13.483
29666W        W98071  29.885  37.686   4.293
29667W        W98072  35.706   2.820   0.901
29668W        W98073   8.256  27.933  11.250
29669W        W98074   3.423   9.321   0.785
29670W        W98075  28.793   2.075   0.809
29671W        W98076  25.042  37.148   4.066
29672W        W98077  18.171  16.966  11.137
29673W        W98078  32.535  31.046   4.605
29674W        W98079  35.920  16.813  14.872
29675W        W98080  22.229   0.300  12.576
29676W        W98081   4.495  38.407   2.405
29677W        W98082  35.455   4.441  12.108
29678W        W98083  34.597   4.229   3.089
29679W        W98084   5.195  11.835   2.433
29680W        W98085   5.228   1.818   0.291
29681W        W98086   4.164  14.752   3.376
29682W        W98087  34.586  28.948   0.776
29683W        W98088  33.371  17.843   2.219
29684W        W98089   0.377  28.640   3.616
29685W        W98090   6.199  34.274   3.235
29686W        W98091  12.450   3.272   3.584
29687W        W98092  28.458   0.823   3.808
29688W        W98093  36.018  42.894  13.569
29689W        W98094  15.689  44.920   1.382
29690W        W98095   3.755   0.413  14.431
29691W        W98096  30.928  39.533  10.885
29692W        W98097  34.193   0.353   2.164
29693W        W98098  19.169  21.996   0.927
29694W        W98099   5.188  35.941   3.006
29695W        W98100  24.770  15.662   4.520
29696W        W98101  15.828   1.320  13.809
29697W        W98102  38.022  32.662  14.290
29698W        W98103   6.991   5.084  14.882
29699W        W98104  29.394  34.918  13.380
29700W        W98105  18.617  23.624   3.203
29701W        W98106  35.496  32.464  13.533
29702W        W98107   8.708  19.042   0.081
29703W        W98108  17.550  22.651  12.276
29704W        W98109  36.094  29.995  14.421
29705W        W98110  14.674  33.802  14.570
29706W        W98111  36.701  27.997   1.822
29707W        W98112  40.408  26.981   1.795
29708W        W98113  31.139   8.884  10.178
29709W        W98114  27.043   0.032   4.381
29710W        W98115  32.500   8.773  13.001
29711W        W98116  28.969  27.589   0.556
29712W        W98117  18.818  14.730   3.510
29713W        W98118  32.482  29.444  10.674
29714W        W98119  28.628  29.028  12.985
29715W        W98120  39.925  18.145  14.859
29716W        W98121  39.392  16.324  13.444
29717W        W98122  43.815  39.772  13.844
29718W        W98123  13.094  39.023   3.799
29719W        W98124  25.223   6.437  14.173
29720W        W98125   5.863  11.841   0.845
29721W        W98126  11.300  44.812  11.953
29722W        W98127   3.229  32.096  12.703
29723W        W98128  42.422  19.267  12.034
29724W        W98129   5.382  39.836  14.988
29725W        W98130  15.592  21.234  10.860
29726W        W98131  17.664  19.542   4.324
29727W        W98132  39.874  26.628  13.071
29728W        W98133  16.001   5.867  10.484
29729W        W98134  31.925  29.737   2.703
29730W        W98135  17.064   7.421  12.788
29731W        W98136  21.669  36.596  12.404
29732W        W98137  11.240  44.165  14.448
29733W        W98138  22.513   0.848   2.653
29734W        W98139   8.330  42.205   3.615
29735W        W98140  14.390  20.663   2.222
29736W        W98141  26.013  31.468   2.779
29737W        W98142  43.065   2.285  14.771
29738W        W98143  15.650  13.086   3.655
29739W        W98144  36.999  41.829  12.317
29740W        W98145  34.606  42.256   1.670
29741W        W98146   7.015  24.711  12.827
29742W        W98147  28.588  14.141  12.134
29743W        W98148  18.222  14.053  13.965
29744W        W98149  33.603  18.202  10.319
29745W        W98150  32.191  19.899   1.603
29746W        W98151  28.983  29.147   2.860
29747W        W98152  38.305   7.711  14.107
29748W        W98153   0.489  12.739  13.052
29749W        W98154  39.383  38.880  11.198
29750W        W98155  26.870  14.827  11.580
29751W        W98156  39.761  14.592  11.973
29752W        W98157  35.552  43.589  13.950
29753W        W98158   8.728  24.539   1.339
29754W        W98159  23.990   2.942   0.977
29755W        W98160   4.584   8.429  11.625
29756W        W98161   2.939  30.461  12.047
29757W        W98162  19.672  26.562   1.929
29758W        W98163  12.832  31.836   3.288
29759W        W98164  38.287  13.829   4.449
29760W        W98165  38.986  30.340   1.868
29761W        W98166  19.449  33.985   0.964
29762W        W98167  20.493  35.005   3.749
29763W        W98168  26.202  42.802  12.520
29764W        W98169  41.400  10.151   1.826
29765W        W98170  37.988  39.097   4.193
29766W        W98171  17.464  10.564  13.134
29767W        W98172  18.275  20.679  13.536
29768W        W98173  44.850  21.383   1.316
29769W        W98174  42.789  39.851   1.444
29770W        W98175  12.568  27.231   3.263
29771W        W98176   2.333  25.762   3.318
29772W        W98177   8.878  15.315   0.881
29773W        W98178  21.034  30.957   0.788
29774W        W98179   4.833  37.487   1.412
29775W        W98180  30.687  22.706  14.417
29776W        W98181  15.621  20.690   1.818
29777W        W98182   2.208   6.819  12.368
29778W        W98183   1.910   3.014   2.265
29779W        W98184  24.149  26.976  10.529
29780W        W98185  25.322   1.410   3.167
29781W        W98186   6.813   7.718  13.854
29782W        W98187  21.630  27.002  12.580
29783W        W98188   9.660  20.126   3.853
29784W        W98189  32.607  26.119  12.365
29785W        W98190  34.951  20.212   3.198
29786W        W98191  32.331   5.714  11.030
29787W        W98192   9.441  28.430   3.635
29788W        W98193   5.472  44.465   1.921
29789W        W98194  21.702   7.955   3.644
29790W        W98195  17.361   1.799   3.716
29791W        W98196  18.502  17.982  12.752
29792W        W98197  26.946  38.297  11.042
29793W        W98198   4.374  32.951   3.814
29794W        W98199  34.736  15.220   4.208
29795W        W98200   7.491  13.738   3.259
29796W        W98201  20.250   9.331  14.849
29797W        W98202  37.421  32.239   4.565
29798W        W98203  31.493  39.880  12.448
29799W        W98204  20.748  15.183   0.816
29800W        W98205  27.129  25.958  13.250
29801W        W98206  16.509  28.596  10.733
29802W        W98207  10.178  42.780  10.826
29803W        W98208  29.509  28.467   1.364
29804W        W98209   1.480  35.917   3.120
29805W        W98210   2.352  17.591   2.630
29806W        W98211  11.092  17.210  13.392
29807W        W98212   2.564  10.155   4.212
29808W        W98213   1.690  38.334  12.540
29809W        W98214  28.985  41.224   3.328
29810W        W98215  25.040  15.405  11.895
29811W        W98216  22.950  39.352   2.187
29812W        W98217   9.624   8.259   5.098
29813W        W98218  33.666  29.652   4.326
29814W        W98219  43.302  21.612   4.107
29815W        W98220  24.972   2.543   0.770
29816W        W98221   4.379   0.791   4.100
29817W        W98222  27.160  40.558  13.008
29818W        W98223  37.137  22.750   0.279
29819W        W98224  16.672   7.824  14.325
29820W        W98225  37.039  27.534   1.162
29821W        W98226  34.927   9.435   1.827
29822W        W98227   0.451  40.961  14.263
29823W        W98228  37.296   7.916   3.789
29824W        W98229  44.831  27.649  11.328
29825W        W98230   6.451   7.482  13.032
29826W        W98231  10.663  28.137   2.566
29827W        W98232  28.184  38.405   1.890
29828W        W98233  42.962   6.136   3.283
29829W        W98234  29.940  29.291  13.583
29830W        W98235  43.057  20.614   3.659
29831W        W98236  27.149  15.742   4.315
29832W        W98237  38.051  34.382   4.276
29833W        W98238   1.890   9.282  14.998
29834W        W98239  41.845  12.940  13.003
29835W        W98240  43.829  35.564   4.395
29836W        W98241   6.430  28.196   0.325
29837W        W98242  41.914  24.752   3.524
29838W        W98243  41.823   8.816   2.622
29839W        W98244  40.676   5.682   2.893
29840W        W98245   5.651  39.302  12.463
29841W        W98246  24.305   4.908   0.237
29842W        W98247  33.545  15.930   3.196
29843W        W98248  27.411  30.047  12.785
29844W        W98249  23.274  25.917   3.356
29845W        W98250   5.723   4.622   2.678
29846W        W98251  22.554  25.504   1.257
29847W        W98252  28.337  12.145   1.770
29848W        W98253  36.866  37.062   0.054
29849W        W98254  10.654  26.021   0.333
29850W        W98255  42.230  42.442  14.014
29851W        W98256   2.798   2.670  11.182
29852W        W98257   3.820  43.100   3.663
29853W        W98258   3.534  19.156   0.042
29854W        W98259  29.195   9.634   4.328
29855W        W98260   7.362  13.388  12.946
29856W        W98261  12.128  37.079   4.547
29857W        W98262   8.582   7.317  14.912
29858W        W98263  22.739  40.504  13.316
29859W        W98264  27.453  41.066   3.194
29860W        W98265  36.564  40.860   0.033
29861W        W98266  19.189  21.117   4.369
29862W        W98267   5.500  11.901   3.394
29863W        W98268  20.659  32.462  11.466
29864W        W98269   2.155  14.115   1.268
29865W        W98270   2.356  32.029  12.013
29866W        W98271  34.436  31.452   2.867
29867W        W98272  16.144  38.934  10.620
29868W        W98273  16.222  12.251  10.802
29869W        W98274  32.601  17.292  12.067
29870W        W98275   1.029  13.744   3.995
29871W        W98276  36.551  31.645   3.708
29872W        W98277  36.447  21.152  11.034
29873W        W98278  22.533  36.860  14.418
29874W        W98279  21.597  13.619  13.647
29875W        W98280   5.677   4.811  13.727
29876W        W98281  27.969   3.538   0.234
29877W        W98282  16.310  43.281   2.235
29878W        W98283  42.841  30.612   2.285
29879W        W98284  11.724   3.454  13.454
29880W        W98285  21.935   4.322  11.460
29881W        W98286  37.944  34.651   2.358
29882W        W98287  11.598  17.175   4.884
29883W        W98288  13.054  37.940  13.880
29884W        W98289   7.243   3.962   4.266
29885W        W98290  26.979  31.068   0.905
29886W        W98291   3.443  38.544  13.576
29887W        W98292  28.536  33.977  13.035
29888W        W98293  43.350  19.783   1.354
29889W        W98294   6.730  25.382   0.448
29890W        W98295   5.163  44.836  12.660
29891W        W98296  43.241  38.981  12.624
29892W        W98297  33.628   0.916   4.090
29893W        W98298  32.301  37.406   4.788
29894W        W98299   2.389  12.240  14.612
29895W        W98300  13.315  22.656  14.023
29896W        W98301  32.898   0.518   0.267
29897W        W98302  11.879  35.469   0.240
29898W        W98303   1.950  32.584   0.657
29899W        W98304  26.987  42.577  12.628
29900W        W98305  23.165  13.642   3.231
29901W        W98306  11.700  30.688   0.201
29902W        W98307  30.416   0.407  13.356
29903W        W98308  18.494  36.116  14.569
29904W        W98309   7.828  41.877   0.289
29905W        W98310  44.925  22.769   2.688
29906W        W98311  13.023   8.724   1.343
29907W        W98312  29.104  23.734   3.164
29908W        W98313  31.003   6.894  11.500
29909W        W98314  28.493  37.303   1.824
29910W        W98315   6.771  27.611  10.114
29911W        W98316   2.250   9.752   4.947
29912W        W98317  39.401  36.027  14.967
29913W        W98318  11.762   3.344   1.189
29914W        W98319  36.030   2.625  14.473
29915W        W98320  15.587   5.171   2.734
29916W        W98321  15.093  25.530  10.934
29917W        W98322  23.442  20.519   0.545
29918W        W98323  27.967  24.392  11.279
29919W        W98324  32.958  41.517  13.172
29920W        W98325   3.978  29.071  13.225
29921W        W98326  15.313  42.308   2.709
29922W        W98327  24.454  34.406  11.616
29923W        W98328   5.349  26.015   1.143
29924W        W98329  30.481   8.158   3.388
29925W        W98330  27.088  42.013   3.634
29926W        W98331  39.335  35.782  12.917
29927W        W98332  21.757  39.922  11.445
29928W        W98333  27.026  14.587  12.019
29929W        W98334  21.477   5.540  13.100
29930W        W98335   3.456  23.232  10.706
29931W        W98336  43.861   3.324  12.935
29932W        W98337  44.033  10.735  12.450
29933W        W98338  34.774   7.556   2.346
29934W        W98339  20.181  14.637   2.232
29935W        W98340  25.632  30.542  12.630
29936W        W98341   4.259  33.147  10.902
29937W        W98342  14.680   9.092   1.897
29938W        W98343  24.773  23.988   2.262
29939W        W98344  37.044   9.786   3.760
29940W        W98345  41.428  43.359   3.845
29941W        W98346  12.381  29.564  11.516
29942W        W98347  35.038  43.685  13.923
29943W        W98348  16.439  44.818  12.515
29944W        W98349  25.161   0.847  12.950
29945W        W98350  32.507  22.330   0.412
29946W        W98351  16.894  36.917   3.205
29947W        W98352  22.633  35.193  12.496
29948W        W98353  40.585   8.647   4.444
29949W        W98354  35.525  19.079  14.354
29950W        W98355  17.551   5.151   5.542
29951W        W98356   4.237   5.963  13.024
29952W        W98357  28.615  16.499  10.234
29953W        W98358  33.140  12.616   2.192
29954W        W98359   2.755   7.090  12.019
29955W        W98360  20.730  21.119   0.885
29956W        W98361  23.656  24.079  14.350
29957W        W98362   9.384   7.396  11.681
29958W        W98363  29.069  22.586   2.420
29959W        W98364  39.047  17.546   0.422
29960W        W98365  13.161   4.068   0.811
29961W        W98366  31.063  22.693  10.823
29962W        W98367  15.522   3.468   1.422
29963W        W98368  38.050  37.194   2.633
29964W        W98369   7.625  41.364  11.189
29965W        W98370  10.177  22.328   3.712
29966W        W98371  41.073  17.791  12.974
29967W        W98372  25.561  40.381   0.491
29968W        W98373  43.328  25.183  12.413
29969W        W98374  43.774  18.298   4.947
29970W        W98375   9.114  35.060   3.327
29971W        W98376  23.708  13.954   2.345
29972W        W98377  33.474   8.828  10.574
29973W        W98378  30.149  17.461  13.536
29974W        W98379   7.262  24.918   2.856
29975W        W98380  28.837  21.514  11.515
29976W        W98381  37.280   9.423  13.349
29977W        W98382   5.619  36.109   2.779
29978W        W98383   7.293  10.685  11.735
29979W        W98384  39.351  16.028   0.349
29980W        W98385   7.741  15.440  13.748
29981W        W98386  18.145   7.684  11.849
29982W        W98387  37.149   8.087   2.214
29983W        W98388  35.972  30.053  11.208
29984W        W98389  36.520  17.873   2.729
29985W        W98390   4.068  13.533  12.577
29986W        W98391  28.093  25.645  12.023
29987W        W98392  34.583  17.768  13.480
29988W        W98393  22.654  10.846  10.603
29989W        W98394  44.277  41.081  11.683
29990W        W98395  11.068  10.867  13.687
29991W        W98396   2.972  29.887   2.110
29992W        W98397  37.337  20.704   4.594
29993W        W98398  29.558  27.230   1.886
29994W        W98399  27.895  16.444  14.264
29995W        W98400   1.234  14.243  13.085
29996W        W98401  31.063  43.168  12.617
29997W        W98402  31.963  22.086  13.948
29998W        W98403  40.262  11.384   3.253
29999W        W98404  18.647   4.680   0.195
30000W        W98405  15.021  28.131   0.191
30001W        W98406  27.229  12.817   0.795
30002W        W98407   7.259  11.039  14.762
30003W        W98408   5.840  11.879   4.301
30004W        W98409  39.045  10.418  12.424
30005W        W98410  10.630   6.727   1.465
30006W        W98411  36.574  22.113  12.391
30007W        W98412  24.552  20.193  12.957
30008W        W98413  34.169  30.666  11.158
30009W        W98414  23.411   4.111   4.253
30010W        W98415  26.206  26.715   1.362
30011W        W98416  39.255  33.139   1.438
30012W        W98417  26.802   9.874  11.647
30013W        W98418  24.262  13.234  13.017
30014W        W98419  11.793  29.086  10.090
30015W        W98420  10.936  21.724  12.542
30016W        W98421  15.674  27.465   2.710
30017W        W98422  18.245   1.147  14.664
30018W        W98423   4.350  34.183  14.854
30019W        W98424  42.809  30.110   2.283
30020W        W98425   9.805   7.387   3.820
30021W        W98426  11.045  24.052  12.533
30022W        W98427   7.465  11.777  13.555
30023W        W98428  38.284  35.219   0.260
30024W        W98429  18.901   8.235   4.186
30025W        W98430   0.713  20.987  12.042
30026W        W98431  24.673  11.915   0.038
30027W        W98432  25.895   9.349   4.099
30028W        W98433  25.696   1.949   3.319
30029W        W98434   6.282  41.588  10.720
30030W        W98435  11.338  15.123  14.889
30031W        W98436  34.553   6.441   4.006
30032W        W98437  22.633  31.646   1.928
30033W        W98438  38.133   5.880  13.542
30034W        W98439   6.183  25.365   4.494
30035W        W98440  17.455  43.082  14.796
30036W        W98441  12.662   5.984  14.414
30037W        W98442  43.415  24.756   4.694
30038W        W98443  20.515  37.856   4.605
30039W        W98444  44.094  28.939  12.163
30040W        W98445  18.320  23.783  12.485
30041W        W98446   2.910  35.628   2.298
30042W        W98447  18.867  34.139   3.267
30043W        W98448  35.813  39.836   3.582
30044W        W98449  22.255  17.546   3.781
30045W        W98450   3.352   5.601   1.320
30046W        W98451  27.717  18.288  14.319
30047W        W98452  26.449  32.322  10.981
30048W        W98453   0.201   6.174  11.158
30049W        W98454   1.766  15.595   2.711
30050W        W98455   5.437  24.643   2.359
30051W        W98456  34.708  11.096   3.050
30052W        W98457  36.749  31.112  13.448
30053W        W98458  20.546  10.411   0.517
30054W        W98459  17.862  19.490  14.450
30055W        W98460  15.228   4.783   4.620
30056W        W98461   1.227  14.463   3.065
30057W        W98462  14.765  39.493   4.601
30058W        W98463   6.751  30.065  11.695
30059W        W98464  41.370  29.167  12.034
30060W        W98465  11.868  40.549  12.862
30061W        W98466  10.720  18.109   0.787
30062W        W98467  28.397  30.826   4.015
30063W        W98468  37.831  37.347   4.826
30064W        W98469  12.571  25.852  12.586
30065W        W98470  20.169  14.400   5.208
30066W        W98471  12.114  18.199   1.649
30067W        W98472  25.556  18.765   1.154
30068W        W98473  33.373  19.550   3.866
30069W        W98474   7.218   7.903  13.002
30070W        W98475  33.354  13.285  12.936
30071W        W98476  22.673  22.517  13.257
30072W        W98477  27.930  34.947   4.489
30073W        W98478  11.125  11.940  12.110
30074W        W98479  40.231  10.255  14.355
30075W        W98480  32.964  35.131   0.942
30076W        W98481  35.352  44.271   3.141
30077W        W98482  22.146  35.554   4.143
30078W        W98483  12.062  28.485  11.214
30079W        W98484  23.494  27.622   1.675
30080W        W98485  39.421  10.388  11.451
30081W        W98486  21.241  36.885   2.735
30082W        W98487  10.210   0.798   3.283
30083W        W98488  18.571  27.595   2.688
30084W        W98489  40.294  30.718  14.345
30085W        W98490   9.454  15.506   2.446
30086W        W98491   1.882  15.545   3.627
30087W        W98492  29.831   3.099  13.036
30088W        W98493  11.299  19.966  11.454
30089W        W98494  21.866   9.728  10.405
30090W        W98495  37.934  25.012   4.069
30091W        W98496  31.825  32.466  13.776
30092W        W98497  23.280   6.180   2.211
30093W        W98498   4.913   9.537   4.337
30094W        W98499  24.145   5.389   1.765
30095W        W98500  23.319  14.993   0.832
30096W        W98501   7.662  36.068  11.139
30097W        W98502   8.930  36.135  11.589
30098W        W98503  26.196  29.907  13.675
30099W        W98504  35.596  28.156  11.148
30100W        W98505  41.406   3.914  10.770
30101W        W98506  12.623  12.303   3.894
30102W        W98507  13.896   3.494   3.854
30103W        W98508   2.949  27.672   1.960
30104W        W98509  15.700  18.161  14.066
30105W        W98510  36.015  29.722   1.693
30106W        W98511   2.182  42.568   0.717
30107W        W98512   5.305   9.940   2.332
30108W        W98513  21.611  20.182  13.076
30109W        W98514  11.298   8.187   0.845
30110W        W98515  29.624  11.551   4.315
30111W        W98516  39.554   2.730   4.099
30112W        W98517  34.111  32.729  13.536
30113W        W98518  17.762  31.832   0.985
30114W        W98519  19.600  29.898  11.143
30115W        W98520  33.964   9.628  13.027
30116W        W98521   6.355   4.749  11.614
30117W        W98522  33.071  12.197  13.934
30118W        W98523  15.667  41.518  11.581
30119W        W98524  13.137  34.905   3.357
30120W        W98525  27.011  10.730  13.400
30121W        W98526  22.725  44.888  14.810
30122W        W98527  33.476  42.966   2.171
30123W        W98528   2.650   8.843  11.536
30124W        W98529  27.590  37.320   1.765
30125W        W98530   8.858  40.838   4.149
30126W        W98531  20.580  44.200  12.530
30127W        W98532  34.419  10.537  14.981
30128W        W98533  29.011  13.067   1.354
30129W        W98534  34.563  43.864   2.307
30130W        W98535  43.329   7.168  13.675
30131W        W98536  14.469  33.997   4.187
30132W        W98537   8.944   1.514  13.093
30133W        W98538  43.375  12.516   2.417
30134W        W98539  22.996  41.713   4.774
30135W        W98540  14.773  43.808  11.878
30136W        W98541  36.488  10.204  14.691
30137W        W98542  12.130  25.497  12.367
30138W        W98543  37.193  31.077   1.975
30139W        W98544  28.156  18.284  10.450
30140W        W98545  35.968  25.088   4.084
30141W        W98546  40.778  36.905  11.718
30142W        W98547   6.193  30.898   4.364
30143W        W98548  13.245  41.301   3.973
30144W        W98549  15.123  13.913  12.859
30145W        W98550  42.430  35.168  14.530
30146W        W98551  39.861  32.314  12.465
30147W        W98552  43.291  15.240  11.099
30148W        W98553  33.957  31.933   1.916
30149W        W98554  22.190  35.156   4.757
30150W        W98555   1.913  16.729   0.530
30151W        W98556   3.697  44.530   3.206
30152W        W98557  24.168  32.534   1.830
30153W        W98558  32.655   3.369   3.160
30154W        W98559  15.691  35.409  13.477
30155W        W98560  28.584  40.963   3.607
30156W        W98561  19.817  37.097  14.517
30157W        W98562  32.001  25.158  14.470
30158W        W98563   3.267  37.945   0.997
30159W        W98564  25.742  12.413  12.595
30160W        W98565  35.722   5.647  10.249
30161W        W98566  23.746  20.232  11.871
30162W        W98567  21.254  25.645  12.999
30163W        W98568  39.777   3.379  11.175
30164W        W98569  26.929  35.340   5.125
30165W        W98570  10.727  42.104  11.090
30166W        W98571   3.228  43.998   1.782
30167W        W98572  14.475  38.808   2.330
30168W        W98573   6.870   0.437  14.280
30169W        W98574  14.881  21.180  10.174
30170W        W98575  23.359  20.126  10.945
30171W        W98576   2.227  28.695   2.215
30172W        W98577   0.493   4.577   4.215
30173W        W98578  19.661  42.335  12.842
30174W        W98579  11.532   3.799   5.038
30175W        W98580  40.307  29.233  11.704
30176W        W98581  26.000  34.055   2.467
30177W        W98582   2.964  28.636  11.569
30178W        W98583  28.618   7.638   2.241
30179W        W98584  39.837  39.533  12.033
30180W        W98585  22.821  26.160   1.368
30181W        W98586  27.611  33.985   2.660
30182W        W98587  33.437   9.415   4.234
30183W        W98588  16.223  13.938   2.774
30184W        W98589   5.866  15.966   9.815
30185W        W98590  23.131  34.057  14.407
30186W        W98591   9.339  22.176   0.501
30187W        W98592  34.355  36.996   0.266
30188W        W98593  11.496  26.739  12.227
30189W        W98594  21.928   1.762  11.633
30190W        W98595  24.505  28.662   2.764
30191W        W98596  21.754  24.018  13.483
30192W        W98597   6.930  29.076  11.714
30193W        W98598  16.309   5.704   0.840
30194W        W98599  16.681  37.572   0.200
30195W        W98600  32.687   5.446  10.733
30196W        W98601  27.891  15.724  13.485
30197W        W98602  30.338  44.494   0.033
30198W        W98603   9.184   7.205   0.825
30199W        W98604  22.280   6.926  13.271
30200W        W98605   9.797   9.614   3.418
30201W        W98606   1.668  19.704  13.736
30202W        W98607   3.154  11.680   1.243
30203W        W98608  32.666  25.750   1.394
30204W        W98609   6.451  37.972   1.287
30205W        W98610  29.508  43.488  11.139
30206W        W98611  31.854  29.984   1.325
30207W        W98612   4.602  13.902   2.186
30208W        W98613  44.383  37.101  12.696
30209W        W98614  26.032  15.659  12.953
30210W        W98615  19.027  10.974  11.146
30211W        W98616   2.264  34.027  11.996
30212W        W98617  14.989  34.901  14.829
30213W        W98618  17.646  28.261   1.216
30214W        W98619  27.378  10.333   4.078
30215W        W98620  38.849  17.692   0.881
30216W        W98621  15.324  12.788  10.789
30217W        W98622  24.683  11.334  14.431
30218W        W98623  37.431  26.663  14.938
30219W        W98624  24.174  33.159   2.847
30220W        W98625  31.842  43.938   3.837
30221W        W98626  23.383  36.330  14.309
30222W        W98627  39.020   0.758  12.019
30223W        W98628  30.991  26.982  14.640
30224W        W98629   1.901  42.267  11.580
30225W        W98630   1.678  10.390  12.534
30226W        W98631   9.758   2.197   1.753
30227W        W98632  16.245  25.073   5.037
30228W        W98633   5.232  44.388  13.151
30229W        W98634  14.861  12.319   1.416
30230W        W98635   5.000  39.379  13.869
30231W        W98636  10.830  14.646  11.493
30232W        W98637   2.912  42.268  13.935
30233W        W98638   8.816   2.773   2.729
30234W        W98639  12.242  40.911  14.728
30235W        W98640   2.519  33.653  10.181
30236W        W98641  41.769  39.833  13.876
30237W        W98642   9.145  12.295   2.507
30238W        W98643  40.858   3.230  12.260
30239W        W98644  43.303   8.668  14.730
30240W        W98645  34.537  11.321   0.439
30241W        W98646  34.287   2.789   4.739
30242W        W98647  43.124  14.983  14.032
30243W        W98648  41.261   5.945  12.273
30244W        W98649  43.679  18.176  10.710
30245W        W98650  37.950  29.570  13.035
30246W        W98651  17.192  41.538   1.788
30247W        W98652   2.364  39.097  13.909
30248W        W98653  41.997   6.943   3.643
30249W        W98654  31.514   8.887   1.866
30250W        W98655  38.038  43.350   0.471
30251W        W98656  28.003  35.710   1.442
30252W        W98657  15.069  31.583   4.837
30253W        W98658  16.869  38.775  11.036
30254W        W98659  35.494  11.897   0.736
30255W        W98660  12.028   6.988   3.426
30256W        W98661  16.982  26.232  12.609
30257W        W98662   3.359  38.905  13.912
30258W        W98663   8.249  37.965   4.626
30259W        W98664   9.202  33.490   0.463
30260W        W98665  37.000   3.356   2.693
30261W        W98666  24.596   2.965   2.461
30262W        W98667  38.961   3.452  12.579
30263W        W98668  12.561  18.156  14.062
30264W        W98669   7.734  17.227  14.063
30265W        W98670  24.135  17.553   1.456
30266W        W98671  39.092  15.167   0.402
30267W        W98672  21.102  32.896  12.559
30268W        W98673  10.888  39.778   0.378
30269W        W98674  42.044  13.159  13.549
30270W        W98675  43.850  42.299  14.450
30271W        W98676   4.836   9.237  13.245
30272W        W98677   9.621  37.519  10.819
30273W        W98678   0.303  12.793   0.028
30274W        W98679  42.467  15.772   0.832
30275W        W98680   5.409   6.819  14.946
30276W        W98681   1.992   6.527  11.539
30277W        W98682  33.510  36.176  12.539
30278W        W98683  34.496   4.988  13.834
30279W        W98684  10.270  10.475   2.642
30280W        W98685  25.509  26.172   1.691
30281W        W98686   7.765  28.528   3.289
30282W        W98687  10.604  35.803   2.900
30283W        W98688   1.212  23.628   4.635
30284W        W98689  16.263   3.408  13.070
30285W        W98690  37.682   8.918   2.371
30286W        W98691  36.940  26.994   4.954
30287W        W98692   3.874   9.423  11.079
30288W        W98693  25.992   1.834  10.758
30289W        W98694  13.709  34.379   2.769
30290W        W98695  30.007  21.114  10.612
30291W        W98696  14.762  19.233   2.721
30292W        W98697  40.015  42.134  12.361
30293W        W98698   3.890  30.540  14.093
30294W        W98699  11.612  11.060   1.784
30295W        W98700  12.664  16.888   1.724
30296W        W98701  14.721  18.019  11.490
30297W        W98702  20.077  18.475  13.832
30298W        W98703  15.608   7.598  12.666
30299W        W98704  30.136  20.730   2.743
30300W        W98705  16.627   1.112   2.181
30301W        W98706  12.619  22.024   3.764
30302W        W98707  39.813  32.836  13.199
30303W        W98708  12.717  33.579   5.088
30304W        W98709   7.366  26.568  14.774
30305W        W98710  24.786   5.953  10.705
30306W        W98711  34.980  15.268  13.556
30307W        W98712  38.811  16.615  14.984
30308W        W98713  19.046   5.512   2.183
30309W        W98714  38.810   1.748   1.489
30310W        W98715  12.805  26.572  14.688
30311W        W98716  31.548  42.373  12.296
30312W        W98717   2.292  36.311  11.895
30313W        W98718  33.048   7.150   4.114
30314W        W98719  28.118   4.733  13.903
30315W        W98720  15.149  10.772  14.280
30316W        W98721  28.489  33.854  11.698
30317W        W98722   9.224  34.684  13.840
30318W        W98723  10.312   0.900   4.981
30319W        W98724  23.717   2.123   2.205
30320W        W98725  12.957  30.573  11.014
30321W        W98726  43.390  13.404  13.839
30322W        W98727  30.314  11.249   1.322
30323W        W98728  32.388  27.186  12.967
30324W        W98729  24.227  43.765  13.289
30325W        W98730  21.425  23.183   0.418
30326W        W98731  16.143   5.747   1.328
30327W        W98732   8.644  17.361  14.796
30328W        W98733  17.630  11.979  11.862
30329W        W98734  44.611  10.123  12.010
30330W        W98735  13.101  44.085   4.002
30331W        W98736  15.137  39.983  13.218
30332W        W98737  31.933  11.614   1.300
30333W        W98738  21.040  10.670  14.535
30334W        W98739  24.467   7.900   1.237
30335W        W98740  24.012   3.739   0.471
30336W        W98741   0.345  32.857  13.992
30337W        W98742  39.524  25.040  10.761
30338W        W98743  34.627  24.640  11.996
30339W        W98744   0.890  42.032   3.516
30340W        W98745  44.373  32.661  14.801
30341W        W98746  10.600   4.530  12.935
30342W        W98747   1.399  44.451  11.520
30343W        W98748  23.244   3.795   2.858
30344W        W98749  32.866   6.241   4.587
30345W        W98750  21.835  20.039   3.471
30346W        W98751  17.672  16.074  14.696
30347W        W98752  38.880  36.256   2.677
30348W        W98753  25.376   0.724   0.783
30349W        W98754  37.266  44.200   1.712
30350W        W98755  33.472  36.908  11.934
30351W        W98756  16.336  12.272   1.944
30352W        W98757   4.774   6.661  11.090
30353W        W98758  35.384  13.980   4.534
30354W        W98759  41.492  29.763  14.710
30355W        W98760   2.441  21.130   1.936
30356W        W98761  31.627  20.644   2.764
30357W        W98762   1.642   1.581  14.028
30358W        W98763  42.040   2.216   0.223
30359W        W98764   0.035   8.862   0.818
30360W        W98765  13.205  27.041  14.082
30361W        W98766   7.642  18.582  11.195
30362W        W98767  28.119  34.314  14.537
30363W        W98768  32.498  38.952   4.588
30364W        W98769  16.341  35.727   1.336
30365W        W98770  18.126   4.398   3.696
30366W        W98771  28.873  35.017   1.590
30367W        W98772   1.020  40.308   4.156
30368W        W98773  39.766  30.218   0.933
30369W        W98774  32.335   0.406   0.198
30370W        W98775  24.040   3.498   4.494
30371W        W98776  32.578  10.770   2.347
30372W        W98777  38.051  36.870  10.528
30373W        W98778  25.075  39.405   3.881
30374W        W98779  38.614  27.231   2.440
30375W        W98780   6.291  40.383   5.113
30376W        W98781  29.195   4.541  14.739
30377W        W98782  13.554  21.439   2.371
30378W        W98783  21.994  30.244   1.223
30379W        W98784   4.276  44.293  14.193
30380W        W98785   4.024  36.316   2.188
30381W        W98786  24.635   3.299   2.862
30382W        W98787  39.598   1.102   4.519
30383W        W98788   0.878  41.411  10.730
30384W        W98789  16.806  13.854   4.028
30385W        W98790   2.615  20.476   0.015
30386W        W98791   9.975  17.464  14.074
30387W        W98792   1.399  37.454  13.972
30388W        W98793  36.107  23.181  14.119
30389W        W98794   8.174  34.383   3.748
30390W        W98795   7.103  10.936  12.151
30391W        W98796  26.116  26.299   4.199
30392W        W98797  36.353   7.450  11.031
30393W        W98798  18.353  35.856   3.184
30394W        W98799  40.010   5.720  14.721
30395W        W98800  26.837   8.794   1.850
30396W        W98801   8.654  24.581   0.343
30397W        W98802  24.029  30.008  13.051
30398W        W98803  21.008  19.458   2.359
30399W        W98804  20.753  30.105   1.833
30400W        W98805   3.766  19.702   3.542
30401W        W98806  10.829  13.301   1.073
30402W        W98807  20.533   0.504   0.342
30403W        W98808  25.507  38.114  11.030
30404W        W98809  17.869  26.992   3.635
30405W        W98810   7.759  23.782  12.982
30406W        W98811  24.984  38.897  14.044
30407W        W98812  33.377   7.756  12.521
30408W        W98813  37.857  33.485  11.560
30409W        W98814  24.250  23.294  14.751
30410W        W98815  12.667  24.699   3.293
30411W        W98816  17.752  42.723  13.035
30412W        W98817  34.280  12.790   4.482
30413W        W98818  26.193  19.088  14.844
30414W        W98819  18.989  34.836   0.925
30415W        W98820   0.421  41.491   4.908
30416W        W98821  10.960   8.900   3.793
30417W        W98822  36.433  26.854  11.574
30418W        W98823  20.977  16.073  10.835
30419W        W98824   8.871  15.187   4.101
30420W        W98825  16.308  21.536   2.611
30421W        W98826   4.694  25.062  14.722
30422W        W98827  35.967  31.106  11.034
30423W        W98828   2.210  23.050   3.212
30424W        W98829  26.428  43.263  12.024
30425W        W98830  15.197  16.547   2.247
30426W        W98831   2.051   3.256  14.162
30427W        W98832  16.467  13.039   3.942
30428W        W98833  13.672  24.538  12.283
30429W        W98834  21.765  14.566   2.684
30430W        W98835  17.321  34.834  14.252
30431W        W98836  32.157  36.850   2.723
30432W        W98837   1.158  30.008  12.124
30433W        W98838   1.352  30.663  11.453
30434W        W98839  16.490  36.349   4.965
30435W        W98840  20.734  39.604   0.323
30436W        W98841  34.854  23.801  11.198
30437W        W98842  24.956  39.422   1.293
30438W        W98843  43.341  25.507   0.319
30439W        W98844  12.217  44.624  12.897
30440W        W98845  23.950   2.942  14.225
30441W        W98846  11.769  28.467   5.788
30442W        W98847  23.136  17.703   2.459
30443W        W98848  23.977   1.631   2.141
30444W        W98849  16.134  41.542   0.382
30445W        W98850  15.873  15.281   2.414
30446W        W98851   9.630  16.818   2.910
30447W        W98852  43.124  19.259   3.870
30448W        W98853  22.130  33.140  11.991
30449W        W98854  35.783   3.902   3.135
30450W        W98855   0.402  36.105   1.388
30451W        W98856   1.102  17.620  13.411
30452W        W98857  43.888  11.849   3.699
30453W        W98858  26.716  36.877   1.804
30454W        W98859  34.661  21.600   2.818
30455W        W98860  31.247  15.251   1.312
30456W        W98861  31.834  34.241   3.268
30457W        W98862   5.327  23.031  14.290
30458W        W98863  38.901  38.564   1.819
30459W        W98864  30.535  32.433  13.522
30460W        W98865   0.276  16.386  10.709
30461W        W98866  11.204  13.259  14.824
30462W        W98867  26.933  14.176  14.785
30463W        W98868  44.408  43.782   2.405
30464W        W98869   6.226  30.867  13.619
30465W        W98870  29.886  19.140  10.840
30466W        W98871  37.310  10.580   1.245
30467W        W98872   1.971  32.214  11.723
30468W        W98873  23.538  25.201   0.723
30469W        W98874  30.019  19.208  11.868
30470W        W98875   0.017  25.773   4.340
30471W        W98876  21.590  28.454  14.167
30472W        W98877  30.374  44.675   2.302
30473W        W98878  25.641  25.977  13.322
30474W        W98879  19.234  39.739  12.546
30475W        W98880  40.907  20.286  14.015
30476W        W98881  31.737  30.725   1.391
30477W        W98882  23.198  28.006   0.489
30478W        W98883   0.734  27.728  10.393
30479W        W98884   5.882  30.151   3.164
30480W        W98885  21.531  44.949  14.799
30481W        W98886   7.270   3.588  12.528
30482W        W98887   9.384  36.690   2.764
30483W        W98888   0.236   0.523  10.709
30484W        W98889  32.043  13.813  13.861
30485W        W98890   7.679  35.586   3.549
30486W        W98891  17.691   6.691   2.355
30487W        W98892   9.679  41.339   2.892
30488W        W98893   2.204  31.090   2.405
30489W        W98894   3.149   7.874   0.062
30490W        W98895  21.752  23.724  13.039
30491W        W98896  42.005  12.232  10.682
30492W        W98897  18.197  38.090   1.457
30493W        W98898   3.970  38.207   0.037
30494W        W98899  29.635  29.294  11.650
30495W        W98900   1.887  29.163   0.958
30496W        W98901  14.086   2.595  14.871
30497W        W98902   5.001   1.001   2.749
30498W        W98903  20.232  38.602   4.650
30499W        W98904  44.866   6.460  10.881
30500W        W98905  38.480  43.969   1.944
30501W        W98906   9.298  14.116   1.633
30502W        W98907  28.609  37.418  10.382
30503W        W98908   6.174  20.120   3.201
30504W        W98909   9.667  15.143  12.105
30505W        W98910   3.192  25.551  12.112
30506W        W98911  27.526  20.163   0.753
30507W        W98912   7.201  25.600  10.641
30508W        W98913   3.809  25.048  14.666
30509W        W98914  13.665  35.917   1.160
30510W        W98915  11.984  10.165  12.046
30511W        W98916  22.100  43.452  11.158
30512W        W98917  27.499  41.299   1.512
30513W        W98918   3.823  10.331  11.190
30514W        W98919   4.473  39.751   3.680
30515W        W98920  17.874   7.654  14.361
30516W        W98921  44.932  27.558  13.833
30517W        W98922  34.509  27.708   1.390
30518W        W98923   3.816  36.070   2.973
30519W        W98924  28.491   8.835   3.293
30520W        W98925   6.186  24.910   1.206
30521W        W98926   7.228  34.997   3.508
30522W        W98927  12.266  23.140  13.404
30523W        W98928  12.878  41.368   2.515
30524W        W98929  37.933   9.688  13.870
30525W        W98930  10.887  28.430   5.169
30526W        W98931  40.031   6.973   1.132
30527W        W98932  25.791  42.314  10.225
30528W        W98933  31.854  10.921   4.210
30529W        W98934  38.356  35.072  14.242
30530W        W98935  20.805  41.452   0.651
30531W        W98936  37.104  38.917  13.956
30532W        W98937  43.963  24.094   4.574
30533W        W98938  28.348  42.206   4.846
30534W        W98939  25.555   4.132   4.684
30535W        W98940  34.394   1.194   3.833
30536W        W98941   2.874  26.555  12.589
30537W        W98942  11.045  31.238  13.489
30538W        W98943  12.901  12.763  12.855
30539W        W98944  11.354  21.225  14.891
30540W        W98945   0.699  23.552  10.325
30541W        W98946  39.083   9.396  13.528
30542W        W98947  24.610  21.130  10.443
30543W        W98948  33.200  36.039   4.326
30544W        W98949  36.792  27.960   0.741
30545W        W98950  22.681   5.444  11.985
30546W        W98951   3.897  44.484   4.134
30547W        W98952  42.928  42.792   4.111
30548W        W98953  39.939  28.395  10.639
30549W        W98954   6.177  36.687   4.478
30550W        W98955  40.694  21.675   3.197
30551W        W98956  41.978   6.165   3.187
30552W        W98957  12.467  40.462   0.492
30553W        W98958  41.864  21.202  12.611
30554W        W98959  24.543   2.659   2.035
30555W        W98960  21.107  37.213  11.150
30556W        W98961  26.098  10.768   4.444
30557W        W98962  36.598  23.998   0.057
30558W        W98963  37.383   1.265   3.578
30559W        W98964   2.805  21.002  13.106
30560W        W98965  42.719   4.328   0.967
30561W        W98966   4.818   6.872   0.820
30562W        W98967  30.879  39.763  14.965
30563W        W98968  31.583  36.083  11.471
30564W        W98969   5.805  42.666   2.088
30565W        W98970  14.821  11.804   2.688
30566W        W98971  16.497  22.530   4.119
30567W        W98972  14.054  31.325   5.047
30568W        W98973   3.931  11.743  14.254
30569W        W98974  26.477  37.211   1.482
30570W        W98975   9.228   4.742   2.240
30571W        W98976  21.207  42.104  13.852
30572W        W98977   1.980  23.924  14.475
30573W        W98978  29.591  31.392   2.836
30574W        W98979  18.186  44.258  13.515
30575W        W98980  25.399  13.519  14.345
30576W        W98981  24.282  42.987  14.296
30577W        W98982  38.278  39.862   2.699
30578W        W98983  43.839  11.756  10.484
30579W        W98984   4.345   8.220  10.472
30580W        W98985  39.546  37.874  12.612
30581W        W98986  25.797  38.649  14.303
30582W        W98987  33.408  12.649  13.878
30583W        W98988  23.895  34.446   2.096
30584W        W98989  34.089  38.338  14.128
30585W        W98990  21.564   0.865  14.010
30586W        W98991   7.876   5.401  13.826
30587W        W98992  31.557  15.834  13.768
30588W        W98993  14.662  16.765  12.819
30589W        W98994  14.159   2.863   2.186
30590W        W98995  15.366  38.058   1.971
30591W        W98996  35.058  33.586  12.003
30592W        W98997  24.955  31.099   0.485
30593W        W98998   9.772  41.260  14.080
30594W        W98999  28.998  34.965   4.052
30595W        W99000  23.357   1.491   3.572
30596W        W99001  15.290  30.036  10.394
30597W        W99002  16.013  15.158  11.123
30598W        W99003  33.107  30.626  14.343
30599W        W99004  21.534  34.438  12.976
30600W        W99005   5.085   9.083   5.070
30601W        W99006  15.324  33.876  13.859
30602W        W99007   2.194  10.262  13.363
30603W        W99008  20.607  19.507  14.803
30604W        W99009  41.595  12.034  13.899
30605W        W99010   3.329  37.721   3.726
30606W        W99011   1.357  10.485   2.758
30607W        W99012  43.071   0.439   1.438
30608W        W99013   9.465  21.036   1.644
30609W        W99014  18.548  40.884  10.653
30610W        W99015  40.140  41.264   9.915
30611W        W99016  39.559  23.588  12.782
30612W        W99017  26.146   5.789  14.468
30613W        W99018  27.995   2.977   3.326
30614W        W99019   0.294   7.199   1.588
30615W        W99020   1.670  32.875   2.755
30616W        W99021  23.295  33.064  12.421
30617W        W99022  37.536   7.857  10.860
30618W        W99023   6.868  36.775  13.822
30619W        W99024  33.756  44.753   2.230
30620W        W99025  44.914  12.343  14.248
30621W        W99026  42.258  26.586  13.744
30622W        W99027  25.709   7.258  12.963
30623W        W99028  16.420  11.306  10.597
30624W        W99029  10.385  36.882   2.589
30625W        W99030  29.944  16.326   3.124
30626W        W99031  29.819  14.396   4.924
30627W        W99032   4.664   7.977   3.293
30628W        W99033  31.176  39.129  10.714
30629W        W99034  39.035  34.463   4.500
30630W        W99035  39.603  36.655  13.572
30631W        W99036  27.793  38.174   4.555
30632W        W99037  37.338  11.697  14.915
30633W        W99038  13.090  10.171   4.929
30634W        W99039  44.847   9.585  14.737
30635W        W99040  16.757   4.966   0.960
30636W        W99041  40.794  34.925  14.453
30637W        W99042  19.857  12.856  11.674
30638W        W99043  16.660   4.923   3.818
30639W        W99044   6.225  41.519   1.946
30640W        W99045  35.964  15.544   2.938
30641W        W99046  30.683  43.503  12.498
30642W        W99047  35.479  15.308  14.908
30643W        W99048  35.064   9.112  12.973
30644W        W99049   1.457  21.571  10.366
30645W        W99050  35.097  44.539  14.717
30646W        W99051  11.727  25.964   2.325
30647W        W99052  36.512   4.392   3.437
30648W        W99053  41.326  34.870  11.204
30649W        W99054   4.544  11.209  12.982
30650W        W99055  11.626  34.215  12.490
30651W        W99056  30.409  35.535   4.934
30652W        W99057  33.536  20.184  14.304
30653W        W99058   7.866  18.162  12.210
30654W        W99059  16.396  39.386  11.492
30655W        W99060  12.322  19.083   1.758
30656W        W99061  26.026  38.060   2.592
30657W        W99062  12.697  37.642  11.287
30658W        W99063  34.509  26.287  10.402
30659W        W99064  40.853  10.133   2.852
30660W        W99065  34.051  21.497   1.805
30661W        W99066  25.013  10.566   1.302
30662W        W99067  31.384  25.309  14.788
30663W        W99068  30.085  15.805  13.415
30664W        W99069   6.448  14.098   1.754
30665W        W99070  37.738   9.080  11.854
30666W        W99071  15.610   0.257  14.422
30667W        W99072  29.957  25.049  14.261
30668W        W99073  15.179  26.388   0.737
30669W        W99074  41.393   7.369  12.557
30670W        W99075  28.826  22.525   4.252
30671W        W99076  36.055   6.210   0.809
30672W        W99077  25.284  16.038   2.429
30673W        W99078  18.578  38.876   1.703
30674W        W99079  36.910  30.272   3.757
30675W        W99080  29.073   7.344  12.967
30676W        W99081  28.017  42.923  12.036
30677W        W99082  23.331  16.217   4.428
30678W        W99083  38.498  41.429   4.965
30679W        W99084   5.454   7.394  11.200
30680W        W99085   1.364   3.894  11.084
30681W        W99086   4.449  25.584  10.280
30682W        W99087  29.408  12.624  11.301
30683W        W99088   7.892  41.566  12.340
30684W        W99089  13.993  12.607  13.589
30685W        W99090  36.807  21.147   1.411
30686W        W99091  19.306  20.973  13.965
30687W        W99092  30.695  34.296   4.959
30688W        W99093  30.559  30.370   1.393
30689W        W99094  28.160  35.972  13.883
30690W        W99095   1.790  39.470   3.082
30691W        W99096  16.357  34.047  13.401
30692W        W99097  18.197  31.613  12.557
30693W        W99098   7.925  12.137   4.139
30694W        W99099  33.950  10.160  14.465
30695W        W99100  36.591  19.225  11.150
30696W        W99101  17.542  29.203   3.563
30697W        W99102   2.464  24.833   4.579
30698W        W99103   5.758  26.036   0.827
30699W        W99104  12.605  33.096   4.760
30700W        W99105  36.278  38.403   4.766
30701W        W99106   8.679   8.900   1.357
30702W        W99107  31.297  29.893  10.339
30703W        W99108  26.587   1.621  13.560
30704W        W99109  42.511  44.267  14.396
30705W        W99110  33.528  25.372   0.388
30706W        W99111  11.132  24.134   3.851
30707W        W99112  16.506  41.834   3.778
30708W        W99113  44.929  37.891  12.896
30709W        W99114   2.406  35.423   2.294
30710W        W99115  39.548  35.109   4.203
30711W        W99116  15.096  20.019   0.784
30712W        W99117  36.330  36.840  11.539
30713W        W99118   9.270  15.033   5.437
30714W        W99119  41.917  26.715  14.867
30715W        W99120   3.935   0.500   4.208
30716W        W99121  31.374  27.225  11.273
30717W        W99122  32.511  34.495   3.975
30718W        W99123  44.734   2.813   2.898
30719W        W99124  39.074  27.392  14.472
30720W        W99125  24.132  32.091  13.430
30721W        W99126  20.270  10.133  10.187
30722W        W99127   7.607  42.793  12.100
30723W        W99128  13.391   9.470   1.946
30724W        W99129  20.061  33.500  10.152
30725W        W99130  27.939  38.657  14.284
30726W        W99131  31.914  42.286   3.668
30727W        W99132   9.623  14.503  10.186
30728W        W99133  36.542  23.998  13.730
30729W        W99134  20.273  26.165  11.262
30730W        W99135   8.622  19.179   4.111
30731W        W99136  34.501  25.429  11.580
30732W        W99137  39.454  14.658  11.539
30733W        W99138  12.395  22.848   0.028
30734W        W99139  17.853  13.050   1.879
30735W        W99140   3.966  30.191  11.348
30736W        W99141  40.411  11.222   2.193
30737W        W99142  33.801  40.356   4.347
30738W        W99143  24.069   1.967  12.463
30739W        W99144   5.450  13.638   2.386
30740W        W99145  43.380  41.691  14.850
30741W        W99146   0.830  24.631  13.974
30742W        W99147  30.348  38.911  14.484
30743W        W99148  34.972  15.911   3.634
30744W        W99149  29.954  11.699   3.665
30745W        W99150  20.010  20.536   0.488
30746W        W99151   1.927  17.617   0.466
30747W        W99152  43.551   2.804  13.441
30748W        W99153  27.551  33.978  11.710
30749W        W99154  24.796   6.410   1.361
30750W        W99155  17.717  11.555  12.147
30751W        W99156  31.446   5.308   0.233
30752W        W99157  14.053   7.243   1.628
30753W        W99158  44.823   0.433  12.371
30754W        W99159   7.106  20.665   4.301
30755W        W99160  28.704  37.767   4.855
30756W        W99161  44.313  19.136  12.394
30757W        W99162  16.221  30.333   4.231
30758W        W99163   0.228  29.538   3.219
30759W        W99164   4.646  30.440  11.226
30760W        W99165  34.361  26.623  14.483
30761W        W99166  37.687  25.254  13.934
30762W        W99167  12.915  36.354   4.074
30763W        W99168  24.222  21.217   0.363
30764W        W99169  24.620  37.813  13.391
30765W        W99170  10.799  27.676  11.533
30766W        W99171  41.816   3.174  13.273
30767W        W99172  41.331   1.308  11.325
30768W        W99173   3.743  17.785  12.524
30769W        W99174  24.148  36.076   0.317
30770W        W99175   2.849  14.125   1.203
30771W        W99176  28.664   3.840   1.464
30772W        W99177   4.400   9.443  14.083
30773W        W99178  32.080  12.129   3.954
30774W        W99179  40.047   3.926  12.938
30775W        W99180  30.828  29.931  11.594
30776W        W99181  13.285  30.890   0.468
30777W        W99182   9.383  38.233   2.048
30778W        W99183  38.603  43.261  12.463
30779W        W99184   2.749  11.625   2.406
30780W        W99185  20.335  42.481   2.656
30781W        W99186  13.652  28.081  12.161
30782W        W99187  41.348  10.289   2.875
30783W        W99188  30.537  18.798   3.581
30784W        W99189   3.885  33.138   4.473
30785W        W99190  14.208  26.554   2.248
30786W        W99191  17.696  42.498   3.879
30787W        W99192  24.097  32.452   3.685
30788W        W99193  22.612  30.270  11.888
30789W        W99194  13.424  29.081  12.966
30790W        W99195  32.442   7.760  13.710
30791W        W99196  36.611  10.419  12.396
30792W        W99197  31.171  10.079  11.155
30793W        W99198  43.850  26.233   0.749
30794W        W99199  39.528   9.223  12.039
30795W        W99200  23.487  25.840  14.892
30796W        W99201  38.877  31.090  11.186
30797W        W99202  15.400  27.485   4.186
30798W        W99203  19.635  31.366   0.979
30799W        W99204  40.837  14.517   1.386
30800W        W99205   7.245  20.731  11.147
30801W        W99206   1.706  28.636   0.349
30802W        W99207  16.540  26.610  11.240
30803W        W99208  23.511  23.901  14.850
30804W        W99209  10.180  38.139  11.073
30805W        W99210  23.540   9.901  13.945
30806W        W99211  35.973   1.529   2.493
30807W        W99212  43.735  19.184  11.503
30808W        W99213  11.119   4.693  14.420
30809W        W99214  18.079  34.982  13.842
30810W        W99215  14.388  27.372  14.447
30811W        W99216  28.756  29.789  11.171
30812W        W99217  19.923  23.000   1.726
30813W        W99218   8.872  32.153   3.113
30814W        W99219  18.554  40.735   1.485
30815W        W99220  17.353   7.272  10.467
30816W        W99221  39.845  37.824  14.404
30817W        W99222  29.262  10.738  11.253
30818W        W99223  16.198  25.182  13.038
30819W        W99224  27.044  17.591  11.905
30820W        W99225  22.554  20.872   0.477
30821W        W99226  26.584  34.193   4.133
30822W        W99227  32.948  44.345  10.575
30823W        W99228  25.918  43.041   4.108
30824W        W99229  12.050  44.991  14.739
30825W        W99230   9.847   9.642  12.809
30826W        W99231  14.802  30.100  10.806
30827W        W99232   7.809  33.941   1.693
30828W        W99233  13.616   3.773   0.935
30829W        W99234  34.906   6.715   3.739
30830W        W99235  15.559  31.422  14.865
30831W        W99236   9.474  35.067  12.500
30832W        W99237  15.609  36.849  11.003
30833W        W99238  35.077   7.346  13.962
30834W        W99239  44.516   0.575   4.596
30835W        W99240  31.729   1.898   4.544
30836W        W99241  33.879  22.243  12.370
30837W        W99242  25.331  24.606   1.873
30838W        W99243   8.166  21.007  10.687
30839W        W99244  21.789  36.673  14.962
30840W        W99245  42.703  22.787   1.684
30841W        W99246  37.783   0.080  12.489
30842W        W99247  22.632   2.072   3.374
30843W        W99248  41.366  32.391  14.798
30844W        W99249  15.395  14.273   4.130
30845W        W99250  29.209  37.985  12.470
30846W        W99251  43.935  22.302  12.517
30847W        W99252   2.836  23.123   0.985
30848W        W99253  17.920  14.222  14.369
30849W        W99254   9.780  40.587   1.755
30850W        W99255  28.152  12.070   3.829
30851W        W99256  14.265  37.563   2.094
30852W        W99257   8.938  35.101  13.093
30853W        W99258  13.696   0.284   2.334
30854W        W99259  17.151  17.087   4.162
30855W        W99260  12.768   2.769  12.411
30856W        W99261  17.011   6.473   4.064
30857W        W99262  12.779   1.261  13.985
30858W        W99263  42.740  14.150   3.719
30859W        W99264  36.741  13.679   0.044
30860W        W99265   2.224   7.289  12.129
30861W        W99266  44.826  16.461   1.785
30862W        W99267  35.411  20.571   1.714
30863W        W99268  20.315  18.978  14.447
30864W        W99269  21.515  13.184  12.437
30865W        W99270  17.667  17.559  13.305
30866W        W99271  10.290  31.239  12.080
30867W        W99272  19.578   5.160   2.670
30868W        W99273   8.254  12.898   1.746
30869W        W99274  27.700  28.127   4.938
30870W        W99275  25.874  43.926  13.086
30871W        W99276  40.949  25.940  14.417
30872W        W99277   5.667  37.539   1.419
30873W        W99278  16.835  11.854  12.926
30874W        W99279  32.473   8.655  10.614
30875W        W99280  12.345  31.609   3.266
30876W        W99281  42.891  32.665   0.957
30877W        W99282  28.638   6.705   4.344
30878W        W99283  27.112   7.696  13.806
30879W        W99284  14.315  30.785  14.295
30880W        W99285  25.145  13.159   3.605
30881W        W99286   3.199  27.049   3.628
30882W        W99287  17.797  39.364   0.724
30883W        W99288   1.010  34.931  12.339
30884W        W99289  12.307   9.721  10.850
30885W        W99290  15.742  12.350  14.800
30886W        W99291  31.677  18.419  13.308
30887W        W99292  39.160  33.632   4.141
30888W        W99293  15.295  12.968  12.997
30889W        W99294  20.347  20.268   3.261
30890W        W99295   1.343  17.047   1.237
30891W        W99296  23.179  36.817   0.457
30892W        W99297  28.764  23.737  12.052
30893W        W99298  44.471  39.027  10.806
30894W        W99299  10.672  18.146  14.804
30895W        W99300  34.776  40.490   4.110
30896W        W99301  27.230  19.829   1.738
30897W        W99302   6.981  13.735  14.695
30898W        W99303   8.091  35.183  14.313
30899W        W99304  44.291   6.657   1.367
30900W        W99305   1.526  20.757   1.465
30901W        W99306  44.766  21.706   0.863
30902W        W99307  14.531   9.193  12.286
30903W        W99308  35.138  32.634   2.231
30904W        W99309   7.295  26.708   1.198
30905W        W99310  12.631  31.949   2.365
30906W        W99311  37.920  21.026  13.373
30907W        W99312   7.403  26.033  10.777
30908W        W99313  21.828  43.952  14.841
30909W        W99314  38.389  29.480   3.226
30910W        W99315  20.638   0.545  14.325
30911W        W99316  43.952  20.942  11.050
30912W        W99317  27.234  31.283   2.493
30913W        W99318  18.467  36.791   4.429
30914W        W99319  39.537   6.429   0.686
30915W        W99320  11.899  24.770  13.425
30916W        W99321  42.753   6.200   1.788
30917W        W99322  31.957  18.415  11.556
30918W        W99323  42.242   3.007  12.948
30919W        W99324   3.320   2.886  14.498
30920W        W99325  12.653  17.012   1.179
30921W        W99326  34.037  13.898   3.260
30922W        W99327   6.172  10.378  12.619
30923W        W99328  33.860  28.096  14.277
30924W        W99329  18.012  39.540  14.953
30925W        W99330   9.358  14.133   9.920
30926W        W99331  28.688   8.971   1.854
30927W        W99332  16.114  35.986   2.831
30928W        W99333  37.977  32.585  10.653
30929W        W99334  11.132  18.188   4.587
30930W        W99335  19.631  23.047   2.155
30931W        W99336  37.805   8.787  13.751
30932W        W99337   7.410   5.522   3.264
30933W        W99338  10.866  21.271   1.290
30934W        W99339  16.048  36.614  11.277
30935W        W99340   5.461  43.905   2.859
30936W        W99341  38.850   2.876   4.569
30937W        W99342   3.461  27.948   2.627
30938W        W99343  33.084  11.597   4.889
30939W        W99344   2.758  11.063   0.748
30940W        W99345  12.747  32.319   2.016
30941W        W99346  44.707  34.772  13.490
30942W        W99347  40.018   4.435  13.084
30943W        W99348  13.074   7.154   2.288
30944W        W99349  25.240  41.497  11.443
30945W        W99350   3.485  29.883   1.509
30946W        W99351   1.043  43.597   0.371
30947W        W99352   7.401  11.697  11.530
30948W        W99353  19.516  19.698   3.270
30949W        W99354  30.847   7.215  12.879
30950W        W99355  11.164  29.998   4.111
30951W        W99356  15.210   3.813  11.606
30952W        W99357  14.879   0.776  11.647
30953W        W99358  15.130  15.849  10.623
30954W        W99359  30.986  16.500  12.592
30955W        W99360  19.063  11.130  12.529
30956W        W99361   1.257   3.873  13.548
30957W        W99362  41.411  15.032   1.772
30958W        W99363  37.822  36.196  11.822
30959W        W99364   6.772  23.597   1.730
30960W        W99365  21.945  28.373  10.492
30961W        W99366  22.732  44.464   2.555
30962W        W99367  30.972  38.572  12.034
30963W        W99368  25.901   8.829   4.101
30964W        W99369  21.154  42.197   0.211
30965W        W99370  13.201  30.194   1.394
30966W        W99371  15.752  18.455   1.348
30967W        W99372  14.135  19.774   0.875
30968W        W99373  35.363  23.524   2.873
30969W        W99374  32.659  23.179   1.371
30970W        W99375   0.559  19.142   0.068
30971W        W99376  33.468  10.750  13.995
30972W        W99377   3.266   4.433  10.847
30973W        W99378  42.899  30.345   2.789
30974W        W99379  12.697   2.825  14.347
30975W        W99380  40.970  21.326   2.737
30976W        W99381  43.806   2.727   1.068
30977W        W99382   5.189  23.792   0.414
30978W        W99383  37.789   0.464  12.854
30979W        W99384  31.553  40.448   2.805
30980W        W99385  27.579   7.791   2.110
30981W        W99386  12.120  20.308  11.157
30982W        W99387  28.455  20.843   1.876
30983W        W99388  33.835  30.436   2.519
30984W        W99389  15.061  13.636   0.526
30985W        W99390  37.514   3.424  11.976
30986W        W99391   3.755   2.304  14.507
30987W        W99392  29.621  42.939   1.749
30988W        W99393  11.869  24.895   3.078
30989W        W99394  38.265  22.510   1.858
30990W        W99395   8.077  26.886   2.156
30991W        W99396  43.927  10.564   0.670
30992W        W99397  30.508  22.695   4.658
30993W        W99398  34.482  42.958  11.237
30994W        W99399  31.792  26.415   1.862
30995W        W99400  25.452  11.208  13.360
30996W        W99401  32.598  22.004   1.928
30997W        W99402  25.825  28.049  10.643
30998W        W99403  11.152  22.070   2.594
30999W        W99404  13.688   4.281   3.218
31000W        W99405  33.473   7.353   1.251
31001W        W99406  21.152  43.917   2.502
31002W        W99407  35.077  32.535  14.834
31003W        W99408  12.079  40.346  13.978
31004W        W99409  42.375  10.243   4.056
31005W        W99410  13.153  37.145   3.820
31006W        W99411  22.997  17.952   1.464
31007W        W99412  27.861  42.010  11.516
31008W        W99413  10.949  29.181  11.333
31009W        W99414  26.065  30.827   0.874
31010W        W99415  36.381   8.738   3.038
31011W        W99416  14.365  24.969  14.364
31012W        W99417  38.956  39.141  10.481
31013W        W99418  18.782  26.055   4.538
31014W        W99419  38.072  16.176   2.197
31015W        W99420  30.971  25.156   1.203
31016W        W99421  36.989  12.593  14.509
31017W        W99422  29.572  32.078  10.337
31018W        W99423  40.487  21.561  12.526
31019W        W99424  15.575  25.136  10.013
31020W        W99425  12.465  25.760  12.089
31021W        W99426  26.621   2.454  10.960
31022W        W99427  22.070   3.793  11.520
31023W        W99428  16.673  39.906   3.410
31024W        W99429  34.549  15.137   1.127
31025W        W99430  12.407  40.953   1.759
31026W        W99431  10.145  39.081  12.079
31027W        W99432  22.864  25.925   9.976
31028W        W99433   9.182  21.262   4.828
31029W        W99434   7.477  11.819   1.267
31030W        W99435  28.869  23.053   4.210
31031W        W99436  25.575   1.978  13.339
31032W        W99437  30.036  23.564   4.638
31033W        W99438   1.383   3.727   3.663
31034W        W99439  13.306  38.437   0.526
31035W        W99440  16.031  30.536  14.868
31036W        W99441   7.844   7.438   0.472
31037W        W99442  25.536  21.209  10.413
31038W        W99443  31.579  10.196  14.588
31039W        W99444   0.684  14.053   2.783
31040W        W99445  33.575   4.429   3.244
31041W        W99446  36.466  28.203   2.897
31042W        W99447   2.213   7.701  12.493
31043W        W99448  20.000  28.421  12.449
31044W        W99449  44.364   7.784   0.038
31045W        W99450  36.469  12.885   0.325
31046W        W99451  22.394   6.260   2.320
31047W        W99452  14.590   0.174  13.758
31048W        W99453  13.078   9.695  12.569
31049W        W99454  44.074  23.687  14.927
31050W        W99455  40.713  21.245  14.790
31051W        W99456  35.490  13.016  14.456
31052W        W99457  40.365  29.034  13.942
31053W        W99458  39.527  21.481  13.807
31054W        W99459  14.830  29.837  10.287
31055W        W99460   3.691   4.947   2.230
31056W        W99461  13.299   4.611  11.728
31057W        W99462  30.988  16.035   3.272
31058W        W99463  21.033  41.474  11.609
31059W        W99464  17.994   1.703   0.279
31060W        W99465  26.479  21.236   4.625
31061W        W99466  20.092   5.818   1.239
31062W        W99467  36.924  37.006   2.459
31063W        W99468  14.081  21.027   1.377
31064W        W99469   9.907  20.836  14.442
31065W        W99470   6.926  43.471   0.415
31066W        W99471  22.140  16.267  13.405
31067W        W99472   6.156  17.727   4.681
31068W        W99473  20.741  19.054   0.807
31069W        W99474  17.761   8.984  13.756
31070W        W99475  35.455  31.402   0.357
31071W        W99476  17.498  27.226   0.366
31072W        W99477  35.695  40.320   2.584
31073W        W99478  20.070  42.025   2.664
31074W        W99479  11.223  42.949   4.505
31075W        W99480  40.541   5.886  10.991
31076W        W99481  44.308  11.246   1.217
31077W        W99482  20.725  12.043   3.243
31078W        W99483  20.095   2.442  11.128
31079W        W99484  25.993   1.069   4.401
31080W        W99485  27.921   1.993  13.968
31081W        W99486  20.591   5.249  14.894
31082W        W99487  12.509  11.693   0.754
31083W        W99488  43.717   2.435  11.578
31084W        W99489  43.259  22.769  13.083
31085W        W99490   4.228  14.250   2.131
31086W        W99491   8.763   7.552   0.753
31087W        W99492  26.924  30.007  12.562
31088W        W99493  10.714  30.907  11.974
31089W        W99494  32.987  35.033  11.859
31090W        W99495   0.543  16.282   3.602
31091W        W99496  42.521  27.247  12.030
31092W        W99497  13.281  17.749   4.379
31093W        W99498  22.314  32.028  13.073
31094W        W99499   6.289  10.670   2.210
31095W        W99500  30.085   6.455   0.015
31096W        W99501   8.455  25.477   2.377
31097W        W99502  38.996  34.137  13.555
31098W        W99503  24.496   9.733   4.671
31099W        W99504  17.277   5.880  12.135
31100W        W99505  23.898   4.319  11.843
31101W        W99506   0.849  26.140   4.455
31102W        W99507  19.342  42.543  12.067
31103W        W99508  16.019  37.461   4.683
31104W        W99509  24.548  34.420  12.460
31105W        W99510   7.139   6.947   3.179
31106W        W99511  28.500  16.107   5.399
31107W        W99512  33.965  32.270   4.144
31108W        W99513  20.008  28.568  14.304
31109W        W99514  10.328  20.681   4.578
31110W        W99515   2.394  20.787  10.962
31111W        W99516   2.372  37.928  14.503
31112W        W99517  10.587  23.826  10.329
31113W        W99518  31.403   4.937   1.274
31114W        W99519  43.740   3.833  13.338
31115W        W99520  22.100  17.827   2.136
31116W        W99521  30.842  39.548  11.938
31117W        W99522  12.743  22.144   1.748
31118W        W99523  19.067  16.175  12.939
31119W        W99524  14.115  29.016   1.766
31120W        W99525  35.911  40.033  12.251
31121W        W99526   9.705   2.006  14.720
31122W        W99527  11.816  38.379  12.016
31123W        W99528  13.619  24.531   4.297
31124W        W99529   1.928  35.734   2.307
31125W        W99530   1.995  31.537  14.529
31126W        W99531  40.775   5.947   1.647
31127W        W99532  28.638  14.687   0.968
31128W        W99533  13.717   8.296  10.677
31129W        W99534   0.027  19.088   3.605
31130W        W99535   1.403  13.616   0.296
31131W        W99536  19.566  42.305   4.489
31132W        W99537  17.045  35.541  13.930
31133W        W99538  23.395  42.860   2.736
31134W        W99539  27.738  25.765  12.881
31135W        W99540   7.399  12.288  13.540
31136W        W99541   5.939   5.199  10.961
31137W        W99542  15.845  16.312  13.990
31138W        W99543  19.272  32.206   0.355
31139W        W99544  23.507   6.842  12.083
31140W        W99545  33.098  11.147   4.640
31141W        W99546   2.229  36.593  11.068
31142W        W99547  20.565  17.996   4.415
31143W        W99548   6.327  25.935   1.374
31144W        W99549  40.491   7.221  12.101
31145W        W99550  15.658  10.550   1.894
31146W        W99551  17.787  32.890  11.101
31147W        W99552  36.807  39.990   1.188
31148W        W99553  25.188  26.879   2.614
31149W        W99554  13.647  29.420  13.877
31150W        W99555   5.931  21.612   2.415
31151W        W99556  18.092  30.925  11.676
31152W        W99557  10.458  27.999   3.795
31153W        W99558  32.912  31.874   4.010
31154W        W99559   4.540  10.421  13.498
31155W        W99560  12.277  23.552  14.485
31156W        W99561  23.993  33.064  13.321
31157W        W99562   6.786  10.232   2.807
31158W        W99563  17.858  38.546  11.373
31159W        W99564  28.231  28.404  10.881
31160W        W99565  22.048   2.678  14.266
31161W        W99566   6.829  11.582  10.686
31162W        W99567  44.410  22.538  14.915
31163W        W99568  40.837   0.460  13.989
31164W        W99569  11.623  24.221   0.831
31165W        W99570  14.906   7.672   3.671
31166W        W99571  20.176  23.601  11.860
31167W        W99572  43.466  34.365   1.878
31168W        W99573   9.770  30.410   0.200
31169W        W99574  21.194  31.905   4.919
31170W        W99575  42.858   2.764   1.422
31171W        W99576  32.228  31.586   1.167
31172W        W99577  25.957  24.734  10.806
31173W        W99578  14.355   7.934  12.522
31174W        W99579   2.254   3.731  14.267
31175W        W99580  23.635  15.541   3.235
31176W        W99581  26.161  20.675   1.459
31177W        W99582  41.627  37.344  11.571
31178W        W99583   1.362   2.473   4.607
31179W        W99584  22.453  15.192   3.604
31180W        W99585  13.616  18.408  14.921
31181W        W99586   9.740  25.623   1.435
31182W        W99587  31.942  13.838  12.959
31183W        W99588  34.945  24.046  13.381
31184W        W99589   5.849  32.398  12.920
31185W        W99590   5.284  26.994   2.635
31186W        W99591  33.821  28.444   1.230
31187W        W99592   4.739   1.770   2.258
31188W        W99593  18.384   9.821   4.613
31189W        W99594  33.101  11.261  12.827
31190W        W99595  13.966   2.447   1.368
31191W        W99596  15.667  26.479   1.802
31192W        W99597  22.573  17.333   4.290
31193W        W99598   5.251   9.465   3.231
31194W        W99599  31.915  35.225  14.403
31195W        W99600  43.781  38.748  11.409
31196W        W99601   0.500  41.430  12.084
31197W        W99602  34.446  18.821  14.994
31198W        W99603  41.814  27.702  13.587
31199W        W99604  38.112  40.334   0.961
31200W        W99605  18.115  30.001  10.735
31201W        W99606  18.173  16.567  12.492
31202W        W99607  29.350  14.715   0.361
31203W        W99608  32.668   7.471  12.055
31204W        W99609  22.693  24.116  12.521
31205W        W99610  36.834  18.270   2.589
31206W        W99611   7.371   5.441   4.129
31207W        W99612  36.402  25.899  14.964
31208W        W99613  13.270  27.044   4.689
31209W        W99614  21.096  44.987   4.100
31210W        W99615  44.999  43.607  14.415
31211W        W99616  41.391  38.133   4.139
31212W        W99617  15.175  23.591  13.578
31213W        W99618   8.455  13.752  14.500
31214W        W99619  33.559  36.417  14.430
31215W        W99620  10.887  19.959  12.058
31216W        W99621  13.851  38.781   1.371
31217W        W99622  12.387   1.520  14.905
31218W        W99623   5.716  38.835   0.388
31219W        W99624   2.356   4.724   4.539
31220W        W99625   5.854  35.076   4.216
31221W        W99626  28.458  34.021   1.802
31222W        W99627  34.168  43.805  12.858
31223W        W99628  29.009  28.500   2.634
31224W        W99629  18.653  29.342  10.356
31225W        W99630   6.272  15.463   0.886
31226W        W99631  11.630   5.663   2.855
31227W        W99632  22.225  19.113  10.948
31228W        W99633  39.294   6.391  10.128
31229W        W99634   2.371  22.208   0.894
31230W        W99635   7.810  43.233  14.905
31231W        W99636  25.787  39.926  10.206
31232W        W99637   9.733  17.587  11.743
31233W        W99638   3.528  35.622  12.923
31234W        W99639  13.732  42.428   3.758
31235W        W99640  16.588   0.601  13.559
31236W        W99641  40.057  20.038  12.141
31237W        W99642  32.914  29.676  11.594
31238W        W99643  36.943  40.642   2.943
31239W        W99644  26.067  24.708  13.427
31240W        W99645  19.532  37.349  14.964
31241W        W99646   4.681   7.363   2.647
31242W        W99647  10.602   1.075   1.183
31243W        W99648  42.000  30.830  13.093
31244W        W99649  42.775   2.491   3.683
31245W        W99650  37.827  26.245  12.482
31246W        W99651   4.109  31.363   3.575
31247W        W99652  33.319  20.324   4.094
31248W        W99653  22.194   2.489   2.324
31249W        W99654  29.650  29.493  13.147
31250W        W99655   8.633  15.270   3.539
31251W        W99656  33.169  19.735   4.756
31252W        W99657   2.459   1.278  14.435
31253W        W99658  28.631  15.593   5.037
31254W        W99659  18.788  22.464   2.639
31255W        W99660  14.746  13.378   3.308
31256W        W99661  35.579  26.410  14.787
31257W        W99662  35.062  21.129  11.576
31258W        W99663   4.783  33.535   5.061
31259W        W99664  22.709   4.953  12.190
31260W        W99665  16.221  33.650   2.185
31261W        W99666  36.485  12.361   0.317
31262W        W99667  13.274   3.011   5.137
31263W        W99668  40.868  26.017   3.867
31264W        W99669  43.424  19.493   3.034
31265W        W99670  17.798  14.040  12.379
31266W        W99671   4.232  28.953  11.991
31267W        W99672  23.920  16.705   0.753
31268W        W99673   8.602   0.873   0.852
31269W        W99674  24.677  33.026  10.910
31270W        W99675  33.452  32.979  13.161
31271W        W99676   1.949  29.173  10.824
31272W        W99677  28.477  13.955   0.029
31273W        W99678  38.868  18.848   4.745
31274W        W99679  13.691  36.488  12.170
31275W        W99680  40.544  10.935  13.468
31276W        W99681  33.694  39.038  10.515
31277W        W99682  14.220   6.612   0.384
31278W        W99683  43.336  41.631  11.606
31279W        W99684   4.764   2.880  14.864
31280W        W99685  28.481  41.836  13.088
31281W        W99686  25.284   3.361   0.029
31282W        W99687  21.751  37.585   3.035
31283W        W99688  41.806  40.772   1.680
31284W        W99689  29.659  21.186  11.456
31285W        W99690  40.213  12.757  14.566
31286W        W99691   8.895  38.487  12.694
31287W        W99692   4.507  37.447  14.526
31288W        W99693  28.047  37.320   3.207
31289W        W99694  43.106  44.924   1.744
31290W        W99695  43.349  31.984  13.284
31291W        W99696  27.361  23.656   3.004
31292W        W99697   4.250  38.504  13.004
31293W        W99698  21.123   3.219   3.232
31294W        W99699  35.082  32.167  11.205
31295W        W99700  33.068   6.668  11.631
31296W        W99701  23.697  18.843  11.894
31297W        W99702  13.164  41.773   4.292
31298W        W99703  38.577  44.916   4.557
31299W        W99704  27.213  44.587  13.997
31300W        W99705  33.244  14.778  11.790
31301W        W99706  10.884  42.975   2.126
31302W        W99707   5.379  39.297  14.207
31303W        W99708   8.637  21.173   5.013
31304W        W99709  12.774  18.713   3.734
31305W        W99710  40.222  16.744  12.391
31306W        W99711  24.980  22.454  12.451
31307W        W99712  12.846  33.940   3.431
31308W        W99713  14.555  23.494   2.284
31309W        W99714  32.971  15.313   0.633
31310W        W99715  32.937  12.236   4.154
31311W        W99716  13.166  34.078  14.800
31312W        W99717  20.290  40.229  12.461
31313W        W99718  13.523  37.762  13.796
31314W        W99719  42.318   4.150  12.397
31315W        W99720  20.111  21.694   0.570
31316W        W99721  24.740   9.239   4.760
31317W        W99722  30.531  40.091  12.599
31318W        W99723  31.060  10.502  12.555
31319W        W99724  37.401  26.816  11.422
31320W        W99725  38.372   5.235   3.974
31321W        W99726   7.576   2.887   1.382
31322W        W99727   2.984  40.068   1.855
31323W        W99728  28.592  26.055  12.418
31324W        W99729   7.452  35.907  10.706
31325W        W99730   1.503   1.186   4.131
31326W        W99731  22.997  27.606  11.994
31327W        W99732  27.353  40.551   3.013
31328W        W99733  42.018  28.619  11.501
31329W        W99734  25.667  30.708   4.961
31330W        W99735  29.873  24.485  11.531
31331W        W99736  39.044   7.104   0.289
31332W        W99737  11.822   8.111   1.342
31333W        W99738  20.999  15.888  13.041
31334W        W99739   4.366   1.369   4.420
31335W        W99740  36.639  21.650   2.884
31336W        W99741  33.357  41.772  13.374
31337W        W99742   8.680   1.699  12.679
31338W        W99743  27.321   1.246  11.567
31339W        W99744  25.973   1.962  11.272
31340W        W99745   6.756  39.607  14.053
31341W        W99746   6.170  22.958   4.954
31342W        W99747  15.727   2.280  14.061
31343W        W99748  17.097  43.505  12.896
31344W        W99749  27.084   4.489   4.511
31345W        W99750   4.805  33.941   3.843
31346W        W99751  22.613  37.705  13.697
31347W        W99752  30.878  30.129   0.971
31348W        W99753  13.049  37.156   0.807
31349W        W99754  28.459  19.156   4.975
31350W        W99755  39.265  16.052  13.863
31351W        W99756  13.026  34.450  14.366
31352W        W99757  17.251  13.238  13.419
31353W        W99758  17.755  13.334  11.204
31354W        W99759  23.381  23.252   2.477
31355W        W99760   8.077  35.947   1.893
31356W        W99761  34.233  33.027   1.005
31357W        W99762  12.637  38.811  11.592
31358W        W99763  29.607  42.351   2.820
31359W        W99764   1.988   4.388   0.393
31360W        W99765  31.107  36.911   0.718
31361W        W99766  27.210  16.279   2.676
31362W        W99767   5.834   3.785   1.548
31363W        W99768  33.996  41.546   3.320
31364W        W99769  37.014   8.360  10.461
31365W        W99770   6.942  23.717   2.897
31366W        W99771  23.467  39.515  12.936
31367W        W99772  35.836   9.688   3.196
31368W        W99773   0.489  25.476  12.052
31369W        W99774  12.852  20.057   0.691
31370W        W99775   3.168  27.000  11.383
31371W        W99776  29.930   5.371  12.420
31372W        W99777  21.469  19.244   2.504
31373W        W99778  27.940  42.326   3.412
31374W        W99779  11.604  38.435   4.530
31375W        W99780  30.057   0.802  13.813
31376W        W99781  26.342   8.742   1.776
31377W        W99782  28.104  25.574   3.357
31378W        W99783   1.204   5.813   1.093
31379W        W99784  36.287  20.561   1.126
31380W        W99785  37.475  20.279   0.822
31381W        W99786  18.652  33.017  11.529
31382W        W99787  11.429  43.801  11.095
31383W        W99788  44.346   8.175   4.891
31384W        W99789  26.548  38.085   3.297
31385W        W99790  11.636  20.590   0.976
31386W        W99791  16.248  29.565   1.749
31387W        W99792   5.467  12.262   2.252
31388W        W99793  34.350  44.313   4.490
31389W        W99794  27.144  17.559  14.948
31390W        W99795   8.453  44.746  13.904
31391W        W99796  29.447   5.204  10.373
31392W        W99797  18.408  17.747   3.136
31393W        W99798  26.042  26.865   0.319
31394W        W99799  20.381  18.728  13.501
31395W        W99800  27.144   9.209   3.855
31396W        W99801   7.883  16.325  13.342
31397W        W99802  21.544  26.405   1.039
31398W        W99803  34.084  18.577   0.311
31399W        W99804  20.079   3.367  14.769
31400W        W99805  36.106   5.270  10.095
31401W        W99806  33.375  14.750   4.213
31402W        W99807  44.969  16.335   4.641
31403W        W99808  25.725  28.375  11.069
31404W        W99809  25.449  40.469  13.068
31405W        W99810  27.132   1.496  11.115
31406W        W99811  36.921  16.053  12.520
31407W        W99812  19.207   1.857  14.404
31408W        W99813   3.809  37.056  10.876
31409W        W99814  18.751  12.869  10.887
31410W        W99815  41.818  30.128  11.160
31411W        W99816  18.831  14.301   4.731
31412W        W99817  15.548   8.616   1.598
31413W        W99818   5.041  18.523  13.971
31414W        W99819  41.783  42.485  10.669
31415W        W99820  43.327  43.261  14.787
31416W        W99821  21.461  21.199  12.926
31417W        W99822  14.703  44.352  14.530
31418W        W99823  11.155  16.337  14.275
31419W        W99824  33.977  21.642  10.333
31420W        W99825  19.355  31.068   2.757
31421W        W99826   0.836   3.530  13.462
31422W        W99827  10.646  29.950  12.945
31423W        W99828  26.996  16.703   2.894
31424W        W99829   3.951  41.517  11.121
31425W        W99830  26.456   6.950   1.468
31426W        W99831   3.327  40.463  10.714
31427W        W99832   5.818  39.150  13.297
31428W        W99833  17.200   1.495   2.807
31429W        W99834  40.501  22.492   1.370
31430W        W99835  42.520  13.904   3.175
31431W        W99836   0.564  25.791   2.717
31432W        W99837  38.124  18.393   4.116
31433W        W99838  40.098  36.062  11.572
31434W        W99839  10.379  32.464   4.604
31435W        W99840   5.865  20.451  10.830
31436W        W99841  17.513  15.548   1.398
31437W        W99842   9.369  41.245   0.803
31438W        W99843   7.166  35.661   2.156
31439W        W99844  37.523  14.105  12.918
31440W        W99845   6.709  43.534   2.686
31441W        W99846   6.768   0.787  13.487
31442W        W99847  40.498  26.477  13.866
31443W        W99848  26.225   6.390  11.020
31444W        W99849  29.163   7.094   4.321
31445W        W99850  14.073  44.978  12.048
31446W        W99851  15.581  30.319  11.548
31447W        W99852  22.559   1.990  14.979
31448W        W99853   4.259  23.654   2.276
31449W        W99854  31.453  41.291   0.320
31450W        W99855   9.321   8.495  13.564
31451W        W99856  31.484  38.783  11.970
31452W        W99857  19.457  35.563  13.910
31453W        W99858  32.343  13.369  13.801
31454W        W99859   8.623  13.826  11.634
31455W        W99860  42.606  41.005  12.978
31456W        W99861   1.813  41.337  10.699
31457W        W99862  33.910  26.992  12.818
31458W        W99863  44.145  13.139   4.154
31459W        W99864  12.778  11.618  12.233
31460W        W99865   8.938   4.066  14.559
31461W        W99866  28.102  34.487   0.980
31462W        W99867  27.611  22.302   0.424
31463W        W99868   7.853   9.164  10.693
31464W        W99869  38.027   0.472   0.336
31465W        W99870   0.433  15.188   2.356
31466W        W99871  28.998  18.026  11.496
31467W        W99872  14.128  41.977   3.276
31468W        W99873  31.348  32.390  13.990
31469W        W99874   3.237   9.283   0.279
31470W        W99875   2.756   2.180  13.031
31471W        W99876   4.255  14.882  14.879
31472W        W99877   7.613  11.836  10.700
31473W        W99878  33.598   4.751   3.710
31474W        W99879  23.531  14.171  12.473
31475W        W99880  38.718   9.839   4.589
31476W        W99881  18.744   9.726  13.795
31477W        W99882  39.056  43.330   3.685
31478W        W99883  14.409   5.323  11.048
31479W        W99884  18.285  31.782   0.008
31480W        W99885  11.226  43.476  10.757
31481W        W99886  13.407  10.279  10.299
31482W        W99887  16.611  23.845  13.293
31483W        W99888   1.315  24.883   2.390
31484W        W99889  43.762  38.474   4.343
31485W        W99890   4.228  26.859  12.082
31486W        W99891  16.204  12.922  14.399
31487W        W99892  14.020  32.557   5.504
31488W        W99893  19.750   7.001   1.865
31489W        W99894  12.651   2.629   5.013
31490W        W99895   8.145  25.293  13.807
31491W        W99896   2.315  26.933  10.614
31492W        W99897  37.285  18.682   2.691
31493W        W99898  10.208  12.851   3.619
31494W        W99899  11.658   2.933  13.157
31495W        W99900  37.034   4.956  11.531
31496W        W99901  12.094  41.325  13.613
31497W        W99902  24.870  26.928  14.956
31498W        W99903  13.681  28.599  13.043
31499W        W99904  33.264  42.052   3.606
31500W        W99905   4.877  23.214   4.097
31501W        W99906   0.302  25.760  13.066
31502W        W99907  35.934  14.625   4.850
31503W        W99908  35.670   8.328  11.623
31504W        W99909  44.888  39.583  13.138
31505W        W99910  43.394  36.082   4.729
31506W        W99911  32.460  11.715   4.047
31507W        W99912   3.722  37.216  11.901
31508W        W99913  26.068  15.781   0.368
31509W        W99914  11.405   7.452  14.298
31510W        W99915   6.107  33.632  12.655
31511W        W99916  28.122  13.310  12.100
31512W        W99917  13.888  33.499  14.270
31513W        W99918  35.513   1.879   4.536
31514W        W99919  16.452  35.704   9.720
31515W        W99920   0.250  19.661  10.684
31516W        W99921  14.681   7.732   0.196
31517W        W99922  40.264  16.024  13.981
31518W        W99923  28.046  34.474  11.181
31519W        W99924  29.773  24.424  12.387
31520W        W99925  18.591  14.897  12.062
31521W        W99926  13.576  39.385  11.533
31522W        W99927  22.944  32.384  10.655
31523W        W99928  35.300  13.542  10.768
31524W        W99929   7.313  15.799  11.183
31525W        W99930   4.922  36.075   2.518
31526W        W99931  26.529  29.620  11.997
31527W        W99932  44.923  29.480  14.530
31528W        W99933  36.321   8.093  12.302
31529W        W99934  37.662  23.530  13.417
31530W        W99935  38.196   9.246  11.665
31531W        W99936  12.058  31.882  11.507
31532W        W99937  35.939  16.042   4.274
31533W        W99938  13.612  37.074   2.682
31534W        W99939  29.185  40.314   3.202
31535W        W99940  40.391   6.369   2.691
31536W        W99941   2.320  13.030  13.814
31537W        W99942  13.714  21.160   2.790
31538W        W99943  37.356  33.197  13.501
31539W        W99944   2.031  37.825   1.401
31540W        W99945  12.347  17.460   0.485
31541W        W99946  41.899  19.112   4.052
31542W        W99947  44.293  12.353  11.606
31543W        W99948  30.415  23.874  13.967
31544W        W99949  30.692  22.186  12.809
31545W        W99950  14.611  23.488   1.454
31546W        W99951  40.788  10.259  13.867
31547W        W99952  40.559  10.779   4.474
31548W        W99953  31.565  32.695  11.981
31549W        W99954  38.149  30.413  11.667
31550W        W99955  34.040   3.772   2.223
31551W        W99956  25.383  28.633   2.232
31552W        W99957  44.351  13.085  12.881
31553W        W99958  37.307  28.000   1.073
31554W        W99959   6.790  22.010  12.129
31555W        W99960   3.499  10.645  13.426
31556W        W99961   4.469  23.615   1.165
31557W        W99962  21.206  14.150   0.021
31558W        W99963  17.019  36.591   4.851
31559W        W99964  18.740  16.750   0.579
31560W        W99965  41.726   0.273  11.676
31561W        W99966  16.564  27.398   2.914
31562W        W99967   2.250   3.744   4.429
31563W        W99968  36.119  40.483  10.462
31564W        W99969  28.926  33.562   4.145
31565W        W99970   1.909  31.755  11.522
31566W        W99971  16.356   4.473  10.647
31567W        W99972   4.233  35.114  12.090
31568W        W99973   7.334  25.080  14.282
31569W        W99974  35.864  11.748   2.885
31570W        W99975  25.865  21.078   4.520
31571W        W99976  41.329  43.460  12.020
31572W        W99977  43.444  31.100   2.639
31573W        W99978  10.393  10.780  14.808
31574W        W99979   2.922  36.891   0.153
31575W        W99980  15.210  36.735   1.318
31576W        W99981  37.449  43.919   0.910
31577W        W99982  17.237  41.568   4.823
31578W        W99983  27.519  31.797  10.939
31579W        W99984  40.374  40.505   0.256
31580W        W99985  35.053  36.355   3.728
31581W        W99986   4.800   0.029   4.576
31582W        W99987  19.326  40.484   3.680
31583W        W99988  11.615  15.743  13.704
31584W        W99989   4.461  37.581   4.403
31585W        W99990  22.341   2.339  12.597
31586W        W99991   8.982  15.615   3.345
31587W        W99992   5.967  37.436   4.547
31588W        W99993  24.519  34.148  14.186
31589W        W99994  27.842  37.246  14.481
31590W        W99995  23.425   3.217   3.955
31591W        W99996  43.733   9.222   2.241
31592W        W99997  33.905   8.578  10.726
31593W        W99998   5.376  38.489   3.737
31594W        W99999  25.655   5.729  13.089
31595W        W    0  42.003  30.122   4.391
31596W        W    1  27.943  35.888   0.909
31597W        W    2  38.936  19.356   4.954
31598W        W    3  11.793   5.887   3.340
31599W        W    4  36.191  23.301   0.770
31600W        W    5  41.103  18.670   3.215
31601W        W    6  37.153  34.886  10.611
31602W        W    7  26.428  28.846  10.911
31603W        W    8  35.648   2.438  12.895
31604W        W    9  36.149  37.376   0.755
31605W        W   10  19.503  14.704  13.998
31606W        W   11  12.360   4.689   4.820
31607W        W   12   2.918  14.881   2.277
31608W        W   13  21.296  21.740   4.228
31609W        W   14  17.315  34.634   0.462
31610W        W   15   4.799  27.644   3.589
31611W        W   16  32.089  38.932  12.110
31612W        W   17  29.105  18.971   0.529
31613W        W   18   5.197  24.606  12.087
31614W        W   19  39.976  15.548  12.567
31615W        W   20  28.260  13.517  14.816
31616W        W   21  30.937   2.250   4.536
31617W        W   22  27.977  26.419   4.423
31618W        W   23  26.875  39.580   4.520
31619W        W   24   1.527   5.045  14.838
31620W        W   25  36.915  40.860  12.586
31621W        W   26   4.172  17.224  14.841
31622W        W   27  43.937   0.837  13.519
31623W        W   28  39.643  24.541  12.452
31624W        W   29  22.029   1.028   4.205
31625W        W   30   1.209  35.852   3.562
31626W        W   31  16.467  31.101  12.281
31627W        W   32  36.063  15.607  14.249
31628W        W   33   4.226   7.535   1.812
31629W        W   34  13.741  34.775  14.811
31630W        W   35   0.571   9.875  14.408
31631W        W   36  13.830   9.334  11.531
31632W        W   37  24.915   5.904   1.425
31633W        W   38  28.369   1.281  12.667
31634W        W   39  39.330   1.272   0.226
31635W        W   40  33.121  42.943   1.383
31636W        W   41   7.276  30.035   0.985
31637W        W   42  30.221  32.520   4.589
31638W        W   43  22.224  21.800   3.855
31639W        W   44   3.564  30.015  11.661
31640W        W   45  44.662  28.508  12.578
31641W        W   46  32.411  19.283  13.104
31642W        W   47  33.683  26.651  10.174
31643W        W   48   2.279  18.182   2.019
31644W        W   49  31.846  10.285   5.040
31645W        W   50   4.905  25.087   0.179
31646W        W   51  10.323  17.266   3.924
31647W        W   52  33.796  32.084  13.054
31648W        W   53  35.705   3.216  12.494
31649W        W   54  22.751   8.774  13.956
31650W        W   55  11.747  19.734   0.497
31651W        W   56  43.452  33.035   3.442
31652W        W   57  35.885  15.624   1.923
31653W        W   58  11.382   3.672   1.315
31654W        W   59  14.033  13.756  10.754
31655W        W   60  31.456  40.428  13.459
31656W        W   61  26.171  16.048   1.257
31657W        W   62  37.776   7.675   4.979
31658W        W   63  33.508  17.069  12.558
31659W        W   64  24.510  26.607   0.449
31660W        W   65   9.193  26.578  13.445
31661W        W   66  24.175   6.449  14.321
31662W        W   67  38.493  34.135   0.802
31663W        W   68  28.099   6.349   1.380
31664W        W   69   7.415   4.306   4.601
31665W        W   70  38.610   0.984   2.476
31666W        W   71  14.356   9.943  14.256
31667W        W   72  13.328  37.151   4.831
31668W        W   73  13.858   6.858  10.699
31669W        W   74  17.573  41.701   3.033
31670W        W   75  32.974  36.002   0.693
31671W        W   76  14.237  34.100   1.727
31672W        W   77  26.189   5.751  13.142
31673W        W   78  31.553  30.379  12.565
31674W        W   79  44.396  38.384   0.417
31675W        W   80  40.235  23.686   1.859
31676W        W   81  10.673  35.804   3.679
31677W        W   82  41.672  18.392  14.914
31678W        W   83  43.910   2.603   2.050
31679W        W   84  26.459   8.883  13.175
31680W        W   85  16.703  43.809  12.076
31681W        W   86  12.919  31.222  13.369
31682W        W   87  37.443  19.546  10.537
31683W        W   88   0.724   3.307   0.032
31684W        W   89  38.364   8.670  12.506
31685W        W   90  27.103  38.764  13.528
31686W        W   91  21.074  36.386  12.758
31687W        W   92  25.968  29.155  11.521
31688W        W   93  29.513  22.698  13.451
31689W        W   94  33.131  22.157  12.203
31690W        W   95  43.591  15.538  10.257
31691W        W   96  28.025  44.204  14.451
31692W        W   97   8.398  44.939  11.153
31693W        W   98  42.399  27.159  14.426
31694W        W   99   1.199   2.680   1.787
31695W        W  100  24.911  31.384   1.873
31696W        W  101  29.736  24.898  14.739
31697W        W  102   3.530  31.725  10.718
31698W        W  103  30.369  24.934  12.200
31699W        W  104  21.646   0.988  10.245
31700W        W  105  40.397  37.957   1.318
31701W        W  106  12.511   3.782   9.926
31702W        W  107   2.333  34.615   1.890
31703W        W  108  14.617  25.161  10.263
31704W        W  109   0.009  16.324   3.654
31705W        W  110  38.958  19.728  10.977
31706W        W  111  41.395  35.958  11.851
31707W        W  112  12.530  17.071  12.421
31708W        W  113  12.657   2.291   2.874
31709W        W  114  15.308  42.558  12.117
31710W        W  115   3.385  27.359   1.785
31711W        W  116   1.416  44.372  13.367
31712W        W  117  41.709  37.778   2.687
31713W        W  118  38.718  30.858   4.260
31714W        W  119  13.685  18.547   4.251
31715W        W  120  33.895  39.971  13.316
31716W        W  121   8.108  13.101   4.839
31717W        W  122  23.205  34.971   2.391
31718W        W  123  32.944  32.737  14.337
31719W        W  124   4.363   4.702   5.174
31720W        W  125  23.269   7.542  12.868
31721W        W  126  11.791  21.738   0.457
31722W        W  127  28.739  35.113   2.816
31723W        W  128  33.453  22.993  13.408
31724W        W  129  28.247  30.193   1.030
31725W        W  130   9.743  43.082   0.542
31726W        W  131  18.350  14.137  10.764
31727W        W  132   5.979  41.837   0.937
31728W        W  133  21.028  13.832  10.656
31729W        W  134  25.510  44.993  11.327
31730W        W  135  32.037  11.562  11.404
31731W        W  136  44.750  29.871   0.447
31732W        W  137  29.968  22.292   4.201
31733W        W  138  36.936  22.605  11.651
31734W        W  139  32.032  13.113   4.582
31735W        W  140  41.393  42.353  14.796
31736W        W  141   5.382   0.586  13.021
31737W        W  142  35.949  33.895   0.200
31738W        W  143  20.619  32.612   4.246
31739W        W  144  37.547  13.623  12.717
31740W        W  145  16.912  22.027   1.850
31741W        W  146  13.306  12.679   0.135
31742W        W  147  33.362   1.257  13.226
31743W        W  148   6.809   9.363   4.246
31744W        W  149  22.434  37.143   2.194
31745W        W  150   9.177  11.242  14.462
31746W        W  151   2.766  28.101  12.481
31747W        W  152  41.780   3.268  14.366
31748W        W  153  41.529  12.958  12.609
31749W        W  154  29.684  38.417  14.713
31750W        W  155  29.503   6.235   3.816
31751W        W  156  12.657  34.086   5.194
31752W        W  157  21.112  31.498  10.658
31753W        W  158  39.334  19.291   4.610
31754W        W  159  13.505  42.180   4.163
31755W        W  160  38.604  13.156   3.742
31756W        W  161  36.295  35.049   3.849
31757W        W  162   5.399  44.142  14.795
31758W        W  163  35.945  29.913   2.176
31759W        W  164  13.782  44.908   3.185
31760W        W  165   8.869  25.583   2.655
31761W        W  166   9.901  42.555  11.203
31762W        W  167  40.912  28.171   2.690
31763W        W  168  10.682  36.490   2.300
31764W        W  169   5.735  41.965  14.467
31765W        W  170  22.598  41.200   1.723
31766W        W  171   5.895  15.202  12.039
31767W        W  172  37.920  18.499  12.401
31768W        W  173  28.729   7.882   3.213
31769W        W  174  41.494   3.468   1.454
31770W        W  175   6.857  31.986  11.161
31771W        W  176  22.598   3.299  14.020
31772W        W  177  30.769  34.599  10.617
31773W        W  178   2.320  19.291   4.896
31774W        W  179  15.308  43.882   3.911
31775W        W  180  25.773   0.023  13.866
31776W        W  181  12.853   7.843  14.462
31777W        W  182  21.712   2.202   3.731
31778W        W  183  38.156  31.016   3.453
31779W        W  184  27.055  38.272  12.635
31780W        W  185   3.398  34.426   4.802
31781W        W  186  13.527  13.813  10.805
31782W        W  187  37.787  39.381  13.005
31783W        W  188  36.520  35.650  11.674
31784W        W  189  11.593  10.416  14.949
31785W        W  190  30.973  20.689   4.644
31786W        W  191  43.326   7.705  13.041
31787W        W  192  26.654  13.580   1.210
31788W        W  193  35.366  27.486   4.661
31789W        W  194   5.899  36.387  13.788
31790W        W  195   8.268  28.495   2.335
31791W        W  196  33.822   2.432   1.988
31792W        W  197  10.219  27.018  12.538
31793W        W  198  28.363  39.144   3.063
31794W        W  199  18.551  28.443  10.916
31795W        W  200   1.028  28.959  11.610
31796W        W  201   4.245  27.977  12.051
31797W        W  202   8.558  40.205   3.668
31798W        W  203   1.647   6.912  11.421
31799W        W  204  15.076  24.278   4.118
31800W        W  205  40.263  32.348   0.782
31801W        W  206  41.509  35.127   2.765
31802W        W  207  19.604  42.586   3.608
31803W        W  208  23.729  25.777   1.743
31804W        W  209  24.532   4.517  14.914
31805W        W  210   6.237  35.834  14.833
31806W        W  211  16.390  11.600   9.996
31807W        W  212  24.251  16.842  12.576
31808W        W  213   7.818  39.143  12.939
31809W        W  214  29.560  18.618   0.566
31810W        W  215  30.792   4.299   2.953
31811W        W  216  42.842   4.401  13.915
31812W        W  217  38.921   0.035   2.196
31813W        W  218  15.438  14.782   1.148
31814W        W  219   2.017  25.217   1.843
31815W        W  220  35.490   7.811   3.629
31816W        W  221  16.754   4.798   9.986
31817W        W  222  31.915  37.786  12.966
31818W        W  223  40.383  42.563   1.516
31819W        W  224  22.477  13.131   3.069
31820W        W  225  41.569  26.357   4.887
31821W        W  226  35.547  29.478  10.695
31822W        W  227  17.151  12.514   0.604
31823W        W  228   7.926  21.347   0.681
31824W        W  229   0.541  22.186  13.107
31825W        W  230  36.465   8.880   0.836
31826W        W  231  40.731  21.102   2.339
31827W        W  232  20.721   5.401   4.225
31828W        W  233  21.708  15.504  11.674
31829W        W  234   0.420  35.503  14.443
31830W        W  235   9.394  31.948   3.191
31831W        W  236  35.083   0.414  14.450
31832W        W  237  26.056  18.845   0.275
31833W        W  238  31.359  13.970  14.127
31834W        W  239  21.792   6.348   1.392
31835W        W  240  28.587  11.353   1.527
31836W        W  241  17.864  33.868  13.402
31837W        W  242  18.218   4.655  12.434
31838W        W  243  10.403   3.949  10.967
31839W        W  244  44.292  17.789   0.788
31840W        W  245  17.972  12.164   2.820
31841W        W  246  29.272  12.424  12.922
31842W        W  247  41.235  15.511   3.381
31843W        W  248  24.086  19.153   3.577
31844W        W  249  12.682  17.383   3.964
31845W        W  250  34.634  30.385  11.152
31846W        W  251  33.012  27.556  11.129
31847W        W  252   9.368  37.520  13.491
31848W        W  253  37.446  15.184   0.359
31849W        W  254   1.922  23.761  12.397
31850W        W  255  28.934  24.135   2.225
31851W        W  256   0.349  43.552   3.434
31852W        W  257  29.917   4.439   0.276
31853W        W  258  39.540  26.813  12.598
31854W        W  259  25.018   8.887   3.297
31855W        W  260   9.233  13.655   1.967
31856W        W  261  42.397  15.812   2.564
31857W        W  262  44.816  38.983   3.782
31858W        W  263  29.100  32.978   4.188
31859W        W  264  10.465  18.612   3.290
31860W        W  265  28.671  19.066  11.985
31861W        W  266   6.018   3.442   0.733
31862W        W  267  32.461  12.258   1.135
31863W        W  268  28.692   2.871   3.759
31864W        W  269  37.403  41.574   4.089
31865W        W  270  43.420   4.217  14.729
31866W        W  271   3.905  11.102   2.747
31867W        W  272  34.984   0.001  13.369
31868W        W  273  10.364  35.571   3.314
31869W        W  274  11.136  25.011   3.766
31870W        W  275  22.551  41.923   3.828
31871W        W  276  17.182  29.552   3.681
31872W        W  277  38.942  11.465   2.517
31873W        W  278  20.061  30.580  11.533
31874W        W  279  18.167   6.834  13.343
31875W        W  280  30.699   3.768  10.838
31876W        W  281   4.530  32.086   0.346
31877W        W  282  20.543   7.456   4.141
31878W        W  283  35.864  32.063   4.697
31879W        W  284  23.603  32.045  14.383
31880W        W  285  19.174  19.232  10.493
31881W        W  286  15.823   1.226   4.170
31882W        W  287  17.143  41.516  11.435
31883W        W  288   9.116   2.964   1.635
31884W        W  289  19.301  40.588   0.860
31885W        W  290  17.187  42.477  11.589
31886W        W  291  32.575  17.366  14.008
31887W        W  292  23.534  32.188   1.859
31888W        W  293   6.678  38.347   1.577
31889W        W  294  25.377   8.115   1.149
31890W        W  295  13.929  35.474   1.237
31891W        W  296  22.247   2.198  10.603
31892W        W  297  24.574  24.478   2.196
31893W        W  298  22.781  31.786   2.394
31894W        W  299  42.802   3.902   4.467
31895W        W  300  26.054  13.036   1.396
31896W        W  301  20.738   0.568  12.175
31897W        W  302  10.194  16.808   3.667
31898W        W  303  26.537  22.274  11.649
31899W        W  304  11.653   2.312  11.458
31900W        W  305  26.775  22.589   4.999
31901W        W  306  18.221  13.575   2.488
31902W        W  307  26.659  28.584  14.412
31903W        W  308  35.106   0.718  11.230
31904W        W  309  27.927   7.494  11.678
31905W        W  310  36.394  34.353   3.268
31906W        W  311  30.403   5.399  13.457
31907W        W  312  35.750  27.640  13.836
31908W        W  313  21.573  19.613   1.550
31909W        W  314  30.985  16.773   2.477
31910W        W  315  34.312  25.085   1.846
31911W        W  316  22.222  24.969   3.935
31912W        W  317  22.944  30.646  11.931
31913W        W  318   1.911  21.187  10.730
31914W        W  319  16.588   1.911  14.003
31915W        W  320   3.115  38.933   1.444
31916W        W  321  24.742  36.134  13.101
31917W        W  322  43.654  21.015  14.476
31918W        W  323  17.399  26.973   3.426
31919W        W  324  19.039  22.022   4.304
31920W        W  325  32.075   8.236   4.296
31921W        W  326  13.332  22.518  10.818
31922W        W  327  44.046  16.045  14.923
31923W        W  328  27.548   8.010  12.307
31924W        W  329  25.075  33.310  13.867
31925W        W  330  13.048  26.522  13.226
31926W        W  331  42.983  17.805   0.777
31927W        W  332  18.750   1.800  13.094
31928W        W  333  13.236  40.876  11.534
31929W        W  334  40.209  19.014  14.930
31930W        W  335  34.070  22.951   0.291
31931W        W  336  31.417  36.269  12.945
31932W        W  337  40.853  28.778   4.079
31933W        W  338  15.899  11.297  10.745
31934W        W  339  41.430  13.451   1.780
31935W        W  340  22.368  14.752  12.805
31936W        W  341  26.390   4.453  13.964
31937W        W  342  23.633  20.138  11.380
31938W        W  343  24.063  17.071   1.597
31939W        W  344   8.093  39.045   4.487
31940W        W  345   6.238  13.051   0.770
31941W        W  346   0.502   6.881  13.018
31942W        W  347  18.133  31.015  14.249
31943W        W  348  33.701  19.639   4.703
31944W        W  349  17.367  32.135   4.118
31945W        W  350  20.310  15.718  14.439
31946W        W  351   0.233  41.404   4.407
31947W        W  352  23.876  28.651  13.318
31948W        W  353   2.170  11.831  10.538
31949W        W  354  31.368  14.619  11.072
31950W        W  355  37.495  28.229  13.366
31951W        W  356  12.271  37.480   3.706
31952W        W  357  11.701  41.433  12.923
31953W        W  358  36.061   4.008  11.608
31954W        W  359  17.636  30.054   4.254
31955W        W  360  28.688   8.716  12.925
31956W        W  361  37.915   2.956   4.650
31957W        W  362  31.506  14.201   4.293
31958W        W  363   5.389  32.202  12.807
31959W        W  364   4.357   0.338   4.436
31960W        W  365   9.329  35.370   1.389
31961W        W  366  26.926  12.379   0.838
31962W        W  367   2.398   2.870  14.236
31963W        W  368  37.970  21.498   4.239
31964W        W  369  14.615  42.651   3.745
31965W        W  370  19.951  31.464   1.430
31966W        W  371  35.842  12.686  10.720
31967W        W  372   2.685  18.767   3.668
31968W        W  373  12.708  27.085   1.867
31969W        W  374  16.092  17.964   0.835
31970W        W  375  44.235  23.182   3.697
31971W        W  376  13.571  14.793   1.721
31972W        W  377   3.324  40.667  12.848
31973W        W  378   2.446  34.407   3.132
31974W        W  379  10.130  21.305   2.666
31975W        W  380  27.377  17.081  11.026
31976W        W  381  11.795  44.421   4.871
31977W        W  382  43.053  17.118  11.704
31978W        W  383  17.611  28.592  11.586
31979W        W  384  35.891   6.896   1.869
31980W        W  385   1.532   2.293   0.406
31981W        W  386  19.377   9.658   0.010
31982W        W  387  44.788  35.945  14.861
31983W        W  388  27.678  15.711   3.398
31984W        W  389  15.878  14.841   0.889
31985W        W  390  23.215  21.696   4.760
31986W        W  391  23.411  28.762  10.720
31987W        W  392  20.225  41.936   0.347
31988W        W  393  31.551  40.428   3.780
31989W        W  394   3.345  13.863  10.708
31990W        W  395  16.178  31.563  13.549
31991W        W  396  14.159  29.119  14.752
31992W        W  397   5.001  15.968  10.304
31993W        W  398  22.195  24.583   0.877
31994W        W  399  39.301  11.324  11.456
31995W        W  400  24.793   6.960   4.703
31996W        W  401  19.569  18.523  14.484
31997W        W  402  31.955  15.338  12.113
31998W        W  403  18.776  15.549  11.349
31999W        W  404  24.110  23.748  11.603
32000W        W  405  15.290  10.343   2.243
32001W        W  406  22.052  13.137   0.776
32002W        W  407   2.529  28.625   0.728
32003W        W  408   0.244   0.537   4.168
32004W        W  409  22.577  33.250   5.055
32005W        W  410  39.467  20.810   3.129
32006W        W  411  19.313  42.814   1.378
32007W        W  412  16.174  33.251   2.658
32008W        W  413  31.658   8.207  10.692
32009W        W  414  33.849  34.945  13.525
32010W        W  415  17.329  26.078   1.264
32011W        W  416  34.520   2.915   4.298
32012W        W  417  35.260  31.249   1.236
32013W        W  418  34.957  29.654   4.650
32014W        W  419   5.917   0.503  12.172
32015W        W  420  15.278  11.255   2.267
32016W        W  421  31.539  22.680   1.106
32017W        W  422  15.328  41.302  14.725
32018W        W  423   8.227  34.420  12.839
32019W        W  424  42.910  24.865  12.481
32020W        W  425  18.478  33.660  10.338
32021W        W  426  10.712  18.507  13.737
32022W        W  427  34.966  42.325  12.880
32023W        W  428  41.310  36.331  12.626
32024W        W  429  24.769  18.265   2.423
32025W        W  430  10.649  40.517   1.349
32026W        W  431  13.746  14.159  14.463
32027W        W  432   2.991  19.567  11.047
32028W        W  433  18.077  30.076   3.368
32029W        W  434  34.544  27.027  14.205
32030W        W  435  15.817  28.498   2.644
32031W        W  436  17.140  40.999  11.212
32032W        W  437  12.403  32.139   3.287
32033W        W  438  28.623  18.163   2.293
32034W        W  439  12.816  26.972   2.850
32035W        W  440   1.404  10.249  10.983
32036W        W  441  34.599   4.964  10.321
32037W        W  442  20.548  22.268   1.201
32038W        W  443   5.327  13.337  14.041
32039W        W  444  35.788  32.132  12.061
32040W        W  445  13.381  30.022   4.634
32041W        W  446  16.663  43.404   0.958
32042W        W  447  12.215  38.065   4.525
32043W        W  448  42.094   4.717   2.690
32044W        W  449  24.615  17.572  14.809
32045W        W  450  34.510  37.897   2.171
32046W        W  451  18.641  14.180   4.254
32047W        W  452  39.772   9.223   2.918
32048W        W  453  29.420  14.209   0.498
32049W        W  454  10.257  16.252  13.891
32050W        W  455  21.223  21.742  11.232
32051W        W  456  39.567  12.992  11.595
32052W        W  457  16.314  17.336   4.597
32053W        W  458  10.778  41.049  12.513
32054W        W  459   6.415   3.779  12.528
32055W        W  460  39.490  14.853   3.381
32056W        W  461   5.311  32.837  11.116
32057W        W  462  26.241   2.458   0.420
32058W        W  463  11.925  14.399   4.133
32059W        W  464  10.668  18.701   1.987
32060W        W  465  25.052  15.649   1.725
32061W        W  466  22.180  13.157   2.073
32062W        W  467  28.590  41.340  13.070
32063W        W  468  36.006  18.364   4.999
32064W        W  469  34.846  14.645  11.177
32065W        W  470  16.237  30.434  14.370
32066W        W  471  31.896  39.525   1.583
32067W        W  472  20.217  20.228  11.357
32068W        W  473  43.975   6.421  13.255
32069W        W  474   1.452  32.051   2.723
32070W        W  475  21.791  13.127   4.451
32071W        W  476  27.169  31.323  12.465
32072W        W  477  42.253  28.946   3.634
32073W        W  478   0.449  22.622  14.928
32074W        W  479   5.832  28.642   0.882
32075W        W  480  27.983  31.425  12.364
32076W        W  481  40.272   9.059   4.487
32077W        W  482   6.972  13.389  11.155
32078W        W  483  34.063  20.240   0.868
32079W        W  484   8.404  24.751   2.719
32080W        W  485  31.936  11.675   4.135
32081W        W  486  20.752   8.220  10.500
32082W        W  487  14.295   2.473  12.848
32083W        W  488  31.943  16.276   4.376
32084W        W  489   8.189  34.425   0.626
32085W        W  490  41.102   2.658   1.767
32086W        W  491  15.387  31.991  13.901
32087W        W  492  10.913  10.182   3.261
32088W        W  493  35.308  37.083  11.529
32089W        W  494  32.317  35.417  13.450
32090W        W  495  32.097  24.561   5.002
32091W        W  496   8.517  12.277   3.307
32092W        W  497  18.583  15.676  12.777
32093W        W  498  32.143  26.846   4.095
32094W        W  499  20.597   4.421   3.200
32095W        W  500   9.326  14.224   2.638
32096W        W  501  15.155  20.243   2.431
32097W        W  502  16.829   6.731  10.967
32098W        W  503  32.495  30.133   3.099
32099W        W  504  44.786  29.660   3.006
32100W        W  505  28.763  37.122   1.312
32101W        W  506  18.556  10.177  13.958
32102W        W  507  14.709   7.189   2.735
32103W        W  508  36.567  11.249   3.718
32104W        W  509  29.340  11.163  13.118
32105W        W  510  36.848  15.669   2.317
32106W        W  511  22.122  35.922  12.602
32107W        W  512  30.185  24.011  13.513
32108W        W  513  28.916   7.344  14.750
32109W        W  514  16.809  15.177  12.448
32110W        W  515  13.631  38.303   1.316
32111W        W  516  38.410  32.551  14.944
32112W        W  517   4.640  19.487   1.755
32113W        W  518  34.444   0.563  12.754
32114W        W  519  38.541  19.667  12.563
32115W        W  520  12.301  15.237   3.108
32116W        W  521  41.998  21.628   4.476
32117W        W  522  31.094  25.257   4.180
32118W        W  523  32.941  21.560  14.811
32119W        W  524  28.441  10.879   3.245
32120W        W  525  39.599  38.353  13.359
32121W        W  526  30.692  36.052  13.963
32122W        W  527  21.234  39.351  13.375
32123W        W  528  11.204  38.662   1.672
32124W        W  529  19.152   4.341  13.640
32125W        W  530  34.820  43.038   1.386
32126W        W  531  25.007  17.475  14.420
32127W        W  532  17.931   0.522   3.150
32128W        W  533  42.385  44.738   2.234
32129W        W  534  26.440  24.261   0.826
32130W        W  535  22.749  10.648   1.480
32131W        W  536  35.552  36.523   3.377
32132W        W  537  27.018  32.523   2.709
32133W        W  538  14.441  34.869  11.950
32134W        W  539  17.585  24.007   1.895
32135W        W  540  13.116   0.857   2.423
32136W        W  541   1.981  12.663  11.229
32137W        W  542  19.832  30.069   4.154
32138W        W  543   2.908  30.934  10.682
32139W        W  544  44.019   7.621   3.153
32140W        W  545  24.834  15.013  11.625
32141W        W  546  24.639  38.944   4.323
32142W        W  547  25.725  17.667  11.611
32143W        W  548  42.924  12.734   2.225
32144W        W  549   4.224  44.029  10.779
32145W        W  550  12.448  19.097   4.661
32146W        W  551  35.877  26.180   4.860
32147W        W  552  19.795  22.102  11.910
32148W        W  553  34.868   0.477   3.353
32149W        W  554  30.300  16.526   1.376
32150W        W  555  27.123  16.581   3.377
32151W        W  556  28.531  34.539  14.286
32152W        W  557   3.656  40.466   2.800
32153W        W  558   7.522  37.334  14.036
32154W        W  559  39.071  22.314  14.350
32155W        W  560   2.005  36.900   0.245
32156W        W  561  12.243   2.949  11.552
32157W        W  562  36.734  26.665  11.939
32158W        W  563  36.881  37.434  13.074
32159W        W  564  18.497   1.745   2.389
32160W        W  565  32.177   1.310  12.536
32161W        W  566  30.419  38.885  10.314
32162W        W  567  38.149  24.997   1.879
32163W        W  568   2.897  41.061   1.895
32164W        W  569  33.008  25.728   3.065
32165W        W  570  21.907  27.782   1.412
32166W        W  571  18.734  37.973   0.667
32167W        W  572  17.647  17.710  12.799
32168W        W  573  12.790   2.277  12.620
32169W        W  574   8.646   6.296  12.402
32170W        W  575  14.546  39.342  11.170
32171W        W  576  13.619  14.860  11.559
32172W        W  577   2.715  10.571   4.581
32173W        W  578  10.384   1.564  12.392
32174W        W  579  12.544  39.909   3.774
32175W        W  580  17.199   3.868  10.669
32176W        W  581  40.353  22.646   4.103
32177W        W  582  20.558  23.122  10.692
32178W        W  583   2.446  42.548   1.201
32179W        W  584  18.134   1.214   4.609
32180W        W  585  32.009  29.196   1.852
32181W        W  586  38.850  35.642   2.123
32182W        W  587  25.258  16.458   5.359
32183W        W  588   0.760  11.080  13.053
32184W        W  589  40.269   8.679   2.724
32185W        W  590  11.401  38.969   1.304
32186W        W  591   0.459   0.941  12.838
32187W        W  592  15.631   2.722  11.077
32188W        W  593  38.302  21.766   2.148
32189W        W  594  26.516  22.151   1.590
32190W        W  595  21.310  44.558  12.065
32191W        W  596  23.187  15.683  10.285
32192W        W  597   9.895  21.953  11.638
32193W        W  598   8.295  13.188   2.188
32194W        W  599  27.056  16.781   0.564
32195W        W  600  35.644  39.554   4.154
32196W        W  601  41.901  37.940  12.537
32197W        W  602  25.178  29.028  13.640
32198W        W  603  36.527  24.986   3.369
32199W        W  604  43.454  13.212  11.262
32200W        W  605  19.327  20.752   1.749
32201W        W  606   5.146  34.335   3.184
32202W        W  607   2.941  10.305   1.901
32203W        W  608   2.227  24.737   2.179
32204W        W  609  41.812  26.736  12.129
32205W        W  610   7.420  20.733   3.875
32206W        W  611  41.258  23.580   1.932
32207W        W  612  40.831  39.555  13.476
32208W        W  613  30.424  26.140  14.396
32209W        W  614  42.315   5.870  14.413
32210W        W  615  32.194   6.206  11.550
32211W        W  616  38.254  23.833   2.001
32212W        W  617  34.894   7.551  10.754
32213W        W  618  43.366  41.105  11.541
32214W        W  619  37.363   9.736  12.013
32215W        W  620  43.939  32.423  12.858
32216W        W  621  10.651  44.117  12.387
32217W        W  622   0.747  24.984  12.980
32218W        W  623  44.143   0.737   3.759
32219W        W  624  42.392   8.154  14.794
32220W        W  625   7.812  24.696   4.763
32221W        W  626   5.967  28.077   0.469
32222W        W  627  27.940   6.823  10.594
32223W        W  628  40.307   6.339  10.957
32224W        W  629  43.505  12.031  13.233
32225W        W  630  18.678  36.233   3.687
32226W        W  631   0.175  10.630  13.657
32227W        W  632  34.027  31.704  14.430
32228W        W  633  33.164  20.726   4.666
32229W        W  634   3.815  33.387  11.043
32230W        W  635  15.402  26.008  12.105
32231W        W  636  37.576  35.771  14.393
32232W        W  637  14.665  13.879   3.337
32233W        W  638   6.354  36.936   2.978
32234W        W  639  33.103  33.211   4.624
32235W        W  640  27.084  36.533   0.952
32236W        W  641  40.810   1.365  11.383
32237W        W  642  43.525  14.796   0.876
32238W        W  643  26.675  38.566   0.234
32239W        W  644  16.125  40.011   1.746
32240W        W  645  22.640  25.708   3.207
32241W        W  646  16.775  21.697  11.614
32242W        W  647  27.777  25.193  12.032
32243W        W  648   9.156  44.466  11.066
32244W        W  649  12.377  40.398  12.957
32245W        W  650  13.283  11.244  12.675
32246W        W  651  28.040   1.873  14.503
32247W        W  652  26.401  26.129  12.664
32248W        W  653  30.091  27.239   1.305
32249W        W  654  35.363  26.921  10.613
32250W        W  655  13.327   1.276  14.846
32251W        W  656   5.867  10.406  13.911
32252W        W  657  28.670   4.645   0.758
32253W        W  658  15.174   5.725  11.467
32254W        W  659  36.400   2.378   4.837
32255W        W  660   5.297  10.651  13.117
32256W        W  661  38.361  44.785   4.106
32257W        W  662  35.454  14.856  11.991
32258W        W  663   7.154  15.364  10.240
32259W        W  664  28.797  17.855   4.526
32260W        W  665  22.264  15.764   2.401
32261W        W  666  25.771  16.596   4.501
32262W        W  667   8.318   2.563   4.178
32263W        W  668  13.505  30.878   4.920
32264W        W  669  27.913   3.243  14.380
32265W        W  670  38.795  35.357   1.171
32266W        W  671  20.457  29.865  14.107
32267W        W  672  14.306  37.061   2.307
32268W        W  673  24.305  36.599  11.105
32269W        W  674  31.430  20.208   1.403
32270W        W  675   4.601  26.075  12.884
32271W        W  676   9.859  33.938   1.646
32272W        W  677  17.098   1.988  13.908
32273W        W  678  26.688  22.029  12.068
32274W        W  679  26.253  15.261  11.064
32275W        W  680   7.695  12.539   2.230
32276W        W  681  36.940  12.211   0.509
32277W        W  682  31.136  37.474  14.874
32278W        W  683  18.120  27.904   1.584
32279W        W  684  44.762  11.391  13.557
32280W        W  685  17.755  10.374  10.683
32281W        W  686  43.948  28.503   1.175
32282W        W  687  44.152  27.982  12.056
32283W        W  688  40.866  13.241   4.616
32284W        W  689  39.515  25.522  12.928
32285W        W  690  28.456  15.741   3.785
32286W        W  691  15.720  30.452  13.554
32287W        W  692  11.398  10.336   3.662
32288W        W  693  39.005  11.406  12.664
32289W        W  694  39.168  14.232   3.727
32290W        W  695  43.181  35.622  12.510
32291W        W  696  18.987  17.187  14.470
32292W        W  697  38.275   5.252   4.503
32293W        W  698  29.115  18.510   0.328
32294W        W  699   8.778  25.675   3.146
32295W        W  700  13.055  16.741  12.120
32296W        W  701   9.551  43.345  11.042
32297W        W  702   2.319   9.669  12.576
32298W        W  703  31.430  16.515  14.833
32299W        W  704  23.562  12.988   0.490
32300W        W  705  24.499  38.021   1.187
32301W        W  706  32.882   6.908  12.822
32302W        W  707  42.775   8.854   2.351
32303W        W  708  31.145  31.153   4.771
32304W        W  709   1.342   9.168  11.998
32305W        W  710  19.466  18.678  12.479
32306W        W  711  36.364  17.017   2.114
32307W        W  712  22.092  16.736  12.994
32308W        W  713   2.395  39.776  13.046
32309W        W  714  31.689  16.341  13.781
32310W        W  715  26.623  24.337  12.441
32311W        W  716   9.856  37.111   3.861
32312W        W  717  13.127  16.351  14.305
32313W        W  718   7.022  41.163   3.670
32314W        W  719   3.502  37.998  10.738
32315W        W  720  17.342  31.857  14.160
32316W        W  721  29.734  16.314  14.431
32317W        W  722   1.274  25.900   4.770
32318W        W  723  29.218  18.316  14.612
32319W        W  724   4.543  44.165  11.159
32320W        W  725  36.534  26.862   1.622
32321W        W  726  28.123  29.677   2.738
32322W        W  727  24.666  14.594   1.815
32323W        W  728  11.126  43.842   0.325
32324W        W  729  21.643  31.960  14.806
32325W        W  730  41.875   0.843   2.671
32326W        W  731  29.002  19.618  13.510
32327W        W  732  28.436  21.511   2.403
32328W        W  733   2.400  41.490  13.400
32329W        W  734  13.125  13.070   3.798
32330W        W  735  22.448  21.802   0.630
32331W        W  736  44.986   6.242  11.843
32332W        W  737  34.989  41.264  10.722
32333W        W  738  14.088  13.058  13.978
32334W        W  739  12.825  19.310  13.691
32335W        W  740  44.924  14.266   4.678
32336W        W  741  28.456  16.626   1.795
32337W        W  742   0.508  22.753  10.664
32338W        W  743   8.823   4.646   2.865
32339W        W  744   1.019  34.692  14.052
32340W        W  745  33.202  19.045  11.203
32341W        W  746  13.707   7.731  11.060
32342W        W  747  36.406  30.138  12.163
32343W        W  748  40.317  28.609   2.671
32344W        W  749   7.182   4.928  10.505
32345W        W  750  32.085  30.221   1.773
32346W        W  751  44.009  18.730   1.317
32347W        W  752   9.899  23.040  14.316
32348W        W  753  40.411   7.320  10.608
32349W        W  754  22.200   7.258  11.046
32350W        W  755  13.756  41.985  12.069
32351W        W  756  20.629   8.531  13.444
32352W        W  757   1.403   8.395  12.532
32353W        W  758   6.497   3.195   0.207
32354W        W  759   3.469  11.924  14.572
32355W        W  760  43.415  34.949  14.716
32356W        W  761  32.648  28.906   2.282
32357W        W  762  30.072   5.847   3.641
32358W        W  763  26.194  22.550   1.316
32359W        W  764  44.924  27.132   4.296
32360W        W  765  25.141   3.502   2.802
32361W        W  766  32.325  27.122   2.368
32362W        W  767  28.947  24.685  12.493
32363W        W  768  15.883   6.449   3.054
32364W        W  769  42.292  29.149   1.401
32365W        W  770  33.108  27.174   1.290
32366W        W  771  42.007   7.304  13.148
32367W        W  772  18.851  14.170  10.719
32368W        W  773  11.920  28.304  11.961
32369W        W  774  18.991  32.186  14.386
32370W        W  775  16.882  10.694  14.353
32371W        W  776  43.488  12.848  14.638
32372W        W  777  19.565  21.179   1.890
32373W        W  778  29.275  28.489  12.170
32374W        W  779   8.394   4.505  12.503
32375W        W  780  18.562  16.419   1.327
32376W        W  781   0.430   1.007   0.547
32377W        W  782  31.059  41.283   3.529
32378W        W  783  26.031   5.103   3.808
32379W        W  784  38.096  13.627   0.946
32380W        W  785  32.098  41.776  14.777
32381W        W  786  21.094  34.045  11.484
32382W        W  787   4.721  10.451  11.226
32383W        W  788  26.548  26.067  10.687
32384W        W  789  36.634  32.301   2.851
32385W        W  790  16.863  21.622  12.932
32386W        W  791   3.457  36.339   4.259
32387W        W  792   8.966  30.463  13.169
32388W        W  793  32.984  22.257   2.895
32389W        W  794  40.073  29.786   0.881
32390W        W  795   5.603  33.210  10.909
32391W        W  796   3.819  30.494  13.594
32392W        W  797   3.225  32.034  14.855
32393W        W  798  42.429  19.154  12.949
32394W        W  799   5.170  41.292  13.985
32395W        W  800   4.959   5.831   4.907
32396W        W  801   8.478  18.581   0.784
32397W        W  802  29.232   8.885   1.405
32398W        W  803  14.150  38.429  13.803
32399W        W  804  25.662  36.066  13.296
32400W        W  805   6.747  41.762   0.349
32401W        W  806  40.342  21.517  14.402
32402W        W  807   5.792   7.255   0.851
32403W        W  808   3.246   3.886   2.679
32404W        W  809  21.761   9.742   2.365
32405W        W  810  17.514  43.023   2.673
32406W        W  811   5.798  32.950  14.806
32407W        W  812  22.480  24.721  13.664
32408W        W  813  23.205   4.491   3.335
32409W        W  814  26.590  21.235  11.590
32410W        W  815  31.361  13.606   4.788
32411W        W  816  44.046  17.954   2.783
32412W        W  817  32.460  10.904   3.224
32413W        W  818  31.386  20.326   4.215
32414W        W  819  11.139   3.378  14.432
32415W        W  820  29.113   8.007   0.920
32416W        W  821  32.905  29.173  10.649
32417W        W  822   6.183   2.462   1.247
32418W        W  823  21.229  20.550  11.114
32419W        W  824   8.334  37.739  11.161
32420W        W  825  31.008   6.919  10.643
32421W        W  826  16.451  36.489  13.533
32422W        W  827  35.199  32.280   0.285
32423W        W  828  25.049   4.590   0.213
32424W        W  829  10.794   2.179  11.314
32425W        W  830  16.174  42.768   5.054
32426W        W  831  43.950   7.163   3.471
32427W        W  832  39.829  19.293   4.823
32428W        W  833  16.106  41.793   2.615
32429W        W  834  37.842  34.104   1.416
32430W        W  835   0.786   0.809   0.200
32431W        W  836  12.635  15.813   1.683
32432W        W  837  25.700  21.186  11.412
32433W        W  838  22.306  38.528  11.540
32434W        W  839  21.711  33.412   4.746
32435W        W  840  31.677  24.160  10.695
32436W        W  841  22.433  11.010   1.638
32437W        W  842  17.708  40.905   4.608
32438W        W  843  43.007  18.331  12.023
32439W        W  844   9.835  35.467  14.009
32440W        W  845  19.578  25.620  10.755
32441W        W  846   3.187  22.575   0.621
32442W        W  847  27.976  32.144  11.640
32443W        W  848   9.322  11.812   1.338
32444W        W  849  34.462  14.526  12.409
32445W        W  850  31.032  40.327  14.275
32446W        W  851  18.164  26.977   4.674
32447W        W  852  41.842   9.079  14.724
32448W        W  853  44.715  14.655   1.406
32449W        W  854   4.245   6.334   2.660
32450W        W  855  17.135   4.922   2.617
32451W        W  856  14.734   7.410  11.074
32452W        W  857   9.653  31.935  11.867
32453W        W  858   8.898  16.843  12.043
32454W        W  859  30.063  10.227  14.403
32455W        W  860   1.334  23.725  13.836
32456W        W  861  38.411  12.170   4.579
32457W        W  862  44.951  10.562  12.925
32458W        W  863   1.433  31.644  13.313
32459W        W  864  35.965  36.118  10.986
32460W        W  865   5.246  11.389  12.542
32461W        W  866  27.416  42.298  12.531
32462W        W  867   4.905  29.203  11.525
32463W        W  868  27.586  37.573   3.211
32464W        W  869  20.242  39.432  12.051
32465W        W  870   3.498  32.972   3.908
32466W        W  871  39.991  13.166   1.253
32467W        W  872  32.227  15.524   0.091
32468W        W  873   2.147  33.810   1.429
32469W        W  874  41.995  31.635   1.846
32470W        W  875  32.714  39.630  12.090
32471W        W  876  23.750  35.215   4.312
32472W        W  877   2.030  39.730   1.080
32473W        W  878   5.450  11.385  13.874
32474W        W  879  31.924  13.938   2.686
32475W        W  880   5.355   7.844  10.500
32476W        W  881   9.910  15.178   0.750
32477W        W  882  29.262  19.716   4.901
32478W        W  883  33.689  12.285  10.780
32479W        W  884  19.127  13.043  11.189
32480W        W  885  34.796   5.231  14.411
32481W        W  886  18.875   0.886   4.812
32482W        W  887  39.055  22.034   2.352
32483W        W  888  20.769  30.871   0.340
32484W        W  889  39.082   9.051  13.915
32485W        W  890  11.333  15.391  13.968
32486W        W  891   6.612  38.302  11.126
32487W        W  892  19.149  33.365   3.204
32488W        W  893  41.780  33.173  10.772
32489W        W  894  23.589  44.178  12.517
32490W        W  895  34.866  35.716   1.604
32491W        W  896  16.132  22.203  10.530
32492W        W  897  34.128  42.995   0.112
32493W        W  898  35.320   4.608   4.560
32494W        W  899  40.747  11.143   0.292
32495W        W  900  24.589  37.751  12.045
32496W        W  901  20.295  31.046  11.506
32497W        W  902  31.076   8.002   3.572
32498W        W  903   0.694  24.297   2.595
32499W        W  904   0.248  19.696  13.608
32500W        W  905  21.781  26.247   1.477
32501W        W  906  40.296  24.827   0.952
32502W        W  907   9.747  25.719  11.997
32503W        W  908  33.463  37.244   0.741
32504W        W  909  30.869  20.110  12.108
32505W        W  910   5.212  21.576   1.272
32506W        W  911  10.345   9.742  14.869
32507W        W  912  33.949   1.972   1.712
32508W        W  913  29.533   1.059   4.999
32509W        W  914  23.697  39.088   3.735
32510W        W  915   4.719  24.490  12.142
32511W        W  916   5.538  11.720  11.729
32512W        W  917  40.886  22.990   3.509
32513W        W  918  12.605  41.825  14.519
32514W        W  919  29.761  26.201   3.576
32515W        W  920  40.010  17.613  14.818
32516W        W  921  25.491   2.882  11.663
32517W        W  922  39.772  42.868   4.040
32518W        W  923   7.615   9.604   3.215
32519W        W  924  36.020  36.682  11.148
32520W        W  925  34.394   5.501  13.840
32521W        W  926  42.628  10.462  12.376
32522W        W  927  21.511   2.358  13.748
32523W        W  928  26.751   6.232  11.954
32524W        W  929  20.496  37.775  10.631
32525W        W  930  43.553   5.307   4.465
32526W        W  931   1.654  44.242   1.962
32527W        W  932   7.459  28.656  10.578
32528W        W  933  15.615  42.001   3.351
32529W        W  934  24.550  10.783  11.568
32530W        W  935   4.857  26.621   1.291
32531W        W  936  29.289  44.834  14.377
32532W        W  937   8.850  14.340   1.803
32533W        W  938   6.471  30.651  11.962
32534W        W  939   9.002  10.248  13.499
32535W        W  940  40.566  30.441   4.933
32536W        W  941   6.413  22.796   4.510
32537W        W  942  27.169  39.215  11.365
32538W        W  943  16.455  11.717   3.726
32539W        W  944  41.915  20.703  12.463
32540W        W  945  23.686   6.205   3.670
32541W        W  946  19.044  39.350   4.067
32542W        W  947  39.903  14.577   0.690
32543W        W  948  38.222  13.048  13.901
32544W        W  949   9.899  33.401   0.698
32545W        W  950  24.958  33.959   4.309
32546W        W  951  44.735  26.035   2.535
32547W        W  952  10.052  34.886  14.026
32548W        W  953  11.223  22.754   4.338
32549W        W  954  36.482   8.451  10.554
32550W        W  955  26.433   2.315   0.892
32551W        W  956  13.746  14.386   3.372
32552W        W  957  35.869  14.058   2.792
32553W        W  958  13.278  11.159   2.232
32554W        W  959   0.945  12.603  11.684
32555W        W  960  41.128   1.971   5.251
32556W        W  961   5.635   0.956   4.398
32557W        W  962  29.465  22.983  10.580
32558W        W  963   2.271  37.419  10.301
32559W        W  964  33.333  12.570   4.124
32560W        W  965  16.217  19.504  13.209
32561W        W  966   1.032   2.843  14.821
32562W        W  967  28.152  12.507   3.557
32563W        W  968  24.717  34.131   2.754
32564W        W  969  12.509  32.030  10.626
32565W        W  970  11.325  43.023  13.002
32566W        W  971  16.148  15.117   0.190
32567W        W  972  25.439  26.930  14.900
32568W        W  973   2.814  21.749  14.479
32569W        W  974   3.248  25.687   3.387
32570W        W  975  17.204  13.692  11.655
32571W        W  976  25.696  24.661  13.042
32572W        W  977  21.771  44.161   4.062
32573W        W  978   5.108  20.578   4.623
32574W        W  979  23.850  41.450   3.246
32575W        W  980  12.781   1.390  12.679
32576W        W  981  20.510  31.022  13.789
32577W        W  982   3.805  38.775   1.685
32578W        W  983  39.594  15.379  13.016
32579W        W  984  19.757  35.315  14.729
32580W        W  985   6.284  39.016  13.491
32581W        W  986  16.833  38.665  10.476
32582W        W  987  32.395  22.491  12.575
32583W        W  988  30.952  19.127   3.615
32584W        W  989   2.485  39.659   1.346
32585W        W  990  41.351  21.143  11.717
32586W        W  991  40.511  14.858   1.896
32587W        W  992  29.934  26.008  14.239
32588W        W  993  31.278  31.136  12.997
32589W        W  994  13.204  32.306   2.275
32590W        W  995  39.573  28.003   2.777
32591W        W  996   4.869  22.195  14.008
32592W        W  997   0.306  23.951  14.887
32593W        W  998  34.753  14.096  11.208
32594W        W  999  25.916  30.927   1.934
32595W        W 1000  24.412  16.755   1.803
32596W        W 1001   4.917  36.996  14.997
32597W        W 1002  15.199  35.816  10.767
32598W        W 1003   9.161   5.275   3.145
32599W        W 1004  17.969  41.435   1.189
32600W        W 1005   2.489   1.057   4.948
32601W        W 1006  12.927   1.869   0.862
32602W        W 1007  18.353  40.011  12.628
32603W        W 1008  41.530  12.556  13.904
32604W        W 1009  12.572  34.344   3.229
32605W        W 1010  17.542   6.204  11.092
32606W        W 1011   8.947   6.224  11.974
32607W        W 1012  21.819  42.737  10.730
32608W        W 1013  22.182  18.541  12.655
32609W        W 1014  32.945  21.238   3.062
32610W        W 1015  23.917   1.971  13.928
32611W        W 1016  39.482  22.848  11.600
32612W        W 1017  31.881  37.586   4.132
32613W        W 1018  25.132  16.557  14.781
32614W        W 1019  31.114  17.169   2.132
32615W        W 1020  25.528  43.262   0.775
32616W        W 1021  43.380  37.768   0.282
32617W        W 1022   4.704  37.825   4.808
32618W        W 1023   8.001   7.363  13.034
32619W        W 1024  44.765  16.542  10.742
32620W        W 1025  25.174  25.618  13.832
32621W        W 1026  40.428  22.874  12.150
32622W        W 1027   7.360  30.165   2.368
32623W        W 1028  23.688  19.144  10.796
32624W        W 1029   2.994  24.798  14.497
32625W        W 1030  36.055  41.005   1.519
32626W        W 1031  19.138  23.512   3.234
32627W        W 1032  14.285  25.139   2.694
32628W        W 1033  37.766  20.082   1.212
32629W        W 1034  38.083   7.261   1.965
32630W        W 1035  12.379  18.365   3.307
32631W        W 1036  37.415   0.019  11.136
32632W        W 1037  40.856  34.633   4.532
32633W        W 1038  31.720  11.256   0.981
32634W        W 1039  44.428  30.951  12.501
32635W        W 1040  23.521  37.302  14.332
32636W        W 1041   0.680  39.905   4.012
32637W        W 1042  36.545  42.266   1.598
32638W        W 1043  42.323   2.510  13.199
32639W        W 1044  21.604  11.214   2.177
32640W        W 1045  15.870  36.456   2.711
32641W        W 1046  30.619  12.788   1.288
32642W        W 1047   2.659  16.206  14.887
32643W        W 1048  18.491  12.259  11.577
32644W        W 1049  34.032  27.453  11.959
32645W        W 1050  14.357  12.067   2.387
32646W        W 1051  40.531  35.791  11.362
32647W        W 1052  29.369  25.251   5.128
32648W        W 1053  17.594   3.797   0.856
32649W        W 1054  27.480  42.726  12.823
32650W        W 1055  31.497  22.882   3.302
32651W        W 1056  14.324  16.751  11.967
32652W        W 1057   3.819  33.412  14.297
32653W        W 1058  30.821  27.934  10.598
32654W        W 1059  15.976  37.523  10.310
32655W        W 1060  26.967  34.101  14.035
32656W        W 1061  42.963  33.157   4.882
32657W        W 1062   6.266  19.244  10.760
32658W        W 1063   0.903   5.241  12.045
32659W        W 1064  36.960  34.009   2.823
32660W        W 1065  42.505   0.236   2.320
32661W        W 1066  43.481  33.179   0.462
32662W        W 1067  44.837   6.719   1.374
32663W        W 1068  21.978  14.542   1.937
32664W        W 1069   9.895  37.594   2.250
32665W        W 1070  33.471   3.034   4.304
32666W        W 1071   0.778  36.472   4.615
32667W        W 1072  12.231   5.407   1.793
32668W        W 1073   3.155  42.954   0.972
32669W        W 1074   3.769   2.342   1.536
32670W        W 1075  23.239  39.333  12.507
32671W        W 1076  34.340   2.454  14.229
32672W        W 1077  13.650  14.203   2.877
32673W        W 1078   5.771  14.772  14.975
32674W        W 1079  37.971  30.515   1.819
32675W        W 1080  19.045   3.297   4.977
32676W        W 1081  44.810  29.118   4.138
32677W        W 1082  23.287  40.910  14.266
32678W        W 1083  21.307  38.608   2.479
32679W        W 1084  25.464  43.072   3.276
32680W        W 1085  35.763  19.701   0.560
32681W        W 1086  14.091  30.514  13.168
32682W        W 1087   1.896  25.602   2.176
32683W        W 1088   8.779  29.615  13.377
32684W        W 1089   3.364   2.949   2.406
32685W        W 1090   5.699  34.121   1.211
32686W        W 1091  40.829  32.525  11.584
32687W        W 1092  33.510  29.007  11.225
32688W        W 1093  28.061  23.248  14.729
32689W        W 1094   4.096  43.547  11.689
32690W        W 1095  40.859  44.103   0.806
32691W        W 1096  26.459  33.795   0.697
32692W        W 1097   9.294  42.678  13.050
32693W        W 1098  24.477  39.472  13.074
32694W        W 1099  15.726   4.826   3.821
32695W        W 1100  20.680  44.964   0.730
32696W        W 1101  18.022   2.897  13.181
32697W        W 1102  32.892   4.227  14.995
32698W        W 1103   8.300  34.733  14.235
32699W        W 1104  26.660  16.745  13.098
32700W        W 1105  17.922  28.174  11.674
32701W        W 1106  12.224  16.752   1.962
32702W        W 1107  35.379  43.765  13.477
32703W        W 1108  17.696  32.200   3.336
32704W        W 1109  10.785  27.416  13.472
32705W        W 1110   3.611  44.606   5.074
32706W        W 1111  15.349   3.180  12.207
32707W        W 1112  37.130   5.072   0.762
32708W        W 1113  26.610  15.355  10.686
32709W        W 1114   0.309  40.731   0.479
32710W        W 1115  23.716  24.508  10.708
32711W        W 1116   1.015  10.689   4.548
32712W        W 1117   3.127  16.163   1.140
32713W        W 1118  19.000  21.703   1.339
32714W        W 1119  44.098  39.075  13.030
32715W        W 1120  28.209  13.635   1.873
32716W        W 1121  41.963  14.085   0.466
32717W        W 1122  30.147  24.004  12.377
32718W        W 1123  17.851   0.281   1.834
32719W        W 1124  42.879   3.037  13.937
32720W        W 1125  38.663  19.586   2.231
32721W        W 1126  20.141  32.505   0.467
32722W        W 1127  40.376   8.139   0.772
32723W        W 1128  28.095  33.352  14.356
32724W        W 1129  26.775  40.484   9.563
32725W        W 1130  25.183   3.478  10.712
32726W        W 1131  38.527  32.247   4.322
32727W        W 1132  33.382  28.687  13.987
32728W        W 1133  33.980  32.261  11.745
32729W        W 1134  35.496  17.087   1.388
32730W        W 1135   1.566  33.951  11.134
32731W        W 1136  41.118  26.537  11.642
32732W        W 1137  42.532  36.349  10.531
32733W        W 1138  11.552  11.540   3.980
32734W        W 1139   0.025  13.789  14.895
32735W        W 1140   5.472  37.512  11.618
32736W        W 1141   2.002  21.766  12.443
32737W        W 1142   0.379  34.715   4.058
32738W        W 1143  40.686  37.195   3.976
32739W        W 1144  40.497   2.304   2.856
32740W        W 1145  20.059  32.071   3.139
32741W        W 1146  13.513   4.773   3.253
32742W        W 1147  20.659  23.565   4.152
32743W        W 1148  19.911   9.160  11.879
32744W        W 1149  29.020   1.402   0.535
32745W        W 1150  39.456   6.957   3.277
32746W        W 1151   9.585  15.031  10.248
32747W        W 1152  40.833   5.430  14.944
32748W        W 1153   6.667   8.866  12.959
32749W        W 1154  25.177  33.032   4.063
32750W        W 1155  37.975  16.153  13.358
32751W        W 1156  30.502  44.854  11.095
32752W        W 1157  10.679   0.595  11.020
32753W        W 1158  33.141  34.565  11.711
32754W        W 1159  11.904  10.268   3.551
32755W        W 1160  19.793  18.996  14.491
32756W        W 1161   8.844  38.610   4.167
32757W        W 1162  34.932  39.876   1.795
32758W        W 1163  27.981  34.950  11.003
32759W        W 1164   4.784  35.812  11.066
32760W        W 1165   7.232  34.823  14.440
32761W        W 1166  21.136   8.665  13.380
32762W        W 1167  13.211  35.333  14.467
32763W        W 1168   4.261  19.773   1.319
32764W        W 1169  33.868  44.104   2.878
32765W        W 1170  41.272   1.865   0.470
32766W        W 1171   3.290  10.266  11.652
32767W        W 1172  22.840   6.064   3.321
32768W        W 1173  20.791  42.345  12.056
32769W        W 1174  40.749  23.888  11.505
32770W        W 1175   6.873  29.843  12.489
32771W        W 1176   0.303   7.348   4.535
32772W        W 1177  25.202  27.434  14.350
32773W        W 1178   2.342   5.078   5.454
32774W        W 1179   2.224  22.703  11.919
32775W        W 1180  12.802  41.323   0.777
32776W        W 1181  32.681   2.868   2.728
32777W        W 1182  12.168  41.488  11.373
32778W        W 1183  13.179  33.381   4.950
32779W        W 1184  37.128  31.145   3.221
32780W        W 1185  27.806  31.342   4.238
32781W        W 1186  17.798  10.840   2.394
32782W        W 1187  26.495   5.625  10.438
32783W        W 1188  13.110  29.868  12.037
32784W        W 1189  34.460   9.362   4.173
32785W        W 1190   2.182   7.386  14.351
32786W        W 1191   8.935  35.549   4.697
32787W        W 1192  43.739  29.743  14.230
32788W        W 1193  10.543  15.528   1.471
32789W        W 1194  34.937  25.966   3.195
32790W        W 1195  36.883  40.096   0.678
32791W        W 1196  12.149  36.952   3.664
32792W        W 1197  23.546  27.287  13.059
32793W        W 1198  30.097  36.752  14.824
32794W        W 1199   1.896  19.989   0.257
32795W        W 1200  39.422  18.571   2.796
32796W        W 1201  27.917  36.987  10.437
32797W        W 1202  27.176  24.615  12.092
32798W        W 1203  29.823  31.203  12.931
32799W        W 1204  29.746  37.075  14.310
32800W        W 1205  27.585  15.180   2.649
32801W        W 1206   6.756  14.369   1.446
32802W        W 1207  36.066   5.569   2.867
32803W        W 1208   1.519   4.860  10.728
32804W        W 1209  44.267   6.588  12.843
32805W        W 1210  20.738  20.449   2.314
32806W        W 1211   9.621  22.098  12.055
32807W        W 1212  19.452  30.215  11.514
32808W        W 1213  43.817   7.813  14.793
32809W        W 1214  16.075  41.287  13.074
32810W        W 1215  26.591  36.248  14.429
32811W        W 1216  13.716  34.379   0.671
32812W        W 1217  15.422  29.093   3.618
32813W        W 1218   2.758  36.889  14.113
32814W        W 1219   8.090  18.152  11.302
32815W        W 1220  28.644  41.842  14.861
32816W        W 1221  20.090   9.178   1.234
32817W        W 1222  37.319   4.905  11.961
32818W        W 1223   6.740  42.452  12.887
32819W        W 1224  44.368  35.067   1.255
32820W        W 1225  19.788  27.547  12.415
32821W        W 1226   2.376   9.273   0.241
32822W        W 1227  16.280   0.170   1.858
32823W        W 1228  35.167  28.042   2.651
32824W        W 1229  12.697  35.934   4.836
32825W        W 1230  38.828  34.962  14.525
32826W        W 1231  12.648  12.337   3.041
32827W        W 1232   4.697   2.323   1.291
32828W        W 1233  43.993  13.281   4.624
32829W        W 1234  38.283  34.678   3.315
32830W        W 1235   9.707  42.744   4.560
32831W        W 1236  19.557  40.002  11.493
32832W        W 1237  15.382  28.736  13.918
32833W        W 1238  31.051  31.000   0.918
32834W        W 1239  27.107   7.157  13.926
32835W        W 1240  44.315  21.084   0.046
32836W        W 1241   6.666  27.663  10.603
32837W        W 1242   1.528  14.626  12.884
32838W        W 1243  23.972  44.296  11.211
32839W        W 1244   2.737  20.528   2.267
32840W        W 1245  32.608   5.450  11.730
32841W        W 1246  16.333  44.961  14.553
32842W        W 1247  37.037  16.327  14.841
32843W        W 1248  23.153  42.992  10.330
32844W        W 1249  10.076  21.514  13.484
32845W        W 1250  27.548  34.631   4.337
32846W        W 1251  37.509   7.278  14.069
32847W        W 1252  25.940  35.105  14.986
32848W        W 1253  38.548   5.460   1.756
32849W        W 1254  16.080   3.476  13.568
32850W        W 1255  12.571   0.700  12.508
32851W        W 1256  23.146  28.185   2.798
32852W        W 1257  21.136  26.627  11.228
32853W        W 1258  22.698  22.598   4.541
32854W        W 1259  37.411  10.269  12.025
32855W        W 1260  15.734  14.665  10.627
32856W        W 1261  21.023  25.158  10.771
32857W        W 1262   4.384  21.594   4.168
32858W        W 1263   3.957   1.534  10.732
32859W        W 1264  17.890   1.727  13.861
32860W        W 1265  26.909  21.200  14.794
32861W        W 1266  40.003  40.663   0.780
32862W        W 1267  16.922  12.313   3.082
32863W        W 1268   2.497  32.176   0.909
32864W        W 1269  25.008   3.354  14.556
32865W        W 1270   4.660  23.676  13.501
32866W        W 1271  29.074  42.398  10.824
32867W        W 1272  39.511  44.382  13.083
32868W        W 1273   6.984  32.602   3.678
32869W        W 1274  25.011  20.254  14.288
32870W        W 1275  36.886  42.093  13.246
32871W        W 1276  11.895  40.905  13.327
32872W        W 1277   0.494   8.538   1.787
32873W        W 1278  14.287   0.143   4.724
32874W        W 1279  26.693  27.953   3.803
32875W        W 1280  26.145  42.793  10.070
32876W        W 1281   9.001  14.576   5.459
32877W        W 1282  37.500   8.015   4.662
32878W        W 1283   9.855  32.637   4.029
32879W        W 1284  15.728  18.730  11.197
32880W        W 1285  24.587   4.206  14.481
32881W        W 1286  26.198  24.495  14.769
32882W        W 1287  23.941   1.367  12.096
32883W        W 1288  15.523   4.855  13.898
32884W        W 1289  14.793  44.876  12.446
32885W        W 1290  15.275  24.285   1.418
32886W        W 1291  32.914  31.617  10.691
32887W        W 1292   8.154  13.418  14.192
32888W        W 1293  22.794  23.280  14.818
32889W        W 1294  16.167  33.378  13.877
32890W        W 1295  20.692   8.194  13.038
32891W        W 1296   6.650  39.545  13.516
32892W        W 1297   4.491  11.290   2.429
32893W        W 1298  44.098  37.920  14.078
32894W        W 1299  19.583   9.385   3.162
32895W        W 1300   1.291   0.800  12.008
32896W        W 1301   6.201  27.408   1.393
32897W        W 1302  42.928  28.581   3.509
32898W        W 1303  41.101  22.212  12.418
32899W        W 1304  23.947  32.575   3.214
32900W        W 1305   3.187   6.183  13.937
32901W        W 1306   6.501  24.694  10.267
32902W        W 1307  40.863  17.535   0.284
32903W        W 1308  30.996   2.495   3.154
32904W        W 1309  22.948  44.381  14.013
32905W        W 1310   6.775  43.013   4.609
32906W        W 1311  29.193  26.151   1.514
32907W        W 1312   8.877  35.055   3.805
32908W        W 1313  30.523  11.690   2.591
32909W        W 1314  40.171   5.831  12.418
32910W        W 1315  18.696  41.586   4.731
32911W        W 1316  20.521  22.836   2.560
32912W        W 1317  25.592  12.537   4.209
32913W        W 1318   5.339  12.286   4.863
32914W        W 1319  11.985  14.815  14.395
32915W        W 1320  42.273  22.128   0.942
32916W        W 1321  20.604   1.724   0.922
32917W        W 1322  43.051  35.340  11.932
32918W        W 1323  29.228  26.704  10.831
32919W        W 1324  30.998   0.630  10.291
32920W        W 1325  21.780   5.472   0.466
32921W        W 1326  12.057  10.319  13.134
32922W        W 1327  34.037  27.935  14.921
32923W        W 1328  21.139  44.694  10.627
32924W        W 1329  26.037  32.795  11.243
32925W        W 1330  11.063   6.854   4.472
32926W        W 1331   9.720  23.610  12.584
32927W        W 1332  18.010  12.904  11.083
32928W        W 1333  33.069   8.244  14.809
32929W        W 1334   4.170  10.062  13.450
32930W        W 1335  12.723  13.576  11.666
32931W        W 1336  13.200   3.476  10.407
32932W        W 1337  24.332   7.389  10.389
32933W        W 1338  40.625  38.170   2.931
32934W        W 1339  34.291  29.655   2.215
32935W        W 1340  25.533  17.372  14.367
32936W        W 1341  36.980  18.332  11.116
32937W        W 1342   1.799   6.114   4.128
32938W        W 1343   3.886  44.980  12.054
32939W        W 1344  36.091  15.815  11.973
32940W        W 1345   8.137  18.667  11.114
32941W        W 1346  16.270   2.357  14.022
32942W        W 1347  30.762  27.747   0.817
32943W        W 1348  26.388   1.854   1.679
32944W        W 1349   7.682  42.131  10.744
32945W        W 1350  44.703  41.487   4.439
32946W        W 1351  13.105  32.271   3.206
32947W        W 1352  30.544  32.853  11.256
32948W        W 1353  21.654  30.657  13.004
32949W        W 1354  24.256  31.610  12.487
32950W        W 1355  31.968  28.585  11.631
32951W        W 1356  44.934  25.292   0.981
32952W        W 1357   0.316  11.637  11.100
32953W        W 1358   5.696   7.560   1.337
32954W        W 1359  27.274  19.779   0.443
32955W        W 1360  30.024  12.206   2.935
32956W        W 1361  31.086  21.453  11.064
32957W        W 1362  16.329  44.313  12.450
32958W        W 1363   5.002  21.017   1.703
32959W        W 1364  33.922  28.909   0.268
32960W        W 1365  26.621  12.614   4.121
32961W        W 1366  12.434  44.022   0.517
32962W        W 1367  13.603  12.974   2.045
32963W        W 1368  41.015  11.079  13.296
32964W        W 1369   2.947  12.757  14.073
32965W        W 1370  12.677  41.595  11.487
32966W        W 1371  39.973  19.592  13.614
32967W        W 1372  42.900   2.042   4.823
32968W        W 1373  25.151  27.945   1.749
32969W        W 1374  10.194   6.628   3.603
32970W        W 1375  36.328  41.629  11.429
32971W        W 1376  23.260   8.647   0.562
32972W        W 1377  25.920  39.627   0.335
32973W        W 1378  40.813  35.641   2.263
32974W        W 1379  41.873  29.081  12.116
32975W        W 1380  35.910   6.408   1.661
32976W        W 1381  15.662  37.634   1.926
32977W        W 1382  40.945  29.996   2.144
32978W        W 1383  30.553   3.962  13.959
32979W        W 1384   7.095   9.745  12.782
32980W        W 1385  32.763  35.271   3.546
32981W        W 1386  37.999   7.206   2.954
32982W        W 1387  20.361  43.196  12.647
32983W        W 1388  24.056  31.944   2.761
32984W        W 1389  41.461  10.099   0.875
32985W        W 1390  32.528  39.398  11.643
32986W        W 1391  17.226  13.662   2.019
32987W        W 1392   7.164  14.189   1.051
32988W        W 1393  26.839   8.399  10.542
32989W        W 1394  26.193  17.318   2.665
32990W        W 1395  24.767  22.740  13.140
32991W        W 1396  38.083  18.165  14.322
32992W        W 1397   8.574  35.849   2.025
32993W        W 1398  36.568  36.352  13.527
32994W        W 1399  14.149  44.475  12.065
32995W        W 1400  25.347  20.222  12.048
32996W        W 1401   3.845  21.033  14.922
32997W        W 1402  39.184  37.189   4.898
32998W        W 1403   0.291   0.256  11.493
32999W        W 1404  27.875  26.053   2.248
33000W        W 1405  19.573  23.121   2.649
33001W        W 1406  40.460  35.106  13.590
33002W        W 1407  38.712   1.797   2.723
33003W        W 1408  41.159  33.957  12.110
33004W        W 1409  19.588  21.455   0.339
33005W        W 1410  34.455  39.087  13.243
33006W        W 1411  44.632   5.223  11.105
33007W        W 1412   2.197  11.340  12.607
33008W        W 1413  23.499   4.860  12.932
33009W        W 1414  19.313  32.885   0.017
33010W        W 1415  25.816  40.908  14.866
33011W        W 1416   3.457  14.560   4.732
33012W        W 1417  17.808  44.416  10.914
33013W        W 1418  17.123  38.305  14.390
33014W        W 1419  11.343  39.484   0.466
33015W        W 1420  14.754  18.356   4.739
33016W        W 1421  19.344  35.669   2.923
33017W        W 1422  15.005  35.360  12.611
33018W        W 1423  24.496   7.358  12.642
33019W        W 1424  24.208  36.939   3.651
33020W        W 1425  18.090  25.927   0.843
33021W        W 1426  14.054  39.388   3.177
33022W        W 1427  27.237  38.968  10.358
33023W        W 1428  42.789  32.971  13.268
33024W        W 1429  31.565   1.407   0.837
33025W        W 1430   0.359  28.395   2.670
33026W        W 1431  18.260  26.536  14.984
33027W        W 1432  28.053  28.699   3.731
33028W        W 1433  24.564   3.691  14.551
33029W        W 1434  38.952  33.947  14.442
33030W        W 1435  31.601   1.944  14.461
33031W        W 1436  32.165   6.162   1.194
33032W        W 1437  20.168  32.326   4.126
33033W        W 1438  42.644  20.286   4.319
33034W        W 1439  37.031  39.378  12.534
33035W        W 1440  35.217  10.957   3.689
33036W        W 1441   3.704  17.653   0.272
33037W        W 1442  14.254  42.608   2.105
33038W        W 1443  38.830  20.770  11.623
33039W        W 1444  33.078  42.287   1.417
33040W        W 1445  30.661  42.888  11.074
33041W        W 1446  24.541   6.976  14.973
33042W        W 1447  44.859   2.622  12.511
33043W        W 1448  26.580  16.161  12.471
33044W        W 1449  21.936   3.325  14.850
33045W        W 1450   3.275  42.722   1.832
33046W        W 1451  10.607  24.115  13.468
33047W        W 1452  19.521  29.103  13.737
33048W        W 1453  37.004  32.148  12.870
33049W        W 1454  43.151   8.580  12.181
33050W        W 1455   5.034  26.538   4.311
33051W        W 1456  42.355   9.077   3.392
33052W        W 1457  22.476  13.803  13.385
33053W        W 1458  38.999  12.802  13.719
33054W        W 1459  32.600  21.693  12.868
33055W        W 1460  14.338  28.889   0.232
33056W        W 1461   4.180  22.783  12.997
33057W        W 1462  30.169  13.208   3.895
33058W        W 1463   2.793  20.531  12.907
33059W        W 1464  23.170  15.318   3.229
33060W        W 1465  37.931  19.694  10.664
33061W        W 1466   0.634  28.071   2.998
33062W        W 1467  14.668  18.751  10.542
33063W        W 1468  28.816  13.297  10.657
33064W        W 1469  42.074  44.804   0.877
33065W        W 1470   6.447  26.496  14.834
33066W        W 1471  39.228  28.700  10.951
33067W        W 1472   3.942   6.467  13.478
33068W        W 1473  15.810  35.360  14.838
33069W        W 1474  20.978   0.845  13.062
33070W        W 1475   7.305  31.765   3.564
33071W        W 1476  18.681  13.817  14.109
33072W        W 1477  18.991  20.942   0.821
33073W        W 1478  41.352  29.436  12.510
33074W        W 1479  11.765   3.292   0.660
33075W        W 1480  31.406   1.608   3.308
33076W        W 1481  10.669  30.114   2.641
33077W        W 1482   6.184   2.816  13.880
33078W        W 1483  16.666  15.338   1.923
33079W        W 1484   6.368  17.248   4.653
33080W        W 1485  35.785  23.476   3.765
33081W        W 1486   3.351  11.676  13.036
33082W        W 1487  41.555  27.897   1.386
33083W        W 1488  15.841  41.371   2.889
33084W        W 1489  11.394  28.011  13.053
33085W        W 1490  18.299   8.344  11.678
33086W        W 1491  33.769   8.686  13.104
33087W        W 1492  25.509  23.561   4.517
33088W        W 1493   2.302  17.648   3.187
33089W        W 1494  42.047  12.813  12.507
33090W        W 1495  31.494  18.592   3.292
33091W        W 1496   1.485  44.875   0.540
33092W        W 1497  22.612  29.904  13.071
33093W        W 1498   5.316   6.150  10.538
33094W        W 1499   7.756  19.664   3.236
33095W        W 1500  23.157   1.734   4.643
33096W        W 1501   4.213  38.806  10.496
33097W        W 1502  19.184  39.238  12.439
33098W        W 1503  13.851  22.184  13.488
33099W        W 1504  42.325  28.379  11.164
33100W        W 1505  36.964  30.923   0.248
33101W        W 1506   6.576  32.705   0.916
33102W        W 1507  12.513  16.666  12.081
33103W        W 1508  35.541  43.269  12.375
33104W        W 1509  29.939  38.821  14.935
33105W        W 1510  34.382  28.097  13.992
33106W        W 1511   8.670  18.518   3.650
33107W        W 1512  39.445  22.003  14.628
33108W        W 1513   2.807  10.282  11.457
33109W        W 1514  20.644   3.362   3.369
33110W        W 1515  22.582  24.610  12.397
33111W        W 1516  34.883  34.915   2.709
33112W        W 1517  15.669  30.196   1.269
33113W        W 1518  24.095  29.623   4.062
33114W        W 1519  13.334   2.707  11.541
33115W        W 1520  15.786  10.401   0.976
33116W        W 1521  18.178  19.612  12.615
33117W        W 1522  18.717  28.137  12.027
33118W        W 1523  33.300  27.709  14.261
33119W        W 1524  43.288  10.756  12.955
33120W        W 1525  14.742  16.898  14.855
33121W        W 1526  11.864  14.676   0.251
33122W        W 1527   7.465  22.310   3.751
33123W        W 1528  16.530   5.795  13.527
33124W        W 1529  32.960  30.639   2.443
33125W        W 1530   3.408  43.944   3.602
33126W        W 1531   3.446  42.080  13.113
33127W        W 1532   6.063   9.748  12.567
33128W        W 1533  29.132  41.436  14.254
33129W        W 1534  28.230   7.749   3.211
33130W        W 1535  35.962  17.312   1.294
33131W        W 1536  32.686  27.184   1.597
33132W        W 1537  31.643  27.883  12.761
33133W        W 1538  19.693  38.472  12.345
33134W        W 1539  39.019  34.442   3.983
33135W        W 1540  31.054  12.707   0.958
33136W        W 1541   0.018  11.443   1.047
33137W        W 1542   0.566  30.045  11.021
33138W        W 1543   5.048  32.580   3.126
33139W        W 1544  29.151  36.134  12.959
33140W        W 1545  15.168  22.510  11.685
33141W        W 1546  32.033   0.442   2.198
33142W        W 1547  17.357  17.828  14.713
33143W        W 1548  11.149  18.625   2.758
33144W        W 1549   2.050  33.023  13.140
33145W        W 1550  24.002  20.541   4.113
33146W        W 1551   1.034   2.945  11.666
33147W        W 1552   9.206  17.781  11.862
33148W        W 1553  25.216   5.132  12.025
33149W        W 1554  17.024   8.593   1.246
33150W        W 1555  16.350  32.215   2.748
33151W        W 1556   1.735   3.948   4.577
33152W        W 1557  16.314  37.332   0.518
33153W        W 1558   3.510   6.576  12.606
33154W        W 1559  29.556   3.436  13.322
33155W        W 1560  32.101  37.335   3.697
33156W        W 1561  40.941   2.040  13.820
33157W        W 1562  28.233  19.776  12.465
33158W        W 1563   2.939  27.288   4.004
33159W        W 1564  37.652  26.734   0.725
33160W        W 1565  14.057  25.416  11.067
33161W        W 1566  26.069  39.120   2.749
33162W        W 1567  28.185  22.806  11.206
33163W        W 1568  37.206  38.009  12.069
33164W        W 1569  28.950  17.062   1.341
33165W        W 1570   4.685  26.060  11.972
33166W        W 1571  15.504  34.992   4.193
33167W        W 1572  40.049   0.832   4.614
33168W        W 1573  41.898   9.913   1.793
33169W        W 1574   6.699  37.293  11.151
33170W        W 1575  38.855  37.283  12.871
33171W        W 1576  16.520  14.544   2.283
33172W        W 1577  19.786  30.333  11.874
33173W        W 1578  14.293   4.987  13.381
33174W        W 1579  33.652  31.300  12.043
33175W        W 1580   0.168  30.021   2.930
33176W        W 1581   4.770  39.335   4.596
33177W        W 1582  37.324   1.953  13.915
33178W        W 1583   3.010   2.679   2.117
33179W        W 1584  12.566  41.457  13.384
33180W        W 1585   2.453   8.482  11.933
33181W        W 1586  13.081  38.843   0.291
33182W        W 1587  32.130  18.449   1.332
33183W        W 1588  21.226  15.730   2.186
33184W        W 1589   2.429  35.564  12.574
33185W        W 1590  21.327   4.739  13.454
33186W        W 1591  17.234  39.951   0.194
33187W        W 1592  13.203  39.589   1.336
33188W        W 1593   8.154  18.649   3.634
33189W        W 1594  35.883  20.280   3.264
33190W        W 1595  12.310  21.763  14.962
33191W        W 1596   3.509  41.841  13.591
33192W        W 1597   3.438   9.780   2.413
33193W        W 1598  21.921   2.998   4.183
33194W        W 1599  34.581  37.336   4.500
33195W        W 1600   6.614  36.381  11.549
33196W        W 1601   7.675  24.091  14.909
33197W        W 1602   9.164  23.963  14.877
33198W        W 1603  17.304  12.062   3.442
33199W        W 1604   4.950  13.549   2.321
33200W        W 1605   9.851  15.818   3.589
33201W        W 1606  30.651  17.390   3.706
33202W        W 1607  18.906   0.878   2.447
33203W        W 1608  21.589   3.556  11.536
33204W        W 1609  38.029  10.234  14.801
33205W        W 1610   0.835   6.907  14.422
33206W        W 1611  28.063  23.805  11.941
33207W        W 1612  39.924  13.752  13.802
33208W        W 1613  31.587   1.380  14.445
33209W        W 1614  23.525  16.407  11.186
33210W        W 1615   3.290  43.657  13.508
33211W        W 1616  10.742  20.759   1.306
33212W        W 1617   7.262  25.895  13.540
33213W        W 1618   0.336  24.196  10.907
33214W        W 1619  30.757   2.814  13.824
33215W        W 1620  14.063   6.775  14.559
33216W        W 1621  31.602  15.970   3.911
33217W        W 1622  11.516  13.013  13.415
33218W        W 1623  43.111  39.932  13.557
33219W        W 1624  30.378  38.156   1.166
33220W        W 1625   2.415  38.140   1.252
33221W        W 1626  18.704  12.478   5.011
33222W        W 1627  34.881  32.415   2.742
33223W        W 1628  16.077  31.489   3.859
33224W        W 1629  26.001   7.640   3.770
33225W        W 1630  36.934  34.953   3.431
33226W        W 1631  32.107  20.225  10.632
33227W        W 1632  40.336  41.294  10.428
33228W        W 1633  11.349  38.393  11.800
33229W        W 1634  12.271  29.868   4.963
33230W        W 1635   5.194   4.054   4.575
33231W        W 1636  16.277   9.385  11.201
33232W        W 1637  15.295  22.525   3.684
33233W        W 1638  34.208  35.412  11.527
33234W        W 1639  41.411  21.748  14.807
33235W        W 1640  23.494  42.820   0.438
33236W        W 1641   6.339  10.768  10.859
33237W        W 1642  15.174  36.466   3.305
33238W        W 1643  26.031  14.112  10.617
33239W        W 1644  40.994  19.537   4.286
33240W        W 1645   5.162  28.137  13.820
33241W        W 1646  10.690  18.748   1.478
33242W        W 1647   5.457  25.684  13.993
33243W        W 1648  26.785   2.538   0.471
33244W        W 1649   8.471  36.281   1.724
33245W        W 1650   0.420  11.365   3.857
33246W        W 1651   6.776   4.926  13.584
33247W        W 1652  31.441  30.300   1.417
33248W        W 1653   5.927  18.375   3.661
33249W        W 1654  12.332  42.403  13.744
33250W        W 1655  27.414  11.801  11.882
33251W        W 1656  24.654  40.406  13.505
33252W        W 1657  18.155  13.703  12.568
33253W        W 1658  38.939  40.452   4.228
33254W        W 1659  42.475  38.419   3.743
33255W        W 1660  16.741  18.756   1.686
33256W        W 1661   2.292  25.234  13.374
33257W        W 1662  35.864  10.341  12.925
33258W        W 1663  44.805  18.200   2.981
33259W        W 1664   0.518   2.474  12.095
33260W        W 1665  31.107  12.880   1.446
33261W        W 1666  20.713  33.480   3.695
33262W        W 1667  42.435  37.934  10.666
33263W        W 1668  33.136  43.918  11.278
33264W        W 1669   2.700  18.557  11.011
33265W        W 1670  23.810  34.325   1.212
33266W        W 1671  15.731  19.688  10.216
33267W        W 1672  16.738   6.327   3.086
33268W        W 1673  12.034  27.994   5.124
33269W        W 1674  27.117  10.878  13.887
33270W        W 1675  12.363  34.030  10.743
33271W        W 1676  35.844  41.530   0.674
33272W        W 1677   6.339  10.529   0.734
33273W        W 1678  30.188  32.949   1.484
33274W        W 1679  15.062  25.707  12.389
33275W        W 1680  33.299  11.653  10.257
33276W        W 1681  12.612  25.994  11.152
33277W        W 1682  14.682  31.753  13.558
33278W        W 1683  34.530  18.572   4.790
33279W        W 1684  32.780  19.299  12.162
33280W        W 1685  44.707  42.015   2.804
33281W        W 1686   4.865  27.157   1.398
33282W        W 1687   7.894   3.930  11.261
33283W        W 1688  27.409  26.858  13.372
33284W        W 1689  32.499  30.624   4.001
33285W        W 1690  28.985  18.112   0.044
33286W        W 1691  35.511  44.095   0.287
33287W        W 1692   5.890   7.787  13.443
33288W        W 1693  25.195  13.071  11.640
33289W        W 1694  24.225  26.425  11.606
33290W        W 1695  14.424  43.190   9.990
33291W        W 1696   0.163  39.301   4.556
33292W        W 1697  21.170   4.459   0.825
33293W        W 1698   8.515   4.206  13.769
33294W        W 1699  22.643  29.529  13.599
33295W        W 1700   4.348  11.506  10.752
33296W        W 1701  37.034  18.854  11.130
33297W        W 1702  26.033  19.491   5.048
33298W        W 1703  36.106  19.241   1.346
33299W        W 1704  36.326  41.265  11.817
33300W        W 1705  15.349  29.589   2.902
33301W        W 1706  27.426  10.755  10.791
33302W        W 1707  24.707  19.203   1.504
33303W        W 1708  13.660  19.765  12.949
33304W        W 1709   8.782  14.680  14.534
33305W        W 1710   5.729  19.990   1.748
33306W        W 1711  32.853   2.058  13.942
33307W        W 1712  33.762  24.433   2.909
33308W        W 1713  27.319  15.583   4.774
33309W        W 1714  42.096  38.481  10.804
33310W        W 1715  17.981   1.468  14.348
33311W        W 1716  14.330  26.217  12.670
33312W        W 1717  13.050  14.784   1.789
33313W        W 1718  41.886   0.604  14.546
33314W        W 1719  43.490   3.806  12.078
33315W        W 1720  22.246  18.820   2.343
33316W        W 1721   8.670  21.207   0.650
33317W        W 1722   1.739   5.204   0.780
33318W        W 1723  29.657  26.904  12.719
33319W        W 1724  24.833  39.721   2.107
33320W        W 1725  43.300  18.026   5.146
33321W        W 1726  38.226  35.165   3.160
33322W        W 1727   9.616  14.640  11.011
33323W        W 1728  14.477   1.988   2.387
33324W        W 1729  15.370  24.529   2.748
33325W        W 1730  33.969  11.116  12.466
33326W        W 1731   5.235  27.692   1.940
33327W        W 1732  12.234  12.124  13.968
33328W        W 1733  14.328  38.240  11.942
33329W        W 1734   4.693  23.472  11.092
33330W        W 1735  29.066  10.598  13.419
33331W        W 1736  20.702  44.792  13.803
33332W        W 1737   6.673  17.193   4.224
33333W        W 1738  14.710  11.386  12.033
33334W        W 1739   8.907   9.921  12.053
33335W        W 1740  35.825  35.659   1.817
33336W        W 1741  25.637  43.016  13.007
33337W        W 1742   6.215   6.013  13.082
33338W        W 1743  21.106  21.005   1.285
33339W        W 1744  28.105  19.795  13.269
33340W        W 1745   2.005  38.409   4.004
33341W        W 1746  33.718  11.384  12.032
33342W        W 1747  28.281  27.737  13.141
33343W        W 1748  18.302  24.885  10.274
33344W        W 1749   4.280  33.302  13.147
33345W        W 1750  26.497  21.843   2.408
33346W        W 1751  32.106  22.285   5.055
33347W        W 1752  11.392  35.647   4.855
33348W        W 1753  39.355  23.455   0.838
33349W        W 1754  29.644  30.697   1.192
33350W        W 1755   0.916  11.673  12.484
33351W        W 1756  26.813  24.114  13.640
33352W        W 1757  10.024  21.556  12.362
33353W        W 1758  33.903  43.417   3.443
33354W        W 1759  37.907  26.561   2.753
33355W        W 1760  42.455  38.751   0.491
33356W        W 1761  18.137   4.208  14.873
33357W        W 1762  33.943   7.089  10.368
33358W        W 1763   4.371   3.173   2.364
33359W        W 1764  41.215  34.812   3.245
33360W        W 1765   4.177  12.559   4.641
33361W        W 1766  30.122  31.467  11.938
33362W        W 1767  28.491  43.533   0.382
33363W        W 1768  36.611   1.948  11.393
33364W        W 1769   5.958   0.998   2.720
33365W        W 1770  21.558  39.391   2.936
33366W        W 1771   4.327  27.671  11.637
33367W        W 1772   9.643  10.064   4.168
33368W        W 1773  34.735  22.066  14.594
33369W        W 1774  39.637  43.029  13.387
33370W        W 1775  33.335   1.933  11.245
33371W        W 1776  32.545   8.333   1.278
33372W        W 1777  16.784  25.489  12.043
33373W        W 1778  41.994  14.591  14.461
33374W        W 1779  36.087  39.113   3.537
33375W        W 1780  27.743  32.178  12.291
33376W        W 1781  35.494  34.454   1.327
33377W        W 1782   0.281   8.267  13.313
33378W        W 1783  30.559   2.773  14.720
33379W        W 1784   6.827  36.382   1.687
33380W        W 1785   6.898  26.756  14.880
33381W        W 1786   2.200  42.027   3.501
33382W        W 1787   0.796  17.148  13.939
33383W        W 1788  44.353  15.202  14.248
33384W        W 1789  25.521  37.140   1.315
33385W        W 1790  43.658  38.721   3.133
33386W        W 1791   5.810   5.968  10.792
33387W        W 1792  35.041  12.781   5.430
33388W        W 1793  44.403  24.059  12.939
33389W        W 1794  40.913  31.218   0.409
33390W        W 1795  27.237   3.939   2.286
33391W        W 1796  37.997   3.187   0.346
33392W        W 1797   1.342  19.003  14.454
33393W        W 1798   3.635  22.809   2.838
33394W        W 1799  17.332  12.073  14.105
33395W        W 1800  28.120  26.534   0.738
33396W        W 1801  32.108  17.018  13.395
33397W        W 1802  26.676  27.351  14.930
33398W        W 1803  44.430  38.518  10.697
33399W        W 1804  33.344  30.021  14.845
33400W        W 1805  17.558  43.483  12.588
33401W        W 1806   6.800  44.497  12.889
33402W        W 1807  34.510   3.666  11.226
33403W        W 1808   6.163   8.218  13.526
33404W        W 1809  17.638   4.516  11.957
33405W        W 1810  27.310  12.665  10.716
33406W        W 1811  29.058  14.374  14.411
33407W        W 1812  31.596  32.495   4.152
33408W        W 1813   3.150  35.881   4.565
33409W        W 1814  24.561  28.151   2.709
33410W        W 1815  15.538   2.343  11.411
33411W        W 1816  18.544  32.275   1.392
33412W        W 1817  25.605  18.246   1.271
33413W        W 1818   7.342  18.119  12.073
33414W        W 1819   9.387  22.229   2.281
33415W        W 1820  39.420  43.771   0.686
33416W        W 1821   0.643  10.461  10.885
33417W        W 1822  31.967  22.826   1.387
33418W        W 1823   5.613  13.894   1.951
33419W        W 1824  38.856  39.850   3.596
33420W        W 1825   4.269  11.794  11.209
33421W        W 1826  40.192   8.943  11.958
33422W        W 1827  19.711  27.981   4.620
33423W        W 1828  16.245  30.874  11.210
33424W        W 1829   0.257   4.480  12.881
33425W        W 1830  21.570  26.275  12.046
33426W        W 1831  30.448   5.967  11.030
33427W        W 1832  39.929  42.538  10.621
33428W        W 1833  40.312  40.468   2.822
33429W        W 1834  38.911  13.142  12.103
33430W        W 1835  36.521  44.789   4.173
33431W        W 1836  37.577   6.264   3.230
33432W        W 1837  24.527   2.602   4.675
33433W        W 1838  12.883  24.381   0.449
33434W        W 1839  18.695  11.457   2.842
33435W        W 1840  38.302   7.793  12.610
33436W        W 1841  16.616  29.611  13.835
33437W        W 1842  23.019  11.828  11.933
33438W        W 1843  44.384  14.270  10.733
33439W        W 1844  25.941   2.193   0.794
33440W        W 1845  31.851   2.263  12.261
33441W        W 1846   9.950  18.314  11.844
33442W        W 1847  16.626  40.392   3.611
33443W        W 1848  40.915  43.655  10.850
33444W        W 1849  37.167  32.622  12.823
33445W        W 1850  34.992   7.992   3.180
33446W        W 1851  33.958  32.218   2.392
33447W        W 1852   3.707  15.692  13.556
33448W        W 1853  38.579   2.614  12.853
33449W        W 1854   8.356  38.724  13.528
33450W        W 1855   6.409  43.317  10.883
33451W        W 1856  41.500  18.312  12.102
33452W        W 1857  24.602   1.855   3.368
33453W        W 1858   4.029   5.855   1.866
33454W        W 1859   2.800  40.353   3.296
33455W        W 1860  15.520  40.527  11.984
33456W        W 1861  43.482  17.066  11.981
33457W        W 1862  10.411  39.327  12.458
33458W        W 1863  44.342  41.879   4.525
33459W        W 1864  38.200  29.197   1.553
33460W        W 1865  12.531   6.931  14.090
33461W        W 1866  23.566  24.025  13.824
33462W        W 1867  18.248  10.184   5.063
33463W        W 1868  26.191  42.730  11.081
33464W        W 1869  21.993  13.365   3.359
33465W        W 1870  15.820  16.155   4.116
33466W        W 1871  36.934   0.448  14.551
33467W        W 1872   4.290  27.722   2.247
33468W        W 1873  28.807  38.057  13.622
33469W        W 1874  38.398  33.583   2.679
33470W        W 1875  34.314  44.694   0.242
33471W        W 1876  38.005  40.522  14.018
33472W        W 1877  34.561  20.768  10.943
33473W        W 1878  12.242  40.111  12.535
33474W        W 1879  42.455   5.051  11.434
33475W        W 1880   6.344   8.108   0.489
33476W        W 1881  27.241  25.187  12.765
33477W        W 1882  30.150  30.166  12.448
33478W        W 1883  21.127  40.542   2.790
33479W        W 1884  25.742  37.825   3.615
33480W        W 1885  38.355  22.037  14.035
33481W        W 1886  30.938  41.839  12.834
33482W        W 1887   9.407  14.028   5.000
33483W        W 1888  33.399  29.015   0.835
33484W        W 1889  13.825  34.853   4.081
33485W        W 1890  16.701   0.293  13.955
33486W        W 1891  28.844   9.826   1.255
33487W        W 1892  20.753  12.380  11.082
33488W        W 1893  43.647  39.515   4.582
33489W        W 1894   6.972  25.156  10.713
33490W        W 1895  41.675  25.224   4.743
33491W        W 1896  39.333  31.623   0.845
33492W        W 1897  28.581  18.014  11.181
33493W        W 1898  34.730  16.722   0.813
33494W        W 1899  41.117  18.037   2.871
33495W        W 1900  10.515  18.988  13.926
33496W        W 1901   7.272  23.703   1.915
33497W        W 1902   9.484  37.389   4.145
33498W        W 1903   9.134  39.772  14.017
33499W        W 1904  35.898  38.036  12.545
33500W        W 1905  10.819   6.389  12.948
33501W        W 1906  22.081  27.573  11.540
33502W        W 1907  18.702  26.550  11.633
33503W        W 1908  30.168  29.260  14.504
33504W        W 1909  21.488  31.667  12.932
33505W        W 1910  15.490  17.085   5.378
33506W        W 1911  15.420  22.480   2.739
33507W        W 1912  35.936  13.409   5.061
33508W        W 1913   7.639  30.905  12.919
33509W        W 1914   7.966  20.488   3.017
33510W        W 1915  34.057  28.481  10.501
33511W        W 1916   9.855  20.795  11.266
33512W        W 1917  36.784  33.482  11.638
33513W        W 1918  33.311  29.663  12.422
33514W        W 1919  39.607  24.694  14.426
33515W        W 1920  10.207  13.352  12.949
33516W        W 1921  32.542  17.036   0.323
33517W        W 1922  29.984   9.170   1.195
33518W        W 1923  11.750  26.238  13.397
33519W        W 1924  34.962  17.177   0.736
33520W        W 1925  18.575  14.390  14.861
33521W        W 1926  22.691   7.316  13.871
33522W        W 1927   0.251  37.678   1.322
33523W        W 1928  25.474  38.767  12.034
33524W        W 1929  37.261  20.143  12.186
33525W        W 1930   4.963  32.980   0.200
33526W        W 1931  24.197  27.569   1.190
33527W        W 1932  18.018  19.232   0.318
33528W        W 1933   7.024  12.231   1.923
33529W        W 1934  16.490  14.177   4.260
33530W        W 1935  23.677  41.787   0.026
33531W        W 1936  23.163  28.404  14.026
33532W        W 1937  26.952  37.306   2.595
33533W        W 1938   2.930  38.455   4.091
33534W        W 1939  42.460  24.104  14.189
33535W        W 1940   9.759  43.792  11.846
33536W        W 1941  39.109  31.350  12.428
33537W        W 1942  44.242  24.045   5.029
33538W        W 1943  34.126  43.006   1.901
33539W        W 1944  38.619  13.174   4.262
33540W        W 1945   9.305   9.422   4.426
33541W        W 1946  42.734  13.931  13.961
33542W        W 1947  12.333  14.766   3.322
33543W        W 1948  29.743  13.393   2.480
33544W        W 1949  33.396  32.566  10.467
33545W        W 1950  22.256   7.768   0.855
33546W        W 1951   2.205  20.760  14.826
33547W        W 1952  38.392  11.925  13.320
33548W        W 1953  24.160  30.866   3.610
33549W        W 1954  22.464  39.520  14.860
33550W        W 1955   5.166   2.134   1.360
33551W        W 1956  32.958  39.549  11.377
33552W        W 1957  20.069   5.152  12.160
33553W        W 1958  18.719  36.608   0.892
33554W        W 1959   8.363   0.371   0.647
33555W        W 1960  10.099  27.581  12.777
33556W        W 1961  26.085   9.117  13.477
33557W        W 1962  20.086  29.963   3.676
33558W        W 1963  17.662  26.973  13.902
33559W        W 1964  22.445   0.499  13.058
33560W        W 1965  18.816  35.045  12.359
33561W        W 1966  17.740  13.823   1.361
33562W        W 1967   5.573  16.822  12.202
33563W        W 1968  40.423  25.034   5.149
33564W        W 1969   3.222   3.501   0.429
33565W        W 1970   1.026  33.895  14.752
33566W        W 1971   1.685  24.156  10.719
33567W        W 1972  24.076  44.469  10.318
33568W        W 1973  25.200  16.148   1.809
33569W        W 1974  19.184  13.128   0.837
33570W        W 1975   3.855  23.441   4.622
33571W        W 1976  34.634   0.151  11.720
33572W        W 1977  19.066  14.298   3.302
33573W        W 1978   2.473  39.938  12.570
33574W        W 1979  32.838  43.301   0.362
33575W        W 1980   0.936  27.183  14.504
33576W        W 1981  39.392  43.733   2.036
33577W        W 1982  25.946  28.708  12.488
33578W        W 1983   7.006  27.605   1.154
33579W        W 1984  40.094  15.118  13.776
33580W        W 1985   2.444  13.649   3.379
33581W        W 1986   2.957  13.658   3.318
33582W        W 1987  32.861   8.395  11.871
33583W        W 1988  18.302  43.726   4.172
33584W        W 1989  35.101  28.454  11.970
33585W        W 1990  12.958  15.822  12.132
33586W        W 1991  26.919  26.957  12.397
33587W        W 1992  26.492  17.177  12.904
33588W        W 1993   9.676  28.890   1.445
33589W        W 1994  11.083   9.161  12.846
33590W        W 1995   8.449  24.205  11.231
33591W        W 1996   4.223  18.818  14.506
33592W        W 1997  17.719  37.660  14.739
33593W        W 1998   1.199   2.902   2.774
33594W        W 1999  28.096  25.307   0.328
33595W        W 2000  40.416   5.673   4.866
33596W        W 2001   4.578  20.244   1.386
33597W        W 2002  40.980  43.675  14.400
33598W        W 2003   8.834  30.977   4.103
33599W        W 2004  21.975  28.661   0.379
33600W        W 2005  14.329  15.595  14.357
33601W        W 2006  43.723  34.102  13.327
33602W        W 2007  37.564   4.899  12.479
33603W        W 2008   0.564  15.669  11.702
33604W        W 2009   7.225  40.563   3.069
33605W        W 2010  27.994  12.533  12.555
33606W        W 2011   8.748   7.769   4.654
33607W        W 2012  24.635  18.144  14.834
33608W        W 2013  38.736  29.374   2.185
33609W        W 2014  30.682  23.563   4.281
33610W        W 2015  31.465  37.584   4.672
33611W        W 2016  20.189  20.087  10.858
33612W        W 2017  24.226  37.591  13.048
33613W        W 2018  38.599  30.566   2.762
33614W        W 2019  27.452  41.837   2.703
33615W        W 2020  36.149  32.888   1.004
33616W        W 2021   6.007  25.642   1.086
33617W        W 2022  19.589   0.994  14.047
33618W        W 2023   1.531  36.791   3.217
33619W        W 2024  27.449  30.884  12.579
33620W        W 2025   9.256  30.912   2.332
33621W        W 2026  44.522  33.904  11.189
33622W        W 2027  29.478  10.475   3.001
33623W        W 2028  14.726  21.197  11.189
33624W        W 2029  24.073  29.396   2.736
33625W        W 2030  41.179  19.284   2.834
33626W        W 2031  31.442  34.749   0.020
33627W        W 2032   1.102  21.737  11.701
33628W        W 2033   5.945  13.224   3.555
33629W        W 2034  32.168  34.681   2.281
33630W        W 2035  21.872  31.519  14.664
33631W        W 2036  42.141  18.640  11.918
33632W        W 2037  12.830  37.931  14.352
33633W        W 2038  29.555  18.722  10.716
33634W        W 2039  35.034  36.933  11.098
33635W        W 2040  35.485  12.778  12.013
33636W        W 2041   7.620  24.611   0.427
33637W        W 2042  35.462   2.339  11.488
33638W        W 2043   5.330  14.672   0.304
33639W        W 2044  16.593  32.162   2.273
33640W        W 2045  37.949  10.754  11.503
33641W        W 2046  34.815  39.957   1.267
33642W        W 2047  40.721  16.794  12.374
33643W        W 2048  11.671  25.979  11.056
33644W        W 2049  17.482  15.111  14.434
33645W        W 2050   8.408  11.418   1.711
33646W        W 2051  18.126   7.213  14.144
33647W        W 2052  23.990  35.470   4.734
33648W        W 2053  35.066   8.363  14.610
33649W        W 2054  44.581  25.704  11.528
33650W        W 2055  19.648  20.765  14.830
33651W        W 2056  35.082  24.026  11.603
33652W        W 2057  26.568   1.871   2.433
33653W        W 2058  14.973   6.250  10.250
33654W        W 2059   6.869  16.560   2.629
33655W        W 2060  26.415  24.055  14.933
33656W        W 2061  13.589  10.738   3.110
33657W        W 2062   6.186  16.850   4.322
33658W        W 2063  32.569   3.664  11.004
33659W        W 2064  30.489  30.037  10.391
33660W        W 2065  41.920  30.578   4.585
33661W        W 2066  10.128  28.221  11.180
33662W        W 2067  23.134  20.010   3.395
33663W        W 2068  17.041   5.827  13.583
33664W        W 2069   1.462  27.466  11.999
33665W        W 2070   2.216  29.178   4.561
33666W        W 2071  12.318  22.973  10.687
33667W        W 2072  15.630  12.602   4.591
33668W        W 2073  12.691  25.731  10.690
33669W        W 2074  34.937   5.989   3.198
33670W        W 2075   1.735   1.637  13.112
33671W        W 2076  42.901  28.871   1.768
33672W        W 2077  28.590   8.605  10.652
33673W        W 2078   1.490  35.964  12.948
33674W        W 2079  42.368   7.966   2.391
33675W        W 2080  33.305  38.120  12.588
33676W        W 2081   8.216  40.952   2.795
33677W        W 2082  39.106  15.220  10.735
33678W        W 2083  15.578  42.941   0.235
33679W        W 2084  13.929   5.902   0.950
33680W        W 2085  24.050  35.586  11.423
33681W        W 2086  18.022  36.398   0.358
33682W        W 2087   2.919   7.299   3.264
33683W        W 2088  23.076  11.696   3.810
33684W        W 2089  38.074   5.362  13.877
33685W        W 2090  22.832  44.329  14.506
33686W        W 2091  25.718  37.898  12.877
33687W        W 2092   5.287  13.599   0.924
33688W        W 2093   8.701   4.938   1.050
33689W        W 2094  16.186   7.082   0.626
33690W        W 2095  28.175  27.369   2.438
33691W        W 2096  43.902  11.665  13.752
33692W        W 2097   8.915  33.830  13.509
33693W        W 2098   4.926  18.675  10.201
33694W        W 2099  24.902  31.183   4.546
33695W        W 2100  11.449  13.341  13.919
33696W        W 2101  42.033  25.564  12.913
33697W        W 2102  23.012  16.610  12.697
33698W        W 2103  11.976  38.726   0.287
33699W        W 2104  36.999  14.613  14.599
33700W        W 2105  38.424  26.952  13.952
33701W        W 2106  27.585  19.712  14.449
33702W        W 2107  38.114  22.259   1.402
33703W        W 2108  43.828   4.823  14.443
33704W        W 2109  16.319  25.176   1.743
33705W        W 2110  39.226  36.998  13.804
33706W        W 2111  20.753  16.747  10.447
33707W        W 2112  17.236  30.500   2.337
33708W        W 2113  25.956  41.573  13.727
33709W        W 2114   8.772  44.710  13.497
33710W        W 2115  37.349  21.065  13.588
33711W        W 2116  30.844  27.969   4.181
33712W        W 2117  41.115  12.649   4.304
33713W        W 2118  33.792  41.151   1.545
33714W        W 2119   0.269  29.148  13.598
33715W        W 2120  30.397  40.847  10.755
33716W        W 2121  36.886  44.445  12.167
33717W        W 2122   2.210  15.529   4.065
33718W        W 2123  30.996   1.909  14.901
33719W        W 2124  13.243   8.236   1.440
33720W        W 2125  24.084   9.848  11.264
33721W        W 2126  14.661  19.732   3.613
33722W        W 2127  15.599  18.672   4.335
33723W        W 2128  21.621  33.018   0.844
33724W        W 2129  31.483  29.397   4.724
33725W        W 2130  32.477   6.330  12.133
33726W        W 2131  24.201  39.312  11.722
33727W        W 2132  21.994   0.862   2.168
33728W        W 2133   1.408  27.586   3.260
33729W        W 2134  21.742   7.131  12.337
33730W        W 2135  21.263  27.132  14.840
33731W        W 2136  38.207  14.234  14.926
33732W        W 2137  34.547   8.135  14.321
33733W        W 2138  13.686  32.026  14.700
33734W        W 2139   7.431   7.308   3.846
33735W        W 2140  14.620  19.985  13.724
33736W        W 2141  13.546  31.172   0.818
33737W        W 2142  13.376  11.688  15.000
33738W        W 2143  26.115  42.452  11.537
33739W        W 2144  33.110  10.270  12.477
33740W        W 2145  11.195   0.292   0.268
33741W        W 2146  12.885  39.916  10.925
33742W        W 2147  28.661  36.089  13.872
33743W        W 2148   5.291  36.624   0.730
33744W        W 2149  27.342   5.883  12.477
33745W        W 2150  24.129  40.062   3.203
33746W        W 2151  25.678   3.318  11.415
33747W        W 2152   8.463  14.881  12.260
33748W        W 2153  28.063  13.703   4.821
33749W        W 2154  36.730  19.704   4.618
33750W        W 2155  30.450  21.244   2.860
33751W        W 2156   5.690  21.738   2.865
33752W        W 2157   3.840  25.568  14.738
33753W        W 2158  20.126  34.841  11.995
33754W        W 2159  26.037  24.049  13.057
33755W        W 2160  28.868  15.809  12.369
33756W        W 2161  31.033   5.311   1.973
33757W        W 2162  41.759  34.620  14.776
33758W        W 2163  42.629  25.983   2.882
33759W        W 2164  33.092  12.113  10.376
33760W        W 2165   1.698   3.506   1.330
33761W        W 2166  22.585  39.462   4.556
33762W        W 2167  18.494  27.002   0.476
33763W        W 2168   7.732  11.791   3.812
33764W        W 2169   0.326  35.063   2.769
33765W        W 2170  38.506  38.551  11.014
33766W        W 2171  25.629  21.645  13.369
33767W        W 2172   6.583  33.602   0.980
33768W        W 2173  42.321  17.251   2.675
33769W        W 2174  32.874  27.440  10.638
33770W        W 2175  15.250  16.136   1.362
33771W        W 2176  41.422  20.355   4.092
33772W        W 2177  30.106  18.563  14.939
33773W        W 2178  30.203  12.125  11.894
33774W        W 2179  14.159  11.087   1.386
33775W        W 2180  44.200  34.848  14.323
33776W        W 2181  43.504  18.792  12.564
33777W        W 2182  28.538  15.069  11.993
33778W        W 2183  43.882  31.533  10.967
33779W        W 2184   0.025  24.217  14.562
33780W        W 2185  12.294  30.025  10.544
33781W        W 2186  38.973  25.739   4.736
33782W        W 2187  36.785  22.229  13.038
33783W        W 2188   5.656  12.783  14.064
33784W        W 2189  40.998  25.864   1.350
33785W        W 2190  20.675  16.202   4.401
33786W        W 2191  30.459   6.187   3.885
33787W        W 2192  27.932  18.758  14.911
33788W        W 2193  22.793  30.594   4.256
33789W        W 2194   2.762  27.547  12.440
33790W        W 2195   5.381  14.717  10.636
33791W        W 2196  25.109   4.229   4.945
33792W        W 2197  22.827   7.390   0.825
33793W        W 2198  28.720  44.564   4.657
33794W        W 2199  30.164  31.601  11.448
33795W        W 2200  26.215  14.725  11.156
33796W        W 2201  30.900  15.316   2.236
33797W        W 2202  42.017  34.053   3.681
33798W        W 2203  18.693  31.435   3.597
33799W        W 2204  35.325  24.447   4.421
33800W        W 2205  19.203   1.404   4.503
33801W        W 2206   0.993  44.145   4.312
33802W        W 2207  25.598  11.322   2.375
33803W        W 2208  29.716  30.506  13.936
33804W        W 2209  41.992  25.165   4.312
33805W        W 2210   2.448  15.848  14.586
33806W        W 2211  11.027  15.564  13.114
33807W        W 2212  22.675   2.419   4.618
33808W        W 2213  25.208  19.503  12.930
33809W        W 2214  22.928   4.111  10.211
33810W        W 2215  34.468   2.207   0.257
33811W        W 2216  25.665  40.296  11.700
33812W        W 2217  19.829  32.922  14.889
33813W        W 2218  30.736  15.586  10.372
33814W        W 2219  27.441  18.570   2.908
33815W        W 2220  28.426   6.132   3.085
33816W        W 2221  23.629  34.161  14.474
33817W        W 2222  20.504  24.692   1.252
33818W        W 2223   1.190  19.583  13.537
33819W        W 2224   9.693  26.682  10.982
33820W        W 2225   1.578  29.758  13.489
33821W        W 2226  22.427   8.253   4.647
33822W        W 2227  41.021  13.556   3.310
33823W        W 2228   4.972  29.494   2.364
33824W        W 2229  27.231  25.709  12.706
33825W        W 2230  39.677  12.612   4.854
33826W        W 2231  24.099  24.139  13.869
33827W        W 2232  38.604  18.487   5.027
33828W        W 2233   1.261  20.001  14.478
33829W        W 2234  18.068   5.463  11.041
33830W        W 2235   2.288  39.965  13.798
33831W        W 2236  27.018  17.857  11.474
33832W        W 2237  33.462  43.991  12.129
33833W        W 2238  25.437   9.321  13.110
33834W        W 2239   7.219  38.801  11.503
33835W        W 2240  43.036  44.914   3.607
33836W        W 2241  24.548  27.223   3.263
33837W        W 2242  23.759  12.911   2.475
33838W        W 2243   1.819   9.457  13.987
33839W        W 2244  34.391  28.391  14.431
33840W        W 2245  24.413  24.518   0.469
33841W        W 2246  32.206  13.203  10.749
33842W        W 2247  19.143  18.176   4.609
33843W        W 2248   3.720  11.283   1.875
33844W        W 2249  31.168  19.699   2.762
33845W        W 2250  22.480  41.875  14.402
33846W        W 2251   7.829   8.339   2.867
33847W        W 2252   0.933  33.620   1.821
33848W        W 2253   4.699  19.911   2.565
33849W        W 2254  12.903  31.628   0.105
33850W        W 2255  23.144  42.578  10.869
33851W        W 2256  22.310  24.327   1.867
33852W        W 2257  44.257   1.229   3.711
33853W        W 2258  25.660   3.818   0.489
33854W        W 2259  44.067  25.647  11.584
33855W        W 2260  16.363  29.115   1.510
33856W        W 2261  43.882  12.109  12.877
33857W        W 2262  28.892  19.170   2.225
33858W        W 2263  30.452  27.107   3.679
33859W        W 2264  30.045  43.229   0.096
33860W        W 2265  44.171  33.650   0.640
33861W        W 2266  19.209   3.883   2.846
33862W        W 2267  25.017  36.148  11.865
33863W        W 2268   7.943  15.959  13.795
33864W        W 2269  43.948  16.266  11.969
33865W        W 2270  42.381  31.775  13.895
33866W        W 2271  37.893  19.839  11.996
33867W        W 2272  22.679  43.865  12.128
33868W        W 2273  14.824  32.336   0.009
33869W        W 2274  28.101  11.231   1.742
33870W        W 2275  24.430   6.317   1.736
33871W        W 2276  21.120  16.667   4.855
33872W        W 2277  43.001   9.305  13.333
33873W        W 2278  17.566  12.858   0.499
33874W        W 2279  44.278  37.376   0.244
33875W        W 2280  17.069   8.266  11.181
33876W        W 2281  30.454  36.737   4.718
33877W        W 2282  30.712   2.340   0.043
33878W        W 2283  34.723  18.902  11.393
33879W        W 2284  30.621  44.470   0.951
33880W        W 2285   6.632  16.244  12.599
33881W        W 2286  36.132  19.688  13.902
33882W        W 2287   1.508   9.063  14.653
33883W        W 2288  37.457  18.574  14.718
33884W        W 2289  32.562  32.329   0.457
33885W        W 2290  33.054  28.750   4.702
33886W        W 2291  32.505  34.143  13.918
33887W        W 2292   0.700  10.305   0.998
33888W        W 2293   7.138  30.017  12.054
33889W        W 2294  39.092  16.595   3.472
33890W        W 2295  27.593  26.685  12.910
33891W        W 2296  20.595   8.929   4.080
33892W        W 2297  11.744  32.419  10.605
33893W        W 2298  39.552  20.149  14.397
33894W        W 2299  26.501  18.724  11.187
33895W        W 2300  19.072  16.926  14.902
33896W        W 2301   3.825  35.817  11.641
33897W        W 2302  11.893  33.076   0.791
33898W        W 2303   8.173  10.256  14.865
33899W        W 2304  38.943  43.515   3.223
33900W        W 2305   4.436  27.138  11.625
33901W        W 2306   5.520  44.299   4.559
33902W        W 2307  27.815   1.853   1.013
33903W        W 2308  26.537  23.527   4.599
33904W        W 2309   1.722  22.215  14.859
33905W        W 2310  43.119  11.291  10.721
33906W        W 2311  32.696  32.928  12.054
33907W        W 2312  42.442   6.353  12.903
33908W        W 2313  25.028  44.737   4.271
33909W        W 2314   0.241  17.697   4.571
33910W        W 2315  34.863  11.201   4.879
33911W        W 2316   6.531  39.011   0.784
33912W        W 2317  35.827  42.027   2.097
33913W        W 2318   5.819  34.404   2.054
33914W        W 2319  28.054  43.576   4.391
33915W        W 2320  38.789  31.915   2.696
33916W        W 2321  17.371   5.562   4.173
33917W        W 2322  41.007  40.996  14.740
33918W        W 2323   8.365  26.691  12.526
33919W        W 2324  43.803  10.063   4.157
33920W        W 2325  41.984  35.863  11.098
33921W        W 2326  31.106  34.630  13.409
33922W        W 2327   7.177  43.279  13.964
33923W        W 2328  15.890  32.344  12.036
33924W        W 2329   9.679  27.191   3.294
33925W        W 2330  24.000  11.590   2.331
33926W        W 2331  15.033  32.094  14.575
33927W        W 2332  25.109   8.952   4.499
33928W        W 2333  12.132   5.248   4.310
33929W        W 2334  32.063  16.186  10.677
33930W        W 2335  37.966  36.034  14.149
33931W        W 2336  24.965  39.843  10.435
33932W        W 2337   4.461  38.414  14.251
33933W        W 2338   0.724  23.556  11.665
33934W        W 2339  13.366   5.580   4.238
33935W        W 2340   4.221  26.980  11.177
33936W        W 2341  10.278  15.734   0.687
33937W        W 2342   5.380  42.315  11.104
33938W        W 2343  39.413   8.887  12.439
33939W        W 2344   8.105  25.807  13.935
33940W        W 2345  33.980  23.527  10.795
33941W        W 2346   7.975  14.624  11.104
33942W        W 2347  39.797  17.833  12.845
33943W        W 2348  28.072  26.825   0.307
33944W        W 2349  37.717  37.514   2.853
33945W        W 2350  10.364  40.935   1.260
33946W        W 2351  34.576  41.724  14.854
33947W        W 2352  22.050  21.106   0.403
33948W        W 2353  35.345  25.665   4.169
33949W        W 2354  42.744  10.196   0.310
33950W        W 2355  33.358   0.096  14.856
33951W        W 2356  16.984  12.212   0.205
33952W        W 2357   8.929   9.686  11.609
33953W        W 2358  34.573  14.652   0.957
33954W        W 2359  18.793  11.639   3.307
33955W        W 2360  29.515  34.394   1.069
33956W        W 2361  27.850  30.133   2.773
33957W        W 2362  36.270  42.022  11.103
33958W        W 2363   0.732  18.687  12.447
33959W        W 2364  36.830  19.859   2.113
33960W        W 2365  41.227  13.115  13.980
33961W        W 2366   0.963  30.028   1.706
33962W        W 2367   0.909  19.800   3.297
33963W        W 2368   6.874  15.392   0.018
33964W        W 2369  33.469  30.553  11.413
33965W        W 2370   8.093   6.888   3.688
33966W        W 2371  12.319  25.005  11.666
33967W        W 2372   6.959  34.449   0.349
33968W        W 2373  11.697  24.898   0.301
33969W        W 2374   5.393  40.341   1.945
33970W        W 2375  19.689   7.872  12.416
33971W        W 2376  16.190  17.871  14.783
33972W        W 2377  21.546  15.098  10.531
33973W        W 2378  40.323  39.338   1.275
33974W        W 2379  20.819  24.352   3.632
33975W        W 2380  16.637  16.368   1.906
33976W        W 2381  29.551   8.181   3.713
33977W        W 2382  26.569  41.843   4.884
33978W        W 2383  13.218  44.738   0.944
33979W        W 2384  10.175  41.575  11.100
33980W        W 2385   5.652  44.561  11.544
33981W        W 2386   0.395  38.653  12.809
33982W        W 2387  43.708   2.246   1.740
33983W        W 2388  39.839  38.329   1.730
33984W        W 2389  43.595  41.799  13.961
33985W        W 2390  34.530   2.297  10.752
33986W        W 2391  35.372  35.507   4.067
33987W        W 2392  35.202  20.620   3.724
33988W        W 2393   5.758  41.749   1.876
33989W        W 2394  36.864  40.100  12.021
33990W        W 2395  31.098  13.831  12.039
33991W        W 2396  28.742   9.921  14.259
33992W        W 2397  15.820  21.921  11.264
33993W        W 2398  44.420  13.824   2.136
33994W        W 2399  27.030  36.495   2.821
33995W        W 2400  20.588  14.403  13.251
33996W        W 2401   8.611  26.557   3.558
33997W        W 2402  18.682  30.371  10.357
33998W        W 2403  12.848   8.823  12.024
33999W        W 2404  35.389  15.766   0.831
34000W        W 2405  10.853   7.137  12.442
34001W        W 2406  19.034  38.379   3.835
34002W        W 2407   8.282  15.255   3.154
34003W        W 2408   2.243  30.642   2.068
34004W        W 2409  20.567  41.894  11.209
34005W        W 2410  32.642   2.801   4.094
34006W        W 2411  19.591  10.635  11.519
34007W        W 2412  28.530   2.438   2.227
34008W        W 2413  43.128  27.306  14.785
34009W        W 2414  27.972   6.442  13.858
34010W        W 2415  28.109  27.208   1.002
34011W        W 2416  30.551  24.413  12.969
34012W        W 2417   0.388  24.164   3.438
34013W        W 2418  43.886  21.726   2.465
34014W        W 2419  14.037   2.948  12.878
34015W        W 2420   2.493  31.608  14.658
34016W        W 2421  17.762  28.171  14.768
34017W        W 2422   3.033  30.192  13.323
34018W        W 2423  40.337  13.592   1.349
34019W        W 2424  41.981  29.709  14.910
34020W        W 2425  35.346  25.539  13.958
34021W        W 2426  20.093   7.817  10.689
34022W        W 2427   3.870  32.555  10.687
34023W        W 2428  13.830   6.444  14.915
34024W        W 2429   2.982  25.484   4.506
34025W        W 2430  33.223  41.807  11.526
34026W        W 2431   9.277  38.392   0.474
34027W        W 2432  32.595  14.985   3.574
34028W        W 2433  25.399  30.811  11.246
34029W        W 2434  13.239  22.971   3.838
34030W        W 2435  29.574  11.225  12.660
34031W        W 2436  13.722   3.859  12.312
34032W        W 2437  39.573   9.623   0.257
34033W        W 2438  33.869  44.277  12.982
34034W        W 2439  11.853  33.188  14.873
34035W        W 2440   0.109  19.613  12.494
34036W        W 2441   1.814   3.448  13.365
34037W        W 2442  43.980  40.575   0.227
34038W        W 2443  12.113  22.680  11.978
34039W        W 2444  18.215  20.484   3.337
34040W        W 2445  37.384  23.085  13.680
34041W        W 2446   3.261  23.725  14.727
34042W        W 2447  14.991   3.307   2.539
34043W        W 2448  33.511  35.599  13.908
34044W        W 2449  33.645  25.633  10.157
34045W        W 2450  27.916  38.890  11.609
34046W        W 2451  19.809  31.614   3.769
34047W        W 2452  37.027  28.489  12.306
34048W        W 2453  27.555   2.549  12.936
34049W        W 2454  14.384  30.591   2.423
34050W        W 2455  34.398  25.931  11.489
34051W        W 2456   2.825  35.957  14.895
34052W        W 2457   2.203  21.015  13.506
34053W        W 2458  27.769  13.304  14.859
34054W        W 2459   4.230  29.538   0.810
34055W        W 2460  23.616  24.503  14.985
34056W        W 2461  39.681   7.482  10.960
34057W        W 2462   2.188  17.751   4.686
34058W        W 2463  42.440  11.227  12.814
34059W        W 2464  36.455  26.911   2.152
34060W        W 2465  18.300  29.648  14.398
34061W        W 2466   9.942  19.230   0.473
34062W        W 2467  29.091   2.222  11.505
34063W        W 2468  43.346  32.647  11.570
34064W        W 2469   2.033  13.334  13.460
34065W        W 2470   9.046  26.770   0.736
34066W        W 2471  35.243  25.497  11.730
34067W        W 2472  28.664  43.352   0.834
34068W        W 2473  15.486  15.186  12.311
34069W        W 2474  38.932  24.291  14.976
34070W        W 2475  41.767  33.226  14.886
34071W        W 2476   8.727   2.277   5.105
34072W        W 2477   9.411  27.058   1.911
34073W        W 2478   1.469  14.164  11.676
34074W        W 2479  31.374   6.350   2.108
34075W        W 2480  23.200   0.502   1.417
34076W        W 2481  12.809  25.795   2.016
34077W        W 2482  33.087   0.486   2.727
34078W        W 2483  32.393  25.896  13.306
34079W        W 2484  38.981  27.287   1.375
34080W        W 2485  21.164  19.337  14.318
34081W        W 2486   7.677  30.806   4.563
34082W        W 2487  10.404  12.371  14.294
34083W        W 2488  18.621  35.956   4.136
34084W        W 2489  23.530  41.048   2.736
34085W        W 2490  28.445   5.285  13.361
34086W        W 2491  21.549   5.746   3.351
34087W        W 2492   3.744  14.161  12.042
34088W        W 2493  28.606   1.015  10.903
34089W        W 2494  39.828  41.232  11.619
34090W        W 2495  30.136  24.159   0.456
34091W        W 2496  29.991  37.981  14.555
34092W        W 2497  11.882   4.376   3.209
34093W        W 2498  15.795  12.034  14.278
34094W        W 2499  26.962  36.489  11.556
34095W        W 2500  21.548  15.263   4.527
34096W        W 2501  40.648  19.725   0.775
34097W        W 2502   3.272  29.651  11.431
34098W        W 2503  42.593  27.820  14.042
34099W        W 2504  10.228  27.876  11.959
34100W        W 2505   5.170   2.913   2.742
34101W        W 2506  25.576   9.342  14.940
34102W        W 2507  17.535  41.789  14.232
34103W        W 2508  37.180  31.946  12.434
34104W        W 2509   3.757  25.238   4.181
34105W        W 2510  41.375  37.938   2.292
34106W        W 2511   8.306  40.586  12.818
34107W        W 2512   4.090  26.019  14.778
34108W        W 2513  32.773  38.368  10.850
34109W        W 2514   3.885   7.198  11.153
34110W        W 2515  21.101  17.695  12.622
34111W        W 2516  44.484  27.988  11.156
34112W        W 2517  41.007  35.319   0.837
34113W        W 2518  11.862  17.565  10.984
34114W        W 2519  37.828  35.593  12.899
34115W        W 2520  31.797  33.405  14.593
34116W        W 2521  28.591  11.262  10.991
34117W        W 2522  20.101   8.839   4.328
34118W        W 2523  26.444  31.950   4.647
34119W        W 2524  33.508  41.321   1.959
34120W        W 2525  41.770   2.157  10.703
34121W        W 2526  33.411  37.155  13.983
34122W        W 2527  21.766  11.237  11.897
34123W        W 2528  19.608  31.381   1.836
34124W        W 2529  31.281  19.208  11.442
34125W        W 2530  23.532   3.401   2.646
34126W        W 2531   7.138   7.365  12.033
34127W        W 2532   0.800   7.658  14.960
34128W        W 2533  44.578  13.227   2.495
34129W        W 2534  16.675   5.116   2.725
34130W        W 2535  18.251  38.744  11.139
34131W        W 2536  15.635  12.566   3.645
34132W        W 2537  27.691  36.859  13.658
34133W        W 2538  39.289  39.391  11.182
34134W        W 2539  40.504   7.391   3.979
34135W        W 2540  35.351   6.398   2.368
34136W        W 2541   8.841  28.104  10.721
34137W        W 2542  27.765  24.674   3.400
34138W        W 2543  17.072   0.274  14.445
34139W        W 2544  13.319  15.646   0.138
34140W        W 2545   3.889  30.367  11.831
34141W        W 2546  24.636  36.639  13.036
34142W        W 2547   6.952  41.077   2.292
34143W        W 2548   3.341  37.326  13.995
34144W        W 2549   9.459  36.924   2.294
34145W        W 2550   5.714  27.213   1.437
34146W        W 2551  44.472   7.902  13.305
34147W        W 2552   7.658   0.812  11.948
34148W        W 2553  23.257  40.476  10.678
34149W        W 2554  25.699  38.560   1.186
34150W        W 2555  38.262  44.254  11.543
34151W        W 2556   0.321  11.739   1.894
34152W        W 2557  12.650  40.805  11.214
34153W        W 2558  12.486   2.402   3.573
34154W        W 2559  36.976  35.788  12.322
34155W        W 2560  21.759  21.071  12.126
34156W        W 2561   1.443  30.480  12.070
34157W        W 2562  22.112  29.375   4.071
34158W        W 2563  39.962  33.237   4.352
34159W        W 2564  22.670  36.098   4.724
34160W        W 2565  35.331   3.811   0.352
34161W        W 2566   0.338  37.897   4.548
34162W        W 2567  21.265  29.444  12.420
34163W        W 2568  14.705  24.781   0.118
34164W        W 2569  25.587  11.826  10.722
34165W        W 2570  35.815  41.367   4.108
34166W        W 2571  14.676  19.559   4.094
34167W        W 2572   6.181  37.527   1.319
34168W        W 2573  27.424  21.064  12.820
34169W        W 2574  32.609  15.866   2.887
34170W        W 2575  20.652  33.576  11.845
34171W        W 2576  13.912  41.431  13.409
34172W        W 2577  25.568   6.905   1.020
34173W        W 2578  39.558  11.695  11.111
34174W        W 2579  23.006  11.681  11.449
34175W        W 2580  15.665  33.164   1.456
34176W        W 2581  18.805  22.958  12.550
34177W        W 2582   5.699  11.360   0.722
34178W        W 2583  27.216  37.022  14.712
34179W        W 2584   1.375  35.000   4.548
34180W        W 2585  33.108  43.904   2.038
34181W        W 2586   9.700  21.030   4.986
34182W        W 2587  28.531  28.715  13.388
34183W        W 2588  28.050  15.899   9.991
34184W        W 2589   4.750  39.974   3.287
34185W        W 2590  23.135   7.981  13.161
34186W        W 2591  36.566  36.633   2.298
34187W        W 2592  27.373   6.243  12.843
34188W        W 2593  35.200  42.890  12.399
34189W        W 2594   9.159  30.064   1.803
34190W        W 2595  29.633  12.124   2.182
34191W        W 2596   6.738  20.970  12.111
34192W        W 2597  34.552  25.814  10.630
34193W        W 2598  10.780   7.378  14.778
34194W        W 2599  17.037  23.458  14.953
34195W        W 2600  35.358  43.066   0.475
34196W        W 2601  25.798   2.186  12.905
34197W        W 2602  37.521  16.085  13.123
34198W        W 2603   5.937   7.118   2.193
34199W        W 2604   7.165  28.131  11.699
34200W        W 2605   3.240   4.510   4.501
34201W        W 2606  32.367  41.744  11.050
34202W        W 2607  20.804  10.113  11.873
34203W        W 2608  16.704  37.156   3.653
34204W        W 2609   7.198  13.184  14.262
34205W        W 2610   1.331   4.110   3.291
34206W        W 2611  23.470  27.450  12.091
34207W        W 2612  17.901  29.576  13.414
34208W        W 2613   0.783  11.221  14.950
34209W        W 2614  37.868  16.215   3.225
34210W        W 2615  18.519  40.454  14.937
34211W        W 2616  21.758  33.977   0.863
34212W        W 2617   1.918  31.388   3.825
34213W        W 2618   8.722  29.213   1.261
34214W        W 2619   5.797  26.956   0.982
34215W        W 2620  33.371  38.807  11.557
34216W        W 2621   7.975   4.844   2.867
34217W        W 2622  43.046  44.223   4.159
34218W        W 2623  24.545  25.554   4.655
34219W        W 2624  34.127  28.084  11.379
34220W        W 2625  16.598  16.431  13.804
34221W        W 2626  21.787  15.329   0.116
34222W        W 2627  15.206   3.875   4.536
34223W        W 2628  36.858  28.712   3.726
34224W        W 2629   3.963   2.863  11.279
34225W        W 2630  13.735  17.168   0.179
34226W        W 2631  40.418  21.754   3.624
34227W        W 2632  12.305  23.768   1.867
34228W        W 2633  31.852   2.241   1.452
34229W        W 2634  10.460  19.505   1.692
34230W        W 2635  36.985  24.296  14.824
34231W        W 2636  30.965  24.369  10.811
34232W        W 2637  10.285  44.165  14.869
34233W        W 2638  30.031   8.262  11.269
34234W        W 2639  37.482  42.327  11.796
34235W        W 2640  17.573  28.208  13.361
34236W        W 2641  34.344  11.182  11.117
34237W        W 2642  13.363  18.429  11.733
34238W        W 2643   7.322   9.964  10.714
34239W        W 2644  33.661  44.257   1.509
34240W        W 2645  17.223  12.157  13.117
34241W        W 2646  42.744  39.140   0.275
34242W        W 2647   9.184  29.925   0.830
34243W        W 2648   3.431  43.947  11.232
34244W        W 2649  21.209  41.746  12.047
34245W        W 2650  37.087  13.909  12.021
34246W        W 2651  39.478  22.147   1.960
34247W        W 2652  32.419  33.105   3.983
34248W        W 2653  39.238  35.819   1.830
34249W        W 2654  22.968   6.229   1.795
34250W        W 2655  43.475  22.032  13.522
34251W        W 2656  27.168   6.329  12.237
34252W        W 2657  13.870  44.889  13.357
34253W        W 2658  15.909  39.448  11.642
34254W        W 2659  10.999  43.892  11.943
34255W        W 2660  23.760   3.350   3.585
34256W        W 2661  18.918  31.881  12.315
34257W        W 2662  43.140  28.812  12.059
34258W        W 2663  15.537  21.498   0.314
34259W        W 2664  35.139  17.141   3.250
34260W        W 2665  22.706  20.066   1.744
34261W        W 2666   7.862   5.906   1.901
34262W        W 2667  26.995  13.580  14.494
34263W        W 2668  25.275  25.491  12.351
34264W        W 2669  15.999  15.522   1.961
34265W        W 2670  37.133  21.795  12.098
34266W        W 2671  29.190   7.686  12.525
34267W        W 2672  28.110  36.814   2.347
34268W        W 2673  37.522  39.558  14.008
34269W        W 2674  39.500   7.758  11.486
34270W        W 2675  10.120   2.271  14.829
34271W        W 2676  19.521   0.515  12.058
34272W        W 2677  38.245  36.469   2.315
34273W        W 2678  31.595   0.263  11.496
34274W        W 2679  17.338  41.402   2.682
34275W        W 2680  33.381  38.171   0.300
34276W        W 2681   3.243  24.756  13.042
34277W        W 2682  12.047  22.665   4.130
34278W        W 2683  43.357  29.988  14.508
34279W        W 2684   6.491  11.401  12.726
34280W        W 2685   7.354  31.827  11.237
34281W        W 2686  34.116  21.295   2.401
34282W        W 2687  14.520  42.463   1.683
34283W        W 2688   7.207  27.875  10.035
34284W        W 2689  16.330  23.198  11.627
34285W        W 2690  37.287  18.601   4.302
34286W        W 2691   8.777   5.286   0.235
34287W        W 2692  23.563  15.797   4.192
34288W        W 2693  18.245   4.998  14.479
34289W        W 2694   3.534  21.222   3.131
34290W        W 2695   2.761   0.800  12.651
34291W        W 2696  19.075  17.597   1.675
34292W        W 2697   6.920   2.383   1.858
34293W        W 2698  29.932  35.345   4.996
34294W        W 2699  13.806  17.886   1.819
34295W        W 2700  18.128  15.839  13.029
34296W        W 2701  16.424  32.959   0.236
34297W        W 2702  10.647  24.965  10.959
34298W        W 2703  23.317   8.728   2.222
34299W        W 2704  41.103  43.291   0.371
34300W        W 2705   2.485   4.672  12.330
34301W        W 2706  18.400  19.143   4.696
34302W        W 2707  26.228  33.495  14.392
34303W        W 2708  34.418   9.350  13.060
34304W        W 2709   6.733  40.912  11.245
34305W        W 2710  44.241  25.819  11.096
34306W        W 2711   4.532  12.417  13.999
34307W        W 2712  26.238   7.369   0.819
34308W        W 2713  41.353  31.775   2.281
34309W        W 2714   7.963  12.000  12.842
34310W        W 2715  39.621  16.997   5.054
34311W        W 2716  30.026  27.145   4.665
34312W        W 2717  31.286  14.371  11.640
34313W        W 2718  12.711   7.719   1.529
34314W        W 2719   9.936  44.477  14.659
34315W        W 2720  20.214  20.652   2.945
34316W        W 2721  37.524  19.583   4.509
34317W        W 2722  14.411  17.287  10.577
34318W        W 2723  19.033  15.811  12.577
34319W        W 2724  30.625  39.352   5.179
34320W        W 2725  11.167  35.908  12.135
34321W        W 2726   4.224  25.014  14.955
34322W        W 2727   8.621  18.722   1.681
34323W        W 2728  22.982  27.570   2.555
34324W        W 2729   4.160   8.471  13.002
34325W        W 2730  25.057   5.268  12.490
34326W        W 2731  33.006  13.647  14.795
34327W        W 2732  37.317  32.157  11.984
34328W        W 2733   8.836  26.135   4.836
34329W        W 2734  37.499  38.780   2.443
34330W        W 2735  15.788  24.270  14.772
34331W        W 2736  14.214  17.107   4.955
34332W        W 2737  35.093  28.521  10.639
34333W        W 2738   9.746  39.449  11.429
34334W        W 2739  23.071  15.521  13.706
34335W        W 2740  22.223  17.134   2.837
34336W        W 2741   6.966   8.163  11.993
34337W        W 2742  27.706  21.484   0.696
34338W        W 2743   5.460  32.586   1.802
34339W        W 2744  10.795  43.569   3.865
34340W        W 2745   4.073  43.300   2.130
34341W        W 2746  36.417  22.146   2.445
34342W        W 2747   7.499  27.507   1.397
34343W        W 2748  26.570  13.177   0.413
34344W        W 2749  15.134  31.424  13.897
34345W        W 2750  29.614  26.150   1.821
34346W        W 2751   8.312  30.038   3.611
34347W        W 2752  35.299  16.710  14.034
34348W        W 2753  24.670  21.940  13.617
34349W        W 2754   6.646   6.447  11.148
34350W        W 2755  29.730  29.226   1.871
34351W        W 2756   6.389   6.966   1.963
34352W        W 2757  44.379  24.077  10.799
34353W        W 2758  38.074  35.794  11.499
34354W        W 2759  11.123  41.396   2.213
34355W        W 2760  21.056  34.652   0.320
34356W        W 2761   7.861  35.302   1.667
34357W        W 2762  22.037   3.479  11.090
34358W        W 2763   5.627  40.167  13.269
34359W        W 2764   5.171  22.206  13.319
34360W        W 2765  30.491  20.131   4.644
34361W        W 2766  24.129  44.523  12.627
34362W        W 2767  38.849   8.667  10.702
34363W        W 2768  29.125   5.787   3.600
34364W        W 2769  29.014  19.689   2.156
34365W        W 2770   1.006  33.388  14.133
34366W        W 2771  32.804  42.344   1.833
34367W        W 2772  22.755  29.044   3.720
34368W        W 2773  16.042  30.868   2.259
34369W        W 2774  23.014  15.565  12.706
34370W        W 2775   3.495   4.764  12.179
34371W        W 2776  40.143  14.235  12.896
34372W        W 2777  20.276   0.443   2.868
34373W        W 2778   0.533  30.287   1.976
34374W        W 2779  24.142  13.583   4.132
34375W        W 2780  44.635  42.783   0.031
34376W        W 2781   7.767  14.359  10.720
34377W        W 2782  15.661  44.541   0.591
34378W        W 2783  23.307  15.797  14.734
34379W        W 2784  27.717  13.804   1.706
34380W        W 2785  22.414  36.762  12.992
34381W        W 2786  27.874  43.495   0.174
34382W        W 2787  14.264  32.850   1.214
34383W        W 2788  26.264  17.235   4.966
34384W        W 2789  22.141   1.161  14.977
34385W        W 2790  16.773   9.648  10.472
34386W        W 2791  13.756  32.570  14.246
34387W        W 2792  22.552  21.190  11.423
34388W        W 2793  20.844  28.031   0.886
34389W        W 2794  27.217  32.210  10.947
34390W        W 2795  12.334  33.132   4.015
34391W        W 2796  12.323  36.665   4.834
34392W        W 2797  10.169   5.746  13.482
34393W        W 2798   0.897  17.030   1.473
34394W        W 2799  37.847  23.351  12.366
34395W        W 2800  10.779  30.134  10.995
34396W        W 2801  40.404  23.470  12.754
34397W        W 2802  36.910  37.435   3.820
34398W        W 2803   6.795   0.487   2.344
34399W        W 2804  39.294  13.815  12.496
34400W        W 2805  13.635  18.989  11.515
34401W        W 2806  10.680  12.341  10.884
34402W        W 2807  11.740   3.148  10.829
34403W        W 2808  44.656  44.297  13.793
34404W        W 2809   0.028   0.180   2.727
34405W        W 2810  11.782  32.651  14.847
34406W        W 2811  14.985  22.038  13.061
34407W        W 2812  14.551  31.494   5.045
34408W        W 2813  29.492  29.513   2.604
34409W        W 2814  11.899  34.645  12.468
34410W        W 2815  20.330   7.514   2.751
34411W        W 2816  42.824  41.571   1.807
34412W        W 2817   8.840   8.505  11.892
34413W        W 2818  25.507  27.493  13.955
34414W        W 2819  44.878  23.671   2.322
34415W        W 2820  10.711  31.197  12.390
34416W        W 2821  13.098   3.542  10.899
34417W        W 2822   0.390   9.851   0.913
34418W        W 2823  14.802  14.800  12.065
34419W        W 2824  19.549  23.890   1.676
34420W        W 2825  35.346  11.422  13.471
34421W        W 2826  29.867  42.347  13.812
34422W        W 2827  31.706   3.255  12.128
34423W        W 2828  12.760  41.663   3.359
34424W        W 2829  43.732   3.442  14.885
34425W        W 2830  13.579  11.105   1.356
34426W        W 2831   1.076  16.239   3.643
34427W        W 2832  40.375  44.299   0.871
34428W        W 2833  43.413  41.611  12.984
34429W        W 2834  18.011  41.860  14.461
34430W        W 2835  10.208  30.952  12.516
34431W        W 2836  16.125  22.135   0.698
34432W        W 2837  39.601   1.750  13.854
34433W        W 2838  10.935  24.325   3.360
34434W        W 2839  35.691  36.503  10.775
34435W        W 2840  25.065   2.881   3.725
34436W        W 2841  43.792   0.293  12.401
34437W        W 2842  20.748  35.692  14.779
34438W        W 2843  11.094  43.731  14.748
34439W        W 2844   8.687  32.685  14.928
34440W        W 2845   2.945  36.993  11.057
34441W        W 2846  33.555   4.824   1.363
34442W        W 2847  32.399  44.494  13.261
34443W        W 2848  32.472   4.355  11.539
34444W        W 2849  42.543   0.863   0.801
34445W        W 2850  13.152   7.595  13.177
34446W        W 2851   7.840   6.285  14.685
34447W        W 2852  24.512  11.791   4.170
34448W        W 2853   2.549   2.553   1.866
34449W        W 2854  27.264  42.252  10.687
34450W        W 2855  21.979  23.620  14.018
34451W        W 2856  36.626  21.232   2.328
34452W        W 2857  36.739  33.545   0.758
34453W        W 2858  16.143  28.553   2.212
34454W        W 2859  14.651  13.817  12.072
34455W        W 2860  31.638  27.892   3.450
34456W        W 2861  14.639  28.369  10.688
34457W        W 2862  36.770  27.028   3.442
34458W        W 2863  16.639  23.481   3.199
34459W        W 2864  29.507  30.235   0.299
34460W        W 2865   6.242  34.491  13.087
34461W        W 2866  24.203  33.159   4.189
34462W        W 2867   6.420   0.446  12.020
34463W        W 2868  22.109  26.204   4.254
34464W        W 2869  35.860  39.402  12.944
34465W        W 2870  19.011   3.143   2.257
34466W        W 2871  22.999  22.172   4.656
34467W        W 2872  17.776  38.283   2.347
34468W        W 2873  42.337  43.908   3.072
34469W        W 2874  35.521  11.824   0.230
34470W        W 2875  41.783  21.074   3.698
34471W        W 2876   7.083  38.500  13.401
34472W        W 2877  21.710   6.912   1.387
34473W        W 2878   5.404  24.197  10.816
34474W        W 2879  26.935  13.074  12.055
34475W        W 2880   4.910  33.775   2.473
34476W        W 2881  33.383   1.828  12.313
34477W        W 2882  27.997  15.126   1.613
34478W        W 2883  12.805  44.868  10.774
34479W        W 2884  23.631  15.248  11.932
34480W        W 2885   8.215  35.359   0.763
34481W        W 2886  29.977  40.496  14.295
34482W        W 2887  13.205  26.312   0.450
34483W        W 2888  31.395  33.048  11.618
34484W        W 2889  42.327  26.955  11.081
34485W        W 2890   1.574  36.011   1.387
34486W        W 2891  39.833  31.609   0.284
34487W        W 2892  36.873   7.840   2.756
34488W        W 2893  33.459  35.961  13.033
34489W        W 2894  11.853  28.025  12.796
34490W        W 2895  19.559   2.260   1.838
34491W        W 2896  27.141  15.541   1.139
34492W        W 2897  31.054  42.924   4.001
34493W        W 2898  18.704  30.496   0.635
34494W        W 2899  28.835   6.816  14.738
34495W        W 2900  17.022  16.520   3.106
34496W        W 2901  17.937  24.218   1.241
34497W        W 2902  38.917  20.168  13.256
34498W        W 2903  37.603  44.208  12.436
34499W        W 2904  15.434  42.515  10.345
34500W        W 2905   1.163  16.486   4.126
34501W        W 2906  31.950  27.171   4.652
34502W        W 2907  23.589  42.627  11.601
34503W        W 2908  26.374  41.413  13.500
34504W        W 2909  23.972  33.495   0.814
34505W        W 2910  34.062  28.592  13.418
34506W        W 2911  33.812   3.901   4.620
34507W        W 2912  21.554  40.375  11.366
34508W        W 2913  30.437  41.451  14.724
34509W        W 2914  37.558  28.651  11.317
34510W        W 2915  29.938  31.142  11.541
34511W        W 2916   3.643  38.960  12.051
34512W        W 2917   6.188   8.092   1.008
34513W        W 2918  27.536  15.760   1.402
34514W        W 2919   8.848  20.195   0.823
34515W        W 2920  29.021  30.437   3.673
34516W        W 2921  32.176  16.220   2.410
34517W        W 2922  21.404  42.858  11.448
34518W        W 2923   5.232  34.049   3.587
34519W        W 2924   5.259   9.659   0.827
34520W        W 2925  31.140  31.553   1.214
34521W        W 2926   2.625   5.174  12.220
34522W        W 2927   0.769  38.558   2.415
34523W        W 2928  13.326   4.474  11.230
34524W        W 2929   7.198   0.081   2.264
34525W        W 2930  33.629  37.168   4.353
34526W        W 2931   3.361  16.552  12.889
34527W        W 2932   9.976   6.219  13.533
34528W        W 2933  11.316  31.262   3.701
34529W        W 2934  15.196   9.193   2.766
34530W        W 2935  24.179  44.594   4.502
34531W        W 2936  20.609  17.807   3.091
34532W        W 2937   3.750  11.257  14.309
34533W        W 2938  12.894  25.589  13.882
34534W        W 2939   2.189   5.249   1.778
34535W        W 2940   3.466  30.135  10.633
34536W        W 2941  17.095  25.173   4.574
34537W        W 2942  20.089  21.351   3.324
34538W        W 2943  30.480  36.713   1.429
34539W        W 2944   5.749  42.028  12.076
34540W        W 2945  25.149  40.288  10.264
34541W        W 2946  19.634   6.822  14.462
34542W        W 2947   2.838  32.669   0.317
34543W        W 2948   5.036  18.516   5.021
34544W        W 2949   4.409   0.736   1.313
34545W        W 2950   3.443   7.438  11.221
34546W        W 2951  36.565  39.929   3.290
34547W        W 2952  31.049  24.151  12.374
34548W        W 2953  40.821  19.475  11.060
34549W        W 2954  10.938  35.986  13.404
34550W        W 2955  38.295   1.522   4.704
34551W        W 2956  13.304   4.758  13.141
34552W        W 2957  42.798   4.782   1.737
34553W        W 2958   6.279  19.306   2.241
34554W        W 2959  27.913  25.696  14.755
34555W        W 2960  13.668  29.350  12.565
34556W        W 2961  10.708   5.418  13.028
34557W        W 2962   7.122  16.157  12.871
34558W        W 2963  42.661  35.370  12.246
34559W        W 2964  12.853  32.534  12.014
34560W        W 2965   6.562  27.597  11.869
34561W        W 2966   9.699  20.208  12.462
34562W        W 2967  37.045   5.217   4.980
34563W        W 2968  24.589  21.595   4.766
34564W        W 2969  34.312   0.029  12.091
34565W        W 2970  12.466  35.071   3.866
34566W        W 2971  16.501  29.056   4.454
34567W        W 2972  20.752  13.204   2.334
34568W        W 2973  42.106  30.479  10.235
34569W        W 2974  38.830  40.987   0.324
34570W        W 2975  36.439   8.225   3.781
34571W        W 2976  36.387  29.714  11.145
34572W        W 2977   6.726  30.056  13.858
34573W        W 2978  44.453  17.628  10.124
34574W        W 2979   8.952  28.837   0.400
34575W        W 2980  17.715  39.835   3.728
34576W        W 2981  10.002  37.458   0.843
34577W        W 2982  15.495   3.895  12.873
34578W        W 2983  43.125   5.779   1.292
34579W        W 2984  18.117   5.738   4.690
34580W        W 2985  32.671  30.044  11.278
34581W        W 2986  12.647  29.545   3.110
34582W        W 2987  15.879   4.427  11.565
34583W        W 2988  14.884  29.334  10.157
34584W        W 2989  20.628  42.802   1.468
34585W        W 2990  44.524  16.077   2.659
34586W        W 2991  31.075  41.716   0.905
34587W        W 2992  31.327  30.856   1.714
34588W        W 2993   3.272   1.877  14.354
34589W        W 2994   5.228  21.629  10.780
34590W        W 2995  22.713  15.335  14.380
34591W        W 2996   2.246  42.869  14.781
34592W        W 2997  35.108  14.001  12.009
34593W        W 2998  31.708  12.877   2.352
34594W        W 2999  19.609  42.524  13.796
34595W        W 3000   7.733  13.328  10.747
34596W        W 3001  15.080  39.330  11.463
34597W        W 3002  25.673  43.722  13.552
34598W        W 3003  44.358  22.457  13.849
34599W        W 3004  18.873  42.814   4.116
34600W        W 3005  20.050  30.657  14.574
34601W        W 3006  20.022  36.325   1.514
34602W        W 3007  17.241  38.430   1.516
34603W        W 3008  35.813   3.206  14.793
34604W        W 3009  16.745  40.412  10.643
34605W        W 3010  31.182  33.518  11.498
34606W        W 3011  22.691  19.245  11.171
34607W        W 3012  17.767  11.595  14.960
34608W        W 3013  13.974  31.963   1.154
34609W        W 3014   2.932   0.888  10.738
34610W        W 3015  25.464   9.216  14.381
34611W        W 3016  37.916   6.128  10.630
34612W        W 3017   5.239  19.298   3.432
34613W        W 3018  20.697  33.999   1.589
34614W        W 3019  25.268  17.832   3.335
34615W        W 3020  27.708  32.350  10.976
34616W        W 3021  35.541  21.947  14.978
34617W        W 3022  11.657   7.324   1.872
34618W        W 3023  14.316  13.122   2.406
34619W        W 3024  22.268  21.451  12.791
34620W        W 3025  37.156  33.419   1.153
34621W        W 3026  31.448  38.347  10.963
34622W        W 3027  32.480  37.947   4.737
34623W        W 3028  32.564   0.285  10.369
34624W        W 3029   0.678   8.847   3.554
34625W        W 3030   5.925   3.422  13.948
34626W        W 3031   7.395  39.506   3.101
34627W        W 3032   3.382  19.669   4.824
34628W        W 3033   0.549  33.990  11.109
34629W        W 3034  26.219   5.402   0.134
34630W        W 3035  33.041  11.381   3.615
34631W        W 3036  13.735   0.318  14.489
34632W        W 3037   6.297   9.193  11.394
34633W        W 3038  31.890  33.979   2.805
34634W        W 3039  13.553  32.816   2.783
34635W        W 3040   4.845  36.387  13.011
34636W        W 3041  41.850  27.261   1.737
34637W        W 3042  40.062  23.608   0.952
34638W        W 3043  16.126  27.256   3.654
34639W        W 3044  25.071   2.768  11.924
34640W        W 3045  25.410   7.876   1.904
34641W        W 3046  26.923  32.922  13.389
34642W        W 3047  30.989  18.066   1.029
34643W        W 3048  29.439  33.546  14.595
34644W        W 3049  44.068   8.436  13.997
34645W        W 3050  28.469   3.275  13.478
34646W        W 3051   2.837  33.282   1.985
34647W        W 3052  32.034   5.161  12.975
34648W        W 3053   0.587  39.121  11.391
34649W        W 3054  36.518   0.018   3.646
34650W        W 3055  43.323  24.193   2.705
34651W        W 3056  42.781   2.685  11.557
34652W        W 3057  32.602  20.924   0.411
34653W        W 3058  42.016  44.590   3.610
34654W        W 3059  29.080  36.844   1.019
34655W        W 3060   5.008   8.880   1.251
34656W        W 3061  25.239  20.557   1.438
34657W        W 3062   3.436   1.423   1.963
34658W        W 3063  34.869  40.075   2.611
34659W        W 3064   5.779  12.026   1.378
34660W        W 3065  22.943  33.290   4.074
34661W        W 3066   4.699  14.252   2.746
34662W        W 3067   5.808  15.312   0.653
34663W        W 3068  43.591  23.963   3.297
34664W        W 3069  12.094  36.973  12.146
34665W        W 3070   6.312  22.888  13.291
34666W        W 3071  38.523  15.291   1.502
34667W        W 3072  24.694  24.749  12.880
34668W        W 3073  35.212  21.519   4.073
34669W        W 3074  16.596  17.759   3.681
34670W        W 3075   0.186  23.154  10.767
34671W        W 3076  17.785  31.047  10.434
34672W        W 3077  26.002  35.867   0.483
34673W        W 3078  41.311   2.179   1.855
34674W        W 3079   5.790  23.429   3.231
34675W        W 3080  31.086  32.317  11.129
34676W        W 3081  39.016  17.966   3.594
34677W        W 3082  43.942  10.989   0.954
34678W        W 3083  12.781   0.382   2.890
34679W        W 3084  22.451  20.676  14.640
34680W        W 3085  43.334  39.373   2.919
34681W        W 3086  12.670  44.864  13.036
34682W        W 3087  28.182  33.381   2.544
34683W        W 3088  39.499  33.757   2.695
34684W        W 3089  44.495   0.436  11.951
34685W        W 3090  31.632  19.765  12.855
34686W        W 3091  35.782  33.438  12.630
34687W        W 3092  20.599  17.317   1.115
34688W        W 3093  23.916  41.955   3.655
34689W        W 3094  38.967  29.209  11.071
34690W        W 3095  41.224  19.864  11.065
34691W        W 3096  20.253  15.286  10.595
34692W        W 3097  41.841  23.145  12.274
34693W        W 3098  13.329   4.763   4.550
34694W        W 3099  42.941  11.397  14.391
34695W        W 3100  15.243   0.769   4.875
34696W        W 3101  12.661  29.148  10.624
34697W        W 3102  26.029  19.236  10.050
34698W        W 3103  21.789  32.583   3.668
34699W        W 3104  21.480  38.765  11.827
34700W        W 3105  38.963  21.221  10.414
34701W        W 3106  33.435  44.438  11.045
34702W        W 3107   5.920   5.629  14.352
34703W        W 3108  13.849   8.025  12.467
34704W        W 3109  19.474  18.014  11.330
34705W        W 3110   2.834  12.122   1.154
34706W        W 3111   1.258   9.337   4.176
34707W        W 3112  30.335  14.620   4.989
34708W        W 3113  28.788  18.375   5.619
34709W        W 3114  19.625  15.411  10.730
34710W        W 3115   3.970  14.125   4.011
34711W        W 3116  34.456  27.721  13.607
34712W        W 3117  41.779  21.798   1.919
34713W        W 3118   1.562  36.782   0.480
34714W        W 3119  34.037   3.936  14.365
34715W        W 3120  15.300   3.999  12.402
34716W        W 3121   6.301   4.487   1.784
34717W        W 3122  27.875  40.483   0.038
34718W        W 3123  19.600   0.018  12.141
34719W        W 3124   4.630  40.094  14.237
34720W        W 3125   4.739  22.156  12.737
34721W        W 3126  21.602  38.037   3.233
34722W        W 3127  21.567  21.842  12.554
34723W        W 3128  19.179  22.784   2.668
34724W        W 3129  37.362  34.681   3.348
34725W        W 3130  10.636  16.626   3.378
34726W        W 3131  43.815  39.492   1.653
34727W        W 3132  22.709   2.971   4.593
34728W        W 3133  21.763   4.023   3.338
34729W        W 3134  31.014  32.933   1.830
34730W        W 3135  14.359  28.617  13.850
34731W        W 3136  42.602   1.710  14.290
34732W        W 3137  11.190  37.913  12.554
34733W        W 3138  12.069  15.259   1.097
34734W        W 3139  20.420  22.569   4.071
34735W        W 3140  42.504  28.455   4.756
34736W        W 3141  35.346  33.521  13.534
34737W        W 3142  42.459  38.033   2.125
34738W        W 3143  17.067  32.459  12.438
34739W        W 3144  43.728  44.316  11.098
34740W        W 3145  27.200   1.113   2.434
34741W        W 3146  20.710  26.667  10.684
34742W        W 3147  16.636  14.819  14.309
34743W        W 3148   3.845  28.112   4.301
34744W        W 3149   5.701  15.183  12.989
34745W        W 3150   1.526   5.718   0.693
34746W        W 3151   2.343   1.075  12.679
34747W        W 3152  27.371   3.522  10.538
34748W        W 3153  11.395  35.352  14.456
34749W        W 3154  18.847   6.448  13.324
34750W        W 3155  33.971  31.640   0.334
34751W        W 3156  13.664  35.854  10.709
34752W        W 3157  29.981  31.130   0.842
34753W        W 3158  41.894   9.109  11.915
34754W        W 3159   4.462  27.051   3.602
34755W        W 3160  39.178  22.016   0.661
34756W        W 3161  15.821  10.707  10.287
34757W        W 3162  33.552  16.229  12.893
34758W        W 3163  40.890   2.482   0.895
34759W        W 3164  10.341  16.768  13.786
34760W        W 3165  15.632  23.803   0.728
34761W        W 3166  39.495  35.123   1.211
34762W        W 3167  19.050  13.793   3.278
34763W        W 3168  38.621  43.195   3.451
34764W        W 3169  22.193  37.827  12.907
34765W        W 3170  35.599  30.041   0.474
34766W        W 3171   2.190  43.781  11.653
34767W        W 3172  19.583  35.779   0.906
34768W        W 3173  39.933  35.563  14.566
34769W        W 3174  35.104  35.027  11.556
34770W        W 3175  15.241  44.504  10.698
34771W        W 3176  41.294  24.775  12.048
34772W        W 3177   1.920   2.784   0.955
34773W        W 3178  33.196  42.803   2.629
34774W        W 3179   0.705  39.447   4.659
34775W        W 3180  10.881  14.131  13.076
34776W        W 3181  36.783  17.306   4.225
34777W        W 3182   6.880  43.317   2.267
34778W        W 3183  16.263   6.451   0.024
34779W        W 3184  43.853   8.266  11.272
34780W        W 3185  24.017  43.203   2.163
34781W        W 3186  30.151   2.732   2.802
34782W        W 3187  36.371   7.323  13.335
34783W        W 3188  35.473   4.462   0.877
34784W        W 3189  30.833  17.066  11.458
34785W        W 3190  12.731   7.664  10.908
34786W        W 3191   3.408  33.293  12.066
34787W        W 3192  31.611   5.791   3.247
34788W        W 3193  40.126   8.810   1.707
34789W        W 3194  15.715  23.524   1.218
34790W        W 3195   3.370   8.442   3.823
34791W        W 3196  29.200  20.336   0.786
34792W        W 3197  43.550  33.118   1.250
34793W        W 3198  32.665   3.384   2.191
34794W        W 3199  21.583  16.835  13.116
34795W        W 3200  42.019  19.825   0.984
34796W        W 3201  25.903   5.671   4.532
34797W        W 3202  20.565  25.254  10.500
34798W        W 3203  35.579  10.291   4.579
34799W        W 3204   5.857  38.681  13.503
34800W        W 3205  38.266   5.270   2.162
34801W        W 3206  41.005   0.449   1.296
34802W        W 3207  19.669  39.772  11.938
34803W        W 3208  18.778  34.415   4.818
34804W        W 3209   5.441  33.710  10.939
34805W        W 3210  28.360  19.163  12.423
34806W        W 3211  19.246  33.533   3.779
34807W        W 3212  43.721   9.336   2.774
34808W        W 3213  24.986  27.639  11.972
34809W        W 3214  27.480  15.761  14.436
34810W        W 3215  35.526   5.695   1.279
34811W        W 3216  19.019  40.567  14.958
34812W        W 3217  23.189  32.164  10.227
34813W        W 3218   0.711  43.258   3.236
34814W        W 3219  38.731  32.651  10.262
34815W        W 3220  26.923  12.813  13.959
34816W        W 3221  18.732  18.287   4.959
34817W        W 3222  34.105   6.880   4.641
34818W        W 3223  39.455  14.204   2.696
34819W        W 3224   0.585   0.925   4.184
34820W        W 3225  21.608  44.921   0.833
34821W        W 3226  39.626  43.024   3.560
34822W        W 3227  16.659  33.661  14.508
34823W        W 3228   2.034  30.069   0.774
34824W        W 3229  17.012   7.258   1.401
34825W        W 3230   3.342  42.345   4.689
34826W        W 3231  30.465  32.715   3.187
34827W        W 3232  42.007   6.402  12.144
34828W        W 3233  27.128   2.753   3.221
34829W        W 3234   5.292  27.634   2.932
34830W        W 3235  20.307  19.638  12.039
34831W        W 3236   5.112  33.305  10.998
34832W        W 3237  32.477  11.321   3.526
34833W        W 3238  31.857  19.550   0.158
34834W        W 3239  38.274  43.735  11.498
34835W        W 3240   6.586  23.573  10.595
34836W        W 3241  15.600  19.770  10.717
34837W        W 3242   9.156  28.048   4.167
34838W        W 3243  36.317  39.130  13.024
34839W        W 3244  36.473  33.362   4.463
34840W        W 3245  19.127  21.478   0.836
34841W        W 3246  40.715   1.808  11.155
34842W        W 3247   6.016   1.378   0.955
34843W        W 3248  11.175  32.917   2.907
34844W        W 3249  27.520  26.570   4.677
34845W        W 3250  12.920  27.521   3.596
34846W        W 3251  16.645   0.920  12.875
34847W        W 3252  43.478  31.633   2.705
34848W        W 3253   5.592  37.245   2.292
34849W        W 3254   0.018  42.319   1.901
34850W        W 3255  10.343  25.221   4.126
34851W        W 3256   0.377   9.111  12.019
34852W        W 3257  30.025  33.895  13.523
34853W        W 3258   3.530  37.412  14.990
34854W        W 3259  10.724   3.217  12.364
34855W        W 3260  22.581  11.348  11.438
34856W        W 3261  29.718   2.937  11.060
34857W        W 3262  40.624  20.727  11.895
34858W        W 3263  41.424  20.493  12.458
34859W        W 3264  27.416  44.710   4.175
34860W        W 3265  20.937  22.686   4.124
34861W        W 3266  18.129  40.778   0.034
34862W        W 3267  16.671  34.843  11.554
34863W        W 3268  30.050   8.198   4.566
34864W        W 3269  28.149  43.601   4.930
34865W        W 3270  24.447  41.332   0.517
34866W        W 3271  25.760  34.616   2.168
34867W        W 3272   9.769  26.776  12.674
34868W        W 3273  26.077  34.336   4.034
34869W        W 3274  41.419   0.415  14.356
34870W        W 3275  21.324  21.392   5.191
34871W        W 3276  30.591   2.045  13.013
34872W        W 3277  41.347  22.953  12.066
34873W        W 3278  41.296  23.668  11.602
34874W        W 3279  42.360  29.248   2.899
34875W        W 3280   0.435  33.649   4.177
34876W        W 3281  22.754  13.396  12.950
34877W        W 3282  31.997  17.040  11.038
34878W        W 3283  13.561   9.762  11.672
34879W        W 3284  24.261  11.787  13.309
34880W        W 3285  43.380   8.232  10.989
34881W        W 3286  27.077  30.116   3.630
34882W        W 3287  14.176  39.911  12.575
34883W        W 3288  26.092  44.316  14.297
34884W        W 3289  31.381  31.023  14.881
34885W        W 3290  28.336   0.975  13.086
34886W        W 3291  26.578  29.913   0.216
34887W        W 3292   6.941  42.012  13.711
34888W        W 3293  41.821   6.319   4.511
34889W        W 3294  22.012   7.712   2.427
34890W        W 3295  24.212  11.465   3.915
34891W        W 3296  34.102  31.326  12.935
34892W        W 3297   4.324   7.885  12.157
34893W        W 3298  32.924  31.135  13.443
34894W        W 3299  10.633   9.150  12.558
34895W        W 3300  42.450  44.364   3.465
34896W        W 3301  10.464  30.730   0.300
34897W        W 3302  14.141  43.013   3.173
34898W        W 3303  24.625  23.459   4.683
34899W        W 3304   5.113  29.474  14.642
34900W        W 3305  17.311  18.955  12.011
34901W        W 3306  28.812  10.302   2.808
34902W        W 3307  22.515  24.723   3.190
34903W        W 3308   8.424  30.756   4.902
34904W        W 3309  10.331  16.012  13.438
34905W        W 3310  31.530  23.113  11.429
34906W        W 3311  20.049  25.277  11.066
34907W        W 3312  38.035  30.116  12.956
34908W        W 3313  22.039   0.179  13.049
34909W        W 3314   4.825   6.909  12.884
34910W        W 3315   4.895  26.953   2.262
34911W        W 3316  41.329   0.929  13.496
34912W        W 3317  32.299  13.307  12.833
34913W        W 3318  14.729  44.558   0.991
34914W        W 3319  32.955  12.446   1.235
34915W        W 3320  21.751  27.948  14.331
34916W        W 3321   2.770  11.766   3.916
34917W        W 3322  41.421  17.555  14.408
34918W        W 3323   6.701  28.208   4.999
34919W        W 3324  27.220  10.157  11.500
34920W        W 3325  29.510  12.641   2.200
34921W        W 3326   0.498  36.398  11.502
34922W        W 3327   6.409  23.926   0.234
34923W        W 3328  26.262   8.256  14.383
34924W        W 3329  18.704  26.183  12.054
34925W        W 3330  26.148  28.931   4.247
34926W        W 3331  17.782  32.878   0.989
34927W        W 3332  28.063  12.833   4.972
34928W        W 3333  37.555  11.109  11.657
34929W        W 3334   3.998   9.237   4.151
34930W        W 3335  14.785  27.935   0.937
34931W        W 3336  33.363  39.449   2.608
34932W        W 3337  13.319   7.904   3.660
34933W        W 3338  21.106  22.975   0.779
34934W        W 3339  37.755  15.129  14.337
34935W        W 3340  24.686  17.661  13.873
34936W        W 3341  25.976  35.004   2.873
34937W        W 3342  36.037  32.559  12.130
34938W        W 3343  33.051  26.133  11.198
34939W        W 3344  24.706  27.108   0.462
34940W        W 3345  35.915   3.283  12.999
34941W        W 3346  36.704  18.382   2.090
34942W        W 3347  16.835  15.110  13.362
34943W        W 3348  24.992   6.809   4.216
34944W        W 3349  35.599  29.568   2.367
34945W        W 3350  28.832   0.755   0.678
34946W        W 3351  12.687   6.201   2.012
34947W        W 3352  14.302  30.147   2.153
34948W        W 3353  18.748   3.197  11.651
34949W        W 3354  26.399  29.964   1.082
34950W        W 3355  15.489  18.874  13.359
34951W        W 3356  30.405  28.153   4.468
34952W        W 3357  34.442  36.709  11.298
34953W        W 3358  28.055  43.314  13.888
34954W        W 3359  44.768  16.808   1.394
34955W        W 3360  18.655  11.637   1.755
34956W        W 3361  30.349   9.713  13.549
34957W        W 3362   7.852   2.599  11.631
34958W        W 3363   3.008  31.578   1.276
34959W        W 3364  25.021   1.753  11.464
34960W        W 3365  23.841  39.576  12.057
34961W        W 3366  29.516  31.955   1.848
34962W        W 3367   0.469  18.506   3.251
34963W        W 3368   6.645  25.302  14.472
34964W        W 3369   8.265   0.314   0.161
34965W        W 3370  32.004  15.717   1.111
34966W        W 3371  20.177  10.849   4.021
34967W        W 3372   7.434  36.918   3.607
34968W        W 3373   8.461  17.784   4.064
34969W        W 3374  30.737  40.863   5.600
34970W        W 3375   0.676  16.138   1.673
34971W        W 3376  28.998  10.076  13.391
34972W        W 3377  22.567  26.047  14.698
34973W        W 3378   8.685  41.806  14.793
34974W        W 3379  40.850   8.662  12.448
34975W        W 3380  25.975   9.209  14.380
34976W        W 3381  35.788  44.440  12.940
34977W        W 3382  36.992  19.096  13.896
34978W        W 3383  10.512  21.435  12.556
34979W        W 3384  10.880  39.361   0.693
34980W        W 3385   9.211  14.877  11.195
34981W        W 3386  26.577   4.509   1.259
34982W        W 3387  21.494  25.146   2.842
34983W        W 3388   7.407   3.183   0.745
34984W        W 3389   8.479  37.022  10.766
34985W        W 3390  38.421  17.434   2.613
34986W        W 3391  19.561  37.355  13.401
34987W        W 3392   1.129  32.944  14.326
34988W        W 3393  33.558  29.132  14.264
34989W        W 3394  17.984  29.076  11.492
34990W        W 3395   8.749   7.848  12.371
34991W        W 3396   9.370  36.717  10.920
34992W        W 3397  24.029  34.190   0.586
34993W        W 3398   8.565  37.337   3.692
34994W        W 3399   3.034  15.102   1.299
34995W        W 3400   4.406  31.863   4.629
34996W        W 3401  44.921  34.504  11.390
34997W        W 3402  39.454  29.530  13.769
34998W        W 3403   8.626  25.061  13.874
34999W        W 3404   5.819  14.263   2.893
35000W        W 3405  39.347  19.466  13.097
35001W        W 3406  34.768  32.429  11.536
35002W        W 3407  42.786  44.002  10.976
35003W        W 3408  38.273  14.724  14.806
35004W        W 3409  10.085  30.898   2.655
35005W        W 3410  25.238   6.333   4.292
35006W        W 3411  17.148  13.691  12.651
35007W        W 3412  31.157   0.485  12.352
35008W        W 3413  41.987   0.062   2.227
35009W        W 3414  13.729  44.134   9.788
35010W        W 3415  11.193  43.485  11.641
35011W        W 3416  28.820  11.440  13.057
35012W        W 3417  32.177  23.068  14.149
35013W        W 3418  18.779  21.222  11.969
35014W        W 3419  37.791   5.764   0.817
35015W        W 3420   0.416  27.419  10.692
35016W        W 3421  21.704   9.170  13.329
35017W        W 3422  37.867  37.684  11.682
35018W        W 3423  23.530   0.829   4.159
35019W        W 3424  10.740  29.435   0.616
35020W        W 3425   9.057   7.456   1.677
35021W        W 3426  22.834  32.941  10.423
35022W        W 3427  18.750  26.746  14.924
35023W        W 3428  42.403  10.555  13.282
35024W        W 3429  23.620  42.550  12.488
35025W        W 3430  27.049  22.558   2.138
35026W        W 3431  10.364  31.883  12.388
35027W        W 3432  12.098  31.344  14.363
35028W        W 3433  28.184  35.818  12.990
35029W        W 3434  41.253  36.945  11.490
35030W        W 3435   9.228   0.362  11.000
35031W        W 3436  17.075  10.196  13.034
35032W        W 3437  36.999  30.848  12.019
35033W        W 3438  28.103  21.789  11.106
35034W        W 3439  27.299   8.175  14.536
35035W        W 3440   9.178  22.375  13.651
35036W        W 3441  36.293  32.982  14.990
35037W        W 3442  43.486  14.704  13.806
35038W        W 3443  19.459  15.317   1.213
35039W        W 3444  12.763  39.790  11.410
35040W        W 3445   8.052   4.262  13.984
35041W        W 3446  20.652   0.335   4.123
35042W        W 3447  31.324  25.289   4.684
35043W        W 3448  25.663  44.618   3.423
35044W        W 3449  40.467  38.821   0.017
35045W        W 3450  43.823   7.190  13.827
35046W        W 3451  22.693  32.959   1.745
35047W        W 3452  35.441   7.106   1.788
35048W        W 3453  34.720   3.485   4.173
35049W        W 3454   3.158  26.166  10.931
35050W        W 3455   9.967  30.564  14.049
35051W        W 3456  29.744   0.908  12.484
35052W        W 3457  42.029  36.896   1.705
35053W        W 3458  29.110  34.658   1.281
35054W        W 3459  17.059   5.745   0.467
35055W        W 3460  30.669   1.788   4.518
35056W        W 3461  17.660  41.308  10.742
35057W        W 3462   5.873  24.689   0.795
35058W        W 3463   8.649  42.353   1.700
35059W        W 3464  28.574  13.756  10.463
35060W        W 3465  11.880  13.637  14.781
35061W        W 3466   4.111  10.888   3.178
35062W        W 3467  26.481  28.143   2.856
35063W        W 3468  41.701  29.706   4.471
35064W        W 3469  24.980  30.090  12.725
35065W        W 3470  27.036   3.100   0.635
35066W        W 3471  38.821   6.997   3.595
35067W        W 3472   4.170  44.493  10.547
35068W        W 3473   2.786   3.728  14.296
35069W        W 3474  19.713  16.408  13.618
35070W        W 3475  11.555  16.620   9.713
35071W        W 3476  20.745  11.866  12.348
35072W        W 3477   7.195  29.718   3.335
35073W        W 3478  36.856  43.710   5.123
35074W        W 3479  26.049  20.818  12.569
35075W        W 3480  18.978  38.242  14.209
35076W        W 3481  44.436  26.396  12.946
35077W        W 3482  13.541   4.341   0.223
35078W        W 3483  42.849   9.453   3.134
35079W        W 3484  40.973   0.179   0.325
35080W        W 3485  18.187   4.650   3.241
35081W        W 3486  35.826   2.356  14.899
35082W        W 3487  15.164  21.529   3.661
35083W        W 3488  22.519  32.793  12.049
35084W        W 3489   8.161  40.376   3.415
35085W        W 3490  35.019  37.800  13.521
35086W        W 3491  41.245  27.693  14.463
35087W        W 3492   7.289  43.813   2.715
35088W        W 3493   6.017  37.504   0.494
35089W        W 3494   7.841   4.760  14.022
35090W        W 3495  33.311  39.420  14.964
35091W        W 3496  18.630   6.195  14.858
35092W        W 3497  41.107  19.961  13.675
35093W        W 3498  44.224   2.832  13.738
35094W        W 3499  21.776  18.721  12.056
35095W        W 3500  37.151  32.230  10.358
35096W        W 3501   1.494   1.330   0.293
35097W        W 3502  20.685  23.207   0.965
35098W        W 3503  15.718  31.047   3.313
35099W        W 3504  44.018  36.027  11.161
35100W        W 3505   3.346  36.560  12.879
35101W        W 3506  38.823  44.200  12.694
35102W        W 3507  32.224  33.852  12.971
35103W        W 3508   5.891  22.260   4.149
35104W        W 3509  19.128  11.760   4.549
35105W        W 3510  30.624  19.082   4.008
35106W        W 3511  27.153   3.639  14.825
35107W        W 3512  22.445   9.164   3.332
35108W        W 3513  10.675  22.450   1.758
35109W        W 3514  12.846  40.389  14.773
35110W        W 3515  20.778  31.616   2.156
35111W        W 3516  33.618  14.681   0.396
35112W        W 3517  17.250  31.598   4.701
35113W        W 3518  37.563  15.869  11.927
35114W        W 3519  12.758  21.136   9.966
35115W        W 3520  20.451  36.540   1.727
35116W        W 3521  43.338  36.920  11.554
35117W        W 3522  12.688  40.291  11.221
35118W        W 3523  14.819  23.267   0.555
35119W        W 3524  18.654   6.854   1.869
35120W        W 3525  25.090  44.164   2.862
35121W        W 3526  28.659  36.373   4.536
35122W        W 3527  14.170  27.949  11.401
35123W        W 3528  31.615  40.094   2.378
35124W        W 3529   4.447  14.728  12.983
35125W        W 3530  12.890  19.538   3.195
35126W        W 3531   0.713   9.497   4.996
35127W        W 3532  31.381   9.851  13.768
35128W        W 3533  28.479  30.028  11.539
35129W        W 3534   1.201   3.832   2.716
35130W        W 3535  25.087  25.575   1.950
35131W        W 3536  32.957  38.578   2.446
35132W        W 3537  33.301  39.618  12.160
35133W        W 3538  26.375  26.600  11.591
35134W        W 3539  26.905  24.360  14.080
35135W        W 3540  28.963  21.106   1.200
35136W        W 3541  14.388  17.040   1.960
35137W        W 3542  12.236  21.686  12.009
35138W        W 3543  26.132  26.996  10.911
35139W        W 3544  28.675  24.133  11.682
35140W        W 3545  15.213  37.591   1.688
35141W        W 3546   2.742  25.508  11.850
35142W        W 3547  25.617  28.559  10.613
35143W        W 3548   5.100  15.208  11.283
35144W        W 3549  16.321  17.650  12.296
35145W        W 3550  15.826   3.249  12.018
35146W        W 3551  32.329   4.688   2.818
35147W        W 3552  28.233  18.528   2.171
35148W        W 3553   8.394   9.970  10.428
35149W        W 3554  22.808  11.383   2.712
35150W        W 3555  43.368  10.600   2.318
35151W        W 3556   6.185  24.697   0.262
35152W        W 3557  19.987  17.002  10.272
35153W        W 3558  32.416  13.098  11.191
35154W        W 3559  16.784  21.181   4.577
35155W        W 3560  37.346  14.023  12.446
35156W        W 3561  41.516  14.712  12.651
35157W        W 3562  28.454  22.015  10.783
35158W        W 3563  39.787  38.800  13.534
35159W        W 3564  14.985  35.967  13.622
35160W        W 3565  35.366  29.627  12.502
35161W        W 3566   7.795  36.972   0.810
35162W        W 3567  15.845   2.235  12.848
35163W        W 3568  24.300  23.530   0.268
35164W        W 3569  14.405  13.392  12.989
35165W        W 3570  37.486  15.673   4.877
35166W        W 3571  29.614  17.527   2.917
35167W        W 3572  36.176   7.880   1.326
35168W        W 3573  25.494  12.862  12.835
35169W        W 3574   8.186  12.690   0.405
35170W        W 3575  38.757  35.431  10.231
35171W        W 3576  18.171   5.366   3.911
35172W        W 3577  37.403  26.423   0.389
35173W        W 3578  15.772  24.260   4.791
35174W        W 3579  11.317   3.955   0.479
35175W        W 3580  34.580   7.358  13.795
35176W        W 3581  27.388  42.650   5.024
35177W        W 3582  35.460   3.167   3.739
35178W        W 3583  23.270   4.003  13.840
35179W        W 3584   1.902  27.750   0.249
35180W        W 3585  13.235  29.114   5.023
35181W        W 3586  32.701   7.297   3.714
35182W        W 3587  39.074  38.300  13.325
35183W        W 3588  11.875  13.706  11.861
35184W        W 3589  40.012  18.667  12.148
35185W        W 3590   6.044   5.689   4.108
35186W        W 3591   7.416  43.697   0.428
35187W        W 3592  25.626  34.816   3.304
35188W        W 3593  16.322  34.879   2.694
35189W        W 3594  43.657  32.580   2.695
35190W        W 3595  35.589  23.664  12.896
35191W        W 3596  33.861   1.041   1.823
35192W        W 3597  15.460  32.724  13.852
35193W        W 3598  15.610  17.458   2.513
35194W        W 3599  21.722  19.644   3.773
35195W        W 3600  29.110  40.954  14.078
35196W        W 3601   9.012  25.503  12.455
35197W        W 3602  35.456   9.835   0.827
35198W        W 3603  21.302  39.894   1.280
35199W        W 3604  24.177  13.085   1.487
35200W        W 3605  34.059  34.156  14.551
35201W        W 3606  31.110  13.472   0.302
35202W        W 3607  12.376  30.762  14.803
35203W        W 3608  36.569  16.544  12.490
35204W        W 3609  34.555  24.567   2.789
35205W        W 3610  28.078  38.885  10.527
35206W        W 3611  24.510  30.372  11.699
35207W        W 3612  44.154  19.231   1.250
35208W        W 3613  12.372  18.568   4.077
35209W        W 3614  17.632  40.785  13.316
35210W        W 3615   9.109  10.977   0.341
35211W        W 3616  10.376  33.035   1.787
35212W        W 3617   9.325  29.585  12.664
35213W        W 3618  33.977  33.181  13.813
35214W        W 3619   4.406  25.764   3.724
35215W        W 3620  11.237  12.673   2.342
35216W        W 3621  17.022  37.432   1.504
35217W        W 3622   0.308  31.603  13.316
35218W        W 3623  20.261   7.196   5.441
35219W        W 3624  33.129  22.468  12.853
35220W        W 3625  21.545   1.677   4.110
35221W        W 3626  31.184  35.568  12.122
35222W        W 3627  27.635  11.347   1.557
35223W        W 3628  37.511  24.193  12.107
35224W        W 3629  30.677  43.243  11.922
35225W        W 3630  14.677  26.133  11.541
35226W        W 3631  43.220  41.460  13.959
35227W        W 3632  23.641   6.705   4.496
35228W        W 3633  23.974  13.942   0.412
35229W        W 3634   6.862  19.807   1.748
35230W        W 3635  18.751  24.992   3.061
35231W        W 3636  18.106  16.268  14.494
35232W        W 3637   0.998   2.239   3.602
35233W        W 3638  17.377   6.561   0.398
35234W        W 3639  37.242  30.552  10.720
35235W        W 3640  30.773   7.927  10.675
35236W        W 3641  34.340  37.876  14.081
35237W        W 3642  29.695  25.730  10.592
35238W        W 3643   1.667  32.309  13.824
35239W        W 3644  42.413  41.957   2.977
35240W        W 3645   4.471  30.922  11.215
35241W        W 3646   4.288  20.210  11.053
35242W        W 3647  25.872   0.190   1.645
35243W        W 3648  13.209  43.805  12.422
35244W        W 3649  42.324  19.824   0.022
35245W        W 3650   7.324  12.840   3.173
35246W        W 3651  44.243  19.555   0.145
35247W        W 3652  31.656  24.124   1.318
35248W        W 3653  23.717  31.133   3.649
35249W        W 3654  30.585   0.266   1.854
35250W        W 3655  32.638  33.881   0.285
35251W        W 3656   9.875   2.864   0.453
35252W        W 3657  38.285  15.782   4.518
35253W        W 3658  34.901  23.688   1.007
35254W        W 3659  26.358   6.727   2.848
35255W        W 3660  10.337  29.915   2.966
35256W        W 3661  25.779  16.136   3.337
35257W        W 3662  21.442  22.917  13.498
35258W        W 3663  20.236  11.912   4.126
35259W        W 3664   0.357  16.269  14.383
35260W        W 3665  10.215   4.216  14.790
35261W        W 3666  20.488  37.116  11.314
35262W        W 3667  41.516   1.463   3.212
35263W        W 3668   7.369  37.157   4.060
35264W        W 3669  42.186  22.579   4.066
35265W        W 3670  38.887  20.584   0.821
35266W        W 3671  26.391  15.715  13.324
35267W        W 3672  15.023  36.837   2.795
35268W        W 3673  25.525  17.248   3.746
35269W        W 3674  27.978  15.439  14.422
35270W        W 3675  33.136  37.475   3.247
35271W        W 3676  13.342  30.665   1.206
35272W        W 3677  36.946  24.303   3.366
35273W        W 3678  37.620  42.513   1.273
35274W        W 3679  13.881  38.172   0.824
35275W        W 3680  30.221   0.977   1.799
35276W        W 3681  44.224  11.494  12.040
35277W        W 3682  33.455  32.928   4.308
35278W        W 3683  25.044  20.012  12.971
35279W        W 3684  36.279  42.495   0.665
35280W        W 3685   9.588   0.955   3.583
35281W        W 3686  15.590  27.864  14.078
35282W        W 3687  37.788   4.469  11.153
35283W        W 3688   0.871   5.008   1.641
35284W        W 3689  11.890  29.633  11.395
35285W        W 3690  31.635  44.428   3.692
35286W        W 3691   6.546  41.260   4.223
35287W        W 3692  37.810   4.229  12.968
35288W        W 3693  11.764  38.057   2.186
35289W        W 3694   5.429  24.136   2.242
35290W        W 3695   0.734  41.333  12.519
35291W        W 3696  34.433  23.929  13.240
35292W        W 3697   0.318  27.902   1.755
35293W        W 3698  11.700  39.073  11.298
35294W        W 3699  24.615  43.020   4.853
35295W        W 3700   4.257  22.562   4.395
35296W        W 3701  22.723  23.733  10.716
35297W        W 3702   3.193  31.360  14.505
35298W        W 3703  17.647  44.946  11.200
35299W        W 3704  44.417  32.953   4.780
35300W        W 3705  12.057   2.932   0.942
35301W        W 3706  38.607  11.356   4.190
35302W        W 3707  35.625  22.997  13.992
35303W        W 3708  35.051  17.584  10.522
35304W        W 3709  37.338  31.975  13.553
35305W        W 3710  23.738  30.681  14.005
35306W        W 3711   0.375  38.384  10.635
35307W        W 3712  16.155  21.750   1.181
35308W        W 3713  16.216  29.957  10.935
35309W        W 3714  20.372   5.837   0.191
35310W        W 3715   1.767   5.744   2.814
35311W        W 3716  40.433  28.573   4.308
35312W        W 3717  37.339   5.916  12.294
35313W        W 3718   3.629  24.780  10.783
35314W        W 3719   9.898  14.731  13.548
35315W        W 3720  29.054  15.210  13.072
35316W        W 3721   1.447  29.874   3.078
35317W        W 3722  27.008  30.826   4.162
35318W        W 3723  33.815  31.197   0.691
35319W        W 3724  19.086  42.912  13.309
35320W        W 3725  24.828  34.898  12.436
35321W        W 3726  17.235  37.798  12.206
35322W        W 3727  15.183   2.449   3.139
35323W        W 3728   8.725  39.294  14.886
35324W        W 3729  42.288  16.700  11.524
35325W        W 3730  40.503  13.185   0.327
35326W        W 3731  19.668   1.934  10.875
35327W        W 3732  23.570  44.217  10.294
35328W        W 3733  10.847  41.795  13.766
35329W        W 3734  16.722  30.496   2.373
35330W        W 3735   1.902  44.988   3.719
35331W        W 3736   8.958  31.903   0.338
35332W        W 3737  16.623   5.443   5.593
35333W        W 3738  14.412  36.111  11.541
35334W        W 3739   8.198   8.996   0.862
35335W        W 3740  25.984   2.920   1.387
35336W        W 3741   0.301  43.805  14.829
35337W        W 3742  16.516   9.604  13.525
35338W        W 3743   7.815  15.492   9.841
35339W        W 3744  17.740   7.381   4.415
35340W        W 3745  39.425   6.984   4.605
35341W        W 3746   3.031  19.191   1.256
35342W        W 3747  32.887  17.510  13.295
35343W        W 3748  15.195  37.654  14.896
35344W        W 3749  38.787   3.187   4.093
35345W        W 3750   5.938  36.071   0.815
35346W        W 3751   4.226   8.495   4.620
35347W        W 3752  19.653  30.843  12.034
35348W        W 3753   7.092  24.585   0.387
35349W        W 3754  40.059  35.155  10.673
35350W        W 3755  27.445  30.993   4.406
35351W        W 3756  37.854   2.733  12.452
35352W        W 3757  26.916  35.824  11.027
35353W        W 3758   1.627  41.385   0.518
35354W        W 3759  24.340  15.883   2.187
35355W        W 3760  39.296   3.297   0.530
35356W        W 3761   4.926  44.528   1.849
35357W        W 3762  30.148   4.694   2.216
35358W        W 3763  23.500  24.097   2.734
35359W        W 3764   0.926  23.714   5.051
35360W        W 3765  10.547  31.320  10.527
35361W        W 3766  14.782  21.158   2.025
35362W        W 3767   7.928  28.278  10.632
35363W        W 3768  26.313  15.991  11.990
35364W        W 3769  22.056  43.963   3.663
35365W        W 3770  15.117   2.381  13.395
35366W        W 3771  25.051   1.013   2.301
35367W        W 3772  34.091  35.402   1.799
35368W        W 3773  30.551  23.189  14.456
35369W        W 3774  29.936  40.997  11.119
35370W        W 3775  24.447  15.794  13.395
35371W        W 3776  43.914  37.090  14.316
35372W        W 3777  31.630  16.706   5.806
35373W        W 3778  13.232   3.750  12.366
35374W        W 3779  34.541  28.354  13.568
35375W        W 3780  35.096  16.035   4.129
35376W        W 3781  13.315  29.302  13.411
35377W        W 3782  27.506  13.723   2.656
35378W        W 3783  40.110  19.674   2.681
35379W        W 3784  13.178   9.860   4.523
35380W        W 3785  26.114  23.710   2.256
35381W        W 3786   6.399  26.538  10.742
35382W        W 3787  44.619  36.450   3.735
35383W        W 3788   1.845  19.600  11.916
35384W        W 3789   3.258  30.217   3.006
35385W        W 3790  12.632   3.770   0.797
35386W        W 3791  37.924   0.495  13.342
35387W        W 3792   6.756  13.391  12.462
35388W        W 3793  40.849  13.745   2.863
35389W        W 3794  30.629  35.433   4.155
35390W        W 3795  10.547  37.419  11.604
35391W        W 3796  31.645   8.597  11.050
35392W        W 3797  16.848  43.310  14.076
35393W        W 3798  40.507  26.079  11.997
35394W        W 3799   9.844  41.916   1.431
35395W        W 3800  42.157  15.951   0.189
35396W        W 3801   9.131  23.103  14.773
35397W        W 3802   7.264  22.253  12.076
35398W        W 3803   5.709  37.402  12.063
35399W        W 3804  40.925  22.803  14.444
35400W        W 3805  20.110  32.785  13.320
35401W        W 3806  21.756  44.972   3.692
35402W        W 3807  42.340  11.438   0.405
35403W        W 3808   2.418   1.565  11.490
35404W        W 3809  32.273  38.351  11.067
35405W        W 3810  42.327  10.902   1.267
35406W        W 3811  37.276  30.845   0.659
35407W        W 3812  34.328  36.228  14.061
35408W        W 3813  42.579  24.002  10.968
35409W        W 3814  11.163   0.817  10.938
35410W        W 3815  20.775  28.021   4.606
35411W        W 3816  22.554  15.353   0.426
35412W        W 3817   3.889  18.073   0.480
35413W        W 3818  44.769  21.169   0.836
35414W        W 3819  29.317  27.078  14.549
35415W        W 3820  29.702  33.990  13.901
35416W        W 3821  26.649  40.028  12.327
35417W        W 3822  12.646  13.228  14.984
35418W        W 3823   3.478  14.730  10.978
35419W        W 3824  18.819  43.455   3.706
35420W        W 3825  33.420  36.629  13.978
35421W        W 3826  36.265  23.600   3.633
35422W        W 3827  21.115  33.051   0.887
35423W        W 3828  30.946  31.221  12.604
35424W        W 3829  20.309  13.392  14.491
35425W        W 3830  25.473  12.184   0.028
35426W        W 3831  18.322  23.956  11.224
35427W        W 3832  19.193  10.520  13.287
35428W        W 3833   0.244  15.747  14.379
35429W        W 3834  14.622  11.877  12.128
35430W        W 3835   9.647  27.797  14.533
35431W        W 3836  31.626  20.943  10.622
35432W        W 3837  42.933   9.060  12.080
35433W        W 3838  12.291   4.313   3.572
35434W        W 3839  20.784  40.923   1.297
35435W        W 3840  18.172  18.502   0.668
35436W        W 3841  27.761  25.524  11.244
35437W        W 3842  43.062  28.027  12.509
35438W        W 3843  33.763  21.140   5.119
35439W        W 3844  15.158  23.653   0.564
35440W        W 3845   9.311  15.807   4.127
35441W        W 3846  27.053  41.350   1.194
35442W        W 3847   1.476   2.759   1.311
35443W        W 3848  36.564  23.154   3.668
35444W        W 3849   0.909  12.356   3.301
35445W        W 3850  20.747  21.639   1.821
35446W        W 3851  31.322  10.766   0.258
35447W        W 3852   0.898  15.597  13.650
35448W        W 3853   6.477  22.789  12.532
35449W        W 3854  19.067  13.070   2.355
35450W        W 3855  10.254  39.505  14.306
35451W        W 3856  32.572  18.189   3.290
35452W        W 3857   4.765  13.015  14.767
35453W        W 3858  44.672  39.918   3.915
35454W        W 3859  14.100  10.632  10.796
35455W        W 3860  10.175  12.243  10.775
35456W        W 3861  31.211  23.800  12.035
35457W        W 3862  38.168  24.576   0.298
35458W        W 3863  22.491  35.521   0.851
35459W        W 3864  10.940  37.365   4.112
35460W        W 3865  12.908  18.669  12.968
35461W        W 3866  25.186  32.347   4.686
35462W        W 3867  20.619   8.775  10.691
35463W        W 3868  23.519  18.565  10.930
35464W        W 3869  44.287  33.370   2.661
35465W        W 3870  15.719  36.459   4.058
35466W        W 3871  23.563  24.020   3.744
35467W        W 3872   7.905   3.356  13.339
35468W        W 3873  20.247  31.575   0.397
35469W        W 3874   7.222  35.800  11.175
35470W        W 3875  44.375  22.555  11.783
35471W        W 3876  36.579  38.058  14.893
35472W        W 3877  31.887  19.988  14.828
35473W        W 3878   5.924   0.986   0.317
35474W        W 3879  24.678  23.036  10.755
35475W        W 3880  19.812  44.314  12.121
35476W        W 3881  18.277   0.828   3.375
35477W        W 3882   9.328  25.968   3.751
35478W        W 3883  28.170  34.213   1.411
35479W        W 3884  42.046  23.084  10.429
35480W        W 3885  17.264   8.922   3.547
35481W        W 3886  42.084  38.337   4.637
35482W        W 3887  15.625  41.585  12.944
35483W        W 3888  37.492   1.315   0.874
35484W        W 3889   1.748  24.807  14.627
35485W        W 3890  23.785  32.915  10.926
35486W        W 3891  23.273   6.426   0.815
35487W        W 3892   6.969  42.818   0.814
35488W        W 3893  20.795  23.181  14.525
35489W        W 3894  11.704  29.619  14.769
35490W        W 3895  20.490   2.337   1.196
35491W        W 3896  31.099  16.935  11.892
35492W        W 3897  13.224  18.722   4.467
35493W        W 3898  29.281   8.015   0.395
35494W        W 3899   4.939  34.452   1.405
35495W        W 3900  44.413  23.413  14.307
35496W        W 3901  20.313  29.664   0.725
35497W        W 3902  34.169  20.011   3.858
35498W        W 3903  33.502   3.804   0.679
35499W        W 3904   7.495  25.575  12.928
35500W        W 3905   3.901  33.542  12.854
35501W        W 3906  37.626  38.326   1.464
35502W        W 3907  27.998  20.095  12.856
35503W        W 3908  40.484  32.987  12.495
35504W        W 3909   4.806  35.310  11.427
35505W        W 3910  20.314  26.185   2.150
35506W        W 3911  39.473   5.971   4.597
35507W        W 3912  44.416   5.227  10.644
35508W        W 3913  26.181  43.937  12.468
35509W        W 3914  38.001  21.505  11.586
35510W        W 3915  34.110  19.560  11.612
35511W        W 3916  20.029  32.352  13.053
35512W        W 3917  10.855  43.013  12.038
35513W        W 3918   9.319  12.896  11.165
35514W        W 3919  12.845  34.073   1.444
35515W        W 3920  25.491  27.639   1.509
35516W        W 3921  16.785   0.322   4.659
35517W        W 3922  41.942   9.605  13.418
35518W        W 3923   8.485  10.685  12.176
35519W        W 3924  39.685  21.812   4.137
35520W        W 3925   9.180  26.886   4.983
35521W        W 3926  38.907  39.964   4.453
35522W        W 3927  12.953  18.195   1.331
35523W        W 3928  36.109  24.696   1.022
35524W        W 3929   8.355  11.819  10.787
35525W        W 3930  31.144  32.096  11.989
35526W        W 3931  34.057  34.512  11.902
35527W        W 3932  30.613  19.334   2.366
35528W        W 3933  14.675   3.836   0.481
35529W        W 3934  10.195  38.583  12.293
35530W        W 3935   1.247  35.950   4.077
35531W        W 3936  16.258  36.614  13.042
35532W        W 3937  24.953  44.197  11.584
35533W        W 3938  21.447  31.964   3.739
35534W        W 3939  29.433  27.802  14.867
35535W        W 3940  23.207  18.779  13.489
35536W        W 3941   2.745  25.738   1.051
35537W        W 3942  24.986  32.161  11.537
35538W        W 3943   3.765   9.393   3.157
35539W        W 3944  28.631  20.207  14.302
35540W        W 3945   0.404   8.745   0.063
35541W        W 3946  19.701  37.376   1.421
35542W        W 3947   6.730  38.070  11.647
35543W        W 3948  18.150  42.702  13.357
35544W        W 3949  44.276  32.617   0.696
35545W        W 3950  20.466  28.177   1.394
35546W        W 3951  12.939  37.008   3.341
35547W        W 3952  11.091   7.178   0.147
35548W        W 3953  33.166  33.956   0.061
35549W        W 3954  23.560  19.653  10.849
35550W        W 3955  17.257  42.725  13.353
35551W        W 3956  41.800  27.506  14.536
35552W        W 3957   7.421  21.989  12.506
35553W        W 3958  16.935  19.223   3.726
35554W        W 3959   6.342  44.876  13.868
35555W        W 3960  40.443   7.637   2.666
35556W        W 3961  32.921   8.320   2.644
35557W        W 3962  10.232   1.190  13.603
35558W        W 3963  44.393  40.809  12.098
35559W        W 3964  37.401  28.791   0.713
35560W        W 3965  39.287  44.901   1.329
35561W        W 3966  20.105  28.961   2.664
35562W        W 3967  28.984   3.834   3.401
35563W        W 3968  21.319  26.922  13.341
35564W        W 3969  35.550  30.822  11.148
35565W        W 3970  28.001  16.858  14.541
35566W        W 3971  33.876  36.461   2.920
35567W        W 3972   0.994  19.767   0.729
35568W        W 3973  22.514  23.590   0.958
35569W        W 3974  11.670  37.998   1.371
35570W        W 3975  19.249  13.241  10.745
35571W        W 3976   5.531  42.385  12.441
35572W        W 3977  15.147  18.319  14.874
35573W        W 3978  40.583  15.742   3.830
35574W        W 3979  22.781  25.156   2.338
35575W        W 3980   5.606  25.143   2.255
35576W        W 3981   8.906  30.756   3.576
35577W        W 3982   1.206  28.079   4.102
35578W        W 3983  15.614   0.313   2.785
35579W        W 3984  41.141  24.674   2.207
35580W        W 3985  33.678  37.120  11.134
35581W        W 3986  38.382  29.628  13.360
35582W        W 3987  16.674  25.599   3.523
35583W        W 3988  36.400  33.826   0.473
35584W        W 3989  44.053   6.710   3.694
35585W        W 3990   8.887  19.323  11.988
35586W        W 3991   4.377   1.327   2.726
35587W        W 3992  29.426  14.868  13.786
35588W        W 3993   9.823  43.715  12.908
35589W        W 3994  23.906  37.012   1.749
35590W        W 3995  30.052  40.772   1.864
35591W        W 3996  38.343  42.396   0.486
35592W        W 3997  27.057  15.049  14.291
35593W        W 3998   1.711  18.687   3.824
35594W        W 3999   9.446  40.815   2.360
35595W        W 4000  38.595  18.393  14.733
35596W        W 4001  12.760  41.853   4.624
35597W        W 4002  44.862  25.170   4.608
35598W        W 4003  25.028  28.414   1.913
35599W        W 4004  13.289  13.699   2.723
35600W        W 4005  38.421  28.957   0.709
35601W        W 4006  20.589  24.164   1.313
35602W        W 4007  28.935  14.122  14.840
35603W        W 4008  44.368   1.767   4.039
35604W        W 4009   8.966  31.432  11.019
35605W        W 4010  19.823   7.254   1.370
35606W        W 4011  30.190  28.128  12.921
35607W        W 4012  16.223   0.894   1.325
35608W        W 4013  33.549  25.995  12.033
35609W        W 4014  29.320   6.793  14.527
35610W        W 4015  34.678  26.500  12.974
35611W        W 4016  16.583  11.100  13.477
35612W        W 4017  13.254  26.699   4.176
35613W        W 4018   7.175  38.065   1.828
35614W        W 4019  16.085  21.354   4.865
35615W        W 4020  19.956  15.937   1.597
35616W        W 4021   9.886  30.160  14.752
35617W        W 4022   6.436  17.865   2.500
35618W        W 4023  20.469   3.223   0.091
35619W        W 4024   4.642  12.936  14.161
35620W        W 4025  19.097  10.271  12.817
35621W        W 4026  27.666  41.783   1.277
35622W        W 4027  21.770  21.552   4.342
35623W        W 4028  40.329  20.597  14.379
35624W        W 4029  36.074  30.435   3.622
35625W        W 4030  34.600   1.442  11.920
35626W        W 4031   5.277  20.638   0.913
35627W        W 4032  18.691  29.102  14.333
35628W        W 4033  19.569  11.839  10.808
35629W        W 4034  38.149  25.935  14.753
35630W        W 4035  20.858  12.652  14.394
35631W        W 4036  12.602  41.649   4.131
35632W        W 4037  33.401  22.113  10.664
35633W        W 4038   9.243  35.392   0.478
35634W        W 4039  12.652  41.856   1.899
35635W        W 4040   8.167   0.853   3.444
35636W        W 4041  31.024  11.062  14.908
35637W        W 4042  32.609  40.795   4.192
35638W        W 4043  44.031   6.893  11.229
35639W        W 4044  17.595   2.820   4.592
35640W        W 4045   6.219  27.683  14.378
35641W        W 4046  12.838  19.167   1.717
35642W        W 4047  31.813  22.456   4.220
35643W        W 4048  24.200   3.931   1.494
35644W        W 4049  39.474  33.232   4.193
35645W        W 4050  27.427   4.054   0.728
35646W        W 4051  28.625  37.310   4.588
35647W        W 4052  10.513   5.955   0.773
35648W        W 4053  33.122  15.797   0.500
35649W        W 4054  17.045  23.049   0.769
35650W        W 4055  31.937  11.919  14.805
35651W        W 4056  23.129  25.892  13.387
35652W        W 4057   8.719  27.992  13.998
35653W        W 4058  35.317  19.635  14.166
35654W        W 4059  37.692  17.360  12.009
35655W        W 4060   6.805   4.993   3.888
35656W        W 4061  38.815  43.804  14.010
35657W        W 4062  12.815  38.877  12.605
35658W        W 4063  19.160  10.659   2.099
35659W        W 4064  20.251  33.111  10.901
35660W        W 4065   2.374   9.279  14.739
35661W        W 4066   6.893   2.786   4.610
35662W        W 4067  12.108  39.125  11.602
35663W        W 4068   4.985  37.081  12.341
35664W        W 4069  28.344  25.591  13.841
35665W        W 4070  36.384  37.173   3.177
35666W        W 4071  20.662  44.851  10.539
35667W        W 4072  15.638  29.282   2.139
35668W        W 4073  33.506  19.815   5.145
35669W        W 4074  27.308  41.546   1.915
35670W        W 4075  25.108  42.685   1.214
35671W        W 4076  19.128  30.639  12.524
35672W        W 4077  31.837  39.809  12.055
35673W        W 4078   0.446  32.480  13.210
35674W        W 4079  27.179  16.576  13.067
35675W        W 4080  10.794   3.886   3.699
35676W        W 4081  34.590  33.865  11.883
35677W        W 4082   6.720  16.342  13.107
35678W        W 4083   8.384   1.819  13.948
35679W        W 4084  15.832   3.203  11.054
35680W        W 4085  27.500   6.852   2.394
35681W        W 4086  30.433  34.199   1.704
35682W        W 4087  26.677  34.589   3.191
35683W        W 4088   2.744   0.647   1.913
35684W        W 4089   8.623  36.789  13.460
35685W        W 4090  21.629  39.757   0.379
35686W        W 4091  32.608  16.875  12.505
35687W        W 4092  20.448  14.592  11.034
35688W        W 4093  26.643   9.709   1.883
35689W        W 4094   9.927   3.824  13.109
35690W        W 4095   6.612  16.128  10.301
35691W        W 4096  39.231  38.390   3.123
35692W        W 4097   5.512  25.953  11.581
35693W        W 4098  42.209  27.057  13.035
35694W        W 4099  38.919  34.379  13.091
35695W        W 4100  24.736  35.164  10.571
35696W        W 4101   7.870  20.064   4.350
35697W        W 4102  30.556  29.992  13.879
35698W        W 4103   1.260  11.947   1.243
35699W        W 4104  33.689   1.010   0.755
35700W        W 4105  40.300  27.228   3.107
35701W        W 4106  33.944  25.923   0.810
35702W        W 4107   9.462  23.419   0.929
35703W        W 4108  43.731  26.204   2.165
35704W        W 4109  20.387  20.745   0.936
35705W        W 4110  24.681   6.116  11.193
35706W        W 4111  44.310   8.271   4.173
35707W        W 4112  22.308  22.917  10.198
35708W        W 4113   0.400  29.161   3.545
35709W        W 4114  12.205  12.601   2.830
35710W        W 4115  31.647  43.136   3.164
35711W        W 4116  12.831   0.178   2.379
35712W        W 4117  28.219  42.501   1.583
35713W        W 4118  19.334  31.732   3.575
35714W        W 4119  29.564  11.575  11.462
35715W        W 4120  17.384  23.636   2.387
35716W        W 4121  22.807  13.630  11.543
35717W        W 4122  34.147  11.804   2.286
35718W        W 4123  42.376  32.479   0.996
35719W        W 4124  32.649  44.790  10.507
35720W        W 4125   0.849  24.706   2.301
35721W        W 4126  16.699  15.622  14.804
35722W        W 4127  14.683  30.511  12.076
35723W        W 4128  13.174  40.054  14.473
35724W        W 4129   0.546   9.294   2.741
35725W        W 4130  41.315   5.714  14.883
35726W        W 4131   3.174  30.002   4.391
35727W        W 4132  41.883  37.649  14.481
35728W        W 4133  25.244  35.829   4.864
35729W        W 4134   4.843  26.344   0.272
35730W        W 4135  24.305  14.895   0.756
35731W        W 4136  31.741  39.198  12.907
35732W        W 4137  11.653  35.596  12.695
35733W        W 4138   0.009   4.176   4.183
35734W        W 4139  43.620  30.582   3.342
35735W        W 4140  25.543  34.341   3.039
35736W        W 4141  27.458  42.756  14.842
35737W        W 4142   7.679  22.715   2.085
35738W        W 4143  24.860  23.624   1.862
35739W        W 4144  35.859  39.146  12.099
35740W        W 4145  11.422  15.185  11.067
35741W        W 4146  38.094  11.105  14.044
35742W        W 4147  29.443  13.514  11.501
35743W        W 4148  28.633  17.344   4.560
35744W        W 4149  41.786  28.196   0.687
35745W        W 4150  10.777  28.093   0.894
35746W        W 4151   6.765  17.228  10.934
35747W        W 4152   3.823  12.268  14.001
35748W        W 4153  13.913   7.748  12.003
35749W        W 4154   0.666  33.179   1.838
35750W        W 4155  12.116   4.998   0.839
35751W        W 4156  35.520  27.576  13.338
35752W        W 4157  17.062   6.158   1.261
35753W        W 4158   9.054  35.176  13.804
35754W        W 4159   4.821  28.537  13.909
35755W        W 4160  40.298  17.811  11.628
35756W        W 4161   0.453  16.749   2.751
35757W        W 4162   0.957  23.989  11.508
35758W        W 4163  14.204  12.229  14.920
35759W        W 4164   7.794  10.914   3.747
35760W        W 4165  17.863  23.380  13.308
35761W        W 4166   7.417   9.850  13.192
35762W        W 4167  36.436  28.926  12.124
35763W        W 4168   2.400  34.645  12.635
35764W        W 4169   1.016  40.755  11.669
35765W        W 4170  23.079  16.659  11.704
35766W        W 4171  14.591   1.511   1.329
35767W        W 4172  22.086  39.530   4.379
35768W        W 4173   9.280  30.861  14.761
35769W        W 4174  13.212   0.427   2.143
35770W        W 4175  27.660  14.854   0.783
35771W        W 4176  42.534  31.647  12.986
35772W        W 4177  15.182  21.077  10.580
35773W        W 4178  32.707  15.371  13.363
35774W        W 4179  42.167  27.691   2.199
35775W        W 4180  27.020   5.308  13.335
35776W        W 4181  24.319  21.164  13.222
35777W        W 4182  32.301  28.162  11.665
35778W        W 4183  26.645  12.757   2.626
35779W        W 4184  22.650  43.826   0.819
35780W        W 4185  30.937  21.208   2.642
35781W        W 4186   7.583   4.254  13.076
35782W        W 4187  22.261  14.541   2.832
35783W        W 4188  43.931   2.198   2.368
35784W        W 4189  37.044  44.486   2.069
35785W        W 4190   2.922  22.535  10.760
35786W        W 4191  42.540  23.266  14.112
35787W        W 4192  41.834   4.451  13.075
35788W        W 4193  43.499   1.679  12.592
35789W        W 4194  27.563  39.881  14.016
35790W        W 4195  18.191  40.534  12.914
35791W        W 4196  14.777  10.624  13.952
35792W        W 4197  27.013  28.603   4.575
35793W        W 4198  39.511  23.167  13.077
35794W        W 4199  26.629  22.124  11.172
35795W        W 4200  26.200  10.804  13.009
35796W        W 4201  27.265   7.408   0.708
35797W        W 4202  19.225   7.784  13.883
35798W        W 4203  44.528  43.402   0.576
35799W        W 4204  14.127  15.198   0.198
35800W        W 4205   3.874  19.100   0.446
35801W        W 4206  28.712  32.014   2.207
35802W        W 4207  15.164  24.493  10.594
35803W        W 4208  18.243  10.341  12.116
35804W        W 4209  31.712  19.777   1.423
35805W        W 4210  15.127   4.550   2.453
35806W        W 4211  42.791   5.690   1.711
35807W        W 4212  19.501  37.951   4.553
35808W        W 4213  11.246  16.062  11.016
35809W        W 4214  43.795  43.547  12.948
35810W        W 4215  14.126  29.144   3.363
35811W        W 4216  30.742  30.939  11.181
35812W        W 4217   4.925  10.149  14.217
35813W        W 4218  35.182  23.260  14.047
35814W        W 4219  21.033  29.071   1.824
35815W        W 4220   5.679  12.611  12.677
35816W        W 4221  41.459   6.336  12.631
35817W        W 4222  29.545   1.870   0.217
35818W        W 4223   0.945  22.464   4.141
35819W        W 4224  37.046  10.337  13.784
35820W        W 4225  41.374   9.867  11.615
35821W        W 4226   3.460   1.406  14.470
35822W        W 4227  44.187   1.430   1.724
35823W        W 4228  43.275  23.281  11.653
35824W        W 4229  31.335   9.303   3.694
35825W        W 4230  13.505  13.190  11.091
35826W        W 4231  37.581  26.431   2.313
35827W        W 4232  12.246  26.987  13.256
35828W        W 4233   4.976  13.905  12.087
35829W        W 4234  25.017  13.504   1.162
35830W        W 4235  37.858  26.666   0.242
35831W        W 4236  17.070  20.938  14.776
35832W        W 4237  29.621  42.509  11.600
35833W        W 4238  17.990  15.076   0.183
35834W        W 4239  41.304  32.507  13.852
35835W        W 4240  20.188   4.377  13.430
35836W        W 4241  17.290  21.167  14.344
35837W        W 4242   5.800  28.746   3.795
35838W        W 4243  23.211  16.183  11.950
35839W        W 4244  23.519  36.516   1.796
35840W        W 4245  32.939  37.672  12.505
35841W        W 4246  33.000  25.736  14.217
35842W        W 4247  34.483  26.732  13.387
35843W        W 4248   8.319  40.112   4.451
35844W        W 4249  35.985   6.885   3.649
35845W        W 4250   6.226   9.802   1.834
35846W        W 4251  34.818   4.993  12.995
35847W        W 4252  41.068  41.768   3.812
35848W        W 4253  17.446  10.333  13.939
35849W        W 4254   5.811   4.144   3.919
35850W        W 4255   1.014  27.657  11.865
35851W        W 4256  35.888  36.163   1.876
35852W        W 4257  38.817  30.018   3.340
35853W        W 4258   9.859  35.143   0.420
35854W        W 4259  20.135  23.541  13.792
35855W        W 4260  11.857  27.475  14.445
35856W        W 4261  18.248  43.549  12.985
35857W        W 4262  18.148   8.602   1.811
35858W        W 4263  18.926  42.552  10.639
35859W        W 4264   8.220   9.645  11.371
35860W        W 4265   2.243   2.206   3.181
35861W        W 4266   0.331  32.652  11.176
35862W        W 4267   0.364  44.207   2.686
35863W        W 4268  33.831   2.208   2.865
35864W        W 4269   8.617  26.088  13.311
35865W        W 4270  38.395  33.532  14.263
35866W        W 4271  11.170  24.270   2.639
35867W        W 4272  22.973  28.836   1.243
35868W        W 4273  44.384  39.221   0.299
35869W        W 4274  17.272  19.870   1.292
35870W        W 4275  23.843   0.682   0.350
35871W        W 4276  26.095  16.343   0.345
35872W        W 4277  21.255   1.289  12.306
35873W        W 4278  13.973  28.182   3.665
35874W        W 4279   1.326  38.512  14.085
35875W        W 4280  38.875   6.364  10.724
35876W        W 4281  34.900  15.094  10.894
35877W        W 4282  24.557  25.484   3.618
35878W        W 4283  19.300  27.434   2.999
35879W        W 4284  24.612  23.892   0.956
35880W        W 4285   2.980  32.948  14.509
35881W        W 4286  34.644  20.228  12.120
35882W        W 4287   8.886  44.703   0.352
35883W        W 4288  13.844  16.557   2.621
35884W        W 4289   5.785  24.006  14.578
35885W        W 4290  26.430  11.286  12.939
35886W        W 4291  22.920   4.846   4.524
35887W        W 4292  15.045   9.781   3.924
35888W        W 4293   3.429  15.589   3.807
35889W        W 4294  10.108  13.506  11.444
35890W        W 4295  35.348  23.197   3.787
35891W        W 4296   6.264   1.322  10.650
35892W        W 4297  33.550  19.759  14.608
35893W        W 4298  41.396  26.545   1.707
35894W        W 4299  40.882  36.425   2.420
35895W        W 4300   4.506  38.835   5.112
35896W        W 4301   9.408   5.392  14.512
35897W        W 4302   3.209  41.816   2.432
35898W        W 4303  14.228  18.081  13.091
35899W        W 4304  23.228  41.414  10.455
35900W        W 4305  14.085  14.721   1.702
35901W        W 4306  35.513  15.161   0.409
35902W        W 4307  20.180   4.195   2.408
35903W        W 4308  32.560  26.677   0.828
35904W        W 4309  36.352  30.397  10.684
35905W        W 4310   7.689  40.302   2.215
35906W        W 4311  24.145  32.079   1.369
35907W        W 4312  42.913   2.136  12.422
35908W        W 4313  30.355  20.040  12.021
35909W        W 4314  37.205  37.505   0.849
35910W        W 4315  23.228  31.095   2.501
35911W        W 4316  33.020   3.121  12.595
35912W        W 4317  15.297  26.522   2.214
35913W        W 4318  27.020  18.592  14.808
35914W        W 4319   8.375  32.136   2.861
35915W        W 4320   0.356  35.046  12.916
35916W        W 4321  14.311  10.595   3.806
35917W        W 4322  22.956  31.192  11.155
35918W        W 4323  32.337  40.495  14.979
35919W        W 4324  13.213   5.249  14.856
35920W        W 4325  43.551   3.028   0.708
35921W        W 4326  24.000   4.278   2.752
35922W        W 4327   5.287  29.910  14.035
35923W        W 4328  41.503  34.065   4.572
35924W        W 4329  16.278  21.243   4.413
35925W        W 4330  21.608  41.318   4.584
35926W        W 4331  11.800  27.565  10.746
35927W        W 4332  33.390  32.888   1.429
35928W        W 4333   0.700  40.074   2.640
35929W        W 4334  15.289  14.194  13.506
35930W        W 4335  13.328  39.765  10.721
35931W        W 4336  36.612  23.045   2.837
35932W        W 4337   4.243  20.422  13.963
35933W        W 4338  25.588  36.506  14.861
35934W        W 4339  44.499  29.513   5.034
35935W        W 4340  12.184  39.030   3.902
35936W        W 4341  31.696   6.440   3.813
35937W        W 4342  32.881   8.607   3.343
35938W        W 4343  22.696  16.028   2.258
35939W        W 4344  27.740  36.053  12.887
35940W        W 4345   2.463  21.070  13.963
35941W        W 4346   7.389  43.908   1.434
35942W        W 4347  38.968  27.281   2.819
35943W        W 4348   6.751  10.478   2.359
35944W        W 4349  44.600  41.006  14.923
35945W        W 4350   1.293  13.241  10.677
35946W        W 4351  19.579   0.987   0.341
35947W        W 4352   4.215  31.680   1.831
35948W        W 4353  29.640   6.828  12.748
35949W        W 4354  24.212  13.076  10.763
35950W        W 4355  22.769  14.038  11.243
35951W        W 4356  44.913  35.426  12.879
35952W        W 4357  30.380  31.503  14.374
35953W        W 4358  15.127  40.976  11.011
35954W        W 4359  11.971   3.424   1.670
35955W        W 4360  14.122  14.896   4.751
35956W        W 4361  21.521  42.911   0.684
35957W        W 4362   1.400  17.763   4.384
35958W        W 4363  13.920   0.431   0.930
35959W        W 4364  13.649  15.866  14.824
35960W        W 4365   5.214  35.810   0.399
35961W        W 4366  16.136   0.908   0.772
35962W        W 4367  22.866  36.525  10.270
35963W        W 4368  13.754  14.131  13.586
35964W        W 4369  28.316  15.526  10.265
35965W        W 4370  17.431  40.577  14.013
35966W        W 4371  27.552  21.243   4.526
35967W        W 4372   3.834  12.875  14.632
35968W        W 4373   9.178  26.142  11.493
35969W        W 4374   6.727  35.360  14.849
35970W        W 4375   7.808  42.923  13.085
35971W        W 4376   1.527  42.547   4.577
35972W        W 4377  30.967  19.919  11.081
35973W        W 4378  14.352  10.488  12.364
35974W        W 4379   1.356  18.461  11.563
35975W        W 4380  26.934  39.515  11.023
35976W        W 4381  31.389  34.895  12.784
35977W        W 4382  32.025  31.645   5.006
35978W        W 4383  26.913  20.158  14.712
35979W        W 4384  16.896   6.669  10.137
35980W        W 4385  16.639   5.320   0.315
35981W        W 4386  28.661   3.754  12.559
35982W        W 4387  14.427  35.578  12.940
35983W        W 4388  38.294  28.093   2.460
35984W        W 4389  23.252   8.760  14.008
35985W        W 4390   4.881  30.622   1.512
35986W        W 4391  26.027   3.717  10.862
35987W        W 4392  19.558  31.870  12.322
35988W        W 4393  17.110   2.827   2.620
35989W        W 4394  26.513  16.600  10.221
35990W        W 4395   1.956   0.468   0.022
35991W        W 4396  10.020  37.648  11.117
35992W        W 4397  10.120   3.983  12.284
35993W        W 4398  14.483   4.773   0.723
35994W        W 4399  43.292  24.586   1.251
35995W        W 4400  10.702  22.588  13.522
35996W        W 4401  39.274  29.636   0.335
35997W        W 4402  34.818  13.313  12.939
35998W        W 4403  28.583  42.483  14.257
35999W        W 4404  20.122  38.733  13.971
36000W        W 4405  37.390   4.212   0.823
36001W        W 4406  32.765  30.090   4.422
36002W        W 4407  12.222  38.050   3.713
36003W        W 4408  38.138   9.200   0.807
36004W        W 4409   7.933  26.889  12.804
36005W        W 4410   8.775  10.669   3.709
36006W        W 4411   7.260   3.154   4.176
36007W        W 4412  33.330  28.235  14.331
36008W        W 4413   6.255  24.071   3.372
36009W        W 4414  22.504  25.054   2.777
36010W        W 4415  34.915  13.785  14.444
36011W        W 4416  16.799  12.524  11.983
36012W        W 4417  17.184  33.946   4.040
36013W        W 4418   2.860  17.225  10.818
36014W        W 4419  42.916  41.816   2.262
36015W        W 4420   7.957  24.499  14.151
36016W        W 4421  25.078   2.843   2.254
36017W        W 4422  42.762   6.740  12.889
36018W        W 4423   9.213   7.908   4.864
36019W        W 4424   8.884  37.630  10.002
36020W        W 4425  41.337  13.753   1.353
36021W        W 4426  16.089  11.140  12.473
36022W        W 4427   6.348  22.482  14.660
36023W        W 4428   8.600  36.619   1.301
36024W        W 4429  40.796  16.170   0.256
36025W        W 4430  30.966  36.001  12.987
36026W        W 4431  16.902  19.100  13.889
36027W        W 4432  28.111  20.527   3.615
36028W        W 4433  29.669  15.127  10.715
36029W        W 4434   3.717  35.523  13.410
36030W        W 4435  36.798  20.563  11.562
36031W        W 4436  26.491  15.801  11.542
36032W        W 4437  41.490  18.815  11.965
36033W        W 4438  41.870  21.785  10.450
36034W        W 4439  29.649  29.437   0.810
36035W        W 4440  26.930  35.355  13.071
36036W        W 4441  15.154  35.839  12.642
36037W        W 4442  15.507  25.254   4.557
36038W        W 4443  23.410  35.988   1.789
36039W        W 4444  13.837   6.196  13.598
36040W        W 4445  21.512  17.818   0.405
36041W        W 4446  16.249   1.857  11.715
36042W        W 4447  29.159   1.216  12.945
36043W        W 4448  29.838  37.517  13.874
36044W        W 4449  17.770   3.191   0.881
36045W        W 4450  44.134  40.279  10.776
36046W        W 4451  19.753   8.475   1.955
36047W        W 4452  20.237   2.698  13.976
36048W        W 4453   4.806  31.760   0.039
36049W        W 4454  44.280  25.006  13.364
36050W        W 4455  31.200  32.561   2.167
36051W        W 4456  19.145   3.904   0.498
36052W        W 4457   0.914   4.171  11.183
36053W        W 4458  30.573  13.860  12.102
36054W        W 4459   3.479  26.406   1.338
36055W        W 4460  40.402  24.101   0.434
36056W        W 4461  22.965   8.900  10.532
36057W        W 4462  32.519  21.495  12.385
36058W        W 4463  36.530  38.910   1.790
36059W        W 4464  19.401  23.529   2.392
36060W        W 4465  35.589  38.673   4.058
36061W        W 4466  31.306   1.635  11.094
36062W        W 4467  33.365  35.893   4.803
36063W        W 4468  42.495  31.500  11.046
36064W        W 4469  44.750  33.383   3.350
36065W        W 4470  27.580   0.555  11.922
36066W        W 4471   8.197  28.104  12.199
36067W        W 4472   2.978   1.226  14.415
36068W        W 4473  35.657  13.558   2.779
36069W        W 4474   9.870   5.859   1.277
36070W        W 4475  19.228   6.606  11.132
36071W        W 4476   7.028  36.333   4.135
36072W        W 4477  43.916  33.001   3.171
36073W        W 4478  12.361  36.832   4.153
36074W        W 4479   5.395  40.563   2.793
36075W        W 4480  19.107  43.035   3.692
36076W        W 4481  41.782  36.348  11.201
36077W        W 4482  18.774  14.077  12.430
36078W        W 4483   7.482   3.374  13.920
36079W        W 4484  18.848   2.848   3.775
36080W        W 4485   1.806  24.613  13.977
36081W        W 4486  41.918   1.317   4.771
36082W        W 4487  42.298  13.651   1.235
36083W        W 4488  26.663  21.808   3.724
36084W        W 4489  14.377  13.855   1.201
36085W        W 4490  41.382   7.154  13.848
36086W        W 4491  44.979   2.244   3.546
36087W        W 4492   2.107  32.141   1.902
36088W        W 4493  33.606  40.801  14.116
36089W        W 4494  36.378  10.869  10.757
36090W        W 4495  34.050  34.955  13.050
36091W        W 4496   5.376  26.913   2.135
36092W        W 4497  17.222  42.052   3.231
36093W        W 4498  37.339   8.727   4.402
36094W        W 4499  17.007  39.766   1.673
36095W        W 4500  24.710  41.858  13.530
36096W        W 4501  11.146  13.046   4.103
36097W        W 4502  16.363  35.638  12.889
36098W        W 4503   4.369  12.932   2.067
36099W        W 4504  29.185  37.759  14.428
36100W        W 4505  10.630  21.204  11.504
36101W        W 4506  16.284  11.430   2.948
36102W        W 4507   9.872  12.297  14.297
36103W        W 4508  32.267  19.797  14.553
36104W        W 4509  43.275  40.796  10.584
36105W        W 4510   5.962  41.211  10.579
36106W        W 4511  37.314  36.549  13.977
36107W        W 4512  17.606   6.249  13.015
36108W        W 4513  28.581  10.593   0.833
36109W        W 4514   5.379  28.507  11.687
36110W        W 4515  24.278  15.940   4.535
36111W        W 4516  22.390  20.030   4.213
36112W        W 4517   8.119  11.671   3.470
36113W        W 4518  35.147   6.496   1.456
36114W        W 4519  25.954  35.368   4.865
36115W        W 4520  42.456  33.102   3.662
36116W        W 4521  20.119  44.779  14.998
36117W        W 4522   3.463  16.232   3.156
36118W        W 4523   4.218   0.288   0.427
36119W        W 4524  28.654   6.482  11.044
36120W        W 4525  31.502  36.908   3.200
36121W        W 4526   0.325   7.878   4.525
36122W        W 4527   7.607  42.886   4.042
36123W        W 4528  16.091  19.066   4.122
36124W        W 4529  15.504   8.017   4.465
36125W        W 4530  21.584  38.419  12.544
36126W        W 4531  33.325  17.443   1.843
36127W        W 4532  15.256  41.340  13.720
36128W        W 4533  36.316  43.482  12.918
36129W        W 4534  43.170  40.828   1.185
36130W        W 4535  40.037  34.843   1.882
36131W        W 4536   7.365  41.431  14.753
36132W        W 4537  40.495   8.209   4.221
36133W        W 4538  26.182  10.381  11.459
36134W        W 4539  38.136  38.385  13.517
36135W        W 4540  35.115   5.756   4.171
36136W        W 4541   3.293  26.904  11.903
36137W        W 4542  20.067  11.888   3.209
36138W        W 4543  36.892  42.135  10.259
36139W        W 4544   2.623  42.476  14.330
36140W        W 4545  22.932  38.552   4.183
36141W        W 4546  21.004  28.401  10.491
36142W        W 4547  43.464  43.921  13.122
36143W        W 4548  20.247  10.508   1.792
36144W        W 4549   8.209  35.554  13.946
36145W        W 4550  12.645  36.260  11.582
36146W        W 4551  43.772  13.315  13.489
36147W        W 4552  17.619  26.499   1.260
36148W        W 4553  26.527  25.520  10.675
36149W        W 4554  37.360   0.210  12.754
36150W        W 4555  10.164   9.307  13.032
36151W        W 4556   7.238  40.840   1.721
36152W        W 4557  42.890   5.897   0.809
36153W        W 4558  42.234   6.805   4.099
36154W        W 4559  37.806  27.984   2.354
36155W        W 4560  31.995  39.851  14.365
36156W        W 4561  23.274  32.585   1.351
36157W        W 4562   8.984  24.101   1.292
36158W        W 4563  15.010  43.361   3.233
36159W        W 4564  35.432  42.021  12.101
36160W        W 4565  44.419  16.312   4.685
36161W        W 4566  12.329  13.832  12.420
36162W        W 4567  25.746  38.923   4.800
36163W        W 4568  16.668  20.475  12.064
36164W        W 4569  39.421  32.650   0.815
36165W        W 4570  10.771  33.108  12.480
36166W        W 4571  22.561   7.451   1.268
36167W        W 4572  26.678  38.479   1.673
36168W        W 4573   6.040  19.627   4.247
36169W        W 4574  11.447  17.629   2.662
36170W        W 4575   5.785  39.702  10.735
36171W        W 4576  31.639  20.248  13.163
36172W        W 4577  44.076  38.462  11.083
36173W        W 4578  32.905  27.136  12.999
36174W        W 4579  37.117  40.376  13.843
36175W        W 4580  21.929  17.352   1.553
36176W        W 4581  37.617  38.474  13.471
36177W        W 4582   8.841  41.836   1.840
36178W        W 4583  14.661  22.139   1.969
36179W        W 4584   5.393  38.780   2.365
36180W        W 4585   5.379   3.984  11.021
36181W        W 4586   8.603   3.336   4.342
36182W        W 4587  30.621  16.696   3.303
36183W        W 4588   3.669  39.595   0.842
36184W        W 4589  28.566   1.875   1.451
36185W        W 4590  39.021  33.076  11.485
36186W        W 4591  42.391  39.534   0.848
36187W        W 4592  21.104  31.174  11.993
36188W        W 4593   1.606  33.032  11.227
36189W        W 4594  36.496  15.611   1.195
36190W        W 4595  21.267  38.795   0.425
36191W        W 4596  14.575  30.182  14.417
36192W        W 4597   1.925  19.275  10.600
36193W        W 4598  18.989  44.806  10.878
36194W        W 4599   4.218  42.000   1.471
36195W        W 4600  24.234   0.630  14.022
36196W        W 4601  31.638  40.612  11.671
36197W        W 4602   8.988  41.004   3.285
36198W        W 4603   9.948  13.082  13.829
36199W        W 4604  37.618   3.212  14.300
36200W        W 4605  13.329   1.731  14.556
36201W        W 4606   0.981  11.284   2.506
36202W        W 4607  36.841   3.802   4.652
36203W        W 4608  32.496  23.515  13.082
36204W        W 4609  22.614  35.202   5.042
36205W        W 4610  32.601  23.103   2.876
36206W        W 4611   0.239  27.946   0.860
36207W        W 4612  16.752  25.106  11.570
36208W        W 4613  13.802  38.943   3.314
36209W        W 4614   4.990  25.215  11.482
36210W        W 4615  12.058  25.034  11.224
36211W        W 4616   4.454  29.975   1.035
36212W        W 4617  29.962  28.446   3.244
36213W        W 4618  10.580   1.875   1.163
36214W        W 4619   2.779  41.085  14.557
36215W        W 4620   8.087  32.174  14.366
36216W        W 4621   5.954  30.763   2.272
36217W        W 4622  15.110  33.320  11.115
36218W        W 4623  32.542  35.639  13.867
36219W        W 4624  14.469   0.528   2.222
36220W        W 4625  22.221   2.389  13.531
36221W        W 4626  42.094  21.591   2.288
36222W        W 4627  25.668  39.270   1.818
36223W        W 4628  34.021  31.095   3.282
36224W        W 4629  14.649  38.444   1.134
36225W        W 4630  22.622  21.017  14.994
36226W        W 4631  32.170  28.732  14.327
36227W        W 4632  21.021  36.987   0.607
36228W        W 4633  13.552  13.107   2.857
36229W        W 4634   4.705  35.044  10.655
36230W        W 4635  19.118  19.835  12.339
36231W        W 4636  35.357  11.729  12.542
36232W        W 4637   8.784  31.825  13.202
36233W        W 4638  27.319  26.481   3.237
36234W        W 4639   4.850  37.852  13.014
36235W        W 4640  31.906  13.193   0.322
36236W        W 4641  38.820  10.834   1.656
36237W        W 4642  19.502   5.634  14.604
36238W        W 4643   4.211  11.334  12.577
36239W        W 4644  39.434  23.711   0.336
36240W        W 4645  14.739  17.688  10.671
36241W        W 4646   9.388   9.888  11.463
36242W        W 4647  31.852  29.078   4.188
36243W        W 4648  20.767  30.638  12.708
36244W        W 4649  39.580  41.887  11.069
36245W        W 4650   1.320  26.396  10.742
36246W        W 4651  33.913  43.917   3.365
36247W        W 4652   5.601  18.204   0.927
36248W        W 4653  14.840  19.064   0.061
36249W        W 4654  38.389  32.320  10.496
36250W        W 4655  18.595  36.790   3.432
36251W        W 4656  33.458  26.650  10.645
36252W        W 4657  41.272  31.371   1.934
36253W        W 4658  13.857  14.767   1.231
36254W        W 4659  20.009  35.693   2.767
36255W        W 4660   6.348  43.263  13.752
36256W        W 4661  11.766  20.130   4.575
36257W        W 4662   7.795   5.720   4.254
36258W        W 4663  31.620  15.354  11.466
36259W        W 4664  32.041  10.288  14.360
36260W        W 4665  35.067   4.957  11.601
36261W        W 4666  19.193  22.491  13.879
36262W        W 4667   7.250  24.638  11.414
36263W        W 4668  19.447  38.032  14.417
36264W        W 4669  22.255  22.491  11.394
36265W        W 4670  12.277  29.092   0.744
36266W        W 4671  18.503  31.371   1.285
36267W        W 4672  24.608  30.206  12.404
36268W        W 4673  29.998  41.805   4.272
36269W        W 4674  26.084  30.154   1.467
36270W        W 4675   6.342   7.644  11.120
36271W        W 4676  21.588   5.867  12.010
36272W        W 4677   4.916   3.910  14.483
36273W        W 4678  22.598  28.582  11.068
36274W        W 4679   5.873   1.554   0.499
36275W        W 4680   6.137  22.738  14.258
36276W        W 4681  12.695   7.238   1.732
36277W        W 4682  37.968   3.348  11.253
36278W        W 4683  23.869   8.975  10.266
36279W        W 4684  28.908  19.626  12.984
36280W        W 4685  34.238   9.439  11.583
36281W        W 4686   0.838  27.039  13.985
36282W        W 4687  27.950  41.377  11.856
36283W        W 4688  39.486  41.829   4.586
36284W        W 4689  13.253  24.171   2.433
36285W        W 4690  19.780  34.479   4.621
36286W        W 4691  43.555  36.637   1.251
36287W        W 4692   4.728  33.429   0.242
36288W        W 4693  20.651  21.564  11.776
36289W        W 4694  39.939  16.364   1.136
36290W        W 4695   6.563  39.922   1.773
36291W        W 4696  20.232  28.758  13.448
36292W        W 4697  10.703  28.607   3.253
36293W        W 4698   2.884   6.797   1.748
36294W        W 4699  10.867  43.745  10.437
36295W        W 4700  39.592   0.393   2.652
36296W        W 4701  13.878   5.299  13.379
36297W        W 4702  32.873  41.899  11.901
36298W        W 4703  42.893  26.993  14.406
36299W        W 4704  23.701  40.668  13.989
36300W        W 4705  36.481  32.111  12.981
36301W        W 4706   3.146   7.221   2.671
36302W        W 4707   2.812  27.843  12.008
36303W        W 4708  40.899  31.398  10.570
36304W        W 4709  18.240   5.796   4.197
36305W        W 4710  23.002   2.186  13.127
36306W        W 4711  18.246   0.928  12.445
36307W        W 4712   4.711   3.593   4.544
36308W        W 4713  26.452  29.618   4.023
36309W        W 4714  22.043   1.701  12.926
36310W        W 4715   9.862  23.164   0.278
36311W        W 4716   4.133  37.455  13.506
36312W        W 4717  31.004   2.323  14.594
36313W        W 4718  28.186  16.190   0.239
36314W        W 4719   3.240  21.332  14.367
36315W        W 4720  33.538  10.672  10.006
36316W        W 4721  21.588  40.331   1.221
36317W        W 4722  24.124  30.731   4.999
36318W        W 4723  15.750  40.398   3.699
36319W        W 4724  34.982  28.188   3.523
36320W        W 4725  16.255  43.333   1.244
36321W        W 4726  34.909  13.743   2.916
36322W        W 4727   1.744   6.557  13.361
36323W        W 4728  20.281  21.753  13.131
36324W        W 4729   6.882  20.042  12.459
36325W        W 4730  21.285  18.019  14.391
36326W        W 4731  34.461  10.756  12.807
36327W        W 4732   5.741  40.876   3.024
36328W        W 4733  40.743  23.780   0.223
36329W        W 4734   3.755  37.124   3.297
36330W        W 4735  10.846  28.193  11.529
36331W        W 4736   7.724  23.252  12.987
36332W        W 4737  16.498  22.644  11.597
36333W        W 4738  26.164  17.702  11.326
36334W        W 4739  32.574  25.496   4.860
36335W        W 4740  38.450  17.085   3.914
36336W        W 4741  29.066   8.656  10.437
36337W        W 4742  33.104  23.198   0.158
36338W        W 4743  39.360  19.684  10.614
36339W        W 4744  27.649  35.497   0.203
36340W        W 4745  36.573   1.138  14.626
36341W        W 4746   7.770   9.246   0.674
36342W        W 4747  34.579   0.865   1.042
36343W        W 4748  16.266   4.870   1.172
36344W        W 4749  22.223  40.169  13.023
36345W        W 4750  21.557  28.677   2.475
36346W        W 4751  24.648  34.136  14.683
36347W        W 4752  38.334  10.629   2.402
36348W        W 4753  11.695  13.137  14.925
36349W        W 4754  15.262   9.271   3.693
36350W        W 4755  33.157  25.503  14.702
36351W        W 4756   3.470  15.800  10.123
36352W        W 4757  23.525  15.402  13.962
36353W        W 4758  28.118  38.109  12.073
36354W        W 4759  26.925  37.354   4.132
36355W        W 4760  19.982  11.432  12.547
36356W        W 4761  20.068  10.294   0.345
36357W        W 4762   9.089  23.106   1.191
36358W        W 4763  21.295  12.696  14.746
36359W        W 4764   3.950  21.503  10.708
36360W        W 4765  22.381  12.218   9.936
36361W        W 4766   3.405  38.076  12.117
36362W        W 4767  27.077   9.563  12.853
36363W        W 4768  28.006   8.826   5.016
36364W        W 4769  43.082   7.291   4.899
36365W        W 4770  19.500  37.299   0.915
36366W        W 4771  10.814   2.632  12.925
36367W        W 4772  43.609  23.536  12.552
36368W        W 4773  41.362  38.642   2.876
36369W        W 4774  11.765  36.086   0.804
36370W        W 4775  20.383  10.643  13.784
36371W        W 4776  11.315  10.861   0.034
36372W        W 4777  43.601  26.660   0.913
36373W        W 4778   8.813  17.557  11.576
36374W        W 4779  26.596  36.744   0.311
36375W        W 4780  38.178  26.306  12.849
36376W        W 4781  11.665   0.630  14.090
36377W        W 4782  36.025  20.831   1.901
36378W        W 4783  31.058  17.386   3.025
36379W        W 4784  41.688  23.053   4.704
36380W        W 4785  43.460   8.747  11.820
36381W        W 4786  39.527  16.522  12.075
36382W        W 4787  28.539  32.869   2.222
36383W        W 4788   5.732  25.561  12.596
36384W        W 4789  39.125  22.094  11.085
36385W        W 4790  18.192  44.535  13.088
36386W        W 4791  40.938   5.975   2.157
36387W        W 4792  39.663  30.400  13.810
36388W        W 4793   6.712  29.978   5.625
36389W        W 4794  18.313  22.767  12.556
36390W        W 4795  21.915   8.236   2.429
36391W        W 4796   2.220   3.674  11.993
36392W        W 4797   1.941   3.100   0.546
36393W        W 4798  16.206  19.283   0.412
36394W        W 4799  35.950   0.875  13.768
36395W        W 4800  29.516  31.920  13.663
36396W        W 4801  42.245  32.088   4.911
36397W        W 4802  43.606  15.773   3.543
36398W        W 4803  37.818   7.219   0.064
36399W        W 4804   6.865  17.791   1.723
36400W        W 4805  26.360  30.423  13.028
36401W        W 4806  14.033  39.113   2.296
36402W        W 4807  15.093   3.023   0.923
36403W        W 4808  27.833  42.146  14.574
36404W        W 4809   9.116  40.482  10.966
36405W        W 4810  22.102  21.981  11.463
36406W        W 4811  29.934  29.400   1.358
36407W        W 4812   6.194   2.419  11.098
36408W        W 4813  18.841  30.519   3.212
36409W        W 4814   2.956  19.226  10.645
36410W        W 4815  21.601  22.862  14.544
36411W        W 4816  19.665  27.716  10.666
36412W        W 4817   8.145  36.454   2.142
36413W        W 4818  18.274  20.073  12.406
36414W        W 4819   6.673  28.155   1.743
36415W        W 4820  37.504  26.222   4.045
36416W        W 4821  30.978  39.468   2.254
36417W        W 4822  15.340  39.383   0.935
36418W        W 4823  23.129  23.982  14.519
36419W        W 4824   4.795  23.124   0.035
36420W        W 4825  26.307  25.243  14.361
36421W        W 4826  44.866  34.522   1.818
36422W        W 4827   5.786  17.033   3.251
36423W        W 4828  30.332   6.740  12.952
36424W        W 4829  36.577  28.535   4.121
36425W        W 4830  44.978   5.938  14.371
36426W        W 4831  38.397  21.972   3.583
36427W        W 4832  43.493   7.779   1.849
36428W        W 4833  42.571  11.556  14.931
36429W        W 4834  28.554  27.146  11.407
36430W        W 4835  40.964   7.676  12.572
36431W        W 4836  14.422  19.963  14.930
36432W        W 4837  30.762  13.100   0.398
36433W        W 4838  32.009  19.699  13.202
36434W        W 4839  42.343  11.207   1.715
36435W        W 4840  20.945  21.190  12.744
36436W        W 4841  33.670  43.765  12.989
36437W        W 4842  27.856  10.345   2.666
36438W        W 4843  44.913  16.977  13.805
36439W        W 4844  42.053  21.570  11.946
36440W        W 4845   7.590  10.547  12.136
36441W        W 4846  27.145  37.512   3.544
36442W        W 4847   9.319  10.357  14.524
36443W        W 4848   6.986   2.895   0.729
36444W        W 4849  36.799  14.176  13.324
36445W        W 4850  37.973  17.888   4.082
36446W        W 4851  37.631  21.136   4.384
36447W        W 4852  32.274  30.780  12.888
36448W        W 4853  38.355  27.659   3.205
36449W        W 4854  19.712  22.176   3.675
36450W        W 4855  38.645  39.037   3.899
36451W        W 4856  10.088  15.247  14.427
36452W        W 4857   1.678  28.437   2.663
36453W        W 4858  42.757   7.681  13.858
36454W        W 4859  27.403  37.016  12.969
36455W        W 4860  13.337  18.600   2.356
36456W        W 4861   5.769  42.422   2.583
36457W        W 4862  32.028  28.735   3.829
36458W        W 4863  40.967  43.522   3.695
36459W        W 4864  37.009   7.827   0.982
36460W        W 4865  43.614  33.396  14.989
36461W        W 4866  26.696  29.427  12.944
36462W        W 4867  36.612  38.348   0.920
36463W        W 4868  35.822  38.641   5.181
36464W        W 4869   1.390  34.577  14.447
36465W        W 4870  31.192  26.447  11.449
36466W        W 4871  10.150   4.253  12.875
36467W        W 4872  30.511   0.982  10.867
36468W        W 4873  34.808  42.025   1.215
36469W        W 4874  17.590  12.754  13.900
36470W        W 4875  26.987  34.192   3.307
36471W        W 4876  36.768  44.388   4.538
36472W        W 4877  18.719   1.091  11.947
36473W        W 4878  38.926  41.162   2.667
36474W        W 4879  42.720   2.988  11.980
36475W        W 4880  37.521  39.362   1.269
36476W        W 4881  37.914  38.735  14.455
36477W        W 4882   8.755   3.512  12.827
36478W        W 4883  14.677  41.511  12.633
36479W        W 4884  35.424  38.858  12.120
36480W        W 4885  18.088  28.967  13.379
36481W        W 4886   7.503  39.387   0.490
36482W        W 4887   3.986   0.823   3.779
36483W        W 4888  20.598  32.301  13.900
36484W        W 4889  34.733  18.320  12.097
36485W        W 4890   4.962   9.302   1.856
36486W        W 4891  22.734  22.198  10.712
36487W        W 4892  28.207  19.096   0.208
36488W        W 4893  10.657  36.068   1.317
36489W        W 4894  15.760  34.440  12.435
36490W        W 4895  32.426  11.901  11.205
36491W        W 4896  42.871  12.558  14.368
36492W        W 4897  23.520  26.927  14.807
36493W        W 4898  24.612  27.456  13.478
36494W        W 4899  18.576   3.831   2.031
36495W        W 4900  31.628  21.520  12.923
36496W        W 4901  12.370  17.887  14.481
36497W        W 4902  35.102  38.823  12.533
36498W        W 4903   5.106  19.739   3.639
36499W        W 4904   8.133   7.849   0.913
36500W        W 4905  32.071  23.620   2.588
36501W        W 4906  21.302  13.795   0.409
36502W        W 4907  34.838  20.275   0.383
36503W        W 4908  33.084  20.426  14.226
36504W        W 4909  41.517   0.774  13.022
36505W        W 4910  39.269  41.576  10.089
36506W        W 4911  27.683   9.948   3.277
36507W        W 4912  14.806  10.860  13.498
36508W        W 4913  29.575  31.893   3.342
36509W        W 4914  27.136  27.927   1.138
36510W        W 4915  31.959  11.570  12.561
36511W        W 4916  37.039  28.665   2.370
36512W        W 4917  23.698   5.447   4.153
36513W        W 4918  42.306  28.235   2.817
36514W        W 4919  23.856  21.409   0.750
36515W        W 4920  16.548  15.545   4.137
36516W        W 4921  31.497  33.039  14.339
36517W        W 4922  37.944  44.870   3.087
36518W        W 4923  21.277  30.036   1.833
36519W        W 4924  24.715  39.029   2.865
36520W        W 4925  28.135  21.449   0.974
36521W        W 4926  32.562  36.501   0.349
36522W        W 4927  32.580  26.753   1.341
36523W        W 4928   1.504  34.568  10.648
36524W        W 4929  42.315  40.647   1.773
36525W        W 4930   1.440  12.844   3.835
36526W        W 4931  30.454  24.271   4.176
36527W        W 4932  13.278  25.182  10.653
36528W        W 4933  31.047  15.052   2.806
36529W        W 4934  12.628   7.315  14.809
36530W        W 4935  40.797   6.616   9.720
36531W        W 4936  38.905  25.308  14.890
36532W        W 4937  33.878  35.115   2.859
36533W        W 4938   4.320  38.803   4.044
36534W        W 4939  17.999  31.069   4.641
36535W        W 4940  34.097  30.469  12.048
36536W        W 4941  34.023  27.955  10.664
36537W        W 4942  35.483  26.017   0.567
36538W        W 4943  25.021   0.518  10.980
36539W        W 4944  16.814  43.173  13.568
36540W        W 4945   0.813  36.124  10.742
36541W        W 4946  28.038  40.095  14.730
36542W        W 4947  34.858  44.268   2.267
36543W        W 4948  13.695  17.133   4.841
36544W        W 4949  22.604  33.601   3.209
36545W        W 4950  29.877  36.730   0.655
36546W        W 4951  36.967  42.389   1.943
36547W        W 4952   0.565   0.247   2.821
36548W        W 4953   2.165  10.839  11.201
36549W        W 4954  34.503  31.778   4.882
36550W        W 4955   6.882  22.940   2.387
36551W        W 4956  33.046  32.691   4.550
36552W        W 4957  21.127  33.196  12.099
36553W        W 4958   0.593  43.695  14.408
36554W        W 4959  42.272  11.167  11.970
36555W        W 4960  31.051  43.494  11.668
36556W        W 4961  44.651  34.848   2.183
36557W        W 4962  31.168  17.457   3.758
36558W        W 4963  43.517  20.037   0.366
36559W        W 4964  16.797  21.336  14.980
36560W        W 4965   8.908  18.352  12.836
36561W        W 4966  22.760  27.639  13.322
36562W        W 4967  18.647   5.289  14.324
36563W        W 4968  15.280  10.244   4.624
36564W        W 4969  36.786  44.708   1.327
36565W        W 4970   0.820  32.143  14.356
36566W        W 4971  43.113  36.532   3.330
36567W        W 4972  29.502  43.807   2.804
36568W        W 4973  14.967  36.476  12.113
36569W        W 4974   4.708  18.299   0.873
36570W        W 4975  22.529  22.175  11.668
36571W        W 4976  23.602  33.887  11.207
36572W        W 4977  38.981  24.972  12.074
36573W        W 4978  21.959  40.014  10.565
36574W        W 4979  27.569   3.549   0.807
36575W        W 4980  31.076  29.396   1.628
36576W        W 4981  37.074   9.386  13.835
36577W        W 4982  24.401   8.242  12.800
36578W        W 4983  24.312   4.483  13.291
36579W        W 4984  16.915  34.598   4.981
36580W        W 4985  28.864  20.038  12.518
36581W        W 4986   8.175  31.070   4.568
36582W        W 4987  27.690  27.084   2.333
36583W        W 4988  11.599  23.842  14.328
36584W        W 4989   1.710  12.673   1.145
36585W        W 4990  31.450  41.745   5.040
36586W        W 4991  34.365   3.346  11.621
36587W        W 4992   0.934  32.678   4.169
36588W        W 4993  42.489  20.808  11.931
36589W        W 4994   1.176  38.525  11.549
36590W        W 4995   9.654  30.432   3.013
36591W        W 4996   4.920  17.982  13.223
36592W        W 4997  20.086   0.009  13.217
36593W        W 4998  21.624  31.687   1.294
36594W        W 4999  15.763  36.132  11.478
36595W        W 5000  36.850   2.665   2.502
36596W        W 5001  16.632  39.019  12.185
36597W        W 5002  25.823  23.252  11.933
36598W        W 5003  22.958   3.993  13.375
36599W        W 5004  23.215  15.219   1.770
36600W        W 5005   7.165  36.334  10.748
36601W        W 5006  29.487  21.668   3.715
36602W        W 5007  33.101  44.757  13.223
36603W        W 5008  34.455   4.289   4.486
36604W        W 5009  16.275  10.312  13.302
36605W        W 5010  21.765   0.394   0.973
36606W        W 5011  19.298  42.879   3.248
36607W        W 5012  20.620  36.867   0.274
36608W        W 5013  37.862  14.253   2.681
36609W        W 5014  14.357   6.372  14.841
36610W        W 5015   8.382  29.401  13.047
36611W        W 5016  36.268   6.974  11.178
36612W        W 5017   0.259  35.941  14.642
36613W        W 5018  36.381  22.836   3.251
36614W        W 5019  15.150  12.233   2.760
36615W        W 5020  23.102   0.745  14.860
36616W        W 5021   3.330  30.610  13.416
36617W        W 5022  19.187  12.172  12.586
36618W        W 5023   4.623  34.121  12.441
36619W        W 5024  21.499   8.166  13.403
36620W        W 5025  25.912  34.986   0.974
36621W        W 5026  27.588  36.356   4.839
36622W        W 5027  24.498   4.366   4.168
36623W        W 5028  13.263  26.474   2.172
36624W        W 5029   9.358  14.471   4.604
36625W        W 5030  31.044  31.657   3.082
36626W        W 5031  29.903  12.525   4.312
36627W        W 5032   0.157  36.545   3.863
36628W        W 5033  13.731  42.457   4.543
36629W        W 5034  39.023  30.303  13.370
36630W        W 5035  39.535  38.926  14.607
36631W        W 5036  28.350  38.117  11.215
36632W        W 5037  20.139  23.233  12.843
36633W        W 5038  34.264  35.028  12.523
36634W        W 5039  35.328   8.183   1.273
36635W        W 5040   2.910  30.688   3.775
36636W        W 5041  36.085  44.819   1.854
36637W        W 5042  18.615  37.201  10.102
36638W        W 5043  41.820  42.039  11.511
36639W        W 5044  34.122   5.121   3.922
36640W        W 5045  21.809  28.253   2.308
36641W        W 5046  10.740  14.269   1.688
36642W        W 5047  11.102   4.958   0.787
36643W        W 5048  12.273  44.681  14.366
36644W        W 5049   1.856  44.615  11.674
36645W        W 5050  20.542  44.438   0.868
36646W        W 5051  40.956  16.631  14.337
36647W        W 5052   4.840  42.377  10.729
36648W        W 5053  41.907  20.163   1.355
36649W        W 5054  17.699  21.957  11.524
36650W        W 5055  43.303  44.843  12.876
36651W        W 5056  42.888  14.669   4.462
36652W        W 5057   5.632  29.524   1.911
36653W        W 5058  32.726   6.285   1.475
36654W        W 5059   1.135  16.360   1.919
36655W        W 5060   4.266   6.253   0.427
36656W        W 5061  19.740  13.522   2.827
36657W        W 5062  33.518   3.442   4.602
36658W        W 5063   7.493  20.527   0.509
36659W        W 5064  28.867  35.439   0.961
36660W        W 5065  17.283  44.289  13.293
36661W        W 5066  34.591  23.159   2.637
36662W        W 5067  34.543  26.265   4.879
36663W        W 5068  44.462   6.866  14.333
36664W        W 5069  43.002  40.921   2.599
36665W        W 5070  15.018  33.944   2.204
36666W        W 5071  43.457   4.279   0.243
36667W        W 5072  10.641  29.581   3.307
36668W        W 5073  23.260  44.891  11.424
36669W        W 5074   9.202   4.175   2.220
36670W        W 5075   6.420  27.753  12.578
36671W        W 5076  12.249  13.860  13.961
36672W        W 5077  29.066  24.025  12.913
36673W        W 5078  36.904   0.983  10.391
36674W        W 5079  27.553  32.091   1.766
36675W        W 5080  35.851  10.695   3.518
36676W        W 5081  33.635  44.858   0.652
36677W        W 5082   3.845  13.663  12.102
36678W        W 5083  32.411   3.317  14.975
36679W        W 5084  16.876  36.484   0.799
36680W        W 5085  27.188  32.530   3.713
36681W        W 5086  33.035  34.349  10.551
36682W        W 5087   9.654  11.202  14.706
36683W        W 5088  30.008  15.641  12.935
36684W        W 5089  17.707  12.325   2.375
36685W        W 5090  36.248  16.503  11.629
36686W        W 5091  16.855  19.667  14.378
36687W        W 5092  30.098   8.863  14.791
36688W        W 5093  20.141   5.915  13.546
36689W        W 5094  20.614  43.563  11.674
36690W        W 5095   3.696   3.015  10.864
36691W        W 5096  10.274  18.301  13.948
36692W        W 5097   7.966  32.386  11.597
36693W        W 5098  37.365  21.039  14.123
36694W        W 5099  40.441  37.737   2.769
36695W        W 5100  40.842  12.613   3.312
36696W        W 5101  23.499  10.250  13.578
36697W        W 5102   0.336  28.430   1.795
36698W        W 5103  29.970  34.532   3.827
36699W        W 5104   7.947  18.208  10.344
36700W        W 5105  22.448  44.260   4.730
36701W        W 5106  32.244  17.714  12.159
36702W        W 5107   3.454  21.688  10.717
36703W        W 5108  24.226  40.303  10.711
36704W        W 5109  14.114  20.514   3.698
36705W        W 5110  13.298  14.605   1.337
36706W        W 5111  22.576  29.929  13.972
36707W        W 5112   7.912  11.355   0.779
36708W        W 5113  29.313   2.972   4.590
36709W        W 5114  16.705  11.633   1.837
36710W        W 5115   5.411  33.919  13.988
36711W        W 5116  37.056   0.860   3.667
36712W        W 5117  14.115  40.105   2.866
36713W        W 5118   1.386  20.464   2.325
36714W        W 5119  30.928  13.054  12.424
36715W        W 5120  30.196   4.906  11.609
36716W        W 5121  14.074   3.281  10.662
36717W        W 5122  37.116   3.404  14.309
36718W        W 5123   2.986  20.181  13.811
36719W        W 5124  25.129  23.471  12.906
36720W        W 5125  20.092   3.864  13.423
36721W        W 5126  35.664  24.568  12.181
36722W        W 5127  25.228  33.087  14.924
36723W        W 5128  39.308  22.667  11.156
36724W        W 5129  35.455  40.093  14.877
36725W        W 5130  18.176  42.601   4.617
36726W        W 5131  27.936  22.216   2.773
36727W        W 5132  38.839  24.586   2.168
36728W        W 5133  10.217  13.955   3.084
36729W        W 5134   2.919  13.493   2.432
36730W        W 5135  34.417   6.846  10.374
36731W        W 5136   1.140   7.420  10.861
36732W        W 5137  32.386  15.372  12.904
36733W        W 5138  36.247   4.321  10.521
36734W        W 5139  39.574  32.402  13.937
36735W        W 5140   6.267  44.713   2.401
36736W        W 5141   2.860   3.059  11.505
36737W        W 5142  44.897  23.246  14.325
36738W        W 5143   8.361  20.518  13.511
36739W        W 5144   5.475   6.323  13.442
36740W        W 5145  24.430  15.990  13.854
36741W        W 5146  25.568  31.842   3.539
36742W        W 5147  13.267  21.538   4.893
36743W        W 5148  16.191  12.160   1.426
36744W        W 5149  16.028  19.395   1.848
36745W        W 5150  37.301  42.311  11.063
36746W        W 5151  29.653  39.264  14.950
36747W        W 5152  22.846  23.437   1.954
36748W        W 5153  33.556  44.881   2.670
36749W        W 5154  38.273  31.320  14.566
36750W        W 5155  44.410  40.596   4.678
36751W        W 5156  32.931   8.949   1.756
36752W        W 5157  16.247  13.791   1.876
36753W        W 5158  16.581  37.090   0.026
36754W        W 5159  26.645   7.356   2.740
36755W        W 5160  26.457   6.618  13.697
36756W        W 5161  29.858  20.117   3.276
36757W        W 5162  15.525  26.065   2.066
36758W        W 5163  33.321  32.943  11.257
36759W        W 5164  24.599  31.662   3.807
36760W        W 5165   7.465  12.337   3.230
36761W        W 5166  26.337  39.443   4.560
36762W        W 5167  30.478  39.584  12.545
36763W        W 5168  43.232  25.092  11.570
36764W        W 5169  31.704   5.988   2.232
36765W        W 5170  38.936  21.817  14.416
36766W        W 5171  31.661  19.092  11.101
36767W        W 5172  30.637  38.654  12.430
36768W        W 5173  34.811   3.678   1.604
36769W        W 5174   6.362  17.533  13.028
36770W        W 5175   0.371  23.514   2.263
36771W        W 5176  21.666  15.568   0.909
36772W        W 5177  20.695  29.405   4.704
36773W        W 5178  17.631   6.655  14.629
36774W        W 5179  33.362  33.705  11.916
36775W        W 5180   2.866  23.273  11.198
36776W        W 5181   3.168  20.655   9.906
36777W        W 5182  32.901  21.170  13.891
36778W        W 5183  17.720  13.815   2.217
36779W        W 5184  13.482   1.498   4.082
36780W        W 5185  15.546  28.624  13.438
36781W        W 5186  22.015  18.242   3.741
36782W        W 5187  18.617  29.498   0.737
36783W        W 5188  42.807  12.436  12.070
36784W        W 5189  19.329  41.987   3.110
36785W        W 5190  42.961  10.757   4.190
36786W        W 5191  33.959  41.391   3.810
36787W        W 5192  44.250  37.013   2.414
36788W        W 5193  25.586  11.781  11.680
36789W        W 5194  28.611  15.323   2.698
36790W        W 5195  17.836  17.309   3.693
36791W        W 5196  18.587  17.671   0.946
36792W        W 5197  41.574  25.772   0.239
36793W        W 5198  20.653  11.567  13.854
36794W        W 5199  23.521  44.938   4.084
36795W        W 5200   2.929  42.420  11.497
36796W        W 5201  26.929   8.892   4.187
36797W        W 5202  21.978  15.578   2.785
36798W        W 5203  12.000   8.904  12.621
36799W        W 5204  26.251  38.275  13.444
36800W        W 5205  14.767  38.733  12.766
36801W        W 5206   2.206  32.478  14.154
36802W        W 5207  28.731  21.687   1.590
36803W        W 5208   5.974  29.215   3.687
36804W        W 5209  39.731  42.157   2.678
36805W        W 5210  10.202  23.243  13.931
36806W        W 5211   9.697  32.929   3.132
36807W        W 5212   8.631  32.163   0.001
36808W        W 5213  40.277  16.268  11.582
36809W        W 5214  27.682  27.908   0.312
36810W        W 5215  24.961  34.108   4.826
36811W        W 5216  18.206  21.755   4.546
36812W        W 5217  18.488  25.980  12.996
36813W        W 5218  10.691  39.293   1.706
36814W        W 5219   8.283  12.548   4.603
36815W        W 5220  38.524  31.891   0.401
36816W        W 5221  38.376   8.371  14.988
36817W        W 5222  17.237  30.091   1.996
36818W        W 5223   3.964  25.726   4.229
36819W        W 5224  22.572  37.515  12.030
36820W        W 5225   2.284   3.004  13.762
36821W        W 5226  15.109  16.575   1.691
36822W        W 5227  29.970  10.785   4.739
36823W        W 5228  32.150  30.418   0.618
36824W        W 5229  26.138  42.343   4.265
36825W        W 5230  13.610  11.043  12.328
36826W        W 5231  32.058  16.124   4.862
36827W        W 5232  20.356  21.648  11.368
36828W        W 5233  25.438  30.993   3.302
36829W        W 5234  31.569  22.031  12.856
36830W        W 5235  38.727   2.863   2.756
36831W        W 5236  31.853   0.098  11.958
36832W        W 5237   0.533  44.838  12.417
36833W        W 5238  12.176   6.902   0.804
36834W        W 5239  40.047   0.301   4.630
36835W        W 5240  33.072  37.998  11.106
36836W        W 5241  38.298  25.673  13.298
36837W        W 5242  21.146  24.106   2.260
36838W        W 5243  24.167   1.067  13.759
36839W        W 5244  41.909  16.177   1.473
36840W        W 5245   8.438  41.396   2.653
36841W        W 5246  38.418  19.645  13.622
36842W        W 5247  42.535   5.947   3.040
36843W        W 5248   8.149  15.367  14.567
36844W        W 5249   4.170  13.606  11.545
36845W        W 5250  33.789  36.361   0.753
36846W        W 5251  10.675  23.225  12.636
36847W        W 5252  34.812  44.339   3.581
36848W        W 5253  21.548  11.955  11.373
36849W        W 5254   2.398  35.510   0.490
36850W        W 5255   4.695  26.805   4.002
36851W        W 5256   9.335  10.573  12.716
36852W        W 5257   7.435  17.964  13.619
36853W        W 5258  39.934   6.767  10.526
36854W        W 5259  35.344  11.031  13.938
36855W        W 5260   4.419  14.606  10.724
36856W        W 5261  40.403  16.264   4.701
36857W        W 5262  27.931   7.793   2.795
36858W        W 5263  44.747  44.927   3.409
36859W        W 5264  16.687   7.631   1.794
36860W        W 5265  24.027  35.242  14.852
36861W        W 5266  24.974  17.714  13.423
36862W        W 5267  33.548  42.098  10.550
36863W        W 5268   2.984  10.922  12.414
36864W        W 5269   2.638  42.964   0.964
36865W        W 5270   7.707  25.598  13.634
36866W        W 5271   8.484  27.488  10.148
36867W        W 5272  28.924   8.397  12.217
36868W        W 5273  36.951  24.279  10.864
36869W        W 5274  16.517   2.554  14.439
36870W        W 5275   6.079  24.989  10.512
36871W        W 5276   5.025  28.646   3.227
36872W        W 5277  22.319  36.127  12.161
36873W        W 5278  18.011   7.952   2.316
36874W        W 5279   4.483  13.933   4.082
36875W        W 5280   9.823  33.589   4.898
36876W        W 5281  18.148  14.735  11.494
36877W        W 5282  19.966  38.460   0.742
36878W        W 5283   0.215  42.516  11.041
36879W        W 5284  10.282  18.171  12.235
36880W        W 5285  20.066  14.882  12.804
36881W        W 5286  28.877  36.280  14.886
36882W        W 5287  37.976  17.123   1.896
36883W        W 5288  43.713  15.097   3.427
36884W        W 5289  23.536  12.122  13.297
36885W        W 5290  19.276  19.188  14.893
36886W        W 5291   4.307  14.703   0.358
36887W        W 5292   2.024  41.058  12.587
36888W        W 5293  22.585  20.527  10.659
36889W        W 5294  26.849  37.428  11.528
36890W        W 5295  44.284   1.009   1.403
36891W        W 5296  19.122  12.011   3.669
36892W        W 5297   8.485  40.882   3.282
36893W        W 5298  14.039  31.830  10.631
36894W        W 5299  43.369  28.156   3.706
36895W        W 5300  41.423   7.256   0.818
36896W        W 5301   7.209  18.754   0.296
36897W        W 5302   6.458  13.751   3.173
36898W        W 5303  37.874  18.537   1.342
36899W        W 5304  32.147  22.254   2.794
36900W        W 5305  43.003  16.366   2.285
36901W        W 5306  35.392  25.631  11.242
36902W        W 5307  37.285  42.587   4.049
36903W        W 5308   9.373  34.247   2.852
36904W        W 5309   6.490  34.932   0.873
36905W        W 5310  41.443  15.384   0.483
36906W        W 5311   4.956  32.934   2.162
36907W        W 5312  22.291  27.551  11.066
36908W        W 5313  24.075  36.894  10.628
36909W        W 5314  28.774  26.449  11.230
36910W        W 5315  39.072  21.614  11.707
36911W        W 5316  34.443   3.682  13.899
36912W        W 5317   9.418   8.978   2.380
36913W        W 5318  25.939   4.366  12.509
36914W        W 5319  30.216  11.228   4.886
36915W        W 5320  27.683   5.838   4.556
36916W        W 5321  18.850  20.135  14.786
36917W        W 5322  37.111  32.536   2.728
36918W        W 5323  26.469  35.079   3.027
36919W        W 5324  25.666   7.822  13.468
36920W        W 5325  24.005  16.106   1.287
36921W        W 5326  43.938  16.186   4.413
36922W        W 5327  29.537  33.510   0.923
36923W        W 5328   6.320  16.800   1.298
36924W        W 5329  12.520  41.438   1.202
36925W        W 5330  35.217  13.273   3.588
36926W        W 5331  42.052   7.930  12.591
36927W        W 5332  14.394  26.563  11.630
36928W        W 5333  25.776  36.334   3.362
36929W        W 5334   8.250  33.005  10.698
36930W        W 5335  42.789   3.807  12.502
36931W        W 5336  43.414  35.128   1.393
36932W        W 5337  32.080   6.760  10.721
36933W        W 5338  29.566  43.609   2.317
36934W        W 5339  12.307   6.802  13.513
36935W        W 5340  22.017   6.684  14.738
36936W        W 5341  27.537  12.384  13.610
36937W        W 5342  11.394  31.861   1.022
36938W        W 5343   1.416  11.758  14.829
36939W        W 5344  31.691  29.542  11.060
36940W        W 5345  31.419  17.349  10.616
36941W        W 5346  37.644  42.749  13.312
36942W        W 5347  37.158  23.657  12.924
36943W        W 5348  36.893  10.027  11.995
36944W        W 5349  23.196  36.910  13.485
36945W        W 5350  11.620  11.209  11.969
36946W        W 5351  18.270  43.496   0.269
36947W        W 5352   5.469  40.967   0.963
36948W        W 5353   0.758  19.786  13.817
36949W        W 5354  15.278   3.916   1.388
36950W        W 5355  11.649  34.487  11.240
36951W        W 5356  18.665  16.057  11.206
36952W        W 5357  25.254  37.023   1.754
36953W        W 5358   2.771  21.727  11.187
36954W        W 5359   5.246  37.488   1.734
36955W        W 5360  29.326   8.500   1.055
36956W        W 5361   2.879   9.556  13.384
36957W        W 5362  13.249   2.017  14.953
36958W        W 5363  30.758  38.815  10.684
36959W        W 5364   7.479  40.243  12.775
36960W        W 5365  43.174  26.573   0.334
36961W        W 5366  44.863   4.999   4.671
36962W        W 5367   4.031  17.835  12.062
36963W        W 5368  21.478  31.117  10.802
36964W        W 5369  18.800  24.250  11.679
36965W        W 5370  17.139  17.791   4.699
36966W        W 5371  30.748   8.084  14.231
36967W        W 5372   9.751  42.534  14.713
36968W        W 5373  15.251  37.278  12.276
36969W        W 5374  12.598  23.501  13.571
36970W        W 5375   1.364  41.512  10.912
36971W        W 5376  22.951  26.965   1.263
36972W        W 5377  31.711   1.840   1.111
36973W        W 5378  35.887  17.233   2.227
36974W        W 5379  17.663  44.333  13.886
36975W        W 5380  18.119  20.991   2.860
36976W        W 5381   3.176   9.785   1.964
36977W        W 5382   9.458   6.799  13.980
36978W        W 5383  19.598  34.405   1.443
36979W        W 5384  13.096  24.661   4.518
36980W        W 5385  40.386   7.119   4.401
36981W        W 5386  37.087  34.538   1.522
36982W        W 5387   0.419   1.481  12.865
36983W        W 5388  17.223  15.713  14.805
36984W        W 5389  11.738   3.878   4.583
36985W        W 5390  27.960  43.996   3.596
36986W        W 5391  16.603   1.507   1.145
36987W        W 5392  44.924  37.415  10.955
36988W        W 5393   7.919   4.693   4.126
36989W        W 5394   7.768  30.123  11.710
36990W        W 5395  42.803   9.843   3.483
36991W        W 5396  34.022  24.523  13.975
36992W        W 5397  30.399  24.502   0.787
36993W        W 5398  30.072   6.876   3.813
36994W        W 5399  30.702  32.451   2.217
36995W        W 5400  17.767  31.203   4.166
36996W        W 5401   6.452   3.833  14.366
36997W        W 5402  44.499   1.867   0.652
36998W        W 5403  43.419  18.071   0.753
36999W        W 5404  31.902   3.185  14.977
37000W        W 5405  32.358  18.050  14.502
37001W        W 5406  11.684  25.642   0.798
37002W        W 5407  38.524  32.268   2.438
37003W        W 5408  40.708  26.133  12.477
37004W        W 5409  27.908   6.772   4.606
37005W        W 5410   8.151   2.941  13.507
37006W        W 5411  41.032  10.461   2.039
37007W        W 5412   3.445  13.306   5.043
37008W        W 5413  24.479  18.764  12.037
37009W        W 5414  16.337  18.260   4.566
37010W        W 5415   7.250  18.778  13.916
37011W        W 5416   3.670  31.001  13.360
37012W        W 5417  15.599  26.285  11.424
37013W        W 5418   0.490  11.345   0.866
37014W        W 5419  20.605   3.212   2.878
37015W        W 5420   2.867  40.513  11.535
37016W        W 5421   9.285  42.549   4.359
37017W        W 5422   7.328   5.676  14.929
37018W        W 5423  10.370  17.675   1.440
37019W        W 5424  10.608   1.163   1.710
37020W        W 5425   9.595  34.269   3.852
37021W        W 5426  24.183   3.651  14.966
37022W        W 5427  40.544  16.291  14.847
37023W        W 5428  43.671  12.583   3.281
37024W        W 5429  39.651  23.136   1.316
37025W        W 5430  30.699  11.096   4.605
37026W        W 5431  39.934  10.104   1.998
37027W        W 5432  35.179   1.366  12.167
37028W        W 5433  15.148  18.591  10.377
37029W        W 5434  25.091   8.384   0.813
37030W        W 5435  32.643  43.590  13.500
37031W        W 5436   8.107  32.367  12.443
37032W        W 5437  37.613  12.350  11.475
37033W        W 5438  30.473  33.057  14.740
37034W        W 5439  43.879  24.096  12.907
37035W        W 5440  42.101   5.404   0.355
37036W        W 5441  20.286  41.846   3.657
37037W        W 5442  33.382  33.491  10.420
37038W        W 5443  25.978  25.242  10.771
37039W        W 5444  38.196  43.145   0.015
37040W        W 5445  39.584  38.027   3.477
37041W        W 5446  10.210  10.373  11.513
37042W        W 5447  16.635  25.267  12.766
37043W        W 5448  16.918  17.331   4.588
37044W        W 5449  19.281  26.168   1.442
37045W        W 5450  27.133  36.530  14.383
37046W        W 5451  40.358  27.499   1.702
37047W        W 5452   8.016   6.300   4.612
37048W        W 5453  38.371  27.071   3.871
37049W        W 5454  19.785  33.549   0.843
37050W        W 5455  15.754   8.677  14.152
37051W        W 5456  15.550  12.284  13.864
37052W        W 5457  36.209  43.528   3.785
37053W        W 5458  42.935  24.223  13.994
37054W        W 5459  43.049  27.124  11.567
37055W        W 5460  22.630  31.358  13.550
37056W        W 5461  27.520  19.081   2.815
37057W        W 5462  36.238  18.616  10.645
37058W        W 5463  31.472  19.670  10.292
37059W        W 5464  35.363  33.351   0.461
37060W        W 5465  44.052   1.713   3.610
37061W        W 5466  12.608   7.106   2.777
37062W        W 5467  32.605  20.165  14.354
37063W        W 5468  18.098  41.984  10.580
37064W        W 5469  19.581  19.609   2.293
37065W        W 5470  24.394  17.124  13.851
37066W        W 5471   2.470  16.330  14.394
37067W        W 5472   1.136  35.578  13.919
37068W        W 5473  11.609  41.860   3.710
37069W        W 5474  20.996  18.473   5.089
37070W        W 5475  32.495  13.668  12.003
37071W        W 5476  24.064  28.212  11.097
37072W        W 5477  41.599   8.062   3.336
37073W        W 5478  11.088   8.279  14.333
37074W        W 5479  43.118  15.136  14.973
37075W        W 5480  35.521  12.834   2.705
37076W        W 5481  44.497  38.261   2.712
37077W        W 5482  40.844  16.501   4.450
37078W        W 5483  29.845  34.869  14.030
37079W        W 5484  14.342  15.732  11.144
37080W        W 5485   1.997  17.503  10.814
37081W        W 5486  26.716   0.811  14.875
37082W        W 5487  16.299   4.877  14.304
37083W        W 5488   5.330  38.752   3.298
37084W        W 5489  42.618  22.084  10.264
37085W        W 5490  14.104  11.070   3.071
37086W        W 5491  19.701  34.069  11.732
37087W        W 5492  40.398   3.940   1.176
37088W        W 5493  40.247  24.131  11.521
37089W        W 5494  33.762   3.627  12.502
37090W        W 5495  14.125  32.922  12.056
37091W        W 5496   3.748  39.523   2.312
37092W        W 5497  34.991   9.977  12.002
37093W        W 5498  11.832  14.757   2.722
37094W        W 5499  26.626  10.651  11.253
37095W        W 5500  12.181  14.683   2.337
37096W        W 5501  29.175  26.523   2.775
37097W        W 5502   3.734  39.929   0.126
37098W        W 5503   5.709  23.102   2.760
37099W        W 5504   5.000   1.868   0.805
37100W        W 5505  13.752  27.024   0.935
37101W        W 5506  21.848   0.412  13.881
37102W        W 5507  26.007  27.579   4.721
37103W        W 5508  34.278  26.627   4.581
37104W        W 5509  39.092  21.050   0.963
37105W        W 5510  42.374   8.904   3.896
37106W        W 5511   8.131  14.791   2.963
37107W        W 5512  11.120   7.657   2.253
37108W        W 5513   2.484  33.935   0.513
37109W        W 5514  33.846  38.581   2.215
37110W        W 5515   7.128  32.477  13.457
37111W        W 5516  11.334  41.932  10.545
37112W        W 5517  43.483  20.512   3.942
37113W        W 5518  14.376  24.627  14.749
37114W        W 5519   0.047   1.675   2.397
37115W        W 5520  40.441  14.024  10.854
37116W        W 5521  23.187  38.513  11.679
37117W        W 5522  13.381  38.046   3.480
37118W        W 5523   6.434  35.492  13.458
37119W        W 5524  33.893   1.492  13.100
37120W        W 5525  33.612  16.582  12.521
37121W        W 5526  25.391  30.765  13.085
37122W        W 5527   6.469   5.183  13.966
37123W        W 5528  37.938  33.534   0.159
37124W        W 5529  21.632  43.192   0.260
37125W        W 5530  18.575   3.903  14.716
37126W        W 5531  41.858   3.005  11.992
37127W        W 5532  42.555  31.514   2.674
37128W        W 5533  30.311   7.996   4.165
37129W        W 5534  28.543  28.047   4.177
37130W        W 5535  33.871  20.081   2.372
37131W        W 5536  43.988  44.392  14.917
37132W        W 5537  32.996  36.609  11.179
37133W        W 5538  19.094   9.652  12.336
37134W        W 5539   5.898  27.722  12.441
37135W        W 5540   2.844  20.153   2.716
37136W        W 5541  39.634  13.839  14.446
37137W        W 5542  44.227  20.605  12.200
37138W        W 5543   0.682  24.109  13.439
37139W        W 5544  29.952  25.453   4.287
37140W        W 5545   2.392  12.112  11.760
37141W        W 5546  13.647  21.707   0.907
37142W        W 5547  18.670  42.549  14.926
37143W        W 5548  10.729  24.018  12.133
37144W        W 5549   9.716  24.148   3.602
37145W        W 5550  14.193  23.648   4.384
37146W        W 5551  10.807  10.526  12.882
37147W        W 5552  11.453  23.561   0.033
37148W        W 5553  32.088  16.368   3.869
37149W        W 5554  36.415  23.475   1.719
37150W        W 5555  14.441  26.539  10.779
37151W        W 5556  16.487  19.265   1.005
37152W        W 5557  23.019  20.709   0.306
37153W        W 5558   9.292  42.913   2.665
37154W        W 5559  40.049  18.554   2.152
37155W        W 5560  21.790  10.777  11.584
37156W        W 5561  35.846  14.192   4.625
37157W        W 5562   4.030  11.139   2.256
37158W        W 5563  37.005  29.628  11.705
37159W        W 5564  40.173  15.500   0.666
37160W        W 5565  44.228  18.801  13.851
37161W        W 5566  30.073  36.936  12.391
37162W        W 5567  25.343  14.671  12.486
37163W        W 5568  18.980  25.510  13.406
37164W        W 5569  38.584  17.842   2.335
37165W        W 5570  42.379  12.483   3.802
37166W        W 5571   6.784  26.110  13.426
37167W        W 5572  24.672  24.252   1.432
37168W        W 5573  23.095  15.938   4.053
37169W        W 5574  33.069  23.874   0.718
37170W        W 5575  12.547  23.761   3.265
37171W        W 5576   2.258  18.692  12.560
37172W        W 5577  39.595  20.515  12.114
37173W        W 5578   1.313  36.260   0.796
37174W        W 5579  26.512  36.575  13.037
37175W        W 5580   4.621  15.300  11.950
37176W        W 5581  24.210  22.170  13.486
37177W        W 5582  37.334   7.700  14.494
37178W        W 5583  30.627  41.369  13.775
37179W        W 5584  15.325  15.706  14.409
37180W        W 5585  24.223  30.944  10.682
37181W        W 5586  29.201  34.477   2.280
37182W        W 5587  31.014   3.426  12.881
37183W        W 5588  21.597  36.020   4.680
37184W        W 5589  30.658  28.989   0.984
37185W        W 5590  36.404   7.811   2.970
37186W        W 5591  31.495  23.334   0.066
37187W        W 5592   5.469  18.595   3.713
37188W        W 5593  43.719  35.488  11.447
37189W        W 5594   6.321   1.327   3.715
37190W        W 5595  42.981  13.756   3.979
37191W        W 5596  40.294  20.479   4.507
37192W        W 5597  11.616  16.492   3.413
37193W        W 5598  26.062  13.500   2.344
37194W        W 5599   7.222  36.603   4.522
37195W        W 5600   2.420  41.114   3.102
37196W        W 5601  24.790  37.086   2.777
37197W        W 5602  12.914  41.800   1.019
37198W        W 5603  40.832  39.890   4.805
37199W        W 5604  20.943  41.469  12.399
37200W        W 5605  20.699  37.464  14.454
37201W        W 5606  31.045  21.135   4.992
37202W        W 5607  31.556   4.528   3.751
37203W        W 5608  39.909  19.826   3.141
37204W        W 5609  38.831  37.056  11.175
37205W        W 5610  32.116  37.693  14.773
37206W        W 5611  12.765   4.584   2.831
37207W        W 5612  37.927  29.371  13.519
37208W        W 5613  13.874  31.024  12.066
37209W        W 5614  18.119   4.706  11.923
37210W        W 5615  33.335  14.330   3.898
37211W        W 5616   7.888  10.212   4.707
37212W        W 5617  11.811  15.291   2.887
37213W        W 5618  24.274  23.314  13.842
37214W        W 5619  33.403  26.750  11.544
37215W        W 5620  26.592  25.534  12.012
37216W        W 5621  11.263  35.419  12.421
37217W        W 5622  17.377  42.682   0.395
37218W        W 5623  17.357  27.120   2.743
37219W        W 5624  43.880  13.525   0.253
37220W        W 5625  16.157  33.009   3.108
37221W        W 5626  29.056  21.114  10.776
37222W        W 5627  38.978   3.372  14.309
37223W        W 5628   8.142  26.926   1.628
37224W        W 5629  16.785  42.327  14.228
37225W        W 5630  15.357  12.342  12.042
37226W        W 5631   1.263  18.163   2.542
37227W        W 5632  28.701   6.173  14.047
37228W        W 5633  25.707   5.405   1.041
37229W        W 5634  35.966  29.989   4.551
37230W        W 5635  31.115  13.870  13.348
37231W        W 5636  20.718   2.682   0.857
37232W        W 5637  10.217  41.928  12.371
37233W        W 5638  42.708  38.727  14.878
37234W        W 5639  14.497   8.864  11.304
37235W        W 5640   2.655  20.974  12.620
37236W        W 5641   0.569  12.821  10.728
37237W        W 5642  35.475  35.956   1.106
37238W        W 5643  44.959  11.864  14.434
37239W        W 5644  25.625  14.087   4.477
37240W        W 5645  40.589  23.789   0.872
37241W        W 5646  31.635   2.383  14.799
37242W        W 5647  37.086  16.133   2.217
37243W        W 5648  23.239  30.750  11.090
37244W        W 5649  38.457  43.631   3.149
37245W        W 5650  30.369  23.424   2.478
37246W        W 5651  10.610  22.102  10.768
37247W        W 5652  22.693  42.633  14.876
37248W        W 5653  31.093  12.421  10.778
37249W        W 5654  43.497  13.714  14.989
37250W        W 5655   9.954  35.564  11.154
37251W        W 5656  38.231  16.661   1.762
37252W        W 5657  13.564  28.398   0.793
37253W        W 5658  30.470   4.532   2.598
37254W        W 5659  16.696  35.070   3.682
37255W        W 5660  21.748  19.669   2.805
37256W        W 5661  31.709   2.780   2.634
37257W        W 5662  28.538  13.633   2.415
37258W        W 5663   7.755  12.394   0.434
37259W        W 5664  36.576  20.457   0.714
37260W        W 5665  17.501  44.429   0.812
37261W        W 5666  33.070  20.788   4.148
37262W        W 5667  36.491   8.782  14.478
37263W        W 5668  33.538   1.797   1.372
37264W        W 5669  30.076  28.212  12.406
37265W        W 5670  43.505   3.220  12.107
37266W        W 5671  24.516  16.226   0.196
37267W        W 5672  35.035   1.146  12.648
37268W        W 5673  41.387  41.291  14.954
37269W        W 5674  24.595  13.883   3.266
37270W        W 5675   2.824   7.439   0.111
37271W        W 5676  29.501  22.043  11.587
37272W        W 5677  14.705  10.643  13.014
37273W        W 5678   9.588  32.396   0.997
37274W        W 5679   1.087   0.838  11.499
37275W        W 5680  21.663  41.328   1.225
37276W        W 5681   7.918   9.919   1.292
37277W        W 5682  27.614  42.290   4.290
37278W        W 5683  34.015   4.416   4.744
37279W        W 5684  17.076  30.634   4.530
37280W        W 5685  15.197  21.455   1.886
37281W        W 5686   3.056  28.451  12.777
37282W        W 5687  27.039   4.714   1.769
37283W        W 5688  40.531  14.647   2.886
37284W        W 5689   9.735  19.521   2.285
37285W        W 5690  12.294  41.850  11.724
37286W        W 5691  28.554  35.067   2.328
37287W        W 5692  20.767  20.051   0.671
37288W        W 5693  44.069  22.637   2.917
37289W        W 5694  20.277   9.912   3.116
37290W        W 5695  17.575  12.807  14.850
37291W        W 5696  13.659  21.658  11.189
37292W        W 5697  23.601  17.280   0.249
37293W        W 5698  28.299  40.668   4.645
37294W        W 5699  31.688  10.413   2.372
37295W        W 5700  44.439  31.811  14.434
37296W        W 5701  27.152  13.762   1.533
37297W        W 5702  36.162   5.251   2.243
37298W        W 5703  10.768   9.672   3.198
37299W        W 5704  36.926   2.453  14.444
37300W        W 5705   9.645  28.089  11.183
37301W        W 5706  32.115  19.809   3.180
37302W        W 5707  12.555   9.212  14.452
37303W        W 5708  27.942  31.336  10.274
37304W        W 5709  31.104  44.379  14.794
37305W        W 5710  32.945  37.908  13.791
37306W        W 5711  27.204  26.065  11.851
37307W        W 5712  17.232   0.158  13.033
37308W        W 5713   5.530  38.802  12.532
37309W        W 5714  42.922  40.795  13.364
37310W        W 5715  29.614  18.655  12.472
37311W        W 5716   5.402  33.429   1.380
37312W        W 5717   2.010  21.998   1.196
37313W        W 5718   4.770  25.119  12.786
37314W        W 5719  27.439  19.983  13.864
37315W        W 5720  34.278  40.458   4.201
37316W        W 5721  11.014  33.267  12.899
37317W        W 5722  17.122  12.316  11.247
37318W        W 5723  42.679  17.434  11.105
37319W        W 5724   6.573  20.296   1.224
37320W        W 5725  33.758   2.852  10.520
37321W        W 5726  18.646  27.997  13.393
37322W        W 5727  11.632  19.048  14.290
37323W        W 5728   3.513  37.527  12.515
37324W        W 5729  31.334   0.583  14.145
37325W        W 5730  17.171   6.906  13.151
37326W        W 5731  15.230  33.412   1.353
37327W        W 5732  28.938  23.664  10.656
37328W        W 5733  17.524  42.875   4.616
37329W        W 5734  13.116  34.393   2.308
37330W        W 5735  37.930  24.192   1.811
37331W        W 5736   3.654  43.208  14.926
37332W        W 5737  30.650   8.854  11.064
37333W        W 5738  19.144  20.544  14.888
37334W        W 5739   0.242  21.147   1.946
37335W        W 5740  21.184  37.656  12.069
37336W        W 5741  41.060  40.454   3.616
37337W        W 5742  42.030  27.962   4.702
37338W        W 5743  11.198  20.513   4.323
37339W        W 5744   9.577   2.938   0.043
37340W        W 5745  32.062  10.476  10.292
37341W        W 5746  42.367   5.863  10.988
37342W        W 5747  27.655  39.933  12.345
37343W        W 5748  32.066   8.292   2.875
37344W        W 5749  13.978  32.463   0.225
37345W        W 5750  38.732  21.092  13.933
37346W        W 5751  38.821   2.556   5.597
37347W        W 5752  32.179  26.572  13.110
37348W        W 5753  37.952  10.770  10.984
37349W        W 5754  32.469   1.856  11.514
37350W        W 5755  40.442  35.038  12.039
37351W        W 5756  39.105  27.909  12.975
37352W        W 5757  17.684  18.123   2.717
37353W        W 5758  39.301  15.825   1.762
37354W        W 5759  16.031  13.148   2.383
37355W        W 5760  32.425   1.485  14.488
37356W        W 5761  13.179  29.532   4.694
37357W        W 5762  15.897  32.534   3.206
37358W        W 5763   2.420  14.397  14.874
37359W        W 5764  41.548  15.633  12.503
37360W        W 5765  23.020  24.693   1.322
37361W        W 5766  23.057  32.132  13.505
37362W        W 5767  29.016   8.418   1.461
37363W        W 5768   4.651  11.538   1.895
37364W        W 5769  17.530  21.580   3.798
37365W        W 5770   1.655  40.581  11.163
37366W        W 5771  16.675  24.191   2.389
37367W        W 5772  10.646  42.215  14.044
37368W        W 5773   7.830  39.185   2.331
37369W        W 5774  44.167  30.179  12.092
37370W        W 5775   3.301  29.359  14.310
37371W        W 5776  25.712  25.824   0.331
37372W        W 5777  30.192  29.642  12.370
37373W        W 5778  37.820   0.951  13.928
37374W        W 5779   0.442  40.500   2.375
37375W        W 5780  14.663  14.172   1.486
37376W        W 5781  43.511  30.176  14.036
37377W        W 5782  24.560  12.567   4.656
37378W        W 5783  23.061  24.496  13.321
37379W        W 5784   8.515  22.440  11.562
37380W        W 5785  14.002  17.071   1.040
37381W        W 5786   4.281  14.506   3.811
37382W        W 5787  21.193  35.555   0.697
37383W        W 5788  24.930  43.491  12.384
37384W        W 5789   6.321  37.520   1.830
37385W        W 5790   7.296  12.123   3.689
37386W        W 5791  22.715  24.897  11.965
37387W        W 5792  35.790  40.881   3.748
37388W        W 5793   5.318  10.318   0.391
37389W        W 5794  37.469   2.385  10.347
37390W        W 5795  33.847   4.758  10.128
37391W        W 5796  15.632  33.927  14.496
37392W        W 5797  21.062  35.155  12.984
37393W        W 5798  42.512   7.136   1.268
37394W        W 5799  21.186  20.944   2.733
37395W        W 5800  17.612  10.781   1.873
37396W        W 5801  10.590  40.391   2.857
37397W        W 5802  30.600   5.381  13.979
37398W        W 5803  43.349  41.368   1.235
37399W        W 5804  26.737   3.319   3.731
37400W        W 5805   7.321  28.541   0.758
37401W        W 5806  29.908  24.434  13.364
37402W        W 5807   0.170  20.535  12.952
37403W        W 5808  24.502  21.209  13.723
37404W        W 5809  26.808  31.547   1.757
37405W        W 5810  10.482  18.148   1.264
37406W        W 5811  36.610  14.137   1.461
37407W        W 5812  13.080  29.595  10.511
37408W        W 5813  35.024   9.692  13.750
37409W        W 5814  25.635   3.260   1.187
37410W        W 5815  26.140  37.862   1.267
37411W        W 5816   7.986   3.314  13.883
37412W        W 5817  24.566   2.641  13.402
37413W        W 5818  34.667   5.500   4.214
37414W        W 5819   1.695  43.860  12.547
37415W        W 5820  36.501  21.892   4.160
37416W        W 5821  19.907  27.658  12.938
37417W        W 5822   2.925  13.144  12.075
37418W        W 5823  19.986  29.475   3.501
37419W        W 5824  18.582  24.694  11.622
37420W        W 5825  15.898  32.001  13.995
37421W        W 5826  40.904   5.383  10.216
37422W        W 5827   4.232  30.625  14.452
37423W        W 5828  28.221  32.433  14.308
37424W        W 5829  18.814  10.619   3.307
37425W        W 5830  43.483   4.244   4.167
37426W        W 5831  12.454   6.767   0.382
37427W        W 5832  14.829  38.243   4.596
37428W        W 5833  35.938  34.846   2.068
37429W        W 5834  21.704  38.467   0.578
37430W        W 5835  16.456  43.896  10.574
37431W        W 5836  30.125  42.304  10.647
37432W        W 5837  43.007   8.704   4.342
37433W        W 5838   9.945   3.369   2.071
37434W        W 5839  40.777   0.519   3.478
37435W        W 5840  13.621  43.185   4.975
37436W        W 5841  37.334  39.278  11.720
37437W        W 5842  19.058  20.410   3.340
37438W        W 5843  22.918  23.915  12.101
37439W        W 5844  16.164  12.797   4.307
37440W        W 5845  31.103  26.954   0.661
37441W        W 5846   9.026  29.011   0.891
37442W        W 5847  38.879  37.644   0.417
37443W        W 5848   2.127  35.717  13.961
37444W        W 5849  16.401  41.236  13.893
37445W        W 5850  11.194   2.229  14.208
37446W        W 5851   0.910  20.853  11.401
37447W        W 5852  14.128  42.862  12.681
37448W        W 5853  41.389  21.742  10.761
37449W        W 5854   9.684   9.544   1.935
37450W        W 5855  16.862  31.990   4.062
37451W        W 5856  34.614  22.956   3.114
37452W        W 5857  13.293   1.338   2.255
37453W        W 5858  18.799   1.834  14.779
37454W        W 5859   3.969  43.875   1.300
37455W        W 5860  40.925  27.244   1.831
37456W        W 5861  14.121  19.261   1.073
37457W        W 5862  29.396  31.566  14.706
37458W        W 5863   4.767  28.365   0.394
37459W        W 5864  20.683  22.541   1.637
37460W        W 5865  24.158   7.869   0.814
37461W        W 5866  27.899  14.241  13.056
37462W        W 5867  13.664  13.870  11.711
37463W        W 5868  29.136  36.427   4.310
37464W        W 5869  17.235  15.689  12.940
37465W        W 5870  24.941   2.269   4.536
37466W        W 5871  10.470  31.675  13.602
37467W        W 5872   3.411  42.000  14.454
37468W        W 5873  15.423  24.740  11.092
37469W        W 5874  30.790  22.060   0.517
37470W        W 5875  20.083  42.794   3.715
37471W        W 5876  44.775  29.500   3.561
37472W        W 5877  37.496  21.745   3.131
37473W        W 5878  12.630  40.992   2.224
37474W        W 5879   0.027  18.315  12.744
37475W        W 5880  42.950   9.723   1.023
37476W        W 5881  11.304  35.449  11.897
37477W        W 5882  44.749  44.741   4.836
37478W        W 5883  35.532  19.309   1.296
37479W        W 5884  43.721  33.078  10.716
37480W        W 5885  43.862  24.714  12.579
37481W        W 5886  38.943  28.911  12.324
37482W        W 5887  28.133  10.627   4.729
37483W        W 5888  32.321  44.512   0.269
37484W        W 5889  25.975  41.444  11.191
37485W        W 5890  44.871   3.194   1.396
37486W        W 5891  21.116   1.796   9.943
37487W        W 5892  13.059  16.222   3.038
37488W        W 5893  43.206  44.844   2.663
37489W        W 5894  38.038  25.397   2.840
37490W        W 5895  18.109  32.684  11.445
37491W        W 5896  12.398  26.190   2.392
37492W        W 5897  22.545   1.310   1.198
37493W        W 5898   0.281  25.232  11.652
37494W        W 5899  14.229  13.869   4.580
37495W        W 5900  18.510  19.620   3.199
37496W        W 5901  10.733  20.575  12.905
37497W        W 5902  29.548   5.923  13.587
37498W        W 5903   5.011  30.570   2.479
37499W        W 5904  12.102  24.219   2.638
37500W        W 5905  11.837  35.831  10.112
37501W        W 5906  21.490  38.251  12.057
37502W        W 5907  29.893  30.011   4.513
37503W        W 5908  11.246   4.514  11.836
37504W        W 5909  41.059   9.568  14.456
37505W        W 5910  10.329  10.647   0.759
37506W        W 5911  34.823   0.979  12.097
37507W        W 5912  33.058  41.372   0.547
37508W        W 5913  26.695  37.454   0.686
37509W        W 5914  27.757  38.419   1.230
37510W        W 5915  40.642  38.551   1.896
37511W        W 5916   2.807  17.145   3.724
37512W        W 5917  20.212   5.035   3.852
37513W        W 5918   1.488  22.514  13.526
37514W        W 5919  19.564  37.879   2.307
37515W        W 5920  19.790  28.937  11.121
37516W        W 5921  40.903  38.557  14.543
37517W        W 5922  16.629  36.032   1.936
37518W        W 5923  34.844  15.198  11.381
37519W        W 5924  40.936  22.456   3.560
37520W        W 5925  21.182  18.117   3.142
37521W        W 5926  11.314  15.106   1.411
37522W        W 5927  30.505   3.811  14.920
37523W        W 5928  41.068   6.443  14.404
37524W        W 5929  37.379  16.480   1.321
37525W        W 5930  23.085  26.819  12.337
37526W        W 5931  27.605  44.246  12.957
37527W        W 5932  23.625  40.663  11.448
37528W        W 5933  44.481  23.036   4.136
37529W        W 5934  33.806  11.666   4.596
37530W        W 5935  31.909  17.214  10.563
37531W        W 5936  18.695  26.240   1.746
37532W        W 5937  44.806   8.630  13.502
37533W        W 5938  16.843  43.122  10.056
37534W        W 5939  18.193  11.344   4.318
37535W        W 5940  13.619  38.974  14.793
37536W        W 5941  18.619  31.259   4.085
37537W        W 5942  44.022  44.423   2.843
37538W        W 5943  27.175  10.060   3.187
37539W        W 5944  44.952   8.634  12.549
37540W        W 5945  24.533  34.668   2.744
37541W        W 5946  43.915  13.808  13.392
37542W        W 5947  21.340  27.988  11.695
37543W        W 5948   1.547  14.042  14.460
37544W        W 5949  22.763   1.681  11.983
37545W        W 5950  44.853  13.696   0.362
37546W        W 5951  41.865  23.929   2.337
37547W        W 5952  25.399   0.727  13.407
37548W        W 5953   5.235  18.103  11.476
37549W        W 5954  24.564  29.958  10.918
37550W        W 5955  15.747  37.467   4.190
37551W        W 5956  31.975  42.297   1.053
37552W        W 5957  19.225   8.760  11.426
37553W        W 5958  44.446   8.794  10.716
37554W        W 5959  15.581  17.264  14.261
37555W        W 5960  11.260  18.117   2.839
37556W        W 5961  17.319  22.489   2.696
37557W        W 5962  24.217  44.333  14.513
37558W        W 5963  42.268  20.850  10.736
37559W        W 5964   0.148  23.604   4.658
37560W        W 5965  20.831  17.873  13.034
37561W        W 5966  18.023  18.435  11.084
37562W        W 5967  23.730  15.146  13.589
37563W        W 5968  37.446  29.801   1.071
37564W        W 5969  43.816  22.212  14.801
37565W        W 5970  26.993  32.856   2.283
37566W        W 5971  33.896  30.881  13.456
37567W        W 5972  21.721  13.646  11.680
37568W        W 5973  22.629  36.062   2.951
37569W        W 5974  14.165  38.607   0.971
37570W        W 5975  40.268  26.916   2.686
37571W        W 5976   7.173   3.819   1.215
37572W        W 5977   7.636  21.083  13.317
37573W        W 5978  34.103  39.103  14.686
37574W        W 5979   8.804  16.592   1.325
37575W        W 5980  35.448   0.632   1.338
37576W        W 5981  26.930  18.524   4.992
37577W        W 5982   3.935  17.656   4.116
37578W        W 5983  29.656   7.777  11.458
37579W        W 5984  15.242  25.155   0.390
37580W        W 5985   1.511  27.227  12.886
37581W        W 5986   8.873  42.668  11.098
37582W        W 5987   4.227  27.381  12.067
37583W        W 5988  27.019   1.607   2.443
37584W        W 5989   4.214   6.910   3.141
37585W        W 5990   6.923  34.537   4.103
37586W        W 5991  16.057  11.787   3.409
37587W        W 5992  35.543  44.491   4.075
37588W        W 5993  19.585  42.834   4.556
37589W        W 5994  17.703  17.367  13.800
37590W        W 5995  29.189  31.390   3.833
37591W        W 5996   3.971  26.964   3.361
37592W        W 5997  35.938  15.556  12.811
37593W        W 5998  24.018   8.734  10.715
37594W        W 5999  29.678  32.312   2.195
37595W        W 6000  30.141  24.007   0.938
37596W        W 6001   1.270  23.477   1.189
37597W        W 6002  33.730  38.316  14.942
37598W        W 6003  40.809  24.231  13.970
37599W        W 6004  15.527  29.808  11.578
37600W        W 6005  29.285  13.747  14.811
37601W        W 6006  39.278  17.990   1.326
37602W        W 6007  22.751  20.314  14.450
37603W        W 6008  31.876   4.976   2.933
37604W        W 6009  25.174  40.447  11.663
37605W        W 6010  37.267  10.247   3.722
37606W        W 6011  22.659  11.228   4.185
37607W        W 6012   0.287  25.459  12.530
37608W        W 6013  26.983  23.334   4.069
37609W        W 6014  21.645  24.156   0.476
37610W        W 6015   2.011   0.970  14.359
37611W        W 6016   6.648  42.941  11.721
37612W        W 6017  41.993  18.889   3.285
37613W        W 6018  38.023  10.969   9.982
37614W        W 6019  23.799   2.661   4.870
37615W        W 6020   2.313  18.837   0.209
37616W        W 6021   1.831   5.741  12.067
37617W        W 6022   0.846  18.772  10.730
37618W        W 6023  22.484  40.494  10.124
37619W        W 6024  17.536  42.934   1.649
37620W        W 6025  37.138  19.301   4.741
37621W        W 6026  43.192  39.129  10.706
37622W        W 6027  27.413  17.709  14.449
37623W        W 6028  17.272  32.466   4.619
37624W        W 6029  23.129  21.224  10.598
37625W        W 6030  14.868  44.075   0.857
37626W        W 6031  10.650  18.970  14.981
37627W        W 6032   2.496  16.620  13.366
37628W        W 6033  30.075  37.556  10.542
37629W        W 6034  44.031  29.741   2.570
37630W        W 6035  27.054  42.546   3.637
37631W        W 6036  28.686  33.165  14.000
37632W        W 6037  17.677  17.249   4.168
37633W        W 6038  17.672  15.433   3.723
37634W        W 6039  32.753  17.652   1.111
37635W        W 6040  38.823  40.099  13.342
37636W        W 6041  30.253   3.381   3.383
37637W        W 6042  10.250  33.178   2.449
37638W        W 6043  23.577  12.385  12.840
37639W        W 6044  28.133  20.275   2.718
37640W        W 6045  13.031  40.554   1.236
37641W        W 6046   2.967   7.701   0.527
37642W        W 6047  29.451  36.899   4.894
37643W        W 6048  18.090   6.411  13.058
37644W        W 6049  33.265  44.486   5.015
37645W        W 6050  34.854  30.592  12.586
37646W        W 6051  28.506  11.892   4.632
37647W        W 6052  12.722  20.776   0.051
37648W        W 6053  42.737  36.454   0.404
37649W        W 6054  42.016  33.877   4.609
37650W        W 6055  35.149   1.479   1.695
37651W        W 6056  13.230  14.727  12.602
37652W        W 6057   5.271  32.433   3.704
37653W        W 6058  41.913  26.125   1.834
37654W        W 6059  26.916  27.880  12.816
37655W        W 6060   4.884  35.019  13.058
37656W        W 6061  13.098  41.504  10.178
37657W        W 6062   9.671   1.421   2.871
37658W        W 6063  28.150   3.264  11.109
37659W        W 6064  16.343  18.337   1.778
37660W        W 6065  10.622  18.674   2.493
37661W        W 6066  34.045  16.880   4.499
37662W        W 6067  31.371   2.293   4.084
37663W        W 6068  16.676   4.451   4.058
37664W        W 6069  37.369  20.918  14.641
37665W        W 6070  27.998   3.920  13.237
37666W        W 6071  18.148  44.001   0.803
37667W        W 6072  18.613  24.251  14.379
37668W        W 6073  36.430  30.610   1.355
37669W        W 6074  16.674  27.921  14.492
37670W        W 6075  16.108  15.572  10.381
37671W        W 6076  29.711   0.971   3.260
37672W        W 6077  32.550   7.878  14.362
37673W        W 6078   1.338   8.642  14.370
37674W        W 6079  27.958  40.743   1.968
37675W        W 6080   4.828  13.333  13.850
37676W        W 6081   0.923  21.690  14.281
37677W        W 6082  38.729  33.477  11.295
37678W        W 6083  17.182  41.387  14.953
37679W        W 6084   7.193  30.913  11.592
37680W        W 6085   6.620   6.814   4.749
37681W        W 6086  19.958  28.108   2.338
37682W        W 6087  34.574  41.592  12.460
37683W        W 6088  27.398  14.723  14.482
37684W        W 6089  19.723  39.242  11.956
37685W        W 6090  44.754  23.039   3.697
37686W        W 6091   0.253  24.459   2.368
37687W        W 6092  16.628  14.298   2.746
37688W        W 6093  11.871   1.265   1.405
37689W        W 6094  29.122  16.773  14.025
37690W        W 6095  43.618  20.035   1.772
37691W        W 6096  12.124  18.895  14.279
37692W        W 6097  32.258  12.285  10.927
37693W        W 6098  35.497  19.815   4.733
37694W        W 6099   6.790  15.807   0.687
37695W        W 6100  39.972  32.377  12.993
37696W        W 6101  11.433  19.139  12.119
37697W        W 6102   9.964  19.347   1.708
37698W        W 6103  30.321  33.334  11.265
37699W        W 6104  13.253  20.687   3.467
37700W        W 6105  33.612  44.253   2.045
37701W        W 6106  40.076   7.174  10.984
37702W        W 6107  15.561   6.403   5.096
37703W        W 6108  38.953  16.827   4.293
37704W        W 6109   8.937  22.140  11.566
37705W        W 6110  28.023  43.801   1.158
37706W        W 6111  26.115  20.757   0.015
37707W        W 6112   9.853  20.617   4.711
37708W        W 6113  38.089   6.102  14.380
37709W        W 6114  20.854  26.234  10.443
37710W        W 6115  25.590   2.816   3.388
37711W        W 6116  23.322   5.546  11.163
37712W        W 6117  27.632  42.820  12.348
37713W        W 6118  39.910  31.562   3.785
37714W        W 6119   2.180  12.761  14.718
37715W        W 6120   8.378  10.802  13.231
37716W        W 6121   6.986  17.875  14.824
37717W        W 6122  18.789  16.188   2.782
37718W        W 6123  31.598  20.540   0.464
37719W        W 6124  29.779  28.624   4.094
37720W        W 6125  25.491  13.845   3.579
37721W        W 6126  36.887  25.927   4.600
37722W        W 6127   8.881  34.578  13.085
37723W        W 6128  11.298   8.733  13.831
37724W        W 6129   6.619   3.301  12.956
37725W        W 6130  14.434  39.691  13.559
37726W        W 6131   8.777   0.176  13.259
37727W        W 6132  27.717  31.147   2.678
37728W        W 6133   9.949  16.231  14.896
37729W        W 6134  34.261  18.256  10.435
37730W        W 6135  10.195   0.791  14.383
37731W        W 6136  38.575  23.945  12.901
37732W        W 6137  11.289  28.445  11.614
37733W        W 6138   5.012   0.782  12.152
37734W        W 6139  14.457  32.926   3.307
37735W        W 6140   7.159  38.862   1.417
37736W        W 6141  11.706   6.106   2.650
37737W        W 6142  27.390  27.054   4.514
37738W        W 6143  27.418  25.935   3.228
37739W        W 6144  14.303   5.473  11.541
37740W        W 6145  16.835  43.835  13.954
37741W        W 6146  14.627  27.870  14.945
37742W        W 6147   3.711  37.301   0.531
37743W        W 6148  10.798   7.758   4.486
37744W        W 6149  12.967  26.242   1.836
37745W        W 6150  23.632  39.351   1.567
37746W        W 6151  28.107  32.538   2.376
37747W        W 6152  31.384  39.847  11.116
37748W        W 6153  11.619  40.111  14.006
37749W        W 6154  43.427  17.545   4.627
37750W        W 6155  37.818   4.130   2.209
37751W        W 6156  41.288  42.868   1.102
37752W        W 6157  38.778   8.265   1.070
37753W        W 6158  32.397   1.165   4.573
37754W        W 6159  21.084  22.257   4.962
37755W        W 6160  35.613  31.553   2.169
37756W        W 6161  24.554  13.195  13.480
37757W        W 6162  11.636  38.507   1.430
37758W        W 6163   9.976  36.371  12.208
37759W        W 6164  12.438  10.106  13.432
37760W        W 6165  16.664  40.499   4.590
37761W        W 6166   0.008  21.992   3.559
37762W        W 6167  11.517  24.079  12.146
37763W        W 6168   9.330  11.853  11.177
37764W        W 6169  14.818   3.620   1.461
37765W        W 6170   6.735   0.243   3.303
37766W        W 6171  31.081   0.319   4.305
37767W        W 6172  41.990   9.164  14.176
37768W        W 6173  29.121  34.594   1.784
37769W        W 6174  16.239  36.612  14.411
37770W        W 6175  26.443  26.774   4.515
37771W        W 6176  38.088  15.704   1.968
37772W        W 6177  29.913  36.073   1.756
37773W        W 6178  30.856  16.131   0.485
37774W        W 6179  24.101  36.036  10.291
37775W        W 6180  12.099  33.410   0.290
37776W        W 6181  27.487  43.260  14.791
37777W        W 6182  19.466  42.523  10.627
37778W        W 6183   1.400  19.779   1.293
37779W        W 6184  31.077  17.863  14.540
37780W        W 6185  38.948  44.521   2.176
37781W        W 6186  28.650  41.816  11.725
37782W        W 6187  17.413   6.070   0.257
37783W        W 6188  18.752  30.762   4.142
37784W        W 6189  27.274   4.205  13.643
37785W        W 6190  32.110   0.872   3.318
37786W        W 6191  38.918  16.137   3.671
37787W        W 6192  28.548  17.130  14.946
37788W        W 6193  40.088  24.908  14.407
37789W        W 6194  11.194  36.010  14.907
37790W        W 6195  17.498  23.190  13.889
37791W        W 6196   4.335   0.865   4.590
37792W        W 6197  40.383  16.728   1.713
37793W        W 6198   3.640   5.451   2.551
37794W        W 6199  22.433  28.447  11.953
37795W        W 6200  34.282  14.039  12.474
37796W        W 6201  18.338   0.207   0.029
37797W        W 6202   0.206  25.362  10.847
37798W        W 6203   7.640  31.331   2.839
37799W        W 6204  27.417  29.882   2.727
37800W        W 6205  25.871  31.100   4.546
37801W        W 6206  23.113  30.280   3.655
37802W        W 6207   7.920  44.709   1.773
37803W        W 6208  28.567  42.214  10.167
37804W        W 6209   9.584  18.217   4.184
37805W        W 6210   5.830   4.325  12.414
37806W        W 6211  17.787  24.751  10.338
37807W        W 6212  43.315   4.451  10.587
37808W        W 6213  28.031  30.168  10.707
37809W        W 6214   9.898   2.149  11.214
37810W        W 6215   1.245   7.002   3.435
37811W        W 6216  31.319   9.898   0.411
37812W        W 6217  17.628   1.444  13.435
37813W        W 6218   0.625  37.327  12.945
37814W        W 6219  25.933  38.543   3.908
37815W        W 6220  28.699  32.792   0.476
37816W        W 6221  42.533  31.361  12.105
37817W        W 6222   7.858  33.537   3.226
37818W        W 6223  37.551  23.401   2.072
37819W        W 6224  41.026  19.871  14.312
37820W        W 6225   8.362  44.539  11.934
37821W        W 6226  19.064  41.313  13.577
37822W        W 6227  23.154  36.405  10.694
37823W        W 6228  29.236  25.924  12.052
37824W        W 6229  29.633   4.322   0.945
37825W        W 6230  16.214  38.701  13.883
37826W        W 6231  10.678  39.517  11.890
37827W        W 6232  29.455  15.537  14.977
37828W        W 6233  11.827  18.145   0.236
37829W        W 6234   1.515  30.936   1.694
37830W        W 6235   4.361   4.307   2.307
37831W        W 6236   7.418   3.668  11.212
37832W        W 6237  12.836   6.349   1.519
37833W        W 6238  36.795   4.625   3.790
37834W        W 6239  34.674  44.989   3.291
37835W        W 6240   7.739  35.060   2.769
37836W        W 6241  15.511   2.475  14.492
37837W        W 6242   2.001  35.197   0.418
37838W        W 6243  20.394  16.645   2.562
37839W        W 6244  13.207   5.757  13.745
37840W        W 6245  10.870  11.008  14.791
37841W        W 6246  10.137   2.772   2.308
37842W        W 6247  34.550   8.973  13.393
37843W        W 6248   8.839   8.688   4.548
37844W        W 6249  18.875  42.428  11.961
37845W        W 6250   9.164   9.696   0.661
37846W        W 6251  22.750  15.167   0.887
37847W        W 6252  10.752   5.341  14.812
37848W        W 6253   9.730   6.760   2.468
37849W        W 6254   1.010   1.813  11.660
37850W        W 6255  26.143  13.796   1.909
37851W        W 6256  29.664  26.706   3.620
37852W        W 6257  27.048   5.844  12.057
37853W        W 6258  37.504  40.384   2.344
37854W        W 6259  16.691  24.067  10.826
37855W        W 6260  29.095  14.655  14.870
37856W        W 6261  33.794   7.630   4.403
37857W        W 6262  22.019  16.628  14.881
37858W        W 6263  19.691   1.279  11.582
37859W        W 6264  12.466  36.826   3.278
37860W        W 6265  25.357  25.068  13.551
37861W        W 6266  18.109   0.416  12.088
37862W        W 6267  27.258  41.103  13.880
37863W        W 6268   9.765  20.106   4.753
37864W        W 6269  37.558  25.696   5.271
37865W        W 6270   5.931   1.656  14.297
37866W        W 6271  37.833  43.627  12.542
37867W        W 6272   6.898   6.792  12.232
37868W        W 6273  17.548   9.134   4.135
37869W        W 6274   1.493  18.876   1.413
37870W        W 6275  39.613  40.821  14.902
37871W        W 6276  33.035   4.954  13.180
37872W        W 6277  22.554  35.805   2.015
37873W        W 6278   9.444  24.726  13.492
37874W        W 6279  43.470  15.330   1.260
37875W        W 6280  36.480  24.623  14.254
37876W        W 6281  35.132  20.536  13.994
37877W        W 6282  28.569  22.301   3.733
37878W        W 6283  34.782  34.942  12.572
37879W        W 6284  10.066  28.622   2.418
37880W        W 6285  44.759   3.028   3.780
37881W        W 6286  43.425  31.629   4.545
37882W        W 6287  11.066  26.993  13.473
37883W        W 6288   0.156  32.993   2.751
37884W        W 6289   6.237  19.724   4.835
37885W        W 6290   3.384  44.107   3.100
37886W        W 6291   3.373  12.296   4.613
37887W        W 6292  38.785   6.833  12.353
37888W        W 6293  42.195   9.274  12.793
37889W        W 6294   5.811  35.964  14.073
37890W        W 6295  26.699  13.305  10.761
37891W        W 6296  11.817  40.344   4.683
37892W        W 6297  23.123   8.386  13.503
37893W        W 6298  42.771   5.811  14.169
37894W        W 6299  37.574  19.132   2.639
37895W        W 6300   4.615  31.517   0.492
37896W        W 6301  26.124  22.622   0.425
37897W        W 6302  39.304  10.320   2.733
37898W        W 6303  15.358   1.960  11.740
37899W        W 6304  21.680  42.368  13.851
37900W        W 6305   0.285  40.124   1.317
37901W        W 6306  24.722   3.431  14.993
37902W        W 6307   8.288  42.328  12.613
37903W        W 6308   4.824   6.456  12.363
37904W        W 6309  14.983  38.401   2.082
37905W        W 6310  18.616  31.393  10.015
37906W        W 6311  17.285  16.155  14.370
37907W        W 6312  22.447  34.534  10.321
37908W        W 6313  39.252  33.034  11.037
37909W        W 6314  39.862  41.120   2.680
37910W        W 6315  20.664   5.736   1.941
37911W        W 6316  42.522  39.767  14.243
37912W        W 6317  20.267   1.290   2.796
37913W        W 6318  11.395  29.052   3.618
37914W        W 6319   3.976  14.737   1.654
37915W        W 6320  16.458  25.218   3.789
37916W        W 6321   5.302  16.311  14.174
37917W        W 6322  19.272  37.008   0.267
37918W        W 6323  41.270  39.468   1.410
37919W        W 6324  43.565  39.463   2.465
37920W        W 6325   6.180   8.582  12.107
37921W        W 6326   6.671  43.158  14.457
37922W        W 6327   8.199  35.338   2.797
37923W        W 6328  14.305  14.801  14.824
37924W        W 6329  35.149  27.181  13.405
37925W        W 6330  16.483  41.989   4.489
37926W        W 6331  25.061  14.132  10.682
37927W        W 6332   6.772  30.840  12.338
37928W        W 6333  44.187  18.259  10.671
37929W        W 6334  30.688  39.022   4.768
37930W        W 6335  10.204   3.701   2.372
37931W        W 6336  28.735  14.588  11.920
37932W        W 6337  27.193  17.147   1.745
37933W        W 6338  41.302  27.990   1.853
37934W        W 6339  16.333  26.178  14.761
37935W        W 6340   2.762  34.471   4.062
37936W        W 6341  19.383  32.181   1.935
37937W        W 6342  27.623  43.974   1.918
37938W        W 6343  17.569  18.174  12.523
37939W        W 6344   4.758  27.158  13.934
37940W        W 6345  21.522   7.225   4.145
37941W        W 6346   5.378   6.907  10.398
37942W        W 6347  24.324  26.503  10.603
37943W        W 6348  25.811  15.588   3.694
37944W        W 6349  31.432  36.462   2.970
37945W        W 6350   9.182  31.144   9.840
37946W        W 6351   0.885  28.462   0.037
37947W        W 6352  19.008   6.695   2.660
37948W        W 6353  12.780  44.372   9.833
37949W        W 6354  32.116  13.456   0.873
37950W        W 6355  19.551  42.069   2.346
37951W        W 6356  39.486  23.242   3.196
37952W        W 6357  19.991   7.436  13.503
37953W        W 6358  18.224  38.821  14.175
37954W        W 6359  32.233  35.415   3.623
37955W        W 6360  20.164  31.030  13.344
37956W        W 6361  36.554  21.068  10.529
37957W        W 6362  40.084  11.366   4.083
37958W        W 6363  17.535  32.071  10.534
37959W        W 6364  10.371   0.728  13.899
37960W        W 6365  18.221   9.193   3.678
37961W        W 6366  30.232  24.618  14.279
37962W        W 6367  13.111  15.700   1.899
37963W        W 6368  28.608  20.866  13.087
37964W        W 6369  42.997  18.562   1.404
37965W        W 6370  11.719  19.186  11.675
37966W        W 6371  40.895  12.314  13.456
37967W        W 6372  38.436  10.797   0.048
37968W        W 6373  33.514  23.974   2.760
37969W        W 6374   6.675  13.428   2.301
37970W        W 6375  19.673  11.899  11.737
37971W        W 6376  40.537  38.131   2.403
37972W        W 6377  29.733  41.846   3.622
37973W        W 6378  10.874  20.985  11.950
37974W        W 6379  33.086  10.775  12.606
37975W        W 6380  43.034  29.564   1.455
37976W        W 6381  30.174  32.430   2.296
37977W        W 6382  44.433   8.843   3.224
37978W        W 6383  20.157  33.878  11.444
37979W        W 6384  17.777  42.235   0.419
37980W        W 6385   5.086  17.148  10.482
37981W        W 6386  41.042   1.228   4.070
37982W        W 6387  31.002  19.662   2.260
37983W        W 6388   4.782   6.323   1.912
37984W        W 6389  18.448  43.229   1.122
37985W        W 6390  24.134  26.606   1.278
37986W        W 6391  13.291  32.391  11.691
37987W        W 6392   0.807  20.138  14.748
37988W        W 6393  23.961  19.876  11.098
37989W        W 6394  23.843  24.660  13.119
37990W        W 6395  25.578  28.731   0.410
37991W        W 6396  13.247  38.317  14.517
37992W        W 6397  11.181  32.050   0.026
37993W        W 6398   3.437   6.928  11.202
37994W        W 6399  29.136  22.152   1.163
37995W        W 6400  41.421  31.739   4.940
37996W        W 6401  34.969   8.682  13.261
37997W        W 6402  41.311  42.392  11.575
37998W        W 6403  27.918   9.402  10.610
37999W        W 6404  24.668  12.288  10.742
38000W        W 6405  14.810  39.501   3.720
38001W        W 6406  34.573  40.390   2.305
38002W        W 6407  22.249  27.345   3.287
38003W        W 6408  28.501  27.463   0.756
38004W        W 6409  42.164  34.408   2.184
38005W        W 6410   9.756   8.747   4.986
38006W        W 6411  15.120   1.739   4.497
38007W        W 6412  44.402  24.846  14.372
38008W        W 6413  42.988  30.962  13.860
38009W        W 6414  35.575  18.284   2.793
38010W        W 6415  30.398  21.553  14.836
38011W        W 6416  33.856  27.910   1.337
38012W        W 6417   4.763   5.656   1.211
38013W        W 6418  26.316   8.654   4.622
38014W        W 6419  35.550   0.407  14.209
38015W        W 6420  37.325  40.011  10.966
38016W        W 6421  39.629  33.500   1.321
38017W        W 6422  35.049   1.933  13.642
38018W        W 6423  33.303  30.355   9.993
38019W        W 6424  44.467  43.824   1.867
38020W        W 6425   3.879   6.746   2.782
38021W        W 6426   2.678   1.908   4.018
38022W        W 6427   7.658  43.787   1.864
38023W        W 6428  40.542  15.346   5.031
38024W        W 6429  11.468  24.721   0.726
38025W        W 6430   3.039  17.297   2.153
38026W        W 6431   6.255  17.379   2.439
38027W        W 6432   5.950  21.519   3.281
38028W        W 6433  42.095  22.048   4.847
38029W        W 6434  36.715   1.898  12.868
38030W        W 6435   2.025   2.877  10.605
38031W        W 6436  31.824  23.715   0.383
38032W        W 6437   3.320  19.295  13.003
38033W        W 6438   5.788  38.521   3.192
38034W        W 6439  30.610  11.600  12.458
38035W        W 6440   9.306  14.982   4.573
38036W        W 6441   3.750   1.312   3.667
38037W        W 6442  44.734  37.076   2.255
38038W        W 6443  38.303   4.303  13.577
38039W        W 6444   2.453  35.302   4.085
38040W        W 6445  30.577  39.838  11.604
38041W        W 6446   6.145  18.863  14.935
38042W        W 6447  15.454  28.551   0.929
38043W        W 6448  13.573   7.605  12.387
38044W        W 6449  11.771   8.900  14.552
38045W        W 6450  33.827  43.608  12.092
38046W        W 6451  25.144  28.417   0.854
38047W        W 6452  26.821   8.268  14.383
38048W        W 6453  22.670  20.245   3.202
38049W        W 6454  32.420  32.468  13.808
38050W        W 6455  12.657  37.864  14.851
38051W        W 6456   2.066   3.383   0.989
38052W        W 6457  20.687  12.739   1.663
38053W        W 6458  26.622  17.797  11.095
38054W        W 6459  30.660  40.424  11.977
38055W        W 6460  25.781  33.871  11.328
38056W        W 6461   1.526  12.018  11.989
38057W        W 6462  37.242  43.321   1.887
38058W        W 6463  31.278   4.935  12.892
38059W        W 6464  21.235  37.955   0.710
38060W        W 6465   5.884  13.862  13.842
38061W        W 6466  13.177   7.354   1.607
38062W        W 6467  10.541  18.163  11.783
38063W        W 6468  36.480  31.038  13.893
38064W        W 6469  22.288  22.247   0.817
38065W        W 6470  39.092  44.963  12.806
38066W        W 6471  10.249  29.399   1.382
38067W        W 6472  19.550   1.152   1.683
38068W        W 6473  11.169   1.484  13.081
38069W        W 6474  35.549   7.765  13.485
38070W        W 6475  11.238   8.895   0.364
38071W        W 6476  21.122   1.483   4.379
38072W        W 6477  19.584  22.255   0.667
38073W        W 6478  33.059   2.959   2.382
38074W        W 6479  18.131   2.035   4.139
38075W        W 6480   3.732  22.314   3.609
38076W        W 6481  32.808  28.758   3.394
38077W        W 6482  43.917   4.471  13.946
38078W        W 6483   2.194  38.290  13.434
38079W        W 6484  44.890  38.142  13.369
38080W        W 6485  29.493   7.555  13.937
38081W        W 6486  18.323  35.382   1.361
38082W        W 6487   6.245  17.793   9.822
38083W        W 6488  40.548  26.389  13.351
38084W        W 6489  36.991  44.217  11.249
38085W        W 6490  37.004  32.687   0.695
38086W        W 6491  20.426  42.294  13.771
38087W        W 6492  33.090   6.192   3.207
38088W        W 6493  33.614  35.322  14.756
38089W        W 6494  31.835  36.071  13.197
38090W        W 6495  44.060  28.521  11.535
38091W        W 6496  13.515  27.277  11.217
38092W        W 6497   0.205  36.884  12.937
38093W        W 6498  17.754   6.446  11.477
38094W        W 6499   3.868  15.773   2.744
38095W        W 6500  40.820   5.000  12.000
38096W        W 6501  29.540  40.283  13.390
38097W        W 6502  40.912  43.532  11.743
38098W        W 6503  13.123  26.974   2.324
38099W        W 6504  17.188  35.330  11.120
38100W        W 6505  38.959   8.608   0.714
38101W        W 6506  24.389   7.302   4.715
38102W        W 6507  35.630  25.241  11.562
38103W        W 6508   1.440  20.018   0.798
38104W        W 6509  32.581  38.616  13.964
38105W        W 6510  14.313   9.610   3.312
38106W        W 6511  37.572  44.225   2.738
38107W        W 6512  11.227   3.971   4.605
38108W        W 6513  34.065  27.141  11.102
38109W        W 6514   8.536  29.021  12.629
38110W        W 6515  31.359  36.119   4.320
38111W        W 6516  16.706   6.151  10.136
38112W        W 6517  18.637  10.176   3.161
38113W        W 6518  20.448   6.644  13.972
38114W        W 6519   1.504   2.197  14.006
38115W        W 6520  35.919   9.431   4.107
38116W        W 6521  27.507  18.021   0.781
38117W        W 6522  16.848  14.477   0.903
38118W        W 6523  44.757  31.571   0.431
38119W        W 6524   9.590   1.763  11.371
38120W        W 6525  14.210  22.443   1.376
38121W        W 6526  41.193   4.276  11.430
38122W        W 6527  27.387  21.492  11.177
38123W        W 6528  22.136  15.984  12.381
38124W        W 6529   5.825  21.527  11.583
38125W        W 6530   3.923  12.169   4.858
38126W        W 6531   1.357  12.564  14.383
38127W        W 6532  33.400  31.372   3.014
38128W        W 6533  29.104  25.110  13.805
38129W        W 6534  34.072   6.273  13.474
38130W        W 6535  16.718  43.514   2.424
38131W        W 6536   2.464  24.136   0.445
38132W        W 6537  23.975  33.653  11.548
38133W        W 6538  30.401  36.860  10.597
38134W        W 6539  36.442   3.420  11.095
38135W        W 6540  41.564  25.627   1.309
38136W        W 6541   5.270  42.381  13.507
38137W        W 6542  33.118  15.089  13.345
38138W        W 6543  44.924  30.579   1.172
38139W        W 6544  27.732  20.518  13.518
38140W        W 6545   4.740   5.914  13.101
38141W        W 6546  37.053  40.952  14.840
38142W        W 6547  14.464  16.651   4.889
38143W        W 6548  16.237  15.569   0.445
38144W        W 6549  43.483   9.637  14.799
38145W        W 6550  27.443  37.868   2.776
38146W        W 6551  43.614  40.775  14.889
38147W        W 6552   5.376  31.684  10.533
38148W        W 6553  13.390  23.409   3.586
38149W        W 6554   7.284  43.736  13.002
38150W        W 6555   0.776   3.760   4.905
38151W        W 6556  24.215   6.963  14.333
38152W        W 6557   0.338   9.766  11.329
38153W        W 6558  15.109   9.803  11.119
38154W        W 6559   7.828   2.209  13.875
38155W        W 6560   8.902  32.665   2.304
38156W        W 6561  29.535   0.013   3.518
38157W        W 6562  33.434  43.721   3.465
38158W        W 6563  10.904  44.369   0.359
38159W        W 6564  14.605  24.538   1.574
38160W        W 6565  40.515  11.202   1.322
38161W        W 6566  40.866   7.344  10.363
38162W        W 6567   5.460  35.011   1.014
38163W        W 6568  27.989  36.846  14.097
38164W        W 6569   5.938   9.369   1.904
38165W        W 6570  35.159   7.901  12.119
38166W        W 6571  12.186  43.169   3.752
38167W        W 6572  13.051  38.071   3.863
38168W        W 6573  42.863  17.713   2.765
38169W        W 6574  17.259  31.616   4.164
38170W        W 6575  39.449  41.743  10.575
38171W        W 6576  36.557  39.023   3.790
38172W        W 6577  12.100  10.395   0.181
38173W        W 6578  42.717   6.406   0.798
38174W        W 6579  19.139  19.604  11.440
38175W        W 6580  14.677  38.352  13.168
38176W        W 6581  22.299  17.521   2.503
38177W        W 6582  24.429   8.863   4.978
38178W        W 6583  12.696  32.477   3.527
38179W        W 6584   7.848   0.499   3.649
38180W        W 6585  26.215   4.202   1.809
38181W        W 6586  30.741  24.519   1.177
38182W        W 6587  38.216  20.777  10.800
38183W        W 6588  22.719   3.300   2.299
38184W        W 6589  30.004  10.114  12.029
38185W        W 6590  21.456  21.526   2.394
38186W        W 6591   9.694  39.793   3.263
38187W        W 6592  36.138  36.967  13.101
38188W        W 6593   8.864  23.010   1.663
38189W        W 6594  12.072   6.196  14.691
38190W        W 6595  29.149  26.201   2.028
38191W        W 6596  18.191  32.110   9.654
38192W        W 6597   0.976  36.286   3.785
38193W        W 6598  17.130  13.179  14.805
38194W        W 6599  37.427  31.989   1.787
38195W        W 6600  13.103  30.460   2.685
38196W        W 6601   9.340  13.889  11.209
38197W        W 6602  43.666   4.998  12.594
38198W        W 6603  34.131  15.364   0.135
38199W        W 6604  27.127  30.684  13.466
38200W        W 6605  25.768   4.885  14.837
38201W        W 6606  31.211  42.875   3.199
38202W        W 6607  43.319  18.728  13.524
38203W        W 6608   9.904  33.188  14.084
38204W        W 6609  16.364  31.666  14.518
38205W        W 6610  35.161   3.118  10.768
38206W        W 6611  36.584  15.227   2.252
38207W        W 6612  38.549   2.973  14.262
38208W        W 6613  21.288   2.859  11.222
38209W        W 6614   6.783  24.212  12.154
38210W        W 6615  12.985  23.263  11.243
38211W        W 6616   8.950  16.147  11.279
38212W        W 6617   5.691  25.451   4.607
38213W        W 6618  24.214  22.601  11.426
38214W        W 6619  16.531  21.658  14.682
38215W        W 6620  28.129   3.445   9.930
38216W        W 6621  37.126  22.565  12.202
38217W        W 6622   5.660  17.595   4.165
38218W        W 6623  15.806  34.014  11.293
38219W        W 6624  40.506  13.854  12.983
38220W        W 6625   9.206  35.110   0.953
38221W        W 6626  33.611  32.552   3.902
38222W        W 6627  27.458  20.079  12.819
38223W        W 6628  31.446  34.844   4.476
38224W        W 6629   7.108   4.764   4.594
38225W        W 6630  34.516  31.126  10.650
38226W        W 6631   2.242   7.442   1.879
38227W        W 6632  38.097  43.184  12.481
38228W        W 6633  12.478   4.222  14.873
38229W        W 6634  37.235  25.752   1.800
38230W        W 6635  43.337   7.689   2.775
38231W        W 6636  42.992   9.916  11.127
38232W        W 6637  30.953  43.372   1.478
38233W        W 6638  28.042  17.267  14.849
38234W        W 6639  20.803   4.749  13.489
38235W        W 6640  16.640  34.302  13.802
38236W        W 6641  10.530  41.549  13.450
38237W        W 6642  30.656  23.931  12.074
38238W        W 6643  18.017  30.531  10.703
38239W        W 6644   5.181  23.753  12.572
38240W        W 6645  44.965  12.379   3.278
38241W        W 6646   5.955  13.769   2.332
38242W        W 6647  42.873  14.887  12.521
38243W        W 6648  27.062  26.702   2.264
38244W        W 6649  20.020  16.648   4.791
38245W        W 6650  21.609  20.789  13.929
38246W        W 6651  33.304  29.258  12.757
38247W        W 6652  10.249  13.370  11.929
38248W        W 6653  11.286  17.225  11.515
38249W        W 6654  33.322  19.835   0.590
38250W        W 6655  27.100   0.568  13.904
38251W        W 6656  22.259  37.970   2.834
38252W        W 6657   8.295   4.324   4.158
38253W        W 6658   6.856   1.332  11.251
38254W        W 6659  36.890  18.606  10.686
38255W        W 6660  14.339  39.133   2.731
38256W        W 6661  43.901  40.281  13.903
38257W        W 6662  26.711   1.741   4.296
38258W        W 6663  44.800   3.190  11.015
38259W        W 6664  21.036   9.813   1.761
38260W        W 6665  35.347  42.063  11.241
38261W        W 6666  42.947  15.783  10.704
38262W        W 6667  39.942  23.280  13.387
38263W        W 6668  16.609  26.161   3.703
38264W        W 6669  44.893   7.465  11.185
38265W        W 6670  34.078  39.221   0.200
38266W        W 6671  44.884   1.993  11.648
38267W        W 6672  38.645  33.953  11.911
38268W        W 6673   4.183   0.013  13.102
38269W        W 6674  40.386  35.565  10.656
38270W        W 6675   5.716  36.340  10.968
38271W        W 6676  41.044  38.389  13.474
38272W        W 6677  34.824  12.595  13.987
38273W        W 6678  38.930  34.391   0.914
38274W        W 6679  16.153  13.970   4.606
38275W        W 6680  30.742  14.589  12.514
38276W        W 6681   0.297  20.627   1.847
38277W        W 6682  23.126  21.768  12.811
38278W        W 6683   1.860  42.370  13.036
38279W        W 6684  18.268  38.031   0.379
38280W        W 6685  12.010  19.026  12.998
38281W        W 6686   4.468  40.930   2.737
38282W        W 6687  27.583  34.177  11.225
38283W        W 6688   3.634  41.452   5.074
38284W        W 6689  20.149  27.463   1.246
38285W        W 6690  30.612   3.076  12.892
38286W        W 6691  29.902  35.948   3.805
38287W        W 6692   2.042  22.769   2.149
38288W        W 6693  14.153  31.673  14.963
38289W        W 6694  22.698  29.561   0.064
38290W        W 6695   0.840  22.607   3.159
38291W        W 6696   1.724  24.257   4.228
38292W        W 6697  18.182  29.434  10.673
38293W        W 6698  30.917  29.633  13.920
38294W        W 6699  20.589   0.812  10.626
38295W        W 6700  42.903  19.999  12.978
38296W        W 6701  37.145  36.518   0.823
38297W        W 6702  32.459  39.995   2.666
38298W        W 6703  30.062   9.733   3.782
38299W        W 6704  21.343  32.790   0.011
38300W        W 6705  41.589  42.141  14.366
38301W        W 6706  20.176   1.128  10.662
38302W        W 6707  15.898  16.793   0.385
38303W        W 6708  36.485   3.752  13.423
38304W        W 6709  34.475   1.298   1.360
38305W        W 6710  15.040  39.916  14.674
38306W        W 6711  17.572  28.558  14.425
38307W        W 6712  16.572  16.725  12.491
38308W        W 6713   3.347   4.353  13.856
38309W        W 6714  17.238  42.442   4.748
38310W        W 6715  34.860  37.893  14.017
38311W        W 6716  15.669  19.671  11.616
38312W        W 6717  28.464  43.853   0.854
38313W        W 6718  42.517  16.555  12.954
38314W        W 6719   1.526  38.198  14.438
38315W        W 6720  31.063  11.132   4.221
38316W        W 6721   8.152  43.247  13.913
38317W        W 6722  34.272  32.582  11.467
38318W        W 6723  38.447  30.211  12.036
38319W        W 6724  17.076  23.503  11.928
38320W        W 6725  22.980  24.688   2.255
38321W        W 6726  37.522   5.743   1.325
38322W        W 6727  14.606   9.714  11.185
38323W        W 6728   4.228   2.759   0.564
38324W        W 6729  27.987   4.501  12.526
38325W        W 6730  21.888  15.158   3.580
38326W        W 6731   2.780  16.369  11.196
38327W        W 6732   0.795  24.416   3.152
38328W        W 6733   3.334   8.317   1.897
38329W        W 6734  44.858  15.391   0.934
38330W        W 6735  23.046  36.385   2.986
38331W        W 6736  10.742   7.669   1.879
38332W        W 6737  15.639  37.858   2.386
38333W        W 6738  18.588  39.982  10.791
38334W        W 6739  23.549   0.464   0.774
38335W        W 6740   0.421   2.398  14.056
38336W        W 6741  36.019  41.507   2.195
38337W        W 6742   3.532  20.932  12.405
38338W        W 6743  12.816  21.321   4.699
38339W        W 6744   6.417  11.548  13.631
38340W        W 6745  32.965  16.026   0.038
38341W        W 6746  10.358  32.576  10.916
38342W        W 6747   7.066  38.713  13.910
38343W        W 6748  35.348  30.592   2.264
38344W        W 6749  25.928  26.985   1.708
38345W        W 6750  29.053   8.980   3.709
38346W        W 6751   2.770  20.423  14.535
38347W        W 6752  36.620  21.649  11.292
38348W        W 6753  22.461  30.382   2.478
38349W        W 6754  20.876  42.495  13.681
38350W        W 6755  35.956   0.023  14.993
38351W        W 6756  34.800  41.780   3.587
38352W        W 6757  34.641  21.520  12.522
38353W        W 6758  36.812  17.762   3.936
38354W        W 6759  42.497  29.652   3.797
38355W        W 6760   5.963  43.950  13.197
38356W        W 6761  13.722  20.826   4.738
38357W        W 6762  44.540   0.112  13.512
38358W        W 6763   2.962  44.216   3.772
38359W        W 6764   2.924  40.261   0.876
38360W        W 6765  12.355  43.572   3.380
38361W        W 6766  18.570  18.740  13.887
38362W        W 6767   5.856  32.590   4.194
38363W        W 6768  16.413  36.414  12.063
38364W        W 6769   3.701  18.312  13.871
38365W        W 6770   1.485  14.515   2.322
38366W        W 6771  35.420  31.589   5.021
38367W        W 6772  42.125  31.165  11.173
38368W        W 6773  40.751  18.165  12.443
38369W        W 6774  15.826  36.269   2.241
38370W        W 6775  29.015   5.693  10.960
38371W        W 6776  14.285   2.179  13.771
38372W        W 6777  36.358  17.189  11.086
38373W        W 6778  39.967  22.691  10.439
38374W        W 6779  38.800  42.924  13.928
38375W        W 6780  26.547  37.875  13.211
38376W        W 6781   0.641  10.855  11.239
38377W        W 6782  36.598   3.282   0.377
38378W        W 6783  34.101   0.076   4.402
38379W        W 6784  41.443  13.058   0.808
38380W        W 6785  15.700   5.650   2.599
38381W        W 6786  10.571  34.612   0.845
38382W        W 6787  30.750  13.069   1.756
38383W        W 6788   0.323  21.277  12.229
38384W        W 6789  42.098   8.324  10.814
38385W        W 6790  32.585  19.629   1.385
38386W        W 6791  24.686  22.562  10.523
38387W        W 6792  19.659  13.726  11.477
38388W        W 6793  21.512   5.070  12.896
38389W        W 6794   0.917  38.173   3.764
38390W        W 6795  13.337  20.550  10.663
38391W        W 6796  23.181  39.950  11.963
38392W        W 6797  14.531  16.104  14.408
38393W        W 6798   4.876  20.300   0.955
38394W        W 6799  34.359   3.789   3.238
38395W        W 6800  38.655  13.174   3.195
38396W        W 6801  23.512  33.891  11.700
38397W        W 6802  39.926   7.933  13.508
38398W        W 6803  23.142  40.487  14.546
38399W        W 6804  14.656  14.527   0.492
38400W        W 6805  44.861  19.235   3.132
38401W        W 6806   8.753  30.347  11.664
38402W        W 6807   8.385  27.376  14.063
38403W        W 6808  14.842  30.424   3.550
38404W        W 6809  30.226  30.636  13.717
38405W        W 6810  30.561  34.552  13.867
38406W        W 6811  26.883  26.587  11.623
38407W        W 6812   2.982  15.053   4.615
38408W        W 6813   1.724   2.925   4.649
38409W        W 6814  32.525  39.012  12.983
38410W        W 6815   2.724  19.609   1.251
38411W        W 6816  41.241   1.979   4.191
38412W        W 6817  44.109  19.214   2.368
38413W        W 6818  38.470  32.797  14.498
38414W        W 6819   0.781  28.155   1.836
38415W        W 6820   5.407  27.682  13.969
38416W        W 6821  34.173  32.705   2.305
38417W        W 6822  24.522  44.177  13.341
38418W        W 6823  16.529  14.554  12.506
38419W        W 6824  40.396  38.301  11.161
38420W        W 6825   7.625  16.329  12.182
38421W        W 6826  30.531  12.062   4.714
38422W        W 6827   1.628   5.111   4.238
38423W        W 6828   9.250   1.397  13.474
38424W        W 6829   3.514  13.052  11.560
38425W        W 6830  20.044   2.007   0.256
38426W        W 6831  15.353  17.969   1.843
38427W        W 6832  17.204  40.765  14.440
38428W        W 6833  41.560  15.245  12.891
38429W        W 6834  32.672  16.855  11.585
38430W        W 6835  39.924  28.029  11.699
38431W        W 6836   8.868   9.132   3.753
38432W        W 6837  26.461  11.366   2.329
38433W        W 6838  15.385  13.398  12.669
38434W        W 6839  23.265   6.380  12.071
38435W        W 6840  21.241  36.667   3.194
38436W        W 6841  17.315  20.680   3.390
38437W        W 6842  22.272  21.091  12.379
38438W        W 6843  28.587  32.685   4.895
38439W        W 6844   6.841  33.453   3.210
38440W        W 6845  15.077  15.859   4.257
38441W        W 6846   4.908   5.488  10.171
38442W        W 6847  24.753  34.400   0.391
38443W        W 6848  23.619  19.657  13.639
38444W        W 6849  13.780  18.328  12.901
38445W        W 6850  16.492  30.741  10.749
38446W        W 6851  34.052  17.875   3.779
38447W        W 6852  17.027  16.425   2.288
38448W        W 6853   9.026  15.194   4.986
38449W        W 6854  15.109  25.088  11.721
38450W        W 6855   3.899  32.904   3.565
38451W        W 6856  29.046  42.542  13.527
38452W        W 6857   8.747  17.289  11.144
38453W        W 6858  31.346   0.373  10.592
38454W        W 6859  19.501  12.111   4.747
38455W        W 6860   6.884  36.170   3.445
38456W        W 6861  15.792  13.817   2.267
38457W        W 6862  11.164  38.136   2.777
38458W        W 6863  27.214  21.721   2.723
38459W        W 6864   8.320   4.237   1.158
38460W        W 6865  23.314   4.027  14.909
38461W        W 6866   4.667  17.158  11.910
38462W        W 6867   4.290  43.222   4.767
38463W        W 6868   2.250  28.158   0.897
38464W        W 6869  17.694   9.347   4.926
38465W        W 6870  34.651  22.436   3.212
38466W        W 6871   6.382  11.422  14.743
38467W        W 6872  16.286  42.337  13.319
38468W        W 6873   8.833  18.200   9.842
38469W        W 6874  34.673   3.364  12.474
38470W        W 6875  22.251  21.445   3.447
38471W        W 6876  17.283   9.327  11.089
38472W        W 6877  27.883  35.582  11.072
38473W        W 6878  43.059  22.590   4.968
38474W        W 6879  24.976  10.803   2.711
38475W        W 6880  35.545  43.852  10.909
38476W        W 6881  26.059   1.499   4.102
38477W        W 6882  29.694  21.615   2.654
38478W        W 6883  18.539  15.136   3.746
38479W        W 6884  41.716  33.614   3.640
38480W        W 6885  31.473  11.953   1.401
38481W        W 6886  10.730  29.599   2.786
38482W        W 6887  19.323  10.629   3.389
38483W        W 6888  35.867  20.146   0.268
38484W        W 6889  38.173  32.108   5.147
38485W        W 6890  21.310  13.956   3.238
38486W        W 6891  32.150   2.155   4.713
38487W        W 6892  24.427  16.743   0.931
38488W        W 6893   2.181  13.198  14.354
38489W        W 6894  37.705   8.339  11.184
38490W        W 6895   2.697  37.915  14.030
38491W        W 6896  37.566  33.725   3.691
38492W        W 6897  28.642  44.389   1.734
38493W        W 6898   0.311  34.668  14.833
38494W        W 6899  38.037  16.377  10.665
38495W        W 6900  20.961  39.594   0.817
38496W        W 6901  37.485  32.904   1.648
38497W        W 6902  32.507  21.194   3.327
38498W        W 6903  42.805  21.927   1.609
38499W        W 6904  16.649  20.630   2.478
38500W        W 6905  16.271  36.291  14.005
38501W        W 6906  31.959  33.145   0.334
38502W        W 6907  12.415  24.059  10.532
38503W        W 6908  13.159  35.126  14.984
38504W        W 6909  14.673   8.985  10.104
38505W        W 6910  12.667  38.276  13.897
38506W        W 6911  10.888   2.911   4.059
38507W        W 6912  21.623   5.871  14.438
38508W        W 6913  11.303  15.288   2.791
38509W        W 6914  41.587   6.406  13.531
38510W        W 6915  25.971  29.423   4.326
38511W        W 6916   6.651  18.073  14.100
38512W        W 6917  35.042  21.218   1.735
38513W        W 6918  19.842  40.926   0.220
38514W        W 6919  44.874  19.576  13.972
38515W        W 6920  32.807  42.097   1.021
38516W        W 6921  29.255  22.137   3.168
38517W        W 6922  15.354  39.938  13.694
38518W        W 6923  34.612   8.450   0.779
38519W        W 6924  42.101  25.173   0.850
38520W        W 6925  11.071  10.769  11.644
38521W        W 6926  14.392  32.616  14.907
38522W        W 6927  38.314   0.043   2.761
38523W        W 6928  21.507  37.322   2.152
38524W        W 6929   8.507  28.984   0.819
38525W        W 6930  16.588  42.114  14.671
38526W        W 6931  13.544  25.530  13.303
38527W        W 6932  10.704  28.708  11.561
38528W        W 6933  23.475  32.097   4.217
38529W        W 6934   0.100   6.001  10.681
38530W        W 6935  26.451  25.143   0.283
38531W        W 6936  10.605   8.680  13.993
38532W        W 6937   1.212  43.610  14.876
38533W        W 6938  25.218  22.104   4.534
38534W        W 6939  34.949   0.967   2.614
38535W        W 6940  43.821  33.643   4.670
38536W        W 6941  38.490  20.487   3.842
38537W        W 6942  17.305  12.303   1.594
38538W        W 6943  16.605  13.713   4.503
38539W        W 6944  35.913  31.545   4.827
38540W        W 6945  30.924  12.853  14.569
38541W        W 6946  22.735  17.173  10.104
38542W        W 6947  28.097   5.179  11.867
38543W        W 6948  44.435  43.098   5.003
38544W        W 6949  14.671  38.413   3.207
38545W        W 6950  27.103  16.846   0.043
38546W        W 6951  40.506  11.466  11.497
38547W        W 6952  29.444  42.938   0.733
38548W        W 6953  20.970  16.567  14.936
38549W        W 6954  24.949  33.138  11.772
38550W        W 6955  39.702   2.467   1.857
38551W        W 6956   0.970  16.438   0.598
38552W        W 6957   7.381  19.720   1.707
38553W        W 6958   2.858  34.416  14.975
38554W        W 6959  28.070  16.623   2.616
38555W        W 6960   1.508  39.048  11.210
38556W        W 6961  23.770  44.302   1.504
38557W        W 6962  13.432  38.857  13.884
38558W        W 6963   7.894   3.992   0.898
38559W        W 6964  32.568  14.182  11.833
38560W        W 6965  37.589   6.851  11.931
38561W        W 6966  11.961   6.066  12.460
38562W        W 6967  36.802  14.635  10.739
38563W        W 6968  33.218   0.406  14.455
38564W        W 6969   9.294  41.382   3.631
38565W        W 6970  27.136   6.444  13.574
38566W        W 6971  31.481  21.038  14.087
38567W        W 6972   0.911  36.818  11.989
38568W        W 6973  30.638  22.142   2.807
38569W        W 6974  27.454  43.502   2.824
38570W        W 6975   8.143  40.545   2.186
38571W        W 6976   9.391   5.727  11.417
38572W        W 6977  32.488   4.034  12.081
38573W        W 6978  25.042  35.885   3.140
38574W        W 6979  29.195   0.611  14.042
38575W        W 6980  11.815   1.847  14.598
38576W        W 6981  23.165  39.006  12.933
38577W        W 6982  11.894  26.235  12.881
38578W        W 6983   0.244   9.212  12.886
38579W        W 6984  20.930  12.319   3.678
38580W        W 6985   7.209  10.934   1.186
38581W        W 6986  18.088  36.211  14.866
38582W        W 6987  11.681  12.986  12.907
38583W        W 6988   3.226  26.979  10.330
38584W        W 6989  37.830  41.574  10.686
38585W        W 6990   9.809  22.561  11.875
38586W        W 6991   0.400  30.969  14.034
38587W        W 6992  31.405   7.633   1.886
38588W        W 6993   3.477   1.818  13.816
38589W        W 6994   6.437  20.637   2.452
38590W        W 6995  12.338  28.195   2.412
38591W        W 6996  16.861  42.996  13.053
38592W        W 6997  13.313  29.937  14.418
38593W        W 6998  30.605  31.482   3.795
38594W        W 6999  35.290  44.530  12.888
38595W        W 7000   6.591  22.174  14.994
38596W        W 7001  28.963  15.064  11.234
38597W        W 7002  31.448  30.498  13.598
38598W        W 7003  26.869  32.681  12.901
38599W        W 7004  35.500  33.845  12.083
38600W        W 7005  14.572   9.377   4.239
38601W        W 7006  42.014  34.421  12.934
38602W        W 7007  33.617  39.574   3.836
38603W        W 7008  23.997  44.769   1.411
38604W        W 7009  36.549  35.437  14.560
38605W        W 7010  41.024   5.609  12.599
38606W        W 7011  13.854  27.195  12.977
38607W        W 7012   9.346   9.785   3.614
38608W        W 7013  19.703   8.073   3.684
38609W        W 7014  17.517  33.945  12.448
38610W        W 7015  40.527  10.253   1.153
38611W        W 7016  34.400   7.301   0.427
38612W        W 7017  14.720  26.456   5.135
38613W        W 7018   5.103  11.664   3.634
38614W        W 7019   7.859  14.149   4.159
38615W        W 7020   4.809   2.410  12.927
38616W        W 7021  19.608  43.034  14.911
38617W        W 7022  28.436  27.212   4.271
38618W        W 7023  19.621  13.920  14.488
38619W        W 7024  16.229  38.648  11.074
38620W        W 7025  26.144  34.599   3.169
38621W        W 7026  18.689  17.229  12.071
38622W        W 7027   9.697   0.019   4.187
38623W        W 7028  22.436   8.015   2.473
38624W        W 7029  13.298   3.272   1.825
38625W        W 7030  26.510  22.516  10.614
38626W        W 7031  32.526  43.015   4.633
38627W        W 7032  31.132  39.580  14.520
38628W        W 7033   2.679  33.931  14.296
38629W        W 7034  11.169  21.136  10.683
38630W        W 7035   9.638  14.133   3.855
38631W        W 7036  41.999   2.727   1.524
38632W        W 7037  16.609  30.531  14.003
38633W        W 7038   1.212  12.584  13.492
38634W        W 7039  11.199  24.476  12.056
38635W        W 7040  13.281  29.899   3.429
38636W        W 7041  13.177  32.359  11.175
38637W        W 7042  22.284  15.268   1.129
38638W        W 7043  39.544  20.647  10.779
38639W        W 7044  28.510  20.724  14.015
38640W        W 7045  28.901  13.658  13.453
38641W        W 7046  16.203  34.809   5.418
38642W        W 7047  40.922  29.163   2.864
38643W        W 7048  39.416  41.812  14.744
38644W        W 7049  35.328  40.043   2.829
38645W        W 7050  19.158   6.937   4.762
38646W        W 7051  20.203  23.074  11.952
38647W        W 7052  36.978  13.372   3.274
38648W        W 7053  27.715  42.340  12.112
38649W        W 7054  32.551  19.323  13.958
38650W        W 7055  24.243   1.418  14.591
38651W        W 7056  40.482  42.368   1.019
38652W        W 7057  12.766  27.514   2.161
38653W        W 7058  38.318  36.905  12.078
38654W        W 7059  25.111  38.846   2.573
38655W        W 7060  39.280  24.017   4.754
38656W        W 7061  24.475  15.116  13.869
38657W        W 7062  41.026   7.371   3.875
38658W        W 7063   6.191  16.743   3.305
38659W        W 7064  25.524   9.873   0.024
38660W        W 7065  43.996  18.818   3.116
38661W        W 7066  19.670  37.282   3.860
38662W        W 7067  14.294  22.877  12.429
38663W        W 7068  29.377  21.529  14.909
38664W        W 7069  11.270   8.095  14.815
38665W        W 7070  34.363  40.274  11.056
38666W        W 7071  33.914   6.938   3.758
38667W        W 7072  31.996   0.011   1.897
38668W        W 7073  44.002   4.765  12.222
38669W        W 7074  32.866   1.984   3.205
38670W        W 7075  15.097  21.114  14.804
38671W        W 7076  16.863  24.409   0.729
38672W        W 7077   8.595  15.343  10.419
38673W        W 7078  21.958   5.213  10.665
38674W        W 7079  40.333  21.946  10.802
38675W        W 7080  25.582  35.590   4.561
38676W        W 7081  10.104  31.548  14.931
38677W        W 7082  13.271  22.259  14.922
38678W        W 7083  39.513   4.459  12.961
38679W        W 7084  29.129  44.762   3.270
38680W        W 7085  24.136  10.614   1.342
38681W        W 7086  26.429  29.107  11.915
38682W        W 7087  37.821  31.840  11.225
38683W        W 7088  39.162  43.522  10.508
38684W        W 7089  41.128  30.454  14.242
38685W        W 7090   6.046  14.812  11.091
38686W        W 7091  22.051  27.486   1.924
38687W        W 7092  40.520  32.941  11.445
38688W        W 7093  20.167   5.661  10.974
38689W        W 7094  32.144  29.033   2.343
38690W        W 7095  35.325  37.350   3.742
38691W        W 7096  13.326  20.559  12.806
38692W        W 7097   9.308  18.205   9.663
38693W        W 7098   5.485  26.884  11.623
38694W        W 7099  36.002  39.615  11.952
38695W        W 7100  36.173  28.645   1.289
38696W        W 7101   4.825  25.119  13.729
38697W        W 7102  38.631  14.713   2.892
38698W        W 7103  33.833  25.162   2.106
38699W        W 7104  26.067  10.661  13.478
38700W        W 7105  37.943  42.077   2.765
38701W        W 7106  42.285   6.861   2.366
38702W        W 7107   5.073  27.902   5.204
38703W        W 7108  14.161  27.623  14.843
38704W        W 7109  37.932   6.860   1.648
38705W        W 7110  15.312  10.812  11.119
38706W        W 7111  12.799  21.023  11.578
38707W        W 7112  10.406  14.379  13.097
38708W        W 7113  40.386  36.676   2.657
38709W        W 7114   3.403   8.473  11.975
38710W        W 7115  41.611   5.978   1.189
38711W        W 7116  16.568  29.010   2.828
38712W        W 7117  26.303  43.459  11.574
38713W        W 7118   1.607  17.797  12.137
38714W        W 7119   1.694  13.969   3.677
38715W        W 7120  29.399  26.686   0.916
38716W        W 7121  42.405  36.987  14.078
38717W        W 7122  40.318   4.684  13.508
38718W        W 7123   9.698  43.048  14.641
38719W        W 7124  25.994  18.602   4.685
38720W        W 7125  39.911  11.325   0.682
38721W        W 7126   9.348  21.283  12.595
38722W        W 7127  26.051  44.674  11.157
38723W        W 7128   0.689   9.406  10.088
38724W        W 7129  16.746  19.040   0.614
38725W        W 7130   4.949   4.273   2.318
38726W        W 7131  10.694   6.660   2.329
38727W        W 7132  12.854  13.648   1.283
38728W        W 7133  16.458  26.342  13.582
38729W        W 7134   1.515  35.545   3.876
38730W        W 7135  39.627  35.836  11.115
38731W        W 7136   3.695  21.206   1.274
38732W        W 7137  25.277  10.230   0.969
38733W        W 7138  37.443  26.753   1.684
38734W        W 7139  37.788  11.890  11.310
38735W        W 7140  43.406  29.519   2.382
38736W        W 7141   8.875  35.086  11.205
38737W        W 7142  31.060  15.127   1.775
38738W        W 7143  30.552  10.834  10.905
38739W        W 7144  13.638  31.669  10.195
38740W        W 7145  33.492  12.372   0.953
38741W        W 7146  19.445  35.937  11.569
38742W        W 7147  43.372  42.510  14.479
38743W        W 7148  27.351  32.551  10.598
38744W        W 7149  19.596  44.584   2.193
38745W        W 7150  21.148  38.344   4.977
38746W        W 7151  38.609  13.456   0.981
38747W        W 7152  19.108  18.850   3.363
38748W        W 7153  25.188   0.939   4.898
38749W        W 7154   1.986  42.870   3.830
38750W        W 7155  14.850  35.653   4.647
38751W        W 7156   1.017   8.697  12.844
38752W        W 7157   1.381  21.801  13.091
38753W        W 7158  28.450  27.886  13.849
38754W        W 7159  22.954  18.310   1.820
38755W        W 7160  28.670   4.772   0.205
38756W        W 7161  23.082  14.796  10.850
38757W        W 7162  37.117  40.415   1.155
38758W        W 7163   9.788  13.659  11.050
38759W        W 7164   5.288  11.126   4.819
38760W        W 7165  28.471   6.866  13.409
38761W        W 7166  25.957  19.154  11.034
38762W        W 7167  10.372  30.906  13.962
38763W        W 7168  19.961  12.613  14.823
38764W        W 7169  11.822  41.053  11.183
38765W        W 7170   3.486   1.911   1.729
38766W        W 7171   6.678  20.788   1.470
38767W        W 7172   0.934  41.924  10.654
38768W        W 7173   3.344   6.597   4.350
38769W        W 7174  25.751  35.615  12.024
38770W        W 7175  26.137   2.308  10.888
38771W        W 7176  17.283  18.061   4.209
38772W        W 7177  31.133  24.267   3.372
38773W        W 7178  41.410   7.393   2.252
38774W        W 7179   2.875   4.185   2.835
38775W        W 7180  39.883  31.028  10.628
38776W        W 7181  38.871  20.992  14.939
38777W        W 7182   4.528  12.488   3.692
38778W        W 7183  21.245   9.651  11.113
38779W        W 7184  31.627   1.256  11.289
38780W        W 7185  25.918  16.787  13.495
38781W        W 7186  37.085   7.695   0.059
38782W        W 7187  25.349  10.332  14.047
38783W        W 7188   4.732  40.946   2.243
38784W        W 7189  36.872  10.685  10.780
38785W        W 7190  20.687   9.132  11.634
38786W        W 7191  41.967  13.219  11.405
38787W        W 7192  20.548  15.244   2.546
38788W        W 7193   9.311  21.845  11.726
38789W        W 7194  29.389  28.103  13.375
38790W        W 7195  33.904   8.715  12.589
38791W        W 7196  18.306  21.598  13.450
38792W        W 7197  11.719   5.856  14.390
38793W        W 7198  31.181  23.068  10.447
38794W        W 7199  25.938  26.227  12.442
38795W        W 7200  27.690   8.883   3.713
38796W        W 7201  31.428  22.534  12.480
38797W        W 7202  34.486   7.708   1.909
38798W        W 7203  14.556  39.947  14.838
38799W        W 7204  44.590  25.437   4.253
38800W        W 7205  26.576  36.845  11.529
38801W        W 7206   1.947  16.217  13.851
38802W        W 7207  28.742   1.796  10.782
38803W        W 7208  11.288  10.655   2.805
38804W        W 7209  32.848   2.148  12.290
38805W        W 7210  31.538  36.414   1.773
38806W        W 7211  15.108  39.366   3.298
38807W        W 7212  39.966  41.362  12.081
38808W        W 7213  37.073  25.124  11.217
38809W        W 7214  33.405  13.807  10.488
38810W        W 7215   4.801  28.553   1.839
38811W        W 7216  20.691  40.423  14.920
38812W        W 7217  43.907  22.610   0.511
38813W        W 7218  37.774  41.831   3.213
38814W        W 7219  44.030   5.952   0.378
38815W        W 7220  19.723  12.673  11.183
38816W        W 7221  40.707  12.576   0.468
38817W        W 7222  36.441  19.655   5.031
38818W        W 7223   9.358  37.792  11.999
38819W        W 7224  11.927   9.569  13.973
38820W        W 7225  38.404  30.145  13.602
38821W        W 7226   5.372  17.815   1.241
38822W        W 7227  39.555  41.363  12.405
38823W        W 7228   7.669  27.662  10.633
38824W        W 7229  43.510   1.412  11.645
38825W        W 7230  23.031  18.057   0.573
38826W        W 7231  14.857  38.965  14.377
38827W        W 7232  23.793  12.069   3.233
38828W        W 7233  38.067  33.621  12.072
38829W        W 7234  24.463  21.590  12.940
38830W        W 7235   1.573  44.020  13.032
38831W        W 7236  42.535  27.186   0.379
38832W        W 7237  15.250  41.820  14.575
38833W        W 7238  23.001  34.607   0.834
38834W        W 7239   7.255  18.717   3.707
38835W        W 7240  22.504  28.504   2.733
38836W        W 7241  10.732   6.687  13.418
38837W        W 7242   5.914  28.227   3.670
38838W        W 7243  29.359  37.515   1.841
38839W        W 7244  21.517  24.170  12.151
38840W        W 7245  23.048  21.836   2.311
38841W        W 7246  37.751   0.807  12.466
38842W        W 7247  15.834  41.042  11.713
38843W        W 7248  19.277  10.874   0.216
38844W        W 7249  12.259   5.917   2.230
38845W        W 7250  28.583  20.304   3.553
38846W        W 7251  10.402  14.773  14.376
38847W        W 7252   3.213  14.333  13.658
38848W        W 7253  41.819  42.536  13.449
38849W        W 7254  17.351  42.105  13.511
38850W        W 7255  37.309   9.332   3.716
38851W        W 7256  26.075  38.528   4.902
38852W        W 7257  43.369  10.895  14.306
38853W        W 7258  10.140  23.992   3.823
38854W        W 7259  19.773  16.787   4.217
38855W        W 7260  32.134   9.803   3.758
38856W        W 7261  44.460  24.679   0.799
38857W        W 7262  26.029  41.324   3.306
38858W        W 7263  15.624  44.845   4.145
38859W        W 7264   9.546  35.044  14.002
38860W        W 7265  29.639   1.828   1.755
38861W        W 7266  42.707  14.083   2.733
38862W        W 7267  35.050   3.967  14.934
38863W        W 7268   8.919  12.720   1.678
38864W        W 7269  37.075  30.553   1.677
38865W        W 7270  10.822  36.377  14.801
38866W        W 7271  14.784   3.459  13.835
38867W        W 7272   8.108   1.410   1.235
38868W        W 7273  36.987  39.624  13.368
38869W        W 7274   2.970   4.469   3.668
38870W        W 7275  23.355  23.927   0.789
38871W        W 7276  17.231  38.111  13.928
38872W        W 7277   4.027  24.170   3.357
38873W        W 7278   3.945  38.564   0.817
38874W        W 7279   8.787  19.556  13.578
38875W        W 7280  26.495   9.812  14.902
38876W        W 7281  13.475   2.440   3.173
38877W        W 7282  23.517   2.894  14.492
38878W        W 7283  42.727  24.356  13.416
38879W        W 7284  41.508   4.803  14.101
38880W        W 7285   6.878  16.320  14.996
38881W        W 7286  34.035  34.180   4.642
38882W        W 7287  25.630   9.868  13.337
38883W        W 7288  17.595   7.618   3.995
38884W        W 7289  35.753  34.916  12.377
38885W        W 7290  36.476   8.853  11.665
38886W        W 7291  42.598   8.376  11.503
38887W        W 7292  19.564   3.405  11.271
38888W        W 7293   6.179  41.770   1.468
38889W        W 7294   5.339  18.611   2.402
38890W        W 7295  35.967  29.086  13.966
38891W        W 7296  31.964   9.232  10.667
38892W        W 7297  17.098   4.965  11.179
38893W        W 7298  36.367  41.285   1.854
38894W        W 7299  24.158   2.522  11.592
38895W        W 7300  28.690  29.329  14.993
38896W        W 7301  14.228  33.533   0.977
38897W        W 7302  30.375  14.880  12.759
38898W        W 7303  23.052  13.634  11.984
38899W        W 7304  30.916  41.407  14.482
38900W        W 7305  30.582  28.027   2.782
38901W        W 7306  42.911  30.659   4.590
38902W        W 7307   3.234  29.101   4.392
38903W        W 7308  32.416  36.547  12.059
38904W        W 7309  38.626  36.483  13.333
38905W        W 7310  12.135  30.517  10.603
38906W        W 7311  30.039   3.530  14.887
38907W        W 7312  21.827  14.891  14.859
38908W        W 7313  11.743  20.960  12.885
38909W        W 7314   4.761  18.139   1.770
38910W        W 7315  19.463  16.551  14.032
38911W        W 7316  30.689  31.588  14.944
38912W        W 7317  34.580  38.822   1.528
38913W        W 7318  17.312  27.129   1.244
38914W        W 7319  39.287   4.447   2.225
38915W        W 7320  42.176   2.948  14.486
38916W        W 7321  12.296  12.332   4.728
38917W        W 7322  38.250  15.229   1.068
38918W        W 7323  40.830   8.107  11.386
38919W        W 7324   3.227  22.049   3.639
38920W        W 7325  38.030  36.840  14.596
38921W        W 7326  22.690   0.022  10.590
38922W        W 7327  29.578  28.754  10.378
38923W        W 7328  15.940  31.186  10.069
38924W        W 7329  35.654  17.262  12.051
38925W        W 7330  12.800  25.690   1.056
38926W        W 7331  25.896  11.798  11.131
38927W        W 7332   6.910  25.793   0.700
38928W        W 7333  11.709  27.126  10.493
38929W        W 7334  15.761  42.051  11.556
38930W        W 7335   4.020  11.590   3.732
38931W        W 7336  41.997  16.573   3.201
38932W        W 7337  29.381  22.541   2.849
38933W        W 7338  15.066   9.327  14.884
38934W        W 7339   3.302  29.644  11.952
38935W        W 7340  38.987  16.294   4.184
38936W        W 7341   6.279  21.445  11.042
38937W        W 7342  42.213  43.427  14.387
38938W        W 7343  28.614  13.091  14.912
38939W        W 7344  26.476  42.992   2.438
38940W        W 7345   3.276   7.225  12.006
38941W        W 7346   8.296  39.363  14.633
38942W        W 7347  27.991   7.372   1.902
38943W        W 7348  21.841  44.230   0.276
38944W        W 7349  28.451   3.134   3.161
38945W        W 7350  22.574  24.455   1.409
38946W        W 7351  40.047   2.087   4.490
38947W        W 7352   8.196  44.106  11.184
38948W        W 7353  15.101  18.991   0.926
38949W        W 7354  35.408  33.094  12.614
38950W        W 7355  18.612  30.674  13.853
38951W        W 7356  31.475  16.266   3.128
38952W        W 7357  13.586  37.760   2.248
38953W        W 7358   0.463  29.938   1.610
38954W        W 7359   0.783  21.317  13.409
38955W        W 7360  31.896   3.564  14.030
38956W        W 7361  39.808  31.028   2.915
38957W        W 7362  11.716   9.673   2.896
38958W        W 7363   9.836  41.884   0.901
38959W        W 7364  28.087  38.440   0.831
38960W        W 7365  39.484  37.906   1.420
38961W        W 7366  44.962  42.863  10.735
38962W        W 7367  18.526  39.361   1.865
38963W        W 7368  15.312  19.736   0.410
38964W        W 7369  42.615  23.788   3.058
38965W        W 7370  43.135  11.754   0.337
38966W        W 7371   2.942  32.483  12.889
38967W        W 7372  38.465   6.793   1.500
38968W        W 7373  11.248  14.021   0.493
38969W        W 7374  34.031  18.649   3.080
38970W        W 7375  23.790   5.647  10.956
38971W        W 7376   2.227  12.472   3.774
38972W        W 7377  23.671  44.303   2.889
38973W        W 7378  31.620   3.722   0.275
38974W        W 7379  17.303  28.594  13.594
38975W        W 7380   0.851  33.117  11.937
38976W        W 7381  25.373  12.201   1.957
38977W        W 7382  42.964  42.391  11.970
38978W        W 7383  33.453  28.911   5.004
38979W        W 7384  17.031  38.566   3.394
38980W        W 7385  30.561  22.631  13.009
38981W        W 7386  21.275  12.598   2.965
38982W        W 7387   3.146  35.979  14.478
38983W        W 7388  19.022  11.310   0.285
38984W        W 7389  38.313  15.805  10.582
38985W        W 7390   4.802  36.336  11.054
38986W        W 7391  26.408  33.739  13.084
38987W        W 7392  36.446  11.145   4.280
38988W        W 7393  28.469  10.281   4.274
38989W        W 7394  37.171   8.915  11.135
38990W        W 7395  40.086  36.577  12.952
38991W        W 7396  37.340   1.461   4.450
38992W        W 7397  38.795  15.242  14.337
38993W        W 7398   9.958  27.483  11.335
38994W        W 7399  13.775  42.693  13.013
38995W        W 7400  11.669  42.919  14.768
38996W        W 7401   7.457  42.237   4.224
38997W        W 7402  34.000  13.634   4.567
38998W        W 7403  43.230  18.830   4.140
38999W        W 7404  17.904  25.218  10.153
39000W        W 7405  11.345  36.863   0.341
39001W        W 7406  21.271  31.129  14.410
39002W        W 7407  16.126  35.921   0.900
39003W        W 7408  19.094  30.732   4.553
39004W        W 7409  37.453  29.245  13.277
39005W        W 7410   2.045  42.292  12.540
39006W        W 7411  13.386  32.655   0.938
39007W        W 7412  24.545  13.574  12.082
39008W        W 7413  37.943  39.930  12.955
39009W        W 7414  35.066  36.059   2.413
39010W        W 7415   4.377  19.610   4.177
39011W        W 7416  32.643   0.932   4.178
39012W        W 7417  23.220  28.415   1.415
39013W        W 7418  40.517   2.089  11.531
39014W        W 7419  27.373  14.169  11.945
39015W        W 7420  41.484  26.550  11.286
39016W        W 7421  39.973  33.654   3.903
39017W        W 7422  26.575  31.345   3.445
39018W        W 7423   7.967   1.841   5.068
39019W        W 7424   0.300   5.653   2.650
39020W        W 7425  21.447   2.462   1.453
39021W        W 7426  35.847   7.337   0.046
39022W        W 7427  42.332  37.815  11.550
39023W        W 7428   2.245  27.389   0.341
39024W        W 7429  34.081  42.782  12.983
39025W        W 7430   1.490  10.794  12.881
39026W        W 7431  26.511   2.827  14.759
39027W        W 7432   0.532  18.651   4.565
39028W        W 7433  26.989  18.007   4.981
39029W        W 7434  43.931  33.685   3.767
39030W        W 7435  22.302   2.152   1.420
39031W        W 7436  39.979   6.762  14.759
39032W        W 7437  35.493   8.450   0.538
39033W        W 7438   8.889  12.619   2.885
39034W        W 7439  40.898  12.468   2.344
39035W        W 7440  25.704  10.584   3.771
39036W        W 7441  22.964   1.090   1.985
39037W        W 7442   1.223   0.431   1.873
39038W        W 7443   2.275  28.644   4.541
39039W        W 7444   9.296  33.754   2.778
39040W        W 7445   8.820   1.876   0.703
39041W        W 7446  32.557  10.181   1.267
39042W        W 7447  16.171  17.500  11.842
39043W        W 7448  26.589  15.279  14.477
39044W        W 7449  13.266  42.570  10.762
39045W        W 7450  31.738  20.054   0.317
39046W        W 7451   1.840  20.119   1.597
39047W        W 7452  11.111  16.187   4.792
39048W        W 7453  25.940  31.457  11.812
39049W        W 7454  38.725  40.608   5.115
39050W        W 7455  12.683   3.901   1.710
39051W        W 7456  33.418  28.705  14.524
39052W        W 7457   5.870  29.943   0.340
39053W        W 7458  38.103   4.614   9.648
39054W        W 7459  22.018  36.848  14.476
39055W        W 7460  32.353  34.019  13.428
39056W        W 7461   7.793   9.635  13.466
39057W        W 7462  34.157  12.338  12.100
39058W        W 7463  13.589  17.968  13.988
39059W        W 7464   2.460   3.864   1.678
39060W        W 7465  38.867  35.431  11.284
39061W        W 7466  36.733  26.119   2.709
39062W        W 7467  40.891  30.497   4.541
39063W        W 7468  26.932   9.083  13.035
39064W        W 7469  20.617   3.959   2.225
39065W        W 7470  33.086   4.720   0.061
39066W        W 7471  10.500  24.628   3.443
39067W        W 7472  40.219  43.966   2.224
39068W        W 7473  16.292  33.869   0.282
39069W        W 7474  28.922  41.881   1.151
39070W        W 7475   6.652  32.941  11.397
39071W        W 7476  30.065  41.248   1.291
39072W        W 7477  25.230  35.815  14.479
39073W        W 7478   0.193  26.703   2.816
39074W        W 7479  23.635  23.126   2.913
39075W        W 7480  38.741  28.200   2.694
39076W        W 7481  12.665  22.575   2.764
39077W        W 7482  37.228  44.920   0.395
39078W        W 7483  34.520  27.356   3.366
39079W        W 7484  28.979  37.145   1.777
39080W        W 7485  30.718  23.543  11.150
39081W        W 7486  24.595  19.100  10.764
39082W        W 7487  43.211  17.347   2.735
39083W        W 7488  25.062  14.067  11.602
39084W        W 7489  27.718  21.117  10.688
39085W        W 7490  21.273   3.457  13.896
39086W        W 7491  10.983   5.217  12.539
39087W        W 7492   5.997  13.834  11.940
39088W        W 7493  35.015  22.523  11.926
39089W        W 7494  39.039  34.007   2.798
39090W        W 7495  37.611  17.655  13.500
39091W        W 7496   9.876  24.624   3.408
39092W        W 7497  36.956  25.095  12.903
39093W        W 7498   4.056   1.775   4.669
39094W        W 7499  23.157  36.751   2.621
39095W        W 7500  16.750  20.606  13.651
39096W        W 7501  43.271  31.730  12.415
39097W        W 7502   1.730  43.349   0.979
39098W        W 7503  43.900  38.358  14.267
39099W        W 7504  31.985   9.785   3.230
39100W        W 7505  10.677  18.647   4.644
39101W        W 7506  37.102  24.604  12.800
39102W        W 7507  33.039   6.734   1.832
39103W        W 7508  39.070   2.696  10.164
39104W        W 7509  20.426  19.165  11.870
39105W        W 7510  10.774  25.635  12.013
39106W        W 7511  19.883   3.675   0.945
39107W        W 7512  16.552  34.954   0.831
39108W        W 7513   6.318  16.507  10.512
39109W        W 7514  41.713  44.979   3.063
39110W        W 7515  16.740   5.802  14.006
39111W        W 7516  25.015   7.725  13.305
39112W        W 7517  28.017  11.855  12.046
39113W        W 7518  27.184   0.054  12.197
39114W        W 7519   7.171   4.110  11.340
39115W        W 7520  41.097  37.874  14.888
39116W        W 7521  24.701  14.110  12.086
39117W        W 7522  25.133  15.070  13.200
39118W        W 7523  18.918  40.448  14.392
39119W        W 7524  30.179  29.032   1.709
39120W        W 7525  32.578  12.074  12.074
39121W        W 7526   5.952  15.021   4.043
39122W        W 7527  12.887  14.513  14.576
39123W        W 7528  20.272   0.071   4.313
39124W        W 7529  42.970  23.220  10.648
39125W        W 7530   5.341  23.953  14.302
39126W        W 7531  38.125  42.399  12.525
39127W        W 7532  36.548  33.366  13.032
39128W        W 7533  21.288  38.898  10.222
39129W        W 7534  17.670  32.421   3.786
39130W        W 7535  26.632  10.335  11.691
39131W        W 7536   9.453  18.676   3.227
39132W        W 7537  33.179  24.591   0.381
39133W        W 7538  37.598  36.635  10.486
39134W        W 7539  33.245  35.942   2.588
39135W        W 7540  28.185   8.862  13.279
39136W        W 7541   5.710  32.559  14.328
39137W        W 7542  22.094  31.617   3.159
39138W        W 7543  34.054  19.761   4.294
39139W        W 7544  13.376  26.433  10.371
39140W        W 7545   9.580   4.610  14.257
39141W        W 7546  41.260   2.268  10.843
39142W        W 7547   2.137   3.555   2.116
39143W        W 7548  17.443  38.786   0.362
39144W        W 7549  35.106  33.549   4.661
39145W        W 7550   7.146  26.105   4.389
39146W        W 7551   0.305   4.610  11.951
39147W        W 7552  27.134  38.880   3.593
39148W        W 7553  39.305  27.987   3.233
39149W        W 7554  26.583  20.309   2.337
39150W        W 7555  20.516  37.007   0.757
39151W        W 7556  14.737   1.973   1.467
39152W        W 7557  30.493  17.008   1.465
39153W        W 7558  44.926  25.619  14.419
39154W        W 7559  22.946  14.597  11.689
39155W        W 7560  28.610  15.286  13.355
39156W        W 7561  14.158  34.536  11.667
39157W        W 7562  30.452  22.633   2.172
39158W        W 7563  33.612  11.161  14.356
39159W        W 7564  10.653  32.639  14.470
39160W        W 7565  20.377  39.301   2.883
39161W        W 7566   6.041  42.182   3.337
39162W        W 7567  12.137  36.477   0.756
39163W        W 7568   9.694  30.389   4.238
39164W        W 7569  30.025   0.022   4.046
39165W        W 7570  32.557  44.804  11.483
39166W        W 7571   8.650   5.705  13.109
39167W        W 7572  18.281  39.257  11.112
39168W        W 7573   2.060  44.204  12.415
39169W        W 7574  16.866  12.024  10.911
39170W        W 7575  16.308  43.441  14.744
39171W        W 7576   6.306  18.838   5.007
39172W        W 7577  44.508  35.377   3.670
39173W        W 7578  42.820  31.644   0.192
39174W        W 7579  27.009  16.140  13.786
39175W        W 7580  20.303   8.292   2.208
39176W        W 7581  33.647  31.846   2.892
39177W        W 7582  11.858  38.291   0.042
39178W        W 7583  34.402  25.683  12.539
39179W        W 7584  18.174  38.136  13.319
39180W        W 7585   8.875  12.922  12.479
39181W        W 7586  18.114  23.068  12.116
39182W        W 7587  27.078  34.167  12.063
39183W        W 7588   3.014  21.872   4.082
39184W        W 7589  43.474   3.473  10.761
39185W        W 7590  20.763   3.703   1.126
39186W        W 7591  39.404  29.905   0.733
39187W        W 7592   7.539  38.952   2.720
39188W        W 7593  17.659  43.726  11.629
39189W        W 7594  36.612  21.572  10.780
39190W        W 7595  17.699  36.909  12.987
39191W        W 7596   3.375  27.914  12.377
39192W        W 7597  17.902  10.195   1.342
39193W        W 7598  10.242  40.448  14.390
39194W        W 7599  13.746  39.757   1.422
39195W        W 7600  39.892  42.456  13.143
39196W        W 7601  10.357  11.183  12.400
39197W        W 7602  34.524   9.783  11.855
39198W        W 7603  22.911  30.312   2.243
39199W        W 7604  29.575  33.940   0.372
39200W        W 7605  26.603  11.012  10.473
39201W        W 7606   5.699  15.021  12.488
39202W        W 7607  19.982  18.032  14.369
39203W        W 7608   2.460  16.135   3.313
39204W        W 7609  35.918   3.657  14.553
39205W        W 7610   0.696  10.266   4.435
39206W        W 7611  17.784  12.121   4.377
39207W        W 7612   5.212  34.400  13.920
39208W        W 7613  25.634  40.103   3.226
39209W        W 7614  12.610  35.979   3.838
39210W        W 7615  26.841  27.548   1.305
39211W        W 7616  13.211  19.690  14.042
39212W        W 7617  35.399  38.147  12.361
39213W        W 7618  17.174  42.725   2.348
39214W        W 7619   8.217  10.307  11.191
39215W        W 7620  44.081  34.202   3.849
39216W        W 7621   3.179  13.584  13.968
39217W        W 7622  11.835  42.109   3.293
39218W        W 7623   5.344  25.336   0.339
39219W        W 7624  42.723  27.305  13.941
39220W        W 7625  12.332  15.958  11.509
39221W        W 7626   7.325   9.176  11.596
39222W        W 7627  24.244  20.631  12.490
39223W        W 7628   1.609   4.775   0.298
39224W        W 7629  32.602   2.854  14.820
39225W        W 7630  39.035   1.527  11.555
39226W        W 7631   9.184   2.343   3.860
39227W        W 7632  34.013  37.747  14.888
39228W        W 7633   8.121  17.055  12.335
39229W        W 7634  14.177  17.747  11.949
39230W        W 7635   2.754   3.842   4.453
39231W        W 7636  11.123   2.048   4.951
39232W        W 7637   5.998  18.253  10.991
39233W        W 7638  20.937  25.928  10.041
39234W        W 7639  28.221  13.224  13.029
39235W        W 7640  42.840  35.570   0.330
39236W        W 7641   1.350  19.733  12.885
39237W        W 7642  18.626   3.510  13.747
39238W        W 7643  39.162  40.444   3.658
39239W        W 7644   3.003   6.858  10.311
39240W        W 7645  40.492   3.839  11.160
39241W        W 7646   2.754  36.371  12.881
39242W        W 7647   8.202   8.349   0.695
39243W        W 7648   9.349  14.200   0.570
39244W        W 7649  23.456  40.009   1.644
39245W        W 7650  31.103  16.539   3.388
39246W        W 7651  42.651  21.861  12.584
39247W        W 7652  39.950  38.867   4.386
39248W        W 7653  28.449  13.059   1.775
39249W        W 7654  18.222  24.797  13.290
39250W        W 7655  36.926   1.336   2.732
39251W        W 7656  14.818  26.600   1.482
39252W        W 7657  15.326   4.754   2.874
39253W        W 7658  34.915   9.613  10.711
39254W        W 7659   5.225  12.864  14.945
39255W        W 7660  11.617  44.464  14.995
39256W        W 7661  37.477  12.316  14.759
39257W        W 7662  21.480  43.825  12.144
39258W        W 7663  16.486  38.887  13.470
39259W        W 7664  28.608  18.617  13.597
39260W        W 7665  14.059  15.233  14.673
39261W        W 7666  26.489  32.065   4.134
39262W        W 7667  21.197   2.659   0.225
39263W        W 7668   5.606   8.146  11.551
39264W        W 7669  23.183  20.325   2.988
39265W        W 7670   6.903  28.446  12.920
39266W        W 7671  17.962  11.699  13.633
39267W        W 7672  44.547   6.870   1.786
39268W        W 7673  17.405  32.284   2.767
39269W        W 7674  41.870  42.415  11.163
39270W        W 7675  35.988  33.450   2.232
39271W        W 7676  44.252  13.213  10.748
39272W        W 7677  38.376  37.601  14.304
39273W        W 7678  13.373  24.535  13.209
39274W        W 7679  32.521  23.978  12.871
39275W        W 7680  25.700   4.117   3.124
39276W        W 7681   9.771  20.391   2.633
39277W        W 7682  31.739  33.560  13.174
39278W        W 7683  18.164  43.217  13.373
39279W        W 7684  17.225  42.988  13.792
39280W        W 7685  37.630  27.160   4.440
39281W        W 7686  10.419  33.050  10.691
39282W        W 7687  28.610  28.657   4.953
39283W        W 7688  13.626   4.940  13.731
39284W        W 7689  37.937  23.052  10.590
39285W        W 7690   9.426  10.344  13.185
39286W        W 7691  18.200  34.173   9.734
39287W        W 7692  34.586  28.615  11.853
39288W        W 7693  33.115  12.310  12.047
39289W        W 7694   8.431  24.479  14.357
39290W        W 7695  39.872   5.310  14.999
39291W        W 7696  20.509  21.070   0.418
39292W        W 7697   2.618  35.625  14.057
39293W        W 7698  40.361  29.532   4.191
39294W        W 7699  30.818  21.576  10.623
39295W        W 7700  15.714  29.639   0.311
39296W        W 7701   9.860  31.381   0.355
39297W        W 7702  10.386  22.144  13.384
39298W        W 7703  11.440  16.841  14.499
39299W        W 7704   2.848  24.012   4.902
39300W        W 7705  16.766  36.648  14.486
39301W        W 7706  26.097  18.828  12.606
39302W        W 7707   1.082  29.975  14.926
39303W        W 7708  31.600  33.936   0.284
39304W        W 7709  11.608  17.641   5.142
39305W        W 7710  34.072  34.407   2.134
39306W        W 7711   4.695  10.779  11.635
39307W        W 7712  20.047  18.112   2.195
39308W        W 7713  18.261  26.673  12.576
39309W        W 7714  27.201  18.006  12.182
39310W        W 7715  32.962  32.251  13.065
39311W        W 7716  34.448   7.478  13.296
39312W        W 7717  36.611  39.033  12.602
39313W        W 7718  20.138  10.313   2.830
39314W        W 7719  41.316  34.424  14.915
39315W        W 7720  36.380   4.755   3.090
39316W        W 7721  40.536  20.218  12.004
39317W        W 7722   2.323  33.112  12.557
39318W        W 7723  13.720  15.304  13.908
39319W        W 7724  43.367  22.559  13.567
39320W        W 7725   3.285  42.599  10.557
39321W        W 7726   6.592   3.751   2.340
39322W        W 7727   5.481  41.049  10.766
39323W        W 7728  24.929  30.858  14.318
39324W        W 7729  43.532  32.089  12.822
39325W        W 7730  22.922  36.521  14.392
39326W        W 7731  27.490  41.415  14.987
39327W        W 7732  17.776   8.846   5.069
39328W        W 7733  39.487  22.458   4.653
39329W        W 7734  28.822  44.350  10.738
39330W        W 7735  43.204  19.164  13.826
39331W        W 7736   3.996  15.514   1.890
39332W        W 7737   0.078  43.295   1.795
39333W        W 7738  40.430  32.451  14.927
39334W        W 7739  24.144  33.536  10.313
39335W        W 7740  11.490  13.336   1.682
39336W        W 7741  18.186  43.955  12.379
39337W        W 7742  11.717  19.949  12.113
39338W        W 7743  24.473  10.411   0.120
39339W        W 7744  19.843  14.342  10.807
39340W        W 7745   6.118  17.058  11.559
39341W        W 7746  38.452   7.455   2.883
39342W        W 7747  37.325  38.515   4.755
39343W        W 7748  20.223  19.417   3.811
39344W        W 7749   2.219  20.576  10.531
39345W        W 7750  27.973   4.315   2.105
39346W        W 7751   0.290  33.556   1.007
39347W        W 7752  40.083  16.660  13.121
39348W        W 7753   2.726  34.591  12.039
39349W        W 7754  36.441  42.280  13.429
39350W        W 7755   8.911   8.141   2.741
39351W        W 7756  29.724   0.702   3.770
39352W        W 7757  10.644  19.565  11.190
39353W        W 7758  32.887   0.777   3.752
39354W        W 7759   6.270  20.598  12.072
39355W        W 7760  42.111   7.800   4.522
39356W        W 7761   7.204  20.215   1.732
39357W        W 7762   2.958  15.150  11.778
39358W        W 7763  34.940  28.927  12.905
39359W        W 7764  44.281  16.998   2.792
39360W        W 7765   5.378  38.394  14.712
39361W        W 7766  13.428  24.766   2.784
39362W        W 7767   2.690  32.333  12.440
39363W        W 7768  32.535   3.739   0.778
39364W        W 7769  29.919   3.492  14.380
39365W        W 7770  26.687   5.758  11.701
39366W        W 7771   4.960  38.539  13.315
39367W        W 7772  12.533  36.553   3.742
39368W        W 7773   2.934  17.461  13.562
39369W        W 7774  28.150   0.439   3.946
39370W        W 7775  41.390  13.256   0.334
39371W        W 7776  19.922   6.009  11.944
39372W        W 7777  25.140   3.909   3.621
39373W        W 7778  39.825  32.877  13.864
39374W        W 7779   2.090   8.303   1.207
39375W        W 7780  18.205  38.749  12.018
39376W        W 7781  34.640  32.091  10.531
39377W        W 7782  15.759  12.082   4.504
39378W        W 7783  34.900  17.328  14.708
39379W        W 7784  38.428  18.732  10.381
39380W        W 7785  35.759  11.674  14.808
39381W        W 7786  35.317  19.323   1.793
39382W        W 7787  39.795  10.935  12.437
39383W        W 7788  37.378  38.947  12.141
39384W        W 7789  11.247  44.539  11.514
39385W        W 7790  10.825  25.099  12.565
39386W        W 7791  14.432  25.635   2.619
39387W        W 7792   6.042  28.758   5.056
39388W        W 7793   2.252  38.029  11.384
39389W        W 7794  44.977  38.103  14.134
39390W        W 7795  29.622   3.356  12.414
39391W        W 7796  30.967  33.499   4.042
39392W        W 7797  28.538   6.923   2.896
39393W        W 7798  26.170  35.159  10.798
39394W        W 7799  33.165  40.507   1.288
39395W        W 7800  35.340  12.474  13.926
39396W        W 7801  40.169  32.612  10.977
39397W        W 7802  33.846  24.882   1.669
39398W        W 7803  15.074  38.522  12.410
39399W        W 7804  28.515  38.522   9.681
39400W        W 7805  19.361  21.724  14.956
39401W        W 7806  21.384   8.084  14.726
39402W        W 7807  43.401  10.539   0.849
39403W        W 7808  16.366  39.562   3.885
39404W        W 7809  19.730  16.372   1.812
39405W        W 7810  24.608  29.816   4.152
39406W        W 7811   7.106  32.233  14.502
39407W        W 7812  40.096  39.156  13.043
39408W        W 7813  38.013  12.985  12.301
39409W        W 7814  31.205  31.590   4.488
39410W        W 7815  39.258   9.682  11.201
39411W        W 7816  13.116  14.235   3.733
39412W        W 7817  40.951  15.584   4.190
39413W        W 7818  37.203   3.842  11.857
39414W        W 7819  33.447  11.221  12.448
39415W        W 7820  20.071  12.165   4.551
39416W        W 7821  37.453  14.073   0.403
39417W        W 7822  18.533   9.881  11.617
39418W        W 7823  32.576   9.942   0.306
39419W        W 7824   3.444  40.102   0.898
39420W        W 7825  14.339  33.147   1.671
39421W        W 7826   4.337  27.760  13.434
39422W        W 7827   4.869   6.730   2.835
39423W        W 7828  21.651  26.217  14.822
39424W        W 7829  34.531  13.431  11.465
39425W        W 7830  21.793   5.373  11.969
39426W        W 7831   8.713   5.653  13.982
39427W        W 7832  38.858   5.224  12.070
39428W        W 7833  39.280   7.884   9.884
39429W        W 7834  28.051  24.513  10.784
39430W        W 7835   3.455  28.680   4.180
39431W        W 7836  41.021  34.066   1.209
39432W        W 7837  31.599   0.785  11.528
39433W        W 7838  25.791  44.359  10.733
39434W        W 7839  20.631  23.829  13.383
39435W        W 7840   2.351  16.295   1.044
39436W        W 7841  32.138   7.410  12.324
39437W        W 7842  26.863  29.526  13.425
39438W        W 7843  12.589  39.215   2.188
39439W        W 7844   0.106  18.030  10.615
39440W        W 7845  27.684  14.186  12.434
39441W        W 7846  31.404  21.609  11.515
39442W        W 7847  43.362  43.003   0.519
39443W        W 7848   3.891  21.667   1.262
39444W        W 7849  28.767  17.744  13.818
39445W        W 7850  33.245  41.434   2.958
39446W        W 7851  33.941  19.126   3.330
39447W        W 7852  35.447  21.516   0.586
39448W        W 7853  43.216   6.423   0.876
39449W        W 7854  22.053   1.984   0.261
39450W        W 7855  38.114   0.196  14.300
39451W        W 7856   3.235  44.801   2.561
39452W        W 7857  29.470  37.873   1.446
39453W        W 7858   5.401  10.059  10.463
39454W        W 7859   2.573  36.439   2.228
39455W        W 7860   6.946  19.836  10.824
39456W        W 7861  32.072  17.254  12.020
39457W        W 7862   4.144  20.464   3.712
39458W        W 7863   9.368   6.846   0.475
39459W        W 7864  16.624  35.261  13.170
39460W        W 7865  23.545  24.495  13.527
39461W        W 7866  22.492  13.060  13.947
39462W        W 7867  11.763  38.831   2.680
39463W        W 7868  28.235  20.925  12.464
39464W        W 7869  44.175  16.837   4.385
39465W        W 7870  44.819  26.554  11.809
39466W        W 7871  25.662  30.939  14.032
39467W        W 7872   4.478  20.107   4.161
39468W        W 7873  38.364  36.314   1.807
39469W        W 7874  25.456  39.987  13.838
39470W        W 7875  13.129  36.839  11.164
39471W        W 7876  11.805  37.922   0.878
39472W        W 7877  13.615   2.883   1.333
39473W        W 7878   9.687  34.142  10.778
39474W        W 7879  15.675   0.272   3.800
39475W        W 7880  30.420  13.083  12.569
39476W        W 7881  25.078  15.345  10.883
39477W        W 7882  14.477  16.042  13.515
39478W        W 7883  11.966  37.790  14.329
39479W        W 7884  20.539  15.860   1.391
39480W        W 7885   5.159  21.876  12.039
39481W        W 7886  29.070  31.185  11.145
39482W        W 7887  15.072  34.878  13.929
39483W        W 7888  19.137  19.364   3.376
39484W        W 7889   1.345   8.398   1.761
39485W        W 7890   9.662  15.002   1.189
39486W        W 7891  32.124  39.798   4.738
39487W        W 7892  44.846  18.811   0.713
39488W        W 7893  18.395  27.070   2.779
39489W        W 7894  36.272  44.933  11.927
39490W        W 7895  15.409   5.742   4.649
39491W        W 7896  19.552  12.782  13.952
39492W        W 7897  12.380   3.803  14.565
39493W        W 7898   8.229  20.175   2.679
39494W        W 7899  19.535  17.287   4.230
39495W        W 7900   4.715   9.920   4.055
39496W        W 7901  23.347  24.542   3.584
39497W        W 7902  30.847  41.101  10.671
39498W        W 7903  26.644  23.527   2.212
39499W        W 7904   9.364   7.353   4.120
39500W        W 7905   5.471  43.588   0.347
39501W        W 7906  33.447  17.646  11.161
39502W        W 7907  10.221  43.194   2.897
39503W        W 7908  16.480  30.176   1.264
39504W        W 7909  44.753   1.340   2.161
39505W        W 7910  37.344  10.679  14.071
39506W        W 7911  14.009   7.760   0.893
39507W        W 7912  29.386  34.404  11.454
39508W        W 7913   5.414   8.438  14.240
39509W        W 7914  42.275  36.673  12.477
39510W        W 7915  20.035  25.541  13.481
39511W        W 7916  14.141  36.953  12.935
39512W        W 7917  18.009  37.700   2.260
39513W        W 7918  21.988   8.264   0.505
39514W        W 7919  20.598  20.222  12.880
39515W        W 7920  15.346  44.822  11.547
39516W        W 7921  10.738  15.639  11.745
39517W        W 7922  17.436  21.151  10.569
39518W        W 7923  30.440  16.611  13.811
39519W        W 7924  18.842  16.227  12.038
39520W        W 7925  10.892  40.090   1.195
39521W        W 7926  24.274  24.484  11.989
39522W        W 7927  41.300   7.780   1.462
39523W        W 7928  29.158  43.874  10.443
39524W        W 7929  35.919  11.297   4.207
39525W        W 7930   4.257  26.099   0.269
39526W        W 7931   2.774  20.645  13.936
39527W        W 7932   7.735   6.725   4.477
39528W        W 7933  26.732  21.284   1.081
39529W        W 7934   1.863  21.635  14.191
39530W        W 7935  22.047  24.723  12.921
39531W        W 7936  21.336  30.157  14.307
39532W        W 7937  44.790  16.022  10.683
39533W        W 7938  38.447  40.078  12.045
39534W        W 7939  33.830  23.561   2.724
39535W        W 7940   0.970   5.928   4.030
39536W        W 7941   4.057  12.732   3.832
39537W        W 7942  21.136  41.957  14.743
39538W        W 7943  41.475  39.069  11.964
39539W        W 7944  25.841  19.037   3.745
39540W        W 7945  34.498  41.594   1.003
39541W        W 7946  40.434  15.411   2.456
39542W        W 7947  29.135   4.976   0.027
39543W        W 7948  38.711   8.928  12.119
39544W        W 7949  32.829   5.843  11.031
39545W        W 7950  12.568  25.017  11.181
39546W        W 7951  24.699   5.264   0.903
39547W        W 7952  23.739  39.572  13.882
39548W        W 7953  37.447  10.579  11.602
39549W        W 7954  29.002  21.788  12.165
39550W        W 7955  15.805  24.461   3.287
39551W        W 7956   3.836  25.090  12.567
39552W        W 7957   9.893  36.853   2.818
39553W        W 7958  12.333   5.283   3.840
39554W        W 7959  25.489  20.167  14.465
39555W        W 7960  27.372  36.463  13.810
39556W        W 7961  21.485   4.479  11.123
39557W        W 7962  10.958  30.337  13.935
39558W        W 7963   6.810  32.065  12.222
39559W        W 7964   5.867  37.092  14.773
39560W        W 7965  44.277  30.238   3.202
39561W        W 7966   5.340  21.138  10.945
39562W        W 7967  16.637   7.005   1.019
39563W        W 7968  33.915  16.353  13.424
39564W        W 7969  42.768   2.331   1.714
39565W        W 7970   9.492  40.770  11.141
39566W        W 7971   5.713  39.165  10.715
39567W        W 7972   0.188  44.468  12.911
39568W        W 7973  16.819   0.362   0.566
39569W        W 7974  39.433  41.901   0.267
39570W        W 7975  21.122  23.851   0.617
39571W        W 7976  26.994  22.490  11.508
39572W        W 7977  19.792  25.537   4.449
39573W        W 7978  28.151  35.613  12.012
39574W        W 7979  22.210   8.266   1.567
39575W        W 7980  40.450  34.558  12.190
39576W        W 7981   1.260  11.141  11.004
39577W        W 7982  32.886  22.994   4.316
39578W        W 7983  17.291  43.579  14.229
39579W        W 7984   7.861  26.103   1.387
39580W        W 7985   3.697  16.952  11.990
39581W        W 7986   2.270   1.989  10.955
39582W        W 7987   8.177  27.065  11.249
39583W        W 7988  20.719  31.323  12.301
39584W        W 7989  23.814   4.406  13.254
39585W        W 7990  25.247  22.556  11.413
39586W        W 7991  19.792   3.876  11.262
39587W        W 7992  14.211  30.148   0.109
39588W        W 7993  26.613   2.210   4.571
39589W        W 7994   9.708  13.567   2.746
39590W        W 7995   0.864  41.794   1.683
39591W        W 7996  43.680  41.927  12.224
39592W        W 7997  15.403   4.521  10.532
39593W        W 7998  20.913  30.466  13.448
39594W        W 7999  40.609  23.507   3.081
39595W        W 8000  38.970  41.859   4.473
39596W        W 8001  21.255  38.407   1.383
39597W        W 8002  17.106  22.154   0.878
39598W        W 8003  18.744   6.414  10.595
39599W        W 8004  27.249  38.449   3.889
39600W        W 8005  32.006   2.902  11.571
39601W        W 8006  19.007  13.585   2.389
39602W        W 8007  28.885  22.454   2.944
39603W        W 8008  26.660  32.392  14.430
39604W        W 8009  41.382  26.554   1.184
39605W        W 8010   0.767  20.294  10.546
39606W        W 8011   5.665  20.257   3.138
39607W        W 8012  18.260  24.322   9.908
39608W        W 8013  33.483  12.014  12.869
39609W        W 8014  35.110  16.618  12.349
39610W        W 8015  33.113  18.780   2.820
39611W        W 8016  28.537  12.751   2.823
39612W        W 8017   7.230  24.576   1.460
39613W        W 8018  25.298  26.738  10.826
39614W        W 8019  35.202  38.288  10.862
39615W        W 8020  11.800  29.696   3.241
39616W        W 8021  44.267  22.641  12.286
39617W        W 8022  21.702   8.223   1.396
39618W        W 8023   9.179  13.754  10.249
39619W        W 8024  38.364   0.764   2.904
39620W        W 8025  27.535  21.961  13.310
39621W        W 8026  41.447  18.839   4.154
39622W        W 8027  12.337  24.203   3.118
39623W        W 8028  40.807   0.981  14.035
39624W        W 8029   5.807  35.014   2.910
39625W        W 8030  14.978  15.287   3.392
39626W        W 8031   4.863   3.023   1.898
39627W        W 8032  35.855  40.823  14.446
39628W        W 8033   6.474   1.197   1.930
39629W        W 8034  30.015  39.620   1.352
39630W        W 8035  21.273  44.556  12.959
39631W        W 8036  41.235  27.767   0.376
39632W        W 8037  33.484  13.808  13.445
39633W        W 8038  36.772  35.476   2.617
39634W        W 8039   2.760  34.868   1.797
39635W        W 8040  11.790   9.933  14.884
39636W        W 8041   0.841  19.639  14.469
39637W        W 8042  37.451   3.046  12.334
39638W        W 8043  39.080   1.961  11.817
39639W        W 8044  41.875   5.486  14.884
39640W        W 8045  26.263   1.301  11.523
39641W        W 8046  31.953   7.886  13.883
39642W        W 8047  18.997   8.884   1.657
39643W        W 8048  35.874   1.419   3.962
39644W        W 8049  41.955   4.772  11.431
39645W        W 8050  17.849   7.629   2.774
39646W        W 8051  29.216  40.596   0.811
39647W        W 8052   8.345   2.293   2.229
39648W        W 8053  17.635  19.695  13.873
39649W        W 8054  29.819   7.429   9.828
39650W        W 8055  37.122  36.981   1.597
39651W        W 8056  42.695  42.315   1.258
39652W        W 8057  35.582  34.548  14.901
39653W        W 8058  44.929  10.706   3.631
39654W        W 8059  27.644   2.264  14.337
39655W        W 8060  38.089  12.501  13.984
39656W        W 8061  26.107  43.358  14.233
39657W        W 8062  16.590  32.034  10.203
39658W        W 8063   6.422  25.643  13.381
39659W        W 8064  22.195  24.426  13.969
39660W        W 8065   2.423  29.878  13.813
39661W        W 8066  15.534  34.734  11.534
39662W        W 8067  44.384  39.622   4.210
39663W        W 8068  17.694  25.917  14.833
39664W        W 8069  37.469  33.139  14.011
39665W        W 8070  33.777  16.661  10.775
39666W        W 8071  19.041   2.675  14.911
39667W        W 8072  11.533  18.751  11.491
39668W        W 8073  25.640  19.778  14.151
39669W        W 8074  23.669  30.939  10.752
39670W        W 8075  29.450  41.556   3.292
39671W        W 8076  34.339  38.378   2.303
39672W        W 8077  37.087  11.125  12.371
39673W        W 8078   3.476  35.379  13.850
39674W        W 8079  24.457   2.065   4.542
39675W        W 8080  35.277  29.421   1.216
39676W        W 8081  22.068  28.149  13.027
39677W        W 8082  12.824  20.074   4.535
39678W        W 8083   3.690  44.674  14.994
39679W        W 8084  14.640  40.845   4.782
39680W        W 8085   0.316  16.627  11.979
39681W        W 8086  23.565  22.709  12.016
39682W        W 8087   1.661  12.207  12.463
39683W        W 8088  11.878  17.883  10.075
39684W        W 8089  37.074  23.139  10.749
39685W        W 8090  12.253   0.210  14.298
39686W        W 8091  26.886  34.536  12.935
39687W        W 8092   2.750  24.650  12.172
39688W        W 8093   3.299  20.032  11.885
39689W        W 8094  22.600  25.266   0.416
39690W        W 8095  14.650  16.041  10.760
39691W        W 8096  42.995  44.105  12.362
39692W        W 8097  12.518  28.881  14.780
39693W        W 8098  35.410  35.029   4.908
39694W        W 8099  15.592  22.011   4.376
39695W        W 8100   1.809  25.742  11.152
39696W        W 8101  38.082  26.607   2.261
39697W        W 8102  33.393  12.755  12.222
39698W        W 8103  34.555  30.192   4.462
39699W        W 8104  29.070   6.200   1.866
39700W        W 8105  24.268  19.543   0.951
39701W        W 8106  43.320  37.655   1.243
39702W        W 8107   5.787  41.384   3.090
39703W        W 8108  32.652   5.180   3.668
39704W        W 8109  17.624  42.385   4.392
39705W        W 8110  37.336  42.894   2.196
39706W        W 8111   1.977  41.589   9.882
39707W        W 8112  21.452   8.339   3.305
39708W        W 8113  27.233   3.377   3.896
39709W        W 8114  25.478  16.137   2.922
39710W        W 8115  37.727   0.135   2.639
39711W        W 8116  12.398  34.953   2.575
39712W        W 8117   4.797  16.490   4.653
39713W        W 8118  31.425  17.138   4.127
39714W        W 8119  31.830  13.313  13.023
39715W        W 8120  30.209  20.652   0.896
39716W        W 8121  35.614  26.590   3.197
39717W        W 8122  38.289   1.029   1.560
39718W        W 8123  21.909  24.222   3.609
39719W        W 8124  32.864  36.210  10.855
39720W        W 8125  24.221  31.668   3.171
39721W        W 8126  16.600  36.379  10.023
39722W        W 8127  44.012   0.145   1.638
39723W        W 8128  10.806  19.246  12.543
39724W        W 8129   6.896  13.144   3.770
39725W        W 8130  39.793  17.866  14.409
39726W        W 8131  16.083  10.767  13.078
39727W        W 8132  24.048   2.919   3.653
39728W        W 8133   3.704   5.238  12.044
39729W        W 8134  23.497   1.075  14.924
39730W        W 8135  44.497  40.555  11.187
39731W        W 8136  14.286   3.392  13.020
39732W        W 8137   6.641  36.904  14.422
39733W        W 8138   6.852  20.651  10.597
39734W        W 8139   2.954  33.389   2.824
39735W        W 8140  14.070  22.929  12.898
39736W        W 8141  30.421  19.267  11.556
39737W        W 8142  34.996  24.341   2.939
39738W        W 8143  15.573  37.107   1.901
39739W        W 8144   1.914   2.669  12.049
39740W        W 8145   5.414  21.548  11.256
39741W        W 8146   0.999  41.355  11.227
39742W        W 8147   7.162  19.242   0.810
39743W        W 8148  21.782  15.086   1.070
39744W        W 8149  37.339  26.706   4.782
39745W        W 8150  25.483  15.888  11.677
39746W        W 8151  30.588  36.208   1.291
39747W        W 8152   3.943  18.854   2.265
39748W        W 8153  12.198   3.401  13.205
39749W        W 8154  16.158  22.260   1.223
39750W        W 8155  22.962  20.067  14.853
39751W        W 8156  19.518  41.251  13.317
39752W        W 8157  32.895   5.277   2.333
39753W        W 8158  18.141  11.339   2.402
39754W        W 8159  43.252   0.773   0.285
39755W        W 8160  32.119  26.616   3.632
39756W        W 8161   2.320  37.380   4.583
39757W        W 8162   4.406  25.425   4.094
39758W        W 8163  21.199  10.306  14.870
39759W        W 8164  36.840   1.733  11.809
39760W        W 8165  39.060  41.312  13.884
39761W        W 8166  26.750   5.999   1.281
39762W        W 8167   0.415  36.627  11.973
39763W        W 8168   6.634   6.671   2.535
39764W        W 8169  13.180  26.033  14.080
39765W        W 8170   0.369   6.749   2.434
39766W        W 8171   2.684  25.121  12.400
39767W        W 8172  18.260   1.284   1.350
39768W        W 8173  18.655  40.280   3.216
39769W        W 8174  11.148  42.035  11.943
39770W        W 8175  44.888  33.552  14.477
39771W        W 8176  35.607  43.919  13.029
39772W        W 8177  29.052  39.547  14.567
39773W        W 8178  20.844  15.341   2.136
39774W        W 8179  30.753  36.901  14.048
39775W        W 8180  10.791  23.108  13.555
39776W        W 8181  30.562  39.318  10.576
39777W        W 8182  15.636  11.743  10.732
39778W        W 8183  21.946  21.586  10.525
39779W        W 8184  35.211  36.547  10.506
39780W        W 8185  26.570  39.098   2.110
39781W        W 8186   0.160  29.073   4.531
39782W        W 8187  14.828   2.697   1.947
39783W        W 8188  24.341  35.374  14.332
39784W        W 8189   4.301  29.127   0.480
39785W        W 8190   2.685  41.388   4.593
39786W        W 8191  27.915   6.800   1.628
39787W        W 8192  23.042  32.734  11.025
39788W        W 8193  27.611  44.532  14.362
39789W        W 8194   0.018  31.546  14.551
39790W        W 8195   3.202  41.804  14.010
39791W        W 8196  34.545  12.205   3.645
39792W        W 8197  31.933  29.565  12.880
39793W        W 8198   4.735  11.354  12.521
39794W        W 8199   5.126  22.096   3.708
39795W        W 8200  36.117  31.433   2.229
39796W        W 8201  11.671  32.722  12.896
39797W        W 8202  36.061  39.355   2.235
39798W        W 8203  11.787  41.678   1.697
39799W        W 8204   2.712  28.535   2.850
39800W        W 8205   5.991  23.586   2.773
39801W        W 8206  26.266  30.913  13.405
39802W        W 8207  30.864  41.226  14.961
39803W        W 8208  25.330  23.618  12.052
39804W        W 8209   9.171  12.336   0.014
39805W        W 8210  37.969   1.005  13.440
39806W        W 8211  39.247  18.122   2.628
39807W        W 8212  10.560  12.295  12.933
39808W        W 8213  26.231   3.944  12.346
39809W        W 8214  44.036  13.826   0.656
39810W        W 8215  20.404  14.422  14.571
39811W        W 8216  17.284  28.134  13.869
39812W        W 8217  30.196  23.687  11.064
39813W        W 8218  28.621  13.667  12.376
39814W        W 8219  24.080  16.196  13.534
39815W        W 8220  42.770  28.025   2.753
39816W        W 8221  33.407   7.851   4.120
39817W        W 8222   5.272  39.471   4.631
39818W        W 8223  35.104   9.257  14.028
39819W        W 8224  23.499  33.558   1.747
39820W        W 8225  39.347  19.166   4.085
39821W        W 8226  13.528  29.554   0.195
39822W        W 8227  43.945   5.785  12.146
39823W        W 8228  41.107  25.606   3.631
39824W        W 8229   5.403  20.023  14.877
39825W        W 8230  27.666  14.550   9.784
39826W        W 8231  18.814  36.247  14.964
39827W        W 8232  22.804  28.790  12.007
39828W        W 8233   5.359  30.176   2.434
39829W        W 8234  28.046  36.622   1.403
39830W        W 8235  39.784  29.634   0.465
39831W        W 8236  10.201  14.331   2.705
39832W        W 8237  40.776  15.251  14.511
39833W        W 8238  34.055   5.260  11.410
39834W        W 8239  23.118   3.441   1.993
39835W        W 8240  27.876  38.466   4.136
39836W        W 8241   4.694  25.070  14.213
39837W        W 8242  23.232  32.528   4.081
39838W        W 8243  20.746  14.748  10.645
39839W        W 8244  17.134  35.970   0.242
39840W        W 8245  34.566  37.075  10.934
39841W        W 8246  32.332  16.619   3.235
39842W        W 8247  35.420  20.751  11.992
39843W        W 8248  26.973  43.341   0.883
39844W        W 8249   6.958  35.021  10.805
39845W        W 8250   9.672  18.071  14.544
39846W        W 8251  15.052  26.242  14.491
39847W        W 8252  37.302   6.284   1.422
39848W        W 8253   2.922   2.814   0.291
39849W        W 8254  29.265  24.047   1.011
39850W        W 8255  26.974   2.906  11.255
39851W        W 8256  23.693  10.487   0.044
39852W        W 8257  12.138  35.932   2.903
39853W        W 8258  14.357   0.402   9.754
39854W        W 8259  32.508  30.452   3.522
39855W        W 8260   5.585  27.597  12.028
39856W        W 8261  36.485   3.743   4.220
39857W        W 8262  27.030  23.555   4.818
39858W        W 8263  16.086  16.308  13.531
39859W        W 8264  43.957  26.945   0.219
39860W        W 8265   5.552  28.534  10.553
39861W        W 8266  42.062   5.730   2.939
39862W        W 8267  10.638   6.582   9.924
39863W        W 8268  15.512  29.522  10.979
39864W        W 8269  37.602  14.756   2.573
39865W        W 8270  35.975  44.544   2.301
39866W        W 8271  39.720  31.577  14.391
39867W        W 8272  34.938  36.406   4.256
39868W        W 8273  41.381  28.031   2.382
39869W        W 8274  34.927  38.635  12.054
39870W        W 8275  27.167  17.633   0.860
39871W        W 8276  21.671  28.946  13.886
39872W        W 8277  22.045  39.455   0.452
39873W        W 8278   4.305  24.002  13.268
39874W        W 8279  39.844  19.689  10.835
39875W        W 8280  10.215  11.200   1.835
39876W        W 8281   0.830  27.807   2.217
39877W        W 8282   5.196  19.646  11.454
39878W        W 8283  32.966   7.335  11.623
39879W        W 8284  26.841  20.632   0.359
39880W        W 8285  36.044  23.269   4.191
39881W        W 8286   4.437   0.411   1.768
39882W        W 8287  35.340  32.318  12.187
39883W        W 8288   3.842  20.762  13.746
39884W        W 8289  24.975   3.222  14.043
39885W        W 8290  31.355  34.379   2.306
39886W        W 8291  25.378  41.532   2.305
39887W        W 8292  34.322  24.166   0.248
39888W        W 8293  43.382  40.435   4.588
39889W        W 8294  40.384  14.023   2.853
39890W        W 8295  42.449  23.509   1.092
39891W        W 8296  10.760  28.956   0.380
39892W        W 8297  30.240  19.841   3.015
39893W        W 8298  31.166  10.142   9.910
39894W        W 8299  42.540   4.628   4.274
39895W        W 8300  27.285  30.893   2.843
39896W        W 8301   4.741   7.441   1.756
39897W        W 8302  38.858  19.817  14.306
39898W        W 8303  21.724  20.169  14.384
39899W        W 8304  27.995  18.810   4.565
39900W        W 8305  42.760  19.627  12.181
39901W        W 8306  28.620  21.999   2.420
39902W        W 8307  10.301  11.962   3.720
39903W        W 8308  10.907   7.668  13.345
39904W        W 8309  30.755   4.521  11.184
39905W        W 8310  36.348  11.680   2.756
39906W        W 8311  32.959  10.734  14.057
39907W        W 8312  41.332  30.207   4.630
39908W        W 8313  16.311  29.832   3.081
39909W        W 8314   4.776  15.455  10.439
39910W        W 8315   5.755  23.552  12.193
39911W        W 8316  43.837  35.899  12.146
39912W        W 8317   1.769  32.818  14.832
39913W        W 8318  44.778  20.614  10.989
39914W        W 8319  22.697  28.192   1.807
39915W        W 8320  17.168   5.224  14.285
39916W        W 8321  40.035   4.362  12.545
39917W        W 8322  17.724   3.884  13.349
39918W        W 8323   4.260  11.994   0.792
39919W        W 8324  31.972  10.671   0.394
39920W        W 8325  19.130  40.849  13.357
39921W        W 8326  20.785  31.821   2.648
39922W        W 8327  40.925  24.574   4.585
39923W        W 8328  37.123  29.627  13.038
39924W        W 8329  20.327   0.366   0.830
39925W        W 8330  44.467  34.572   4.493
39926W        W 8331   5.600  14.718   3.818
39927W        W 8332  37.513   0.923   3.200
39928W        W 8333  19.635  25.685  12.626
39929W        W 8334  42.020   7.178  10.179
39930W        W 8335  24.601   2.459  12.170
39931W        W 8336  33.477  24.064  10.197
39932W        W 8337  41.418  38.276   3.266
39933W        W 8338   3.461  27.275  14.897
39934W        W 8339   1.668  22.775   1.761
39935W        W 8340  39.069  34.666  13.515
39936W        W 8341   1.825   5.161   5.463
39937W        W 8342  19.718  20.087   3.945
39938W        W 8343   0.216  37.490   4.230
39939W        W 8344  10.781  28.649   4.284
39940W        W 8345  31.601  35.460  11.234
39941W        W 8346   5.334  35.977   2.109
39942W        W 8347   7.441   7.165  11.624
39943W        W 8348  35.571  24.023  14.884
39944W        W 8349   9.879  26.686   3.087
39945W        W 8350   7.341  24.431   4.701
39946W        W 8351  41.040  14.768   2.890
39947W        W 8352  14.727  18.789  12.862
39948W        W 8353  22.541  44.554  10.837
39949W        W 8354  10.526  10.114   2.932
39950W        W 8355  38.641  33.584   1.395
39951W        W 8356   4.932  21.328   4.873
39952W        W 8357  17.146  29.968  13.095
39953W        W 8358  21.634   2.335   0.222
39954W        W 8359   0.801  12.795  14.365
39955W        W 8360  15.163  29.529  14.103
39956W        W 8361  19.652  19.860   2.739
39957W        W 8362  35.901  30.027  12.105
39958W        W 8363  19.732   5.297   4.065
39959W        W 8364   2.471  34.951   2.829
39960W        W 8365   9.968  42.798   0.909
39961W        W 8366  43.251  28.013   0.856
39962W        W 8367  27.154   1.786   3.348
39963W        W 8368  18.204  25.473   2.643
39964W        W 8369  22.628  28.932   4.617
39965W        W 8370  32.413  10.864   0.544
39966W        W 8371  43.175   7.712   0.800
39967W        W 8372  40.016   9.713   2.884
39968W        W 8373   7.418  39.338  14.447
39969W        W 8374  26.687   5.387  14.888
39970W        W 8375   7.916  37.041   2.334
39971W        W 8376   6.920  40.523  14.205
39972W        W 8377  44.407  24.557  13.604
39973W        W 8378  32.399  43.311   4.184
39974W        W 8379  27.196  29.096  12.549
39975W        W 8380  43.770  41.257   0.661
39976W        W 8381  32.601   5.355   1.911
39977W        W 8382  38.855  24.721   0.814
39978W        W 8383   4.711  40.976  14.454
39979W        W 8384   3.366   3.527   3.686
39980W        W 8385  14.882   9.830  12.147
39981W        W 8386  24.717  30.150   2.905
39982W        W 8387   4.200   0.054  14.423
39983W        W 8388  32.729   6.788   4.547
39984W        W 8389  24.085   5.702  14.769
39985W        W 8390   1.458   2.874  11.937
39986W        W 8391  41.521  42.449   1.816
39987W        W 8392  12.062   3.941  11.801
39988W        W 8393  38.392   9.175  12.464
39989W        W 8394  26.721  36.882   2.754
39990W        W 8395  39.842   8.397   3.159
39991W        W 8396  12.274  18.571  13.883
39992W        W 8397  31.892  25.695   3.769
39993W        W 8398  12.774  26.643  14.168
39994W        W 8399  18.661  18.802  14.912
39995W        W 8400  40.990  39.002  14.283
39996W        W 8401  34.201   0.110  14.203
39997W        W 8402  38.903  24.786  12.908
39998W        W 8403   9.597  28.481  12.925
39999W        W 8404  20.832   5.399  14.324
40000W        W 8405  37.594  11.213  14.890
40001W        W 8406  24.520  39.875  10.685
40002W        W 8407   3.276  40.492   1.224
40003W        W 8408  28.122  10.831   0.954
40004W        W 8409   4.750   6.442   2.432
40005W        W 8410  21.199  36.889  13.540
40006W        W 8411  33.162  40.694  13.324
40007W        W 8412   9.585  38.798   3.284
40008W        W 8413   8.030  29.479   2.408
40009W        W 8414   1.700  13.160   1.375
40010W        W 8415  18.772   5.395   3.158
40011W        W 8416  32.929   6.358  14.519
40012W        W 8417  26.870  25.703   1.547
40013W        W 8418   8.896   1.207  11.987
40014W        W 8419  39.498  24.237   0.330
40015W        W 8420  40.528  12.751  14.132
40016W        W 8421  37.046  20.204  10.557
40017W        W 8422  43.328  16.349   2.759
40018W        W 8423   2.784   9.605  14.653
40019W        W 8424  29.447  18.795   3.523
40020W        W 8425  16.739  10.776   3.114
40021W        W 8426   8.364   2.521  11.579
40022W        W 8427  16.872  18.134  10.620
40023W        W 8428  23.194  35.436   0.259
40024W        W 8429   0.215  21.113   0.549
40025W        W 8430   3.834  35.906  12.583
40026W        W 8431  25.554  31.347   3.688
40027W        W 8432  27.047  15.842   0.736
40028W        W 8433  24.078  22.478  12.820
40029W        W 8434  36.681  16.252   4.703
40030W        W 8435  36.515  15.744  11.121
40031W        W 8436  31.023  12.725  10.352
40032W        W 8437  10.363  22.130   2.364
40033W        W 8438  17.700  12.090  12.354
40034W        W 8439   4.393   3.821   2.682
40035W        W 8440   1.520  15.438  13.431
40036W        W 8441  25.222  22.085   2.193
40037W        W 8442  35.119  21.094   2.253
40038W        W 8443  34.609  13.810  14.019
40039W        W 8444   1.015  35.936   0.207
40040W        W 8445   7.012  31.018   2.031
40041W        W 8446  17.287  27.215  14.822
40042W        W 8447   5.304  23.278  12.421
40043W        W 8448   4.319  39.764  11.533
40044W        W 8449  16.574   9.071  14.803
40045W        W 8450  16.757  26.987  13.933
40046W        W 8451  34.928   0.967   0.415
40047W        W 8452  26.708  39.965  11.145
40048W        W 8453  39.863  23.916  11.036
40049W        W 8454  15.711  24.043   1.209
40050W        W 8455  25.581  16.744   2.336
40051W        W 8456  37.819  44.073   0.323
40052W        W 8457  15.147  32.811   2.259
40053W        W 8458  31.084  19.120   2.237
40054W        W 8459  16.455  10.837   3.542
40055W        W 8460  10.834  12.460   2.161
40056W        W 8461   9.819   7.990  10.547
40057W        W 8462  10.648  13.652   3.167
40058W        W 8463   3.193  13.692   2.835
40059W        W 8464  10.442  21.163  13.370
40060W        W 8465  12.997  30.389   1.844
40061W        W 8466  23.090  28.225  11.190
40062W        W 8467   4.469  18.046   0.068
40063W        W 8468  16.231  20.828   0.452
40064W        W 8469  26.295  11.601  13.326
40065W        W 8470  34.956  38.874   1.142
40066W        W 8471  33.117  10.366   4.080
40067W        W 8472  11.154  36.054   3.639
40068W        W 8473  35.695  18.270  12.453
40069W        W 8474  22.075  17.653  11.614
40070W        W 8475   4.515  24.509  13.984
40071W        W 8476  32.637  31.481   4.315
40072W        W 8477  25.930  35.623  14.933
40073W        W 8478   9.125  37.444   3.786
40074W        W 8479  24.661  30.188   1.074
40075W        W 8480  26.030  24.553  13.924
40076W        W 8481  23.088   3.682   0.253
40077W        W 8482   3.814  29.636  12.987
40078W        W 8483  36.885  17.300   1.428
40079W        W 8484   9.245  11.888   2.824
40080W        W 8485   0.757  39.077  12.465
40081W        W 8486   9.127  13.817  11.655
40082W        W 8487  19.742   6.860  12.477
40083W        W 8488  30.507  33.335  12.312
40084W        W 8489  40.423  27.656   0.266
40085W        W 8490  28.135  42.020  14.985
40086W        W 8491  32.847  19.513   3.810
40087W        W 8492  29.078  28.615   1.655
40088W        W 8493  12.376   0.642   1.380
40089W        W 8494  24.698  31.941   2.305
40090W        W 8495   9.678  14.613   2.822
40091W        W 8496  20.904  17.646   4.026
40092W        W 8497   0.953  42.235  13.949
40093W        W 8498   5.395  23.731   1.383
40094W        W 8499  43.091  28.137  10.666
40095W        W 8500  18.126  26.981   0.866
40096W        W 8501   8.208  10.747   4.035
40097W        W 8502  15.608  15.293   4.608
40098W        W 8503   6.471  25.508  12.003
40099W        W 8504   1.051  23.295  13.789
40100W        W 8505  34.872  27.917  13.841
40101W        W 8506  34.192   2.420   3.191
40102W        W 8507  31.452  18.821   0.170
40103W        W 8508  16.759  43.392   4.648
40104W        W 8509  29.578   4.928  14.755
40105W        W 8510  21.287  13.294   2.266
40106W        W 8511  13.330  12.159   0.861
40107W        W 8512  23.717  38.975   4.224
40108W        W 8513  36.463  25.309  13.563
40109W        W 8514  44.031  24.948  12.145
40110W        W 8515  31.741  39.250   0.775
40111W        W 8516  22.077   9.595   3.592
40112W        W 8517  41.587  35.483   1.608
40113W        W 8518  31.117   9.302  10.552
40114W        W 8519  31.233  25.262  10.285
40115W        W 8520  21.771  44.751  11.519
40116W        W 8521  10.232  39.899  10.753
40117W        W 8522   1.834  30.621  11.213
40118W        W 8523  30.715  18.264   0.036
40119W        W 8524   4.852  11.690  10.673
40120W        W 8525  38.962  33.434   3.665
40121W        W 8526  27.628  23.543  12.024
40122W        W 8527  13.424  15.081  11.983
40123W        W 8528   6.817  27.176  10.596
40124W        W 8529   0.966  18.464  12.019
40125W        W 8530  25.665  41.968   0.275
40126W        W 8531   5.712  11.026   1.140
40127W        W 8532  15.266  19.738   2.196
40128W        W 8533  33.105   4.084   4.087
40129W        W 8534  24.716  38.421  11.640
40130W        W 8535  26.188  27.525  11.573
40131W        W 8536  27.979  42.413  11.214
40132W        W 8537  39.834  16.673   1.931
40133W        W 8538  43.912   4.426   2.799
40134W        W 8539   4.771  33.114   4.099
40135W        W 8540  29.970   4.374   2.608
40136W        W 8541  26.089  17.186  13.199
40137W        W 8542  30.601  31.316  12.052
40138W        W 8543   9.323  11.950  10.679
40139W        W 8544   6.215  19.089   4.081
40140W        W 8545  26.878  29.105   1.064
40141W        W 8546   0.357   9.903  12.342
40142W        W 8547  40.904  34.007  10.735
40143W        W 8548  40.778  27.447  14.395
40144W        W 8549  42.774   9.450   1.606
40145W        W 8550  15.961  35.674  11.746
40146W        W 8551  31.078   5.243   2.480
40147W        W 8552   5.381   7.416  10.220
40148W        W 8553  39.581  37.852   2.455
40149W        W 8554  14.370  26.092   2.399
40150W        W 8555  44.161  42.955  14.935
40151W        W 8556  42.844  22.994  14.918
40152W        W 8557  12.053   6.403  10.644
40153W        W 8558  15.765   4.802   1.198
40154W        W 8559  24.497  22.603   0.465
40155W        W 8560  22.895  40.386  11.938
40156W        W 8561  36.631  41.492   4.494
40157W        W 8562  11.412  19.172   4.792
40158W        W 8563  30.444  24.296   2.747
40159W        W 8564  27.418  25.452  11.629
40160W        W 8565   2.112   7.228   2.733
40161W        W 8566   3.793  14.625   3.064
40162W        W 8567   8.505  25.608  12.485
40163W        W 8568   1.528   3.022  14.708
40164W        W 8569   2.899  24.702   2.758
40165W        W 8570  19.295  22.990  11.558
40166W        W 8571  11.857  24.084   4.989
40167W        W 8572  36.421  41.360  10.580
40168W        W 8573  13.993  17.185   3.999
40169W        W 8574  29.842  28.632   2.778
40170W        W 8575  33.548  44.391  14.265
40171W        W 8576   4.438  30.141   0.301
40172W        W 8577  27.172  18.630  12.004
40173W        W 8578  17.672  42.317  11.512
40174W        W 8579  44.368   4.145   2.937
40175W        W 8580   2.195  24.712  14.842
40176W        W 8581  34.011  18.339   1.682
40177W        W 8582  23.981  32.778  12.048
40178W        W 8583  44.790  40.085   2.905
40179W        W 8584  41.846  13.548   3.664
40180W        W 8585  27.590  25.628  10.778
40181W        W 8586  34.604  16.592  12.386
40182W        W 8587  24.752   8.678  11.148
40183W        W 8588  17.283  32.999  11.287
40184W        W 8589  11.605   4.900   0.894
40185W        W 8590   4.948  19.028  14.022
40186W        W 8591  39.916  21.118   4.706
40187W        W 8592  16.055   1.706   0.345
40188W        W 8593  33.530  39.898   5.135
40189W        W 8594  18.269  30.097   1.858
40190W        W 8595  41.446  10.843  10.633
40191W        W 8596  22.222   7.528  14.027
40192W        W 8597  26.150  32.894  13.884
40193W        W 8598  35.814  11.649  13.507
40194W        W 8599  39.344  21.301   2.226
40195W        W 8600   2.759  32.031   1.354
40196W        W 8601  23.311   2.357   3.843
40197W        W 8602   1.479  11.412  10.617
40198W        W 8603  38.729  23.141   4.606
40199W        W 8604   1.384  21.547   2.436
40200W        W 8605   8.203   2.260   2.765
40201W        W 8606  33.635  17.977   1.745
40202W        W 8607   2.471  28.960   2.680
40203W        W 8608  34.821  20.263   4.439
40204W        W 8609  15.730  33.333   4.185
40205W        W 8610  29.610  36.383  12.942
40206W        W 8611  31.350  21.555   2.290
40207W        W 8612  25.999  22.755   3.193
40208W        W 8613   7.867   3.683   1.850
40209W        W 8614  20.988  44.471   2.345
40210W        W 8615   1.761  24.034   5.129
40211W        W 8616  41.883  23.762   3.671
40212W        W 8617  12.589   7.163   4.577
40213W        W 8618   5.756  22.869   1.342
40214W        W 8619   2.242  17.196   2.935
40215W        W 8620  39.415  13.398  14.777
40216W        W 8621   8.779  34.847  13.532
40217W        W 8622  10.848  28.486   1.327
40218W        W 8623  43.931  15.455  14.389
40219W        W 8624   6.412   6.619  14.977
40220W        W 8625  34.875   4.483  14.800
40221W        W 8626  20.189  43.847  11.827
40222W        W 8627  42.879   5.002  11.134
40223W        W 8628  37.037  27.534  13.726
40224W        W 8629  41.796  16.934  11.136
40225W        W 8630   5.236  29.154   0.367
40226W        W 8631  39.743  25.443  12.478
40227W        W 8632  19.721  14.229  14.007
40228W        W 8633  22.115  24.799   4.851
40229W        W 8634  29.553  18.246  13.290
40230W        W 8635  42.041  16.184   4.793
40231W        W 8636  25.777  10.854   0.773
40232W        W 8637  18.537  32.655  12.873
40233W        W 8638  13.841  32.758   1.918
40234W        W 8639  33.804  44.861  14.931
40235W        W 8640  37.090  41.275   4.360
40236W        W 8641  16.441  29.447  13.379
40237W        W 8642  20.656  44.481   4.542
40238W        W 8643  36.023  34.439  12.405
40239W        W 8644   1.455  10.448  11.520
40240W        W 8645   3.105  25.022  13.811
40241W        W 8646  34.153  19.665   2.224
40242W        W 8647  13.119  42.877   1.288
40243W        W 8648  23.135  24.210  10.688
40244W        W 8649  25.467   7.631  11.566
40245W        W 8650  32.895  26.714   4.525
40246W        W 8651  42.281  37.863  13.822
40247W        W 8652   1.499  33.774  12.084
40248W        W 8653  44.988  38.643  13.426
40249W        W 8654  28.429  35.605  11.583
40250W        W 8655  21.289  21.690   4.751
40251W        W 8656  39.574  10.287   4.348
40252W        W 8657  19.341   5.496  11.726
40253W        W 8658  21.422  28.974  13.402
40254W        W 8659  20.643  26.513   1.085
40255W        W 8660  26.451  12.555  10.814
40256W        W 8661  26.585  28.383   0.685
40257W        W 8662   0.757  11.637  11.970
40258W        W 8663   4.952  19.658  14.402
40259W        W 8664  23.299  23.370   3.221
40260W        W 8665   9.430   3.757  12.968
40261W        W 8666  17.187  39.435   3.345
40262W        W 8667  37.968  17.546   1.577
40263W        W 8668   8.721  41.424   3.227
40264W        W 8669   8.616  38.748  12.034
40265W        W 8670  31.638  31.946  13.977
40266W        W 8671  42.036  16.117  11.159
40267W        W 8672  17.636  39.539   1.594
40268W        W 8673   2.260  35.668   1.862
40269W        W 8674  11.596  43.286  14.174
40270W        W 8675  36.442  28.407   0.871
40271W        W 8676   2.632  25.850  13.953
40272W        W 8677  15.177   9.864  12.618
40273W        W 8678  41.912  41.079   0.342
40274W        W 8679   5.515  43.225   2.319
40275W        W 8680  10.563  26.928  13.488
40276W        W 8681  33.840  32.224  14.444
40277W        W 8682  29.470  39.350   4.532
40278W        W 8683  24.125  44.366   3.188
40279W        W 8684  41.980  14.879   2.271
40280W        W 8685   9.233   4.415   3.668
40281W        W 8686  38.959  15.251  13.006
40282W        W 8687  11.929  10.809  14.937
40283W        W 8688  17.099  35.346  14.426
40284W        W 8689  25.955   8.714   0.829
40285W        W 8690  44.221   6.945   4.142
40286W        W 8691  15.174   5.264  14.776
40287W        W 8692  28.637  39.543  12.496
40288W        W 8693  43.860  34.607  13.380
40289W        W 8694  34.637  14.289  12.888
40290W        W 8695  29.621  32.615  14.538
40291W        W 8696  35.080  18.549   0.649
40292W        W 8697  34.972  16.832  14.796
40293W        W 8698  34.537  25.975  13.837
40294W        W 8699  30.220  14.110   5.139
40295W        W 8700   2.054   4.229  14.460
40296W        W 8701  39.955  30.979   4.647
40297W        W 8702  22.103  12.087  13.289
40298W        W 8703  41.810  18.127   4.058
40299W        W 8704  12.105  39.447  11.036
40300W        W 8705  18.761  11.918  12.426
40301W        W 8706  10.303  44.814   9.935
40302W        W 8707  38.404   1.424   3.493
40303W        W 8708  37.201  21.120   1.003
40304W        W 8709  20.944  23.149   4.392
40305W        W 8710  34.791  29.968  12.878
40306W        W 8711  14.043   4.382  10.716
40307W        W 8712  36.088  29.914   3.629
40308W        W 8713  11.601  29.231   3.165
40309W        W 8714  32.398  12.920  12.488
40310W        W 8715  41.674  19.586   0.638
40311W        W 8716  12.170  33.089   2.234
40312W        W 8717   3.921  34.272   4.724
40313W        W 8718   9.285  16.378  13.912
40314W        W 8719   6.253  12.077   0.461
40315W        W 8720   1.701  34.077  10.658
40316W        W 8721  12.305  10.562  12.100
40317W        W 8722  30.724  22.011  12.302
40318W        W 8723   5.531  36.464  13.452
40319W        W 8724  27.658   4.893  13.580
40320W        W 8725  31.484  43.400  14.375
40321W        W 8726  38.102  44.269   1.156
40322W        W 8727   2.370  44.855   2.703
40323W        W 8728  14.354  20.567   1.329
40324W        W 8729   1.466  31.156   3.902
40325W        W 8730   1.928  33.845  12.372
40326W        W 8731   0.525  31.786  12.854
40327W        W 8732  32.514  30.595  14.598
40328W        W 8733  19.049   7.914   2.441
40329W        W 8734  12.189  44.108  10.765
40330W        W 8735  34.527  40.062   3.921
40331W        W 8736  19.671   0.812  12.811
40332W        W 8737  28.408  26.287  10.904
40333W        W 8738   2.457  31.668   0.961
40334W        W 8739  26.309   2.282   1.973
40335W        W 8740  11.448  12.846   4.580
40336W        W 8741  25.606  35.870  11.572
40337W        W 8742   3.806  30.480   0.923
40338W        W 8743   3.279  20.568  11.892
40339W        W 8744  18.406  14.347  14.360
40340W        W 8745  23.891  36.352  14.398
40341W        W 8746  24.052  13.719  13.037
40342W        W 8747  17.595  16.443   3.538
40343W        W 8748  15.601   8.271  14.515
40344W        W 8749   8.287  20.657   1.843
40345W        W 8750  20.861  29.058  11.028
40346W        W 8751  17.071  19.054  12.435
40347W        W 8752  28.135   2.756  14.950
40348W        W 8753  35.835  42.829   0.484
40349W        W 8754  28.239  23.819  14.787
40350W        W 8755  33.879  14.409   3.248
40351W        W 8756  19.367   1.897   4.578
40352W        W 8757  24.600  14.435   4.114
40353W        W 8758   4.893  27.662  14.825
40354W        W 8759  39.354  24.504  13.828
40355W        W 8760  25.788   6.076   1.426
40356W        W 8761  37.830  19.522   4.926
40357W        W 8762  35.931  16.060  14.520
40358W        W 8763  36.037   4.017  13.588
40359W        W 8764  17.089  34.273   3.652
40360W        W 8765  13.803  14.727   2.999
40361W        W 8766  40.971  34.550  13.014
40362W        W 8767  10.674  13.413  13.759
40363W        W 8768  32.418  29.859   0.486
40364W        W 8769   1.941   6.640  11.035
40365W        W 8770  24.704   8.791   2.379
40366W        W 8771  42.424  36.877   0.382
40367W        W 8772  30.483   3.528  14.240
40368W        W 8773  35.870  15.476  12.288
40369W        W 8774   0.477  41.673   4.058
40370W        W 8775  18.246  38.765   4.280
40371W        W 8776  20.709  13.196  11.974
40372W        W 8777  37.466  22.491  10.975
40373W        W 8778  31.810  20.638   3.421
40374W        W 8779  42.414   8.253   4.594
40375W        W 8780  36.920  33.454   3.183
40376W        W 8781  40.892  32.500  13.514
40377W        W 8782  37.259  12.781  10.784
40378W        W 8783  13.911   7.273   0.735
40379W        W 8784  28.071  18.245   2.589
40380W        W 8785  44.407  34.541   1.219
40381W        W 8786  29.187   5.863  14.903
40382W        W 8787  42.534  32.887  11.878
40383W        W 8788  41.328  15.137  12.437
40384W        W 8789   1.456  28.935   3.265
40385W        W 8790  31.283  28.436   0.468
40386W        W 8791  28.926  32.737   3.361
40387W        W 8792   6.705  33.988  10.763
40388W        W 8793  42.931  27.621   4.945
40389W        W 8794  43.804  16.024  10.572
40390W        W 8795  25.139  37.386  10.983
40391W        W 8796   8.935   3.201   2.451
40392W        W 8797  20.643  36.216   3.331
40393W        W 8798  23.812  42.290  12.884
40394W        W 8799  40.719  43.378  14.973
40395W        W 8800   9.271  33.416  11.170
40396W        W 8801  22.582  19.450   3.810
40397W        W 8802  31.410  29.089  11.089
40398W        W 8803  40.578  43.212   3.793
40399W        W 8804  36.025  41.712   2.953
40400W        W 8805  17.116  28.538   4.785
40401W        W 8806  38.954  15.045   4.913
40402W        W 8807   5.889  41.414   1.213
40403W        W 8808   8.785  26.078   1.261
40404W        W 8809  35.611   0.913   0.888
40405W        W 8810  31.847  28.593   1.064
40406W        W 8811  20.098   9.429   3.015
40407W        W 8812  33.420  40.393   5.048
40408W        W 8813   1.791  44.941  13.081
40409W        W 8814   3.738  27.095   0.854
40410W        W 8815   6.128   3.295   4.122
40411W        W 8816  40.067  37.930  10.417
40412W        W 8817  17.607  27.626   2.784
40413W        W 8818   1.380  44.336   4.033
40414W        W 8819  30.558  14.083   0.856
40415W        W 8820  13.209  14.822   0.443
40416W        W 8821  20.421   0.763  13.293
40417W        W 8822   1.594  30.023  14.903
40418W        W 8823  23.451   2.433  14.803
40419W        W 8824  44.924  43.843   3.322
40420W        W 8825   2.374   0.239  14.230
40421W        W 8826  21.664  34.371   2.918
40422W        W 8827   1.781   0.260  10.599
40423W        W 8828  38.898  31.117   4.679
40424W        W 8829   6.118   2.239   2.157
40425W        W 8830  17.329  27.448   3.178
40426W        W 8831  11.087   4.960   1.307
40427W        W 8832   7.805   5.309  11.035
40428W        W 8833  36.640  12.424   4.406
40429W        W 8834  20.661  28.460  13.513
40430W        W 8835  43.875  13.603   3.286
40431W        W 8836  24.024  13.329   3.653
40432W        W 8837  42.525   1.311   0.484
40433W        W 8838   2.848  34.588   1.364
40434W        W 8839  28.085  13.168  11.544
40435W        W 8840   7.610   0.948   4.663
40436W        W 8841   0.165  33.192   4.132
40437W        W 8842  40.313  24.704  11.073
40438W        W 8843   9.705   8.916  14.816
40439W        W 8844  29.393  19.204  10.725
40440W        W 8845  15.209  10.286  10.943
40441W        W 8846   3.800  32.908  12.121
40442W        W 8847  38.883  38.156   0.418
40443W        W 8848  10.592  30.230   1.742
40444W        W 8849  11.733   5.695  12.166
40445W        W 8850  43.423  14.381   3.050
40446W        W 8851  12.138  34.136  12.468
40447W        W 8852  29.390  38.337   3.319
40448W        W 8853  22.838  26.906  11.523
40449W        W 8854   9.805   2.792   2.898
40450W        W 8855   5.238  39.491   1.608
40451W        W 8856  22.784  42.520  13.064
40452W        W 8857  35.905  39.984   4.068
40453W        W 8858   1.955  16.557   3.679
40454W        W 8859  21.555  14.087  11.469
40455W        W 8860  30.935  44.334  12.161
40456W        W 8861  29.505  30.144  10.767
40457W        W 8862  27.501  15.318   3.141
40458W        W 8863  35.532  33.812   2.899
40459W        W 8864   3.506   8.375  12.466
40460W        W 8865  41.697  28.423  14.177
40461W        W 8866  11.877  41.539   4.702
40462W        W 8867  22.533  17.935   0.469
40463W        W 8868  43.012  13.346  13.508
40464W        W 8869  42.465  29.886   4.518
40465W        W 8870  13.816  14.765  12.021
40466W        W 8871  25.007  33.515  14.673
40467W        W 8872  27.238  13.289  14.855
40468W        W 8873   5.774   8.042   2.394
40469W        W 8874  33.582   2.788  11.462
40470W        W 8875  27.929  19.619   1.450
40471W        W 8876   3.856  23.660  12.460
40472W        W 8877  14.347  35.970   2.313
40473W        W 8878  18.113  34.443  13.921
40474W        W 8879  34.088  33.122  12.130
40475W        W 8880   6.651   8.186  13.346
40476W        W 8881  34.382  13.603  11.917
40477W        W 8882  32.868   2.530  11.939
40478W        W 8883   0.557  10.826   4.681
40479W        W 8884  15.585   8.671  12.361
40480W        W 8885   8.804   5.033  13.958
40481W        W 8886  40.738  37.437  12.430
40482W        W 8887  36.069  38.329   1.289
40483W        W 8888  38.134   3.909   4.183
40484W        W 8889  19.775  18.352  11.588
40485W        W 8890  13.468  18.293   5.229
40486W        W 8891  28.961  42.527  14.882
40487W        W 8892  29.150  19.174  12.869
40488W        W 8893  35.413  40.830  11.629
40489W        W 8894  36.872  33.365  13.443
40490W        W 8895  37.625  18.693   0.875
40491W        W 8896  29.863  24.653   1.375
40492W        W 8897   6.364  37.173   0.956
40493W        W 8898  29.712  28.000   4.962
40494W        W 8899   4.645  23.020   3.614
40495W        W 8900   8.320   4.716   0.740
40496W        W 8901  26.671  11.301   1.281
40497W        W 8902  12.471   3.966   4.232
40498W        W 8903  19.107  26.559  13.773
40499W        W 8904   0.723   5.984   2.641
40500W        W 8905  42.718  34.057   3.178
40501W        W 8906  34.895  40.611   0.921
40502W        W 8907  15.030  28.764  12.628
40503W        W 8908  40.279   7.570   1.804
40504W        W 8909  17.101  13.957  10.247
40505W        W 8910  15.571  40.765   4.542
40506W        W 8911  25.332  10.625  10.999
40507W        W 8912  22.284  31.944  11.659
40508W        W 8913  23.245   4.786   2.893
40509W        W 8914  34.136  13.510  12.373
40510W        W 8915  26.981  29.884  14.876
40511W        W 8916  21.388  35.160   4.172
40512W        W 8917  27.394  17.573   2.359
40513W        W 8918  18.193   7.365   1.027
40514W        W 8919  10.854   8.466   0.804
40515W        W 8920   7.979  32.013  14.877
40516W        W 8921  31.435  19.827   3.739
40517W        W 8922  17.595   1.331   4.698
40518W        W 8923  18.297   0.800  13.326
40519W        W 8924  28.192  28.199  14.462
40520W        W 8925  36.022   7.668  14.060
40521W        W 8926  31.215   7.748   0.865
40522W        W 8927  38.237  40.269  11.133
40523W        W 8928  24.838  11.701   0.769
40524W        W 8929  19.838   6.012   3.177
40525W        W 8930  21.723  27.175   2.787
40526W        W 8931  11.654  16.551  11.883
40527W        W 8932  21.229   1.686   0.038
40528W        W 8933   6.854  36.344   2.963
40529W        W 8934  43.282  14.450  11.156
40530W        W 8935   5.718  31.197   0.907
40531W        W 8936  12.392  15.684   3.903
40532W        W 8937  26.998   2.001  12.449
40533W        W 8938  29.348  19.859   3.261
40534W        W 8939  41.782   8.711  13.933
40535W        W 8940  15.070  22.096   2.785
40536W        W 8941  41.506  41.948   4.485
40537W        W 8942  13.202   0.693  13.230
40538W        W 8943  27.003  39.799   3.207
40539W        W 8944  36.796  15.225   1.307
40540W        W 8945   8.107  37.750  14.255
40541W        W 8946   8.331  28.104  12.676
40542W        W 8947  34.050   3.210   2.149
40543W        W 8948  39.995   6.447  12.042
40544W        W 8949   0.972   7.820  13.194
40545W        W 8950  12.420  10.860   0.121
40546W        W 8951  14.206   4.975   1.647
40547W        W 8952  32.593   8.599  13.484
40548W        W 8953  27.053  24.936   1.895
40549W        W 8954  42.347   1.018   2.735
40550W        W 8955  37.398  14.286   4.648
40551W        W 8956   6.773   8.168  10.680
40552W        W 8957  18.533   4.759   0.721
40553W        W 8958  19.600  20.329   1.853
40554W        W 8959  23.461  14.055  10.689
40555W        W 8960  18.696  34.467   1.408
40556W        W 8961  33.611  14.232  12.066
40557W        W 8962   9.662  15.512   1.246
40558W        W 8963  19.048  16.264  14.232
40559W        W 8964   2.903  33.871   0.876
40560W        W 8965  26.735  19.385  11.165
40561W        W 8966  20.777  10.709   4.606
40562W        W 8967  36.943  44.044  13.438
40563W        W 8968   8.611  40.955   4.612
40564W        W 8969  12.169  17.637   1.344
40565W        W 8970  20.473  20.293  12.368
40566W        W 8971   7.676  30.295  10.282
40567W        W 8972  38.930  30.848   1.790
40568W        W 8973   3.491   6.976   0.480
40569W        W 8974  39.428  20.629   1.010
40570W        W 8975  13.246  15.376   4.381
40571W        W 8976  30.549  40.577   0.252
40572W        W 8977  38.487  44.471   1.931
40573W        W 8978  13.585   4.912  14.674
40574W        W 8979  34.458  30.602  10.710
40575W        W 8980  38.373   3.473   0.578
40576W        W 8981   2.741  44.867   2.357
40577W        W 8982  11.237  22.830   2.831
40578W        W 8983  16.561   9.927   1.305
40579W        W 8984  35.771   4.233   4.491
40580W        W 8985  11.828  30.049  11.673
40581W        W 8986  27.190  27.358  14.841
40582W        W 8987  35.359   5.316  14.322
40583W        W 8988  23.726   3.863   2.734
40584W        W 8989   6.511  29.013  13.486
40585W        W 8990  33.508   3.005   2.116
40586W        W 8991  21.604  33.139  14.712
40587W        W 8992  36.524  25.571   4.603
40588W        W 8993  26.026  22.746  12.103
40589W        W 8994  38.097  27.542   0.888
40590W        W 8995  18.462  42.887   2.302
40591W        W 8996  37.480  39.804  13.166
40592W        W 8997  28.492  32.087   1.190
40593W        W 8998   4.500  40.744   3.677
40594W        W 8999  29.197  30.886  14.428
40595W        W 9000  21.626   1.478  11.981
40596W        W 9001   9.998  41.125  11.973
40597W        W 9002  30.004  13.031  11.209
40598W        W 9003  15.776  17.821   3.296
40599W        W 9004   3.559  13.810   4.162
40600W        W 9005  26.660   8.817  10.788
40601W        W 9006  29.484   5.235   1.860
40602W        W 9007   0.651  34.858  10.285
40603W        W 9008  39.202  19.206  14.936
40604W        W 9009  36.028  31.890   3.357
40605W        W 9010  28.480   1.764  12.608
40606W        W 9011  41.193  14.868   3.658
40607W        W 9012   0.240  23.431  11.620
40608W        W 9013   7.315  24.043  12.819
40609W        W 9014  10.004  27.106   4.676
40610W        W 9015  43.309  37.657   2.209
40611W        W 9016  13.710  28.406   1.289
40612W        W 9017  12.399  14.443  14.402
40613W        W 9018   5.618  26.489  11.961
40614W        W 9019  24.127  41.343   0.926
40615W        W 9020  15.407  23.283  14.858
40616W        W 9021  12.120  16.094  10.649
40617W        W 9022  41.917  35.073   4.327
40618W        W 9023   6.799  17.246  13.366
40619W        W 9024  18.486  20.322  13.139
40620W        W 9025   2.074  19.308   2.097
40621W        W 9026  15.274  14.774   4.360
40622W        W 9027  19.081  31.601   2.696
40623W        W 9028  24.693  26.161  12.696
40624W        W 9029  21.223  16.657   2.311
40625W        W 9030  43.284  39.048   3.317
40626W        W 9031  38.850   5.953   2.983
40627W        W 9032  44.103  43.874   3.744
40628W        W 9033   5.977   8.552   1.232
40629W        W 9034  39.875  21.567  10.674
40630W        W 9035  13.048  10.189   0.546
40631W        W 9036  22.876  23.580  14.232
40632W        W 9037  44.792   1.906   4.327
40633W        W 9038  15.558  31.549   4.016
40634W        W 9039   6.806   6.850  10.880
40635W        W 9040   2.158  40.996   4.004
40636W        W 9041  27.655   4.827  14.105
40637W        W 9042  16.689  21.099   4.064
40638W        W 9043  11.654  37.525   0.590
40639W        W 9044  32.856  10.332  10.650
40640W        W 9045   7.215  34.282  14.916
40641W        W 9046   0.902  15.155   0.739
40642W        W 9047  43.473  13.205   4.548
40643W        W 9048  37.817  44.481  14.924
40644W        W 9049  22.356  41.716   2.752
40645W        W 9050  26.191  37.139   3.716
40646W        W 9051  12.880  33.619  14.815
40647W        W 9052   3.057  20.847  13.540
40648W        W 9053  15.099  23.735   3.194
40649W        W 9054  22.584  40.397   4.576
40650W        W 9055   9.361   5.532   2.724
40651W        W 9056  41.260  28.745   3.744
40652W        W 9057  38.355  40.363   4.161
40653W        W 9058  43.297   0.937   1.489
40654W        W 9059  38.659  13.948  11.163
40655W        W 9060  12.418   2.922   2.691
40656W        W 9061  21.663  19.085   0.729
40657W        W 9062  19.129   9.271   3.412
40658W        W 9063  12.958  37.490   4.883
40659W        W 9064  23.008  36.243  13.960
40660W        W 9065   3.260  20.739  13.074
40661W        W 9066  20.764  28.508  12.990
40662W        W 9067   5.723  41.504  10.956
40663W        W 9068   0.979  21.056  13.010
40664W        W 9069  41.244  44.762   2.905
40665W        W 9070   9.818  39.328  10.449
40666W        W 9071   6.131  24.703  13.125
40667W        W 9072  25.815  27.782   0.452
40668W        W 9073  21.491  23.058  10.329
40669W        W 9074  13.530  22.351   2.672
40670W        W 9075  40.355  25.690  10.423
40671W        W 9076  32.444  44.771   1.862
40672W        W 9077  20.703  16.244   2.636
40673W        W 9078   5.851  27.968  11.741
40674W        W 9079  29.434  10.655  13.048
40675W        W 9080  28.027  41.413   2.392
40676W        W 9081  25.534  42.680  13.479
40677W        W 9082   9.114  19.663  12.905
40678W        W 9083   2.723  16.673  10.782
40679W        W 9084  20.176   4.427   1.433
40680W        W 9085  20.578  18.564  14.997
40681W        W 9086  19.755  41.011  14.305
40682W        W 9087  40.475  13.255   2.193
40683W        W 9088  11.022  11.318   0.169
40684W        W 9089  21.027  36.572   2.368
40685W        W 9090  27.047  11.309   4.508
40686W        W 9091  40.902  27.920   2.195
40687W        W 9092  22.060  35.992  10.759
40688W        W 9093   4.934   2.483   2.684
40689W        W 9094  40.331  14.462   1.405
40690W        W 9095  25.951  43.575   2.809
40691W        W 9096  36.832  40.870   3.724
40692W        W 9097  13.618   5.189   4.625
40693W        W 9098  18.157   0.961  14.198
40694W        W 9099   8.181  27.199  13.129
40695W        W 9100  38.141   1.276   0.785
40696W        W 9101  14.286  39.863   3.294
40697W        W 9102  31.098  13.080   2.745
40698W        W 9103  13.403   5.792  12.405
40699W        W 9104  23.710  37.582  13.017
40700W        W 9105  30.044  41.297  10.589
40701W        W 9106  35.907  41.692  12.985
40702W        W 9107  39.398  34.404   0.273
40703W        W 9108  15.149  31.028  13.286
40704W        W 9109  15.604   4.645  14.757
40705W        W 9110  10.061   0.979   3.748
40706W        W 9111  35.900  19.624   1.063
40707W        W 9112  20.511  29.197  12.337
40708W        W 9113  24.986  31.480  10.704
40709W        W 9114   7.832  16.596   3.530
40710W        W 9115  44.268  20.868   2.801
40711W        W 9116  39.671  31.986   5.034
40712W        W 9117   0.518   4.631   0.294
40713W        W 9118  20.305  33.150  14.044
40714W        W 9119   0.002  41.982  12.552
40715W        W 9120   3.810  17.049  14.448
40716W        W 9121  43.470  36.271  14.332
40717W        W 9122  31.926  37.076  10.727
40718W        W 9123   9.143  27.480   4.530
40719W        W 9124  28.580  12.835   1.289
40720W        W 9125  21.220   9.867  10.253
40721W        W 9126  15.694  41.759   0.697
40722W        W 9127  37.404   8.764   1.908
40723W        W 9128   7.265  37.112   4.555
40724W        W 9129  31.999   1.895  11.850
40725W        W 9130   5.445  39.359   0.238
40726W        W 9131  16.037  26.391   0.843
40727W        W 9132  33.203  10.565   1.053
40728W        W 9133  20.479  42.215  12.434
40729W        W 9134  18.501  13.584   3.103
40730W        W 9135  36.565  21.575  12.998
40731W        W 9136  28.603   0.277  14.998
40732W        W 9137  21.649   6.398  12.968
40733W        W 9138  20.131  13.199   1.136
40734W        W 9139  31.465  15.579  11.905
40735W        W 9140  36.525   0.269  13.647
40736W        W 9141  15.755   0.295   1.741
40737W        W 9142  20.698  35.469   0.511
40738W        W 9143  41.513  19.569  10.701
40739W        W 9144  29.142  19.838   0.931
40740W        W 9145   4.849  22.270   4.126
40741W        W 9146  42.981  13.056   4.743
40742W        W 9147  13.139  21.226  13.868
40743W        W 9148  42.139  18.937  10.873
40744W        W 9149   6.041   9.816   1.290
40745W        W 9150  24.654  29.127   2.538
40746W        W 9151  36.638  35.808  13.609
40747W        W 9152   6.173  23.408  13.322
40748W        W 9153  44.899  34.072   2.113
40749W        W 9154  41.785  25.696  11.081
40750W        W 9155  17.887  21.731   0.434
40751W        W 9156  22.843  28.152   3.244
40752W        W 9157  22.225  25.570   0.867
40753W        W 9158  31.164  22.062  11.473
40754W        W 9159  31.388  24.437  13.288
40755W        W 9160  31.713   2.203   2.367
40756W        W 9161   0.386   4.889   4.625
40757W        W 9162  16.772  35.547   2.850
40758W        W 9163   3.870  15.857   3.661
40759W        W 9164  23.624  28.464   4.689
40760W        W 9165   6.165  10.564  12.151
40761W        W 9166  21.287  10.126  12.453
40762W        W 9167  30.153  17.193  12.159
40763W        W 9168  16.303  10.812   1.191
40764W        W 9169   0.474  30.872   3.233
40765W        W 9170  27.133  16.818  11.400
40766W        W 9171  31.088  23.986   0.575
40767W        W 9172  37.894  24.489   4.000
40768W        W 9173   0.213  30.495  14.822
40769W        W 9174   9.858  37.975  10.681
40770W        W 9175   7.704  36.410  10.758
40771W        W 9176  39.981  13.913   4.817
40772W        W 9177  36.905  18.674  12.893
40773W        W 9178  41.072   1.712   1.713
40774W        W 9179  26.458  16.412   2.774
40775W        W 9180  43.722   6.372   0.879
40776W        W 9181  36.372  31.272   4.746
40777W        W 9182  43.959  22.751   3.842
40778W        W 9183  12.126  23.278  11.050
40779W        W 9184  33.964  26.167   2.243
40780W        W 9185  40.269  14.502  14.930
40781W        W 9186  35.971  30.521  12.861
40782W        W 9187  21.105  16.796  12.862
40783W        W 9188   0.006  44.789  12.537
40784W        W 9189  43.738   1.145   3.649
40785W        W 9190  15.609  34.355   4.917
40786W        W 9191  15.122  32.932  13.010
40787W        W 9192  35.607  29.411  13.808
40788W        W 9193  23.100  37.459   5.029
40789W        W 9194  14.770  41.687  14.419
40790W        W 9195  37.342  38.453  13.921
40791W        W 9196  20.378  39.121  12.986
40792W        W 9197  39.490  26.546   1.382
40793W        W 9198  10.461   8.144   3.857
40794W        W 9199  18.609  37.420   1.481
40795W        W 9200   5.471  40.581   3.647
40796W        W 9201   6.817  41.581  10.676
40797W        W 9202   8.883  24.127   2.212
40798W        W 9203  32.614  20.181  13.311
40799W        W 9204  14.021  13.698   0.323
40800W        W 9205  29.816  41.839   0.719
40801W        W 9206  40.708  37.989  13.459
40802W        W 9207  26.109   8.890  13.945
40803W        W 9208  40.555  42.393   0.493
40804W        W 9209   3.731  37.083  10.367
40805W        W 9210  34.353  29.521  14.390
40806W        W 9211  17.480  30.589   1.875
40807W        W 9212  13.255  24.634  13.697
40808W        W 9213  11.493   2.584   0.147
40809W        W 9214  14.658  39.815  12.996
40810W        W 9215   4.245  20.847   0.453
40811W        W 9216  21.240   2.941   1.650
40812W        W 9217  44.923  11.213  10.657
40813W        W 9218  32.413  15.565  12.074
40814W        W 9219  35.864   0.387  12.953
40815W        W 9220   4.252  17.548   0.246
40816W        W 9221  41.559  37.744   3.189
40817W        W 9222  41.501   8.724  13.020
40818W        W 9223  23.734  40.149   3.554
40819W        W 9224  20.339  34.514   3.658
40820W        W 9225  38.792  17.122  10.847
40821W        W 9226  21.491  14.576  11.687
40822W        W 9227  34.567  12.678   0.951
40823W        W 9228  42.600  38.425  10.701
40824W        W 9229  29.738   0.027  14.141
40825W        W 9230   6.772  35.148   3.323
40826W        W 9231  39.488  12.478  14.980
40827W        W 9232   3.414  28.959   0.927
40828W        W 9233   9.898   7.191   2.209
40829W        W 9234  11.329  23.298   2.673
40830W        W 9235  40.854   2.349  14.430
40831W        W 9236  41.412  40.629  11.083
40832W        W 9237  43.913  36.076  14.521
40833W        W 9238   2.307   5.986  12.035
40834W        W 9239  38.456   4.301  14.449
40835W        W 9240  30.549  42.652  11.515
40836W        W 9241  39.520  40.561  10.681
40837W        W 9242  36.810  13.199   3.737
40838W        W 9243  23.504   5.289  11.621
40839W        W 9244  37.335   6.409  12.083
40840W        W 9245  18.763  39.776  12.814
40841W        W 9246  25.506  20.663   4.549
40842W        W 9247  14.296   6.354   3.124
40843W        W 9248  24.459  30.738   1.548
40844W        W 9249  17.468  11.868   2.463
40845W        W 9250  17.073  33.500  11.370
40846W        W 9251  14.221   8.571   1.279
40847W        W 9252  25.015  25.220   3.180
40848W        W 9253  28.893  34.817  11.072
40849W        W 9254  40.483   8.218  13.723
40850W        W 9255  42.557  23.918   1.970
40851W        W 9256  37.290  18.535   3.210
40852W        W 9257   0.480  40.126  13.244
40853W        W 9258  37.602  28.349   4.117
40854W        W 9259  13.704   8.784   3.087
40855W        W 9260  35.799  17.141   0.267
40856W        W 9261  31.116  42.421   4.121
40857W        W 9262  10.594  24.068   1.780
40858W        W 9263  29.145  15.126   0.107
40859W        W 9264   0.917   8.733  12.340
40860W        W 9265  42.917  42.550   0.803
40861W        W 9266   1.174  13.100  13.516
40862W        W 9267  37.626   4.420   1.827
40863W        W 9268   2.421  31.435  13.551
40864W        W 9269  13.121  43.924  10.603
40865W        W 9270   6.395  12.379  14.444
40866W        W 9271  13.138  11.804   1.764
40867W        W 9272   6.407  16.644  11.017
40868W        W 9273  20.686  18.260  12.736
40869W        W 9274  22.584  38.833   0.426
40870W        W 9275   8.337  22.258   1.654
40871W        W 9276  42.525  17.951  11.141
40872W        W 9277  24.476  14.859   1.409
40873W        W 9278  30.467  27.457  14.994
40874W        W 9279  38.357  32.725   3.765
40875W        W 9280  12.660  44.841  14.048
40876W        W 9281  23.770  25.788  11.069
40877W        W 9282   1.406  23.173   1.953
40878W        W 9283  19.736  40.562  12.506
40879W        W 9284   3.211  30.475  12.926
40880W        W 9285  28.313   3.155   4.595
40881W        W 9286  38.119  13.803   2.791
40882W        W 9287   3.227   6.946   0.935
40883W        W 9288  26.952   7.296   3.161
40884W        W 9289  12.714  42.106  11.583
40885W        W 9290  13.108  14.774  11.608
40886W        W 9291  12.577  11.655   2.443
40887W        W 9292   7.231   6.411   1.717
40888W        W 9293  38.068  35.948   3.569
40889W        W 9294  34.852  33.939   1.954
40890W        W 9295  10.125  30.590   0.721
40891W        W 9296  16.670  12.335  10.558
40892W        W 9297  20.753   7.054  13.882
40893W        W 9298   8.262  29.729   0.227
40894W        W 9299  19.317  18.820  13.341
40895W        W 9300   3.574  20.328   1.173
40896W        W 9301  13.166  15.494  13.801
40897W        W 9302  28.214  22.782   0.659
40898W        W 9303  28.770  12.322  12.939
40899W        W 9304  23.463  43.362  10.551
40900W        W 9305  13.874  18.080   3.090
40901W        W 9306  16.289   9.696  12.117
40902W        W 9307  30.099   0.978   3.593
40903W        W 9308   5.975  25.378  11.300
40904W        W 9309  40.952  21.198   3.239
40905W        W 9310  42.840  44.006   2.712
40906W        W 9311   4.681  20.790  11.933
40907W        W 9312  29.504  16.681   0.279
40908W        W 9313  44.212  11.690   3.329
40909W        W 9314  37.013  18.808  14.607
40910W        W 9315  16.266  28.309   0.468
40911W        W 9316  28.423  42.961  13.114
40912W        W 9317   1.951   9.821  13.199
40913W        W 9318  35.152  30.631   5.014
40914W        W 9319  17.498  21.177  11.416
40915W        W 9320  11.349  13.803  12.627
40916W        W 9321   3.166  14.820   3.387
40917W        W 9322  44.673  35.484  12.407
40918W        W 9323  39.951  42.880   1.487
40919W        W 9324  12.626  39.056   3.151
40920W        W 9325  22.048  22.996   2.311
40921W        W 9326  38.661  18.719  13.131
40922W        W 9327  38.934  21.214   1.893
40923W        W 9328  20.651  26.991   0.894
40924W        W 9329   5.812  24.376   3.407
40925W        W 9330  18.758  25.124   4.558
40926W        W 9331   0.253  37.105  14.804
40927W        W 9332   4.939  20.829  12.402
40928W        W 9333   6.615  20.333   3.484
40929W        W 9334  22.649  16.531  11.085
40930W        W 9335  27.764  27.962  12.472
40931W        W 9336   9.314  34.651  11.871
40932W        W 9337  29.574   8.414   1.815
40933W        W 9338  43.888  34.395   1.186
40934W        W 9339   1.279  20.543  11.182
40935W        W 9340   7.379  19.068  11.217
40936W        W 9341  13.329  41.555   1.201
40937W        W 9342  31.636  41.428  12.753
40938W        W 9343   5.739   1.443  10.694
40939W        W 9344  40.028  36.544  14.834
40940W        W 9345  22.120   9.200  12.900
40941W        W 9346   3.755  44.492  14.210
40942W        W 9347  13.663   6.849   3.844
40943W        W 9348   2.948  43.705   3.679
40944W        W 9349   2.034  18.493  13.686
40945W        W 9350  23.635  31.085   2.147
40946W        W 9351  18.277   5.995  12.800
40947W        W 9352   8.321   5.340  11.027
40948W        W 9353  20.831  42.824   3.159
40949W        W 9354   1.988  29.071   0.432
40950W        W 9355  14.751  39.908  12.043
40951W        W 9356  23.681  17.574   4.976
40952W        W 9357   3.127   3.584   9.850
40953W        W 9358   4.791   5.010  14.069
40954W        W 9359  38.788  10.308  14.359
40955W        W 9360   8.820  42.754   1.397
40956W        W 9361  35.882   6.289  13.873
40957W        W 9362  11.797  32.486   4.860
40958W        W 9363  17.077  28.267   2.287
40959W        W 9364   4.048  24.981   3.254
40960W        W 9365  12.281   1.028   2.311
40961W        W 9366  23.558   8.049   1.720
40962W        W 9367  33.359  40.490   2.804
40963W        W 9368  35.830  17.756   2.228
40964W        W 9369  35.879  15.741   9.897
40965W        W 9370  10.067  37.333  12.198
40966W        W 9371  15.338  13.664  14.847
40967W        W 9372   1.539  26.405   1.340
40968W        W 9373  26.232  11.847   1.887
40969W        W 9374  25.252   5.335   3.325
40970W        W 9375  32.397  44.285  11.941
40971W        W 9376  36.888  35.528  14.955
40972W        W 9377  34.056  13.253   4.199
40973W        W 9378  38.150   0.452  12.463
40974W        W 9379  15.619  34.482  11.102
40975W        W 9380  33.351  21.038   2.802
40976W        W 9381  32.868  43.481  11.939
40977W        W 9382  29.165  21.478   1.772
40978W        W 9383  42.037  12.945   2.341
40979W        W 9384  18.257  35.111   2.367
40980W        W 9385  20.941  33.612   2.661
40981W        W 9386  35.113  28.910   4.081
40982W        W 9387  23.496   2.881   3.424
40983W        W 9388  25.627   2.799   4.426
40984W        W 9389   5.280  12.391   2.720
40985W        W 9390  27.504  31.086   1.682
40986W        W 9391  23.171  26.030   4.288
40987W        W 9392  10.782  17.300   3.633
40988W        W 9393  12.103   9.740  12.328
40989W        W 9394  40.831  17.913   4.190
40990W        W 9395  23.251   0.986   3.762
40991W        W 9396  41.167  30.509   0.369
40992W        W 9397  11.765  36.528  11.666
40993W        W 9398  39.392   5.805   5.471
40994W        W 9399  20.498  41.796   2.426
40995W        W 9400  30.611  21.397  13.921
40996W        W 9401   4.445   7.787   2.836
40997W        W 9402  26.001  20.085  13.294
40998W        W 9403   3.304  13.875   2.339
40999W        W 9404  15.548  14.002  13.107
41000W        W 9405  18.089  36.405   1.734
41001W        W 9406  17.494   4.526   4.240
41002W        W 9407   5.149   7.123   1.842
41003W        W 9408  19.621  14.853   0.282
41004W        W 9409  43.667  31.991   3.157
41005W        W 9410  16.763  29.522   2.871
41006W        W 9411   4.949  20.945   2.672
41007W        W 9412  16.343  17.050  11.127
41008W        W 9413  26.193   7.862   1.365
41009W        W 9414  38.895  42.555   3.165
41010W        W 9415  17.220  14.640  10.693
41011W        W 9416  15.992  35.492  10.944
41012W        W 9417  33.670  40.135   0.456
41013W        W 9418   1.845   7.943   3.280
41014W        W 9419  18.572  42.975   3.722
41015W        W 9420   8.042   4.978  13.560
41016W        W 9421  11.308   9.714   2.575
41017W        W 9422  10.193   6.833  11.601
41018W        W 9423  39.547   4.913  11.959
41019W        W 9424  12.065  33.936   0.756
41020W        W 9425   0.837  44.224   1.026
41021W        W 9426  42.887  36.947   2.349
41022W        W 9427   1.522  30.937  14.783
41023W        W 9428  35.101  19.236   4.234
41024W        W 9429  23.069   9.772  13.739
41025W        W 9430  39.544   2.288   1.135
41026W        W 9431  29.215  29.188   1.813
41027W        W 9432   3.103  36.495   0.944
41028W        W 9433  15.572  29.659  13.813
41029W        W 9434  17.867  10.583  14.983
41030W        W 9435  28.179  31.489   2.672
41031W        W 9436   3.045   7.172   3.793
41032W        W 9437   7.960   0.019  12.936
41033W        W 9438   2.320   5.512  13.245
41034W        W 9439  16.507  26.987  14.376
41035W        W 9440  31.458  41.476  12.181
41036W        W 9441  26.139  28.980  13.570
41037W        W 9442  30.015  30.141   1.888
41038W        W 9443  20.306   9.306   4.316
41039W        W 9444  11.770  13.822  13.320
41040W        W 9445  37.565  44.008   3.969
41041W        W 9446   3.358  32.047   2.747
41042W        W 9447  12.695  12.763   0.852
41043W        W 9448  10.586   5.802  12.054
41044W        W 9449  13.835  36.068  11.163
41045W        W 9450  21.950  17.354  12.055
41046W        W 9451  10.622  23.743  12.605
41047W        W 9452  14.442  26.882  11.166
41048W        W 9453  23.545  40.174  13.838
41049W        W 9454  41.695  44.837   2.581
41050W        W 9455  40.739   4.777   4.558
41051W        W 9456  42.855   7.862   2.540
41052W        W 9457  43.043  42.027   0.863
41053W        W 9458   1.951  39.096  14.271
41054W        W 9459  13.561   9.177   4.166
41055W        W 9460  40.335  33.026  10.389
41056W        W 9461  41.558  11.369   4.073
41057W        W 9462  44.516   7.198   0.665
41058W        W 9463  26.692  20.153   2.851
41059W        W 9464  19.738  39.343   3.244
41060W        W 9465  18.695  12.929   0.859
41061W        W 9466  23.099  29.605   2.777
41062W        W 9467  21.316  37.968  11.667
41063W        W 9468  39.490  13.786   4.654
41064W        W 9469  29.349  15.715   1.876
41065W        W 9470   8.931  44.920  11.136
41066W        W 9471  43.159  44.872  13.374
41067W        W 9472  36.086  35.636   4.579
41068W        W 9473  16.124   6.907  14.188
41069W        W 9474  25.868  17.713   2.623
41070W        W 9475  40.219   4.908  14.421
41071W        W 9476   3.222  22.308   1.446
41072W        W 9477  30.511  14.923   4.552
41073W        W 9478  20.510   0.927  11.477
41074W        W 9479  26.054   5.638  12.124
41075W        W 9480  14.725  13.597   3.769
41076W        W 9481  19.600  43.855  13.383
41077W        W 9482  13.035  20.268  11.007
41078W        W 9483   2.466  36.974   0.486
41079W        W 9484  23.028  29.018  10.477
41080W        W 9485  30.151  22.088  13.566
41081W        W 9486  37.963   2.344  14.776
41082W        W 9487   8.245   3.898   3.823
41083W        W 9488  42.544   8.716   1.912
41084W        W 9489  14.841  36.044   0.377
41085W        W 9490  26.789  18.783  10.718
41086W        W 9491  24.986  24.825  11.591
41087W        W 9492  10.039  12.768  14.415
41088W        W 9493  29.087  19.253   0.104
41089W        W 9494  26.959   3.771   3.604
41090W        W 9495   5.968  17.362  14.822
41091W        W 9496  34.742  14.798   2.869
41092W        W 9497  42.107  38.336   1.432
41093W        W 9498  34.088  42.182  14.861
41094W        W 9499  41.877  28.929   2.210
41095W        W 9500  20.094  20.474  14.010
41096W        W 9501  37.119  11.330   3.071
41097W        W 9502  11.748  32.051   2.218
41098W        W 9503  17.751  38.353   0.413
41099W        W 9504  30.905   0.353   1.399
41100W        W 9505   4.006   3.896   4.194
41101W        W 9506  44.722   8.806   1.238
41102W        W 9507   7.029   5.420  10.688
41103W        W 9508  32.404  36.129   2.261
41104W        W 9509   2.484  44.346   3.633
41105W        W 9510  32.240  36.389   0.728
41106W        W 9511   7.188   4.833   2.219
41107W        W 9512  33.006   3.897  11.168
41108W        W 9513  25.228   7.205   4.422
41109W        W 9514  39.035  12.778   0.721
41110W        W 9515   4.332  14.557  13.488
41111W        W 9516  14.302  37.491  12.377
41112W        W 9517  15.749   2.278  11.867
41113W        W 9518   7.914  22.504  13.049
41114W        W 9519  44.409  16.158   1.730
41115W        W 9520  14.022  32.340  12.944
41116W        W 9521  13.993   0.523  14.923
41117W        W 9522   6.731  41.325  11.567
41118W        W 9523  41.799  42.989  12.868
41119W        W 9524   4.453  26.003   1.631
41120W        W 9525  22.032  29.159   1.483
41121W        W 9526   8.769  22.601   4.576
41122W        W 9527   0.685  14.418  14.434
41123W        W 9528  12.524  40.646  14.003
41124W        W 9529  34.337  40.286  12.934
41125W        W 9530   6.353  41.132  14.787
41126W        W 9531  16.275  38.482   0.264
41127W        W 9532   0.430  34.100   2.425
41128W        W 9533  18.106  18.693  10.644
41129W        W 9534  30.073  43.794  10.491
41130W        W 9535  25.490   7.099  10.767
41131W        W 9536  36.033  38.228  11.152
41132W        W 9537  36.660  44.650   3.304
41133W        W 9538  30.983  10.747   2.923
41134W        W 9539  29.965  22.459   2.364
41135W        W 9540   9.534  34.344   1.936
41136W        W 9541  37.526  21.561  11.862
41137W        W 9542  16.305   5.187   0.738
41138W        W 9543   5.906  28.985  11.491
41139W        W 9544   8.914  39.355   3.658
41140W        W 9545   1.332  27.484  12.489
41141W        W 9546   5.754  37.124  12.498
41142W        W 9547  43.469  31.923  11.118
41143W        W 9548  40.009  30.585  14.749
41144W        W 9549   2.480   4.888   3.656
41145W        W 9550  38.144  27.502   3.642
41146W        W 9551  20.235  11.373   1.450
41147W        W 9552   5.599  19.111  12.507
41148W        W 9553   3.256  39.501  13.391
41149W        W 9554   5.344  29.997   1.007
41150W        W 9555  21.724  18.483   0.690
41151W        W 9556  42.404  43.645   4.622
41152W        W 9557  22.076  13.378   3.873
41153W        W 9558  15.617  29.836  12.638
41154W        W 9559  23.574  23.048   3.725
41155W        W 9560  28.347  34.523  12.442
41156W        W 9561  37.498  12.162  12.467
41157W        W 9562  29.471   3.867  13.613
41158W        W 9563  12.052  22.632   1.878
41159W        W 9564  24.701  32.418   4.257
41160W        W 9565   4.342  23.472   4.433
41161W        W 9566  16.317  23.101   4.293
41162W        W 9567   2.151   3.516  13.729
41163W        W 9568  11.349  33.947  13.316
41164W        W 9569  26.686   1.767  12.080
41165W        W 9570   5.585   3.259   3.651
41166W        W 9571  12.636  43.293   1.900
41167W        W 9572   4.659  17.198  14.993
41168W        W 9573   2.544  10.191   3.346
41169W        W 9574  18.141  18.781   2.322
41170W        W 9575   2.422   1.109  11.265
41171W        W 9576   8.389   7.829   0.458
41172W        W 9577  28.155   3.282  13.903
41173W        W 9578  41.850  13.946  13.300
41174W        W 9579  36.221  26.540  11.894
41175W        W 9580  22.609  36.080  14.743
41176W        W 9581  22.934  21.085  13.643
41177W        W 9582  34.926   1.778   2.398
41178W        W 9583  13.716  20.773   3.174
41179W        W 9584  26.125  37.523  10.621
41180W        W 9585  13.121  26.753  10.010
41181W        W 9586  26.456  33.405   2.919
41182W        W 9587  44.587  19.367   3.632
41183W        W 9588   2.218  10.411   0.957
41184W        W 9589  21.751  25.298  13.854
41185W        W 9590   0.410  19.681   1.515
41186W        W 9591   3.243   8.852  13.150
41187W        W 9592  18.913   9.408  14.901
41188W        W 9593  22.092   9.834   1.533
41189W        W 9594   2.443  12.615  11.569
41190W        W 9595  20.219  39.867  10.870
41191W        W 9596  13.720  27.976  13.484
41192W        W 9597   6.838  29.565  13.993
41193W        W 9598   2.742  35.916   3.650
41194W        W 9599  40.519   6.311  11.900
41195W        W 9600  23.851   1.445  11.417
41196W        W 9601  22.469  16.672  13.370
41197W        W 9602  39.141  24.904  14.527
41198W        W 9603   7.897  43.986  10.380
41199W        W 9604  23.081  37.483   2.598
41200W        W 9605  20.097  30.497   1.476
41201W        W 9606  22.152  18.702  10.665
41202W        W 9607  19.810   8.430  10.887
41203W        W 9608  11.112  35.832   2.848
41204W        W 9609   6.223   3.788  11.613
41205W        W 9610  10.720   7.578  12.086
41206W        W 9611   0.296  28.950   0.488
41207W        W 9612  20.153  36.025  13.566
41208W        W 9613   8.438  37.790  12.161
41209W        W 9614  17.342   0.305   1.986
41210W        W 9615  37.369   9.677   4.281
41211W        W 9616   1.726  41.828   0.784
41212W        W 9617  12.781   0.813  11.195
41213W        W 9618  28.048  22.004   3.693
41214W        W 9619   5.696  19.718   0.169
41215W        W 9620  22.121  20.727  10.834
41216W        W 9621   0.282  25.976  12.109
41217W        W 9622  27.954  36.803   0.356
41218W        W 9623  13.146  43.463   2.756
41219W        W 9624  42.512  18.758  10.562
41220W        W 9625  17.675  24.171  11.703
41221W        W 9626  36.634   1.579   1.380
41222W        W 9627  34.225  36.703   0.726
41223W        W 9628   3.335  24.328  11.459
41224W        W 9629   6.232  12.378  11.634
41225W        W 9630  22.193  35.179  13.844
41226W        W 9631   7.422   7.168   1.223
41227W        W 9632  42.336  22.201  12.973
41228W        W 9633  39.505   2.028   0.696
41229W        W 9634   5.632  17.663  12.549
41230W        W 9635  22.201  42.764  12.435
41231W        W 9636  14.162  36.570  13.813
41232W        W 9637  23.538  10.600  10.744
41233W        W 9638  23.043  40.883   1.270
41234W        W 9639   3.600  18.469   2.268
41235W        W 9640  32.028  14.338  12.029
41236W        W 9641  29.680  31.432  13.856
41237W        W 9642  13.929  10.229  12.498
41238W        W 9643  31.537  33.783   4.648
41239W        W 9644  15.320  10.763  12.408
41240W        W 9645  10.749  22.490  12.143
41241W        W 9646   4.148  40.844   4.117
41242W        W 9647  28.678  14.285  13.494
41243W        W 9648  12.056   9.377  13.038
41244W        W 9649   7.799  15.264  11.940
41245W        W 9650   5.818  38.734   4.885
41246W        W 9651  26.601  44.863   2.588
41247W        W 9652  18.799   7.700  12.137
41248W        W 9653  29.153  22.286  11.112
41249W        W 9654  37.623   5.471  11.101
41250W        W 9655   7.461  12.814  12.043
41251W        W 9656  20.050  34.052   4.759
41252W        W 9657   6.621  18.251   0.835
41253W        W 9658   5.771  42.249   1.712
41254W        W 9659  25.098  43.569   0.238
41255W        W 9660  27.588  19.475  12.046
41256W        W 9661  26.618  42.481  14.332
41257W        W 9662  31.896  10.339   2.842
41258W        W 9663   7.458  29.550  11.801
41259W        W 9664  19.570  34.983   3.726
41260W        W 9665  10.079  36.517   0.930
41261W        W 9666  21.757  16.128   1.767
41262W        W 9667  27.998  25.108   3.169
41263W        W 9668  32.431  13.907   4.640
41264W        W 9669  44.388  12.459  13.506
41265W        W 9670  23.543  26.431   4.225
41266W        W 9671  35.803  16.290  12.063
41267W        W 9672  19.776  16.217  12.203
41268W        W 9673  40.745  40.585  13.278
41269W        W 9674  33.141  31.359  12.045
41270W        W 9675  36.026   4.556  13.535
41271W        W 9676  28.604  17.069   4.115
41272W        W 9677  15.182  38.424  12.937
41273W        W 9678  26.890  36.646  14.861
41274W        W 9679  30.572  39.359  13.546
41275W        W 9680  26.408  11.786  11.008
41276W        W 9681  21.689  31.976   4.727
41277W        W 9682  20.718  28.669   1.430
41278W        W 9683  32.657  19.786  11.493
41279W        W 9684  11.447   4.552   3.845
41280W        W 9685  36.921  39.271   1.872
41281W        W 9686  44.850  14.894  13.159
41282W        W 9687  41.464  13.872  14.486
41283W        W 9688  31.885   6.657  11.688
41284W        W 9689  14.374  17.879   1.170
41285W        W 9690  10.329  17.045  12.565
41286W        W 9691   1.684  11.287  12.546
41287W        W 9692  42.002   0.664  11.844
41288W        W 9693  40.249  15.757   1.711
41289W        W 9694  14.641  42.983  11.445
41290W        W 9695  15.562  15.654  10.315
41291W        W 9696  29.021  38.364   0.465
41292W        W 9697   1.416  25.013  12.154
41293W        W 9698  27.941  41.029   1.538
41294W        W 9699  31.011  43.947  10.915
41295W        W 9700   5.495  29.749  12.213
41296W        W 9701   7.352  44.001  13.433
41297W        W 9702  23.192   1.488   0.634
41298W        W 9703   2.706  24.105   1.352
41299W        W 9704  34.001  17.989  12.958
41300W        W 9705   5.103  11.716  14.315
41301W        W 9706  31.383  21.670  13.362
41302W        W 9707  14.157   7.555  10.278
41303W        W 9708   7.927  36.512  11.237
41304W        W 9709  15.716  16.774  14.100
41305W        W 9710  30.361  17.623   1.938
41306W        W 9711  25.765  18.755   3.326
41307W        W 9712   6.854  42.263  11.465
41308W        W 9713   5.293  23.693   3.230
41309W        W 9714  40.071  31.838  11.630
41310W        W 9715  35.864  22.553   3.686
41311W        W 9716  42.080  29.899  11.688
41312W        W 9717   5.456   5.350   3.346
41313W        W 9718  14.411  16.838   0.678
41314W        W 9719  13.359  13.199  10.592
41315W        W 9720   1.883  30.486  10.711
41316W        W 9721  42.633  41.504   3.718
41317W        W 9722   0.512   3.305  14.560
41318W        W 9723  36.333  27.582  12.117
41319W        W 9724  39.569  13.515  11.718
41320W        W 9725  43.966   1.415  10.430
41321W        W 9726  14.842  31.315   4.088
41322W        W 9727  21.131  39.960  12.407
41323W        W 9728  39.074  37.057   4.411
41324W        W 9729   3.726  24.038   1.135
41325W        W 9730  40.377  18.206   2.882
41326W        W 9731  33.129  20.203  12.016
41327W        W 9732   4.004  15.985  12.324
41328W        W 9733  17.830  15.628   3.275
41329W        W 9734  32.142  13.957  11.651
41330W        W 9735  31.351  41.062  10.511
41331W        W 9736  42.714  26.437   0.971
41332W        W 9737  42.520  16.172   1.167
41333W        W 9738  19.111  34.867  10.568
41334W        W 9739  13.286  10.376   3.721
41335W        W 9740  33.110  19.584   2.258
41336W        W 9741  34.981   2.522   3.454
41337W        W 9742  19.739  44.773   0.705
41338W        W 9743   8.285  24.703   2.190
41339W        W 9744   0.380  25.694   1.443
41340W        W 9745  25.267  34.892  10.619
41341W        W 9746  18.524  12.367   3.774
41342W        W 9747  17.628  11.923   0.341
41343W        W 9748  10.273  14.932   1.266
41344W        W 9749   9.948  32.019   1.910
41345W        W 9750  15.864  31.958   3.794
41346W        W 9751  10.314  41.561  12.978
41347W        W 9752  13.106  23.045  12.950
41348W        W 9753  26.404  40.018   5.486
41349W        W 9754  31.451  14.414   3.795
41350W        W 9755  14.525  15.346   4.133
41351W        W 9756   5.560  21.086  14.878
41352W        W 9757  10.783  22.241   0.221
41353W        W 9758  44.038   3.963   2.136
41354W        W 9759  38.636   4.214  13.959
41355W        W 9760  11.319  29.969  11.386
41356W        W 9761  44.418  25.251   2.147
41357W        W 9762  34.137  33.412  14.830
41358W        W 9763   9.164   3.652   2.266
41359W        W 9764  19.421   6.426   3.812
41360W        W 9765  13.113   4.644   4.102
41361W        W 9766   7.270  35.231  14.791
41362W        W 9767   9.195   6.495   1.865
41363W        W 9768  23.717  31.007   1.182
41364W        W 9769  30.105  24.126  12.922
41365W        W 9770  24.363  26.013  11.319
41366W        W 9771  34.668  41.491  11.080
41367W        W 9772  22.020  11.737   0.621
41368W        W 9773   1.638  32.373  10.780
41369W        W 9774  20.813  32.080  12.978
41370W        W 9775  22.223  35.103  11.485
41371W        W 9776  36.125  22.617   1.706
41372W        W 9777  37.605  32.836  14.563
41373W        W 9778  38.913  30.845  10.695
41374W        W 9779   5.934  17.312   3.728
41375W        W 9780   3.111  15.230   2.626
41376W        W 9781   8.599  20.750  12.132
41377W        W 9782  34.071  43.182  11.963
41378W        W 9783   7.222  43.175  14.477
41379W        W 9784  33.391  13.809   3.806
41380W        W 9785  35.148  13.114  11.094
41381W        W 9786  19.645  41.725  14.991
41382W        W 9787   7.164  25.583   4.591
41383W        W 9788   3.474  25.014   1.944
41384W        W 9789  24.591  16.299  13.461
41385W        W 9790   7.128  26.183   0.455
41386W        W 9791  34.640  17.904  10.516
41387W        W 9792  21.335  27.133  11.361
41388W        W 9793  13.762   4.230   4.651
41389W        W 9794  14.303  16.349   2.384
41390W        W 9795  40.975  10.677  11.539
41391W        W 9796  22.750  43.746   4.757
41392W        W 9797  15.767  39.874   2.774
41393W        W 9798  37.862  10.868  12.402
41394W        W 9799  10.665  40.751  13.809
41395W        W 9800  14.257  20.762  11.950
41396W        W 9801  20.600   2.200  14.738
41397W        W 9802   3.541  43.078   2.387
41398W        W 9803  25.366   7.296   4.916
41399W        W 9804   0.540  17.241  13.478
41400W        W 9805  28.378  10.102   0.979
41401W        W 9806  21.030  19.087  12.331
41402W        W 9807  19.671  42.617  11.496
41403W        W 9808  43.319  17.168   3.233
41404W        W 9809   7.269   1.494   4.292
41405W        W 9810  34.939  26.409   4.080
41406W        W 9811   7.491  15.352  12.560
41407W        W 9812   0.939   2.235  12.915
41408W        W 9813  31.891  36.023   1.655
41409W        W 9814  42.749  18.111   0.417
41410W        W 9815  39.264  18.309  12.454
41411W        W 9816  34.176   0.815  11.518
41412W        W 9817  39.263  33.988  13.099
41413W        W 9818  42.066   2.442   2.592
41414W        W 9819  19.185  34.407   4.259
41415W        W 9820  41.897  17.056   2.482
41416W        W 9821  32.794  17.409   2.731
41417W        W 9822  17.296  32.897   1.807
41418W        W 9823  37.877  14.288  13.842
41419W        W 9824  22.455  33.114   4.185
41420W        W 9825   9.753  11.367   3.971
41421W        W 9826  26.181  13.947   0.492
41422W        W 9827  31.042  16.402   2.900
41423W        W 9828  32.710   3.464  12.248
41424W        W 9829  42.492   8.612  14.615
41425W        W 9830  31.874   7.877  12.515
41426W        W 9831  27.626  43.410   0.867
41427W        W 9832  41.845  35.132  13.481
41428W        W 9833  37.248  26.062   2.714
41429W        W 9834  24.685  29.513  11.590
41430W        W 9835  37.563  13.579   0.289
41431W        W 9836   9.256  16.298  11.669
41432W        W 9837  37.954  15.178   2.701
41433W        W 9838  33.425  32.081   0.686
41434W        W 9839  44.458  31.374  13.295
41435W        W 9840  23.782  34.605   0.334
41436W        W 9841  11.468  11.166   2.699
41437W        W 9842  43.875   8.909  12.072
41438W        W 9843  37.164  11.328  11.924
41439W        W 9844  30.818  20.236  13.820
41440W        W 9845  12.010  29.527   1.256
41441W        W 9846  40.983  10.245   4.195
41442W        W 9847  42.298  23.462  12.512
41443W        W 9848   5.303  35.784  14.011
41444W        W 9849  37.869  29.717  10.670
41445W        W 9850  13.043   7.400   2.745
41446W        W 9851   3.975  36.740   0.491
41447W        W 9852  20.196   9.316   2.535
41448W        W 9853  21.019  12.111   2.814
41449W        W 9854  13.320   1.249   1.740
41450W        W 9855  26.324  32.339  12.131
41451W        W 9856  42.308  21.219  13.104
41452W        W 9857  33.053  32.087   1.397
41453W        W 9858  31.436  35.257   0.284
41454W        W 9859   3.329  21.292   0.293
41455W        W 9860   8.376   2.758  11.137
41456W        W 9861  32.954   7.322   1.230
41457W        W 9862  35.936  22.768  11.499
41458W        W 9863  40.804  13.752   4.597
41459W        W 9864  26.612   4.454  14.881
41460W        W 9865  25.577  19.715   0.701
41461W        W 9866  14.049  23.150  14.536
41462W        W 9867  30.975  39.373   3.973
41463W        W 9868  36.899  44.362  13.037
41464W        W 9869   9.330   7.449   4.654
41465W        W 9870  26.936   9.670  14.661
41466W        W 9871  19.040   9.385   5.017
41467W        W 9872  22.690  22.124   3.271
41468W        W 9873   8.517  19.205  10.306
41469W        W 9874  23.459  21.125  10.009
41470W        W 9875  32.983  11.757   3.970
41471W        W 9876   4.859  14.818  10.538
41472W        W 9877  39.388   7.453   3.259
41473W        W 9878  41.594   1.292  13.765
41474W        W 9879  10.824   1.556  13.482
41475W        W 9880  25.080  34.796   4.840
41476W        W 9881  18.234   6.209  12.323
41477W        W 9882  21.795  42.519   0.888
41478W        W 9883   2.335   8.155   3.180
41479W        W 9884  42.287  42.866   0.740
41480W        W 9885  15.327  31.535  14.410
41481W        W 9886  12.206  25.956  13.783
41482W        W 9887  25.088  22.091  14.358
41483W        W 9888  38.117   3.264   2.709
41484W        W 9889   3.199   8.797   2.483
41485W        W 9890   9.634   0.031  11.637
41486W        W 9891   8.801  32.479  11.925
41487W        W 9892  20.338  29.916   4.123
41488W        W 9893  38.715  38.902   1.202
41489W        W 9894  40.372  33.806   3.579
41490W        W 9895  24.920  33.624   2.628
41491W        W 9896  10.885   8.920  14.946
41492W        W 9897  23.769  43.246   2.807
41493W        W 9898  41.594  19.075   3.650
41494W        W 9899  14.441  30.126  10.434
41495W        W 9900   4.475   2.018  12.938
41496W        W 9901  36.417  42.876  12.744
41497W        W 9902  40.245  12.815   5.235
41498W        W 9903  44.618  27.493   4.571
41499W        W 9904  44.940   4.881  12.692
41500W        W 9905  27.164   4.520  11.159
41501W        W 9906  22.930   0.947   1.312
41502W        W 9907   2.955  40.100  10.723
41503W        W 9908  20.530  38.976  13.779
41504W        W 9909  26.530  13.690  12.092
41505W        W 9910  19.996  39.291   4.179
41506W        W 9911  25.357  36.814  14.356
41507W        W 9912  21.473  13.202  11.521
41508W        W 9913  40.308  34.103   0.856
41509W        W 9914  28.154  15.064  11.636
41510W        W 9915   9.254  18.641  13.089
41511W        W 9916  12.863  21.437  11.254
41512W        W 9917   1.258  22.970   0.970
41513W        W 9918   6.175  24.210  13.830
41514W        W 9919  11.252  34.914  10.631
41515W        W 9920  44.070  12.217  12.056
41516W        W 9921  36.319  42.926  11.493
41517W        W 9922  25.859  40.763  13.959
41518W        W 9923  42.361  39.766  12.561
41519W        W 9924  17.098  11.182  14.391
41520W        W 9925   7.169  38.333  11.768
41521W        W 9926  29.886  10.417   3.628
41522W        W 9927  11.800  35.441   4.596
41523W        W 9928  16.236  15.555  11.390
41524W        W 9929  42.911   5.299  11.570
41525W        W 9930  26.442  18.517   4.253
41526W        W 9931  27.517   9.396   1.764
41527W        W 9932  16.673  23.187   3.609
41528W        W 9933  40.736  35.906  13.072
41529W        W 9934  10.776   2.645  11.609
41530W        W 9935  24.607  26.292  10.236
41531W        W 9936   1.938  11.778  12.532
41532W        W 9937  22.534  17.035   2.123
41533W        W 9938  41.262  23.145   0.562
41534W        W 9939  42.679   9.133  12.966
41535W        W 9940  22.233  44.346   1.528
41536W        W 9941  15.880   1.783   1.870
41537W        W 9942  13.376  16.742   2.780
41538W        W 9943  15.819  27.585  12.180
41539W        W 9944  35.283  23.057  14.939
41540W        W 9945   1.662  22.708   0.760
41541W        W 9946   9.373   8.168  11.057
41542W        W 9947  42.363  36.663   4.152
41543W        W 9948  29.144   4.660   1.362
41544W        W 9949  20.193  22.208  14.479
41545W        W 9950  34.129  14.685   0.687
41546W        W 9951  42.782   8.180  14.398
41547W        W 9952  35.602   8.604  14.247
41548W        W 9953  24.959  17.215   4.657
41549W        W 9954  37.814   0.143  10.620
41550W        W 9955   4.909  41.813  13.553
41551W        W 9956  18.691  30.806  12.964
41552W        W 9957   6.536  42.842  13.491
41553W        W 9958  23.007  15.184  10.525
41554W        W 9959  42.006  30.610  12.475
41555W        W 9960   5.376  33.967  12.089
41556W        W 9961  17.472  27.090  11.091
41557W        W 9962  11.635  31.112  11.115
41558W        W 9963  32.577  23.054   4.732
41559W        W 9964   6.952  24.743  11.001
41560W        W 9965  12.759  41.294   3.720
41561W        W 9966  10.205  44.939   3.411
41562W        W 9967  29.089   7.837  11.125
41563W        W 9968  11.793   0.329   0.033
41564W        W 9969  33.391  31.769   3.329
41565W        W 9970  19.256  15.122  13.067
41566W        W 9971   7.144  15.839   1.098
41567W        W 9972  25.296  34.013   1.741
41568W        W 9973   8.392  23.655   3.999
41569W        W 9974   8.669  37.075  13.000
41570W        W 9975  34.359  27.243   0.658
41571W        W 9976  40.932  37.561  14.321
41572W        W 9977  31.418  20.648  12.290
41573W        W 9978  25.759  33.982   3.823
41574W        W 9979  25.744   3.707   2.330
41575W        W 9980  21.495  18.161  13.278
41576W        W 9981  12.859  42.670  14.903
41577W        W 9982   2.010  42.843   0.254
41578W        W 9983  18.623   0.017   2.257
41579W        W 9984  41.086  34.447  11.017
41580W        W 9985   5.319  41.795  11.151
41581W        W 9986  18.024  12.148  13.386
41582W        W 9987   1.415  25.835   2.074
41583W        W 9988  18.275  36.051   1.156
41584W        W 9989  17.094   1.052  13.077
41585W        W 9990  38.433  30.843  14.495
41586W        W 9991   7.711   0.323  10.676
41587W        W 9992  17.112  18.015   3.317
41588W        W 9993  39.098   2.654  12.868
41589W        W 9994  12.513  30.867   3.268
41590W        W 9995   1.997  14.312  14.370
41591W        W 9996   0.023   1.894   0.686
41592W        W 9997   4.140  34.545   0.779
41593W        W 9998  36.407   8.357  13.486
41594W        W 9999  43.009  12.856  13.332
41595W        W10000   4.734  28.728   5.054
41596W        W10001   8.120  28.148   4.023
41597W        W10002   8.384  43.928   2.812
41598W        W10003   3.779  16.116  14.870
41599W        W10004  20.946  11.301  11.236
41600W        W10005  21.837   0.370  14.882
41601W        W10006  23.239  14.687   3.646
41602W        W10007  37.885  36.952  11.060
41603W        W10008  13.061   0.923  11.622
41604W        W10009  38.843  43.670  12.684
41605W        W10010   3.128  19.008  13.432
41606W        W10011  40.454  33.444  11.410
41607W        W10012  14.273  21.965   3.250
41608W        W10013  16.068  22.500  13.504
41609W        W10014  20.097   0.195   0.346
41610W        W10015  38.301  37.941   4.523
41611W        W10016  19.691   3.228   3.373
41612W        W10017  23.628  22.659   2.592
41613W        W10018  11.831   4.261  12.356
41614W        W10019  39.912  28.921  10.546
41615W        W10020  31.603  37.539  10.554
41616W        W10021   4.369  43.819   4.662
41617W        W10022  31.890   2.274   4.253
41618W        W10023  38.768  36.724  13.774
41619W        W10024  42.223  24.721  12.009
41620W        W10025  21.062  34.142   0.335
41621W        W10026  12.554   3.018  13.494
41622W        W10027  41.982   5.883  11.450
41623W        W10028  24.522  41.579  12.628
41624W        W10029  17.305   3.520  13.797
41625W        W10030  15.271  33.409  14.760
41626W        W10031   0.952  10.402   0.038
41627W        W10032  36.634  13.404  11.138
41628W        W10033   7.194  31.298   1.621
41629W        W10034  21.578   9.427  14.565
41630W        W10035  40.940  34.778  12.319
41631W        W10036  40.863   6.414   1.422
41632W        W10037   9.081  20.002  13.378
41633W        W10038  29.006   6.361  14.970
41634W        W10039  39.760  10.073   3.723
41635W        W10040  28.935   4.465   4.126
41636W        W10041  10.340  43.054  10.270
41637W        W10042  34.425  20.209  11.635
41638W        W10043   7.678  42.398  13.024
41639W        W10044  43.416   0.326   2.848
41640W        W10045  20.140  36.553   4.637
41641W        W10046  29.906   2.312   4.370
41642W        W10047  17.594  18.128  14.370
41643W        W10048  42.588  36.072   2.359
41644W        W10049  42.858  36.074  13.641
41645W        W10050  14.149  39.938  14.483
41646W        W10051  25.634  24.033   2.410
41647W        W10052  37.679   1.415  10.660
41648W        W10053  42.389  25.300   3.199
41649W        W10054  35.460  19.913  12.125
41650W        W10055  15.094  19.176  14.622
41651W        W10056   4.765  32.250   0.820
41652W        W10057  10.938  21.098  13.388
41653W        W10058  18.105   7.392   4.037
41654W        W10059  27.338   5.409  10.695
41655W        W10060  33.391  11.746   1.757
41656W        W10061  43.785  18.215   4.400
41657W        W10062  10.861  33.887  13.947
41658W        W10063  18.355   3.836   5.034
41659W        W10064   0.193  28.731  14.722
41660W        W10065  28.637  14.331   2.274
41661W        W10066  40.929   4.945  13.814
41662W        W10067  27.996  39.382   3.348
41663W        W10068  36.833  42.865  11.498
41664W        W10069  12.942   1.685  13.724
41665W        W10070   9.649  31.525   1.722
41666W        W10071   1.742  44.250   0.503
41667W        W10072  32.118  40.377  11.472
41668W        W10073   8.085   1.441   3.726
41669W        W10074  35.110  31.112   3.247
41670W        W10075  14.194   4.861   5.042
41671W        W10076  20.130  42.680  11.240
41672W        W10077   2.293  10.909   0.965
41673W        W10078  43.772   0.838  14.025
41674W        W10079  25.539  10.120  11.071
41675W        W10080  24.798  10.708  14.271
41676W        W10081  38.185   5.662   4.202
41677W        W10082  42.654   2.745   0.363
41678W        W10083  37.485  32.284   0.433
41679W        W10084  12.400   1.524   2.447
41680W        W10085  20.661  10.559  10.604
41681W        W10086  31.028  21.493   3.240
41682W        W10087  23.933   3.203  13.788
41683W        W10088  16.837  39.283   0.678
41684W        W10089  11.643  36.972   4.385
41685W        W10090  18.315  12.212  14.874
41686W        W10091  22.491   3.544   3.755
41687W        W10092  32.615  43.168  11.607
41688W        W10093  26.493  39.930   4.606
41689W        W10094  26.088  10.611   1.825
41690W        W10095  10.994  12.924  12.257
41691W        W10096  14.282  28.677   2.457
41692W        W10097   2.696  30.353   0.929
41693W        W10098  13.677  40.130  12.379
41694W        W10099  35.423  30.564  10.721
41695W        W10100  31.567  34.393   2.815
41696W        W10101   8.786  19.056   2.369
41697W        W10102  26.429   5.263  14.384
41698W        W10103  44.424   6.284   4.524
41699W        W10104  20.269  10.759   0.174
41700W        W10105  42.638  43.266   2.026
41701W        W10106  42.491  18.594  11.062
41702W        W10107  18.835  23.634  12.067
41703W        W10108  17.109  27.588  13.223
41704W        W10109  21.218  12.678  10.234
41705W        W10110  29.068  12.783   3.279
41706W        W10111  43.965  13.731  14.753
41707W        W10112  31.871  42.799   3.662
41708W        W10113   4.202   8.829   0.823
41709W        W10114  30.127  35.748  11.141
41710W        W10115  36.531   0.757  13.516
41711W        W10116  34.886  26.431  13.490
41712W        W10117  34.949  19.807  12.154
41713W        W10118  14.150  19.024  11.565
41714W        W10119  35.486  40.838  13.441
41715W        W10120  20.501  19.252   3.379
41716W        W10121  37.616  34.114  13.443
41717W        W10122   6.762  34.969  13.505
41718W        W10123  30.493  25.686  13.408
41719W        W10124  21.596  19.180   3.564
41720W        W10125  21.505   8.432  12.043
41721W        W10126  29.739  16.233   2.593
41722W        W10127  22.690  17.162   2.617
41723W        W10128   4.258  27.139   2.241
41724W        W10129  25.591  17.612  10.587
41725W        W10130   4.977   9.237   0.886
41726W        W10131   7.746   2.362  14.375
41727W        W10132   0.421   1.972  10.951
41728W        W10133  12.269  32.714   3.209
41729W        W10134   1.375  31.563   0.970
41730W        W10135   2.339  26.281   3.298
41731W        W10136  17.190  36.600   2.101
41732W        W10137   5.521   2.306  14.885
41733W        W10138  38.849   2.436  12.452
41734W        W10139  43.265  35.095  13.419
41735W        W10140  22.938  43.128   2.734
41736W        W10141   1.725  38.781  10.475
41737W        W10142  17.611  40.239   0.406
41738W        W10143  28.509  23.985  14.350
41739W        W10144  28.145  23.295   0.648
41740W        W10145  10.139  38.003  14.942
41741W        W10146  24.664   8.084  11.924
41742W        W10147  15.551  22.003   2.957
41743W        W10148  23.676  43.075  14.448
41744W        W10149  19.209  29.122  13.336
41745W        W10150  24.050  17.224  11.234
41746W        W10151  34.609  26.733   1.666
41747W        W10152  27.322  33.411   0.201
41748W        W10153   4.748  30.617  14.524
41749W        W10154  36.185  39.548   4.381
41750W        W10155  18.509  18.221   3.330
41751W        W10156  10.619  15.265  10.793
41752W        W10157  36.172  40.921  14.038
41753W        W10158   9.064  37.429   4.458
41754W        W10159  39.587  30.464   2.358
41755W        W10160  26.781   2.505   1.247
41756W        W10161   9.410  44.460   2.429
41757W        W10162  24.159  41.035  10.495
41758W        W10163  22.527  15.566  11.050
41759W        W10164  16.084   2.244   4.082
41760W        W10165  44.188  44.964  14.491
41761W        W10166  43.345  25.601  10.437
41762W        W10167  44.688  20.494   1.691
41763W        W10168   5.249  36.960   1.588
41764W        W10169   6.117  12.653  12.966
41765W        W10170   0.735  16.234   4.076
41766W        W10171  13.159  29.845  14.918
41767W        W10172  19.718  33.539   4.052
41768W        W10173  26.096  13.229  11.080
41769W        W10174  26.209  43.415  14.762
41770W        W10175   0.536  33.343  13.924
41771W        W10176  19.523   5.984   4.695
41772W        W10177  10.602  42.942   1.259
41773W        W10178  31.398  13.627  12.903
41774W        W10179  40.209  11.751   5.006
41775W        W10180  31.022  11.561   0.041
41776W        W10181  42.025  44.279  10.622
41777W        W10182  14.257  28.624  14.771
41778W        W10183   6.708  15.111   0.950
41779W        W10184  15.098  19.223  11.640
41780W        W10185  36.599   3.023  12.330
41781W        W10186   9.519  31.673   5.564
41782W        W10187  24.952  12.090   3.815
41783W        W10188  22.296   6.005   0.891
41784W        W10189   2.215  10.176  14.392
41785W        W10190  11.634   9.879  10.728
41786W        W10191  30.462  21.103  10.888
41787W        W10192  27.649  22.833  13.553
41788W        W10193  14.945  40.307  11.044
41789W        W10194  30.424   7.353   1.932
41790W        W10195  13.591  43.385  13.031
41791W        W10196  14.740  16.246  12.991
41792W        W10197   8.226  20.037  12.631
41793W        W10198  20.567   6.885   4.833
41794W        W10199   0.365  11.189   2.801
41795W        W10200  20.273   5.170  11.687
41796W        W10201  31.544  28.490   4.567
41797W        W10202  22.498  36.166  13.853
41798W        W10203  22.346  39.870   1.184
41799W        W10204  18.296  27.084   1.359
41800W        W10205  35.470  16.627   4.065
41801W        W10206  43.202  30.407   1.488
41802W        W10207  24.509  27.289   4.219
41803W        W10208  28.393   9.101  12.076
41804W        W10209  15.056  29.587  13.043
41805W        W10210  42.775  18.593   4.068
41806W        W10211  14.165  29.064   4.238
41807W        W10212  34.612   2.660  13.023
41808W        W10213  43.552   0.230   1.390
41809W        W10214   6.324  31.347   4.682
41810W        W10215  40.821  23.702  13.032
41811W        W10216  11.898  23.156  11.537
41812W        W10217  41.949  19.338  12.704
41813W        W10218  37.030  40.782   4.197
41814W        W10219  37.301  33.816   3.225
41815W        W10220  14.822  26.834  11.591
41816W        W10221  37.082  11.375   0.777
41817W        W10222  17.803  43.338   4.607
41818W        W10223   6.992  10.721  14.429
41819W        W10224  17.043  38.513   1.986
41820W        W10225  34.932  18.661   3.503
41821W        W10226   3.804  40.866   1.160
41822W        W10227   5.425   1.425   5.021
41823W        W10228  19.289   9.619  11.472
41824W        W10229  39.843  34.131  11.588
41825W        W10230  13.712   2.668  14.529
41826W        W10231  27.201   8.702   0.318
41827W        W10232  29.917  36.996  11.411
41828W        W10233   0.273  44.564   1.302
41829W        W10234  38.867  19.236   4.395
41830W        W10235  10.904  21.185   3.212
41831W        W10236   1.426  30.506   4.149
41832W        W10237  16.485  13.526   3.760
41833W        W10238  15.750  11.495   4.538
41834W        W10239  22.167   1.520   4.259
41835W        W10240   9.320  38.494   1.005
41836W        W10241  43.765  28.199   0.303
41837W        W10242   5.396  36.799   0.226
41838W        W10243  16.837  33.915  14.928
41839W        W10244  24.901   9.240  13.115
41840W        W10245  34.603  10.412   1.225
41841W        W10246  20.782  17.555   0.694
41842W        W10247   9.703   2.896   3.393
41843W        W10248  16.012  14.455   4.736
41844W        W10249  34.817  31.146  14.823
41845W        W10250  32.052  12.948   0.810
41846W        W10251   7.275  41.814   4.534
41847W        W10252  22.898   6.753  12.975
41848W        W10253  26.681  33.369   4.535
41849W        W10254  20.432  14.681   4.253
41850W        W10255  13.350  42.091   1.114
41851W        W10256  35.642  26.104  11.154
41852W        W10257  32.838  14.408  14.076
41853W        W10258  11.082  39.590   2.894
41854W        W10259  10.594  12.950  13.545
41855W        W10260  42.276  26.108  13.547
41856W        W10261  39.572  18.325  12.897
41857W        W10262   2.062  19.224  13.113
41858W        W10263  25.956  17.786   1.246
41859W        W10264  26.006  22.783  10.745
41860W        W10265   9.627  35.995  14.520
41861W        W10266  28.029   9.454   1.573
41862W        W10267  34.451  44.601   2.296
41863W        W10268   6.931  27.488  11.548
41864W        W10269  22.946   7.933   2.316
41865W        W10270  43.786  28.532  11.991
41866W        W10271  17.117  39.017   3.662
41867W        W10272   5.310  31.757  11.042
41868W        W10273  25.527  15.167  14.964
41869W        W10274  28.996  15.018  11.735
41870W        W10275  42.807  14.594   3.954
41871W        W10276  14.342  30.908  11.944
41872W        W10277   2.800  25.948  12.931
41873W        W10278  24.498   2.304   2.815
41874W        W10279  13.460  21.741   3.887
41875W        W10280   0.024  41.975   3.243
41876W        W10281   9.739  15.554  10.923
41877W        W10282   7.905   7.826  11.447
41878W        W10283  14.211  27.872  14.315
41879W        W10284  31.835  24.191   4.673
41880W        W10285  19.186  24.772   2.813
41881W        W10286   7.830  23.618  13.477
41882W        W10287  27.903  27.957  11.630
41883W        W10288   7.840  17.713  13.364
41884W        W10289  31.205   2.204   2.285
41885W        W10290   5.872   0.564   4.670
41886W        W10291  28.161  17.308   3.727
41887W        W10292   4.171  30.835  13.416
41888W        W10293  11.802   5.257  11.911
41889W        W10294   1.768  30.204  14.338
41890W        W10295  14.712  29.835   2.357
41891W        W10296  34.088  39.265  13.992
41892W        W10297  18.059  24.306   4.113
41893W        W10298  22.758  18.299  11.098
41894W        W10299  13.716   8.177   4.394
41895W        W10300   3.535  36.288  11.925
41896W        W10301  11.134  37.628   2.691
41897W        W10302  14.638  16.611   0.270
41898W        W10303  43.728   1.769   0.990
41899W        W10304  42.548  43.181  11.095
41900W        W10305   4.280   5.276  11.285
41901W        W10306   9.648  40.934   4.625
41902W        W10307  38.170  38.560  11.479
41903W        W10308  29.708  30.656  12.104
41904W        W10309  14.178   8.216  12.079
41905W        W10310  16.702  22.121  13.952
41906W        W10311  14.099  27.691  13.841
41907W        W10312  16.516  23.932  12.666
41908W        W10313  27.069   2.905   3.714
41909W        W10314   5.516  37.706   0.471
41910W        W10315   6.920   2.494  13.545
41911W        W10316   4.939   2.789  13.303
41912W        W10317  20.100  23.105  13.335
41913W        W10318  13.682  31.472  14.843
41914W        W10319  23.118   7.996  11.524
41915W        W10320  25.220  18.197  12.651
41916W        W10321   3.305  36.616  12.359
41917W        W10322  16.807  21.121   0.854
41918W        W10323  25.188  28.513   4.085
41919W        W10324  13.186  24.716  12.392
41920W        W10325  27.978  29.200   0.576
41921W        W10326   4.768  32.918  11.027
41922W        W10327  26.827  38.814  11.185
41923W        W10328  12.748  32.933  10.286
41924W        W10329   2.393  17.656   0.695
41925W        W10330   3.717   3.925   1.078
41926W        W10331  15.830  38.078  11.808
41927W        W10332  44.898  29.657  12.771
41928W        W10333  32.190  34.879   0.233
41929W        W10334  32.024  17.634   3.861
41930W        W10335   6.204   5.753  12.618
41931W        W10336  36.457  39.424   1.648
41932W        W10337  38.735   2.402   4.744
41933W        W10338  40.782   3.432  10.219
41934W        W10339  31.301  33.892   4.183
41935W        W10340  12.822  26.034   3.721
41936W        W10341  17.180  24.622  13.011
41937W        W10342  26.416  36.459  13.538
41938W        W10343  42.984  22.798  11.613
41939W        W10344  27.947  27.417   3.258
41940W        W10345  22.518  21.659  11.653
41941W        W10346  25.584  42.764  12.513
41942W        W10347  12.681  30.971   3.749
41943W        W10348  24.577  15.917   4.092
41944W        W10349  23.636  13.124   3.339
41945W        W10350  44.374   8.077  12.836
41946W        W10351  19.149  29.624  10.967
41947W        W10352  31.510  35.144   4.043
41948W        W10353   2.106  43.958  14.716
41949W        W10354  10.408  13.730   4.587
41950W        W10355  44.515  35.555   2.228
41951W        W10356  16.997  23.806   1.171
41952W        W10357  14.574  31.436  11.144
41953W        W10358  15.638  39.904  13.036
41954W        W10359  24.191  40.538   4.719
41955W        W10360  32.124  26.925   2.807
41956W        W10361  20.743  21.560  13.288
41957W        W10362  13.723   4.169   2.191
41958W        W10363  26.499  26.801   2.880
41959W        W10364  20.684  21.470  14.934
41960W        W10365  17.013  31.904  10.523
41961W        W10366   5.206   7.780   3.829
41962W        W10367   0.476  30.731  12.075
41963W        W10368  35.746  40.806  11.227
41964W        W10369  36.400  18.622  14.328
41965W        W10370  11.407  32.690  10.888
41966W        W10371  39.836  29.765  12.130
41967W        W10372  17.219   9.583   5.021
41968W        W10373  28.159  13.837  12.166
41969W        W10374  10.190  24.756   4.236
41970W        W10375  33.361   8.764   0.142
41971W        W10376  16.303  27.230  14.786
41972W        W10377   5.268   4.722   2.449
41973W        W10378   5.796  18.040  14.023
41974W        W10379  27.138  13.220  12.587
41975W        W10380   0.356  33.534  11.312
41976W        W10381   0.281  26.560  11.476
41977W        W10382   1.137  12.333  12.081
41978W        W10383  43.376   4.333  12.010
41979W        W10384  44.773  18.314   0.875
41980W        W10385  23.427  37.588   3.586
41981W        W10386  21.787  42.834   4.478
41982W        W10387  25.616   9.302  12.064
41983W        W10388  37.423  33.309  14.481
41984W        W10389  36.555  27.160  14.431
41985W        W10390  40.069  30.544   5.021
41986W        W10391  25.234  38.757   2.086
41987W        W10392  23.997  26.733  12.540
41988W        W10393  19.302  44.341  14.790
41989W        W10394   9.201  32.739  10.171
41990W        W10395  21.508  42.420   3.426
41991W        W10396  26.396  13.618  13.371
41992W        W10397  18.611  36.060  11.637
41993W        W10398  27.676   9.793  13.754
41994W        W10399  15.485  38.371  13.856
41995W        W10400   5.025  31.938   0.473
41996W        W10401  27.141  13.372   2.486
41997W        W10402  31.665  11.482   3.726
41998W        W10403  43.980   6.087   4.246
41999W        W10404  18.596   2.235  12.824
42000W        W10405  14.821  44.737  12.939
42001W        W10406  15.755  36.342  10.969
42002W        W10407  15.819  44.794  11.877
42003W        W10408  41.310  44.513   3.350
42004W        W10409  34.143  22.493   3.889
42005W        W10410  27.456  28.380   0.962
42006W        W10411  33.788  33.452  11.189
42007W        W10412  16.204  25.699  12.986
42008W        W10413  15.348  13.358  14.400
42009W        W10414   6.786  17.809   5.194
42010W        W10415  43.911  20.573   1.007
42011W        W10416  34.790  18.279  13.477
42012W        W10417  16.234  24.962   0.358
42013W        W10418  38.336  34.065   1.785
42014W        W10419  23.042  19.754  12.891
42015W        W10420  21.124  19.341  14.844
42016W        W10421   5.797  28.963   4.262
42017W        W10422   7.711  43.898  11.931
42018W        W10423  19.062  37.632   4.554
42019W        W10424  13.340  29.231   1.438
42020W        W10425  42.144  19.653   4.865
42021W        W10426   5.232  29.624  13.235
42022W        W10427   9.090   0.421  13.598
42023W        W10428   4.212  43.067  14.084
42024W        W10429  13.568   0.571   3.793
42025W        W10430  26.644   5.339  11.418
42026W        W10431  14.527  14.204   4.877
42027W        W10432  19.161  18.879   0.741
42028W        W10433   1.206  11.341  12.822
42029W        W10434  27.632  28.419   0.459
42030W        W10435  18.774  20.291   2.167
42031W        W10436  33.040  42.297   4.488
42032W        W10437  14.143  23.851  12.077
42033W        W10438  30.071  30.912   2.384
42034W        W10439  29.175  23.551   1.191
42035W        W10440  25.660  35.864  10.674
42036W        W10441  39.270  12.809  10.678
42037W        W10442  41.290   2.272  14.697
42038W        W10443  16.069  31.062  13.479
42039W        W10444  19.706  16.075  14.018
42040W        W10445  29.648  41.023   1.686
42041W        W10446  19.569  14.394   3.324
42042W        W10447  33.791  23.399  11.744
42043W        W10448   2.344   5.677   0.346
42044W        W10449  20.477   7.304  13.357
42045W        W10450  18.728  34.977   2.625
42046W        W10451  29.467  40.906   2.151
42047W        W10452  39.005  30.896   3.842
42048W        W10453  24.128  27.229  13.407
42049W        W10454  12.643   7.819   1.011
42050W        W10455  30.196   1.825   4.744
42051W        W10456  21.770  43.196  14.388
42052W        W10457   4.296  16.181   2.028
42053W        W10458   7.351  22.692   1.671
42054W        W10459  39.813   2.778  13.441
42055W        W10460  31.829   4.933   1.720
42056W        W10461  43.510  29.495   0.500
42057W        W10462  33.364   4.535  13.272
42058W        W10463   1.314  21.298   3.271
42059W        W10464  44.744  20.294   3.146
42060W        W10465  25.784  26.849  13.135
42061W        W10466  37.957  44.658   2.613
42062W        W10467  36.365  13.672  13.075
42063W        W10468  14.860   0.803  14.457
42064W        W10469  23.708  10.750  13.593
42065W        W10470  35.857  22.623  13.424
42066W        W10471  44.725  20.631  12.007
42067W        W10472  16.141  39.585   0.378
42068W        W10473  38.407   7.825  13.570
42069W        W10474  17.769   1.837   1.291
42070W        W10475  35.507  40.424  14.443
42071W        W10476  31.571  38.864   0.433
42072W        W10477  31.558  11.120  10.502
42073W        W10478  44.715  14.030   1.191
42074W        W10479   2.210  14.500   3.098
42075W        W10480  24.302  25.788   0.882
42076W        W10481  31.974  19.220  10.651
42077W        W10482  39.102  43.885  14.426
42078W        W10483  39.273  26.365  13.892
42079W        W10484  41.420  19.307  11.129
42080W        W10485  29.401  19.099   2.636
42081W        W10486  39.484   2.820  13.830
42082W        W10487   5.252   5.709   2.633
42083W        W10488  35.696  16.475  14.299
42084W        W10489  30.897  28.207   4.646
42085W        W10490  12.119  25.212  13.053
42086W        W10491   8.828  28.553   0.889
42087W        W10492  10.961  13.323   1.634
42088W        W10493  30.991  14.087   1.791
42089W        W10494  10.381  24.570   1.482
42090W        W10495  37.444   4.637  11.517
42091W        W10496  18.698  13.457   1.772
42092W        W10497  32.518  28.000  12.648
42093W        W10498  11.107   9.856   3.607
42094W        W10499  40.061   8.384   1.408
42095W        W10500   8.239  27.037  10.741
42096W        W10501  43.374  28.178  13.753
42097W        W10502  44.528  38.187  11.096
42098W        W10503  33.302   3.862  11.613
42099W        W10504  16.090   1.002   3.805
42100W        W10505  38.867  32.380  10.716
42101W        W10506  22.056   4.681   0.055
42102W        W10507  28.651  17.050   5.021
42103W        W10508  20.987  31.223   2.498
42104W        W10509   6.995   9.652  13.432
42105W        W10510   2.388  24.255   0.959
42106W        W10511   8.208   2.912   0.377
42107W        W10512  12.287   3.156   1.350
42108W        W10513  13.813  34.073  11.615
42109W        W10514  18.134   9.977  13.048
42110W        W10515   3.914  39.421   3.558
42111W        W10516   8.407  35.088   2.339
42112W        W10517  38.463  44.188   3.235
42113W        W10518   9.196  40.983  12.549
42114W        W10519  33.936  10.288   1.674
42115W        W10520  32.342   1.281  13.974
42116W        W10521  19.421  21.655  12.559
42117W        W10522  34.129  18.766  13.484
42118W        W10523  20.008   2.500   1.286
42119W        W10524  16.386  11.144  12.034
42120W        W10525  15.014   7.536  13.338
42121W        W10526  36.040  38.294   4.013
42122W        W10527  29.423  28.485   3.758
42123W        W10528  29.902  42.566  12.012
42124W        W10529  27.158   9.160   4.571
42125W        W10530   0.089  10.757   4.865
42126W        W10531  39.343  17.803  12.556
42127W        W10532  21.667  42.033  12.549
42128W        W10533   3.194  25.482  13.594
42129W        W10534  42.952  19.729   3.784
42130W        W10535  16.564  20.344  12.880
42131W        W10536  15.769   0.825  10.680
42132W        W10537  21.944  41.959  14.460
42133W        W10538   0.907  15.643   2.943
42134W        W10539  26.899  14.571   3.278
42135W        W10540   4.950   9.721  13.469
42136W        W10541   8.656  19.776  13.119
42137W        W10542  24.254  35.603  11.917
42138W        W10543  37.869  19.796  14.988
42139W        W10544  11.904  18.576   0.584
42140W        W10545  27.573  38.579   0.759
42141W        W10546  20.052  25.078  14.433
42142W        W10547   0.955  13.564  11.947
42143W        W10548  17.378  14.570   1.644
42144W        W10549  25.165  20.074  11.591
42145W        W10550  32.323   8.937   3.220
42146W        W10551   8.485  35.966  13.791
42147W        W10552  13.173  34.918   1.421
42148W        W10553  23.283  42.021   2.845
42149W        W10554  17.767  35.358  12.089
42150W        W10555   6.445   1.253  11.578
42151W        W10556  18.573  21.068  10.221
42152W        W10557  30.192  38.802  11.088
42153W        W10558  31.112  32.054   4.778
42154W        W10559  44.498  30.664   3.454
42155W        W10560  43.533  27.413  12.195
42156W        W10561  22.160  32.219  12.080
42157W        W10562  38.103   1.431  13.108
42158W        W10563  15.140  43.015  13.562
42159W        W10564  22.823   9.132   1.372
42160W        W10565   2.302  10.919   0.424
42161W        W10566   0.330   8.958   3.107
42162W        W10567  44.787   0.974   1.410
42163W        W10568  43.191  42.381   1.222
42164W        W10569  18.108  44.942  12.786
42165W        W10570  20.502  11.043  14.776
42166W        W10571  20.111   9.834  14.942
42167W        W10572   2.655   4.661   5.396
42168W        W10573   6.254  30.156  14.172
42169W        W10574  14.202  14.524   5.119
42170W        W10575   8.578   1.804   4.945
42171W        W10576  15.208   9.719   2.913
42172W        W10577  16.232  29.187   1.012
42173W        W10578  21.056  10.398  11.530
42174W        W10579   8.444  10.671   1.243
42175W        W10580  25.042  19.691  13.416
42176W        W10581  38.815  26.119  13.956
42177W        W10582   5.924  44.030   1.255
42178W        W10583  42.937  29.622   2.149
42179W        W10584  31.399   3.751   2.875
42180W        W10585  31.588  28.650   4.079
42181W        W10586  33.204  27.547  12.979
42182W        W10587  12.199   0.520  14.710
42183W        W10588  38.975  22.678  11.572
42184W        W10589  17.509  27.759   4.069
42185W        W10590   5.640   8.812  12.897
42186W        W10591  29.681  20.251   0.314
42187W        W10592  11.828   5.615  10.752
42188W        W10593  23.036  15.115  14.022
42189W        W10594   4.408  20.612   4.148
42190W        W10595   6.613  24.869  13.095
42191W        W10596  36.027  27.713   2.336
42192W        W10597  27.455  36.601  11.585
42193W        W10598   9.307  37.387   1.426
42194W        W10599  17.269  43.059  14.307
42195W        W10600  25.246  23.784   2.170
42196W        W10601  43.582   7.807  12.613
42197W        W10602   9.166  25.137   1.837
42198W        W10603  27.461   8.962   4.178
42199W        W10604   8.298  44.980  13.363
42200W        W10605  18.745  23.236  13.497
42201W        W10606   7.820  17.743  10.133
42202W        W10607  39.748  36.765  11.154
42203W        W10608  31.347   5.237  12.447
42204W        W10609  25.468  34.815   2.824
42205W        W10610  30.974  15.181   0.870
42206W        W10611  11.179  26.975  14.806
42207W        W10612  44.064  21.176  11.484
42208W        W10613   4.229  24.937  12.930
42209W        W10614  11.389  27.256  14.412
42210W        W10615  18.761  40.806  11.152
42211W        W10616  11.435  10.297   3.154
42212W        W10617  19.840  40.430   0.960
42213W        W10618  17.794  39.814   2.275
42214W        W10619  28.837  26.573  13.483
42215W        W10620  27.184  19.167  11.150
42216W        W10621  41.743  43.491  12.976
42217W        W10622  13.338   4.083  11.548
42218W        W10623  30.683  28.579   4.260
42219W        W10624  39.314  32.521   0.318
42220W        W10625  32.499  22.556  13.470
42221W        W10626  19.569   6.845  11.431
42222W        W10627  40.862  38.307   4.085
42223W        W10628  24.530   0.722  13.581
42224W        W10629   7.338  38.054   2.720
42225W        W10630  37.396  16.871   4.924
42226W        W10631  29.570  39.530   2.832
42227W        W10632  10.113  43.455   3.340
42228W        W10633  38.359  14.756  12.994
42229W        W10634  26.888  27.175   4.506
42230W        W10635   4.434  14.406  14.970
42231W        W10636  25.826  13.001   2.411
42232W        W10637  32.009  12.743  10.822
42233W        W10638  12.576   2.774   2.217
42234W        W10639  32.954   7.768   3.855
42235W        W10640   2.971  20.061  14.851
42236W        W10641  27.054   9.677   4.652
42237W        W10642  17.790   6.671   4.942
42238W        W10643  33.661   9.194  14.238
42239W        W10644   8.926  41.348   4.212
42240W        W10645  41.990  39.669   4.625
42241W        W10646  44.355  38.921  13.455
42242W        W10647  29.740  23.520  14.709
42243W        W10648   1.925  13.205  14.883
42244W        W10649   8.234  14.714   0.821
42245W        W10650  27.898  15.030   4.022
42246W        W10651  27.081  31.522  10.804
42247W        W10652  42.565  28.167  12.617
42248W        W10653  17.339  33.054  14.974
42249W        W10654  19.271   7.686   2.841
42250W        W10655  23.914   8.303  12.932
42251W        W10656  15.743   3.289  14.800
42252W        W10657  16.861  11.102   4.322
42253W        W10658  16.664  11.576  11.069
42254W        W10659  37.774   2.202   3.339
42255W        W10660   9.157  29.709  10.274
42256W        W10661  32.559  31.529  13.917
42257W        W10662  25.070  30.546  10.957
42258W        W10663  14.065   8.075   1.288
42259W        W10664  35.076  37.446  13.891
42260W        W10665  26.798   4.869  13.180
42261W        W10666   7.604   3.423   4.944
42262W        W10667  20.226  39.766   0.305
42263W        W10668  16.576  24.338  13.458
42264W        W10669  15.193  31.845  10.038
42265W        W10670  42.631   1.319   1.426
42266W        W10671  35.935  30.407   2.283
42267W        W10672  12.581  44.293  11.098
42268W        W10673  22.320  20.008   2.132
42269W        W10674  10.571  38.190  12.056
42270W        W10675  36.078   0.835  11.925
42271W        W10676   8.129  43.399  10.752
42272W        W10677  39.398  24.514  10.646
42273W        W10678  19.996  26.424   0.235
42274W        W10679  30.702  11.249  10.648
42275W        W10680  32.895  41.050  12.499
42276W        W10681  22.989  33.685   0.843
42277W        W10682  17.284   3.831   4.641
42278W        W10683  42.509  37.974  12.400
42279W        W10684   4.224  40.621  14.063
42280W        W10685  28.501   5.478  12.002
42281W        W10686  28.797   6.952  11.033
42282W        W10687  14.541  15.761   2.148
42283W        W10688  41.611  31.095  11.086
42284W        W10689  21.266  26.055  13.346
42285W        W10690  17.533  18.324  11.595
42286W        W10691  35.419  30.024   0.961
42287W        W10692  41.389  22.455  12.936
42288W        W10693  44.598   3.431   1.009
42289W        W10694   3.206  11.163  11.355
42290W        W10695  36.116  21.201   2.262
42291W        W10696  26.317  10.240  14.290
42292W        W10697  39.386  19.969  13.069
42293W        W10698  40.075   3.372  11.606
42294W        W10699   4.925   2.832  11.993
42295W        W10700  26.714  29.895  10.669
42296W        W10701  40.922  26.914   3.707
42297W        W10702  26.348  26.169   2.241
42298W        W10703  21.471  42.359   4.720
42299W        W10704  26.457  19.259  13.310
42300W        W10705   8.831  17.609   2.663
42301W        W10706  11.388  28.230   4.596
42302W        W10707  13.352  17.746   3.821
42303W        W10708  29.215  17.280  12.548
42304W        W10709  39.834  15.042  13.343
42305W        W10710  30.811  40.430   2.237
42306W        W10711  12.058  25.627   2.588
42307W        W10712  13.974  25.903   1.244
42308W        W10713  37.375  20.665  12.849
42309W        W10714   7.284  35.886  13.938
42310W        W10715   7.030  13.827   2.314
42311W        W10716  35.305  16.652  10.751
42312W        W10717  26.589  40.433   4.266
42313W        W10718  19.289  20.932  13.108
42314W        W10719  15.620  21.254   3.655
42315W        W10720  32.672  37.141   1.845
42316W        W10721  18.092  16.113   4.670
42317W        W10722  37.710  43.034  14.771
42318W        W10723  34.033   2.053  14.436
42319W        W10724  27.213  26.586   1.228
42320W        W10725  18.678   2.533   2.791
42321W        W10726  40.514  13.765   3.317
42322W        W10727  32.182  34.331   0.989
42323W        W10728  19.361  44.373   0.302
42324W        W10729  13.340  36.615  12.515
42325W        W10730  31.138  29.635   4.376
42326W        W10731  38.548  12.266  14.948
42327W        W10732  13.726  16.327  13.103
42328W        W10733  25.049   1.667  12.650
42329W        W10734  15.215   3.727  10.765
42330W        W10735  38.251  18.267   2.330
42331W        W10736  10.264   2.433   5.029
42332W        W10737  16.217  31.006  14.435
42333W        W10738   1.537  30.159   0.862
42334W        W10739  10.657  19.061  11.698
42335W        W10740  40.870  24.052   3.345
42336W        W10741  33.566  20.976  13.509
42337W        W10742  21.236  29.315  11.551
42338W        W10743  10.842   3.186   0.308
42339W        W10744  43.609  16.413  13.906
42340W        W10745  21.223  11.635   4.168
42341W        W10746  36.876   6.138  10.310
42342W        W10747  26.028  38.933  11.898
42343W        W10748   5.501  30.512   4.227
42344W        W10749  23.090  30.928  12.504
42345W        W10750  26.115  42.054   0.531
42346W        W10751  41.997  35.497  14.922
42347W        W10752  10.411  28.991  13.896
42348W        W10753  23.087  26.079  11.948
42349W        W10754  31.601  11.812   2.311
42350W        W10755   2.049   0.377  11.036
42351W        W10756  10.675  22.196   2.786
42352W        W10757  39.559  33.882   4.436
42353W        W10758  36.860  42.498   2.436
42354W        W10759   3.866  10.775  10.437
42355W        W10760  24.392  32.750  14.015
42356W        W10761  38.868  35.099   3.756
42357W        W10762  12.815  24.200   1.305
42358W        W10763  11.173  19.035  14.524
42359W        W10764  10.170  17.811   0.303
42360W        W10765  40.379   9.938   4.962
42361W        W10766  42.321  10.868  11.559
42362W        W10767  18.888  41.967  13.328
42363W        W10768  15.195  17.667  10.452
42364W        W10769  23.325  43.360   3.637
42365W        W10770  23.125  17.354  11.083
42366W        W10771   6.675  26.175  12.082
42367W        W10772  30.356  24.634  11.586
42368W        W10773  13.977  43.656  12.092
42369W        W10774  33.576   6.890   0.142
42370W        W10775   1.783   7.793   3.813
42371W        W10776   5.463  38.889  14.899
42372W        W10777  21.670  41.898   1.975
42373W        W10778  26.743   5.372   4.277
42374W        W10779  40.991   9.223  13.825
42375W        W10780  26.883  31.031   3.720
42376W        W10781   7.774  16.333   1.320
42377W        W10782  29.658  10.163  14.879
42378W        W10783  11.373   5.331  12.197
42379W        W10784  44.526  33.913  13.439
42380W        W10785  42.494  22.117   3.082
42381W        W10786  13.712  18.875   1.718
42382W        W10787  43.407  43.987  10.363
42383W        W10788  31.713  41.990  14.518
42384W        W10789  40.381   9.084  10.878
42385W        W10790  35.023  34.111   4.645
42386W        W10791  21.555  26.259  13.759
42387W        W10792  38.368  19.668   0.964
42388W        W10793  43.205  21.591  13.891
42389W        W10794   4.397  13.223  13.540
42390W        W10795  17.332   4.376  10.591
42391W        W10796  40.978   8.327  12.863
42392W        W10797  29.530  12.370   4.005
42393W        W10798  39.285  31.509  11.954
42394W        W10799  30.009  38.315  11.093
42395W        W10800  41.048  37.064   1.892
42396W        W10801  29.512  35.934   4.889
42397W        W10802  31.143  12.145   4.342
42398W        W10803  23.013  22.809  12.986
42399W        W10804  35.525  26.477   2.514
42400W        W10805  11.708  39.116   3.187
42401W        W10806  12.045  39.942   4.919
42402W        W10807  26.623  37.633   2.387
42403W        W10808   5.095  34.529   2.727
42404W        W10809   0.008  35.397   4.536
42405W        W10810   5.288  36.507   4.153
42406W        W10811  39.763  28.199  11.120
42407W        W10812  38.597   9.839   2.884
42408W        W10813  19.677  24.936   3.108
42409W        W10814  41.068   3.442   4.547
42410W        W10815   3.646   9.646  13.873
42411W        W10816  24.945   2.799  14.385
42412W        W10817   1.747  23.540   0.451
42413W        W10818  32.208  14.843   1.896
42414W        W10819  12.543  31.934  11.528
42415W        W10820  18.675  27.004  11.207
42416W        W10821  44.872  15.961   1.688
42417W        W10822  29.621  30.881   2.660
42418W        W10823  26.659  13.794  13.747
42419W        W10824  17.789  41.867   4.251
42420W        W10825   7.847  25.589  12.196
42421W        W10826  11.077  17.132   0.927
42422W        W10827   5.403  15.390   1.797
42423W        W10828  40.043  21.107   0.519
42424W        W10829  28.720  43.052   0.310
42425W        W10830  11.081  24.125   1.705
42426W        W10831  40.950  19.773  14.839
42427W        W10832  14.163  28.558  10.580
42428W        W10833   2.606   7.131  11.187
42429W        W10834  17.622  12.889  11.502
42430W        W10835  17.173  10.100   2.859
42431W        W10836  32.019  36.538   1.581
42432W        W10837   9.194  16.258   1.298
42433W        W10838  38.794   4.167  10.041
42434W        W10839  35.637  12.301   3.597
42435W        W10840  24.746  23.232  12.638
42436W        W10841  37.001  24.454   1.528
42437W        W10842  32.096  19.415   1.427
42438W        W10843  43.929  27.044   1.594
42439W        W10844  10.445   8.737   3.198
42440W        W10845  27.549  30.477  10.548
42441W        W10846  34.070   4.443   1.828
42442W        W10847  12.145  24.529  11.663
42443W        W10848  31.110  34.266  11.157
42444W        W10849  40.509  10.426   4.084
42445W        W10850   2.682   1.149  13.077
42446W        W10851  26.511  18.228   0.795
42447W        W10852   9.639   9.072   1.116
42448W        W10853  20.998  41.811   2.266
42449W        W10854  12.128   8.393  10.663
42450W        W10855  18.636  41.037   3.741
42451W        W10856  33.815  18.122   4.908
42452W        W10857  33.993  37.978  11.631
42453W        W10858  14.853  24.398   2.473
42454W        W10859  26.375  31.968  14.349
42455W        W10860  25.082  20.854   4.758
42456W        W10861   2.895   0.919   1.212
42457W        W10862  37.346  11.864   1.705
42458W        W10863  14.867   7.151  12.982
42459W        W10864  39.548   0.476  14.487
42460W        W10865  24.232  19.545   4.104
42461W        W10866  35.821   8.651  12.939
42462W        W10867  18.589  15.665  13.277
42463W        W10868  15.595   0.440   3.328
42464W        W10869   7.707  18.332  12.690
42465W        W10870  20.389  39.160  10.167
42466W        W10871  11.386   9.767   4.489
42467W        W10872  42.267   2.513  13.749
42468W        W10873  43.413  18.586  11.100
42469W        W10874  28.219   6.884  11.011
42470W        W10875  30.192  24.089   4.589
42471W        W10876  28.444   1.999   3.762
42472W        W10877  19.426  24.989  10.294
42473W        W10878   6.668  15.371   3.159
42474W        W10879  23.256  34.283   4.105
42475W        W10880  10.190   1.910   0.234
42476W        W10881  11.474   7.824   3.696
42477W        W10882  10.106   4.254   4.256
42478W        W10883  25.023  36.123   0.773
42479W        W10884   6.010  31.071   3.650
42480W        W10885  42.908   3.215   0.183
42481W        W10886  33.796   4.215  13.391
42482W        W10887  33.875   3.755   3.703
42483W        W10888   3.712  41.094  14.549
42484W        W10889  17.169   7.412  13.298
42485W        W10890  15.174  29.620  12.499
42486W        W10891  31.271   4.720  14.333
42487W        W10892  40.003  13.243  11.659
42488W        W10893  35.835  40.110   1.594
42489W        W10894  31.607  13.382   0.801
42490W        W10895  33.933  36.977   3.802
42491W        W10896  34.046  16.051  12.911
42492W        W10897  16.329  40.492   1.767
42493W        W10898  12.620  43.029   0.878
42494W        W10899   9.209  27.954  10.319
42495W        W10900  25.834  25.043  13.777
42496W        W10901  36.657   2.968  14.942
42497W        W10902  44.884   6.133   3.179
42498W        W10903  38.855  21.093   0.473
42499W        W10904   7.225   1.706  11.686
42500W        W10905   2.194  36.604  14.763
42501W        W10906  39.075  31.490   2.651
42502W        W10907  25.912  26.710  14.733
42503W        W10908  31.816  35.593  13.396
42504W        W10909  38.152  38.804   4.742
42505W        W10910   7.875  28.497   4.312
42506W        W10911   7.989  22.086   1.984
42507W        W10912  30.583  31.221   3.119
42508W        W10913  23.762  41.198  13.850
42509W        W10914  18.716   5.953  13.543
42510W        W10915   8.463  40.491   4.821
42511W        W10916  23.091  40.132  11.503
42512W        W10917  25.162  23.705   3.270
42513W        W10918  11.614   8.561  10.841
42514W        W10919  11.876  23.869   1.459
42515W        W10920  32.063  34.271  14.498
42516W        W10921  41.199  16.759   1.382
42517W        W10922  21.770  24.125  14.539
42518W        W10923  36.835  37.508  13.978
42519W        W10924  34.481  25.123  14.946
42520W        W10925  36.875   5.239  10.532
42521W        W10926  25.531   4.671   1.129
42522W        W10927   0.863   7.097  12.594
42523W        W10928   5.494  24.710  14.079
42524W        W10929  40.221  23.277   2.741
42525W        W10930  38.523  11.992  14.506
42526W        W10931   4.655  22.664   0.245
42527W        W10932  35.303  44.988   0.461
42528W        W10933  14.212  33.674   0.358
42529W        W10934  25.588  10.584   1.955
42530W        W10935  42.339  19.283  13.496
42531W        W10936  32.984   7.778   4.922
42532W        W10937  28.053  37.903   4.163
42533W        W10938  10.230  42.336   0.755
42534W        W10939  41.104  33.903   2.310
42535W        W10940  10.399  33.960  14.188
42536W        W10941  34.726  44.017   4.254
42537W        W10942  14.372  43.513  13.882
42538W        W10943   7.804  20.165  12.353
42539W        W10944  10.314  22.466   0.276
42540W        W10945  30.992   2.585  12.444
42541W        W10946   6.827   8.450   3.246
42542W        W10947  32.028  35.134   3.203
42543W        W10948  16.202  14.625  10.416
42544W        W10949  16.252   6.008  11.979
42545W        W10950  17.343  42.463  10.673
42546W        W10951  35.802  15.744  14.896
42547W        W10952  41.835   2.714  13.057
42548W        W10953  31.330  40.905   3.760
42549W        W10954   5.366  37.317  13.847
42550W        W10955   6.390  26.009  10.755
42551W        W10956  15.625  20.428   2.292
42552W        W10957  34.074   9.881  10.616
42553W        W10958   3.954  10.312  13.987
42554W        W10959  31.849  41.323  14.960
42555W        W10960  13.168  13.677  10.439
42556W        W10961  41.579   9.923  14.416
42557W        W10962   9.728  40.888  11.594
42558W        W10963   3.808  11.533  13.298
42559W        W10964  32.521  31.413  14.433
42560W        W10965  11.936  22.317  11.648
42561W        W10966  15.107  33.701   3.280
42562W        W10967  29.028   5.257  12.639
42563W        W10968   1.426  13.733  11.410
42564W        W10969   9.843  14.462   2.364
42565W        W10970  23.751  28.048  12.412
42566W        W10971  43.049  44.947  13.877
42567W        W10972  17.182  10.938   0.753
42568W        W10973  25.670   1.419  12.402
42569W        W10974  13.246   7.781   0.331
42570W        W10975  42.920  21.311   2.911
42571W        W10976  34.826  12.043  11.230
42572W        W10977  25.093  34.502   3.917
42573W        W10978   3.295  36.895   4.980
42574W        W10979  30.367  19.332  13.404
42575W        W10980  43.987   1.369   1.204
42576W        W10981  33.878   6.435  14.458
42577W        W10982  33.477  43.494  14.390
42578W        W10983  37.872  29.529   4.105
42579W        W10984  34.808  24.113  12.866
42580W        W10985  29.090  31.070  13.493
42581W        W10986   0.058  24.744   2.827
42582W        W10987  29.564  39.463  14.461
42583W        W10988   1.241  18.031  11.832
42584W        W10989  44.749  11.169  12.620
42585W        W10990   4.412  27.434   1.333
42586W        W10991  32.352  39.554   3.423
42587W        W10992  21.257  42.198  12.854
42588W        W10993  19.982  42.473  14.442
42589W        W10994  40.323  18.079   4.707
42590W        W10995  20.259  31.046  14.268
42591W        W10996  43.803  14.426  14.562
42592W        W10997  40.001  23.674  10.595
42593W        W10998  20.710   9.756  14.233
42594W        W10999  23.945  39.073  11.365
42595W        W11000   5.809  17.514  13.904
42596W        W11001  33.419  10.098  12.102
42597W        W11002   8.196  13.068  11.619
42598W        W11003  24.667   3.279  11.512
42599W        W11004  19.207  13.910  14.157
42600W        W11005   6.509   0.006   2.787
42601W        W11006  28.557   2.305  13.870
42602W        W11007   6.429   1.903   3.716
42603W        W11008  21.157  30.356   4.270
42604W        W11009  40.872  37.229  12.886
42605W        W11010   4.927   5.749   0.728
42606W        W11011   9.840  35.451   1.336
42607W        W11012  23.547  30.204   0.441
42608W        W11013  11.714  30.789   2.374
42609W        W11014  10.635  44.579   0.747
42610W        W11015  42.830  14.765   4.982
42611W        W11016  27.275  41.442  13.484
42612W        W11017   4.166  36.841   3.337
42613W        W11018   5.825  15.653   2.662
42614W        W11019  10.130  43.048   1.397
42615W        W11020  12.820  42.408   4.651
42616W        W11021  24.589  26.951   4.738
42617W        W11022  13.801  36.951  10.644
42618W        W11023  35.480  34.055   3.364
42619W        W11024  29.461   3.953  11.239
42620W        W11025   6.802  40.410  14.678
42621W        W11026  29.872  35.074   1.787
42622W        W11027   0.515   6.775   0.876
42623W        W11028  30.981  24.481   4.643
42624W        W11029  24.539  36.649  10.656
42625W        W11030  40.993  21.727  11.117
42626W        W11031  34.081  38.228  12.116
42627W        W11032  43.676   5.774   1.331
42628W        W11033   3.142  25.614  12.609
42629W        W11034  25.690  10.378  12.068
42630W        W11035  30.598  25.971  14.900
42631W        W11036  19.754  10.355   3.224
42632W        W11037  26.503  38.398  10.298
42633W        W11038  42.333  41.302  13.641
42634W        W11039   5.373  11.071  13.439
42635W        W11040  20.097  21.343  12.863
42636W        W11041   1.322  15.492   3.240
42637W        W11042  28.774   0.351  13.851
42638W        W11043  36.971  20.261  11.072
42639W        W11044  20.182  12.279  14.485
42640W        W11045  33.619  39.006  13.792
42641W        W11046   4.212   2.157   1.353
42642W        W11047  11.023  43.908  13.814
42643W        W11048  33.028  20.311  10.766
42644W        W11049   6.350  44.224   5.124
42645W        W11050  28.579   1.949   2.445
42646W        W11051  30.161  34.347   4.815
42647W        W11052  27.543  26.987  11.581
42648W        W11053  37.989   4.456  14.791
42649W        W11054  32.755   2.842   3.239
42650W        W11055   5.646  39.642  13.365
42651W        W11056  12.314  19.231  11.915
42652W        W11057  27.947   4.952   4.776
42653W        W11058  12.662  39.739   0.544
42654W        W11059  16.449  20.818   4.697
42655W        W11060  25.778  43.231  14.912
42656W        W11061  44.791  14.610  12.205
42657W        W11062  39.578  44.223   0.514
42658W        W11063  12.610  14.357   2.593
42659W        W11064  33.851  36.026   1.214
42660W        W11065  15.855  18.531  13.150
42661W        W11066  18.747   6.156  11.061
42662W        W11067   3.512  32.497   4.170
42663W        W11068  28.895   3.882   1.003
42664W        W11069  15.286  36.054  11.290
42665W        W11070  19.436  30.648   2.321
42666W        W11071  36.148  33.541   4.828
42667W        W11072  42.350   6.145  13.990
42668W        W11073  25.037  39.891  10.963
42669W        W11074  38.625  17.828   0.420
42670W        W11075  25.853   4.225   0.266
42671W        W11076  30.679  18.200   3.416
42672W        W11077  34.641  35.456   4.917
42673W        W11078  28.656  31.604  11.535
42674W        W11079  42.371  29.455  13.624
42675W        W11080  40.076  39.406  12.502
42676W        W11081  10.696  32.411   0.869
42677W        W11082   3.507  26.459  12.513
42678W        W11083  35.373   2.349   0.191
42679W        W11084  35.150  14.273  12.866
42680W        W11085  11.356  43.381   4.116
42681W        W11086  30.513  37.523   4.637
42682W        W11087   9.202  21.945  12.849
42683W        W11088   1.971  37.456  11.643
42684W        W11089  33.610  11.416   3.370
42685W        W11090  19.238  14.188   1.307
42686W        W11091  44.944  30.848   3.183
42687W        W11092  44.251  23.356   1.274
42688W        W11093   0.431  13.597   1.199
42689W        W11094  16.697  36.314  13.069
42690W        W11095  12.007   5.479   3.123
42691W        W11096   5.732  30.439   0.293
42692W        W11097  44.238  19.570  11.132
42693W        W11098   4.254  23.748  10.903
42694W        W11099  39.358  43.113  12.875
42695W        W11100  25.621  11.295   1.015
42696W        W11101   9.224  41.906  12.076
42697W        W11102  28.172   3.257  14.840
42698W        W11103  14.472   3.872  12.931
42699W        W11104  44.223  30.588   4.416
42700W        W11105  21.691   2.262   2.338
42701W        W11106   3.924  41.268   3.327
42702W        W11107  33.661  28.634   4.002
42703W        W11108  25.187   2.322  14.222
42704W        W11109  40.043  27.099  12.239
42705W        W11110  29.377  40.820  11.066
42706W        W11111  26.397  35.906   2.688
42707W        W11112  36.474  15.375  14.497
42708W        W11113  20.576  34.005   4.609
42709W        W11114  39.544  19.984  12.031
42710W        W11115  41.832   4.991  10.606
42711W        W11116  31.506   5.325   1.721
42712W        W11117  20.800  19.153  11.508
42713W        W11118  29.269  17.151   0.314
42714W        W11119  12.449  36.110  14.367
42715W        W11120  22.102  29.014  11.608
42716W        W11121  19.530   6.110   2.702
42717W        W11122  19.764  10.410   1.611
42718W        W11123  10.850  13.941  13.877
42719W        W11124   5.290  16.428   2.868
42720W        W11125  19.668  40.326   1.879
42721W        W11126  29.975  39.694   3.122
42722W        W11127  41.979  39.501  14.963
42723W        W11128   4.284  18.656   2.747
42724W        W11129  44.534  10.628  12.098
42725W        W11130  10.219  32.142  13.358
42726W        W11131  39.969   6.689   2.055
42727W        W11132  27.177  33.260   3.248
42728W        W11133  23.704  16.199  14.525
42729W        W11134  23.140   4.623   2.407
42730W        W11135  29.105  24.067   3.573
42731W        W11136  14.660   3.790  10.744
42732W        W11137  38.092  40.345   3.705
42733W        W11138  15.992  42.723   3.615
42734W        W11139   2.486  38.364  12.995
42735W        W11140  35.089  43.816  12.996
42736W        W11141  17.501  22.457  11.439
42737W        W11142  39.260  34.998   3.252
42738W        W11143  44.958  26.946   3.301
42739W        W11144   7.887  19.580   0.424
42740W        W11145  41.318  25.290   3.263
42741W        W11146   0.638  33.561   2.249
42742W        W11147  17.554  26.229   1.702
42743W        W11148  32.916  18.809   3.319
42744W        W11149  11.189  15.409   0.309
42745W        W11150  39.966  19.984   1.271
42746W        W11151   7.943  21.602   3.148
42747W        W11152   3.775   6.791   0.892
42748W        W11153  35.753  16.717   0.783
42749W        W11154  34.230  34.428   0.812
42750W        W11155  38.895  38.760   3.333
42751W        W11156  38.585   7.869   0.100
42752W        W11157   4.462  15.276   4.223
42753W        W11158  32.817   3.568  14.095
42754W        W11159  31.419  18.773   1.419
42755W        W11160   4.674  15.332  14.945
42756W        W11161  35.917   4.745   3.337
42757W        W11162  38.015  36.521   4.416
42758W        W11163   6.700  23.275  12.588
42759W        W11164  13.407  30.872   2.700
42760W        W11165  13.869  26.255  12.001
42761W        W11166  13.380  24.262   3.918
42762W        W11167  39.650  36.452   1.209
42763W        W11168  12.879  43.277   4.944
42764W        W11169  24.194  41.537   4.616
42765W        W11170  23.053  22.229  11.642
42766W        W11171   9.883  38.391   3.131
42767W        W11172  37.797  12.970   4.099
42768W        W11173  10.839  16.030  13.289
42769W        W11174   7.241  23.013   1.287
42770W        W11175  19.702  32.870  12.456
42771W        W11176   3.927  27.730   2.851
42772W        W11177  32.237  43.748  10.826
42773W        W11178   9.214  41.900  12.606
42774W        W11179   6.353  33.605  14.364
42775W        W11180  42.328  29.642  10.566
42776W        W11181  41.332  28.990   1.960
42777W        W11182  44.495  10.882   2.861
42778W        W11183  29.719   6.369   2.761
42779W        W11184  37.518  35.746  11.559
42780W        W11185  40.455  44.467  14.255
42781W        W11186  15.627  16.732  11.572
42782W        W11187  34.137  34.062  14.064
42783W        W11188  37.090  29.037   2.020
42784W        W11189  40.741   8.587  14.275
42785W        W11190  18.610  14.608  11.632
42786W        W11191  14.537  16.245  11.223
42787W        W11192  29.241  31.131   0.298
42788W        W11193  41.061  40.852  12.340
42789W        W11194  25.048  34.104  14.348
42790W        W11195  11.919  26.712  11.570
42791W        W11196  22.180  25.186  14.375
42792W        W11197  25.071   5.763  11.234
42793W        W11198   5.777  32.524  10.497
42794W        W11199   4.951  16.738   1.856
42795W        W11200  33.564  31.264   3.544
42796W        W11201  27.479  10.061   0.821
42797W        W11202  31.121  23.792  13.377
42798W        W11203  43.821  43.497  10.758
42799W        W11204  29.159  43.343   3.892
42800W        W11205  14.537  13.710  13.598
42801W        W11206   9.142  40.024   4.734
42802W        W11207   4.730  26.328   3.083
42803W        W11208  11.410  39.043  12.552
42804W        W11209   6.463   2.009  11.252
42805W        W11210  37.525  21.691   0.216
42806W        W11211  36.658  34.446   1.775
42807W        W11212  15.114   4.757  14.855
42808W        W11213  32.490  40.100   1.651
42809W        W11214  20.980  31.854   4.468
42810W        W11215  10.875  12.128  14.194
42811W        W11216  12.917   3.769  11.428
42812W        W11217  38.188  25.069  12.538
42813W        W11218   8.809  39.947  13.330
42814W        W11219  43.860  28.727   3.143
42815W        W11220  26.654  19.814  12.076
42816W        W11221  18.257   7.422  14.609
42817W        W11222   5.231  42.903  10.577
42818W        W11223   9.326  23.267  12.579
42819W        W11224  11.010  10.655   4.131
42820W        W11225   1.974  17.857   2.390
42821W        W11226  38.725  21.258   9.900
42822W        W11227  24.588   4.499   0.428
42823W        W11228   9.577  13.042  11.595
42824W        W11229  11.801  32.624   2.894
42825W        W11230  16.292  19.113  14.895
42826W        W11231   6.000  30.403   4.158
42827W        W11232  15.104  43.258   5.093
42828W        W11233  39.536   3.928  13.870
42829W        W11234   0.717  21.534  12.943
42830W        W11235   3.753   4.399  12.582
42831W        W11236  27.897  18.974   2.198
42832W        W11237   2.977  23.032   2.693
42833W        W11238  41.591   9.779   2.169
42834W        W11239  19.227  21.976  13.917
42835W        W11240  30.445  34.977   0.888
42836W        W11241  28.060  28.465  13.403
42837W        W11242  18.018  39.865  14.533
42838W        W11243  37.305  30.402   4.079
42839W        W11244   1.546   6.757   0.822
42840W        W11245  20.582  44.820   2.186
42841W        W11246  36.555   4.732  10.700
42842W        W11247  27.108   3.167  13.096
42843W        W11248  44.953  39.305   1.201
42844W        W11249  28.951  22.744   4.727
42845W        W11250   8.185  21.977   1.250
42846W        W11251  36.996  10.739   2.709
42847W        W11252  37.968  30.488  13.461
42848W        W11253  15.807  17.618   1.082
42849W        W11254  24.609  19.147   2.521
42850W        W11255  42.480  13.989   0.445
42851W        W11256  27.918  15.407   2.068
42852W        W11257  41.108  35.622   1.801
42853W        W11258   7.713  10.567   0.475
42854W        W11259  35.840   4.572   3.817
42855W        W11260  37.970  13.380  13.049
42856W        W11261  23.019  13.173  11.366
42857W        W11262  22.668  17.714   2.811
42858W        W11263   4.620   8.818  11.973
42859W        W11264  33.526  21.565  10.086
42860W        W11265  33.427  30.067   1.833
42861W        W11266  24.521   3.861   3.727
42862W        W11267  37.829  43.836   1.265
42863W        W11268  38.653  14.174   4.311
42864W        W11269   5.252   8.164   1.626
42865W        W11270  33.630  29.880   3.319
42866W        W11271  20.151   9.616   4.693
42867W        W11272  17.089  33.264   2.765
42868W        W11273  23.791  16.836  11.000
42869W        W11274  41.466  36.863  10.510
42870W        W11275  37.539  13.097  13.040
42871W        W11276   8.629  27.556  13.122
42872W        W11277   7.328  32.551   2.877
42873W        W11278  21.141   6.875   3.146
42874W        W11279  40.296   0.878   4.174
42875W        W11280   7.986  42.661   3.774
42876W        W11281  30.128  41.633  10.180
42877W        W11282   2.887  42.941  14.487
42878W        W11283  41.397  27.239  14.284
42879W        W11284  14.202  41.348  12.927
42880W        W11285  31.968  19.772  13.706
42881W        W11286  27.909  39.498  14.911
42882W        W11287  22.224  19.798  12.025
42883W        W11288   9.375  25.614   1.832
42884W        W11289  36.406   6.319  11.788
42885W        W11290   9.775  23.974   0.924
42886W        W11291  27.990  29.212   1.799
42887W        W11292  33.482  34.960  11.746
42888W        W11293  41.479  21.982   3.623
42889W        W11294  31.131  30.065   3.654
42890W        W11295  27.679  17.110   3.826
42891W        W11296  20.479   0.102  11.965
42892W        W11297  42.456  38.829  12.958
42893W        W11298  32.695  23.142   2.379
42894W        W11299  34.547  14.761  13.988
42895W        W11300  11.809  14.905   4.173
42896W        W11301  24.963  19.073  11.499
42897W        W11302  26.557  15.886   5.053
42898W        W11303  39.306  39.866   4.768
42899W        W11304  19.049  27.924   3.224
42900W        W11305  21.485   9.920   3.675
42901W        W11306  11.991  43.359  14.507
42902W        W11307  28.537  40.297   4.933
42903W        W11308  27.682  16.141   0.363
42904W        W11309  26.924  13.136   2.888
42905W        W11310  27.647  39.788  14.521
42906W        W11311  38.386  36.813  12.962
42907W        W11312   0.844  41.547   1.222
42908W        W11313   9.345  25.938  10.963
42909W        W11314   4.449  18.203  13.125
42910W        W11315  25.985  25.582   3.729
42911W        W11316   6.095  42.693  12.573
42912W        W11317  22.493  21.733  14.034
42913W        W11318  39.341   7.700   1.831
42914W        W11319  22.719  27.159  13.514
42915W        W11320   5.007   3.987  10.083
42916W        W11321  33.895  27.166  14.011
42917W        W11322  17.139  26.631   2.498
42918W        W11323  10.763  42.497  14.507
42919W        W11324  21.195  34.491   3.633
42920W        W11325  43.543  30.490  13.188
42921W        W11326  27.189  15.302  13.334
42922W        W11327  34.958  17.682   2.272
42923W        W11328  34.178  28.939  12.543
42924W        W11329  16.502  33.213   1.385
42925W        W11330   7.412   5.890  14.430
42926W        W11331  14.768  28.840   2.476
42927W        W11332   1.178  26.012  12.419
42928W        W11333  34.603  42.208  10.787
42929W        W11334  19.751   8.826  13.533
42930W        W11335   0.405  40.892   2.973
42931W        W11336  39.823  19.650  10.323
42932W        W11337  25.540  42.535   2.142
42933W        W11338  34.910  35.925  13.960
42934W        W11339   6.148  23.427   2.136
42935W        W11340   8.211   8.408   4.136
42936W        W11341   6.938  39.502  14.541
42937W        W11342   9.056  38.272  13.302
42938W        W11343   6.213  33.001   3.713
42939W        W11344  22.926  14.617  14.557
42940W        W11345  31.012  15.792  12.200
42941W        W11346  33.113  43.016  11.991
42942W        W11347  25.538  24.940  14.688
42943W        W11348  43.993  38.585  12.844
42944W        W11349  42.104   7.336  14.477
42945W        W11350   7.209  27.482   3.742
42946W        W11351  34.969  26.097   2.179
42947W        W11352  26.522  23.743   0.833
42948W        W11353   7.239  18.258   3.339
42949W        W11354  24.092  43.539   4.583
42950W        W11355  25.448   3.429   0.722
42951W        W11356  20.360   9.318   0.364
42952W        W11357  23.585  17.027  12.835
42953W        W11358   3.536  12.779   3.887
42954W        W11359  27.243   8.237   2.720
42955W        W11360  28.033  38.008  14.867
42956W        W11361  39.397  16.320  11.442
42957W        W11362  36.098  43.788   4.209
42958W        W11363   7.021  17.560   1.249
42959W        W11364  40.869  23.600   4.756
42960W        W11365   7.744  27.391  12.860
42961W        W11366   1.751  14.570   1.810
42962W        W11367   4.477  16.965   1.792
42963W        W11368  21.034  12.327  10.603
42964W        W11369   7.183  27.483  14.258
42965W        W11370   8.692  15.826  14.822
42966W        W11371  37.412  31.382   0.756
42967W        W11372  10.894  14.727   4.648
42968W        W11373  31.551  44.102   1.081
42969W        W11374  37.926  26.148  11.147
42970W        W11375  22.120  10.534   4.119
42971W        W11376  29.934  24.975  13.395
42972W        W11377  36.669  39.838  14.404
42973W        W11378   4.538  29.221   2.069
42974W        W11379  23.792  22.378  13.231
42975W        W11380  24.349  11.253  11.491
42976W        W11381  28.995   4.784  10.902
42977W        W11382  25.718  42.339   3.568
42978W        W11383  28.854  31.558   1.889
42979W        W11384  37.154  33.120  11.144
42980W        W11385  22.957  18.044  12.050
42981W        W11386  40.067  24.066   4.085
42982W        W11387  29.098  34.617  13.077
42983W        W11388  13.486  38.033   2.851
42984W        W11389  13.199  18.790   1.859
42985W        W11390  35.941  44.487  13.442
42986W        W11391  35.373   0.321  13.259
42987W        W11392  33.965  29.436  14.828
42988W        W11393   7.882  40.818   4.120
42989W        W11394  13.174  32.864   4.075
42990W        W11395   5.829  22.539  13.808
42991W        W11396   0.820  35.381   4.129
42992W        W11397  39.008  25.570   0.332
42993W        W11398   7.160  38.409  14.636
42994W        W11399  22.973  41.029  12.902
42995W        W11400  32.166  40.406   1.338
42996W        W11401  10.890  11.238  12.406
42997W        W11402  24.658   8.483   3.306
42998W        W11403  41.682  36.147   2.153
42999W        W11404  21.682   4.198  13.984
43000W        W11405  31.417  43.990   0.008
43001W        W11406  39.532  26.633  10.319
43002W        W11407  44.510  10.545  10.027
43003W        W11408  32.425  34.873  13.119
43004W        W11409  23.302  25.331  14.902
43005W        W11410  28.262   4.308   0.788
43006W        W11411   0.304   4.118  11.870
43007W        W11412   7.852  40.772  14.415
43008W        W11413   2.177  38.524  12.556
43009W        W11414   9.791  11.240   3.067
43010W        W11415  29.489  30.170  12.115
43011W        W11416  14.302  22.592  10.403
43012W        W11417   6.692   8.246  12.484
43013W        W11418  28.253  33.047   0.745
43014W        W11419  12.544  10.403  11.158
43015W        W11420   9.252  29.367   3.599
43016W        W11421  32.865  34.613  13.092
43017W        W11422  14.598  38.731   4.609
43018W        W11423  37.946  34.948   2.781
43019W        W11424  18.412   6.808  13.912
43020W        W11425  11.872  20.700  12.448
43021W        W11426   2.262  12.987   4.129
43022W        W11427  28.378   3.840   0.985
43023W        W11428   4.118  20.393  11.501
43024W        W11429  24.431  18.331  13.030
43025W        W11430  42.652  28.615   0.529
43026W        W11431  17.085  31.584   0.463
43027W        W11432   6.199   1.288  13.959
43028W        W11433  44.122  14.517  14.989
43029W        W11434  26.345   1.206  14.965
43030W        W11435  34.558   4.146  14.111
43031W        W11436  37.615   2.982   3.402
43032W        W11437  25.748  16.493  13.048
43033W        W11438   0.917  30.496   2.274
43034W        W11439  43.953  35.828   1.201
43035W        W11440  24.426  35.583  14.809
43036W        W11441  31.112   8.821  12.070
43037W        W11442  28.195  13.613  13.942
43038W        W11443  32.308  13.272  14.998
43039W        W11444  43.347   8.133   0.591
43040W        W11445  36.870   0.257  11.089
43041W        W11446  40.711  10.612   0.320
43042W        W11447  25.683  12.294  11.615
43043W        W11448  26.933  12.850  12.950
43044W        W11449  28.628   8.474   1.788
43045W        W11450   8.411  14.492  13.642
43046W        W11451  18.115  34.370  14.794
43047W        W11452  17.706  13.274  10.682
43048W        W11453  42.546   0.432   1.398
43049W        W11454  20.156  35.248   2.475
43050W        W11455   6.109   2.814   2.282
43051W        W11456   1.743  26.077   4.593
43052W        W11457  22.927  35.374   2.216
43053W        W11458  39.811  28.608  12.774
43054W        W11459  12.189  27.157  14.689
43055W        W11460  10.250  25.140  11.657
43056W        W11461  31.483  38.017  12.630
43057W        W11462  16.607  13.044  14.074
43058W        W11463  20.595   5.718   1.121
43059W        W11464  42.689   5.004   5.092
43060W        W11465  30.678   2.689   2.795
43061W        W11466  43.193   8.167   1.069
43062W        W11467  29.506  10.175  11.877
43063W        W11468  38.441   2.441   1.219
43064W        W11469  23.804  13.320   1.222
43065W        W11470  31.506  30.391   0.540
43066W        W11471  24.212  11.466  14.245
43067W        W11472   6.201  23.242  14.286
43068W        W11473  22.436  12.719   2.231
43069W        W11474  11.198  36.908   4.134
43070W        W11475  16.954  14.501  11.541
43071W        W11476   0.325  30.188   3.741
43072W        W11477   0.461  28.897  11.651
43073W        W11478  41.797  15.244   1.434
43074W        W11479  39.298  22.001   0.154
43075W        W11480  22.143   0.308   4.081
43076W        W11481   9.096  32.368  14.967
43077W        W11482  30.537   5.054   3.750
43078W        W11483   2.672   2.408  11.627
43079W        W11484  41.327  28.621  13.898
43080W        W11485  23.051   3.308   2.859
43081W        W11486  35.493  25.755   1.430
43082W        W11487   1.721  39.532  11.242
43083W        W11488  26.648  44.726  11.025
43084W        W11489  38.658  13.770   4.809
43085W        W11490  44.871   8.096  13.555
43086W        W11491   4.879  23.978   3.107
43087W        W11492  16.632   6.288  13.879
43088W        W11493  38.882  41.783  14.841
43089W        W11494  25.578  28.532   4.657
43090W        W11495   1.150  11.825  12.961
43091W        W11496  40.781  44.306  11.226
43092W        W11497   8.345   3.713  14.033
43093W        W11498  30.385  38.874   0.909
43094W        W11499  10.363  42.903   2.432
43095W        W11500   7.381   3.633   2.751
43096W        W11501  41.272  32.060  10.667
43097W        W11502  39.369  16.597  10.641
43098W        W11503  19.644   0.447   0.335
43099W        W11504   9.735  20.487  14.834
43100W        W11505   7.566   0.522   4.077
43101W        W11506  39.934   9.940   4.190
43102W        W11507   5.413  10.256   3.841
43103W        W11508  40.601  26.155   4.839
43104W        W11509  18.525  27.516  14.532
43105W        W11510  26.766  13.331  14.020
43106W        W11511   5.635   4.803  12.299
43107W        W11512  34.978  34.089  14.380
43108W        W11513  29.702  39.427   0.953
43109W        W11514   9.864  40.029   0.347
43110W        W11515   7.171  39.524   2.200
43111W        W11516  38.796   0.194   3.537
43112W        W11517  31.010  34.369   4.309
43113W        W11518  27.666  32.785  14.954
43114W        W11519  16.320  41.347   3.732
43115W        W11520  31.194  29.750   4.962
43116W        W11521   4.740  21.232   1.311
43117W        W11522  26.929  29.577   4.716
43118W        W11523   0.256   7.741   2.737
43119W        W11524  25.584  40.835  10.481
43120W        W11525  15.331  39.824   3.230
43121W        W11526  24.563  23.982   4.591
43122W        W11527  27.497  43.101  10.333
43123W        W11528  18.086   3.015   4.464
43124W        W11529  14.597  30.149   0.453
43125W        W11530  23.588  26.876   0.687
43126W        W11531   2.706  17.838   2.925
43127W        W11532  18.562  26.217   2.290
43128W        W11533  32.578  37.267  11.604
43129W        W11534  29.453  28.084  11.390
43130W        W11535  38.580  21.021   0.905
43131W        W11536  42.320  17.316   2.166
43132W        W11537  24.683   2.323  14.359
43133W        W11538  23.901  26.209   2.822
43134W        W11539   1.340   8.752  13.848
43135W        W11540  34.374  21.918   1.383
43136W        W11541   9.407  37.014  10.458
43137W        W11542   5.401   3.426  14.813
43138W        W11543  44.344  42.379  14.316
43139W        W11544  17.199  14.100   3.758
43140W        W11545  22.719   0.458  12.635
43141W        W11546  21.127  19.476   4.809
43142W        W11547  14.886  41.435  11.164
43143W        W11548   6.497  27.604   1.023
43144W        W11549  18.722  38.457   3.373
43145W        W11550   3.541  25.193  11.987
43146W        W11551   2.718   4.423  11.087
43147W        W11552  25.953  42.459  13.745
43148W        W11553  40.519   0.439   4.955
43149W        W11554   4.539  15.885  12.374
43150W        W11555  30.466  18.269   4.577
43151W        W11556  32.852  22.138  10.635
43152W        W11557  12.742  16.030  14.507
43153W        W11558   3.969  30.147   1.286
43154W        W11559  24.126  44.301   4.928
43155W        W11560  29.902  14.327   2.597
43156W        W11561  20.888  24.277   2.683
43157W        W11562  21.805  39.940   3.650
43158W        W11563  28.186   0.473   4.456
43159W        W11564  33.846  39.973  11.299
43160W        W11565   7.318   0.461   0.194
43161W        W11566   7.752   2.313  11.194
43162W        W11567   8.939  32.456   4.869
43163W        W11568  25.987  38.845   0.835
43164W        W11569   2.324  29.719   4.571
43165W        W11570  41.383  14.140   3.155
43166W        W11571  38.020  37.653   0.015
43167W        W11572   7.794   4.168   1.751
43168W        W11573  37.441  12.036  12.972
43169W        W11574  30.714  24.029  13.592
43170W        W11575  10.487   4.504   4.744
43171W        W11576   5.148  25.956   2.237
43172W        W11577  39.085   3.778   0.577
43173W        W11578  28.059  30.332  13.440
43174W        W11579   2.024  27.725   4.095
43175W        W11580  29.408  14.286   3.662
43176W        W11581  11.400  23.435  14.048
43177W        W11582  12.784  38.003  13.463
43178W        W11583  29.674   3.155  14.823
43179W        W11584  38.517  23.214   4.137
43180W        W11585  32.372  23.740   0.362
43181W        W11586  12.165  15.288  12.014
43182W        W11587   5.840  25.067  12.446
43183W        W11588  17.210  19.345   1.367
43184W        W11589   8.381   5.695   1.653
43185W        W11590  18.322  36.370   4.185
43186W        W11591   3.245  22.547   4.728
43187W        W11592  17.709  16.202   1.339
43188W        W11593  33.400  37.852  13.020
43189W        W11594  24.205   2.733   2.720
43190W        W11595  20.106  30.160   4.603
43191W        W11596  28.775  21.088  11.228
43192W        W11597   1.580  13.146   3.432
43193W        W11598  35.108   7.192   3.776
43194W        W11599  22.486  39.514   4.053
43195W        W11600  28.923  37.390   4.149
43196W        W11601   2.007  32.584   3.329
43197W        W11602  32.126  10.381  13.354
43198W        W11603  40.818   2.646  11.241
43199W        W11604  37.945  39.039  10.583
43200W        W11605  18.835   9.666  11.235
43201W        W11606  30.615  10.407   3.188
43202W        W11607  42.434  28.962   0.891
43203W        W11608  18.766  39.302  12.130
43204W        W11609  28.987  25.202  12.502
43205W        W11610  17.625  15.132   3.316
43206W        W11611  43.526  21.567   4.565
43207W        W11612  23.893  36.937   3.226
43208W        W11613  22.974  13.839   5.022
43209W        W11614   5.293  11.055   0.841
43210W        W11615   8.291  18.270   0.202
43211W        W11616  23.053  41.929   0.319
43212W        W11617  20.084  18.105   5.149
43213W        W11618  36.429   9.400  11.684
43214W        W11619   3.011   8.367  14.786
43215W        W11620  22.435  12.090   0.430
43216W        W11621  17.693  33.450  12.510
43217W        W11622  25.395   9.907  11.509
43218W        W11623  44.715   5.728  12.075
43219W        W11624  34.167  29.793   3.953
43220W        W11625  28.101  38.612  11.235
43221W        W11626  40.590  25.621   2.811
43222W        W11627  10.441  19.315   0.328
43223W        W11628  25.124  42.168   1.354
43224W        W11629  11.561  31.079   3.278
43225W        W11630  40.620  31.571  14.081
43226W        W11631   2.474  40.701  14.776
43227W        W11632   3.326  28.955   2.275
43228W        W11633  14.340  38.032   1.808
43229W        W11634  16.871   0.732  12.449
43230W        W11635  18.174  13.918   2.851
43231W        W11636   8.405  21.479  10.771
43232W        W11637  29.977  13.641   3.588
43233W        W11638  36.012   1.677  11.207
43234W        W11639  24.791  39.814  12.824
43235W        W11640  19.253  41.050  13.990
43236W        W11641  13.012   2.736  12.865
43237W        W11642  27.684  10.636  13.141
43238W        W11643  34.015  21.784  13.315
43239W        W11644  39.548  32.613  12.807
43240W        W11645  30.397  26.468   2.702
43241W        W11646  13.739  26.104   3.692
43242W        W11647  14.793   0.211   1.777
43243W        W11648  40.046   2.431   2.436
43244W        W11649  17.569  22.024   2.728
43245W        W11650  35.461   2.295   1.794
43246W        W11651  33.622  43.756   1.934
43247W        W11652  17.180  29.105  14.324
43248W        W11653   6.345  43.285   4.770
43249W        W11654  27.595  20.789  14.329
43250W        W11655  14.612  32.485   2.140
43251W        W11656  10.416  21.474  13.861
43252W        W11657  21.028   6.830   4.548
43253W        W11658  19.761   6.794  13.521
43254W        W11659  17.739  32.943  12.571
43255W        W11660  31.892  21.460   0.968
43256W        W11661  11.910  35.352  14.010
43257W        W11662  15.287  27.213  10.558
43258W        W11663  44.206  27.997  14.375
43259W        W11664  14.222  30.672   0.180
43260W        W11665  29.340  22.386   5.029
43261W        W11666   4.792  26.035  14.228
43262W        W11667  44.991  32.227  11.457
43263W        W11668  41.498   6.374  12.140
43264W        W11669  29.043  16.035   4.498
43265W        W11670   4.249  16.846  13.296
43266W        W11671  31.574   3.225   0.445
43267W        W11672  10.188  24.168  13.965
43268W        W11673  36.124   4.186   0.431
43269W        W11674  11.802   7.701  13.393
43270W        W11675   0.315  18.756  11.007
43271W        W11676  26.028  43.053   2.741
43272W        W11677   3.284  34.137  12.524
43273W        W11678  42.213   4.055  14.316
43274W        W11679  36.813  32.015   4.576
43275W        W11680  34.902   7.547  11.760
43276W        W11681  12.401  31.271  10.981
43277W        W11682   7.768  39.537  11.451
43278W        W11683   6.807  44.249   0.088
43279W        W11684  40.479   9.978   0.251
43280W        W11685   6.354  18.371   3.367
43281W        W11686   9.441   5.229   2.298
43282W        W11687  28.453  18.646  14.615
43283W        W11688  28.433  22.282   2.791
43284W        W11689  11.701  37.667   1.781
43285W        W11690  42.461   8.529   5.046
43286W        W11691  25.006  11.797   3.186
43287W        W11692   2.938   8.658   2.892
43288W        W11693  44.536  36.453  11.732
43289W        W11694  26.109  16.822   2.796
43290W        W11695   9.110  30.040  11.417
43291W        W11696  20.995  17.019  12.020
43292W        W11697   1.156  34.810  14.960
43293W        W11698  19.239  43.370   1.417
43294W        W11699  18.183   6.769   2.637
43295W        W11700  38.930  16.149   1.650
43296W        W11701  41.332  18.750   1.726
43297W        W11702  19.751  16.108  14.899
43298W        W11703  11.844   4.786   4.105
43299W        W11704  41.555   1.386  11.771
43300W        W11705  42.647  36.990  12.652
43301W        W11706  26.998  43.366   1.914
43302W        W11707  14.191  24.011   4.020
43303W        W11708  12.192   3.943  10.893
43304W        W11709  26.414  41.035   4.633
43305W        W11710   8.393  40.327   0.853
43306W        W11711   6.182  13.851   4.701
43307W        W11712  11.427  31.583   4.163
43308W        W11713   4.527   8.692  12.511
43309W        W11714   3.546   3.325  11.957
43310W        W11715   7.250  10.641   0.271
43311W        W11716  33.148  16.072  12.598
43312W        W11717  21.576  14.439  13.317
43313W        W11718  39.860  26.554   4.466
43314W        W11719   9.228  29.060  14.566
43315W        W11720  25.972  20.179  14.266
43316W        W11721  38.015  19.735   2.825
43317W        W11722  41.609  43.497   0.407
43318W        W11723  15.507  20.254   3.766
43319W        W11724  19.245  41.822   1.273
43320W        W11725   0.886  27.966  11.461
43321W        W11726  27.572  21.772   3.609
43322W        W11727  28.686  19.560  12.516
43323W        W11728  23.470  25.907   2.869
43324W        W11729  22.920  32.466   4.514
43325W        W11730  41.832  29.214  12.594
43326W        W11731  23.897  28.425  11.515
43327W        W11732  38.967  20.281  10.887
43328W        W11733   8.272  32.523  13.981
43329W        W11734   5.737  33.622  13.049
43330W        W11735  44.224  18.297  14.630
43331W        W11736  34.388   7.435  12.762
43332W        W11737   5.299  32.053  14.250
43333W        W11738  11.552  13.158   4.977
43334W        W11739   0.314  20.470   0.914
43335W        W11740  39.177  40.634   1.210
43336W        W11741   1.871  14.678   4.275
43337W        W11742  26.225  29.574   1.383
43338W        W11743  40.462  21.435   2.804
43339W        W11744  33.919  21.968   1.594
43340W        W11745   6.621  34.293  11.202
43341W        W11746  23.271   4.220   3.772
43342W        W11747  20.761  23.721   2.301
43343W        W11748  22.823  30.029  10.075
43344W        W11749  14.300  32.319  10.410
43345W        W11750  43.848  40.810  13.902
43346W        W11751  30.964  10.555  11.177
43347W        W11752  34.894  43.192  14.991
43348W        W11753  16.525  43.830   4.853
43349W        W11754  29.506  14.968   0.795
43350W        W11755  32.110  11.274   1.896
43351W        W11756  10.270   9.830  13.054
43352W        W11757   6.663  37.415  12.465
43353W        W11758  28.832   3.228  13.084
43354W        W11759  10.897  29.670  12.599
43355W        W11760  23.233  43.864   3.664
43356W        W11761   7.245  28.187   3.284
43357W        W11762   5.652   3.875  14.980
43358W        W11763  42.498   6.565  11.467
43359W        W11764  42.519  16.631  13.468
43360W        W11765  31.334  31.863  11.083
43361W        W11766   3.792  10.776   1.850
43362W        W11767  18.240  25.065   0.433
43363W        W11768  36.934  13.253  13.447
43364W        W11769  35.064   0.021  10.496
43365W        W11770  26.369  29.018  12.810
43366W        W11771  26.920  19.845   0.833
43367W        W11772  28.982  15.576   3.726
43368W        W11773   7.817  42.722  14.968
43369W        W11774   1.765  22.073  13.356
43370W        W11775  27.605  12.121   2.236
43371W        W11776  42.880  22.042   0.126
43372W        W11777  21.312  15.211   2.287
43373W        W11778   4.822  16.530  12.503
43374W        W11779   2.489  28.991   1.715
43375W        W11780  26.564   5.266   0.509
43376W        W11781  36.019  35.567   0.378
43377W        W11782  14.553   7.234  12.014
43378W        W11783   0.953  22.065   1.369
43379W        W11784  22.526  17.842  11.729
43380W        W11785  36.968  13.362   2.581
43381W        W11786  14.009  37.319  10.273
43382W        W11787  29.698  24.715   1.894
43383W        W11788   8.390  22.255   3.440
43384W        W11789  17.657  15.711   2.414
43385W        W11790  40.763  22.319  14.368
43386W        W11791  35.610  15.060  12.468
43387W        W11792  27.373   1.173   0.324
43388W        W11793  28.971  44.169  11.188
43389W        W11794  28.896  35.563   1.463
43390W        W11795  28.936  32.145   0.927
43391W        W11796  24.230   0.771   1.380
43392W        W11797  37.463  15.591  13.807
43393W        W11798  21.958   0.751  11.538
43394W        W11799   4.479  16.064   3.306
43395W        W11800  17.736  21.475   4.564
43396W        W11801  23.127  43.368   4.620
43397W        W11802   7.412   2.256   1.772
43398W        W11803   1.965   3.954  11.554
43399W        W11804   8.149  12.180   4.970
43400W        W11805   0.059   6.793   1.862
43401W        W11806  24.979   0.538   2.093
43402W        W11807   4.355  41.533   1.749
43403W        W11808  33.465   0.922   3.113
43404W        W11809   6.271  29.939  11.508
43405W        W11810  17.857  14.295  11.534
43406W        W11811  32.016  40.319   4.667
43407W        W11812  28.159  42.872  13.568
43408W        W11813  43.954  21.638  11.702
43409W        W11814  26.002  33.390  12.468
43410W        W11815  32.485  25.782   0.478
43411W        W11816   1.493  32.948   4.576
43412W        W11817  42.937  41.138  12.612
43413W        W11818   2.970  42.046  12.193
43414W        W11819   0.049  25.180  12.117
43415W        W11820  29.144  39.565  10.887
43416W        W11821  29.536  16.239  11.143
43417W        W11822   5.408  40.054   3.730
43418W        W11823  18.456  39.444  10.676
43419W        W11824   7.706  29.629  12.600
43420W        W11825   3.305   3.883  14.099
43421W        W11826  15.735  24.390  12.947
43422W        W11827  38.378   7.820  10.922
43423W        W11828  12.832   9.813   3.672
43424W        W11829  31.327  12.615   2.627
43425W        W11830  16.107  25.960  13.668
43426W        W11831  29.679  40.104  13.861
43427W        W11832  42.009  39.728   2.740
43428W        W11833   0.314  12.085  13.568
43429W        W11834   0.271  40.949  12.124
43430W        W11835  11.881  34.517  14.623
43431W        W11836   7.583  17.394   5.082
43432W        W11837  17.829  11.082  14.842
43433W        W11838   5.080  37.547   5.081
43434W        W11839   9.773  19.617  14.442
43435W        W11840  39.273  40.234  13.812
43436W        W11841  24.188   2.705   0.267
43437W        W11842   7.121   2.189  11.997
43438W        W11843  26.101  27.592   2.141
43439W        W11844  19.778  24.143  13.419
43440W        W11845  36.472  40.223  10.800
43441W        W11846  26.050  36.111   0.049
43442W        W11847  35.341  13.109   4.523
43443W        W11848  33.830  21.166   2.835
43444W        W11849   5.829  36.672  11.562
43445W        W11850  41.720   1.807   4.158
43446W        W11851  44.034  10.331  10.112
43447W        W11852  43.472  26.853   1.454
43448W        W11853   8.235  41.330   3.142
43449W        W11854  17.550  26.642  12.085
43450W        W11855   5.727  15.635  11.844
43451W        W11856  27.505   3.755   0.320
43452W        W11857  16.159  26.935  12.550
43453W        W11858  17.090  25.684   4.334
43454W        W11859  40.746  28.992  11.831
43455W        W11860  16.989   6.987  11.367
43456W        W11861  15.268   6.411  12.129
43457W        W11862  26.820   5.238  10.584
43458W        W11863  42.884   7.415   2.814
43459W        W11864   4.908  11.105   1.686
43460W        W11865  29.999  27.421   2.092
43461W        W11866  15.312   1.232   5.108
43462W        W11867  13.582  21.332  12.601
43463W        W11868  23.359  34.181   1.991
43464W        W11869  27.550  29.102  11.755
43465W        W11870  11.766  35.553   0.920
43466W        W11871  38.887   6.478   1.411
43467W        W11872  12.259  30.073  13.871
43468W        W11873  13.361  14.931  13.987
43469W        W11874  27.965  20.768  12.036
43470W        W11875   3.818  23.634  11.527
43471W        W11876   9.142  23.241  13.875
43472W        W11877  40.791   2.463   5.343
43473W        W11878  32.935  28.397   1.261
43474W        W11879  42.051  38.638  11.340
43475W        W11880  26.681  36.473   1.438
43476W        W11881  40.952   8.776  11.167
43477W        W11882  27.177  25.204   4.384
43478W        W11883   1.296  12.308  13.926
43479W        W11884  43.956  10.339  10.615
43480W        W11885  39.789   3.963  14.351
43481W        W11886   3.797  16.658  14.037
43482W        W11887  29.203  10.770   0.918
43483W        W11888   9.170  23.570  14.519
43484W        W11889  29.525  32.195   1.362
43485W        W11890  10.664  20.701   2.210
43486W        W11891  33.865  17.452  12.451
43487W        W11892  30.660  15.594   0.885
43488W        W11893  39.471   2.863   0.284
43489W        W11894  41.437   0.431  14.866
43490W        W11895  33.483   6.875  10.160
43491W        W11896  43.727   3.847  14.417
43492W        W11897   5.903  35.520   2.847
43493W        W11898   3.299   9.937   3.927
43494W        W11899  34.152   1.417   2.845
43495W        W11900  19.277  40.816  14.452
43496W        W11901   8.649   2.145  12.419
43497W        W11902   8.382  36.859  13.948
43498W        W11903  13.657  42.880   1.443
43499W        W11904   7.745  15.384  10.688
43500W        W11905  44.131  19.082   3.712
43501W        W11906  38.631  31.163  13.656
43502W        W11907  27.661   9.135   1.272
43503W        W11908  16.681  11.865  14.800
43504W        W11909  39.273  30.619  14.355
43505W        W11910  44.906  20.512   0.167
43506W        W11911  17.551  16.884   3.790
43507W        W11912  38.301  41.317   1.957
43508W        W11913  43.304  26.948  12.304
43509W        W11914  16.667  33.920   4.096
43510W        W11915  36.145  21.588  11.160
43511W        W11916  21.926  10.134  10.710
43512W        W11917  42.658  36.362  12.288
43513W        W11918  24.606   6.020   2.125
43514W        W11919  17.441  42.778   5.112
43515W        W11920   0.447  44.542  14.338
43516W        W11921   4.656  23.959   4.617
43517W        W11922  26.098  29.425  13.821
43518W        W11923   9.604   7.846   3.926
43519W        W11924  17.046  26.357  12.113
43520W        W11925  12.907   6.532   0.559
43521W        W11926  35.886  34.673  11.935
43522W        W11927  20.337   9.452  13.510
43523W        W11928  37.800  10.392   0.247
43524W        W11929  24.101   5.780   4.765
43525W        W11930   5.993   4.707   3.111
43526W        W11931  16.159  28.405  11.632
43527W        W11932   9.137   0.041  11.586
43528W        W11933   7.921  22.067  14.281
43529W        W11934   9.730  39.408  12.911
43530W        W11935  14.198   3.830   3.561
43531W        W11936  40.284   4.242  11.865
43532W        W11937  24.572  35.099  14.771
43533W        W11938   5.693   3.931   2.464
43534W        W11939  35.308  41.481   2.760
43535W        W11940  18.846  10.183  11.958
43536W        W11941   2.292  20.150  12.170
43537W        W11942  25.180  41.382  11.939
43538W        W11943  17.674   3.369  14.605
43539W        W11944  22.666  11.152   4.709
43540W        W11945  33.488  23.036   1.949
43541W        W11946  35.960  33.839   2.593
43542W        W11947   3.589  24.280  10.926
43543W        W11948   3.205  44.855  14.781
43544W        W11949  19.715   1.741   3.110
43545W        W11950  42.537  40.497  13.051
43546W        W11951  21.218  29.837   4.218
43547W        W11952  17.423   9.835  14.392
43548W        W11953   6.618  11.253   2.877
43549W        W11954  20.094  21.118   2.151
43550W        W11955   7.746  44.518   4.087
43551W        W11956   0.682   5.204  12.528
43552W        W11957  11.312  10.800  14.532
43553W        W11958  11.357   5.321  13.188
43554W        W11959   6.920  13.689  12.888
43555W        W11960  34.470  30.681   4.218
43556W        W11961  14.828   9.129  10.570
43557W        W11962  41.143  25.385   1.171
43558W        W11963  12.352  17.574  14.966
43559W        W11964   8.214   1.333  12.616
43560W        W11965  13.726  40.645  12.505
43561W        W11966   1.636  20.353  14.482
43562W        W11967  22.579  42.232  14.044
43563W        W11968  28.241  41.959   9.856
43564W        W11969  20.851  38.397  11.092
43565W        W11970  31.957  26.124  12.960
43566W        W11971  40.785  29.027   0.142
43567W        W11972  17.847  37.450   3.638
43568W        W11973   6.356  32.980   4.749
43569W        W11974  20.608  23.050   3.985
43570W        W11975  36.278  36.944   3.640
43571W        W11976  37.190  37.819  10.750
43572W        W11977  14.370   8.733   0.791
43573W        W11978  22.124  10.308   1.346
43574W        W11979  28.535  31.242  13.474
43575W        W11980  39.412  28.083  11.586
43576W        W11981  17.223  13.326  10.425
43577W        W11982  34.937  20.551   1.397
43578W        W11983  39.900  25.149   4.441
43579W        W11984   2.713  18.162  14.049
43580W        W11985   8.280   1.432   4.203
43581W        W11986  32.535   3.091   1.775
43582W        W11987  35.025  43.057   9.986
43583W        W11988   8.370  11.250  11.506
43584W        W11989  39.418  39.306  10.704
43585W        W11990  39.186   2.226   5.023
43586W        W11991  41.145  23.471   0.108
43587W        W11992   7.681   5.931   0.931
43588W        W11993  32.151  16.631   1.138
43589W        W11994   0.556  29.174   3.054
43590W        W11995  41.571   4.106  14.836
43591W        W11996  37.234  34.031  12.059
43592W        W11997  17.194  16.986   1.255
43593W        W11998   6.444  29.881  10.652
43594W        W11999  26.692  33.154   0.004
43595W        W12000  27.046   1.292  12.920
43596W        W12001  12.326  43.854   1.976
43597W        W12002  43.414  22.455  10.858
43598W        W12003  28.842  37.693   1.834
43599W        W12004  23.563  18.799  14.798
43600W        W12005  25.045  21.179  14.587
43601W        W12006  29.760  12.635  13.006
43602W        W12007  11.273   7.952   0.342
43603W        W12008  25.530  32.569  13.377
43604W        W12009   2.177   5.824  14.880
43605W        W12010  21.019  24.141   1.614
43606W        W12011  41.070   1.557   2.766
43607W        W12012  44.520  38.854   2.264
43608W        W12013  38.620  25.961   1.185
43609W        W12014  22.346  24.827   0.446
43610W        W12015  10.727   1.513  14.295
43611W        W12016  44.377  17.819  14.879
43612W        W12017   2.968  23.688   2.618
43613W        W12018  21.844  23.270  14.358
43614W        W12019  23.239  31.202   3.882
43615W        W12020  20.403  41.436   1.013
43616W        W12021  41.219  18.627  11.533
43617W        W12022  15.003   4.999   3.280
43618W        W12023   0.101  34.863   4.741
43619W        W12024  34.617   6.958   0.852
43620W        W12025  42.307   7.718  12.967
43621W        W12026  31.547  31.092  11.459
43622W        W12027   2.954   9.442  10.109
43623W        W12028  44.485  27.911   1.343
43624W        W12029  24.686  40.751   4.709
43625W        W12030   5.253  17.514   0.829
43626W        W12031  13.889   2.500  12.288
43627W        W12032   6.290  42.024   0.403
43628W        W12033  36.278  44.262   1.934
43629W        W12034  42.778  33.850  14.493
43630W        W12035  35.918  15.188   1.651
43631W        W12036  33.435  32.692   2.936
43632W        W12037  32.634  18.720  13.762
43633W        W12038  39.237  40.993  10.786
43634W        W12039  22.698  22.235   0.460
43635W        W12040  12.829  22.554  14.976
43636W        W12041  39.298  17.009  14.022
43637W        W12042  19.474  43.024   0.414
43638W        W12043  15.565  33.448   0.552
43639W        W12044  24.559   0.305   0.807
43640W        W12045   9.282   6.664  10.724
43641W        W12046  44.003   5.298   0.321
43642W        W12047  14.665  19.472  11.533
43643W        W12048  31.919  23.618  10.432
43644W        W12049   7.727  10.855   0.921
43645W        W12050  43.802  21.066  14.987
43646W        W12051  15.738  44.017   0.443
43647W        W12052   2.904  32.983   1.429
43648W        W12053   5.104  20.844  14.769
43649W        W12054  16.385  28.491   1.720
43650W        W12055  15.512   9.360  13.490
43651W        W12056   9.230  20.706  14.864
43652W        W12057  24.771   7.702  14.494
43653W        W12058  22.618  43.246   4.786
43654W        W12059  33.577  12.757   3.732
43655W        W12060  30.304  38.529   3.334
43656W        W12061  35.401  35.974   0.358
43657W        W12062  41.338  26.576  12.943
43658W        W12063  15.288  31.073   0.216
43659W        W12064  14.773  27.826  13.416
43660W        W12065  17.593  27.418  11.522
43661W        W12066  30.435  44.226  12.202
43662W        W12067  25.981  37.576   2.777
43663W        W12068  35.920  30.859  10.584
43664W        W12069  37.821  44.402  11.796
43665W        W12070  36.863  44.825  14.994
43666W        W12071  26.432  42.752  12.041
43667W        W12072   0.777  42.302  13.464
43668W        W12073  37.626   3.073  11.601
43669W        W12074  25.179   1.988  11.039
43670W        W12075  39.913  36.634   2.436
43671W        W12076  10.123   1.708  14.751
43672W        W12077  18.756   0.514  13.042
43673W        W12078  44.479   0.784  14.689
43674W        W12079  38.765  10.355   2.704
43675W        W12080   7.167  31.725  14.620
43676W        W12081  11.207  32.561  13.805
43677W        W12082  42.570  25.718  13.812
43678W        W12083  26.520   7.207   4.565
43679W        W12084  17.146  20.930   4.298
43680W        W12085  20.874  18.586  13.539
43681W        W12086   9.434  19.277   0.411
43682W        W12087  40.296  15.437  10.728
43683W        W12088  18.621  33.357  13.472
43684W        W12089  38.079   2.881  11.466
43685W        W12090   2.806  29.310  13.030
43686W        W12091  42.071  21.232  11.067
43687W        W12092   9.982  20.288  11.137
43688W        W12093  29.794  41.404  12.543
43689W        W12094  37.888  13.323   0.580
43690W        W12095  44.801  43.526   0.985
43691W        W12096  44.996  13.253   2.130
43692W        W12097  39.087   3.929   4.502
43693W        W12098  41.452  40.636  13.964
43694W        W12099  35.680   9.218   2.160
43695W        W12100  15.180  15.828   2.850
43696W        W12101  43.543   8.257  11.685
43697W        W12102   7.015  25.202  11.224
43698W        W12103  14.891  29.238  12.719
43699W        W12104  36.938   7.313   0.950
43700W        W12105  28.013  31.951   1.346
43701W        W12106  29.200  26.661   4.577
43702W        W12107   7.214   4.716  13.820
43703W        W12108  36.340  34.313  14.530
43704W        W12109  10.679  27.140   2.529
43705W        W12110  12.679  11.737  14.125
43706W        W12111  13.749  43.797   1.284
43707W        W12112  31.110   9.202   1.897
43708W        W12113  38.974  10.266  10.698
43709W        W12114  14.297  29.801   4.974
43710W        W12115  16.998   5.900   2.862
43711W        W12116  39.100  42.757   1.698
43712W        W12117  43.053  32.179   4.524
43713W        W12118  23.865  24.556  14.503
43714W        W12119  22.749  21.458  12.611
43715W        W12120  12.824   5.288  11.998
43716W        W12121   0.202  10.593  11.154
43717W        W12122  36.801   4.234   2.100
43718W        W12123  39.099  28.423  14.779
43719W        W12124   6.325  40.803   4.161
43720W        W12125   9.513   6.256   1.129
43721W        W12126   5.055  37.952   0.421
43722W        W12127  16.121  27.477   1.755
43723W        W12128   1.508  43.486   2.796
43724W        W12129  38.371  21.748   3.110
43725W        W12130  38.437  32.939  13.524
43726W        W12131  27.374  44.817  11.586
43727W        W12132  26.540   6.187  12.407
43728W        W12133  30.534   2.043   3.593
43729W        W12134  19.571  14.240   0.909
43730W        W12135   8.628  43.777  13.593
43731W        W12136   9.632  28.444  12.045
43732W        W12137  40.810  35.897   3.666
43733W        W12138   1.026  23.243  13.285
43734W        W12139   9.336  11.867   0.198
43735W        W12140  24.009  42.877   1.281
43736W        W12141  12.840  14.027   4.596
43737W        W12142  40.468  15.389   4.189
43738W        W12143   8.090  10.554   3.244
43739W        W12144  43.910  33.669   2.349
43740W        W12145  23.072   4.247  10.684
43741W        W12146  32.922   7.276   2.406
43742W        W12147  10.932   4.435   3.778
43743W        W12148  41.717   2.337  14.389
43744W        W12149  41.531   6.460   1.785
43745W        W12150   6.204  43.849   1.952
43746W        W12151   6.568  42.491   3.808
43747W        W12152  39.055  23.668  11.665
43748W        W12153  20.191   9.567  14.372
43749W        W12154  23.355  33.004   2.356
43750W        W12155   2.991  34.029   3.811
43751W        W12156  18.897  19.802   1.732
43752W        W12157  22.016  24.460   0.276
43753W        W12158  44.467  17.436  12.304
43754W        W12159  19.159  26.747  12.908
43755W        W12160   5.343  38.883  13.381
43756W        W12161   2.243   0.338  12.141
43757W        W12162   1.246  15.268  13.887
43758W        W12163  12.735  13.675  13.095
43759W        W12164  34.980  26.593   2.344
43760W        W12165  28.135  13.070   1.242
43761W        W12166   2.925   8.602  11.977
43762W        W12167   0.474  21.153  14.083
43763W        W12168  18.464  15.904   1.890
43764W        W12169  21.659   7.704  13.173
43765W        W12170  40.807   7.906   0.606
43766W        W12171  35.203   9.332   0.902
43767W        W12172  30.813  44.455   0.224
43768W        W12173   1.341  12.339  10.505
43769W        W12174   9.701  22.821   4.205
43770W        W12175  30.007  44.355   0.951
43771W        W12176  29.570  38.864  10.598
43772W        W12177  13.689  39.335  13.873
43773W        W12178  18.828   8.448  13.330
43774W        W12179  38.908   6.912  13.387
43775W        W12180   9.734   1.013  13.025
43776W        W12181  41.088  37.021   3.676
43777W        W12182  44.394   6.426  10.068
43778W        W12183  22.635  18.642   1.134
43779W        W12184   3.414  21.655   1.463
43780W        W12185  13.071  33.776   0.299
43781W        W12186  19.714  20.625  13.296
43782W        W12187  26.106  33.111   0.231
43783W        W12188  33.015   3.291   2.785
43784W        W12189  20.158  12.250  13.315
43785W        W12190  27.719  14.156   1.257
43786W        W12191  21.002  17.049  13.583
43787W        W12192   3.465   7.762  14.561
43788W        W12193   9.281  12.814  13.737
43789W        W12194  38.284  10.802   0.967
43790W        W12195  41.901  25.681   0.897
43791W        W12196  22.445   2.477   0.061
43792W        W12197  28.388  13.329   4.147
43793W        W12198  10.302  10.786  11.180
43794W        W12199  16.578  17.780  14.251
43795W        W12200  20.509  38.012   3.193
43796W        W12201  22.072  39.879   1.833
43797W        W12202  22.386  19.367  12.300
43798W        W12203  34.481  22.716   4.885
43799W        W12204   7.132  30.414   1.871
43800W        W12205  41.426   1.793  13.825
43801W        W12206  36.898  23.199  12.936
43802W        W12207   2.720  15.992   2.882
43803W        W12208  41.347  31.505   0.281
43804W        W12209  10.670  22.706  11.682
43805W        W12210  25.160   1.123   0.465
43806W        W12211  39.801  36.806  11.995
43807W        W12212  17.331  42.763  12.432
43808W        W12213  44.361  17.933  12.399
43809W        W12214  13.600  42.684  11.550
43810W        W12215  20.186   8.473   0.242
43811W        W12216  12.000  39.672  12.824
43812W        W12217  37.318  34.115   1.366
43813W        W12218   3.439  12.346  14.917
43814W        W12219   8.574  32.968  14.000
43815W        W12220   7.998  12.317   1.854
43816W        W12221   8.386  31.608  12.830
43817W        W12222  16.002  25.484  11.709
43818W        W12223  40.442  35.895   0.359
43819W        W12224  41.637  41.875  13.671
43820W        W12225  12.243   5.570   0.260
43821W        W12226  36.880  41.378   0.076
43822W        W12227  25.197  15.883   0.420
43823W        W12228  33.363  31.422  13.375
43824W        W12229  22.788  17.321   3.124
43825W        W12230  36.203   9.343   0.775
43826W        W12231  33.905  15.526  14.213
43827W        W12232   7.163  30.517   2.715
43828W        W12233  21.822  17.343  10.809
43829W        W12234  26.658  41.487  14.302
43830W        W12235  14.331  26.160   1.894
43831W        W12236   5.364   7.435   5.030
43832W        W12237  24.995   3.927  14.358
43833W        W12238  36.029  24.501   1.483
43834W        W12239  39.413  23.593   1.434
43835W        W12240   4.198   9.216   1.316
43836W        W12241  34.198  32.130  10.796
43837W        W12242  37.511   9.175   4.199
43838W        W12243  24.035   7.535   5.044
43839W        W12244  10.599  25.188   2.387
43840W        W12245   3.710  42.004  12.663
43841W        W12246   8.837  11.154   1.866
43842W        W12247  27.078  19.087  13.892
43843W        W12248  12.533   9.170   4.465
43844W        W12249   6.965  28.227   4.091
43845W        W12250  34.817  23.930   0.178
43846W        W12251  11.927  17.166   2.142
43847W        W12252  15.917  14.941   3.697
43848W        W12253  27.732  23.567   2.642
43849W        W12254   3.472  23.478   1.763
43850W        W12255   7.194  42.807   4.328
43851W        W12256   1.457   4.233  11.902
43852W        W12257  28.135  30.721   1.931
43853W        W12258  31.868   3.273   1.841
43854W        W12259  34.894  44.067   3.165
43855W        W12260  31.932  36.391   2.637
43856W        W12261   0.615  32.602  13.659
43857W        W12262  42.271  35.758  10.659
43858W        W12263  44.954  31.205  13.275
43859W        W12264  43.809  36.532   1.760
43860W        W12265   1.988  11.085   4.262
43861W        W12266  10.254  28.885  14.984
43862W        W12267  30.468  36.314  13.365
43863W        W12268  25.211   3.321  11.209
43864W        W12269  44.454  11.725   3.788
43865W        W12270  44.524  25.661  14.846
43866W        W12271   9.230   1.070  13.026
43867W        W12272  22.774   9.727   3.338
43868W        W12273  19.619  11.760   2.945
43869W        W12274   3.132   5.865   3.291
43870W        W12275  11.291  15.103  11.961
43871W        W12276  44.757  32.967  12.840
43872W        W12277  28.302  14.154   4.970
43873W        W12278   2.219  13.156   1.355
43874W        W12279   1.492   2.826   0.200
43875W        W12280  42.387  32.466   2.292
43876W        W12281  40.845  27.722   0.804
43877W        W12282   5.339  21.352   0.274
43878W        W12283   5.431   5.796   1.591
43879W        W12284  15.684  36.921   0.109
43880W        W12285   6.138  24.525  12.046
43881W        W12286  44.588  33.866  12.447
43882W        W12287  37.735  43.840  14.045
43883W        W12288  10.946  31.502   2.336
43884W        W12289  22.625  39.368   0.342
43885W        W12290  27.419  26.185  12.891
43886W        W12291  28.096  39.816  13.751
43887W        W12292  12.857  10.720   1.661
43888W        W12293  38.512  11.166   3.729
43889W        W12294   8.675  38.917   3.785
43890W        W12295   1.231  14.165  11.187
43891W        W12296   8.593  36.528   3.320
43892W        W12297  20.454  24.776   3.201
43893W        W12298  41.766  25.972  11.715
43894W        W12299  37.078  17.883  14.351
43895W        W12300  17.640   8.395   0.930
43896W        W12301   7.845  21.760   2.348
43897W        W12302  36.833  34.734  13.932
43898W        W12303   6.375  15.066  10.682
43899W        W12304   1.229  17.212   2.690
43900W        W12305  21.074  22.827   0.288
43901W        W12306   2.762  18.052  12.708
43902W        W12307  35.847  17.899   3.661
43903W        W12308  42.491  40.538   4.650
43904W        W12309   8.293  19.585  14.459
43905W        W12310  21.829  32.114  12.961
43906W        W12311  30.207  39.923   2.737
43907W        W12312  37.543  15.541   1.355
43908W        W12313  22.136  15.500  12.252
43909W        W12314  25.685  43.528   1.820
43910W        W12315  44.716  12.138   1.685
43911W        W12316  34.133  34.708   4.484
43912W        W12317  18.991  16.616  13.831
43913W        W12318  41.489  31.209   1.270
43914W        W12319  44.243  24.241  11.599
43915W        W12320  40.880  18.208   4.606
43916W        W12321  19.994  31.052   0.678
43917W        W12322  26.009  21.970   2.494
43918W        W12323  43.970  39.375   2.159
43919W        W12324  21.703  33.451   3.868
43920W        W12325   2.591  28.020  14.063
43921W        W12326  31.352  44.850   3.632
43922W        W12327   2.275  15.944  14.125
43923W        W12328   8.127   0.905  11.382
43924W        W12329  21.196  39.622   4.832
43925W        W12330  17.356  41.198   3.408
43926W        W12331   6.428   6.353   4.580
43927W        W12332   9.157  31.149  14.335
43928W        W12333  35.131  32.577   0.720
43929W        W12334  25.219   8.845  10.984
43930W        W12335  25.581   9.111   4.442
43931W        W12336  41.008  36.027   2.721
43932W        W12337   4.366  10.565   1.104
43933W        W12338   4.339  43.695  11.162
43934W        W12339  29.501  29.855  11.234
43935W        W12340   5.812   4.762   4.056
43936W        W12341  18.171   5.161  12.446
43937W        W12342  28.212  23.508   3.845
43938W        W12343  29.704   4.326  12.137
43939W        W12344  16.284   7.076   4.141
43940W        W12345  43.958  17.899   1.824
43941W        W12346  26.142  18.580  13.569
43942W        W12347   1.275  28.104  14.285
43943W        W12348  24.270  44.305   1.336
43944W        W12349  40.938  34.299   2.558
43945W        W12350  38.401   9.453  10.856
43946W        W12351   6.360   2.061   2.800
43947W        W12352  19.223  10.043   4.550
43948W        W12353  36.543  28.931   0.836
43949W        W12354   3.274   5.235  11.134
43950W        W12355  36.505  19.691  14.836
43951W        W12356  17.177  20.654  13.942
43952W        W12357   1.528   2.280   1.844
43953W        W12358  13.727  44.882   2.646
43954W        W12359  28.019  44.540   3.290
43955W        W12360  38.086   9.822  10.643
43956W        W12361  32.773   9.626  14.863
43957W        W12362  12.185  39.606  12.368
43958W        W12363  44.564   1.419   0.318
43959W        W12364  12.182  12.921   0.820
43960W        W12365  38.935  38.890  11.485
43961W        W12366   0.155  38.760   0.313
43962W        W12367  21.542  37.165  10.849
43963W        W12368  18.070  20.032   3.580
43964W        W12369  12.746  37.622   3.880
43965W        W12370  42.096  14.790  14.007
43966W        W12371  12.697  19.439  13.146
43967W        W12372  38.984  20.148   0.546
43968W        W12373  30.079  37.256   4.553
43969W        W12374  10.407  19.992  11.400
43970W        W12375  21.107  44.693   4.676
43971W        W12376  17.178  25.036  10.750
43972W        W12377  11.098  31.929  10.604
43973W        W12378  33.241   3.361   5.016
43974W        W12379  27.502  38.965  12.280
43975W        W12380  44.407  36.976   3.227
43976W        W12381  11.691   3.806  12.609
43977W        W12382  17.747  30.139   1.921
43978W        W12383  39.985   1.429  13.640
43979W        W12384  36.948  26.563   1.663
43980W        W12385  14.493  29.263  11.101
43981W        W12386  38.564  14.834   1.196
43982W        W12387  34.025  24.556   1.292
43983W        W12388  39.560  27.815  10.279
43984W        W12389   9.357  28.682  10.757
43985W        W12390  14.738  43.909   2.325
43986W        W12391  32.295   5.877  11.951
43987W        W12392  14.471   0.473   3.576
43988W        W12393  15.310  11.222  10.785
43989W        W12394  42.550  38.589  11.186
43990W        W12395   8.679   4.527   1.393
43991W        W12396  35.847  24.081  13.110
43992W        W12397  34.678  20.212   1.753
43993W        W12398  10.641  43.768  14.999
43994W        W12399  39.352  11.767  14.405
43995W        W12400   5.273   5.512  14.795
43996W        W12401  38.855  26.665  13.948
43997W        W12402  29.610  25.533   3.184
43998W        W12403   5.070   5.206   1.288
43999W        W12404  14.508  44.763  14.742
44000W        W12405  38.932  17.581   1.382
44001W        W12406  28.363  16.823   3.705
44002W        W12407  30.443  38.373  10.757
44003W        W12408  10.861  11.747  14.877
44004W        W12409  27.750  11.171  12.362
44005W        W12410  13.273  39.083   2.717
44006W        W12411  27.647  13.316  12.378
44007W        W12412   3.002  39.847   4.082
44008W        W12413  22.483  25.137  13.356
44009W        W12414  42.851  25.514   0.508
44010W        W12415  42.406  24.872  11.091
44011W        W12416  13.185  11.825  11.963
44012W        W12417  29.160  29.746  12.128
44013W        W12418  40.788   1.488  14.914
44014W        W12419  34.948   9.663  11.592
44015W        W12420  27.978   7.654   3.689
44016W        W12421  31.069  40.487   0.432
44017W        W12422  41.825   4.430   0.757
44018W        W12423  14.292  14.753   4.266
44019W        W12424  11.714  41.560  11.136
44020W        W12425  40.032  18.532   4.644
44021W        W12426  30.503  37.817  14.394
44022W        W12427  10.058   6.686  12.499
44023W        W12428   8.146  24.170  13.800
44024W        W12429  19.471  10.280   5.023
44025W        W12430   7.764  24.694  10.711
44026W        W12431  36.313   7.811   3.476
44027W        W12432   3.725  16.382  12.535
44028W        W12433  36.439  33.495  10.711
44029W        W12434  31.449  39.596   2.422
44030W        W12435   8.649  38.801   4.900
44031W        W12436  38.583  44.281  13.986
44032W        W12437   7.321   7.491  11.229
44033W        W12438  15.104   6.283   1.765
44034W        W12439  25.685  16.710  11.153
44035W        W12440  25.097  22.628   3.623
44036W        W12441   0.569  17.733  13.306
44037W        W12442  12.179  15.172  13.446
44038W        W12443   7.034  44.030   0.482
44039W        W12444  16.560   2.816   3.327
44040W        W12445  22.090  28.469  10.970
44041W        W12446  43.437  19.734   4.031
44042W        W12447  15.256   1.401  12.980
44043W        W12448  20.750  14.175  14.261
44044W        W12449  15.865  14.767   2.355
44045W        W12450  18.049  23.682   4.588
44046W        W12451  17.139  15.107  10.494
44047W        W12452  44.071   4.760   4.020
44048W        W12453   1.738   9.218   2.642
44049W        W12454   8.379  16.230   0.928
44050W        W12455  28.731  10.034  11.971
44051W        W12456  41.787  18.091  11.305
44052W        W12457  41.884  42.581  14.365
44053W        W12458  24.201  28.251  13.320
44054W        W12459  10.293  26.511   3.358
44055W        W12460  14.743   3.394   0.730
44056W        W12461  42.998  37.198   2.848
44057W        W12462  22.224  24.618   2.769
44058W        W12463   1.447  19.318  10.384
44059W        W12464  33.729  31.966  10.586
44060W        W12465  13.795  32.646  13.342
44061W        W12466  29.441  19.739   2.441
44062W        W12467  36.211   2.694   3.209
44063W        W12468  16.765  44.376  13.998
44064W        W12469  41.464  38.470   3.759
44065W        W12470  40.276  38.193   1.949
44066W        W12471  19.617  18.330   1.958
44067W        W12472   5.257  14.614   1.267
44068W        W12473  36.998   5.609  12.516
44069W        W12474   2.927  40.291  14.973
44070W        W12475  18.591   9.840   2.783
44071W        W12476   6.248  11.049  12.015
44072W        W12477  42.922  27.681   3.133
44073W        W12478  38.082   8.343  12.807
44074W        W12479  17.142  23.437   3.657
44075W        W12480   4.304  27.724   1.744
44076W        W12481   1.328   5.677   3.738
44077W        W12482   4.039  19.644   2.588
44078W        W12483  34.856  28.434  13.976
44079W        W12484  10.981   5.636  13.789
44080W        W12485  32.398  44.557  14.348
44081W        W12486   2.831  19.651   2.976
44082W        W12487   2.117  38.757   5.144
44083W        W12488  42.111  23.500  10.081
44084W        W12489   9.774  26.696   3.580
44085W        W12490  40.935  26.966  14.448
44086W        W12491  41.808  15.265  10.636
44087W        W12492  43.268  15.487   0.312
44088W        W12493  29.095  31.892   1.372
44089W        W12494  38.905   3.491  11.651
44090W        W12495  33.030  43.723   3.845
44091W        W12496  17.120  13.837  14.474
44092W        W12497  37.485  18.170  12.497
44093W        W12498  40.884  36.791  13.137
44094W        W12499  28.047   1.472   4.284
44095W        W12500  25.720  24.916   4.813
44096W        W12501   2.934  31.565  10.713
44097W        W12502  30.049  36.033  12.874
44098W        W12503  41.567  12.079   3.615
44099W        W12504  25.033  33.064   1.985
44100W        W12505  22.047  15.752  14.976
44101W        W12506  39.796  22.079  10.670
44102W        W12507  34.077  44.588  13.953
44103W        W12508  34.404  19.587   1.781
44104W        W12509   6.441  21.081   4.647
44105W        W12510  17.234  22.815  14.116
44106W        W12511  18.858  11.900  11.550
44107W        W12512  11.790  39.749   0.371
44108W        W12513  20.986   6.183  14.864
44109W        W12514  20.541  44.844   2.680
44110W        W12515   9.296  43.359   0.385
44111W        W12516  42.967   6.870  11.190
44112W        W12517   9.170  25.031  12.600
44113W        W12518  34.507  23.010  12.463
44114W        W12519  36.056   1.363   2.961
44115W        W12520  13.879   7.310   4.020
44116W        W12521  41.327  19.684   0.266
44117W        W12522  35.963  34.990   1.189
44118W        W12523  32.304   9.378  11.019
44119W        W12524   7.830  23.676  14.021
44120W        W12525   5.261  14.359   5.023
44121W        W12526  43.503  30.736   0.034
44122W        W12527  14.663  31.426   4.560
44123W        W12528  41.602  29.660   3.852
44124W        W12529  11.172  21.806   4.166
44125W        W12530  22.670  24.121   0.037
44126W        W12531  40.735   9.299   3.372
44127W        W12532  40.322  33.957  11.474
44128W        W12533   0.669  36.188  11.975
44129W        W12534   2.759  28.158   0.741
44130W        W12535  34.094   9.696   2.883
44131W        W12536  16.059  22.956  11.226
44132W        W12537  36.318  40.404   1.640
44133W        W12538  17.969   3.426  13.121
44134W        W12539  21.154  11.818  12.045
44135W        W12540  10.830   4.603  11.259
44136W        W12541  41.973  23.874  14.378
44137W        W12542   4.863  41.066  12.419
44138W        W12543   3.453  25.406   3.792
44139W        W12544  38.950  42.519   4.104
44140W        W12545   5.544  44.102   0.287
44141W        W12546  31.176   3.413   4.305
44142W        W12547  31.671   9.388  13.268
44143W        W12548  20.401  22.519   4.909
44144W        W12549  32.310   2.755   0.785
44145W        W12550  21.124  11.432  14.031
44146W        W12551  28.219  20.596  12.885
44147W        W12552  32.311  25.033   4.785
44148W        W12553  16.079   6.729   4.625
44149W        W12554  43.129  13.234  10.433
44150W        W12555  13.700   3.690   1.891
44151W        W12556  18.307   4.422   2.790
44152W        W12557  19.579  33.077   0.730
44153W        W12558  34.189  42.218  12.951
44154W        W12559  23.624   5.921  13.957
44155W        W12560  15.122   0.184   0.328
44156W        W12561  19.247  23.467  12.923
44157W        W12562  26.867  33.557  14.007
44158W        W12563  24.465   7.442  13.547
44159W        W12564  35.059  17.858  12.047
44160W        W12565  12.274  26.275   4.107
44161W        W12566   3.734  41.809  14.083
44162W        W12567  31.591  34.533  14.576
44163W        W12568  32.963   2.436  14.356
44164W        W12569  40.300  16.185   3.792
44165W        W12570  35.416  27.215   2.841
44166W        W12571   3.019   3.948  11.621
44167W        W12572   8.938  38.341   3.366
44168W        W12573  15.664  38.638  10.710
44169W        W12574  43.447  36.501   2.149
44170W        W12575   9.104   1.869  12.374
44171W        W12576  32.163  23.277   1.236
44172W        W12577  32.003   6.722   1.660
44173W        W12578  29.872   1.022  13.393
44174W        W12579   4.828   3.439  10.615
44175W        W12580  41.932  15.197   4.717
44176W        W12581  22.404  10.685  10.150
44177W        W12582  14.038  28.236  10.992
44178W        W12583  17.158  19.354   3.265
44179W        W12584  21.937  42.458  14.306
44180W        W12585  31.130   2.408  11.749
44181W        W12586  33.569  15.125  14.122
44182W        W12587  23.182  34.864   3.243
44183W        W12588   3.005  32.052   3.780
44184W        W12589  35.121   1.796  11.083
44185W        W12590  15.648  42.485  14.933
44186W        W12591   1.385  14.924   0.743
44187W        W12592  25.178  23.334   2.409
44188W        W12593  43.496  44.203   2.265
44189W        W12594  17.119   8.832  12.758
44190W        W12595   6.551  17.511  14.037
44191W        W12596  28.485  42.920  12.227
44192W        W12597  43.426   0.875  13.617
44193W        W12598  23.737   7.482   2.853
44194W        W12599   6.403  33.024  10.928
44195W        W12600   3.431  44.333   3.981
44196W        W12601   0.630  34.286   0.870
44197W        W12602  43.264  11.170   3.582
44198W        W12603  10.161  30.172   4.221
44199W        W12604  16.660  14.739   0.460
44200W        W12605  27.660  14.544  11.131
44201W        W12606   9.327  10.823  14.877
44202W        W12607   2.814  37.349  12.934
44203W        W12608  29.598  34.017  12.373
44204W        W12609  30.589  41.846  13.557
44205W        W12610  19.914  24.194  10.273
44206W        W12611  21.366   5.404   1.435
44207W        W12612  30.219  39.288  11.611
44208W        W12613  17.689  44.861  11.721
44209W        W12614  33.005  18.900  12.357
44210W        W12615  29.333   9.296   3.456
44211W        W12616  13.192  30.475   4.787
44212W        W12617  42.811  29.195  13.807
44213W        W12618  20.513   1.256   3.708
44214W        W12619  18.657   9.146   0.310
44215W        W12620   6.940  26.664  10.698
44216W        W12621   5.257  16.612   4.390
44217W        W12622  20.197   5.486   1.899
44218W        W12623   0.561   6.688   1.940
44219W        W12624  21.816  44.475  14.802
44220W        W12625  34.475  15.155   2.155
44221W        W12626  16.713  43.962   3.275
44222W        W12627  21.949   7.780  12.762
44223W        W12628   1.743  10.410  14.423
44224W        W12629  34.459  33.689  13.385
44225W        W12630  11.566  14.322   1.385
44226W        W12631  38.223  12.697  13.529
44227W        W12632  43.763   9.146  11.623
44228W        W12633  24.223  18.130  10.715
44229W        W12634   5.309  32.078  13.291
44230W        W12635  30.037   2.967  14.497
44231W        W12636  27.448  36.319  12.477
44232W        W12637  40.873  33.446   2.436
44233W        W12638   1.316  12.880   1.616
44234W        W12639   5.362  33.416   2.815
44235W        W12640   9.205  13.678   3.740
44236W        W12641  37.851  38.122   0.802
44237W        W12642  33.410  12.143  11.598
44238W        W12643  10.915  11.572  14.264
44239W        W12644   2.550  40.972  11.690
44240W        W12645  44.642  38.494   4.627
44241W        W12646  31.821  15.516  13.428
44242W        W12647  24.586  30.095   1.585
44243W        W12648  17.740  44.530  13.407
44244W        W12649  21.577   0.022  10.754
44245W        W12650  19.679  15.814  10.312
44246W        W12651  17.974  19.681   3.214
44247W        W12652  39.642  26.324  13.498
44248W        W12653  20.076   5.015   1.188
44249W        W12654  12.176   8.464  12.418
44250W        W12655  23.231  40.107   0.135
44251W        W12656  38.994  15.586   3.191
44252W        W12657  37.798  15.237  11.331
44253W        W12658  43.473  32.501   3.180
44254W        W12659  20.423   0.021   3.132
44255W        W12660   3.793  43.140   4.522
44256W        W12661  38.848  42.269  14.531
44257W        W12662   3.204  21.524   3.753
44258W        W12663  16.661  31.245  14.319
44259W        W12664  19.494  32.668  11.960
44260W        W12665   1.540  23.671   3.133
44261W        W12666  19.322   0.539  14.016
44262W        W12667  30.490  11.557   4.549
44263W        W12668  44.619  15.283   2.863
44264W        W12669  43.952  26.618   1.294
44265W        W12670  31.817  10.827  12.176
44266W        W12671  38.310   5.927  12.570
44267W        W12672  13.269  42.396  13.973
44268W        W12673  24.566   8.881   1.883
44269W        W12674  31.390  37.093   2.222
44270W        W12675  27.597  17.264   1.455
44271W        W12676   4.399   1.458  10.398
44272W        W12677   2.419   9.962  14.829
44273W        W12678  13.602  16.129   4.483
44274W        W12679   6.280  35.585   3.404
44275W        W12680   0.957  35.901   0.771
44276W        W12681  10.627  18.713  10.659
44277W        W12682  22.393  36.564  10.038
44278W        W12683   0.527  18.094  10.261
44279W        W12684  10.917  24.093  14.879
44280W        W12685  18.700   4.241  10.705
44281W        W12686  38.970   1.940   9.953
44282W        W12687   5.455  39.150  12.936
44283W        W12688  36.856   5.870   3.789
44284W        W12689  42.745   2.231  14.373
44285W        W12690  10.236  13.348  13.474
44286W        W12691  27.610   1.260   4.087
44287W        W12692  28.004  26.439   1.942
44288W        W12693   2.331  10.189   4.653
44289W        W12694   1.064  22.977  12.478
44290W        W12695  20.267  26.037   2.656
44291W        W12696  23.513  31.085   3.156
44292W        W12697   5.358   9.199   4.635
44293W        W12698   9.162   9.354  13.357
44294W        W12699  23.992  26.144   3.765
44295W        W12700   8.987   1.075   0.353
44296W        W12701  40.243  31.102   3.281
44297W        W12702  32.754  25.001   1.674
44298W        W12703   9.899  18.523  14.965
44299W        W12704  23.483  15.439  12.402
44300W        W12705  15.268  41.847   2.475
44301W        W12706   0.783  26.507  13.927
44302W        W12707   2.691   8.665   0.083
44303W        W12708  33.773  22.029  13.744
44304W        W12709  36.187  11.429   4.626
44305W        W12710  25.204   1.681  13.148
44306W        W12711  43.638  17.222  13.316
44307W        W12712  26.518  10.333   5.481
44308W        W12713  41.949  31.302   4.521
44309W        W12714  33.500   2.675   2.528
44310W        W12715  13.490   7.406   3.670
44311W        W12716   6.004  31.477  12.335
44312W        W12717  16.547  30.432  12.115
44313W        W12718  44.317   6.747   0.482
44314W        W12719   8.993  37.391   1.022
44315W        W12720   5.391   9.908  12.171
44316W        W12721  35.894  36.067  13.004
44317W        W12722  43.554  44.458   0.924
44318W        W12723  21.553  23.704  14.328
44319W        W12724  39.069   2.862  11.065
44320W        W12725  43.561  30.314   3.767
44321W        W12726  37.491  22.447  13.855
44322W        W12727   0.826  11.692   2.109
44323W        W12728   0.276   6.273   5.186
44324W        W12729  19.270  44.779  14.385
44325W        W12730  27.497  33.757   4.090
44326W        W12731   3.432  17.051  10.231
44327W        W12732  35.844  17.219  11.161
44328W        W12733   7.428  23.619   2.791
44329W        W12734  44.244  13.785   1.178
44330W        W12735  29.110  24.237   0.543
44331W        W12736  18.536   7.226  12.095
44332W        W12737  25.228  42.430   3.662
44333W        W12738  16.221  35.373   4.558
44334W        W12739  37.042  12.104   4.581
44335W        W12740  15.261   8.805   3.968
44336W        W12741  41.255   5.276  14.061
44337W        W12742   1.494  22.084   1.157
44338W        W12743   5.963  40.892  12.969
44339W        W12744  42.993  38.474  11.991
44340W        W12745  31.453  31.081  10.664
44341W        W12746  24.949  20.619  11.664
44342W        W12747   0.245   0.321   0.875
44343W        W12748  10.729  37.467   5.084
44344W        W12749  25.920   7.835  11.699
44345W        W12750   2.549  27.661   4.088
44346W        W12751  22.330  35.070   0.623
44347W        W12752   2.200  19.800   2.240
44348W        W12753  19.117   2.732   4.181
44349W        W12754  38.998   3.344   3.624
44350W        W12755  19.505  24.446   2.361
44351W        W12756   7.569  29.925  13.001
44352W        W12757  24.661  33.902  12.508
44353W        W12758  16.280  27.897  11.656
44354W        W12759  35.561  21.099  11.613
44355W        W12760  32.358  37.831   0.715
44356W        W12761  15.107  32.340  11.327
44357W        W12762  43.432  22.971  10.738
44358W        W12763  32.926   9.598   0.977
44359W        W12764  39.519  27.929  13.857
44360W        W12765   6.477  19.695  11.638
44361W        W12766  26.691  31.511   0.857
44362W        W12767  15.806  23.106  12.514
44363W        W12768  22.451  12.500  13.959
44364W        W12769  17.232  44.909  12.555
44365W        W12770  18.870  35.512   0.345
44366W        W12771  12.195  38.574   1.452
44367W        W12772  11.967  30.671   4.122
44368W        W12773  10.100  38.846   3.322
44369W        W12774   3.378  12.891  12.561
44370W        W12775  22.653  34.645   4.194
44371W        W12776  25.052   6.657  11.798
44372W        W12777  30.351  34.083  11.605
44373W        W12778  20.175  41.394   4.980
44374W        W12779   8.774  43.601  11.977
44375W        W12780   2.476   5.056   4.142
44376W        W12781  30.923  19.993  12.644
44377W        W12782  19.444  11.870   5.211
44378W        W12783  35.309   7.620  14.386
44379W        W12784   5.235   7.481   4.232
44380W        W12785   0.496  35.504  13.128
44381W        W12786   2.276   8.244  14.242
44382W        W12787  40.137  34.020   2.144
44383W        W12788   2.908  41.941   1.812
44384W        W12789  38.792  32.132  14.849
44385W        W12790  23.311  17.203  14.854
44386W        W12791  35.535  44.948   3.834
44387W        W12792   6.115  26.560   1.853
44388W        W12793   3.434   8.359   0.890
44389W        W12794  21.595  33.103   4.281
44390W        W12795  22.760  34.403   1.252
44391W        W12796   0.170  15.750  10.282
44392W        W12797  25.261  41.048   0.593
44393W        W12798  18.626  43.206   1.829
44394W        W12799   5.917  23.597  11.716
44395W        W12800  15.317  34.946  11.053
44396W        W12801   3.780  35.363  11.396
44397W        W12802  19.981   9.223   0.693
44398W        W12803  24.500  43.783  12.381
44399W        W12804  26.034  18.589   1.300
44400W        W12805  44.358  18.764  10.617
44401W        W12806  28.022  41.461   4.106
44402W        W12807  12.655   8.918  12.880
44403W        W12808   9.687  12.664   3.388
44404W        W12809   9.325  17.894   4.509
44405W        W12810  44.529  37.471   1.675
44406W        W12811  14.818  25.750  13.792
44407W        W12812  18.124  17.752   3.650
44408W        W12813  37.952  31.152   2.936
44409W        W12814  15.031  39.041   4.571
44410W        W12815  21.406   5.332   2.881
44411W        W12816   9.377   0.444  12.516
44412W        W12817   9.618  38.133   1.248
44413W        W12818   9.448  29.909  14.630
44414W        W12819   0.317   1.247  13.316
44415W        W12820  43.651  10.107   0.676
44416W        W12821  37.586  24.022   2.685
44417W        W12822   9.785  31.084   3.636
44418W        W12823  27.086   8.809  12.026
44419W        W12824  10.945  33.264   9.877
44420W        W12825  21.560  22.050   2.389
44421W        W12826  26.136  29.715   1.872
44422W        W12827  41.393   9.583   0.894
44423W        W12828  24.242   2.074   2.209
44424W        W12829   5.027  41.295   4.178
44425W        W12830   0.768   7.879   2.802
44426W        W12831   5.197  30.919   1.834
44427W        W12832  31.166  34.826   3.115
44428W        W12833  14.671  40.093  12.537
44429W        W12834   8.840  24.585   2.932
44430W        W12835   4.701  33.407   2.108
44431W        W12836  39.642   7.892   3.214
44432W        W12837  18.660  16.786  12.424
44433W        W12838  42.836  34.662  11.251
44434W        W12839  29.571   5.854   4.387
44435W        W12840  19.329  13.187   2.787
44436W        W12841  39.414  31.598   3.572
44437W        W12842  42.210  36.156  12.505
44438W        W12843   7.108  42.357   4.594
44439W        W12844  29.184  22.523   1.530
44440W        W12845  20.318  26.374  12.545
44441W        W12846   7.617  39.396   4.160
44442W        W12847  39.894  27.080   3.650
44443W        W12848  21.979  39.634  14.959
44444W        W12849   2.239  17.370   1.708
44445W        W12850   8.267  20.318  12.108
44446W        W12851   1.824  38.967  12.051
44447W        W12852  40.859  42.227   3.649
44448W        W12853  44.554   1.671   2.607
44449W        W12854  17.041  21.397  13.357
44450W        W12855  11.299  15.367   4.540
44451W        W12856  12.277  31.818  13.483
44452W        W12857  15.834  32.864  10.252
44453W        W12858   1.461  20.325   0.368
44454W        W12859  15.870   0.374  14.870
44455W        W12860  26.576   3.172   4.214
44456W        W12861  18.207  10.617  10.747
44457W        W12862  44.534  15.646   3.300
44458W        W12863  25.963  42.355  12.465
44459W        W12864  34.387  44.384  10.191
44460W        W12865  16.566  41.064   2.306
44461W        W12866   4.706  24.008  10.204
44462W        W12867   4.387  21.801  10.681
44463W        W12868  35.444  23.975   4.494
44464W        W12869   8.821  25.059   2.703
44465W        W12870  32.274  43.537  11.551
44466W        W12871   4.319  35.506   0.716
44467W        W12872  16.287   2.961  14.685
44468W        W12873   0.345  10.333  14.302
44469W        W12874  42.228  21.915   2.701
44470W        W12875  40.030  16.355   2.582
44471W        W12876   4.640  21.943  11.136
44472W        W12877  32.994  12.429   2.850
44473W        W12878  11.005   9.157  12.185
44474W        W12879  21.673  37.873  12.906
44475W        W12880  35.567  21.393   3.204
44476W        W12881  24.973  37.886   1.079
44477W        W12882   0.889  31.109  13.906
44478W        W12883  15.794  25.232   0.850
44479W        W12884   9.222  22.020  10.570
44480W        W12885  27.953  37.954   1.757
44481W        W12886   2.915  30.414   3.336
44482W        W12887  41.210  22.751   4.295
44483W        W12888  33.023  42.328  11.644
44484W        W12889  34.952   3.692  14.092
44485W        W12890  37.826  39.488  14.921
44486W        W12891  32.657  32.968  10.642
44487W        W12892   8.280  28.435   3.313
44488W        W12893  18.240  43.931  13.922
44489W        W12894  22.098  24.018  10.567
44490W        W12895   8.674   8.668   3.642
44491W        W12896  18.059  20.140  12.900
44492W        W12897   0.404  20.370  12.480
44493W        W12898  33.578  26.484   2.093
44494W        W12899  30.044  21.052   3.271
44495W        W12900  34.930   2.283   2.644
44496W        W12901  36.565  21.062  12.504
44497W        W12902  18.111  43.437  12.518
44498W        W12903  31.930   7.925  11.081
44499W        W12904  14.592  33.344   3.593
44500W        W12905  13.547  38.488  11.315
44501W        W12906  20.464  13.188  12.484
44502W        W12907  30.454  37.618   3.257
44503W        W12908  19.601  15.584  13.860
44504W        W12909  16.847  10.094   3.944
44505W        W12910  19.905  16.683  11.024
44506W        W12911   3.176  10.838   4.609
44507W        W12912  32.377   9.494   4.163
44508W        W12913  17.566   6.899   4.489
44509W        W12914  19.117  38.382   1.235
44510W        W12915  37.043   6.816  14.753
44511W        W12916  37.808  40.734   0.295
44512W        W12917  21.041  41.680   0.213
44513W        W12918   8.888  17.041  11.581
44514W        W12919  28.608  15.226   9.979
44515W        W12920  42.216  37.519  13.375
44516W        W12921  24.601  43.707   0.085
44517W        W12922  29.387  18.707  12.957
44518W        W12923  34.133  16.836  13.304
44519W        W12924  30.166  20.312   1.908
44520W        W12925  11.673  22.011  13.785
44521W        W12926  11.232  27.070   0.774
44522W        W12927  26.518  18.670  14.992
44523W        W12928   3.268  19.095   1.722
44524W        W12929  40.156  13.224   0.709
44525W        W12930  11.792  21.233   0.329
44526W        W12931  31.614  34.486  13.557
44527W        W12932  18.833  19.383  12.912
44528W        W12933  18.476  34.671  13.642
44529W        W12934   8.052  10.502  11.907
44530W        W12935  36.629  26.413  12.795
44531W        W12936  33.561  23.910  13.958
44532W        W12937   6.783  39.127  11.307
44533W        W12938   3.197   1.242   0.893
44534W        W12939  14.038  13.734  12.810
44535W        W12940  21.493   3.735  10.327
44536W        W12941  19.454  13.778  14.962
44537W        W12942   9.891  41.954   0.376
44538W        W12943  16.275  15.118   0.696
44539W        W12944  36.801  33.414  12.552
44540W        W12945   6.667  40.321  12.808
44541W        W12946  32.442  33.536   1.499
44542W        W12947  25.054   9.246  11.276
44543W        W12948  39.302  37.625   3.703
44544W        W12949  10.161  18.092  14.864
44545W        W12950  33.426  10.810   4.175
44546W        W12951  26.761  19.091  14.789
44547W        W12952   2.322  42.139   2.359
44548W        W12953  40.554   3.464   0.199
44549W        W12954  11.272  24.965  11.720
44550W        W12955  29.543  33.093  12.228
44551W        W12956  30.510  12.609  14.329
44552W        W12957  42.423   3.408  11.454
44553W        W12958   9.484  14.838  11.681
44554W        W12959  44.281  23.556  10.593
44555W        W12960  15.129  31.526   2.878
44556W        W12961  37.907   3.090   3.816
44557W        W12962  43.730  34.981  12.150
44558W        W12963   4.061  26.549  10.318
44559W        W12964   2.144   1.191   2.279
44560W        W12965  33.252  11.626  11.627
44561W        W12966  42.757  16.982   4.940
44562W        W12967   1.911  13.842   0.303
44563W        W12968  41.482  39.069  11.212
44564W        W12969  31.950  32.700  12.534
44565W        W12970  11.375  37.360  11.160
44566W        W12971  14.837  31.873  12.655
44567W        W12972   8.671  27.133   4.148
44568W        W12973   7.391  13.657  14.345
44569W        W12974  19.984   2.436  11.979
44570W        W12975  15.300  39.400   0.387
44571W        W12976  29.485  31.455  11.151
44572W        W12977   5.803  43.149   3.186
44573W        W12978  34.450  18.105  14.321
44574W        W12979  35.446  23.547   0.086
44575W        W12980   0.329  17.561  12.422
44576W        W12981  35.543   5.815  14.317
44577W        W12982  26.558  43.755   4.503
44578W        W12983  23.325  15.921   2.250
44579W        W12984  10.284  16.636   0.815
44580W        W12985   0.033  42.711  13.789
44581W        W12986  16.122   5.449  14.768
44582W        W12987  29.528   8.710   2.259
44583W        W12988  15.103  29.110   2.164
44584W        W12989  16.083   1.266   4.594
44585W        W12990   5.442  31.983   4.602
44586W        W12991   1.939  20.757  14.339
44587W        W12992  11.826  22.184   0.681
44588W        W12993  26.072   5.380   1.428
44589W        W12994   3.202  18.699   3.590
44590W        W12995  21.267  44.864   3.618
44591W        W12996  13.935  35.013   1.861
44592W        W12997   0.341  31.106   3.685
44593W        W12998   4.777   6.269  14.316
44594W        W12999  41.861  26.998  14.421
44595W        W13000  24.144  30.182  11.110
44596W        W13001   6.924   7.802   1.765
44597W        W13002  42.956  35.624   4.463
44598W        W13003  15.838  36.605  11.768
44599W        W13004  15.016   2.259   1.111
44600W        W13005  38.200   3.896  11.669
44601W        W13006   9.282  18.544  13.616
44602W        W13007  22.747  32.605  13.778
44603W        W13008  16.099   8.869  11.880
44604W        W13009  18.571  27.261   0.913
44605W        W13010  14.488   4.894   3.218
44606W        W13011  43.820  13.855  11.656
44607W        W13012  11.637  35.136   4.218
44608W        W13013   0.204  15.440  13.946
44609W        W13014  19.433  38.293   2.614
44610W        W13015  10.425  24.529   2.041
44611W        W13016  20.075  36.765  13.024
44612W        W13017   8.871  36.117  12.997
44613W        W13018  19.947  30.980   1.719
44614W        W13019  26.354  38.270  14.937
44615W        W13020   4.524  43.100   0.335
44616W        W13021  19.342   1.702  11.930
44617W        W13022   6.318  24.281  13.348
44618W        W13023  44.655  17.024  13.358
44619W        W13024   0.434  13.745  10.515
44620W        W13025  10.168  22.549  14.337
44621W        W13026  14.443   8.773  13.950
44622W        W13027  36.237  25.866   3.410
44623W        W13028   2.746  31.870   0.014
44624W        W13029  30.198  22.684  12.016
44625W        W13030  32.364  12.441  14.696
44626W        W13031  19.523  33.037   3.801
44627W        W13032   4.142  12.583   2.413
44628W        W13033  16.364  23.245   5.656
44629W        W13034  12.726  11.316  13.777
44630W        W13035  28.652  38.080   1.189
44631W        W13036  31.329  44.008   3.776
44632W        W13037  27.628  24.528   2.931
44633W        W13038  18.054   7.443   2.336
44634W        W13039  10.843  42.773  13.776
44635W        W13040  24.193  16.362  14.418
44636W        W13041  14.237  42.369   4.609
44637W        W13042   9.838   5.289   4.397
44638W        W13043  24.156   9.578   4.084
44639W        W13044   4.994   5.827   5.415
44640W        W13045  36.874  44.673  12.636
44641W        W13046  32.170  35.136   1.405
44642W        W13047  33.178  23.451   4.230
44643W        W13048   7.242   3.428  14.364
44644W        W13049  28.401  14.901   0.373
44645W        W13050  42.163  26.092   4.166
44646W        W13051  26.758   6.638  12.288
44647W        W13052  40.948  19.962   1.788
44648W        W13053  41.957  24.390   1.276
44649W        W13054  14.893  31.533  10.332
44650W        W13055  30.016   3.732   3.868
44651W        W13056  22.257   9.173   1.980
44652W        W13057  18.354  29.728  13.106
44653W        W13058  23.741  12.540   3.455
44654W        W13059  24.779  16.745   2.891
44655W        W13060  11.826   8.447   4.231
44656W        W13061  36.500   2.201  13.373
44657W        W13062  23.953  37.164  12.848
44658W        W13063  23.763  43.531  13.164
44659W        W13064   9.896  34.951  10.981
44660W        W13065  28.188  30.218   1.862
44661W        W13066  15.332  11.576  14.765
44662W        W13067   3.129  24.053   2.963
44663W        W13068  43.255  22.806  11.189
44664W        W13069  37.983  43.684  13.053
44665W        W13070  37.499  29.745  13.388
44666W        W13071  12.770  25.755  14.352
44667W        W13072   9.178  32.666   0.856
44668W        W13073  16.040   7.089   5.004
44669W        W13074  38.500  21.681  12.855
44670W        W13075  11.770  17.752   3.092
44671W        W13076  16.637  30.050   4.387
44672W        W13077  36.185   1.106  12.421
44673W        W13078  10.688   2.204   1.856
44674W        W13079  39.356  18.353  14.972
44675W        W13080  27.081  30.280   2.225
44676W        W13081   7.519   2.178   0.859
44677W        W13082  40.194  17.618   2.092
44678W        W13083   1.875   2.388  10.802
44679W        W13084  25.634  17.761   3.719
44680W        W13085  12.629  15.118  12.158
44681W        W13086  39.888  38.983   2.284
44682W        W13087  39.746  44.490  12.458
44683W        W13088  23.013  32.173  12.065
44684W        W13089  12.156  31.316   0.678
44685W        W13090  12.847   6.215  13.432
44686W        W13091   4.119  19.524   1.745
44687W        W13092  12.833  30.913   1.827
44688W        W13093  43.748   0.734  12.693
44689W        W13094   8.061  33.497  10.725
44690W        W13095  27.470   8.533  14.899
44691W        W13096  33.369  32.896  12.640
44692W        W13097  35.194  11.733   1.775
44693W        W13098  25.206  38.055   1.499
44694W        W13099  37.416  13.189  11.156
44695W        W13100  11.623  25.368  12.080
44696W        W13101  41.403  38.771   1.957
44697W        W13102   3.219   0.892  13.534
44698W        W13103  21.078  13.763  13.061
44699W        W13104   8.526  26.642   0.765
44700W        W13105  36.392   9.081  14.045
44701W        W13106  28.230  38.459   4.509
44702W        W13107  37.226  24.634  12.099
44703W        W13108  36.892  11.029   4.050
44704W        W13109   5.160   0.934   0.700
44705W        W13110  13.595  39.140  14.324
44706W        W13111  36.778  24.828  13.360
44707W        W13112  24.742   0.390  11.733
44708W        W13113  22.704   7.755   0.481
44709W        W13114  13.355  33.102  11.081
44710W        W13115  12.526  42.362   0.853
44711W        W13116  43.091   2.506   4.991
44712W        W13117   6.670  38.960   1.772
44713W        W13118  31.585  18.269   2.905
44714W        W13119  35.134  39.543   4.079
44715W        W13120  23.453   4.426  13.599
44716W        W13121   6.938   1.845   4.050
44717W        W13122  12.392  33.999  12.025
44718W        W13123  11.826  23.342  14.340
44719W        W13124   7.207  25.078  12.505
44720W        W13125  10.992  21.310  10.210
44721W        W13126  17.204  22.176  14.860
44722W        W13127   4.721   6.093   2.828
44723W        W13128   9.101   3.664   4.951
44724W        W13129  26.087  41.994   4.628
44725W        W13130  15.599  17.122  13.348
44726W        W13131  34.437  33.938   0.413
44727W        W13132  18.032  32.843  12.989
44728W        W13133  31.368  12.803   4.164
44729W        W13134   3.678  34.889  11.247
44730W        W13135   3.963  24.407   4.763
44731W        W13136  33.112  16.017  13.102
44732W        W13137  26.991  19.182   4.256
44733W        W13138  39.111   7.883   3.241
44734W        W13139  17.112  12.040   3.921
44735W        W13140   2.770  34.831  14.523
44736W        W13141  27.344  26.367  13.479
44737W        W13142  14.712  43.868  14.359
44738W        W13143  12.375  19.292  14.482
44739W        W13144  41.832   1.064  13.342
44740W        W13145  24.719  25.231  13.020
44741W        W13146  31.558   0.695   2.176
44742W        W13147   5.345  26.458  12.897
44743W        W13148  10.301  29.788  14.477
44744W        W13149  29.688  20.763   3.579
44745W        W13150  30.397  14.072   0.352
44746W        W13151  10.711  43.475  13.311
44747W        W13152  13.650   8.170   0.761
44748W        W13153  14.867   2.824  13.360
44749W        W13154  17.131  30.530  13.898
44750W        W13155  11.853  10.698   4.574
44751W        W13156  28.748   2.298   1.743
44752W        W13157  43.749  36.012  14.990
44753W        W13158  23.759  35.026   0.756
44754W        W13159  37.673   5.319   3.190
44755W        W13160   5.443  31.877   1.289
44756W        W13161   7.187  26.871   2.042
44757W        W13162   4.666  28.121  14.930
44758W        W13163  13.634  26.631  14.602
44759W        W13164  40.035  26.681  12.577
44760W        W13165  30.546  24.321   4.934
44761W        W13166  39.367  26.643  14.358
44762W        W13167  19.514  44.878  13.384
44763W        W13168  43.915  14.469   1.654
44764W        W13169  35.876   7.063   2.342
44765W        W13170   0.800   4.458  10.762
44766W        W13171  21.871   2.738  13.767
44767W        W13172  12.695  28.598   1.825
44768W        W13173  25.193  42.537   1.725
44769W        W13174  34.078  18.368   3.915
44770W        W13175  14.837  26.958  12.869
44771W        W13176  36.161  38.532   1.773
44772W        W13177  33.478  37.123   4.982
44773W        W13178   4.761  28.520  14.427
44774W        W13179  15.642  36.462   1.229
44775W        W13180  11.116   1.739   3.606
44776W        W13181  42.979  14.621   2.894
44777W        W13182  32.043  41.335   3.703
44778W        W13183   6.146   8.179  11.453
44779W        W13184   3.338  27.286   4.534
44780W        W13185  22.863  30.356   0.020
44781W        W13186  30.536  21.057  14.903
44782W        W13187  24.747  16.802   2.369
44783W        W13188  28.926  32.355   0.281
44784W        W13189  28.921  24.609   1.301
44785W        W13190  38.944  10.816   0.210
44786W        W13191  36.960  28.946   4.303
44787W        W13192  28.562  39.417   2.671
44788W        W13193  44.917  36.853   1.239
44789W        W13194   4.798  19.657   5.029
44790W        W13195   2.900  15.575   3.836
44791W        W13196  22.673  22.748   0.623
44792W        W13197  32.842  14.404  11.103
44793W        W13198  20.087  25.828  13.987
44794W        W13199   7.635  24.926   2.496
44795W        W13200  29.579  13.861  11.862
44796W        W13201  37.719  33.848   2.302
44797W        W13202  44.821   2.792  14.291
44798W        W13203  20.166  40.532  10.254
44799W        W13204  13.375  41.312   4.457
44800W        W13205  12.770  42.477  13.381
44801W        W13206  33.515  25.923  11.138
44802W        W13207  34.511  20.711   4.425
44803W        W13208   8.479  34.876  12.911
44804W        W13209  34.961  15.478  10.034
44805W        W13210  29.631   6.219  11.030
44806W        W13211  31.343   6.853  14.449
44807W        W13212  40.285   1.845   4.090
44808W        W13213   5.235   9.335   1.342
44809W        W13214  22.436   0.476   3.610
44810W        W13215  42.326  40.985   4.828
44811W        W13216  41.249  11.633  13.933
44812W        W13217   9.263   1.304   0.749
44813W        W13218  10.968  28.729  10.292
44814W        W13219  14.428  35.628   1.266
44815W        W13220  12.542  14.270  14.920
44816W        W13221  24.574  30.086   0.312
44817W        W13222  23.562  11.117  11.529
44818W        W13223  12.832  26.977  11.951
44819W        W13224  37.407   5.778   3.178
44820W        W13225  16.115  30.989   1.168
44821W        W13226   2.008  26.474   0.450
44822W        W13227  43.978  18.720   0.544
44823W        W13228  41.358  37.383   2.736
44824W        W13229  18.514  18.515   2.604
44825W        W13230  26.694  22.039   3.263
44826W        W13231  36.875  14.906   4.198
44827W        W13232  42.270   1.935  10.615
44828W        W13233  39.066  18.182   4.434
44829W        W13234  21.970  43.014   0.975
44830W        W13235  27.217  36.722   4.707
44831W        W13236   7.849  40.528  12.556
44832W        W13237  36.915  33.868   1.132
44833W        W13238  29.959  25.528   0.188
44834W        W13239  42.231   2.943  13.470
44835W        W13240  36.606  30.218  13.544
44836W        W13241  28.167  32.129   3.739
44837W        W13242   2.928  42.924   4.169
44838W        W13243  24.158  37.100   4.549
44839W        W13244  15.239  42.889   4.760
44840W        W13245  21.172  18.948   4.715
44841W        W13246  41.882   9.365   5.020
44842W        W13247  26.524   1.830  12.567
44843W        W13248  44.897  28.588  11.088
44844W        W13249  44.492  19.401   1.875
44845W        W13250  28.219  14.001   2.242
44846W        W13251  43.989  26.811  10.308
44847W        W13252  17.225   4.285   4.915
44848W        W13253  31.948  40.494  10.445
44849W        W13254  41.918  26.184   2.351
44850W        W13255  28.192   1.408  14.811
44851W        W13256  10.382  35.313  10.964
44852W        W13257   6.081   1.467  14.782
44853W        W13258  14.335   6.331   1.253
44854W        W13259  29.541   4.379  13.867
44855W        W13260  21.697  40.367  14.187
44856W        W13261  43.163  30.548  14.125
44857W        W13262  17.157   5.168   1.737
44858W        W13263  40.715  31.612  14.599
44859W        W13264  27.676   8.751  13.366
44860W        W13265  11.475  16.986   1.357
44861W        W13266   0.696  44.127  10.841
44862W        W13267  25.511  33.831   0.662
44863W        W13268  40.532  26.177  14.690
44864W        W13269  22.405   3.223  14.993
44865W        W13270  18.613  41.513   3.205
44866W        W13271  37.586   4.280   3.146
44867W        W13272   8.092  37.346   1.303
44868W        W13273  16.632   2.394  12.906
44869W        W13274  44.274  11.065  12.842
44870W        W13275   1.931   4.223  10.278
44871W        W13276  16.151   1.644  10.712
44872W        W13277  40.279  18.345   0.751
44873W        W13278  16.178  18.618   2.193
44874W        W13279  13.338   0.066  12.148
44875W        W13280  38.471  35.128  11.058
44876W        W13281   6.654  15.166  13.050
44877W        W13282  13.252  17.256   4.613
44878W        W13283   8.128  34.910   4.625
44879W        W13284  10.130  13.836   2.080
44880W        W13285  33.634   4.203  14.590
44881W        W13286  10.253  27.067   4.010
44882W        W13287  10.770  34.138  12.597
44883W        W13288  22.556  44.997  13.006
44884W        W13289   1.647  40.930   3.857
44885W        W13290  23.007  28.514   0.508
44886W        W13291  21.337  17.109   4.630
44887W        W13292  35.930  14.696   1.429
44888W        W13293  22.539  27.465  13.901
44889W        W13294  18.675  25.749   0.065
44890W        W13295  24.568  36.574   3.989
44891W        W13296  23.664  15.708  14.346
44892W        W13297   2.045  29.997  13.397
44893W        W13298  13.350   5.836   4.698
44894W        W13299   3.007   4.735  12.368
44895W        W13300  34.998   2.576  10.656
44896W        W13301   4.324  34.057  11.433
44897W        W13302  14.709  35.556  11.973
44898W        W13303  23.242  19.731   0.918
44899W        W13304  36.065  16.771  11.237
44900W        W13305  12.790  43.812   0.213
44901W        W13306  26.798   5.874   4.221
44902W        W13307   9.214  35.903   0.474
44903W        W13308  13.740  33.014   3.229
44904W        W13309  30.829  22.607  13.921
44905W        W13310  38.741  42.051   4.043
44906W        W13311   5.703  41.686  12.483
44907W        W13312   7.355   2.979   0.250
44908W        W13313  35.326   6.914   2.257
44909W        W13314  39.306  25.194  11.731
44910W        W13315  42.801  24.282   5.026
44911W        W13316  30.050   4.322  12.540
44912W        W13317  28.431  17.290   2.365
44913W        W13318  39.322  31.583   4.109
44914W        W13319  29.409  16.707  12.560
44915W        W13320   9.838  31.957   0.900
44916W        W13321  35.199  41.748  13.852
44917W        W13322  20.065  16.211  10.418
44918W        W13323   6.330   2.971  12.014
44919W        W13324  15.345  16.991  13.849
44920W        W13325   0.239  43.327  12.622
44921W        W13326  34.442  31.123   1.603
44922W        W13327  26.226  40.790   4.193
44923W        W13328  12.020   0.909  11.103
44924W        W13329  34.642  21.331   2.259
44925W        W13330  24.032  18.291   0.310
44926W        W13331  18.624   7.037   3.435
44927W        W13332  12.454  21.670  10.505
44928W        W13333   2.784   6.134   1.239
44929W        W13334  15.898   3.372   2.315
44930W        W13335  28.437  12.108   2.700
44931W        W13336  28.116  44.381  11.316
44932W        W13337  31.603  23.490  12.221
44933W        W13338  27.475  11.682   1.204
44934W        W13339   1.152  30.044  13.516
44935W        W13340  19.068  21.201   1.741
44936W        W13341  36.136  39.668   3.214
44937W        W13342  14.210   5.345  10.572
44938W        W13343  19.265  17.014  13.575
44939W        W13344  26.067  33.926  12.142
44940W        W13345  12.260  37.361   2.187
44941W        W13346  26.882  36.080   1.725
44942W        W13347  26.955  29.717  11.287
44943W        W13348   3.552  41.369  13.856
44944W        W13349  35.876  19.740   3.149
44945W        W13350  12.223   9.084   1.371
44946W        W13351  42.567  10.781  10.703
44947W        W13352  30.346  40.080  11.205
44948W        W13353  39.461  11.252   1.859
44949W        W13354  32.769   3.122   4.951
44950W        W13355  28.184  29.967   3.156
44951W        W13356  12.620  43.617   5.264
44952W        W13357  29.397  16.219   4.172
44953W        W13358  39.170   8.487   1.318
44954W        W13359  28.067  39.360   5.237
44955W        W13360  13.578  36.573   2.776
44956W        W13361  43.845  30.169  14.470
44957W        W13362  42.139  11.861   4.171
44958W        W13363  15.838   0.769  14.111
44959W        W13364  32.948  20.010  12.917
44960W        W13365  35.012   2.477   1.258
44961W        W13366  31.600  12.161   1.868
44962W        W13367  29.949  16.848   4.025
44963W        W13368  22.211   5.792  12.641
44964W        W13369   2.245  21.237   0.926
44965W        W13370   4.865  24.557   4.615
44966W        W13371  30.900  41.360  11.117
44967W        W13372  38.092  31.020  12.948
44968W        W13373  12.467  10.872   1.993
44969W        W13374  36.561  22.791  10.350
44970W        W13375   7.521  37.898   2.243
44971W        W13376  25.609  32.201   3.933
44972W        W13377  36.136   9.877  12.508
44973W        W13378  13.743  26.069   4.578
44974W        W13379  30.176  37.307   1.331
44975W        W13380  22.451   3.499  12.423
44976W        W13381  34.117  14.390  12.064
44977W        W13382   1.868  29.977   2.107
44978W        W13383  33.030  17.819  14.267
44979W        W13384  23.136  20.238   2.476
44980W        W13385  34.956  37.053   1.472
44981W        W13386  13.716  22.922   2.239
44982W        W13387  20.083  25.455  10.542
44983W        W13388   3.616  18.054   4.057
44984W        W13389  17.837  44.482   3.196
44985W        W13390  26.852  29.603   3.688
44986W        W13391  11.323   0.028  10.660
44987W        W13392  43.616  43.494   1.796
44988W        W13393  38.105  34.010  11.746
44989W        W13394   3.838  29.223   2.906
44990W        W13395  35.898  30.464  10.903
44991W        W13396  41.399   8.307   2.226
44992W        W13397   3.422  14.172   2.788
44993W        W13398  36.338  28.416  12.935
44994W        W13399  33.001  33.207   0.401
44995W        W13400  25.144  35.602   1.821
44996W        W13401   9.122  27.419  11.162
44997W        W13402   0.218  11.610   0.500
44998W        W13403  15.841  43.452   2.359
44999W        W13404  11.148   6.926   3.699
45000W        W13405  31.841  26.015  11.054
45001W        W13406  17.371  31.172   0.297
45002W        W13407  11.632  33.065   2.679
45003W        W13408  44.447  10.140  14.654
45004W        W13409  42.311  12.208  11.975
45005W        W13410  23.618  22.176  11.116
45006W        W13411  42.932  14.052   1.708
45007W        W13412   4.173  16.550   1.656
45008W        W13413  27.057  35.701   3.170
45009W        W13414  41.477  43.857  14.608
45010W        W13415  25.796  21.907  12.060
45011W        W13416  44.914  17.797   1.500
45012W        W13417  43.978   6.287  14.249
45013W        W13418  39.034  25.633   3.733
45014W        W13419  31.171  21.628   4.289
45015W        W13420  38.296  22.340   0.412
45016W        W13421   6.701  35.373   0.761
45017W        W13422   0.036   7.475  14.293
45018W        W13423   2.879  18.555  14.354
45019W        W13424  40.693  21.779   4.083
45020W        W13425   3.388  36.305   3.271
45021W        W13426  28.559  44.278  14.746
45022W        W13427   6.196  34.654   2.884
45023W        W13428  37.578   6.160   4.130
45024W        W13429  18.100   9.603   1.903
45025W        W13430   2.845   4.335  10.186
45026W        W13431  17.547   2.330  13.448
45027W        W13432  26.020  18.207   0.953
45028W        W13433   6.149  12.246   0.951
45029W        W13434  35.943  35.837  12.518
45030W        W13435   4.038  37.522  14.369
45031W        W13436  20.149  11.773   2.293
45032W        W13437  39.049   5.276   1.745
45033W        W13438  20.504   9.913  12.798
45034W        W13439  27.490  14.487   2.147
45035W        W13440   3.933  15.416   1.001
45036W        W13441  42.313   0.503   2.719
45037W        W13442   2.270  43.727  14.247
45038W        W13443  17.256  36.899   2.803
45039W        W13444  21.711  23.236  13.822
45040W        W13445  44.845  35.596   0.231
45041W        W13446  27.496  29.649  14.001
45042W        W13447   0.263   6.734  10.288
45043W        W13448  29.370   0.360   3.881
45044W        W13449   2.221   8.846  14.990
45045W        W13450  24.195  25.502  14.328
45046W        W13451  44.200  14.036  12.030
45047W        W13452  26.551   1.022   0.447
45048W        W13453  21.202  10.117  14.367
45049W        W13454  34.713   1.333   0.858
45050W        W13455  35.339   9.907  10.713
45051W        W13456  30.242  43.876   1.700
45052W        W13457  21.693  29.431  13.703
45053W        W13458  16.882  21.651   4.395
45054W        W13459  25.792   2.427   1.254
45055W        W13460   7.865  36.982   0.296
45056W        W13461  13.072  17.342   3.578
45057W        W13462  43.300  35.875  12.968
45058W        W13463  28.484  15.796   1.426
45059W        W13464  24.058  11.799   0.983
45060W        W13465  11.271  10.233   1.330
45061W        W13466   9.559   0.810  14.356
45062W        W13467  13.177  25.257   4.251
45063W        W13468   1.672  15.111  11.856
45064W        W13469  12.421  10.596  10.635
45065W        W13470  22.348  24.087   0.920
45066W        W13471  43.361  36.841   0.764
45067W        W13472  23.150  33.376   3.593
45068W        W13473  40.983  34.073  14.724
45069W        W13474  40.288  25.996   2.566
45070W        W13475  30.989   6.902   0.412
45071W        W13476  15.057  17.383   0.277
45072W        W13477  17.187  28.031   2.754
45073W        W13478  29.942  21.152   3.798
45074W        W13479  21.207  10.307   1.152
45075W        W13480  18.519   6.791  11.506
45076W        W13481  10.172  42.577  10.346
45077W        W13482  41.474  21.583  14.314
45078W        W13483  36.386  37.162   2.284
45079W        W13484  28.776  39.394   9.814
45080W        W13485   8.110  18.742   4.503
45081W        W13486  34.065  37.341   4.557
45082W        W13487  24.725  26.672   2.452
45083W        W13488   3.743  23.785   3.675
45084W        W13489   3.907  21.711   3.322
45085W        W13490  36.907   0.413  12.006
45086W        W13491   0.836  43.080   4.775
45087W        W13492  10.154  43.379   0.384
45088W        W13493  33.135  31.632   1.638
45089W        W13494  19.175   1.294   5.002
45090W        W13495  25.543   4.693  10.216
45091W        W13496  43.103  28.441   2.687
45092W        W13497  43.511  24.668  11.452
45093W        W13498  34.644  10.784  11.094
45094W        W13499  26.469   9.230   1.920
45095W        W13500  28.680  33.334   2.372
45096W        W13501  44.282  19.988  12.930
45097W        W13502  15.373   9.484   0.304
45098W        W13503  23.255   6.352   0.309
45099W        W13504   6.927  12.519   0.751
45100W        W13505   4.980  28.674  11.408
45101W        W13506  42.755  29.233  12.909
45102W        W13507  34.341  20.446   3.211
45103W        W13508  33.243  14.103  14.883
45104W        W13509  16.205  37.135   2.356
45105W        W13510  21.639   1.970  14.863
45106W        W13511  36.808  18.711   4.689
45107W        W13512  23.521   4.248   2.439
45108W        W13513  43.314  21.127  14.853
45109W        W13514  10.424  28.157   1.243
45110W        W13515  35.371  22.866   2.204
45111W        W13516  33.985   2.708  12.404
45112W        W13517   5.770  10.422  12.957
45113W        W13518   2.335  20.837   2.368
45114W        W13519  42.306   0.300   1.841
45115W        W13520  14.656  25.524  14.745
45116W        W13521   7.275  23.121  10.776
45117W        W13522  21.268  16.647  14.508
45118W        W13523  19.253   0.698  13.132
45119W        W13524  11.329   9.498  13.904
45120W        W13525   9.249  29.203  10.754
45121W        W13526  36.684  44.320   2.890
45122W        W13527   9.349   7.726   3.330
45123W        W13528  10.666  10.143  13.782
45124W        W13529   0.541  28.516  12.824
45125W        W13530  32.057   8.892   5.235
45126W        W13531  21.112  17.056  10.689
45127W        W13532  26.117  31.344  11.059
45128W        W13533  34.579  36.198   2.313
45129W        W13534  40.982  21.165   1.464
45130W        W13535  25.172  43.675   4.109
45131W        W13536  28.510  37.103   3.286
45132W        W13537  19.753  18.798  10.716
45133W        W13538  33.045  27.793  13.796
45134W        W13539  31.378  23.569   0.627
45135W        W13540  21.577  21.795  13.930
45136W        W13541  20.415  23.994  10.889
45137W        W13542  33.966  15.840   2.100
45138W        W13543  11.556   4.335   4.758
45139W        W13544  13.139  24.349  12.776
45140W        W13545   3.186  20.808  11.418
45141W        W13546   0.756  26.259  13.406
45142W        W13547   3.465  23.269  11.535
45143W        W13548  33.906  20.032  11.695
45144W        W13549  40.879  17.784  11.542
45145W        W13550   4.451   5.412  13.936
45146W        W13551  13.366   7.888  14.451
45147W        W13552  10.059  33.618  13.850
45148W        W13553   8.913  29.173   1.755
45149W        W13554  38.012   6.379  12.403
45150W        W13555  15.766  27.190  14.848
45151W        W13556  30.597   6.783  13.883
45152W        W13557  44.742   2.309   0.880
45153W        W13558  44.069  32.354  13.363
45154W        W13559   1.060  27.613   0.255
45155W        W13560   4.746   9.688   0.760
45156W        W13561  43.017  36.505  14.395
45157W        W13562   2.123  41.494   0.768
45158W        W13563   4.632  42.781  12.125
45159W        W13564  10.951  30.548   4.849
45160W        W13565  33.561   7.717  14.331
45161W        W13566  18.842   3.710   3.416
45162W        W13567  37.607  25.249   9.903
45163W        W13568  30.796  37.773  12.039
45164W        W13569   2.158  41.926   0.458
45165W        W13570  32.988   8.103   1.323
45166W        W13571  11.991  15.111  12.942
45167W        W13572   0.144  18.675  13.336
45168W        W13573  26.130  12.069   1.371
45169W        W13574   8.920   5.765   0.406
45170W        W13575  39.118  34.485   3.020
45171W        W13576  42.907  34.534  11.737
45172W        W13577  27.859  18.372   4.789
45173W        W13578   5.921   5.314  12.606
45174W        W13579  23.062  15.098  11.502
45175W        W13580  20.710   1.382  14.866
45176W        W13581  26.425   0.067  11.304
45177W        W13582   3.029  12.657   4.028
45178W        W13583   9.361  12.799   2.660
45179W        W13584  16.161  15.099  14.172
45180W        W13585  15.262   0.298   4.645
45181W        W13586  15.742  13.872   0.820
45182W        W13587  28.516  20.560   2.333
45183W        W13588  10.389   3.406   0.415
45184W        W13589  29.642  14.748  14.944
45185W        W13590   3.614  13.445   1.460
45186W        W13591  20.963  13.159  14.767
45187W        W13592  42.606   9.288   0.853
45188W        W13593  10.943  16.426   1.390
45189W        W13594  30.572   0.500  14.511
45190W        W13595   2.172  35.029  11.940
45191W        W13596  18.716  21.790   3.978
45192W        W13597  30.430  43.893   3.518
45193W        W13598  43.448  35.660  11.880
45194W        W13599  19.809   7.332  10.176
45195W        W13600   9.656  36.123  12.571
45196W        W13601  10.901  38.920  11.215
45197W        W13602  23.327  42.314   1.492
45198W        W13603   7.992   1.405   1.739
45199W        W13604   3.998  42.475   0.376
45200W        W13605  42.579  11.590   4.241
45201W        W13606   2.924  10.812   1.608
45202W        W13607  12.667  40.789   0.923
45203W        W13608  11.677  19.142   4.335
45204W        W13609  36.792  15.301  11.149
45205W        W13610  16.142  19.598   3.269
45206W        W13611  20.588  25.142   1.467
45207W        W13612  14.544  42.401   4.187
45208W        W13613  36.423  42.339   2.646
45209W        W13614  44.247  38.016  10.702
45210W        W13615  32.537  37.047  12.057
45211W        W13616  39.543  22.481  14.285
45212W        W13617   7.658  11.568  11.972
45213W        W13618  35.762   1.412   4.479
45214W        W13619  14.773  21.667   1.712
45215W        W13620  37.538  10.369  14.729
45216W        W13621   2.071  27.524  13.385
45217W        W13622  28.022   0.077   4.775
45218W        W13623  40.586  16.431  13.964
45219W        W13624  13.233  28.325  13.695
45220W        W13625  36.836  43.212  11.116
45221W        W13626  11.794  20.107   1.223
45222W        W13627   2.265  42.856  14.235
45223W        W13628  39.780  42.470   2.273
45224W        W13629   3.179  34.209   1.178
45225W        W13630  28.704  18.229   0.494
45226W        W13631   3.029  29.040   1.809
45227W        W13632   6.354   6.249   1.408
45228W        W13633  10.358   6.781  12.085
45229W        W13634  16.118  25.139  10.306
45230W        W13635   0.367  35.584   2.881
45231W        W13636  39.982  23.762  13.584
45232W        W13637  10.273   8.215  10.690
45233W        W13638  23.058  20.580  12.306
45234W        W13639  11.732  27.140  13.975
45235W        W13640  38.900  26.995   3.863
45236W        W13641  14.906   5.123  12.460
45237W        W13642   3.463  34.390   3.324
45238W        W13643  26.517  14.092   4.259
45239W        W13644  13.700  14.470   4.994
45240W        W13645  42.992  44.494   0.099
45241W        W13646  42.043  24.408   2.260
45242W        W13647  26.429  41.727   2.518
45243W        W13648  11.752  42.247   4.031
45244W        W13649  31.534  34.015  11.872
45245W        W13650  18.380  16.265   4.224
45246W        W13651  12.290  43.843   1.473
45247W        W13652   4.312  34.324  13.819
45248W        W13653  15.587  41.839  12.480
45249W        W13654   5.825  13.086  12.787
45250W        W13655  26.784  15.204  12.079
45251W        W13656  36.911  21.549  12.583
45252W        W13657  28.926  21.221   3.040
45253W        W13658  27.672  27.087  14.155
45254W        W13659  37.987  33.414   2.211
45255W        W13660  27.358  31.028  14.394
45256W        W13661  39.189  12.720  14.188
45257W        W13662   7.063  37.135   1.163
45258W        W13663   2.136  43.458   1.309
45259W        W13664  26.695  15.806   1.379
45260W        W13665  30.919  42.399  11.121
45261W        W13666   4.649   2.821   1.448
45262W        W13667  28.481  33.184   4.776
45263W        W13668   4.284  20.552   1.702
45264W        W13669   0.624   8.780   4.444
45265W        W13670  15.739  36.485  12.291
45266W        W13671   8.510   0.567  10.532
45267W        W13672  14.859  42.068  11.607
45268W        W13673  17.413  33.766  11.072
45269W        W13674  40.985  36.997   2.815
45270W        W13675  40.975  39.443   4.589
45271W        W13676   8.747  19.869   1.683
45272W        W13677  35.030   3.470   0.084
45273W        W13678  24.128  12.175   0.503
45274W        W13679  13.516  31.228  14.403
45275W        W13680  44.347   1.860  12.583
45276W        W13681  26.611  30.095  11.116
45277W        W13682   8.656  36.442   2.178
45278W        W13683  28.239  30.601   5.197
45279W        W13684  42.056  35.347   0.788
45280W        W13685  22.701  43.931  13.943
45281W        W13686  25.907   9.934  11.384
45282W        W13687   0.879  21.103   1.268
45283W        W13688  38.096  20.704  14.565
45284W        W13689   2.822  12.608   3.317
45285W        W13690   8.291  39.314   0.700
45286W        W13691  29.168  30.553  12.824
45287W        W13692  29.361  24.486  11.586
45288W        W13693   2.442   5.793   1.755
45289W        W13694   4.011  12.269   3.108
45290W        W13695  22.644  10.259  12.605
45291W        W13696  34.910  12.088   2.709
45292W        W13697  38.256  44.212  13.535
45293W        W13698  44.231  37.744  11.895
45294W        W13699  21.088   5.248  14.750
45295W        W13700  36.380  35.695  14.991
45296W        W13701   2.050  43.134  11.105
45297W        W13702  21.805  18.829   2.800
45298W        W13703  37.623   3.529  12.480
45299W        W13704  37.944  34.299  12.597
45300W        W13705  40.321  35.938   4.620
45301W        W13706  39.928  28.509  11.482
45302W        W13707   6.622  40.666   2.393
45303W        W13708  28.101  36.285  14.344
45304W        W13709  19.100  19.073  11.357
45305W        W13710  39.108   4.646   0.536
45306W        W13711  20.287   0.730  11.933
45307W        W13712  16.776  43.672  13.467
45308W        W13713   0.907  30.897   0.971
45309W        W13714  28.417  42.030  13.975
45310W        W13715  20.688  13.760   4.190
45311W        W13716   4.333   0.249  12.136
45312W        W13717  33.065   3.451  11.418
45313W        W13718  36.207   2.923   0.850
45314W        W13719   4.756  12.270   4.132
45315W        W13720  23.943  38.952  10.862
45316W        W13721   3.927   3.663  12.824
45317W        W13722  44.064  36.033   0.396
45318W        W13723  43.411  23.535   3.559
45319W        W13724  17.212  23.946   3.684
45320W        W13725  28.981  42.972   9.937
45321W        W13726  39.814   3.909  13.422
45322W        W13727   3.672  29.704  14.379
45323W        W13728  21.969  34.592  12.076
45324W        W13729   3.723   3.591  13.915
45325W        W13730   9.642  16.799  13.370
45326W        W13731  25.297   2.254  10.572
45327W        W13732  41.465   3.474   4.958
45328W        W13733  44.450   3.870  11.389
45329W        W13734   3.368  20.294  12.332
45330W        W13735  23.607  32.665  12.396
45331W        W13736  44.282  27.035   2.486
45332W        W13737  44.200  21.374   2.708
45333W        W13738  30.958  12.237  13.323
45334W        W13739   3.980   1.771  13.768
45335W        W13740  23.300  13.205   1.308
45336W        W13741  38.879  20.577   0.267
45337W        W13742  29.168  36.125  13.898
45338W        W13743  21.843   2.823  11.342
45339W        W13744  24.400  36.814   1.755
45340W        W13745  38.523  16.251  11.321
45341W        W13746  40.558  40.805  14.085
45342W        W13747  18.997  31.062  11.294
45343W        W13748   1.788  13.259   0.419
45344W        W13749  29.938  28.192  11.531
45345W        W13750   1.564   4.800  13.616
45346W        W13751   0.423  23.024   1.706
45347W        W13752  15.188   5.546  13.739
45348W        W13753  20.628  42.994   0.618
45349W        W13754  12.340  13.756  14.972
45350W        W13755   2.910  30.994   1.688
45351W        W13756  13.625  27.883   2.114
45352W        W13757  38.826  18.726  10.034
45353W        W13758  32.497  19.336   4.157
45354W        W13759   2.786  15.330  11.196
45355W        W13760  33.517   5.420   3.308
45356W        W13761  32.056  34.886  11.547
45357W        W13762  31.892   6.032   4.918
45358W        W13763  24.357  11.697   5.072
45359W        W13764  28.505   1.393  10.573
45360W        W13765  19.378  34.574  13.771
45361W        W13766  44.693   7.212  13.032
45362W        W13767  44.729   7.846   5.050
45363W        W13768  12.803  13.190   3.403
45364W        W13769  11.262  38.061  10.792
45365W        W13770  25.966  32.025   4.822
45366W        W13771  24.887  16.587   1.762
45367W        W13772  40.535  28.069  14.013
45368W        W13773   6.945  25.709  13.135
45369W        W13774  19.586  25.193   3.572
45370W        W13775   4.673  22.484  10.236
45371W        W13776  13.205  17.477   2.345
45372W        W13777   4.862  11.414  13.399
45373W        W13778   0.375   5.077   4.143
45374W        W13779  35.092  21.723  14.730
45375W        W13780  17.334   7.354   5.159
45376W        W13781   2.374  20.496   3.898
45377W        W13782  35.391   5.220   1.160
45378W        W13783  29.144  44.401   0.342
45379W        W13784  10.757   4.229  10.694
45380W        W13785  27.534  17.417   2.874
45381W        W13786   2.131  24.813  12.582
45382W        W13787  25.171  36.724  12.665
45383W        W13788  11.633  29.330   2.222
45384W        W13789  21.495  23.822   0.962
45385W        W13790  39.356  16.854   4.642
45386W        W13791  17.392   9.731   3.155
45387W        W13792  28.964  26.985   2.675
45388W        W13793  32.731  34.557   4.440
45389W        W13794  26.544  28.938   3.892
45390W        W13795  28.118  21.025   3.638
45391W        W13796  32.527  28.565   1.576
45392W        W13797  27.873  36.095   3.628
45393W        W13798  22.846  34.060   1.886
45394W        W13799  36.167  39.587   0.434
45395W        W13800   6.836  11.113  13.539
45396W        W13801  19.236  31.128   0.748
45397W        W13802  36.090  36.226  14.364
45398W        W13803  15.064  35.326  10.814
45399W        W13804  11.197   6.699  13.139
45400W        W13805  37.531   5.288   5.132
45401W        W13806  35.640  41.182  10.502
45402W        W13807  12.608  39.876   4.699
45403W        W13808  15.156  24.011   3.672
45404W        W13809  27.490  24.533   1.592
45405W        W13810   0.295  30.535   1.557
45406W        W13811  14.738  10.110   0.353
45407W        W13812  19.308   9.689  14.064
45408W        W13813  12.619  19.574   4.472
45409W        W13814  11.385  30.954   1.192
45410W        W13815  17.328  39.934   4.057
45411W        W13816   7.912   9.366  13.891
45412W        W13817  15.037  11.333  12.486
45413W        W13818  13.768   6.819   0.506
45414W        W13819   9.681  19.108   0.919
45415W        W13820  33.026  32.142   0.285
45416W        W13821  10.679  23.709  11.723
45417W        W13822  15.139  34.356   4.700
45418W        W13823  32.865  13.527  14.290
45419W        W13824   2.620  30.195  11.737
45420W        W13825  19.880   8.262  10.387
45421W        W13826  43.438  25.489  11.994
45422W        W13827  35.432   0.514   4.116
45423W        W13828  41.256   8.417  13.385
45424W        W13829  19.488  29.704   2.937
45425W        W13830  16.814  18.252   3.654
45426W        W13831   1.277  11.597  14.307
45427W        W13832   0.564  14.772   0.734
45428W        W13833  44.806  36.927  11.162
45429W        W13834  31.053  15.347  13.633
45430W        W13835  28.612  33.197  10.937
45431W        W13836   3.952  16.896   3.726
45432W        W13837  12.653  25.163   2.379
45433W        W13838   0.935  20.196  12.610
45434W        W13839  41.399   1.929   1.392
45435W        W13840  21.703  41.049  11.129
45436W        W13841  31.982  41.025  12.889
45437W        W13842   8.902  13.995   2.184
45438W        W13843  20.080   6.825   3.491
45439W        W13844  30.114  37.736   3.816
45440W        W13845  17.293  29.481   1.759
45441W        W13846  14.537   7.412  14.802
45442W        W13847  19.070  10.160   0.847
45443W        W13848  24.596  42.227  11.624
45444W        W13849  44.895  33.584  11.049
45445W        W13850  35.053   8.858  14.794
45446W        W13851  17.430   6.371   9.896
45447W        W13852  41.591  34.452  11.118
45448W        W13853  28.197   4.901   2.263
45449W        W13854  40.879  41.333   4.579
45450W        W13855  20.609   4.195   2.719
45451W        W13856  15.788  40.082  14.470
45452W        W13857   3.988  22.765  13.834
45453W        W13858   7.656  11.603   1.934
45454W        W13859  39.797  13.738   3.818
45455W        W13860  15.836  13.313   0.286
45456W        W13861   0.386  42.313  11.844
45457W        W13862   0.812  27.172   0.410
45458W        W13863  15.255  23.487   1.023
45459W        W13864  21.705  16.835   0.384
45460W        W13865  18.234   5.225  13.385
45461W        W13866   5.274   5.839   3.153
45462W        W13867   9.127  20.014   3.774
45463W        W13868  24.791  20.960  13.367
45464W        W13869  19.877  21.863  11.455
45465W        W13870  22.737  36.862   4.255
45466W        W13871  18.506  35.452   4.114
45467W        W13872  19.455  20.492  12.865
45468W        W13873  35.857  38.620  12.024
45469W        W13874  11.556  43.307  13.402
45470W        W13875  38.942  36.359  11.196
45471W        W13876  13.391  39.611  13.545
45472W        W13877  18.010  43.454   0.949
45473W        W13878  29.963  32.112  13.496
45474W        W13879   4.632  26.131   4.746
45475W        W13880  14.567  40.145  10.743
45476W        W13881  23.248  39.054  14.862
45477W        W13882  23.543  28.456  11.135
45478W        W13883  11.840  41.936  12.438
45479W        W13884  27.719  17.613   3.748
45480W        W13885  31.838  20.753  12.586
45481W        W13886  22.261   5.837  13.690
45482W        W13887  21.237  42.594  14.015
45483W        W13888  32.632  23.324   1.876
45484W        W13889  40.578   8.593  10.578
45485W        W13890  38.566  41.712   3.685
45486W        W13891  16.552  18.599  10.628
45487W        W13892  43.019  30.532  12.615
45488W        W13893  18.153  11.047  14.261
45489W        W13894  23.487   1.974   2.828
45490W        W13895  14.669  39.517  13.997
45491W        W13896  10.086   6.687   4.100
45492W        W13897  17.338  17.355   3.773
45493W        W13898  16.040   0.876  13.637
45494W        W13899  19.246   4.024   3.378
45495W        W13900  23.770  10.138  10.505
45496W        W13901  34.256   5.227   4.423
45497W        W13902  35.642  16.037   1.780
45498W        W13903   0.538  15.230   4.525
45499W        W13904  37.404  35.934  12.036
45500W        W13905  21.978  21.315   1.729
45501W        W13906  44.468  14.749  10.975
45502W        W13907   0.755  16.641  14.600
45503W        W13908  32.578  44.288   3.610
45504W        W13909  24.040  42.698  10.439
45505W        W13910  18.231   5.908  13.746
45506W        W13911  29.441   0.356  14.474
45507W        W13912  13.379  10.367   0.910
45508W        W13913   3.320  10.590   0.292
45509W        W13914  44.055  29.198   3.149
45510W        W13915   1.721  11.826   4.520
45511W        W13916  38.403  11.523  14.264
45512W        W13917   2.288  28.855  13.982
45513W        W13918  14.366  14.157  10.739
45514W        W13919  44.089   7.734  12.577
45515W        W13920  22.095  19.140  11.957
45516W        W13921  10.828  29.994   3.628
45517W        W13922  23.387  38.352   2.477
45518W        W13923  44.763  23.429  10.721
45519W        W13924  16.835  22.785  13.377
45520W        W13925  34.836  31.199   3.664
45521W        W13926  34.444  38.808  11.921
45522W        W13927  20.521  19.790  12.519
45523W        W13928  36.104  17.034   4.836
45524W        W13929  18.350  28.118  13.804
45525W        W13930   6.398  39.663  12.188
45526W        W13931  22.120  38.548  12.500
45527W        W13932  12.911   2.364  12.124
45528W        W13933   5.413  29.041  10.621
45529W        W13934   3.290  28.169   3.084
45530W        W13935  41.017  11.975   2.391
45531W        W13936  21.677  12.642   1.500
45532W        W13937  21.082  14.527  12.092
45533W        W13938  19.519   5.063   1.243
45534W        W13939  33.659  34.512  14.526
45535W        W13940  14.690  12.739   2.722
45536W        W13941  36.975  26.522  14.761
45537W        W13942  12.860   4.267  13.535
45538W        W13943  18.314  29.567   1.978
45539W        W13944  30.227  30.918   0.411
45540W        W13945  42.408  42.259  11.096
45541W        W13946   1.377   0.415  14.839
45542W        W13947  40.899  17.699  14.308
45543W        W13948  25.650  19.710  10.653
45544W        W13949  42.761  32.088  13.782
45545W        W13950  24.663  24.246  14.063
45546W        W13951  21.056  29.921   4.684
45547W        W13952  39.029  42.349  10.706
45548W        W13953  26.447  41.859  10.747
45549W        W13954   2.805   8.375   1.793
45550W        W13955  29.138  35.853   2.393
45551W        W13956  43.047  23.122   1.883
45552W        W13957  30.239  33.120   2.927
45553W        W13958  17.944  21.995   1.692
45554W        W13959  43.434  37.364   1.694
45555W        W13960  15.293  12.204   1.671
45556W        W13961  11.413  14.871   4.615
45557W        W13962  32.994   8.610  12.317
45558W        W13963  33.169   2.797   2.903
45559W        W13964  31.594  28.222   1.365
45560W        W13965  23.482   4.941  12.027
45561W        W13966  42.956  17.536  13.575
45562W        W13967  28.422   4.868  14.316
45563W        W13968  18.725  36.759   4.881
45564W        W13969  41.812  26.114   3.105
45565W        W13970  32.179  25.245  11.802
45566W        W13971  17.217   1.020  11.727
45567W        W13972   9.345  33.193  12.057
45568W        W13973  43.223  14.158   0.905
45569W        W13974  29.435   3.913  13.082
45570W        W13975  21.554  23.616  12.176
45571W        W13976   3.976  19.978  14.044
45572W        W13977  29.429  24.032   4.189
45573W        W13978  27.843  19.123  10.752
45574W        W13979   1.822  17.092  10.538
45575W        W13980  20.023  38.466  14.860
45576W        W13981  33.629  33.368  12.177
45577W        W13982   4.820  14.894   1.633
45578W        W13983  37.358  25.511  13.598
45579W        W13984  43.894  20.229   5.029
45580W        W13985   5.206  25.589  11.728
45581W        W13986   8.169  22.704   3.273
45582W        W13987   7.869   3.483   0.972
45583W        W13988  40.341  31.393   0.862
45584W        W13989   5.148  18.779   4.606
45585W        W13990  38.938  10.910  12.877
45586W        W13991  34.929  44.338   1.367
45587W        W13992  42.918  36.114   3.568
45588W        W13993  44.885  10.540   3.127
45589W        W13994  32.531  22.199   3.804
45590W        W13995  10.033  37.790   1.348
45591W        W13996   0.453  24.574   1.000
45592W        W13997  22.733   8.683   0.517
45593W        W13998  43.977  12.541  11.189
45594W        W13999   3.355  35.527  14.351
45595W        W14000  43.010  27.614  13.028
45596W        W14001  25.722  33.865   2.881
45597W        W14002   8.577   4.737   1.957
45598W        W14003  30.569  18.618   4.200
45599W        W14004  14.205   1.198   1.174
45600W        W14005  24.502  14.187   4.570
45601W        W14006  14.770  16.580   2.931
45602W        W14007  25.688  19.162  14.947
45603W        W14008  37.536  21.741   4.088
45604W        W14009  33.767  38.031  14.489
45605W        W14010  21.607  38.985  13.377
45606W        W14011  17.904  16.817   2.145
45607W        W14012  37.089  28.468   4.147
45608W        W14013  30.222   4.989   1.790
45609W        W14014   1.796   4.356   3.288
45610W        W14015  40.995  23.257   4.088
45611W        W14016  12.527  14.118   1.309
45612W        W14017  21.613  28.021  12.816
45613W        W14018  25.854  28.482   2.408
45614W        W14019  22.749   4.992  13.523
45615W        W14020  34.703   1.752   0.046
45616W        W14021   3.147  15.649   2.942
45617W        W14022  13.132  13.376  11.423
45618W        W14023  15.214  29.976  13.342
45619W        W14024   1.385   8.741   1.011
45620W        W14025  36.542  27.048  12.623
45621W        W14026  18.163  30.313   1.378
45622W        W14027   8.214   4.870   2.367
45623W        W14028  32.137   2.989   4.070
45624W        W14029  32.446   1.007  13.371
45625W        W14030  36.835  12.781  10.449
45626W        W14031  22.650  41.356   0.249
45627W        W14032  15.023   7.396   2.378
45628W        W14033  34.220  26.220  14.182
45629W        W14034  25.734  23.799   4.113
45630W        W14035  33.428   6.692  13.792
45631W        W14036  32.856  21.782   2.329
45632W        W14037   2.259  10.573   4.295
45633W        W14038  31.833  17.024   2.694
45634W        W14039  44.961  29.978   3.415
45635W        W14040  43.007  34.767   3.279
45636W        W14041  23.784  17.104  10.540
45637W        W14042  18.614   1.025   9.956
45638W        W14043  18.168   9.188  12.291
45639W        W14044  39.447  16.164  10.923
45640W        W14045  30.576  16.709   0.966
45641W        W14046   9.735  44.807   1.702
45642W        W14047   6.449  17.367   0.843
45643W        W14048  28.188  27.951   4.963
45644W        W14049   3.892  19.731   4.998
45645W        W14050  38.306  31.562   2.861
45646W        W14051  36.789  23.858   1.785
45647W        W14052  37.358  32.099  11.291
45648W        W14053  34.535  20.699   2.819
45649W        W14054  31.135  35.476   1.635
45650W        W14055  23.463  44.298  11.157
45651W        W14056   0.312  17.311  13.974
45652W        W14057  38.478  15.144  12.375
45653W        W14058  17.226  40.591   0.391
45654W        W14059  38.908  24.230   4.048
45655W        W14060   4.375  21.783  14.336
45656W        W14061  26.954  42.252   0.387
45657W        W14062  12.229  29.876  13.397
45658W        W14063  43.230  11.640  11.974
45659W        W14064  28.584  35.585  13.715
45660W        W14065   3.222  22.454  11.183
45661W        W14066  36.856  42.297   3.801
45662W        W14067   5.734  12.264  12.311
45663W        W14068  39.474   6.687   1.141
45664W        W14069  21.168  40.562  14.045
45665W        W14070  22.168   0.925   3.707
45666W        W14071  18.477  24.609   3.245
45667W        W14072  16.349  17.227  10.649
45668W        W14073  16.159  15.108  11.623
45669W        W14074  23.566  29.454  13.299
45670W        W14075  44.035   2.802  10.705
45671W        W14076  19.036  14.129  12.868
45672W        W14077  40.962  36.123   1.535
45673W        W14078  35.817  16.690  10.795
45674W        W14079   1.193  31.318   0.247
45675W        W14080  44.272   2.022  14.282
45676W        W14081  35.680  21.124   4.501
45677W        W14082   1.054  19.652  12.462
45678W        W14083  11.580  16.319  10.134
45679W        W14084  26.373  17.818   2.543
45680W        W14085  41.944  27.011  12.562
45681W        W14086   2.366  41.073  13.015
45682W        W14087  19.913  20.001   3.203
45683W        W14088  16.252  15.434   9.883
45684W        W14089  20.016  18.646   1.281
45685W        W14090  26.631   3.349  12.980
45686W        W14091  32.685  38.242  11.357
45687W        W14092  27.819   9.147   0.762
45688W        W14093  29.675  27.494   4.875
45689W        W14094  35.460  11.540   2.268
45690W        W14095  18.642   9.332  13.478
45691W        W14096   1.688  34.381   0.823
45692W        W14097  22.005  42.010   0.362
45693W        W14098  14.277  17.722  10.888
45694W        W14099  28.702  30.973  10.535
45695W        W14100  10.062  30.506  11.599
45696W        W14101  22.193   1.301  10.382
45697W        W14102  21.719  40.077   2.174
45698W        W14103  12.221  13.701   1.282
45699W        W14104   7.041   7.478   1.383
45700W        W14105  19.305  31.732  14.369
45701W        W14106  21.994  41.550  13.725
45702W        W14107  35.590  16.765  13.537
45703W        W14108  14.211  17.190  14.891
45704W        W14109  30.867  21.705  12.752
45705W        W14110   9.331  36.033   3.213
45706W        W14111  30.852  43.400   2.581
45707W        W14112   9.749  31.907  14.393
45708W        W14113  33.280  42.492  11.232
45709W        W14114  13.569  22.668   1.807
45710W        W14115   3.983  21.570  12.760
45711W        W14116  11.941  15.284  11.030
45712W        W14117  16.940  18.008   5.190
45713W        W14118   9.726   9.029  12.958
45714W        W14119  42.237  35.623  12.045
45715W        W14120  19.682   7.304   3.277
45716W        W14121   1.175   6.062  12.893
45717W        W14122  12.826  10.267   2.388
45718W        W14123  32.943  44.353  11.096
45719W        W14124  40.622  36.312   4.809
45720W        W14125  18.622  14.374  11.147
45721W        W14126  14.148   6.561   3.623
45722W        W14127  40.403  29.033   4.045
45723W        W14128  15.919   5.690   4.595
45724W        W14129  39.159  11.607   0.034
45725W        W14130  10.819  23.745   2.175
45726W        W14131  38.494  42.419   3.762
45727W        W14132  41.841  26.797   0.953
45728W        W14133  11.820  30.346  13.836
45729W        W14134   2.843  20.864   4.108
45730W        W14135   0.022  12.621  12.885
45731W        W14136   5.390  17.466  10.837
45732W        W14137   4.230   7.211  14.393
45733W        W14138  28.622  12.192   2.191
45734W        W14139   1.844  43.647   4.119
45735W        W14140  26.197  36.790   2.132
45736W        W14141  21.531   0.021  11.980
45737W        W14142   1.215  42.904  11.196
45738W        W14143  40.296   9.791   1.282
45739W        W14144  25.574  23.044   2.249
45740W        W14145  40.363  28.712   0.259
45741W        W14146  10.455  16.532  12.585
45742W        W14147  11.524  23.038   2.208
45743W        W14148   2.543   7.850  10.697
45744W        W14149  18.226  12.876  13.208
45745W        W14150  22.240   7.275  12.051
45746W        W14151  30.949  43.489   1.970
45747W        W14152   2.621  36.960   2.264
45748W        W14153  32.504  18.850  14.256
45749W        W14154  26.987  44.308   1.736
45750W        W14155  12.732   7.892   0.505
45751W        W14156  15.807   3.222  12.943
45752W        W14157  23.974  19.652   3.692
45753W        W14158  40.452  13.425   2.934
45754W        W14159  22.514  37.963  11.085
45755W        W14160  44.390  31.500  11.837
45756W        W14161  11.085  20.840  13.902
45757W        W14162  10.410  14.318   3.400
45758W        W14163  19.303   5.161  14.551
45759W        W14164   4.315   2.836  14.561
45760W        W14165  13.645  37.618  11.196
45761W        W14166   2.252  24.601  12.085
45762W        W14167  31.917  16.636  10.085
45763W        W14168  40.025  26.403   5.295
45764W        W14169  37.138  20.048   2.926
45765W        W14170  25.165  18.002   1.490
45766W        W14171  17.069   3.406   3.878
45767W        W14172  43.132  26.481   4.315
45768W        W14173  39.481  36.951  11.538
45769W        W14174  35.133  27.818   4.299
45770W        W14175   2.606  15.911   4.135
45771W        W14176  33.931   8.917   4.111
45772W        W14177   7.278  41.335  10.688
45773W        W14178  20.051   3.377  13.144
45774W        W14179  23.630  23.561   1.016
45775W        W14180  38.477  35.616   3.708
45776W        W14181  28.278  11.327  11.975
45777W        W14182  11.746   0.378  14.521
45778W        W14183  30.385   7.305  13.054
45779W        W14184  24.535  12.533  10.300
45780W        W14185  41.501  20.631   3.682
45781W        W14186   5.909   9.835  12.079
45782W        W14187   7.315  38.061   4.623
45783W        W14188  38.915  31.577   0.258
45784W        W14189  34.506   9.826  11.362
45785W        W14190  25.868  14.539  12.553
45786W        W14191  42.904  42.750  14.424
45787W        W14192  19.589  26.702  11.517
45788W        W14193  11.925  39.002  10.840
45789W        W14194  27.120  10.785   4.286
45790W        W14195  20.065   3.673  10.564
45791W        W14196  25.910  14.781  13.454
45792W        W14197  10.295  23.084   1.183
45793W        W14198  32.256  40.057   3.370
45794W        W14199  39.624  15.620  14.429
45795W        W14200  15.699  25.642   1.814
45796W        W14201  10.763  18.024  13.915
45797W        W14202  34.128  16.226   1.812
45798W        W14203  29.605   4.730  13.479
45799W        W14204  18.118   8.768   0.054
45800W        W14205  30.320   7.541  14.978
45801W        W14206  19.518  29.379  11.193
45802W        W14207   5.251  22.145   2.198
45803W        W14208  42.542  36.801   1.743
45804W        W14209  24.802  32.757  14.860
45805W        W14210  24.118  22.840   4.983
45806W        W14211  23.608  35.800   2.737
45807W        W14212  31.253  34.335   3.264
45808W        W14213  36.064  13.890  11.178
45809W        W14214  30.201  29.540   4.665
45810W        W14215  21.483  10.813  12.010
45811W        W14216   0.412  14.230  10.740
45812W        W14217  38.557   1.951   0.289
45813W        W14218  38.390  25.775   2.035
45814W        W14219  28.075  36.120  10.788
45815W        W14220  36.928  25.864  10.714
45816W        W14221  26.457  21.113  12.704
45817W        W14222   8.282  43.752   4.613
45818W        W14223  24.209  10.395  11.732
45819W        W14224   6.856   9.345   0.589
45820W        W14225  40.861   3.679  11.990
45821W        W14226  42.904  21.639  11.955
45822W        W14227  25.541  36.106  10.226
45823W        W14228  43.564  37.252  10.719
45824W        W14229   5.325  29.047  14.880
45825W        W14230   1.419  13.724  10.887
45826W        W14231  16.053   5.607  12.211
45827W        W14232  15.725   1.350   2.191
45828W        W14233  33.050  24.186  11.157
45829W        W14234  23.694  43.630   3.851
45830W        W14235   2.885  39.557  12.029
45831W        W14236  11.429  18.375   0.438
45832W        W14237  37.983  33.939  10.761
45833W        W14238   0.690   8.935   2.260
45834W        W14239  44.379   3.403  13.108
45835W        W14240  11.679  22.314   4.933
45836W        W14241  39.528  17.191   1.755
45837W        W14242  15.284  25.660   2.268
45838W        W14243  37.719   0.386   4.578
45839W        W14244  27.138  27.694   3.674
45840W        W14245   5.720   4.531   1.745
45841W        W14246  23.983  13.026  13.845
45842W        W14247   5.254  24.461   1.883
45843W        W14248  22.687   8.302   4.200
45844W        W14249  21.056  36.486   0.463
45845W        W14250  41.721  39.506  10.509
45846W        W14251  33.720   1.641  11.462
45847W        W14252  28.138   5.664  14.266
45848W        W14253   8.470   3.272  13.735
45849W        W14254  43.331  15.970   2.408
45850W        W14255  19.181  13.160  13.031
45851W        W14256  36.365  22.036  12.840
45852W        W14257  27.193  11.226   3.630
45853W        W14258  12.812  38.537   2.761
45854W        W14259   3.471   2.052  11.521
45855W        W14260  35.406  24.423   2.607
45856W        W14261   0.841  43.923  12.700
45857W        W14262   4.253  34.904  10.327
45858W        W14263  13.144   1.870  11.560
45859W        W14264  25.844  24.556   1.908
45860W        W14265  25.657  24.206   2.897
45861W        W14266  25.690   5.376  11.835
45862W        W14267  24.057  43.872  10.918
45863W        W14268  29.087  20.166  13.491
45864W        W14269  25.873  17.962   9.867
45865W        W14270  35.409  12.664  11.018
45866W        W14271  32.156  37.209   1.777
45867W        W14272  20.538  23.326  13.507
45868W        W14273  35.901  38.011  10.715
45869W        W14274  32.571   0.750  10.119
45870W        W14275  35.081  30.007   0.436
45871W        W14276   8.754  31.540   3.861
45872W        W14277  36.008  22.038   2.773
45873W        W14278   0.561  21.191  11.239
45874W        W14279  16.155  40.791  11.289
45875W        W14280   8.180  10.697   2.711
45876W        W14281  40.677  12.741   4.540
45877W        W14282  10.924  24.576  12.505
45878W        W14283  23.352  37.483   5.484
45879W        W14284  20.680  21.505  14.367
45880W        W14285  27.579  44.574  11.992
45881W        W14286  21.715  40.889   4.295
45882W        W14287   1.380  36.382  14.266
45883W        W14288  32.511  30.841  13.319
45884W        W14289  29.734  37.889   1.893
45885W        W14290  21.488  16.600   4.151
45886W        W14291   3.209  34.334   4.316
45887W        W14292  37.008   7.154  12.458
45888W        W14293  24.678  17.885  14.369
45889W        W14294  41.054  15.118  11.163
45890W        W14295  13.179   3.162   2.783
45891W        W14296  18.825   0.168  14.867
45892W        W14297  34.134  20.250  12.092
45893W        W14298   3.226   8.774  14.514
45894W        W14299  23.871  26.151   4.598
45895W        W14300  26.180  27.480   0.242
45896W        W14301  17.796  13.780  14.076
45897W        W14302  27.701  37.413   0.831
45898W        W14303  21.251  11.501  10.237
45899W        W14304  18.693  21.667  11.185
45900W        W14305   8.010  12.222   3.194
45901W        W14306  26.800  34.449   2.386
45902W        W14307  16.803  38.701   2.405
45903W        W14308  38.550  20.082  11.136
45904W        W14309  15.276  18.303   0.387
45905W        W14310  13.932  18.822  14.954
45906W        W14311   5.288  44.010   4.202
45907W        W14312   3.345  25.210  11.519
45908W        W14313   2.045  36.803   3.329
45909W        W14314   1.755  17.557  13.907
45910W        W14315  36.117   7.201  12.895
45911W        W14316  25.553  27.811  14.383
45912W        W14317  38.808  26.041  11.539
45913W        W14318  28.767  25.992   3.478
45914W        W14319  10.556  20.717  10.767
45915W        W14320  21.307  40.651   1.866
45916W        W14321  12.906  31.939  12.875
45917W        W14322  41.893  44.353  13.600
45918W        W14323  26.789  30.608  14.892
45919W        W14324   4.655   2.881   0.922
45920W        W14325  24.819  23.007   2.216
45921W        W14326  32.932  36.652  14.285
45922W        W14327  33.922  13.158   0.488
45923W        W14328  27.017  17.063  14.248
45924W        W14329  20.235  23.805   2.159
45925W        W14330  23.699  36.826   0.371
45926W        W14331  13.330  28.422  12.397
45927W        W14332  16.008   4.239   4.195
45928W        W14333  23.934  22.026  12.522
45929W        W14334  10.167  41.861   4.722
45930W        W14335  37.542   8.340  14.946
45931W        W14336  21.452  20.608  14.397
45932W        W14337  36.336  44.251   3.274
45933W        W14338  40.401  20.032   4.789
45934W        W14339  29.587   7.353   2.775
45935W        W14340  38.440  39.533   0.249
45936W        W14341  14.253  21.702  14.895
45937W        W14342   7.312  22.280  10.823
45938W        W14343   8.545  13.053   4.573
45939W        W14344  16.209  29.083  14.754
45940W        W14345  42.916  14.998  14.535
45941W        W14346   2.356  18.583  11.615
45942W        W14347  14.194   8.250   0.829
45943W        W14348   2.762  23.914   2.181
45944W        W14349  23.923  27.650  13.013
45945W        W14350  31.903   0.525   4.227
45946W        W14351   8.404  41.520  12.175
45947W        W14352  10.761  40.032   3.167
45948W        W14353  43.840  25.810  12.513
45949W        W14354  40.129  29.179  13.514
45950W        W14355  20.071   2.747  11.555
45951W        W14356  34.582  36.600   3.240
45952W        W14357  14.577  14.246  14.869
45953W        W14358  29.475  12.893  10.258
45954W        W14359   3.684  25.693  11.950
45955W        W14360   1.030  28.544  12.986
45956W        W14361  39.571  33.529   0.253
45957W        W14362  19.322   8.810  11.963
45958W        W14363  22.715  28.424   2.270
45959W        W14364  37.040  42.005  11.837
45960W        W14365  42.591  29.558  12.439
45961W        W14366  40.894  36.800  12.561
45962W        W14367  12.209  38.577   4.609
45963W        W14368  12.313   3.751  13.954
45964W        W14369  30.594  34.761  13.335
45965W        W14370   5.907  21.621  13.357
45966W        W14371   7.798  28.150  13.831
45967W        W14372  41.622   0.456   4.263
45968W        W14373  30.565  34.048   3.108
45969W        W14374  36.190   6.377   0.330
45970W        W14375   2.276  42.471  13.408
45971W        W14376  24.150   2.303  14.462
45972W        W14377  35.411  24.041   2.989
45973W        W14378  12.050   9.687   3.331
45974W        W14379  13.044   4.125   4.115
45975W        W14380   7.900  14.621  10.278
45976W        W14381  27.537  26.045   4.721
45977W        W14382   2.931  40.471  12.045
45978W        W14383  20.553  20.272   2.784
45979W        W14384  34.456  19.162  13.977
45980W        W14385  37.044  31.539  13.498
45981W        W14386  30.059   5.687   1.289
45982W        W14387  13.629  32.890   0.089
45983W        W14388   4.787  27.529   1.744
45984W        W14389   2.010  18.824   2.277
45985W        W14390  21.196   3.428   9.837
45986W        W14391   0.979  20.589  13.351
45987W        W14392  29.775  37.744  13.392
45988W        W14393  35.813  32.030  13.397
45989W        W14394  29.930  19.323   5.049
45990W        W14395  39.941  34.230  13.298
45991W        W14396  28.149  14.335  13.501
45992W        W14397  24.127  44.123   2.708
45993W        W14398  24.488  27.912  10.673
45994W        W14399  10.890  22.099  13.433
45995W        W14400  26.282  13.701  11.268
45996W        W14401   2.508  38.859   0.091
45997W        W14402   1.784  31.944   2.299
45998W        W14403  12.414  21.190  11.267
45999W        W14404  41.237  20.508   0.965
46000W        W14405  36.758  25.506   0.827
46001W        W14406  25.012   9.721   3.731
46002W        W14407  35.068  18.516  13.841
46003W        W14408  37.840  16.331  11.954
46004W        W14409  14.184  30.488  14.687
46005W        W14410  11.508  28.472  11.169
46006W        W14411   5.403   8.821   2.227
46007W        W14412   9.344  28.619  14.246
46008W        W14413  41.460  23.044   0.097
46009W        W14414  25.158   9.863  11.984
46010W        W14415  37.362  24.648   3.820
46011W        W14416   8.032  27.652   1.343
46012W        W14417   9.713  44.101  14.308
46013W        W14418  28.686   9.053  13.318
46014W        W14419  18.768  32.233   4.150
46015W        W14420  22.298  26.624  10.552
46016W        W14421  10.697  38.865   2.482
46017W        W14422  12.483  36.353   0.359
46018W        W14423  24.973  23.654  12.444
46019W        W14424  37.349  34.004  13.869
46020W        W14425  35.341  25.403  14.458
46021W        W14426  29.966  15.568   0.223
46022W        W14427  26.898  26.104  12.813
46023W        W14428   3.251   5.656  12.056
46024W        W14429  38.843  40.782  14.444
46025W        W14430   0.436  12.629   0.574
46026W        W14431  33.025  15.578  11.527
46027W        W14432   4.118   5.883   4.349
46028W        W14433  13.063  20.835   0.733
46029W        W14434   3.913  40.378   1.856
46030W        W14435  30.410  22.967   0.992
46031W        W14436  25.950  34.529   1.260
46032W        W14437   4.988  20.047   4.635
46033W        W14438   4.395  21.732   2.651
46034W        W14439  40.507   7.684   1.288
46035W        W14440   8.226  14.672   0.306
46036W        W14441  42.841  30.495  11.293
46037W        W14442  23.677  15.023  12.676
46038W        W14443  43.252   6.423  11.135
46039W        W14444  37.220  37.012   0.675
46040W        W14445  32.648  16.636   0.924
46041W        W14446  26.205   4.890  11.985
46042W        W14447  30.875  23.505  10.265
46043W        W14448   6.324  26.067  13.618
46044W        W14449  32.578  42.801  13.993
46045W        W14450  35.372  35.998   4.640
46046W        W14451   8.636   2.352   3.707
46047W        W14452   3.398  44.821  11.961
46048W        W14453   0.654   1.794  13.839
46049W        W14454  21.774  17.623   0.812
46050W        W14455   8.936  10.434  12.061
46051W        W14456  38.320  23.512   1.585
46052W        W14457  44.398  14.252  14.165
46053W        W14458  31.491  40.380  12.552
46054W        W14459  14.329   2.246   2.822
46055W        W14460  17.521  19.795   1.745
46056W        W14461  42.897  41.285   2.247
46057W        W14462  43.882  29.525   1.778
46058W        W14463  17.513   8.767   1.286
46059W        W14464  12.873  26.053  12.056
46060W        W14465  35.679  20.797   3.744
46061W        W14466  16.594   5.167  11.854
46062W        W14467   2.942  21.232  11.269
46063W        W14468  22.458   9.182  14.127
46064W        W14469  33.586   8.481  11.238
46065W        W14470  27.740  40.883  14.682
46066W        W14471  26.605   8.142   2.195
46067W        W14472  35.294  32.632   3.126
46068W        W14473  30.046   1.141   4.899
46069W        W14474  17.434  22.565   0.162
46070W        W14475  12.946  22.127   1.270
46071W        W14476  32.656  38.104  11.911
46072W        W14477  33.913  25.922   3.406
46073W        W14478  17.296  13.845  13.994
46074W        W14479   1.477  10.238   2.315
46075W        W14480  33.584  37.484  12.013
46076W        W14481  26.154  13.562  11.759
46077W        W14482  40.787  16.296  10.742
46078W        W14483  38.814  31.668  12.034
46079W        W14484   0.430  11.340  10.653
46080W        W14485  36.584  23.080  13.897
46081W        W14486  14.281  26.005   3.709
46082W        W14487  14.607   9.991   1.814
46083W        W14488  38.838  25.613  11.044
46084W        W14489  22.288  18.062   3.015
46085W        W14490  18.802  39.770   3.148
46086W        W14491  15.622  43.608  10.906
46087W        W14492  17.384  33.907  11.561
46088W        W14493  22.352  44.527  14.655
46089W        W14494  17.119   7.988  14.551
46090W        W14495  21.666   3.330   4.503
46091W        W14496  17.318  24.768  11.162
46092W        W14497  44.447  11.907  11.828
46093W        W14498   0.953   8.329  14.476
46094W        W14499   2.586  39.289  14.806
46095W        W14500  25.429   5.114   1.387
46096W        W14501   4.621  16.648  11.172
46097W        W14502  31.130  15.522  10.699
46098W        W14503  31.144  24.877  13.441
46099W        W14504  17.814  12.906  14.366
46100W        W14505  33.810   8.619  14.953
46101W        W14506  41.732  28.354  12.909
46102W        W14507  43.728  16.007  10.034
46103W        W14508  23.734  26.055  12.392
46104W        W14509  29.052  23.614   1.695
46105W        W14510  15.275  10.329   1.200
46106W        W14511  42.093   3.345  14.810
46107W        W14512  26.967  35.876   4.337
46108W        W14513  42.877  30.031  13.348
46109W        W14514  29.036  41.514  14.758
46110W        W14515   1.997   6.403  12.046
46111W        W14516   4.930  12.119  14.748
46112W        W14517  33.041  31.072   0.213
46113W        W14518  22.946  21.235  10.076
46114W        W14519  21.990  37.297  11.112
46115W        W14520  14.490  13.136  12.525
46116W        W14521  16.253  13.811  12.376
46117W        W14522  26.663  33.556  13.499
46118W        W14523  28.933  32.659   1.854
46119W        W14524  40.825  39.906   2.425
46120W        W14525  19.589  38.666  11.033
46121W        W14526   4.267  33.672  14.368
46122W        W14527   7.631  10.393  10.564
46123W        W14528  26.557  12.897   3.146
46124W        W14529  29.556   8.137  11.975
46125W        W14530  11.723  40.411  11.894
46126W        W14531  37.883  38.005   2.745
46127W        W14532   5.853   0.562  11.679
46128W        W14533  31.688  16.090   2.177
46129W        W14534  29.970  25.760  12.898
46130W        W14535  36.111  22.099   1.439
46131W        W14536   0.969  30.382   0.936
46132W        W14537  10.166  17.608  13.405
46133W        W14538  31.637  20.549  14.015
46134W        W14539  13.322  19.005   4.966
46135W        W14540  26.939   0.757   2.759
46136W        W14541  10.970  21.247  12.373
46137W        W14542  30.894  14.097   2.746
46138W        W14543  39.284   4.300  10.200
46139W        W14544  22.994  22.797   1.328
46140W        W14545  19.159  40.960   3.804
46141W        W14546  23.122  25.530   3.074
46142W        W14547   0.198   2.779   4.447
46143W        W14548  41.360  20.657  13.824
46144W        W14549  28.272  26.702   3.677
46145W        W14550  43.916  22.615   2.434
46146W        W14551  20.201  40.334  13.501
46147W        W14552  38.727  24.109   0.799
46148W        W14553  32.914  30.146   3.418
46149W        W14554  40.238  16.681   2.225
46150W        W14555  19.038  32.499  13.957
46151W        W14556  33.434  43.457  13.878
46152W        W14557  39.125  43.038   3.256
46153W        W14558   4.190  15.467  11.548
46154W        W14559  39.121  10.621   3.646
46155W        W14560   2.173  38.075  10.872
46156W        W14561  14.601  27.604  14.029
46157W        W14562   7.745  41.012   1.041
46158W        W14563   8.114  25.097   2.455
46159W        W14564   9.576   1.890   1.361
46160W        W14565  33.342  38.852   4.244
46161W        W14566   4.330  36.626  11.211
46162W        W14567  15.589  35.994   0.947
46163W        W14568  12.208  20.905   1.275
46164W        W14569   2.524  31.616  12.884
46165W        W14570   3.037  18.215  14.972
46166W        W14571  19.314   4.041   4.611
46167W        W14572  27.151  36.006  13.713
46168W        W14573  17.120  40.448   2.130
46169W        W14574  35.351  27.179   1.027
46170W        W14575  31.125  16.735  10.160
46171W        W14576  14.725  36.586   3.520
46172W        W14577  29.517  18.401   1.534
46173W        W14578  24.173  17.585  13.873
46174W        W14579  23.994  12.228   0.012
46175W        W14580   0.259  16.088  11.587
46176W        W14581  15.629  37.155  13.575
46177W        W14582  15.540  31.698   0.315
46178W        W14583  27.512   9.927   1.758
46179W        W14584  16.460  26.600  13.141
46180W        W14585  12.042   9.272   2.833
46181W        W14586  13.839  16.876   3.596
46182W        W14587  40.560   6.230   3.170
46183W        W14588   1.167  42.858  11.698
46184W        W14589   2.194  37.010  11.523
46185W        W14590  18.798   7.435  11.677
46186W        W14591  14.671  18.687   2.717
46187W        W14592  41.300  20.744  14.752
46188W        W14593  40.813  42.713   1.234
46189W        W14594  38.077  32.487   2.684
46190W        W14595  35.397  16.107  14.507
46191W        W14596  26.578  36.101  12.090
46192W        W14597   7.330  20.106  14.438
46193W        W14598  37.757   6.149  12.017
46194W        W14599  14.629  29.681  13.523
46195W        W14600  16.701  16.790   1.431
46196W        W14601  29.233  37.174   2.631
46197W        W14602  44.881  38.978  14.285
46198W        W14603  37.370  15.400  12.110
46199W        W14604  42.551  13.066  13.504
46200W        W14605  38.700   3.955  11.712
46201W        W14606   4.124   9.827  13.897
46202W        W14607  14.446  24.979   3.687
46203W        W14608  21.977   2.303   1.835
46204W        W14609  42.303  17.089   3.204
46205W        W14610  14.431  18.093  10.546
46206W        W14611  32.619  10.465   4.125
46207W        W14612  13.707   7.342  10.503
46208W        W14613   6.934  30.135   3.570
46209W        W14614   7.046  17.520   4.382
46210W        W14615  40.522  32.961   0.049
46211W        W14616   8.191  29.659  14.718
46212W        W14617   1.561  29.112  12.466
46213W        W14618  43.777   1.303   0.731
46214W        W14619   6.936  21.171   0.726
46215W        W14620  15.251   0.305   4.126
46216W        W14621   6.554  42.062   3.239
46217W        W14622  26.992  42.170  11.514
46218W        W14623  23.628  17.609  14.545
46219W        W14624  32.379  27.943  14.050
46220W        W14625  10.831  41.684  13.046
46221W        W14626  15.613  20.189   1.705
46222W        W14627  29.610  19.712  11.601
46223W        W14628  25.393  18.805   3.727
46224W        W14629  12.170  39.929   4.405
46225W        W14630   6.495  10.349   3.609
46226W        W14631   6.090  37.011   1.364
46227W        W14632  16.191  37.195   4.117
46228W        W14633  20.211   8.769   0.660
46229W        W14634  21.316  15.600   4.177
46230W        W14635   3.386  38.494  13.081
46231W        W14636  23.120   7.441   2.324
46232W        W14637   1.463  35.214  14.831
46233W        W14638  40.292  36.844   0.188
46234W        W14639  32.970   1.579   0.773
46235W        W14640  38.623  32.324  12.146
46236W        W14641  37.205  18.387   2.264
46237W        W14642  40.824  34.010  11.242
46238W        W14643  19.752  39.940   4.400
46239W        W14644  18.599  25.468  10.614
46240W        W14645  19.228  23.973  12.870
46241W        W14646   4.207  11.284   4.445
46242W        W14647  34.329  18.258   2.475
46243W        W14648  40.992  33.035   0.288
46244W        W14649  12.652  34.436  12.067
46245W        W14650  26.112  32.161   1.334
46246W        W14651  11.551  36.048   5.189
46247W        W14652  37.696  42.263   4.567
46248W        W14653   8.912   5.052   4.973
46249W        W14654   7.878  33.529  14.107
46250W        W14655  39.836  44.598  11.087
46251W        W14656  42.082  24.023  10.808
46252W        W14657  22.262  38.982  13.458
46253W        W14658   4.742   4.339   4.602
46254W        W14659   2.694  28.717   3.610
46255W        W14660  19.270  24.222  13.853
46256W        W14661   5.516   4.229   0.762
46257W        W14662  26.397   1.609   2.848
46258W        W14663  14.067   8.163  11.101
46259W        W14664  35.678   4.238   1.311
46260W        W14665  34.997  12.834   0.262
46261W        W14666  38.318  28.080  11.435
46262W        W14667  43.437  40.821  11.971
46263W        W14668  23.059  39.439   4.774
46264W        W14669  30.065  26.656  12.408
46265W        W14670  11.067   6.771   0.898
46266W        W14671  40.266  20.927  14.803
46267W        W14672   9.100  37.542   1.868
46268W        W14673  15.852  35.552   1.245
46269W        W14674  24.616  19.660  14.828
46270W        W14675  23.599  40.989   1.782
46271W        W14676  40.796  33.521   3.315
46272W        W14677  20.061  32.147   3.657
46273W        W14678  38.527  36.642  11.111
46274W        W14679  17.759  31.945  10.976
46275W        W14680  28.626  22.726  12.389
46276W        W14681   4.464   9.274   0.884
46277W        W14682  42.354  37.063   4.625
46278W        W14683  27.534  25.221   2.171
46279W        W14684   4.980  28.126  10.623
46280W        W14685  33.389  26.455   3.246
46281W        W14686  32.590  10.602  13.292
46282W        W14687  25.439  44.769  14.793
46283W        W14688  11.692   3.169  11.346
46284W        W14689  14.938  44.453   0.003
46285W        W14690  16.046   6.437  12.236
46286W        W14691   2.661  37.392   0.237
46287W        W14692  26.170  20.635  14.409
46288W        W14693  37.220  15.238  13.495
46289W        W14694   1.434  37.107   1.802
46290W        W14695  17.314  23.266  13.411
46291W        W14696  39.456  28.695   2.021
46292W        W14697   5.294  14.173   1.624
46293W        W14698  10.361  38.253  13.271
46294W        W14699  16.336  34.022  14.774
46295W        W14700   1.197  14.053   4.404
46296W        W14701  11.102  33.923   2.841
46297W        W14702  11.768  27.082   0.918
46298W        W14703  26.512  13.575   0.720
46299W        W14704  42.125  26.068  13.047
46300W        W14705  39.158  39.104  14.921
46301W        W14706  25.135  30.884  12.100
46302W        W14707   2.916  23.039  14.120
46303W        W14708   9.675  34.455   4.819
46304W        W14709  13.615   2.604   5.112
46305W        W14710  12.183  39.625  11.491
46306W        W14711  15.578  19.520   4.018
46307W        W14712  17.324  37.613  14.009
46308W        W14713  10.272   4.934   5.015
46309W        W14714  10.169  34.360  10.958
46310W        W14715   2.018  16.740   2.769
46311W        W14716  15.490  17.181   1.763
46312W        W14717  28.766   5.252  14.267
46313W        W14718  32.162  33.690  11.202
46314W        W14719  31.198  43.948   1.873
46315W        W14720   9.220  23.770  12.530
46316W        W14721  33.236  30.970  11.135
46317W        W14722  21.103  21.660  12.625
46318W        W14723  44.439   8.736  14.819
46319W        W14724  27.674   3.189   1.730
46320W        W14725  27.918  13.590   4.329
46321W        W14726   2.821  34.865   4.859
46322W        W14727  19.975  42.034   1.689
46323W        W14728  36.971  36.793  12.597
46324W        W14729  26.468  28.253  11.962
46325W        W14730  16.098  29.653  13.897
46326W        W14731  29.938  23.676  13.877
46327W        W14732  42.101  31.884   4.264
46328W        W14733  41.270   9.588   4.638
46329W        W14734   2.793  21.489  12.907
46330W        W14735  39.467  36.367   2.443
46331W        W14736  29.855   1.023  11.167
46332W        W14737   5.860  40.265   3.742
46333W        W14738  20.264  18.650   1.746
46334W        W14739  21.994  44.585  13.696
46335W        W14740  37.244  15.576  11.628
46336W        W14741  25.037   4.737   4.575
46337W        W14742   8.827  44.987   4.821
46338W        W14743  20.575  21.743   3.815
46339W        W14744  40.182  11.792  12.464
46340W        W14745   9.549  13.287   1.738
46341W        W14746   5.117  16.724  12.006
46342W        W14747  35.017  35.435  13.807
46343W        W14748  35.811  10.706   0.756
46344W        W14749   4.803  34.272  13.600
46345W        W14750  42.552  18.726   4.538
46346W        W14751  26.941  16.444   9.959
46347W        W14752  20.272  10.155  11.911
46348W        W14753  30.073  12.569  14.064
46349W        W14754  42.038   9.892  12.055
46350W        W14755  43.809   2.546  13.819
46351W        W14756  34.594  17.269  11.958
46352W        W14757  31.722   7.666   0.913
46353W        W14758  41.218  44.457  10.845
46354W        W14759  11.594   3.939  13.882
46355W        W14760  31.838  27.640   0.258
46356W        W14761  13.187  31.613  10.418
46357W        W14762  19.244  34.669   0.182
46358W        W14763  12.303  16.567   2.483
46359W        W14764   8.416  18.284   4.835
46360W        W14765  40.673  29.636   2.958
46361W        W14766  44.809  10.286  10.675
46362W        W14767  33.330  36.949  12.964
46363W        W14768   6.233  22.711  12.073
46364W        W14769  43.257  39.891  10.514
46365W        W14770  38.400  21.846   0.533
46366W        W14771  19.060  36.114  10.853
46367W        W14772  42.288  36.667  10.983
46368W        W14773  18.615  16.363  11.606
46369W        W14774   2.836   5.546   2.365
46370W        W14775   8.229  15.124  10.699
46371W        W14776  17.279  17.264  13.538
46372W        W14777  26.617  44.960   2.093
46373W        W14778  41.408  20.976  12.549
46374W        W14779  12.349   4.897   1.879
46375W        W14780   6.584  21.286  14.742
46376W        W14781  26.128  12.531  13.925
46377W        W14782  27.698  14.576  14.046
46378W        W14783  34.260  24.190   2.097
46379W        W14784   1.289  42.385  13.430
46380W        W14785  37.726  28.572  11.791
46381W        W14786  19.675  25.464   0.344
46382W        W14787   0.819  20.761   2.727
46383W        W14788  27.538  20.469  12.047
46384W        W14789  26.440   0.568  11.177
46385W        W14790  24.035  26.195  10.897
46386W        W14791   0.962  32.461  13.302
46387W        W14792   7.747  14.697   0.022
46388W        W14793  32.614  26.634   2.288
46389W        W14794   3.925  41.676   0.131
46390W        W14795  25.712   6.343  13.274
46391W        W14796  33.671  29.675   3.808
46392W        W14797  38.410  14.380  11.179
46393W        W14798  30.039  13.835   2.581
46394W        W14799  42.260  22.035   1.831
46395W        W14800  28.534  11.729   0.110
46396W        W14801  11.367  44.276   4.101
46397W        W14802  33.462  30.702   3.629
46398W        W14803  42.892  25.681  10.702
46399W        W14804  22.939  42.058  12.887
46400W        W14805  19.694  20.508  14.350
46401W        W14806  26.786  44.374   2.756
46402W        W14807  29.571  28.996   3.763
46403W        W14808  24.454   9.230   0.282
46404W        W14809  42.333  12.067  13.353
46405W        W14810  34.857  24.297  14.379
46406W        W14811  10.879  37.858   3.881
46407W        W14812  17.531  37.555   1.435
46408W        W14813  40.017  44.456   4.488
46409W        W14814  16.561  40.885   3.764
46410W        W14815  23.123  44.857   1.397
46411W        W14816  30.483   5.666   3.935
46412W        W14817   4.694  43.614  12.695
46413W        W14818  14.448   0.923  14.179
46414W        W14819  11.357  19.520  12.475
46415W        W14820   0.035  18.634  10.520
46416W        W14821   8.246  39.273   0.150
46417W        W14822  25.083  27.646  13.376
46418W        W14823  44.794  44.964   1.905
46419W        W14824   6.873  11.391  14.998
46420W        W14825  36.598  36.064   2.326
46421W        W14826  17.360   1.302   3.278
46422W        W14827  20.628   4.988   2.319
46423W        W14828   9.122   1.226  10.692
46424W        W14829   5.262   6.117   0.594
46425W        W14830   9.253  18.339   0.399
46426W        W14831  20.791  19.478  12.071
46427W        W14832   7.224  31.839  12.022
46428W        W14833  11.991  19.462  14.015
46429W        W14834  27.484  14.102   4.976
46430W        W14835  33.466  41.427  12.975
46431W        W14836  38.836  23.507   0.953
46432W        W14837  38.848   0.411  13.483
46433W        W14838  24.726  10.292   3.446
46434W        W14839   4.993  22.207   1.753
46435W        W14840  25.849  11.653   4.628
46436W        W14841   2.565  19.232  13.275
46437W        W14842  19.752  20.157   1.388
46438W        W14843  32.242  18.932   2.766
46439W        W14844  37.977  33.128   4.448
46440W        W14845  43.182  22.121   0.696
46441W        W14846   4.231  10.642  11.376
46442W        W14847   0.867  39.928   3.535
46443W        W14848  36.440  44.445  11.891
46444W        W14849  42.553  12.911   4.084
46445W        W14850  40.560   7.162  11.594
46446W        W14851  16.793  10.829  14.848
46447W        W14852   9.905   4.434  12.395
46448W        W14853  41.325   6.875  14.309
46449W        W14854   8.112  43.760  13.837
46450W        W14855  24.911  20.600   0.516
46451W        W14856   7.899   5.924  11.640
46452W        W14857  32.342   8.436   3.310
46453W        W14858  35.415  30.555   4.013
46454W        W14859  44.890  28.484   3.745
46455W        W14860  27.070  17.085  11.840
46456W        W14861   4.679   3.938  10.565
46457W        W14862   3.686  23.923   4.749
46458W        W14863  15.763  21.544   1.481
46459W        W14864  18.059   1.791  10.501
46460W        W14865  39.762  40.113  13.894
46461W        W14866  23.564  11.566   0.899
46462W        W14867  38.442  15.272  12.885
46463W        W14868  32.293  16.246  11.169
46464W        W14869  36.360  25.244  10.230
46465W        W14870  40.072   5.335  12.510
46466W        W14871   1.843  22.204   0.742
46467W        W14872   1.731   9.292  11.164
46468W        W14873  30.034  19.630   3.661
46469W        W14874  11.467   3.447  14.807
46470W        W14875  21.688  42.539  12.982
46471W        W14876   2.623  10.595   3.042
46472W        W14877  23.069  29.460   0.456
46473W        W14878  25.783   2.383   3.602
46474W        W14879  19.091  40.544  12.943
46475W        W14880  41.544  13.187  11.738
46476W        W14881  18.619  36.914  13.565
46477W        W14882  14.594  28.961   2.003
46478W        W14883  13.107  20.055  14.421
46479W        W14884   4.956  10.588   2.762
46480W        W14885  31.599  18.472   2.432
46481W        W14886   3.719   3.828   2.444
46482W        W14887  29.429   8.929   2.716
46483W        W14888  39.869  31.120   0.487
46484W        W14889  42.060  24.287   4.209
46485W        W14890   5.448  38.371  13.411
46486W        W14891  34.894  37.909  11.717
46487W        W14892  18.369  39.798  13.665
46488W        W14893  28.530  14.762   4.652
46489W        W14894  10.679  10.198   2.424
46490W        W14895  12.439  30.917   1.444
46491W        W14896  44.941  34.531  10.897
46492W        W14897  43.351  18.613   2.750
46493W        W14898  13.890  17.299  11.931
46494W        W14899  17.109   5.365  14.789
46495W        W14900  15.175   7.910   4.051
46496W        W14901  18.794  43.565   0.377
46497W        W14902  10.962  36.000   4.103
46498W        W14903   0.040  27.512  12.197
46499W        W14904   8.661  35.009   1.848
46500W        W14905  43.754  24.582  14.956
46501W        W14906   4.451  25.061   0.419
46502W        W14907  41.311  15.300   2.912
46503W        W14908   4.130   4.211  10.046
46504W        W14909   9.584  19.100   1.437
46505W        W14910  43.931  41.610  12.996
46506W        W14911  33.197   8.492  13.480
46507W        W14912  15.496  12.927   1.056
46508W        W14913  25.158  40.339   3.607
46509W        W14914  21.209  23.694   0.132
46510W        W14915  15.042   0.885   0.868
46511W        W14916  44.304   0.303   0.784
46512W        W14917  38.701  38.284   3.233
46513W        W14918  19.627  39.766   2.597
46514W        W14919  12.110   9.269   0.863
46515W        W14920  42.688  27.665   2.214
46516W        W14921  24.679  19.653  13.025
46517W        W14922   0.611  41.003   4.799
46518W        W14923  29.744  11.288   3.883
46519W        W14924  23.457  41.637   2.151
46520W        W14925  16.640  32.351   3.781
46521W        W14926  23.178  30.099  13.814
46522W        W14927  16.087  22.775   1.369
46523W        W14928  22.337  42.396   0.167
46524W        W14929   3.928  21.135   4.776
46525W        W14930  12.577  43.757   4.764
46526W        W14931  41.509  43.931  12.561
46527W        W14932  25.819  16.179  11.992
46528W        W14933  12.959   5.151  14.356
46529W        W14934  38.861   1.457   2.307
46530W        W14935  42.125  14.244   4.596
46531W        W14936  29.617  17.910  13.888
46532W        W14937  44.784   0.560   1.759
46533W        W14938  30.948   3.308  11.489
46534W        W14939   3.504  31.484   2.195
46535W        W14940   2.780   2.877  12.493
46536W        W14941  19.868  42.194   0.061
46537W        W14942   4.879  43.140  14.740
46538W        W14943   9.617  44.071  11.433
46539W        W14944  40.702   3.669  14.719
46540W        W14945  34.095  21.037  11.507
46541W        W14946  18.155   8.359   3.186
46542W        W14947  31.837  39.968   4.326
46543W        W14948  35.416  41.033   3.084
46544W        W14949  11.030  14.389   2.766
46545W        W14950  34.045  11.903  13.917
46546W        W14951  25.167  33.536   0.202
46547W        W14952  33.648  19.709  13.587
46548W        W14953   5.656   5.079   1.745
46549W        W14954  41.479  21.089   4.567
46550W        W14955  18.596  24.017   1.941
46551W        W14956  33.661  13.737  13.923
46552W        W14957  27.184  42.782   4.135
46553W        W14958  21.789   5.146  12.437
46554W        W14959  16.236   5.339   3.798
46555W        W14960  26.472   7.659  14.906
46556W        W14961  22.679  14.368   3.148
46557W        W14962  21.094  41.300   4.598
46558W        W14963  14.336  13.775  14.912
46559W        W14964  22.799  41.041  14.872
46560W        W14965  33.438  29.129  14.824
46561W        W14966   9.857  42.382  10.722
46562W        W14967  36.371  37.511  12.145
46563W        W14968   9.542   3.842   0.322
46564W        W14969   9.927   5.339   2.485
46565W        W14970  24.599  44.270   0.270
46566W        W14971  40.772  33.064   4.056
46567W        W14972  10.192  26.840   1.223
46568W        W14973  18.315  28.570   2.290
46569W        W14974   1.982   0.840  11.228
46570W        W14975  32.240  17.489   1.241
46571W        W14976  30.671  37.783   0.278
46572W        W14977  42.334  44.803  11.892
46573W        W14978  33.974  21.261  13.386
46574W        W14979  20.088  24.838  13.933
46575W        W14980  44.371  19.026   4.553
46576W        W14981  32.306  24.829  14.132
46577W        W14982  44.416   5.912   3.341
46578W        W14983   3.451  22.314  14.605
46579W        W14984  36.557  24.673   4.163
46580W        W14985   0.270  15.450   4.122
46581W        W14986  39.937   8.590  11.602
46582W        W14987  13.832  37.522  10.717
46583W        W14988  27.623  24.677  11.048
46584W        W14989  34.948  13.367   2.087
46585W        W14990  32.829  39.375   3.547
46586W        W14991  13.264  39.503   4.646
46587W        W14992   2.340  31.642  14.161
46588W        W14993  26.429  28.960  11.406
46589W        W14994  21.248  13.182  11.986
46590W        W14995  12.911  15.635  13.011
46591W        W14996  26.795  25.153  14.472
46592W        W14997  39.779  23.671  14.933
46593W        W14998  37.887  29.575  14.377
46594W        W14999   4.313  28.951   4.188
46595W        W15000   5.265  10.816  12.146
46596W        W15001  42.376   7.750   3.675
46597W        W15002  44.427  30.906  13.529
46598W        W15003  28.650  30.609  12.898
46599W        W15004  32.126  13.714  10.800
46600W        W15005  12.402  13.070  14.295
46601W        W15006  27.475  40.514   0.368
46602W        W15007  16.873   7.088  13.586
46603W        W15008   8.319  14.449  12.002
46604W        W15009  28.538  15.691   0.915
46605W        W15010   1.280  18.376  13.897
46606W        W15011  32.913   7.812   2.362
46607W        W15012  38.486  37.612  11.439
46608W        W15013  20.575   4.047  13.569
46609W        W15014  14.336   7.684   1.857
46610W        W15015   5.175   6.769   1.203
46611W        W15016  21.040  15.347   4.583
46612W        W15017   3.740  38.070   3.720
46613W        W15018   5.945   9.217   0.536
46614W        W15019   8.917   7.248   4.401
46615W        W15020  22.230   9.370   0.164
46616W        W15021  25.964  42.008  14.008
46617W        W15022  22.682   2.791   2.148
46618W        W15023   6.212  41.382  13.724
46619W        W15024  42.820  10.822  13.489
46620W        W15025  12.202  33.442  11.550
46621W        W15026  30.637  22.525   0.718
46622W        W15027  41.241  18.680  13.838
46623W        W15028  42.837  15.815  12.028
46624W        W15029   6.116  17.866   4.189
46625W        W15030  42.875   2.293  13.063
46626W        W15031  33.443   7.871   1.994
46627W        W15032   4.022  27.051  12.517
46628W        W15033   4.281   7.203  12.386
46629W        W15034  13.341  41.596   1.749
46630W        W15035  28.732  39.090   4.106
46631W        W15036  14.498  43.523   4.121
46632W        W15037  24.118  41.666  11.094
46633W        W15038  19.805  32.519  14.493
46634W        W15039  41.460  36.003   1.705
46635W        W15040  23.002  36.888   3.142
46636W        W15041   4.821   9.507  10.861
46637W        W15042   3.171  35.503   2.744
46638W        W15043  22.044  11.185  13.235
46639W        W15044  20.853  43.985  11.256
46640W        W15045  43.861  33.054   2.619
46641W        W15046  27.525   1.835   3.704
46642W        W15047  38.603   7.242   1.892
46643W        W15048  43.410  23.492  10.672
46644W        W15049   4.816   4.856   4.689
46645W        W15050  25.067  14.375   3.876
46646W        W15051  31.499   8.841  12.425
46647W        W15052  13.451  28.127   1.661
46648W        W15053   6.833  33.553   2.308
46649W        W15054   4.972  17.110  12.314
46650W        W15055  25.721  15.245   2.959
46651W        W15056  17.525  25.650  12.410
46652W        W15057  37.076  26.244  10.335
46653W        W15058  42.978  23.735  10.409
46654W        W15059  17.535  17.974  13.567
46655W        W15060  21.094  35.301   4.578
46656W        W15061  44.021  21.010  12.467
46657W        W15062  35.518  43.007   3.657
46658W        W15063  35.024  21.636   2.069
46659W        W15064  31.559   7.342  13.289
46660W        W15065  34.666   7.916  12.092
46661W        W15066  27.018  24.100   2.628
46662W        W15067   8.633  26.997   3.267
46663W        W15068   5.475  27.964   0.374
46664W        W15069   4.865  39.802  13.034
46665W        W15070  26.124   9.891  12.174
46666W        W15071  30.825  27.429   0.383
46667W        W15072  40.203  18.453   1.276
46668W        W15073  21.943  16.252   2.444
46669W        W15074  39.636   4.618   0.365
46670W        W15075  40.859   5.444   3.311
46671W        W15076   7.937   8.428  13.839
46672W        W15077  30.469  16.671   1.857
46673W        W15078  37.655   7.244  14.570
46674W        W15079  32.405  32.568   1.856
46675W        W15080   9.829  24.194   3.097
46676W        W15081  30.409  15.294  14.990
46677W        W15082  28.959  30.576  13.301
46678W        W15083  25.545   5.315   3.761
46679W        W15084   6.892  28.002   0.237
46680W        W15085  30.091  28.878  10.537
46681W        W15086   6.894  43.216  14.925
46682W        W15087  39.447  33.069  13.536
46683W        W15088  27.392   6.799  10.747
46684W        W15089  24.648   7.179  14.506
46685W        W15090  20.190   8.861  10.949
46686W        W15091  22.683  14.542   1.404
46687W        W15092  29.925  29.036  14.909
46688W        W15093  40.034  16.840   4.270
46689W        W15094   1.936  10.200   1.819
46690W        W15095  43.456   3.148  12.664
46691W        W15096  23.359  25.945  11.522
46692W        W15097   3.378  35.800   2.165
46693W        W15098   0.811   0.971  11.898
46694W        W15099   7.275  13.548  13.834
46695W        W15100  25.829   4.882  10.674
46696W        W15101  13.659  18.651   4.739
46697W        W15102  24.521  32.575   0.977
46698W        W15103  29.441   3.485   2.296
46699W        W15104  37.646   1.482  12.007
46700W        W15105  30.931  12.542  12.455
46701W        W15106  27.211  11.741   1.941
46702W        W15107  42.665   3.969  13.489
46703W        W15108   3.293  13.832   1.349
46704W        W15109  34.843  26.256   1.692
46705W        W15110  26.894  12.309   2.672
46706W        W15111  29.476  36.318   2.519
46707W        W15112  20.184  31.801   4.111
46708W        W15113  26.186   0.854  13.032
46709W        W15114  30.879   5.217  11.161
46710W        W15115  42.325  35.732  14.531
46711W        W15116  32.594   5.945  12.464
46712W        W15117   1.840   8.692  12.609
46713W        W15118  22.453  28.053   3.601
46714W        W15119  41.053  11.196   1.390
46715W        W15120  14.218  27.923   0.291
46716W        W15121  34.742  25.091   2.299
46717W        W15122  16.614  44.021  11.589
46718W        W15123   7.709  24.226   4.975
46719W        W15124  44.714  31.940   3.145
46720W        W15125  18.236   7.094   0.579
46721W        W15126  42.771  16.170  11.518
46722W        W15127   0.007  37.595   1.801
46723W        W15128  37.504  29.400  12.790
46724W        W15129  20.978  40.810   3.235
46725W        W15130  44.523   4.208  14.450
46726W        W15131  15.723  33.644  13.110
46727W        W15132  37.346  38.275   3.381
46728W        W15133  20.621  39.874  10.545
46729W        W15134  27.041  21.071  11.871
46730W        W15135  33.973  10.085   3.189
46731W        W15136   2.957  42.159   4.968
46732W        W15137   4.397   5.177  14.902
46733W        W15138  20.111  34.454  14.242
46734W        W15139  17.538  26.605  11.263
46735W        W15140  15.150  16.864   2.684
46736W        W15141  24.972  42.255  14.319
46737W        W15142  41.232  22.619  14.870
46738W        W15143   6.976  35.350   0.299
46739W        W15144   9.947  16.304   2.706
46740W        W15145  30.624  14.464   4.194
46741W        W15146  24.308  33.073  12.328
46742W        W15147  43.110   3.000  14.420
46743W        W15148  11.696  29.739   2.724
46744W        W15149   5.715   0.828  14.807
46745W        W15150   7.727  36.501   0.469
46746W        W15151   3.291   0.585   2.339
46747W        W15152  11.651  27.967  12.293
46748W        W15153   0.887   8.269  12.603
46749W        W15154  35.367  43.771   3.240
46750W        W15155   0.845  23.814   2.472
46751W        W15156  28.877  44.326   3.108
46752W        W15157  40.082  41.581   3.796
46753W        W15158  27.895  21.510  11.474
46754W        W15159  20.064  33.446  12.187
46755W        W15160   9.974   0.855  12.610
46756W        W15161   4.815   3.329  12.412
46757W        W15162  18.062  24.693   1.415
46758W        W15163   9.035  13.195   0.215
46759W        W15164   1.213  16.569   1.414
46760W        W15165  12.582  38.723   0.190
46761W        W15166  18.077   5.955   3.556
46762W        W15167  36.321  10.783  12.621
46763W        W15168  16.798  22.643  13.871
46764W        W15169  42.871  34.856   1.484
46765W        W15170  15.135   2.840   2.331
46766W        W15171   5.749  32.429  11.134
46767W        W15172  29.403  20.752  14.511
46768W        W15173  42.949   7.906   3.041
46769W        W15174  36.119  15.462   4.938
46770W        W15175   4.400  41.763  11.053
46771W        W15176  38.943  42.783   4.554
46772W        W15177   6.768  23.256   1.298
46773W        W15178  31.048  38.580  13.478
46774W        W15179  22.483  37.558   2.538
46775W        W15180  31.616  41.456   4.647
46776W        W15181   5.164  23.092   2.728
46777W        W15182   9.733   3.517   0.986
46778W        W15183  37.842  22.057   0.450
46779W        W15184   8.196  30.901  14.563
46780W        W15185   1.890   1.446   1.257
46781W        W15186  35.425  17.326  11.424
46782W        W15187  44.501   1.518   4.511
46783W        W15188  13.269  30.479  14.339
46784W        W15189  15.810  35.671   4.634
46785W        W15190  16.115  10.157   2.802
46786W        W15191  18.363   6.962   1.314
46787W        W15192  30.425   5.456   4.763
46788W        W15193  12.412  43.321  11.197
46789W        W15194  11.212  22.506  12.439
46790W        W15195  40.286   4.519   3.634
46791W        W15196   1.280   9.711  12.034
46792W        W15197  39.038  33.137   2.261
46793W        W15198   3.942  33.656   4.391
46794W        W15199  27.929  15.543  12.553
46795W        W15200  37.453  21.057   1.997
46796W        W15201   7.858  10.375   2.190
46797W        W15202  35.566  16.003  10.403
46798W        W15203   1.907  37.547   0.982
46799W        W15204  22.689   8.425  14.741
46800W        W15205  15.534  16.253   3.333
46801W        W15206   3.795  17.061  13.075
46802W        W15207  31.580  17.125  13.566
46803W        W15208  31.041  37.475  10.619
46804W        W15209  20.235   4.678  12.225
46805W        W15210  11.598  31.098   4.856
46806W        W15211   7.853  42.175   3.880
46807W        W15212  35.033  36.299  12.467
46808W        W15213  28.223  21.666   1.454
46809W        W15214  44.628  24.669  13.165
46810W        W15215  22.999  21.835  13.938
46811W        W15216  30.610  13.045  13.348
46812W        W15217  23.584  12.273   4.984
46813W        W15218  18.644  15.290  12.453
46814W        W15219   4.792  40.873   4.584
46815W        W15220   6.640  21.567   4.152
46816W        W15221  44.013  38.903   2.378
46817W        W15222  28.315  32.908   2.695
46818W        W15223  15.370  37.493   0.369
46819W        W15224  27.836  34.136   0.003
46820W        W15225   1.562  21.580   2.902
46821W        W15226  29.449   6.668   0.778
46822W        W15227  13.549  23.174   2.662
46823W        W15228  42.298  30.001   1.020
46824W        W15229  42.248   0.463   3.620
46825W        W15230  29.417  42.880  12.945
46826W        W15231  11.815  20.461  13.025
46827W        W15232   2.230  24.890   3.229
46828W        W15233  34.046  18.477  13.929
46829W        W15234   5.877  20.963  10.731
46830W        W15235  20.247   2.961   4.831
46831W        W15236  30.991   9.340  13.162
46832W        W15237  20.628  35.050   1.287
46833W        W15238  24.333  24.742   3.752
46834W        W15239  43.778  20.180  13.026
46835W        W15240   4.015  41.373   4.189
46836W        W15241  42.075  23.387  14.374
46837W        W15242  15.810   8.200   1.805
46838W        W15243  33.786  39.554  14.911
46839W        W15244   5.769  37.564   2.671
46840W        W15245  31.884  32.062  14.445
46841W        W15246  37.601  12.851   0.831
46842W        W15247   5.256  23.478   4.937
46843W        W15248   7.737  37.862  14.661
46844W        W15249  39.596  37.752  14.972
46845W        W15250  13.630  21.059  10.696
46846W        W15251  27.124  14.358  13.299
46847W        W15252  18.625  40.972   0.131
46848W        W15253  16.692  14.520  12.002
46849W        W15254  18.780  27.953  12.889
46850W        W15255   7.905  13.041  12.881
46851W        W15256   4.741  39.084   1.859
46852W        W15257  28.433  19.571   3.271
46853W        W15258  17.118  33.495  14.775
46854W        W15259  25.153  40.615   0.310
46855W        W15260  41.388   9.218  12.952
46856W        W15261  10.124  38.298  11.866
46857W        W15262  22.776   5.229  13.065
46858W        W15263  20.448  30.908  12.394
46859W        W15264  22.037  41.246  11.517
46860W        W15265   2.630  24.351  14.436
46861W        W15266  39.382  33.243  10.569
46862W        W15267  20.688  18.289   2.899
46863W        W15268  42.281  12.999   3.605
46864W        W15269   7.355  20.539  13.458
46865W        W15270   9.159  21.514  12.106
46866W        W15271  31.971  35.647   3.232
46867W        W15272  10.304  16.827  14.738
46868W        W15273  16.095  43.016  12.318
46869W        W15274  11.239  11.874  14.535
46870W        W15275  15.008  38.550  13.988
46871W        W15276  36.628   7.960   4.502
46872W        W15277   0.714  38.829   4.307
46873W        W15278  21.819  17.591  10.350
46874W        W15279  22.597   1.851   3.843
46875W        W15280   1.846   1.913   3.441
46876W        W15281  18.881  24.587  12.066
46877W        W15282   0.849  24.124  11.016
46878W        W15283   6.671  34.027   0.220
46879W        W15284   6.276  27.776   3.225
46880W        W15285  23.503  41.877   4.792
46881W        W15286  26.037   2.447   4.426
46882W        W15287  37.394  44.713  12.535
46883W        W15288  21.126   0.328  14.339
46884W        W15289   4.007  25.333  12.131
46885W        W15290  16.722   2.772   1.933
46886W        W15291  22.979  23.530  13.713
46887W        W15292  41.853  44.817  13.306
46888W        W15293   7.157  43.799   4.063
46889W        W15294   8.214  39.016  10.723
46890W        W15295  20.072  42.454   3.271
46891W        W15296  26.891  39.540  12.279
46892W        W15297  21.535  31.050  13.951
46893W        W15298  12.220  18.954   0.416
46894W        W15299  14.595  41.971   1.769
46895W        W15300  25.281   9.249   4.884
46896W        W15301   8.786  15.018   4.571
46897W        W15302  17.167  37.929   1.307
46898W        W15303   0.912  38.402   0.023
46899W        W15304   6.111  36.915  14.345
46900W        W15305  18.501  15.623   1.448
46901W        W15306  40.237  21.454  11.017
46902W        W15307   6.882   0.521   3.693
46903W        W15308  39.404  43.908   3.047
46904W        W15309  40.039  44.545   3.874
46905W        W15310  22.634   5.809  12.352
46906W        W15311  22.436  40.921  10.721
46907W        W15312  13.286   7.638  11.673
46908W        W15313  37.311  30.375   2.398
46909W        W15314  19.114  13.239  14.378
46910W        W15315  42.441  14.806  14.559
46911W        W15316  14.702  39.836  11.132
46912W        W15317   6.498  36.499   3.332
46913W        W15318  36.492  22.205   4.624
46914W        W15319  32.144  21.117   0.259
46915W        W15320  18.664  13.222  11.927
46916W        W15321   1.143  18.657  13.488
46917W        W15322  18.766  37.065   1.851
46918W        W15323  25.257   1.331  10.480
46919W        W15324  29.665   4.873   3.267
46920W        W15325  34.836  16.810   3.021
46921W        W15326  19.104  29.637   0.855
46922W        W15327   2.413  27.699   2.147
46923W        W15328   2.371  18.553   1.663
46924W        W15329   5.490  24.558  14.891
46925W        W15330  15.275  27.810   1.893
46926W        W15331  27.055  43.508  13.078
46927W        W15332  11.973  40.277   0.741
46928W        W15333  19.208   5.899  12.881
46929W        W15334  17.246  39.532  12.836
46930W        W15335   6.930  14.219  14.892
46931W        W15336  20.990   0.907   1.047
46932W        W15337  20.496  12.069   2.742
46933W        W15338  35.608  28.514   2.288
46934W        W15339  43.995  12.839  12.592
46935W        W15340  38.099  36.517  13.308
46936W        W15341  27.121  10.530  11.112
46937W        W15342  10.866  15.839   5.141
46938W        W15343  15.609  25.635  10.750
46939W        W15344  34.865  15.914   0.168
46940W        W15345  17.140  34.769   3.803
46941W        W15346  27.122   4.926  10.864
46942W        W15347  35.011  42.760  10.645
46943W        W15348   8.477  36.530  12.104
46944W        W15349  40.063   8.623   4.681
46945W        W15350  42.392  41.029  14.081
46946W        W15351  27.024  35.574   3.669
46947W        W15352  17.159  33.923  12.853
46948W        W15353  15.213  32.387   1.325
46949W        W15354  22.492  22.022  13.413
46950W        W15355  25.613  27.691   2.002
46951W        W15356  38.284  32.056  14.950
46952W        W15357  41.301  19.549  12.329
46953W        W15358  12.730  30.336  11.402
46954W        W15359  32.177   4.561   1.610
46955W        W15360  24.092  19.840  13.566
46956W        W15361   4.814  29.563   4.798
46957W        W15362   7.219  19.257  12.984
46958W        W15363   0.359   8.355  12.768
46959W        W15364   2.405  14.166  11.532
46960W        W15365  41.744  39.604   0.413
46961W        W15366  16.261  32.716   1.807
46962W        W15367  13.272   3.698   3.779
46963W        W15368  39.928   1.145  11.932
46964W        W15369  18.819  10.716   0.450
46965W        W15370   1.647  35.920  14.307
46966W        W15371  34.045  13.102  11.511
46967W        W15372  39.531  16.387   3.284
46968W        W15373  25.483  25.795   3.684
46969W        W15374  42.010  20.670   2.168
46970W        W15375  19.743  17.217   0.098
46971W        W15376   4.897  21.414   3.190
46972W        W15377  42.867  39.766   0.943
46973W        W15378  18.814  37.007  12.038
46974W        W15379  32.608  26.363  13.375
46975W        W15380  23.107  28.731  11.131
46976W        W15381  43.917  35.422  10.989
46977W        W15382   1.020   7.560   1.381
46978W        W15383  20.221  38.943  14.733
46979W        W15384   1.014  14.651   0.538
46980W        W15385  15.124  34.433  13.578
46981W        W15386  10.789  16.160   4.389
46982W        W15387  27.571  29.158   3.246
46983W        W15388  10.199   8.729  10.775
46984W        W15389   9.201  21.586  13.541
46985W        W15390   1.838  41.738   2.603
46986W        W15391   0.577  15.016   1.206
46987W        W15392  33.747  43.587   2.953
46988W        W15393  34.718   5.350   2.673
46989W        W15394  36.951  11.707  13.656
46990W        W15395   1.895  40.838  13.028
46991W        W15396  36.697  21.389   4.172
46992W        W15397  32.544  24.899  12.870
46993W        W15398  14.347  35.059   4.765
46994W        W15399  35.968  32.111  12.913
46995W        W15400  36.421  41.882  13.084
46996W        W15401   1.371   0.226  12.089
46997W        W15402   7.806   1.855  10.427
46998W        W15403  26.527   4.307  12.588
46999W        W15404  22.712  33.844   4.691
47000W        W15405  35.358  14.049  12.453
47001W        W15406  10.612  29.547   3.822
47002W        W15407  32.942   6.351   0.062
47003W        W15408  39.890  40.245   4.192
47004W        W15409  13.273  22.635   4.831
47005W        W15410  18.313   5.871  11.940
47006W        W15411  24.708  35.836   1.924
47007W        W15412  21.598  17.341   9.822
47008W        W15413   4.344  13.766   1.336
47009W        W15414   4.422  35.501  13.069
47010W        W15415  17.727   7.814   0.258
47011W        W15416  18.518  19.191   1.534
47012W        W15417  11.318  26.715  14.399
47013W        W15418   1.423  30.276   0.350
47014W        W15419  10.413  30.532   5.025
47015W        W15420  15.417  28.764   2.822
47016W        W15421   2.052  41.100   0.418
47017W        W15422  15.027  14.656  13.446
47018W        W15423  23.500  40.778   2.248
47019W        W15424  23.735  41.834  13.244
47020W        W15425  30.887  32.019  12.646
47021W        W15426  30.077  37.962  12.649
47022W        W15427  26.440  36.010   4.180
47023W        W15428   4.298  34.945   2.236
47024W        W15429   3.816  40.378  11.942
47025W        W15430  20.667  16.600  13.558
47026W        W15431  15.780  42.517  14.423
47027W        W15432  12.597   5.848  11.133
47028W        W15433  42.256  30.202   3.542
47029W        W15434  29.055   0.244   3.467
47030W        W15435  34.539   0.935  14.528
47031W        W15436  10.865  35.016  14.573
47032W        W15437  43.503   2.416   0.373
47033W        W15438  44.736   5.443   0.783
47034W        W15439  41.308  43.982  11.018
47035W        W15440  30.186  15.594  13.895
47036W        W15441   2.346  24.591  13.980
47037W        W15442  19.260  20.669  13.555
47038W        W15443  43.239  43.100   1.009
47039W        W15444  39.097  16.771   0.879
47040W        W15445  35.947  40.025  14.848
47041W        W15446  31.552  14.854  14.368
47042W        W15447  25.210  40.446  12.611
47043W        W15448  32.986  32.346   0.798
47044W        W15449  25.038  35.005  14.998
47045W        W15450  13.175  42.077  10.879
47046W        W15451  38.510  38.669  11.879
47047W        W15452   2.656  31.989  13.566
47048W        W15453  23.995   6.155  12.551
47049W        W15454   6.815  41.029   0.907
47050W        W15455  29.497  24.163   0.217
47051W        W15456  43.708  44.690  14.588
47052W        W15457  31.620   3.820   1.158
47053W        W15458  43.280  33.956  12.139
47054W        W15459  33.541  34.320  11.118
47055W        W15460  36.547  34.467  12.484
47056W        W15461  10.883  22.685  14.912
47057W        W15462  11.287  23.117  10.665
47058W        W15463   9.208   0.030   3.303
47059W        W15464  19.153   8.376  14.022
47060W        W15465   1.232  17.773   0.164
47061W        W15466   0.582  37.010  12.308
47062W        W15467   9.474  25.720  11.543
47063W        W15468  16.544  22.951  12.038
47064W        W15469  33.959  26.972  14.476
47065W        W15470  15.136  23.529   4.571
47066W        W15471   8.283   5.785   2.177
47067W        W15472  25.669  29.822  12.991
47068W        W15473  35.827  39.823   1.179
47069W        W15474  22.452   8.945  10.581
47070W        W15475  32.608  29.103  13.383
47071W        W15476  33.539  27.499  13.857
47072W        W15477  20.761  41.021   3.781
47073W        W15478  26.465  32.828  10.880
47074W        W15479  31.815  20.618  13.503
47075W        W15480  11.522  33.492  13.771
47076W        W15481  37.308  22.603   5.037
47077W        W15482  10.023  22.585  10.455
47078W        W15483  15.837  23.071  10.727
47079W        W15484  23.070  16.627   1.585
47080W        W15485  22.548  10.658   4.913
47081W        W15486  34.851  38.237   3.656
47082W        W15487  11.848  23.918   0.186
47083W        W15488  22.439  30.860  11.982
47084W        W15489  31.841  23.510   2.131
47085W        W15490  27.185  38.913   2.241
47086W        W15491  24.228  19.550   3.247
47087W        W15492   2.785  35.142   1.374
47088W        W15493  30.889  40.777   3.537
47089W        W15494  10.803  11.144   4.004
47090W        W15495  15.667  10.865   3.176
47091W        W15496  44.295   5.439  13.370
47092W        W15497  13.693   0.830  13.266
47093W        W15498  10.605  43.870   2.549
47094W        W15499  25.906  44.084   2.787
47095W        W15500  24.120  20.549  10.581
47096W        W15501  32.530  28.848   0.228
47097W        W15502  19.717  34.252  13.517
47098W        W15503  12.309  21.150  14.466
47099W        W15504   8.898   1.368   1.932
47100W        W15505  19.260   3.415   4.517
47101W        W15506  40.322  32.697  11.845
47102W        W15507  35.569  35.527   4.561
47103W        W15508  22.171  22.683   1.915
47104W        W15509  43.376  36.120  13.454
47105W        W15510   7.127  29.817   4.748
47106W        W15511   6.783  36.093  12.119
47107W        W15512   7.647  11.207   4.541
47108W        W15513   9.928  37.534   3.160
47109W        W15514  24.876  41.785  11.698
47110W        W15515  41.398  30.226  13.001
47111W        W15516  23.834  31.108  12.243
47112W        W15517  32.489  13.671  14.736
47113W        W15518  22.264  24.302   4.888
47114W        W15519  32.699  10.671   0.928
47115W        W15520  43.390   3.396   0.344
47116W        W15521   8.718  35.375  10.799
47117W        W15522   3.480  11.876  12.432
47118W        W15523  23.721  12.769  10.755
47119W        W15524  32.411  15.981   3.753
47120W        W15525  32.826  39.475   4.055
47121W        W15526  31.415  26.530  14.027
47122W        W15527  13.154  27.612   4.343
47123W        W15528  31.121  21.750  11.937
47124W        W15529  41.547  32.980  12.462
47125W        W15530   9.208  36.566  13.912
47126W        W15531  43.013  33.723   2.296
47127W        W15532  23.171   9.358   2.680
47128W        W15533  25.604  23.940   3.344
47129W        W15534  14.116   1.516  12.353
47130W        W15535   6.621  14.606   4.836
47131W        W15536  44.932  44.451  11.484
47132W        W15537   3.722  30.557  13.093
47133W        W15538  37.389  18.170   2.706
47134W        W15539  28.567  32.167  13.875
47135W        W15540   5.619   5.084  11.323
47136W        W15541  32.038   8.223  14.890
47137W        W15542  14.808  17.411  14.824
47138W        W15543  17.715  14.153   3.558
47139W        W15544   8.371  12.132   1.163
47140W        W15545  36.082  23.577  12.950
47141W        W15546  27.147  26.535   1.769
47142W        W15547  37.029  24.565  13.952
47143W        W15548  38.485   8.174  13.963
47144W        W15549  32.916  26.118  14.586
47145W        W15550  21.983  21.539  14.321
47146W        W15551   1.470  25.889  10.606
47147W        W15552   8.073  39.039  13.842
47148W        W15553  30.114  37.084   2.535
47149W        W15554  12.732  39.451  13.356
47150W        W15555  42.467  25.251   0.273
47151W        W15556  20.636  35.421  11.689
47152W        W15557  16.398  30.583   3.807
47153W        W15558  19.645  21.226   2.403
47154W        W15559  16.775   3.967  12.401
47155W        W15560  12.717  44.398  14.455
47156W        W15561  35.057   7.366   1.983
47157W        W15562  28.702  34.589   2.130
47158W        W15563  22.903   9.839  10.506
47159W        W15564  30.433   4.142   4.116
47160W        W15565  34.495  26.175   0.257
47161W        W15566  32.604  23.851  14.427
47162W        W15567  21.049  43.567  11.991
47163W        W15568   0.655  35.978  14.260
47164W        W15569  13.045  34.039  10.232
47165W        W15570  10.126   8.789  12.035
47166W        W15571  36.244  37.428  10.757
47167W        W15572  29.579  38.008  11.123
47168W        W15573  33.902  31.369   2.815
47169W        W15574  24.210   2.814   4.192
47170W        W15575  22.263  44.859   1.455
47171W        W15576  12.339  14.239   4.426
47172W        W15577  22.839  39.714   3.736
47173W        W15578   8.070  39.568  13.808
47174W        W15579   7.650  26.054   4.283
47175W        W15580  10.624   7.647   0.791
47176W        W15581  15.995  29.602  13.126
47177W        W15582  23.725   6.306   1.290
47178W        W15583  18.256  35.355  14.931
47179W        W15584  39.905  11.377   2.099
47180W        W15585  37.015  34.338   4.273
47181W        W15586   8.109  40.876  10.421
47182W        W15587  15.825  31.160   4.204
47183W        W15588  26.249  27.118   3.664
47184W        W15589  10.276   3.204   4.922
47185W        W15590  11.116  30.655   1.513
47186W        W15591  24.381   9.244   2.755
47187W        W15592   0.040  22.219   2.175
47188W        W15593   7.817  35.917  13.801
47189W        W15594  16.336  24.153  13.899
47190W        W15595   5.352  11.148   4.258
47191W        W15596  39.235  33.917   0.342
47192W        W15597  26.041  37.912   3.188
47193W        W15598   5.345  42.801   4.225
47194W        W15599  40.491  31.165   4.569
47195W        W15600  31.901  23.767  11.470
47196W        W15601  40.752  17.546   1.959
47197W        W15602  19.542  28.781  11.563
47198W        W15603  28.186  27.899  12.154
47199W        W15604  37.666  20.432   4.924
47200W        W15605   0.876  23.475  12.521
47201W        W15606  44.095  25.547   0.922
47202W        W15607  26.108  35.358  12.998
47203W        W15608   3.513  28.442   2.403
47204W        W15609  44.241   4.893  11.052
47205W        W15610  42.507  43.499   0.960
47206W        W15611   8.430  35.974  11.627
47207W        W15612  36.810  35.600  10.805
47208W        W15613  38.833  24.384   1.230
47209W        W15614  36.339   9.747   4.342
47210W        W15615  35.421   8.917   0.725
47211W        W15616  12.139  41.794   2.702
47212W        W15617  36.112  18.753  14.766
47213W        W15618  26.658  39.632   0.865
47214W        W15619  39.856  13.151  12.972
47215W        W15620  16.170  18.563   4.159
47216W        W15621   4.683  34.980   3.817
47217W        W15622  12.086  11.648   2.666
47218W        W15623  13.191  36.083   4.927
47219W        W15624  25.868  20.250   4.014
47220W        W15625  17.813   3.271  10.582
47221W        W15626   8.696   8.311  14.568
47222W        W15627  14.310   9.904   2.834
47223W        W15628  29.899  26.592   0.791
47224W        W15629  27.439  32.999  13.607
47225W        W15630  21.980   6.333   4.208
47226W        W15631  16.515  20.678   1.976
47227W        W15632  33.867  30.550  12.921
47228W        W15633   5.709   1.482   2.325
47229W        W15634   5.909  12.734   4.353
47230W        W15635  18.110  35.514  11.155
47231W        W15636  33.385   8.779  13.983
47232W        W15637   1.039  27.400   1.919
47233W        W15638  39.794  42.345   3.178
47234W        W15639  42.790  14.166   2.228
47235W        W15640  21.714   4.297   0.002
47236W        W15641  42.256  21.225  14.041
47237W        W15642  22.202   7.825   0.345
47238W        W15643  17.691  42.477  13.496
47239W        W15644   6.734  12.917   1.455
47240W        W15645  14.277  34.079  14.021
47241W        W15646  28.611  23.736   1.956
47242W        W15647  35.590   3.786  13.248
47243W        W15648  41.447  26.580   0.674
47244W        W15649  27.530   8.706   0.735
47245W        W15650  30.153  10.591   1.357
47246W        W15651  13.744  22.039  14.915
47247W        W15652   5.268  28.750   3.999
47248W        W15653  17.261  34.211   4.918
47249W        W15654  22.693   3.965   4.681
47250W        W15655  25.044  28.878   2.802
47251W        W15656  42.899  41.537  12.012
47252W        W15657   9.344  15.408   0.051
47253W        W15658  22.499   2.399   1.863
47254W        W15659  12.766  11.199   2.255
47255W        W15660   0.304   9.820  11.828
47256W        W15661  19.199  35.363  10.595
47257W        W15662  32.302  13.713  12.542
47258W        W15663  32.484  33.934   1.823
47259W        W15664   3.735   4.289  12.063
47260W        W15665  20.673   0.493  11.679
47261W        W15666  11.626  35.874  11.859
47262W        W15667   1.101  12.606  10.134
47263W        W15668  30.466  17.315  12.975
47264W        W15669  36.564  14.559  14.100
47265W        W15670  23.276  34.714  13.210
47266W        W15671  38.380  17.645  11.518
47267W        W15672  34.397  44.699   3.643
47268W        W15673  17.612  10.726  12.678
47269W        W15674  17.157  24.915   2.059
47270W        W15675   6.026  26.490   0.966
47271W        W15676  30.795  14.947   4.110
47272W        W15677  32.367   2.475   4.379
47273W        W15678   2.619  24.162  13.860
47274W        W15679  37.853  44.857   3.992
47275W        W15680  13.758   4.717   4.819
47276W        W15681  23.749  40.865  14.482
47277W        W15682  13.823  32.822   0.571
47278W        W15683  29.250  11.801   1.977
47279W        W15684   2.758   3.757  12.053
47280W        W15685   5.357  37.026  14.754
47281W        W15686   4.996   1.698  10.899
47282W        W15687  37.301   1.593   3.965
47283W        W15688  32.599  38.719  11.215
47284W        W15689  10.745  42.373   1.284
47285W        W15690  13.105  11.896   4.176
47286W        W15691  38.356  35.556   0.860
47287W        W15692  23.442  42.187  14.164
47288W        W15693  17.180   8.358   1.772
47289W        W15694  33.850   0.184   1.303
47290W        W15695  24.284  39.010   1.761
47291W        W15696  41.323  16.231  13.465
47292W        W15697  26.104   3.931  11.825
47293W        W15698  22.811  31.836   3.218
47294W        W15699  17.626  40.335  11.622
47295W        W15700  37.802   5.915  12.495
47296W        W15701  24.379  19.058  12.472
47297W        W15702   2.728  23.471   0.496
47298W        W15703  35.681   0.976   4.171
47299W        W15704  16.993   5.094  12.817
47300W        W15705  33.781  40.434   2.499
47301W        W15706   6.718  26.476  11.125
47302W        W15707  42.318  29.152  12.314
47303W        W15708  12.021  33.976   1.297
47304W        W15709  42.981  34.068   1.068
47305W        W15710  29.838   6.780  14.387
47306W        W15711  34.710  18.895   0.773
47307W        W15712  38.317   4.973  13.453
47308W        W15713  24.579   3.498   4.668
47309W        W15714   3.823  41.042   2.174
47310W        W15715   2.825  38.039   4.392
47311W        W15716  19.253   6.103  11.146
47312W        W15717  13.408  44.775   4.953
47313W        W15718  15.323  39.572   2.728
47314W        W15719  29.514  15.799   4.609
47315W        W15720  10.101  12.792   3.094
47316W        W15721  42.527  14.636  10.680
47317W        W15722  44.397  39.093  11.331
47318W        W15723  30.678  44.971   4.777
47319W        W15724  31.206  27.465  13.943
47320W        W15725  36.972  10.964   1.306
47321W        W15726  16.051   3.807  14.753
47322W        W15727   5.466  23.550   2.787
47323W        W15728   6.355  39.166  14.870
47324W        W15729  39.085  23.942   3.025
47325W        W15730  32.695  30.630   0.087
47326W        W15731  27.498  32.661   2.925
47327W        W15732  29.384   4.207  14.351
47328W        W15733   0.740  36.301   1.044
47329W        W15734  31.148  40.552  11.889
47330W        W15735  44.917   4.312  13.656
47331W        W15736   2.799  33.956  13.458
47332W        W15737  28.132  10.447   1.333
47333W        W15738  27.054  23.128   4.525
47334W        W15739  28.621  28.620  11.185
47335W        W15740  39.698  27.348  13.438
47336W        W15741   2.123  11.005  14.911
47337W        W15742   8.078  39.992   2.142
47338W        W15743  13.883  38.119  11.267
47339W        W15744  30.175  41.512   2.605
47340W        W15745  20.858  36.458   2.874
47341W        W15746   3.336  23.814  11.566
47342W        W15747  27.604   1.224   2.095
47343W        W15748   6.099  33.287   1.842
47344W        W15749  34.030  44.515  13.439
47345W        W15750  13.210  33.702   0.875
47346W        W15751  41.025   2.028   4.742
47347W        W15752  31.922  21.472  14.670
47348W        W15753  11.125  39.384  12.116
47349W        W15754  41.207  36.603   0.345
47350W        W15755  17.157  37.412   0.986
47351W        W15756  24.567  43.523   4.797
47352W        W15757   5.693   8.852   3.692
47353W        W15758  22.537  23.403  11.056
47354W        W15759  42.521  21.240   3.240
47355W        W15760  21.966  40.988  11.975
47356W        W15761   1.718  15.963  13.456
47357W        W15762   5.903  43.442  13.107
47358W        W15763   4.833   3.727   1.301
47359W        W15764  26.482  27.291  11.156
47360W        W15765  12.723  17.728   3.557
47361W        W15766  37.337  14.772   2.082
47362W        W15767  39.940  38.667  13.057
47363W        W15768  34.023  19.523  13.106
47364W        W15769  14.901   1.770  11.619
47365W        W15770   6.163   7.135   3.336
47366W        W15771  22.685  31.150  11.605
47367W        W15772  38.308  17.621   3.267
47368W        W15773  37.463  30.646  13.629
47369W        W15774  32.572  11.169  11.401
47370W        W15775  11.573  41.600   1.188
47371W        W15776  13.841  17.748  14.961
47372W        W15777  38.051   9.960  12.546
47373W        W15778  32.499  24.733  11.645
47374W        W15779  17.046  41.353   2.229
47375W        W15780  25.767  34.341  10.784
47376W        W15781  11.728  40.537  10.882
47377W        W15782   6.861   2.840   0.225
47378W        W15783  20.142  27.425   0.290
47379W        W15784  35.050  28.474   2.188
47380W        W15785  26.147  42.539   2.845
47381W        W15786   8.361  34.222  14.299
47382W        W15787  27.597  27.813  11.226
47383W        W15788  10.305  33.502  13.396
47384W        W15789   2.895  37.841  12.064
47385W        W15790   5.049  12.362   3.190
47386W        W15791  29.198  20.305  11.189
47387W        W15792  16.829  13.937   0.904
47388W        W15793  30.445  24.928  13.909
47389W        W15794  19.963  25.213   2.766
47390W        W15795  28.555  41.306  11.742
47391W        W15796  32.925  42.391   0.573
47392W        W15797  37.310  15.082  11.531
47393W        W15798   8.937  14.699  12.155
47394W        W15799   8.828  39.420   2.303
47395W        W15800  21.087   3.471   2.793
47396W        W15801  44.424  28.577   4.307
47397W        W15802   7.044  39.576  11.034
47398W        W15803  17.300  15.714   0.852
47399W        W15804   8.884  11.174   4.567
47400W        W15805   7.182   7.280  13.396
47401W        W15806  29.977  20.252   4.760
47402W        W15807   8.556  39.888   2.309
47403W        W15808   3.167   2.636   2.765
47404W        W15809  15.344  40.346  14.510
47405W        W15810  30.330  29.389  13.271
47406W        W15811  10.630   0.715  11.997
47407W        W15812  35.326   4.104   4.711
47408W        W15813   8.392  11.591   1.230
47409W        W15814  32.873   1.390  13.126
47410W        W15815   8.124  36.649   4.104
47411W        W15816  22.810   4.144  11.122
47412W        W15817   6.163  27.534  10.601
47413W        W15818   1.177  36.751   3.626
47414W        W15819  43.705  30.132  10.832
47415W        W15820  10.633  11.153  13.796
47416W        W15821  30.654  28.684  11.082
47417W        W15822  26.130  42.878   0.013
47418W        W15823   0.476  30.653   4.660
47419W        W15824  32.416  24.528   0.732
47420W        W15825  24.917  18.145  13.157
47421W        W15826  39.876   6.631  11.577
47422W        W15827  44.959  25.107   0.491
47423W        W15828  15.229  19.197   4.204
47424W        W15829  30.383  40.583  12.600
47425W        W15830  26.606  12.259   0.387
47426W        W15831  14.501  12.832  12.001
47427W        W15832  29.786  17.144   0.235
47428W        W15833   3.306   4.833  13.675
47429W        W15834  42.308  24.903   2.315
47430W        W15835  40.954  32.537   4.652
47431W        W15836  24.700  17.699   4.680
47432W        W15837  10.668  11.332   1.628
47433W        W15838   1.636  37.432   1.421
47434W        W15839  38.542  32.154  11.662
47435W        W15840  27.854  16.751  12.655
47436W        W15841   9.230  38.389  14.067
47437W        W15842  36.327  16.250  13.571
47438W        W15843   5.622  42.709  13.342
47439W        W15844  31.011  10.224  12.126
47440W        W15845  37.550  31.936   4.166
47441W        W15846  40.366  22.618  14.504
47442W        W15847  27.532  29.171   0.911
47443W        W15848  30.163  37.934   2.852
47444W        W15849  38.876  19.240   3.867
47445W        W15850   7.369  33.299  12.914
47446W        W15851  32.504   7.098   2.175
47447W        W15852  19.612  13.292  11.889
47448W        W15853  19.121   5.693  13.857
47449W        W15854  31.934  30.827  11.944
47450W        W15855  15.093  11.391  14.317
47451W        W15856  36.529  22.567  13.920
47452W        W15857  14.617   9.889   4.180
47453W        W15858  42.400  35.375   1.225
47454W        W15859   1.466  33.965   2.207
47455W        W15860   1.982  32.153  12.908
47456W        W15861  23.639  14.644  13.580
47457W        W15862  27.025  16.547   1.504
47458W        W15863  38.912  34.328   0.416
47459W        W15864  36.780  20.702   1.159
47460W        W15865  33.005  14.491  14.587
47461W        W15866   9.863   1.012   0.275
47462W        W15867  17.515  12.468  14.403
47463W        W15868  19.050   7.208  12.079
47464W        W15869  28.237  38.500  12.381
47465W        W15870  44.406   1.742   2.102
47466W        W15871  16.003  32.162   4.588
47467W        W15872   5.860  20.579  10.346
47468W        W15873  20.706  11.636   4.136
47469W        W15874  33.618  43.835   2.472
47470W        W15875  43.508  43.962  13.630
47471W        W15876   1.375  21.559  14.465
47472W        W15877   7.196  29.753  11.012
47473W        W15878   7.949   6.847  13.874
47474W        W15879   9.456   7.293  12.691
47475W        W15880  30.884  20.768  12.941
47476W        W15881  31.248   6.458  10.584
47477W        W15882  38.896  37.417  14.216
47478W        W15883  39.590   7.617  10.190
47479W        W15884  31.637  20.444  10.496
47480W        W15885   3.461   8.637   1.350
47481W        W15886  40.341  34.632   4.045
47482W        W15887   5.921  43.321  12.035
47483W        W15888  12.682  43.234   1.363
47484W        W15889  39.978  43.210  12.116
47485W        W15890  28.886  27.783   1.035
47486W        W15891  16.327  10.693  12.578
47487W        W15892  18.526  33.622   4.238
47488W        W15893  42.283  30.374  11.924
47489W        W15894  14.678  26.979   0.937
47490W        W15895  34.548  38.704   3.245
47491W        W15896  32.415  36.871  10.749
47492W        W15897  15.484  38.564  13.352
47493W        W15898  11.798   4.648   0.459
47494W        W15899  40.481  33.153   0.525
47495W        W15900  15.703  39.031   1.619
47496W        W15901  14.821   0.362   3.204
47497W        W15902  24.217  14.709   2.781
47498W        W15903  27.780  12.256  14.608
47499W        W15904  31.064  31.140   2.953
47500W        W15905  38.774  12.836  14.474
47501W        W15906   2.270  28.344  11.118
47502W        W15907  41.346  44.957  11.547
47503W        W15908   6.944   5.905   0.286
47504W        W15909  19.673   1.286  13.611
47505W        W15910  40.421  22.155   4.337
47506W        W15911   7.226  34.502   0.777
47507W        W15912   1.868  22.537  13.123
47508W        W15913   2.570  14.860  11.982
47509W        W15914  13.128  36.466  11.519
47510W        W15915  39.815  13.344   4.594
47511W        W15916  27.588   5.002  12.048
47512W        W15917   8.823   5.897  14.441
47513W        W15918  12.320  41.074  14.253
47514W        W15919  34.357  19.981  13.043
47515W        W15920   7.428  33.598  11.607
47516W        W15921   4.376   4.762  11.076
47517W        W15922  35.647  28.667  12.491
47518W        W15923  33.089  38.342   2.931
47519W        W15924   2.998   7.743  13.073
47520W        W15925  44.948  39.346  14.641
47521W        W15926   2.651  11.093  11.453
47522W        W15927  21.865   7.245   4.564
47523W        W15928  23.910   1.677  12.936
47524W        W15929  18.287   4.626  10.783
47525W        W15930   1.780  16.557  10.448
47526W        W15931  20.274   2.904  11.987
47527W        W15932  17.086   2.958  12.946
47528W        W15933  34.560  34.999  11.534
47529W        W15934  24.383  26.778  14.961
47530W        W15935  24.006  11.621   3.455
47531W        W15936  24.673  13.333  10.737
47532W        W15937  11.407  18.943   3.072
47533W        W15938  30.482   0.712  12.918
47534W        W15939  41.833  15.209  14.217
47535W        W15940  13.450  31.141   1.368
47536W        W15941  12.546  42.505  11.877
47537W        W15942  28.586  37.102   2.374
47538W        W15943  40.025  12.611  13.083
47539W        W15944  40.654  25.639   0.346
47540W        W15945  39.283  18.032   0.428
47541W        W15946  23.602  31.891  13.437
47542W        W15947   3.307  44.475   3.509
47543W        W15948  42.191   4.578   4.943
47544W        W15949  16.568  27.091  11.925
47545W        W15950  37.867  29.505   1.825
47546W        W15951  30.063  39.333   2.756
47547W        W15952  26.265  33.979   3.716
47548W        W15953  24.764   1.229  11.527
47549W        W15954  21.499  28.134  12.336
47550W        W15955  40.747  20.721  14.712
47551W        W15956   9.269  14.439  14.930
47552W        W15957  36.912  34.006   1.658
47553W        W15958  32.987   4.308   1.930
47554W        W15959   5.698  37.231   3.540
47555W        W15960   3.005  22.015  11.567
47556W        W15961  32.011  37.159  14.584
47557W        W15962  16.191  22.227   3.249
47558W        W15963  13.397   3.219   0.244
47559W        W15964  33.195   6.188  11.782
47560W        W15965  38.545  39.495  10.459
47561W        W15966  34.823   2.383  13.924
47562W        W15967  11.791  29.918  10.694
47563W        W15968   7.708  26.894   4.129
47564W        W15969  43.807  42.035   2.372
47565W        W15970  28.351  29.993   4.080
47566W        W15971  15.708  37.584  11.943
47567W        W15972   7.010   2.129  11.470
47568W        W15973  44.561   2.761  13.282
47569W        W15974   3.329  11.630  14.992
47570W        W15975   6.875   2.022  10.561
47571W        W15976  37.800   3.322  13.831
47572W        W15977  39.472  12.648   2.415
47573W        W15978  39.569   1.281   1.246
47574W        W15979  13.040   2.787   0.929
47575W        W15980  25.123  17.395  14.989
47576W        W15981  23.476  27.006  12.625
47577W        W15982   0.237  40.380   2.857
47578W        W15983  36.820  43.406  12.905
47579W        W15984  40.587  19.750   2.865
47580W        W15985  31.407  13.863  11.634
47581W        W15986  34.337  37.337  14.851
47582W        W15987  25.151  23.405   4.157
47583W        W15988  36.585  44.665   1.910
47584W        W15989  16.330  23.073  12.500
47585W        W15990  44.088   5.532  13.824
47586W        W15991  42.003  30.681   3.663
47587W        W15992  24.765  22.654   1.324
47588W        W15993  38.581  43.492  11.169
47589W        W15994  32.462   9.064  14.395
47590W        W15995  26.462  23.759   3.551
47591W        W15996  13.147  38.525   3.613
47592W        W15997  35.336  42.382  12.487
47593W        W15998  23.624  43.454  13.649
47594W        W15999  31.521  30.597   2.418
47595W        W16000  24.090  41.303  12.483
47596W        W16001   1.019   9.190   1.944
47597W        W16002  27.586  43.944   1.407
47598W        W16003  35.466  35.652   3.043
47599W        W16004  41.645  17.837   0.695
47600W        W16005  44.496   8.876  12.463
47601W        W16006  42.706   3.843   2.799
47602W        W16007  42.368   1.247  11.310
47603W        W16008  33.983  10.712   5.031
47604W        W16009  16.607  23.757  14.764
47605W        W16010  33.439  36.763  11.426
47606W        W16011  36.143   0.981   3.289
47607W        W16012   9.043  17.174  10.731
47608W        W16013  31.406  39.601  12.853
47609W        W16014  24.210  27.933   1.946
47610W        W16015  43.923  26.216  10.909
47611W        W16016  17.156   5.636  11.650
47612W        W16017   9.095  42.722  11.616
47613W        W16018   6.153  22.259   0.506
47614W        W16019  20.280  16.922  13.847
47615W        W16020  28.224  19.118  14.684
47616W        W16021  12.169  40.385   4.141
47617W        W16022  12.809  11.243   0.850
47618W        W16023  23.557  10.746   0.481
47619W        W16024  25.982  14.506   1.333
47620W        W16025  39.049  15.985   4.651
47621W        W16026   0.901  39.074   2.432
47622W        W16027  15.326  17.398  12.445
47623W        W16028  26.346  26.222   1.483
47624W        W16029  21.665  16.961  11.773
47625W        W16030  29.854  15.239  14.835
47626W        W16031   6.256  36.471   0.393
47627W        W16032  14.182  31.626   4.608
47628W        W16033  12.090   8.369   4.684
47629W        W16034  23.825  39.043   2.848
47630W        W16035  25.130  17.609   4.390
47631W        W16036  30.408  21.721   2.101
47632W        W16037  13.701   9.423   0.145
47633W        W16038   4.231  41.861  14.258
47634W        W16039  33.123  41.916   1.797
47635W        W16040  44.878  21.113   4.535
47636W        W16041  22.148  20.374  14.929
47637W        W16042  12.164  19.020   4.235
47638W        W16043  15.174  22.000  11.802
47639W        W16044   8.186   7.322  12.085
47640W        W16045  24.161   5.962  11.202
47641W        W16046  27.547  36.967   4.051
47642W        W16047   3.819   2.392   0.512
47643W        W16048   3.148  21.920  14.834
47644W        W16049  19.052  27.531   2.546
47645W        W16050  31.308  28.656   3.152
47646W        W16051  12.568  43.532   2.866
47647W        W16052  14.164  17.839   0.354
47648W        W16053  41.878  20.134   2.246
47649W        W16054  24.528   9.740   2.603
47650W        W16055   3.127  17.186   4.122
47651W        W16056  32.659  30.876   0.534
47652W        W16057  42.750  43.963   4.462
47653W        W16058  25.086  11.976   0.359
47654W        W16059  27.351  42.336  14.549
47655W        W16060  18.376  37.278  12.826
47656W        W16061  27.141  23.493   2.003
47657W        W16062  22.416  40.534   2.367
47658W        W16063  22.231  27.455  14.911
47659W        W16064  30.395   1.484  14.381
47660W        W16065  22.264  25.289   2.387
47661W        W16066  29.491  32.925  11.303
47662W        W16067  11.131  33.650   1.771
47663W        W16068  39.536  42.547  14.889
47664W        W16069  39.896   1.799  10.640
47665W        W16070   9.321  12.671   4.703
47666W        W16071  32.961  37.350   2.744
47667W        W16072  42.600   5.530   0.395
47668W        W16073  13.367  12.651   3.607
47669W        W16074  24.578  30.165  14.655
47670W        W16075  35.373  38.233  11.373
47671W        W16076  30.577  30.435   4.926
47672W        W16077  33.866  10.407  14.943
47673W        W16078  11.804   7.155   2.698
47674W        W16079  17.280  31.894   1.819
47675W        W16080  44.465   1.498   3.324
47676W        W16081  32.066  43.428   3.736
47677W        W16082  21.697   6.649  11.552
47678W        W16083  26.413  39.944   1.777
47679W        W16084  34.902  25.238  14.675
47680W        W16085  27.607  22.290   3.623
47681W        W16086  21.766   3.693  13.962
47682W        W16087  42.220   0.890  10.479
47683W        W16088  25.930  40.841   3.782
47684W        W16089   1.691  37.859  12.346
47685W        W16090  11.352  44.352   4.608
47686W        W16091  13.769  14.553   2.507
47687W        W16092  23.627   4.877  13.942
47688W        W16093  12.420  24.952  14.734
47689W        W16094   3.699  16.310   2.695
47690W        W16095  26.962  16.096  10.720
47691W        W16096  19.131  37.610   2.371
47692W        W16097  40.829  38.138  11.963
47693W        W16098  32.149   2.498   2.449
47694W        W16099   2.064   4.815   3.359
47695W        W16100  11.819  10.330  10.390
47696W        W16101   4.902  18.603   2.088
47697W        W16102  42.711   6.267  11.092
47698W        W16103  10.166  19.207   2.169
47699W        W16104  30.061  18.699  10.587
47700W        W16105   3.965  21.746  13.741
47701W        W16106  25.950  26.464   1.750
47702W        W16107  10.609  28.091  14.835
47703W        W16108  22.243  36.657   2.415
47704W        W16109  24.529   2.933  11.177
47705W        W16110  38.836   8.274   1.660
47706W        W16111  44.299  18.443  12.527
47707W        W16112  19.281  30.924  13.004
47708W        W16113   3.036  31.782   4.635
47709W        W16114  13.781  29.502   2.112
47710W        W16115  43.317  32.951  13.144
47711W        W16116  40.592  24.397  13.537
47712W        W16117  42.317  33.630  14.442
47713W        W16118  22.050  30.591   2.201
47714W        W16119   5.771  15.090   4.534
47715W        W16120  25.188  34.949  12.796
47716W        W16121  15.527   4.475  12.285
47717W        W16122  34.897  13.495  12.006
47718W        W16123   5.161   4.381   1.688
47719W        W16124  30.861  14.070  10.764
47720W        W16125   4.292  20.655  13.479
47721W        W16126  14.142  35.533  14.784
47722W        W16127  43.236   8.659   1.275
47723W        W16128   8.235   1.227   0.778
47724W        W16129  20.776  13.660   1.767
47725W        W16130  14.819  13.658  14.013
47726W        W16131  41.345  12.650   3.505
47727W        W16132  36.871  12.313   2.821
47728W        W16133   9.698   5.807   4.348
47729W        W16134   8.310   6.516   1.318
47730W        W16135  19.199  34.223  13.440
47731W        W16136  36.528   2.947  10.920
47732W        W16137  16.031  44.214   2.767
47733W        W16138  24.122  41.387  11.970
47734W        W16139  38.854   2.398   0.317
47735W        W16140  32.106  27.119  13.865
47736W        W16141  41.752  16.021  12.133
47737W        W16142  26.975  44.867   3.371
47738W        W16143  28.678  32.974  10.480
47739W        W16144  12.056   1.407  14.493
47740W        W16145  27.259  27.077   0.776
47741W        W16146   7.876  21.233  12.465
47742W        W16147   0.269   7.828  12.937
47743W        W16148  13.177   8.958   3.822
47744W        W16149   1.269   5.690   2.631
47745W        W16150  27.037  20.223   4.164
47746W        W16151  33.536   6.481   1.899
47747W        W16152   4.806  37.178   0.479
47748W        W16153   0.334  38.167  12.662
47749W        W16154  15.744  33.410  14.545
47750W        W16155  11.928  21.169   3.125
47751W        W16156  31.403  33.920   0.779
47752W        W16157  14.808  14.245  14.388
47753W        W16158  38.885  14.727  10.725
47754W        W16159  37.415  34.044   1.873
47755W        W16160  34.949   6.001   1.497
47756W        W16161  28.637  21.504   1.103
47757W        W16162  44.473  41.970  12.575
47758W        W16163   9.098  35.530  11.113
47759W        W16164  31.831   9.245  11.169
47760W        W16165  33.642  18.264  14.829
47761W        W16166  35.850  21.728  10.773
47762W        W16167  25.610   9.114  11.201
47763W        W16168   6.710  22.181   2.127
47764W        W16169  37.969   7.359  12.518
47765W        W16170   9.637  28.221   4.100
47766W        W16171  10.618   1.738   3.694
47767W        W16172  13.485  37.723  12.024
47768W        W16173  32.857   6.958  11.281
47769W        W16174  39.026  39.961  12.067
47770W        W16175  31.996  38.086  13.405
47771W        W16176  40.768  40.169   0.424
47772W        W16177  27.162  27.118   3.116
47773W        W16178  16.975   7.695   4.394
47774W        W16179  28.631  43.290   3.179
47775W        W16180  13.510  40.461  13.860
47776W        W16181  34.575  20.176   0.821
47777W        W16182  42.490  40.415   3.201
47778W        W16183  16.690   7.089   0.485
47779W        W16184  28.034  37.041   1.751
47780W        W16185  25.783  25.127  13.246
47781W        W16186  13.423  14.064  12.120
47782W        W16187   2.952  34.172   0.441
47783W        W16188  41.979  17.406  12.712
47784W        W16189  21.961  44.809   4.137
47785W        W16190  14.271   6.709   0.912
47786W        W16191  21.932  13.795  11.243
47787W        W16192  29.485   3.928   3.225
47788W        W16193   6.326   9.533  12.172
47789W        W16194  36.034   4.317   2.908
47790W        W16195   4.709  30.684  11.673
47791W        W16196  20.438  18.185  14.191
47792W        W16197  41.058   4.263   1.382
47793W        W16198  30.490  11.520   0.903
47794W        W16199  29.620   6.787   1.239
47795W        W16200  19.537  24.824  12.747
47796W        W16201  32.034  11.059  11.241
47797W        W16202  36.867  13.894   2.459
47798W        W16203  27.147  14.878  12.408
47799W        W16204  43.116  42.293   4.101
47800W        W16205  18.254  41.841   1.385
47801W        W16206  44.893  16.861   2.794
47802W        W16207  23.713  35.985  13.102
47803W        W16208  20.843   3.667  10.849
47804W        W16209  21.595   9.926  11.914
47805W        W16210   7.202   1.963  14.510
47806W        W16211  27.199  15.378  12.343
47807W        W16212  12.665  19.238   0.407
47808W        W16213  27.453  33.668  12.988
47809W        W16214  37.469   7.432   4.644
47810W        W16215  38.117  42.245   3.241
47811W        W16216   2.805   6.225  14.369
47812W        W16217  28.100  15.818  14.805
47813W        W16218   1.483   2.737   0.699
47814W        W16219  18.720   5.357   4.049
47815W        W16220  27.232   0.896  14.847
47816W        W16221  35.464  24.127   1.463
47817W        W16222   3.323  12.169   1.301
47818W        W16223   6.607  22.501  14.229
47819W        W16224  13.645  34.501  10.739
47820W        W16225  10.026  26.245   1.688
47821W        W16226   8.103   7.808   3.681
47822W        W16227  40.851  21.113  10.492
47823W        W16228  21.691   4.023  14.510
47824W        W16229  42.866  41.956  14.915
47825W        W16230  17.600  30.857   0.724
47826W        W16231  23.018  42.466  13.967
47827W        W16232  32.874  32.147   1.888
47828W        W16233   2.915  16.962  14.442
47829W        W16234  23.011  33.417  11.620
47830W        W16235  10.093  33.845  10.917
47831W        W16236  28.791   9.714  12.385
47832W        W16237  15.279  43.559   1.505
47833W        W16238  35.400  33.044  11.716
47834W        W16239   9.233  11.870  12.875
47835W        W16240   8.749  37.145   1.788
47836W        W16241  24.872  28.238  10.754
47837W        W16242  19.080  18.480   2.671
47838W        W16243  10.228   8.630   3.662
47839W        W16244  19.625  36.789   0.806
47840W        W16245  22.827  39.470  12.001
47841W        W16246  36.133   6.896  11.656
47842W        W16247   0.166  37.532   0.780
47843W        W16248  15.642  17.159   1.269
47844W        W16249  29.933  20.581  13.942
47845W        W16250  19.165  14.207  14.888
47846W        W16251  13.850  14.805  13.922
47847W        W16252  24.480  33.438  12.641
47848W        W16253  38.922  28.093  13.405
47849W        W16254  41.482  28.764   3.243
47850W        W16255  28.337   1.789   2.878
47851W        W16256  34.154  15.214   1.476
47852W        W16257  42.731   6.969  11.652
47853W        W16258  22.945  38.011  12.394
47854W        W16259  27.156  21.150  10.843
47855W        W16260  11.744  29.035  13.563
47856W        W16261   0.969  30.219   4.165
47857W        W16262  43.237  40.738  12.784
47858W        W16263   3.050  22.963  11.637
47859W        W16264  18.720  37.937   2.682
47860W        W16265   6.478  26.656  11.543
47861W        W16266  16.033  10.270  14.589
47862W        W16267  10.266  21.016  12.420
47863W        W16268  30.127  12.563  12.142
47864W        W16269  28.520  19.496  13.299
47865W        W16270  25.049   6.669  12.330
47866W        W16271  42.564   1.705   1.911
47867W        W16272  17.773  40.329   3.886
47868W        W16273  44.368   9.759   2.346
47869W        W16274   6.321  18.014  10.653
47870W        W16275  11.419  18.233  10.471
47871W        W16276  27.023  17.086  13.243
47872W        W16277   7.077  28.487   0.306
47873W        W16278  22.520   5.902  11.069
47874W        W16279   0.571  29.429   4.381
47875W        W16280  21.215  33.631  13.059
47876W        W16281  29.094   7.905  13.979
47877W        W16282  30.472  34.701  12.013
47878W        W16283  41.722  33.954   0.440
47879W        W16284   8.346  34.489   2.332
47880W        W16285  12.185  19.749  11.899
47881W        W16286   7.508  14.792  11.128
47882W        W16287  12.382  19.088  13.856
47883W        W16288  37.409  38.932  13.546
47884W        W16289   5.651  13.245   3.978
47885W        W16290  40.520  14.373   2.451
47886W        W16291   6.521  26.583  12.860
47887W        W16292  19.640  19.742  11.466
47888W        W16293  19.172  12.744  10.618
47889W        W16294  30.978  37.726   3.176
47890W        W16295  35.520   0.175   1.609
47891W        W16296  38.365  35.349  11.510
47892W        W16297  21.690  40.819   1.129
47893W        W16298   1.172   0.824  14.503
47894W        W16299  43.335   6.455  12.517
47895W        W16300   5.563   6.348  14.804
47896W        W16301  33.407  15.604  13.995
47897W        W16302   1.257  35.861  13.422
47898W        W16303   4.782  33.658  12.577
47899W        W16304  25.563   3.403  13.365
47900W        W16305  18.357  29.001   0.819
47901W        W16306   9.961  21.279   0.327
47902W        W16307  22.002  24.549  11.513
47903W        W16308  28.657  12.886  14.438
47904W        W16309  30.509  34.842  12.829
47905W        W16310  21.115  23.084   2.417
47906W        W16311  34.891  29.928  12.036
47907W        W16312   9.826  24.292  11.878
47908W        W16313  43.406  22.931   0.391
47909W        W16314  10.415   1.898   4.153
47910W        W16315  28.659  29.893   0.395
47911W        W16316  34.603   0.589   2.467
47912W        W16317   0.452  26.752   3.301
47913W        W16318  10.412  22.606   2.991
47914W        W16319  26.923  27.919  14.833
47915W        W16320  30.209  42.951   1.888
47916W        W16321   1.217  34.051   1.237
47917W        W16322  25.391  32.861   4.577
47918W        W16323   9.657  38.449   1.659
47919W        W16324  41.032  32.509  10.740
47920W        W16325  29.370   2.244   4.058
47921W        W16326   2.026  42.500   2.190
47922W        W16327  13.137  44.811  13.836
47923W        W16328  14.588  35.423  11.471
47924W        W16329  19.533   6.811   3.499
47925W        W16330  33.521  43.309   3.771
47926W        W16331  22.812  11.501  13.944
47927W        W16332  24.190  31.146   1.340
47928W        W16333  37.501  19.294  12.416
47929W        W16334  15.141  36.828  14.367
47930W        W16335  15.356  38.960  14.515
47931W        W16336  16.524  31.190  12.776
47932W        W16337  39.442  29.208  14.599
47933W        W16338   1.866  28.684  12.471
47934W        W16339   6.720  20.730   0.952
47935W        W16340   6.445  42.028   0.925
47936W        W16341  43.463  44.238  14.436
47937W        W16342  41.321   3.697  14.635
47938W        W16343  38.155  30.423  12.382
47939W        W16344  12.087  38.595  11.135
47940W        W16345  29.406  14.726  12.414
47941W        W16346  26.701  26.117  13.489
47942W        W16347  17.115   1.343  13.495
47943W        W16348  20.169  42.053  12.048
47944W        W16349  37.066  19.156   2.725
47945W        W16350  14.679  43.483  14.719
47946W        W16351  40.006  32.576   4.642
47947W        W16352   6.261  10.037  11.724
47948W        W16353  41.786  19.486   9.736
47949W        W16354   6.180  24.259  14.334
47950W        W16355  33.101  15.503   4.045
47951W        W16356  43.429  28.574   3.372
47952W        W16357  39.527  17.856  14.995
47953W        W16358   4.908  21.479  13.496
47954W        W16359   0.491  40.889  12.576
47955W        W16360  20.338  18.662  11.973
47956W        W16361   0.670  21.236   4.582
47957W        W16362  17.139  43.694  12.377
47958W        W16363  16.111  37.791   0.839
47959W        W16364  44.330  26.974   1.269
47960W        W16365  38.970   2.468  14.804
47961W        W16366  13.930  44.012   2.856
47962W        W16367  36.459  29.472   1.614
47963W        W16368  38.415  35.657  11.102
47964W        W16369   9.282  33.145   4.636
47965W        W16370  16.803  34.855  13.450
47966W        W16371  43.937  11.825  11.710
47967W        W16372  27.026   9.734   2.802
47968W        W16373   8.614  44.939  14.960
47969W        W16374  17.601  16.056  12.988
47970W        W16375  27.421  13.942  14.834
47971W        W16376  33.027   8.514  10.572
47972W        W16377   1.419  14.229  12.565
47973W        W16378  28.911   3.458  14.340
47974W        W16379  37.562  12.728   2.793
47975W        W16380   9.807   8.320   3.217
47976W        W16381  24.081  15.254   3.353
47977W        W16382  32.815   2.414   2.945
47978W        W16383   5.371  34.128  12.988
47979W        W16384  21.334  17.551   4.959
47980W        W16385  29.829  16.609   3.566
47981W        W16386   3.391  40.166   4.145
47982W        W16387  13.530  34.246  10.296
47983W        W16388  35.087   2.854  13.781
47984W        W16389  44.829  39.975   0.372
47985W        W16390  26.925  14.132   2.802
47986W        W16391  31.644  26.586   1.264
47987W        W16392  40.601   5.213  12.890
47988W        W16393  43.471  38.987   2.319
47989W        W16394  27.181   3.231  13.939
47990W        W16395  30.189  17.003  13.310
47991W        W16396  10.352  36.099   3.293
47992W        W16397  16.601  42.725  13.437
47993W        W16398   3.914  21.213  11.129
47994W        W16399  25.074   1.234  12.349
47995W        W16400  40.309   1.440   0.450
47996W        W16401   3.724  16.512   2.187
47997W        W16402   8.356   3.747   0.938
47998W        W16403  35.798   0.506   4.497
47999W        W16404  43.434  44.707   2.220
48000W        W16405  20.712  13.756  13.937
48001W        W16406   7.099  27.562  13.328
48002W        W16407   4.316  24.191  11.462
48003W        W16408  38.906  12.110  12.092
48004W        W16409  32.080  12.422   0.801
48005W        W16410  38.419  37.170   3.875
48006W        W16411  37.378  26.217   0.914
48007W        W16412   1.272   4.231   2.306
48008W        W16413  24.573  23.730   1.442
48009W        W16414  42.856  28.084   3.632
48010W        W16415  29.370  15.916   3.772
48011W        W16416  32.066  12.345  13.861
48012W        W16417  30.980   4.855  12.328
48013W        W16418  41.906  43.545   2.615
48014W        W16419  18.532  24.074  12.104
48015W        W16420  14.038  25.749  11.955
48016W        W16421   7.265  44.562   3.293
48017W        W16422  10.218  43.277  10.733
48018W        W16423  12.619  35.744  11.585
48019W        W16424  26.742   8.464   4.445
48020W        W16425   9.920  18.216  11.201
48021W        W16426  28.517  22.202  12.630
48022W        W16427  30.559  21.579  11.064
48023W        W16428  42.685  37.972   3.878
48024W        W16429  34.163  15.815  10.729
48025W        W16430  14.188  15.659  12.410
48026W        W16431   6.406  17.061  14.958
48027W        W16432   4.269  35.267  12.580
48028W        W16433  39.598  43.080   3.041
48029W        W16434   9.316  26.335  12.455
48030W        W16435  20.621   8.595  11.656
48031W        W16436  44.543  21.744   9.926
48032W        W16437  34.128  39.469   4.005
48033W        W16438  32.671  32.946  13.881
48034W        W16439  27.624  30.278  11.018
48035W        W16440  41.764   2.258   4.492
48036W        W16441  14.509  43.391   3.202
48037W        W16442  16.704  21.628  14.148
48038W        W16443   9.678  43.338  14.213
48039W        W16444   8.309   8.732   4.549
48040W        W16445  31.012  34.112  10.674
48041W        W16446  38.894  44.903   4.124
48042W        W16447  28.113  25.782  12.535
48043W        W16448   8.854   5.721  10.596
48044W        W16449  39.350  24.979  14.988
48045W        W16450  32.915  44.299   4.686
48046W        W16451  16.901  19.202   1.942
48047W        W16452   5.163  38.376  13.830
48048W        W16453  25.695  19.275   2.435
48049W        W16454  41.509  16.095   4.843
48050W        W16455  14.537  39.016   3.678
48051W        W16456  27.631  13.152   2.408
48052W        W16457  40.938  38.054   1.266
48053W        W16458  35.125   5.365  14.800
48054W        W16459   5.348  42.056   0.437
48055W        W16460  16.493  35.323   4.122
48056W        W16461   2.305  35.355   3.127
48057W        W16462   3.331  12.800  11.135
48058W        W16463  31.515  15.686   1.326
48059W        W16464  13.624  23.638  14.837
48060W        W16465  29.404   4.753  12.050
48061W        W16466  38.911  25.131   3.653
48062W        W16467  42.769   2.162  11.532
48063W        W16468   5.958  36.231   0.041
48064W        W16469  41.603   7.859   2.346
48065W        W16470  40.437  12.839  12.873
48066W        W16471  30.706  40.101   0.458
48067W        W16472   0.812   1.451  13.448
48068W        W16473  21.549  17.549   3.033
48069W        W16474  31.734  38.955   1.876
48070W        W16475   9.800  44.522  11.590
48071W        W16476  36.457   2.207   1.895
48072W        W16477  12.186  44.709  11.590
48073W        W16478  39.832  20.712   1.414
48074W        W16479  19.965  43.744   1.822
48075W        W16480  17.930  12.195   4.868
48076W        W16481   6.770  44.017  14.110
48077W        W16482  39.798  36.258   3.676
48078W        W16483  15.708  15.716   0.218
48079W        W16484  31.425   8.870   3.401
48080W        W16485   8.769  28.056  12.409
48081W        W16486  12.994  18.088  10.760
48082W        W16487  10.859  26.174  12.862
48083W        W16488   7.530  17.731   1.348
48084W        W16489   9.328  22.156   1.375
48085W        W16490  28.147   6.786  12.055
48086W        W16491  14.167  35.285  11.759
48087W        W16492  26.794  21.316   1.583
48088W        W16493  44.506  41.288  10.888
48089W        W16494   2.773  11.607   0.887
48090W        W16495   8.162   9.243  13.453
48091W        W16496   1.001   3.260  13.054
48092W        W16497   5.793  15.604   1.218
48093W        W16498  30.123  31.036  14.481
48094W        W16499  19.501   3.449  14.536
48095W        W16500   8.754  30.446  10.658
48096W        W16501  39.522  22.480   3.719
48097W        W16502  31.797  27.117   2.390
48098W        W16503  33.640  27.222  12.430
48099W        W16504  25.523  15.841  12.218
48100W        W16505  18.077  41.413  12.630
48101W        W16506   3.339  35.261  11.152
48102W        W16507  24.771   8.234  14.487
48103W        W16508  35.997  16.540   4.107
48104W        W16509  28.637   3.787  11.613
48105W        W16510  38.358  44.419   4.502
48106W        W16511   8.723  12.381   3.796
48107W        W16512  32.958  16.321   1.419
48108W        W16513  21.429  35.472  11.085
48109W        W16514  36.474  23.556  14.814
48110W        W16515  12.754  24.002  12.866
48111W        W16516  26.696  40.497  13.470
48112W        W16517  19.437  26.462  11.098
48113W        W16518  16.544  34.825  12.033
48114W        W16519  42.392  17.734   2.489
48115W        W16520  22.717   4.446  12.375
48116W        W16521  36.298  24.282  13.341
48117W        W16522  41.439  44.921  13.599
48118W        W16523  16.953  11.425   1.436
48119W        W16524   1.247   0.943  14.010
48120W        W16525  40.585  28.193   3.319
48121W        W16526   9.116   2.388  10.716
48122W        W16527   8.152  25.413   4.843
48123W        W16528  24.650  13.613  14.917
48124W        W16529  17.117  16.246   4.435
48125W        W16530  17.062  27.015   3.810
48126W        W16531  43.944  23.090  12.814
48127W        W16532   3.315  16.070  12.051
48128W        W16533   6.235  37.897  11.818
48129W        W16534  12.116  37.071  14.271
48130W        W16535   6.736   5.570   4.612
48131W        W16536   7.410  40.301  13.495
48132W        W16537  29.923   4.877  14.398
48133W        W16538  10.242  11.269   2.340
48134W        W16539  41.827  39.291   4.306
48135W        W16540  27.410  38.076   0.002
48136W        W16541  38.436   8.406  14.449
48137W        W16542  17.824  21.902   5.287
48138W        W16543  33.501   6.379  12.492
48139W        W16544  13.449  22.046   1.255
48140W        W16545  27.409  34.918   1.724
48141W        W16546  39.813   7.588   2.032
48142W        W16547  33.921  25.996  12.676
48143W        W16548  10.562  24.533  10.676
48144W        W16549  24.057  34.753   1.438
48145W        W16550  31.340  18.814   3.728
48146W        W16551  38.712  23.437  12.004
48147W        W16552  34.044  12.590  11.015
48148W        W16553   1.950  25.176   0.952
48149W        W16554   0.822  39.061  14.231
48150W        W16555  33.753  38.059   5.091
48151W        W16556   2.961   6.746  11.170
48152W        W16557  43.114  26.193  13.007
48153W        W16558   8.429  12.888   2.599
48154W        W16559  43.853  37.436  12.098
48155W        W16560  17.922  26.191   4.075
48156W        W16561  11.631  42.526   0.614
48157W        W16562  12.087  21.736   4.341
48158W        W16563  13.538   8.339   2.397
48159W        W16564   9.177  31.085  13.778
48160W        W16565   9.458  36.093   1.715
48161W        W16566  21.434  21.826  10.356
48162W        W16567  18.680   9.667   0.353
48163W        W16568   7.495  30.373  12.067
48164W        W16569  23.621   3.250   2.146
48165W        W16570  35.964  24.308   0.713
48166W        W16571  44.845   8.997   5.064
48167W        W16572  37.407  24.519  11.630
48168W        W16573   2.297  39.799   4.657
48169W        W16574  26.434   2.399  10.478
48170W        W16575   3.800   4.302  13.559
48171W        W16576  19.634   6.574  10.527
48172W        W16577   5.200  15.411  14.929
48173W        W16578  28.407  21.061  12.013
48174W        W16579  25.979   8.391  13.960
48175W        W16580  27.524   6.186  13.835
48176W        W16581   0.712  31.001   2.800
48177W        W16582  30.544  37.858  13.076
48178W        W16583  17.117   9.058   0.322
48179W        W16584  32.429   0.433  14.696
48180W        W16585  22.372   5.167   2.666
48181W        W16586  43.676  38.223  11.385
48182W        W16587  43.808  23.439   0.914
48183W        W16588  25.554   5.961  13.978
48184W        W16589  43.238   5.452   0.860
48185W        W16590  11.145  26.522   1.921
48186W        W16591  15.666   6.823  14.445
48187W        W16592  44.406  25.221   3.125
48188W        W16593  30.819  44.011   3.838
48189W        W16594  28.283   6.225  13.051
48190W        W16595  15.633  38.366   2.307
48191W        W16596  14.734  18.690   0.689
48192W        W16597   2.631  22.199   4.187
48193W        W16598  26.565  38.840  11.965
48194W        W16599  22.235  22.568   0.383
48195W        W16600  35.607  42.561  14.055
48196W        W16601  27.427  14.159  12.892
48197W        W16602  12.247  34.556  10.662
48198W        W16603  31.762  30.380   0.988
48199W        W16604  20.717  41.909   2.881
48200W        W16605  40.239  40.865   3.750
48201W        W16606   6.528  34.944  12.330
48202W        W16607   8.670  41.023  12.582
48203W        W16608  17.264  13.289  11.974
48204W        W16609  17.976  25.609   4.475
48205W        W16610  19.857  24.516   4.099
48206W        W16611  25.112  12.668   3.388
48207W        W16612  28.206  37.049  12.433
48208W        W16613   0.353  25.001  14.492
48209W        W16614  31.978  14.083  13.428
48210W        W16615  16.434  12.033  11.223
48211W        W16616  11.672  27.569   5.186
48212W        W16617  23.038  23.500   0.998
48213W        W16618  26.528  33.837   1.792
48214W        W16619  22.757  23.046  12.572
48215W        W16620  16.138   0.042   3.634
48216W        W16621  36.063  33.079   2.969
48217W        W16622  18.326  39.919   3.014
48218W        W16623  11.843  42.779  10.608
48219W        W16624  21.262  13.637   4.268
48220W        W16625  36.578  13.823   0.517
48221W        W16626  39.787  20.077   2.683
48222W        W16627  13.278  17.563  13.949
48223W        W16628  26.140  28.520  12.920
48224W        W16629  25.328  44.552  11.620
48225W        W16630  16.421  22.522  13.111
48226W        W16631  22.508  30.712  12.810
48227W        W16632  22.807   1.282   2.444
48228W        W16633  39.552  18.668  13.308
48229W        W16634   8.046  12.596  10.952
48230W        W16635  40.886  27.785  13.091
48231W        W16636  25.541  29.493   0.034
48232W        W16637  13.116  29.434   3.256
48233W        W16638   9.808  32.420  14.496
48234W        W16639  22.515  32.618   2.949
48235W        W16640  26.655  38.574  13.353
48236W        W16641  10.275  15.129   4.514
48237W        W16642  20.252  10.052  14.458
48238W        W16643  15.923  33.013   0.438
48239W        W16644  11.957  22.806  11.144
48240W        W16645  32.929  42.605   1.042
48241W        W16646  43.766  27.702  10.443
48242W        W16647  33.622   4.565  12.421
48243W        W16648  14.632  14.386   1.005
48244W        W16649  38.494  20.540  14.275
48245W        W16650   9.367  32.501   3.160
48246W        W16651   6.663   1.868   4.764
48247W        W16652  38.344  38.336   4.162
48248W        W16653   8.389   8.271  11.959
48249W        W16654  20.311  40.452  14.369
48250W        W16655  24.138  20.139   4.740
48251W        W16656  21.025   0.762  14.035
48252W        W16657   2.049  38.310   2.144
48253W        W16658  38.438  32.090  12.598
48254W        W16659   3.905  36.452   1.210
48255W        W16660  25.669   7.982  13.949
48256W        W16661  29.072  15.673  12.831
48257W        W16662  12.906  29.820   0.712
48258W        W16663   1.029  39.796  10.773
48259W        W16664  37.846   6.735  12.788
48260W        W16665  36.267  43.314   0.721
48261W        W16666  34.761  30.776   0.822
48262W        W16667  31.525  12.141  10.660
48263W        W16668  16.808  35.589  10.486
48264W        W16669  10.219   2.195   3.205
48265W        W16670   8.714  31.654  11.626
48266W        W16671  29.557  11.928   2.876
48267W        W16672  32.054  37.828  13.839
48268W        W16673  37.008  33.007  13.839
48269W        W16674  10.607  11.805   4.231
48270W        W16675  11.133  33.080  12.117
48271W        W16676  21.725  12.889  14.429
48272W        W16677  22.497   9.087  11.625
48273W        W16678  19.996  24.522   3.202
48274W        W16679   2.473  43.886   0.062
48275W        W16680  22.451  38.290   4.184
48276W        W16681   8.176  22.203   2.983
48277W        W16682  10.218  35.726   2.106
48278W        W16683  10.295  39.927   1.906
48279W        W16684   1.156  22.576  14.439
48280W        W16685  18.373   5.254   0.806
48281W        W16686  27.572  38.749   5.439
48282W        W16687  14.936  24.080  11.215
48283W        W16688  42.089  25.694   3.316
48284W        W16689  15.256  36.333  10.837
48285W        W16690  10.580  37.231  12.117
48286W        W16691  11.306  28.683   2.191
48287W        W16692   4.839   1.262  10.658
48288W        W16693  19.790  12.379  11.901
48289W        W16694  34.500  30.085  14.247
48290W        W16695  31.589  32.114   3.298
48291W        W16696  16.113   2.829   0.256
48292W        W16697  33.652  40.348  11.587
48293W        W16698  15.149  19.603  13.044
48294W        W16699  15.550  19.605  12.115
48295W        W16700  17.702   1.703   2.827
48296W        W16701  22.601   2.592   3.385
48297W        W16702  43.536   2.702   4.651
48298W        W16703  28.603  21.235  14.047
48299W        W16704   3.980  25.730   1.697
48300W        W16705  21.993  25.405   3.816
48301W        W16706   4.682  42.057  12.588
48302W        W16707  36.011  14.186  14.753
48303W        W16708  14.577   9.335  13.511
48304W        W16709  38.300  31.787   4.187
48305W        W16710  40.926  18.130  11.164
48306W        W16711   9.691  32.954   3.658
48307W        W16712  19.562  13.476  12.369
48308W        W16713  32.141   8.726   4.550
48309W        W16714  10.634   1.467   2.133
48310W        W16715  22.790  11.175   1.261
48311W        W16716  42.631   7.783   4.519
48312W        W16717  21.014  19.381  10.366
48313W        W16718  42.625  32.071  11.606
48314W        W16719  40.319  13.677   2.468
48315W        W16720  14.197   7.260   2.620
48316W        W16721  42.893  21.918   4.241
48317W        W16722  18.958  16.737  13.066
48318W        W16723   2.455  26.547  11.341
48319W        W16724   4.330  34.845  13.844
48320W        W16725  17.035  38.086   2.254
48321W        W16726  40.709  43.644  12.894
48322W        W16727  38.418  42.990   1.334
48323W        W16728  40.254  42.183  13.899
48324W        W16729  27.559  39.505   2.695
48325W        W16730  16.222  33.999  10.978
48326W        W16731  18.612   7.957  12.557
48327W        W16732  29.752   5.750  11.619
48328W        W16733  26.633  26.474  14.778
48329W        W16734  42.074  23.119   4.173
48330W        W16735  23.820  24.763   3.630
48331W        W16736  13.866  40.261  12.882
48332W        W16737   7.647  42.670  13.513
48333W        W16738  38.276   3.117   3.199
48334W        W16739  38.340  39.921   3.577
48335W        W16740  21.090  38.685  13.057
48336W        W16741  32.358  25.524   0.051
48337W        W16742   7.401   9.119  14.822
48338W        W16743  27.994   0.085   1.516
48339W        W16744  30.663  44.561  12.548
48340W        W16745  43.704  24.046  12.438
48341W        W16746  23.139  38.923   4.552
48342W        W16747  27.166  34.102  13.017
48343W        W16748  29.656  27.979   3.277
48344W        W16749  26.554  31.958   3.025
48345W        W16750  42.204  24.404  11.127
48346W        W16751  10.619  12.078  12.085
48347W        W16752  39.384  19.293   0.471
48348W        W16753  20.301  44.521   3.747
48349W        W16754   8.585  31.167  11.916
48350W        W16755  12.746  24.610  13.879
48351W        W16756  37.163   2.805   3.224
48352W        W16757  27.366  40.542  14.858
48353W        W16758   0.256  36.730   0.836
48354W        W16759  39.855  25.675  14.823
48355W        W16760  39.285  35.475  10.954
48356W        W16761  28.187  36.132  12.057
48357W        W16762  25.962   9.366  13.032
48358W        W16763  31.890  32.301   1.816
48359W        W16764  33.519  29.115   2.145
48360W        W16765  33.693   9.902  14.843
48361W        W16766  28.474   8.753  13.695
48362W        W16767  17.340  35.572  10.656
48363W        W16768  43.995  43.786   1.137
48364W        W16769  39.547  41.444   0.484
48365W        W16770  10.175   8.587  11.532
48366W        W16771  24.765   3.018   4.876
48367W        W16772  12.197   7.227   0.361
48368W        W16773  17.233  41.690  12.576
48369W        W16774  20.244  17.462   3.216
48370W        W16775  28.192  11.380  14.376
48371W        W16776  33.466  15.422   4.804
48372W        W16777  44.336  14.982   4.115
48373W        W16778  13.795  42.029   0.857
48374W        W16779  41.985   8.777  12.828
48375W        W16780   5.742  32.194  13.524
48376W        W16781  41.569  37.162  13.881
48377W        W16782   7.335  16.511  14.763
48378W        W16783  36.547  23.455  14.282
48379W        W16784  20.709  40.508  12.265
48380W        W16785  42.293  18.003  14.317
48381W        W16786  44.477   4.231   1.938
48382W        W16787  10.785  16.692   0.969
48383W        W16788  39.343  16.012   1.281
48384W        W16789   6.320  22.476  12.918
48385W        W16790  19.094  27.444   4.777
48386W        W16791  37.460  16.679   0.459
48387W        W16792  30.105  42.189   3.594
48388W        W16793  10.337  39.066   4.574
48389W        W16794  30.651  17.520   1.434
48390W        W16795  17.254  34.428  14.570
48391W        W16796  15.417   7.517   4.370
48392W        W16797  37.881  16.849   0.096
48393W        W16798  21.906   9.167   0.528
48394W        W16799  23.516  33.505   3.256
48395W        W16800  35.840  13.834   2.304
48396W        W16801  25.501   0.398  13.019
48397W        W16802   6.784   3.415  12.479
48398W        W16803  37.837  10.690  13.318
48399W        W16804  32.020   4.782   4.963
48400W        W16805  31.892   5.174  14.896
48401W        W16806  22.008  19.720   0.248
48402W        W16807   7.828  12.110  13.816
48403W        W16808  36.550  37.627   0.325
48404W        W16809  25.158  35.340  10.851
48405W        W16810  41.584  22.698  13.910
48406W        W16811  36.877   1.506  14.841
48407W        W16812  31.503  34.632   1.777
48408W        W16813   5.949   8.146  11.941
48409W        W16814  20.692  22.465   4.507
48410W        W16815  44.740   4.419   0.824
48411W        W16816  22.594   5.229   3.464
48412W        W16817  28.620  25.399  10.771
48413W        W16818  11.908   9.755   1.786
48414W        W16819  30.748  14.252   1.354
48415W        W16820   7.418  44.392   0.708
48416W        W16821  12.941  36.221   2.489
48417W        W16822  14.945  27.431   0.914
48418W        W16823  27.976  24.023  13.096
48419W        W16824  18.787   4.757  10.871
48420W        W16825  29.181  32.578   3.785
48421W        W16826  37.369  21.516  11.374
48422W        W16827  42.099   2.100  11.097
48423W        W16828  29.534  31.686  12.960
48424W        W16829   3.750   2.876   0.730
48425W        W16830   4.436   7.164   4.075
48426W        W16831   3.050  24.316   1.882
48427W        W16832  25.536  43.522  13.092
48428W        W16833  10.699  34.454  12.146
48429W        W16834   6.160  38.949   1.686
48430W        W16835   3.480  33.875  13.851
48431W        W16836   3.455  35.922  13.996
48432W        W16837   5.347  35.439  11.902
48433W        W16838  32.489  18.562   2.424
48434W        W16839   7.225   9.980  14.708
48435W        W16840  26.728  12.338   3.684
48436W        W16841  19.705  37.011   1.792
48437W        W16842  14.453   7.702   4.542
48438W        W16843   3.698   1.368  14.000
48439W        W16844  26.534  41.699  14.783
48440W        W16845  36.822  11.545  14.472
48441W        W16846   2.528  25.602   0.223
48442W        W16847  31.665  39.556  13.283
48443W        W16848  28.362  33.569  13.941
48444W        W16849  21.041  35.626   0.180
48445W        W16850   0.054  35.116  12.479
48446W        W16851  31.289  15.609  14.915
48447W        W16852  41.320  20.157  14.993
48448W        W16853  35.184  39.411   1.872
48449W        W16854  42.233  42.760  11.019
48450W        W16855   5.690  31.980   3.329
48451W        W16856  33.339   0.747   0.460
48452W        W16857  11.678   6.862  13.297
48453W        W16858  43.428   8.918   4.157
48454W        W16859  14.763  41.935   5.048
48455W        W16860  30.947   6.358  12.534
48456W        W16861   3.050  31.481  12.914
48457W        W16862  24.939  34.293   1.418
48458W        W16863  10.735  38.180  12.588
48459W        W16864   6.455  40.766  12.992
48460W        W16865   7.071  18.029   4.329
48461W        W16866  30.116  29.580  14.921
48462W        W16867  31.024  15.673   5.090
48463W        W16868  30.361  37.903  11.686
48464W        W16869   8.157  21.597   1.935
48465W        W16870  15.754  22.546  13.964
48466W        W16871  35.857  35.308  10.587
48467W        W16872   5.275  37.317  10.017
48468W        W16873  23.697  26.683   1.598
48469W        W16874  24.154  23.679   4.594
48470W        W16875  25.680  10.288   4.966
48471W        W16876  29.257  36.906   3.091
48472W        W16877  30.001  43.940  14.892
48473W        W16878   9.879  24.157   4.738
48474W        W16879  26.640   4.020   3.190
48475W        W16880  22.924  32.358   3.155
48476W        W16881   5.169  29.489   1.684
48477W        W16882  26.033  16.113  10.719
48478W        W16883   0.322   1.125  11.920
48479W        W16884   7.863  24.660  13.142
48480W        W16885  44.868  23.474   1.413
48481W        W16886  36.369  11.344   2.260
48482W        W16887  37.876  17.413  10.678
48483W        W16888  30.453  24.669  10.700
48484W        W16889   8.808   1.412  11.532
48485W        W16890   8.596  28.459   0.416
48486W        W16891   0.165   9.366  11.607
48487W        W16892  24.452  12.086   4.765
48488W        W16893  19.259   9.823   1.264
48489W        W16894   1.694  42.965  14.001
48490W        W16895  29.658  43.316  13.098
48491W        W16896  28.924   3.996   1.897
48492W        W16897   2.404  41.989  14.400
48493W        W16898  10.839  25.716  14.013
48494W        W16899  40.454  41.050  11.311
48495W        W16900   6.753  44.541   1.468
48496W        W16901  14.309  44.606   2.193
48497W        W16902  14.338  14.774  11.093
48498W        W16903   1.570  17.843  13.414
48499W        W16904  17.317   9.228   4.603
48500W        W16905  17.610  21.778  12.189
48501W        W16906  30.081   7.234   2.915
48502W        W16907   5.437  30.405  13.922
48503W        W16908  32.180   8.242  10.744
48504W        W16909   9.291  42.423   4.864
48505W        W16910  32.833  11.371  11.805
48506W        W16911  41.725  32.074   2.810
48507W        W16912  22.848   7.163   4.318
48508W        W16913  34.061  10.141   2.154
48509W        W16914   3.004  23.483  10.703
48510W        W16915  17.651  40.573   1.445
48511W        W16916  10.807   3.882  13.627
48512W        W16917   4.724  29.624   3.779
48513W        W16918  17.530  35.782   4.272
48514W        W16919  30.639   4.497   2.108
48515W        W16920  43.565  35.608   3.366
48516W        W16921  31.023  44.847  12.950
48517W        W16922  27.273  28.868   1.302
48518W        W16923  29.420  33.029  12.725
48519W        W16924  38.327  44.319  14.478
48520W        W16925   2.492  32.974   3.882
48521W        W16926  34.370  19.094   1.999
48522W        W16927  44.439  34.340   3.494
48523W        W16928  44.503   6.753  11.372
48524W        W16929  42.349  11.800  10.689
48525W        W16930  30.070  20.748  10.960
48526W        W16931  41.496  18.692   0.713
48527W        W16932  42.260  20.014   2.765
48528W        W16933  28.047   2.422   0.939
48529W        W16934   9.250  32.714  11.949
48530W        W16935  28.403   8.863  10.231
48531W        W16936  17.751  36.024   1.836
48532W        W16937  21.973  19.509  10.750
48533W        W16938  42.390  38.323  11.613
48534W        W16939  44.691  28.048  14.518
48535W        W16940  31.507   0.012  14.875
48536W        W16941  37.849  33.398   2.725
48537W        W16942  38.938  44.934  11.504
48538W        W16943  28.830  43.450  13.455
48539W        W16944  20.888  40.970   0.429
48540W        W16945  20.511   5.856  11.390
48541W        W16946  24.072   2.491   0.753
48542W        W16947  35.926   4.780   1.653
48543W        W16948  35.558  28.068  13.563
48544W        W16949  17.636  14.851  10.414
48545W        W16950  23.254   9.356   3.752
48546W        W16951  39.723  15.311  11.582
48547W        W16952  20.716  30.014   3.419
48548W        W16953  14.214  43.262  11.296
48549W        W16954  28.922   2.593   4.582
48550W        W16955  22.506  21.376   0.376
48551W        W16956  19.567  27.087  12.355
48552W        W16957  29.078  29.841  10.782
48553W        W16958  27.513   8.912  12.451
48554W        W16959  11.627  33.144   0.340
48555W        W16960  31.600   3.161   2.272
48556W        W16961  11.642  28.450   2.727
48557W        W16962   7.915  31.674   3.316
48558W        W16963  13.736  27.173   3.736
48559W        W16964  12.142   9.781  11.318
48560W        W16965   9.451  38.101   2.549
48561W        W16966  14.244  18.837   5.103
48562W        W16967  28.959  31.062   0.748
48563W        W16968  33.158  37.266   4.607
48564W        W16969  14.116   9.859   1.737
48565W        W16970  20.090   1.401   3.367
48566W        W16971  15.180  42.599  13.909
48567W        W16972   5.303  42.020   3.623
48568W        W16973   9.340  34.245  11.507
48569W        W16974  12.136  24.518   3.943
48570W        W16975  32.966  25.982   4.879
48571W        W16976  32.754   8.117  13.467
48572W        W16977  35.011   5.709  14.414
48573W        W16978  32.765  12.797   3.159
48574W        W16979  17.571  21.244  10.076
48575W        W16980   2.583   2.001   0.863
48576W        W16981   8.665  24.088   4.019
48577W        W16982   4.171  36.015  14.383
48578W        W16983  24.161  30.387   1.765
48579W        W16984  25.258  15.849  11.186
48580W        W16985  32.334  16.049  12.200
48581W        W16986  38.036  30.517  14.470
48582W        W16987  19.128  20.826  12.120
48583W        W16988  21.289  15.491  12.099
48584W        W16989   5.853   8.826   3.185
48585W        W16990   1.050  19.362   3.034
48586W        W16991  10.253  20.214   1.926
48587W        W16992  35.533  11.706   1.383
48588W        W16993  29.121  16.979   1.838
48589W        W16994   4.608  38.809   2.781
48590W        W16995  10.768   9.194   3.399
48591W        W16996  33.345  43.330   0.359
48592W        W16997   3.342  34.210  14.756
48593W        W16998  15.613   6.170   2.652
48594W        W16999  35.489  26.670  12.646
48595W        W17000  27.026  22.219  12.448
48596W        W17001   1.955  34.864  11.503
48597W        W17002  37.555  19.566   3.617
48598W        W17003  31.072  12.685   4.572
48599W        W17004  18.303  28.681   3.239
48600W        W17005  37.500  33.051   4.251
48601W        W17006  26.485   1.287  11.981
48602W        W17007  13.767  21.020  14.969
48603W        W17008  32.032   3.137  10.593
48604W        W17009  27.134   5.078  14.762
48605W        W17010  27.809  22.494   3.199
48606W        W17011  30.947  19.167   9.746
48607W        W17012  42.908   8.209   4.436
48608W        W17013  20.684  25.185   0.969
48609W        W17014  30.954  40.477   4.416
48610W        W17015  36.895   0.815   2.764
48611W        W17016   9.256  23.898   0.835
48612W        W17017   1.509  21.621   0.890
48613W        W17018   7.506  38.022   1.426
48614W        W17019  13.272  43.786   2.339
48615W        W17020  19.348   7.243   3.688
48616W        W17021  18.658  29.453   4.332
48617W        W17022  14.785  19.241   1.363
48618W        W17023   4.509   5.661   2.123
48619W        W17024  29.564  12.911   3.180
48620W        W17025  16.632  33.508   2.692
48621W        W17026  36.094  34.364  14.997
48622W        W17027  39.635  30.959   2.431
48623W        W17028  18.068  32.849   0.222
48624W        W17029  18.521  38.435  14.389
48625W        W17030  43.575  34.789   0.966
48626W        W17031  43.717  41.215   3.179
48627W        W17032  17.265  32.000  12.505
48628W        W17033  42.577  22.898   4.101
48629W        W17034  12.841   0.769  12.055
48630W        W17035   2.037  39.765  10.907
48631W        W17036  36.410  24.515  12.597
48632W        W17037  35.541   4.758   1.304
48633W        W17038  24.436  19.859   3.712
48634W        W17039  18.693  19.997  10.605
48635W        W17040   6.685   3.839   1.380
48636W        W17041  23.019   6.722   3.837
48637W        W17042   9.166  13.537   0.928
48638W        W17043  21.043  35.314  11.386
48639W        W17044   6.272  17.172  12.650
48640W        W17045   8.841   3.775   1.873
48641W        W17046   0.050  42.954   2.205
48642W        W17047   0.968  21.167  14.369
48643W        W17048  33.513   3.775  14.282
48644W        W17049  29.461  14.920  12.877
48645W        W17050  18.643   3.374  14.791
48646W        W17051  40.764   5.341   5.061
48647W        W17052  12.524   4.283  10.697
48648W        W17053  41.302  20.849   0.581
48649W        W17054  38.106  25.020  10.534
48650W        W17055   3.673  16.704  10.725
48651W        W17056  25.955  22.242  14.686
48652W        W17057  15.233  11.971   4.394
48653W        W17058  33.069  14.498   0.986
48654W        W17059  31.287  24.954   1.873
48655W        W17060  32.999  25.220   3.155
48656W        W17061  32.457  22.738  14.459
48657W        W17062   0.555  10.286  11.371
48658W        W17063  28.982  28.945  10.975
48659W        W17064  20.621  13.560   0.876
48660W        W17065  44.621   7.560   2.298
48661W        W17066  16.255  29.927  13.472
48662W        W17067  17.769  36.895   3.293
48663W        W17068  37.828  35.045   1.412
48664W        W17069   1.611  33.653   1.401
48665W        W17070  27.808   0.828   1.813
48666W        W17071  22.995  31.658  12.027
48667W        W17072  29.682   9.224   3.081
48668W        W17073  40.527  32.743   4.850
48669W        W17074  14.492  19.581  12.437
48670W        W17075   1.181  21.188   2.784
48671W        W17076  33.201  15.073   1.838
48672W        W17077  10.126  18.133   4.128
48673W        W17078  15.713   8.054  13.615
48674W        W17079   0.280  36.417  13.433
48675W        W17080  36.253  25.632   0.880
48676W        W17081  31.304  26.216  13.244
48677W        W17082   7.739   5.853   4.752
48678W        W17083  20.735  22.068  11.941
48679W        W17084  14.112  17.602   4.973
48680W        W17085  39.327  15.692  10.647
48681W        W17086  21.054  32.029  14.358
48682W        W17087  24.676  26.956  10.501
48683W        W17088  17.434  18.735  13.985
48684W        W17089   9.278   4.438  11.077
48685W        W17090  28.633  19.053   1.789
48686W        W17091  38.495  38.407   4.644
48687W        W17092  18.271   2.446  14.067
48688W        W17093  42.383  19.021   0.815
48689W        W17094  14.873  16.540  12.008
48690W        W17095   1.840  29.469   2.938
48691W        W17096  12.769  15.477   3.615
48692W        W17097  41.871  39.263   1.710
48693W        W17098  21.878  35.156   4.331
48694W        W17099  26.989   7.393  13.402
48695W        W17100  32.571  36.234  11.579
48696W        W17101  16.123  39.469  14.285
48697W        W17102   3.935  20.821   2.285
48698W        W17103  41.045  28.677  13.487
48699W        W17104  24.018  40.369  12.791
48700W        W17105  35.107   7.485  14.899
48701W        W17106   7.825   6.853  10.711
48702W        W17107  25.573  30.014   2.565
48703W        W17108  26.748  22.553   1.289
48704W        W17109   4.950   4.484   3.680
48705W        W17110  42.703  38.498   3.292
48706W        W17111  17.626  15.816  10.811
48707W        W17112  39.665  23.180   2.711
48708W        W17113  15.807  43.864   4.106
48709W        W17114  35.184  44.249  10.132
48710W        W17115   2.804  38.772  12.086
48711W        W17116  34.093  18.574   2.127
48712W        W17117  31.599  26.282  12.285
48713W        W17118  24.232  17.417   2.837
48714W        W17119  25.769  33.599   5.097
48715W        W17120  19.997  14.203   3.136
48716W        W17121  43.955  13.408  14.360
48717W        W17122  38.602  31.635   3.813
48718W        W17123  43.582  10.451  14.460
48719W        W17124  41.741  27.927  14.256
48720W        W17125  32.403   2.036   1.772
48721W        W17126  28.299  38.805   4.137
48722W        W17127   0.736   1.011  14.257
48723W        W17128   1.264  11.579  11.899
48724W        W17129   9.705   0.810   3.108
48725W        W17130  36.793  26.364  10.760
48726W        W17131  16.707   7.429  13.961
48727W        W17132  30.917  40.814   0.913
48728W        W17133  19.569  11.391  14.420
48729W        W17134  16.606  17.071   4.266
48730W        W17135  23.033  43.392  11.591
48731W        W17136  30.467  23.613   1.966
48732W        W17137  31.376  20.209  11.189
48733W        W17138  31.411   4.550  12.559
48734W        W17139   0.782  40.580  14.360
48735W        W17140   3.227  26.747  13.445
48736W        W17141  32.232   8.691   0.637
48737W        W17142  42.320  19.653  12.982
48738W        W17143  40.952  26.391   1.439
48739W        W17144  16.122   0.676   1.800
48740W        W17145  13.385  43.521  14.084
48741W        W17146  24.228  10.826   4.658
48742W        W17147  12.893  12.728   4.638
48743W        W17148  30.520  19.730  10.900
48744W        W17149  28.433   9.877   2.163
48745W        W17150  36.514  35.643  12.600
48746W        W17151  26.691  42.369  10.750
48747W        W17152  37.540  37.367   0.436
48748W        W17153  22.663  15.543   1.376
48749W        W17154  31.563  23.546  12.739
48750W        W17155   8.681   0.027   3.330
48751W        W17156   2.152   6.415  13.025
48752W        W17157   6.998  29.640   9.941
48753W        W17158  43.364   3.768  14.957
48754W        W17159  10.932  20.345  10.700
48755W        W17160  30.828  35.834   5.065
48756W        W17161  18.127   1.975   2.099
48757W        W17162   0.442   0.137  12.009
48758W        W17163  35.501   1.008  12.815
48759W        W17164   5.225  43.280  10.942
48760W        W17165  37.067  39.750   3.281
48761W        W17166   2.945  22.558   2.388
48762W        W17167  14.778  20.802   3.289
48763W        W17168  13.747  39.523  10.509
48764W        W17169   0.871   6.626  14.890
48765W        W17170  33.577  24.014   0.878
48766W        W17171  40.056  14.913  11.429
48767W        W17172  26.190  24.406  11.675
48768W        W17173  31.671  44.933   3.228
48769W        W17174   1.264  43.281  11.941
48770W        W17175  16.420   8.993  12.865
48771W        W17176  16.904  13.095   3.696
48772W        W17177   5.830  11.354   4.051
48773W        W17178  15.624   6.590  11.688
48774W        W17179  24.031   8.791  13.489
48775W        W17180  43.886   7.301  11.835
48776W        W17181  12.356  44.907  12.037
48777W        W17182  21.760   9.075   1.853
48778W        W17183  17.821  33.542   3.696
48779W        W17184  44.785  30.946   4.541
48780W        W17185  36.290  34.016  10.650
48781W        W17186  24.719   9.725   4.198
48782W        W17187  24.726  27.953   4.550
48783W        W17188  24.215   5.470  13.435
48784W        W17189   7.339  10.502   4.480
48785W        W17190  21.039   0.819   0.029
48786W        W17191   7.141  25.013   2.349
48787W        W17192   6.894  25.533  12.607
48788W        W17193  44.506   6.395   3.576
48789W        W17194  19.606  30.760  10.779
48790W        W17195   6.861  39.016  14.777
48791W        W17196   8.623  25.771   3.636
48792W        W17197   4.812  25.089   3.895
48793W        W17198   9.670   5.654  13.126
48794W        W17199   5.421  40.993  11.655
48795W        W17200  11.050  30.607  14.951
48796W        W17201  11.821  36.441   1.209
48797W        W17202  29.059  13.163  13.492
48798W        W17203  23.115   2.611   2.364
48799W        W17204  23.657  18.947  12.454
48800W        W17205  35.853  19.712   2.614
48801W        W17206  39.857  28.920  11.812
48802W        W17207  10.560  27.544  13.018
48803W        W17208  39.810   3.414   3.197
48804W        W17209  23.732  30.703  14.982
48805W        W17210  12.812  19.617   2.332
48806W        W17211  42.980   3.525  14.722
48807W        W17212  18.241   9.846   2.389
48808W        W17213  22.723   4.600  11.367
48809W        W17214  12.871   8.280  12.137
48810W        W17215   4.447  42.460   1.587
48811W        W17216  36.491  21.180  14.565
48812W        W17217  15.738  44.002   3.194
48813W        W17218  15.882  44.789  14.311
48814W        W17219  42.528  28.479  13.357
48815W        W17220  13.893   6.391   0.767
48816W        W17221  32.145  18.664   4.627
48817W        W17222   1.991  35.543   4.080
48818W        W17223  11.290   6.412   2.764
48819W        W17224  19.520  10.235   3.680
48820W        W17225  16.157  24.118   4.461
48821W        W17226  20.575   1.435   3.209
48822W        W17227  21.568  29.109  10.368
48823W        W17228   6.299  11.076   3.332
48824W        W17229  15.583  25.524   3.779
48825W        W17230  17.280  40.392  10.679
48826W        W17231  10.885  42.492  12.006
48827W        W17232  18.537  40.476   0.892
48828W        W17233  41.076  30.858   0.747
48829W        W17234  21.190  17.172  12.494
48830W        W17235  21.893  38.981   3.685
48831W        W17236   0.316  25.431   4.637
48832W        W17237  40.563  36.413  13.082
48833W        W17238  19.321  12.430  14.838
48834W        W17239  22.273  32.126  10.710
48835W        W17240  40.135  31.437  14.881
48836W        W17241  31.156  37.271   3.326
48837W        W17242  40.548   8.876   1.329
48838W        W17243  23.205  22.495   1.732
48839W        W17244  24.220   8.313  12.070
48840W        W17245  35.096  30.156   2.144
48841W        W17246  38.750  25.156  11.645
48842W        W17247  24.262  34.371   1.723
48843W        W17248  36.401  35.598   2.244
48844W        W17249  13.393  33.551  14.039
48845W        W17250   1.433   2.046  12.971
48846W        W17251  20.528  28.165   0.477
48847W        W17252  21.985  35.501  13.401
48848W        W17253  27.244  26.621   0.185
48849W        W17254  36.351  42.326   3.184
48850W        W17255  34.571  11.036  14.979
48851W        W17256  21.089   4.216   3.283
48852W        W17257  16.687  40.568   1.391
48853W        W17258   2.801   5.886  11.463
48854W        W17259   0.353   9.747  14.908
48855W        W17260  34.106   3.815   4.182
48856W        W17261  13.948   8.657   1.723
48857W        W17262  43.380  11.670   3.685
48858W        W17263  28.878  33.641  13.932
48859W        W17264  39.418   1.712  10.333
48860W        W17265  22.289  38.655  13.860
48861W        W17266  37.077  10.198   0.840
48862W        W17267  38.341   6.816   1.991
48863W        W17268   0.399   9.208  11.188
48864W        W17269  38.959  15.100   3.387
48865W        W17270  32.978  22.741  13.461
48866W        W17271  17.538  18.518  12.103
48867W        W17272  37.806  28.005   0.888
48868W        W17273  15.850  34.837  14.600
48869W        W17274  43.444  15.173   4.673
48870W        W17275  20.049  18.147   1.133
48871W        W17276  12.213   2.150   1.133
48872W        W17277  33.565   1.282  13.677
48873W        W17278  40.474  11.336   4.823
48874W        W17279   4.611  33.367  13.548
48875W        W17280  14.863  37.449  13.111
48876W        W17281  29.427  39.259   2.398
48877W        W17282  41.033   3.714   1.385
48878W        W17283  17.036  21.759   0.128
48879W        W17284  41.761   1.797   2.673
48880W        W17285   9.550   3.079  14.522
48881W        W17286  44.134  33.167  14.822
48882W        W17287  41.679   6.873   1.494
48883W        W17288  11.736  28.033   3.673
48884W        W17289  20.201   6.894  14.971
48885W        W17290  14.416  24.980   1.008
48886W        W17291  27.725   8.920  10.641
48887W        W17292  42.443  15.238  13.382
48888W        W17293   1.255  15.085   0.254
48889W        W17294  16.267  36.373   3.736
48890W        W17295   3.184   5.899  14.551
48891W        W17296   1.296  30.087  14.467
48892W        W17297  20.522  12.295  10.628
48893W        W17298  44.363   8.389   2.109
48894W        W17299  43.472  20.780  14.046
48895W        W17300  22.583   7.949   0.004
48896W        W17301  31.553  16.649  13.350
48897W        W17302  20.033  17.600  11.067
48898W        W17303   5.810  10.784  13.363
48899W        W17304   9.772  31.626  13.963
48900W        W17305   3.761  11.326   1.329
48901W        W17306   5.709   7.910  12.790
48902W        W17307  12.365  36.454  13.483
48903W        W17308  18.523   2.521   1.492
48904W        W17309  35.468  25.993   0.058
48905W        W17310  37.145   7.395   2.807
48906W        W17311   5.152  39.882   1.992
48907W        W17312   2.527   7.287  12.545
48908W        W17313  32.879   9.599   4.239
48909W        W17314  39.910   9.129   3.951
48910W        W17315  20.854  11.725  13.353
48911W        W17316  23.054   1.230  12.010
48912W        W17317   5.550  39.002  11.998
48913W        W17318  40.446  42.894   4.192
48914W        W17319   3.700  42.560  14.320
48915W        W17320  42.586  37.665   0.714
48916W        W17321  36.285  19.726   0.721
48917W        W17322  36.032  39.768  13.941
48918W        W17323  42.825  27.487  11.196
48919W        W17324  12.932  31.099   1.294
48920W        W17325  27.640  24.230   5.072
48921W        W17326  18.839  12.191   2.503
48922W        W17327   3.395  11.269   4.340
48923W        W17328   5.692  26.033   4.536
48924W        W17329  13.234  26.878  12.266
48925W        W17330  25.320  32.315   1.736
48926W        W17331   7.760  22.005   0.323
48927W        W17332  12.559   0.978   1.724
48928W        W17333  33.858   8.077  10.526
48929W        W17334  44.919   9.842   2.490
48930W        W17335  33.333  13.658   0.752
48931W        W17336  33.966  29.652   2.961
48932W        W17337  30.530  39.848  10.759
48933W        W17338  14.419  24.095  11.160
48934W        W17339  24.253  10.366   1.817
48935W        W17340  16.842  43.375  14.599
48936W        W17341  23.473   1.367  12.316
48937W        W17342  23.771   1.244  14.472
48938W        W17343   6.820  11.497   3.309
48939W        W17344  28.151  32.856  12.079
48940W        W17345  34.331   1.029   2.541
48941W        W17346  15.727   9.208   2.799
48942W        W17347  29.166  23.516  12.890
48943W        W17348  24.302  25.689  14.940
48944W        W17349  24.062  24.968   0.469
48945W        W17350  21.139  32.506   2.146
48946W        W17351  14.220  34.710  10.143
48947W        W17352  40.581  14.898  11.550
48948W        W17353  40.947  10.491  12.057
48949W        W17354   7.272  37.023   1.619
48950W        W17355   8.259  12.102   3.724
48951W        W17356  43.416  14.669  12.327
48952W        W17357  15.049   5.040  13.880
48953W        W17358  17.652   0.011   4.908
48954W        W17359  18.962  27.511   2.039
48955W        W17360  37.329  22.831   3.995
48956W        W17361  17.529  15.753  11.700
48957W        W17362  39.533  43.419   3.872
48958W        W17363  34.582  41.233  14.729
48959W        W17364  32.707  38.525  12.906
48960W        W17365  37.024  41.604  13.353
48961W        W17366  38.554  43.447   3.940
48962W        W17367  14.778  31.389   1.175
48963W        W17368  13.384  35.815  14.428
48964W        W17369  25.406   3.849   1.917
48965W        W17370  22.604  17.405  11.459
48966W        W17371  42.112  32.672   1.918
48967W        W17372  44.876  15.114   2.335
48968W        W17373   4.755  26.523  13.120
48969W        W17374  29.062  30.113   0.660
48970W        W17375  20.601  14.226   4.423
48971W        W17376   6.897  11.546  11.433
48972W        W17377  21.378  38.860   1.612
48973W        W17378  28.898  10.696   1.329
48974W        W17379  24.043  10.607   2.284
48975W        W17380  35.347  18.565  14.303
48976W        W17381  15.857   1.002   3.336
48977W        W17382  10.216  17.811  12.929
48978W        W17383  13.613  36.598  11.184
48979W        W17384  36.030  14.320   3.248
48980W        W17385  23.622  17.649   2.710
48981W        W17386  18.021   2.471   1.365
48982W        W17387   8.207   1.034  13.591
48983W        W17388  10.383  35.576  14.730
48984W        W17389  26.568  14.337   4.964
48985W        W17390  26.593  15.816  14.470
48986W        W17391  37.050  38.842  13.050
48987W        W17392  31.204   3.066   1.966
48988W        W17393   2.920   7.845   1.902
48989W        W17394  18.664  29.235   2.786
48990W        W17395  39.801  17.698  11.629
48991W        W17396  39.791   3.279   0.390
48992W        W17397  34.863   4.609  10.613
48993W        W17398  31.100  34.060  12.123
48994W        W17399   4.627  37.429  13.323
48995W        W17400  19.841   7.605  12.000
48996W        W17401  42.223  29.101   4.121
48997W        W17402  33.090  33.467   3.434
48998W        W17403  23.437  11.988   2.147
48999W        W17404   5.925  35.881  11.940
49000W        W17405   8.570  20.968   3.723
49001W        W17406  26.178   0.310  12.957
49002W        W17407  30.966   6.856   3.378
49003W        W17408  36.570  12.856  13.251
49004W        W17409  24.468   0.809  11.569
49005W        W17410  38.733  18.250   2.649
49006W        W17411  24.678  14.646  14.970
49007W        W17412  44.958  36.529   3.373
49008W        W17413  43.897  43.824  11.136
49009W        W17414   4.554  13.271  11.547
49010W        W17415  11.615  35.921   1.286
49011W        W17416  13.134  12.876  11.555
49012W        W17417  17.102   5.246   3.883
49013W        W17418  25.976  30.483   2.275
49014W        W17419   4.072  17.122   1.436
49015W        W17420  20.483  12.237   0.980
49016W        W17421   4.500   5.712   4.041
49017W        W17422  19.023  44.805   1.469
49018W        W17423  20.140   9.787   0.462
49019W        W17424  44.287  13.933  11.120
49020W        W17425   4.858  27.508  14.309
49021W        W17426  34.746  39.415   0.018
49022W        W17427  11.743  35.403  11.615
49023W        W17428  24.474  33.374  11.655
49024W        W17429  27.834  28.750   0.871
49025W        W17430  11.792  34.008  14.525
49026W        W17431  22.740  37.467  10.274
49027W        W17432  32.356   9.046  11.430
49028W        W17433   5.343  38.793  14.383
49029W        W17434  15.276  33.136   1.851
49030W        W17435   7.777  17.510   3.689
49031W        W17436  32.261  22.739   2.533
49032W        W17437  17.240  34.564   9.975
49033W        W17438  17.932  14.409   2.687
49034W        W17439  14.945  17.709   3.128
49035W        W17440   0.819  40.953   2.650
49036W        W17441  37.470  39.673  11.332
49037W        W17442  39.030  25.700   2.749
49038W        W17443  42.982  36.919   0.308
49039W        W17444  44.762   9.276  11.894
49040W        W17445   7.264  41.060   1.212
49041W        W17446   9.994  43.558   4.258
49042W        W17447  29.032  32.153   1.811
49043W        W17448  41.980  26.226  14.001
49044W        W17449  19.376  37.765  11.305
49045W        W17450   8.314   5.985  13.394
49046W        W17451  18.793  38.945   3.255
49047W        W17452  28.939  37.215  13.852
49048W        W17453  42.324  43.723   3.547
49049W        W17454  34.945  36.995  10.589
49050W        W17455  27.126  35.421   0.933
49051W        W17456   3.138  25.087  11.052
49052W        W17457  28.200  35.593  10.674
49053W        W17458  15.379   6.119   3.862
49054W        W17459  22.051  12.299   2.820
49055W        W17460  30.197   0.320   4.438
49056W        W17461  38.711  35.447   1.671
49057W        W17462  39.087  28.279   1.303
49058W        W17463  32.495  44.263   2.638
49059W        W17464  44.837  35.346   1.341
49060W        W17465  21.139  11.850   3.702
49061W        W17466   1.488  37.916   0.697
49062W        W17467   7.666  39.334  13.399
49063W        W17468   9.477  23.696  10.638
49064W        W17469  10.469  37.877  12.915
49065W        W17470  21.758  39.464   3.405
49066W        W17471  30.172  11.373  11.530
49067W        W17472  41.152   8.114  10.976
49068W        W17473   3.551  29.019   0.425
49069W        W17474  14.308  40.999   2.795
49070W        W17475  44.467   6.167  12.575
49071W        W17476  21.975  14.103   2.849
49072W        W17477  38.150  36.630  11.458
49073W        W17478  20.792  38.928  10.388
49074W        W17479  44.521  17.853  10.624
49075W        W17480  21.806  27.124  13.282
49076W        W17481  32.016  44.935  11.493
49077W        W17482  34.826   8.067  10.708
49078W        W17483  28.097  34.067  13.337
49079W        W17484  31.755  30.886  11.041
49080W        W17485  10.800   0.410  14.454
49081W        W17486  10.061   0.738   4.582
49082W        W17487  16.711  33.257   0.537
49083W        W17488  32.191  15.774  11.248
49084W        W17489   2.517   7.706  12.923
49085W        W17490   3.343  44.556  12.425
49086W        W17491   5.160  39.364   2.099
49087W        W17492   3.498  26.594   2.316
49088W        W17493  42.494  42.904   1.679
49089W        W17494  34.155  23.003  14.008
49090W        W17495   7.969  18.623   0.718
49091W        W17496  19.570  24.004   2.632
49092W        W17497  43.842   6.324   4.668
49093W        W17498   0.823  25.491  10.714
49094W        W17499  36.516   9.739   3.758
49095W        W17500   1.570   0.173  11.066
49096W        W17501  23.706   6.680  12.541
49097W        W17502   6.910  39.533  12.119
49098W        W17503  12.621  14.915  13.454
49099W        W17504  41.833   6.885  13.420
49100W        W17505  13.800  23.776  12.947
49101W        W17506  23.725   6.328   3.163
49102W        W17507  15.891  28.152   4.549
49103W        W17508  12.680  19.062  10.630
49104W        W17509  10.844   1.792  12.529
49105W        W17510   6.533  30.647  14.860
49106W        W17511  35.267   1.430  11.649
49107W        W17512  15.570  40.937   2.835
49108W        W17513  11.379  38.390  12.354
49109W        W17514   9.522  10.667   0.387
49110W        W17515   8.708  17.479   3.690
49111W        W17516  14.204  26.373  13.145
49112W        W17517   8.837  31.592  12.098
49113W        W17518   4.934  31.414   3.357
49114W        W17519  12.410  32.580   1.187
49115W        W17520  19.054  18.375   0.670
49116W        W17521  21.562  32.974  14.226
49117W        W17522  40.488  23.254   1.756
49118W        W17523   2.290  22.294  12.899
49119W        W17524   4.137  10.781   4.201
49120W        W17525   4.409  40.239  11.354
49121W        W17526  44.921  38.344   0.507
49122W        W17527  25.162  26.324   2.499
49123W        W17528  23.964   2.280   2.863
49124W        W17529  15.578  23.096  10.288
49125W        W17530   0.943  41.307  14.842
49126W        W17531  14.136   6.935  13.514
49127W        W17532   5.410  43.820  12.524
49128W        W17533   0.703  33.460   4.613
49129W        W17534  33.537   9.380   4.746
49130W        W17535  24.175  39.816   3.664
49131W        W17536  26.390  15.154   2.251
49132W        W17537  37.132  34.850  13.528
49133W        W17538  32.522  17.527   2.087
49134W        W17539  33.898  27.634   4.558
49135W        W17540  32.980  35.652  10.969
49136W        W17541   5.760  21.226  14.422
49137W        W17542  22.619  12.331  14.423
49138W        W17543  32.351   7.205   4.552
49139W        W17544  14.696  10.912  14.451
49140W        W17545  37.295   0.539   1.413
49141W        W17546  21.588  14.825  14.396
49142W        W17547  41.797   7.578  12.318
49143W        W17548  30.662  13.227   3.683
49144W        W17549  30.906  30.349  10.398
49145W        W17550  13.086  13.817   4.123
49146W        W17551  27.186  13.768   3.958
49147W        W17552  43.741  17.257  14.194
49148W        W17553  42.001  35.831   3.349
49149W        W17554  43.386  32.824   0.869
49150W        W17555  19.316   8.650  10.930
49151W        W17556  16.305  24.644  12.117
49152W        W17557  41.737  24.573  11.932
49153W        W17558  36.506  29.517  11.597
49154W        W17559  31.645  26.150   5.064
49155W        W17560  29.031  27.599  12.084
49156W        W17561   2.486  23.526  12.439
49157W        W17562  28.093  44.574   2.368
49158W        W17563  42.953  22.661   0.333
49159W        W17564   6.468  25.268   0.906
49160W        W17565  43.778  20.186  11.632
49161W        W17566  17.612  42.081   2.692
49162W        W17567  44.431  20.270  12.516
49163W        W17568  24.493  14.875  10.750
49164W        W17569  24.006  30.302   4.755
49165W        W17570   3.967  23.059  13.409
49166W        W17571  29.154  37.350   0.912
49167W        W17572  36.503  12.984   1.749
49168W        W17573  34.290   3.772  12.505
49169W        W17574   5.732   6.498   0.311
49170W        W17575  28.943  31.587   0.970
49171W        W17576  39.033  27.356   0.460
49172W        W17577  11.767  38.948  14.868
49173W        W17578   2.067  10.330   5.056
49174W        W17579  32.705  33.666   2.633
49175W        W17580  34.598  27.935  11.177
49176W        W17581  24.575  15.919   3.208
49177W        W17582  28.226  41.545   2.871
49178W        W17583  30.740  29.446   0.718
49179W        W17584  21.297  35.672   3.241
49180W        W17585  37.853  33.254   1.485
49181W        W17586  43.054  18.884   4.631
49182W        W17587   8.429  11.252  12.969
49183W        W17588  41.788   3.424  10.091
49184W        W17589  20.701  37.939   0.824
49185W        W17590  39.587  25.601   3.691
49186W        W17591  39.028  41.416  10.543
49187W        W17592  13.441  32.862   9.812
49188W        W17593  12.623  37.024  12.972
49189W        W17594  40.263  30.201  14.472
49190W        W17595  19.797  42.621   1.439
49191W        W17596  23.167  22.321   3.279
49192W        W17597  39.562  23.687  14.433
49193W        W17598   4.461  31.431  10.514
49194W        W17599  15.807  24.511  12.077
49195W        W17600  29.303  27.364  14.083
49196W        W17601  13.367  37.497   0.107
49197W        W17602  30.468  20.060  14.778
49198W        W17603  25.262  19.656  11.115
49199W        W17604  42.839  37.848  14.378
49200W        W17605  31.690  36.044  13.705
49201W        W17606  24.565  34.698  11.201
49202W        W17607   1.612  24.973  13.323
49203W        W17608   9.259  29.118   4.075
49204W        W17609  17.217  38.971   2.227
49205W        W17610  44.853  17.732  12.532
49206W        W17611   1.213   2.565   3.195
49207W        W17612  32.348  15.885   4.502
49208W        W17613   4.154   5.434  12.173
49209W        W17614  25.266   3.348   3.676
49210W        W17615  19.120  11.251  13.036
49211W        W17616  30.674   0.751   1.705
49212W        W17617  27.480  42.979   2.921
49213W        W17618  34.798  33.347   4.113
49214W        W17619  15.821  30.661  12.825
49215W        W17620   6.788  39.455   0.926
49216W        W17621   4.424   0.353  11.623
49217W        W17622  26.538  35.996  10.713
49218W        W17623  38.839   2.117  13.462
49219W        W17624  38.809  35.176   0.018
49220W        W17625  14.047   3.251   2.505
49221W        W17626  22.651  33.551   0.436
49222W        W17627  21.098  31.273  11.127
49223W        W17628  19.600  26.523   4.677
49224W        W17629   3.782  38.431  11.979
49225W        W17630  15.240   3.307  11.715
49226W        W17631   1.804  42.976   4.486
49227W        W17632  32.497  38.491   4.788
49228W        W17633  14.249  31.374   2.449
49229W        W17634  25.592   8.290  12.188
49230W        W17635  43.927   8.846  14.874
49231W        W17636  21.268   9.032   1.888
49232W        W17637  44.348  25.783  12.360
49233W        W17638  28.642  40.307   0.798
49234W        W17639   3.956  31.867   3.620
49235W        W17640   3.626  29.767   4.641
49236W        W17641  19.564  20.370   2.600
49237W        W17642  16.774  13.381  13.225
49238W        W17643  37.105   2.944   4.232
49239W        W17644  31.651  19.175   0.528
49240W        W17645  22.025  27.975   3.918
49241W        W17646  38.033  44.718   0.866
49242W        W17647  30.822  38.509   3.537
49243W        W17648  37.508   9.595  14.537
49244W        W17649  44.016   1.697   2.475
49245W        W17650  11.684   7.633  10.414
49246W        W17651  18.042  36.289  12.778
49247W        W17652  14.342  29.913  11.919
49248W        W17653  41.966  17.164   4.394
49249W        W17654  13.092  40.823   4.497
49250W        W17655  37.115  13.033  12.384
49251W        W17656   2.543  19.553  12.497
49252W        W17657  44.358  29.278   0.930
49253W        W17658  20.497  18.021   1.927
49254W        W17659  15.098   1.261  14.371
49255W        W17660  24.618  13.379   2.430
49256W        W17661  30.869  13.697   4.572
49257W        W17662  21.091  12.895   2.589
49258W        W17663  21.916  22.137   0.433
49259W        W17664  32.719   8.126  11.445
49260W        W17665   0.226  14.636  14.357
49261W        W17666  41.775  39.019   2.203
49262W        W17667  44.565  37.348  13.456
49263W        W17668   7.803  20.869   2.662
49264W        W17669  13.825  16.602   3.143
49265W        W17670   4.963   6.205  13.491
49266W        W17671  21.659  22.128  13.015
49267W        W17672  30.070  10.437   0.046
49268W        W17673   9.716  14.813   1.986
49269W        W17674  35.210  36.436  10.994
49270W        W17675   5.112  12.836   5.156
49271W        W17676  24.990   0.239  14.386
49272W        W17677  43.427  17.989   1.888
49273W        W17678   5.382  15.592  13.017
49274W        W17679  21.684   3.404  13.556
49275W        W17680   1.274  15.129  11.556
49276W        W17681  30.591  37.098  13.588
49277W        W17682  33.879   7.698   3.916
49278W        W17683  29.615   6.825   4.566
49279W        W17684  17.319  13.341   4.218
49280W        W17685  28.087   3.163  12.031
49281W        W17686   8.994  19.386  10.211
49282W        W17687  40.738  27.714  10.954
49283W        W17688  27.920  27.204   4.492
49284W        W17689  35.834   3.813   2.602
49285W        W17690  20.079  17.696   1.822
49286W        W17691  19.062  14.346   0.775
49287W        W17692  32.810  44.643  11.904
49288W        W17693   5.436  18.328  11.888
49289W        W17694   9.221  13.629   1.450
49290W        W17695  33.491  12.773   2.917
49291W        W17696   4.119  25.204  10.125
49292W        W17697  25.537  29.382  13.730
49293W        W17698  26.084  23.594   4.862
49294W        W17699  29.031  42.748   2.383
49295W        W17700  38.341  29.717   2.297
49296W        W17701  26.132  27.507   0.784
49297W        W17702  40.999   5.514  14.455
49298W        W17703  13.134  38.859  14.307
49299W        W17704  14.178  40.579   3.047
49300W        W17705   6.370  25.931   3.681
49301W        W17706  24.855  36.700  14.453
49302W        W17707  37.372  23.112   4.759
49303W        W17708   0.661  25.975  12.552
49304W        W17709  20.545   1.701   2.718
49305W        W17710   4.983   9.112   2.359
49306W        W17711  40.889   3.884   3.181
49307W        W17712   2.624  37.556   4.197
49308W        W17713  35.882  36.263  13.882
49309W        W17714   9.608  21.643  11.357
49310W        W17715  43.357   0.925  11.431
49311W        W17716  29.992  44.269   9.996
49312W        W17717   2.012  43.469   2.741
49313W        W17718   4.221  23.712  12.826
49314W        W17719   2.289  22.643  11.413
49315W        W17720   5.027  24.211  12.771
49316W        W17721  26.134  37.230   1.882
49317W        W17722  21.255  17.604   0.886
49318W        W17723  23.306   2.212  12.705
49319W        W17724  27.808  12.604  10.841
49320W        W17725  22.573  34.857  11.201
49321W        W17726  32.936  20.505   2.364
49322W        W17727  42.994  20.753  13.350
49323W        W17728  35.418  41.053  12.546
49324W        W17729   0.304  42.380  14.852
49325W        W17730  29.182  27.816   4.196
49326W        W17731   3.816  34.585   1.457
49327W        W17732  42.232  43.241   4.379
49328W        W17733  20.197   1.010   2.309
49329W        W17734  14.575  32.913   3.905
49330W        W17735  25.632  42.009   4.328
49331W        W17736  23.872  19.196   3.109
49332W        W17737   2.080  24.440  14.412
49333W        W17738  21.796  34.657   4.159
49334W        W17739  31.664  25.714   2.322
49335W        W17740  14.626  25.805   0.191
49336W        W17741  10.631  14.144   1.150
49337W        W17742  22.423  13.660  11.138
49338W        W17743  31.120  33.455   1.823
49339W        W17744   9.913  35.241   1.912
49340W        W17745  21.817  27.626  13.070
49341W        W17746  24.786  33.081   0.877
49342W        W17747   8.356   6.497  13.292
49343W        W17748  33.097  25.552   3.541
49344W        W17749   7.746  35.551  11.000
49345W        W17750  21.039  44.475   4.192
49346W        W17751  29.891  14.168   0.288
49347W        W17752  18.293  37.469  10.612
49348W        W17753  30.501  11.623   1.585
49349W        W17754  34.397  17.234  13.508
49350W        W17755  13.047  36.122   3.627
49351W        W17756   4.176  25.192  11.101
49352W        W17757  17.639   9.782   1.663
49353W        W17758  26.150  24.165   1.262
49354W        W17759  39.052   3.983   2.285
49355W        W17760  41.738  34.622  10.271
49356W        W17761  11.163   5.924   2.802
49357W        W17762  36.525  13.233  14.857
49358W        W17763   1.828  41.776  11.447
49359W        W17764  21.947  22.259   4.805
49360W        W17765  30.732  41.771  10.704
49361W        W17766  28.706   4.837  13.451
49362W        W17767  30.559  44.987   2.735
49363W        W17768  35.684  15.095   2.902
49364W        W17769  18.976   2.401   1.269
49365W        W17770   5.657   3.690  10.390
49366W        W17771  35.669  10.781   4.007
49367W        W17772  13.032  34.962  14.104
49368W        W17773   5.311  42.842   0.871
49369W        W17774  21.671  17.663  14.545
49370W        W17775  14.542   7.651  10.653
49371W        W17776  41.956  31.701  11.219
49372W        W17777  14.582  15.311  13.981
49373W        W17778  44.375   7.409  11.152
49374W        W17779  37.045  22.742  13.852
49375W        W17780  14.208  11.826  14.282
49376W        W17781  23.822  44.861  14.009
49377W        W17782  40.496  41.854   0.102
49378W        W17783  26.322  19.166   3.699
49379W        W17784  25.130  21.711  14.839
49380W        W17785  31.891  20.575   2.273
49381W        W17786  25.897  11.906  13.372
49382W        W17787  13.415  43.020  11.005
49383W        W17788   4.860  41.251   3.074
49384W        W17789  40.489  26.068  14.195
49385W        W17790  16.277  18.641  13.429
49386W        W17791  32.957   7.791   4.390
49387W        W17792  14.250  28.390  14.305
49388W        W17793  27.775   4.120  14.437
49389W        W17794   7.219   8.722   4.114
49390W        W17795  10.161   6.903  14.395
49391W        W17796  29.603   2.455  10.323
49392W        W17797   5.313  13.278  12.043
49393W        W17798  17.831   2.691  11.681
49394W        W17799  37.611  22.199   0.989
49395W        W17800  36.014  19.732  13.418
49396W        W17801   5.199  16.423   0.714
49397W        W17802  43.371  28.513  10.434
49398W        W17803  33.691   1.533   1.823
49399W        W17804  30.035  17.852   0.509
49400W        W17805  31.575  15.428   3.730
49401W        W17806  10.066  10.200   0.858
49402W        W17807  35.099   4.249   3.287
49403W        W17808   3.444  29.809   0.590
49404W        W17809  18.693  44.427   3.623
49405W        W17810  15.719  20.770  11.189
49406W        W17811  37.856  25.453  10.420
49407W        W17812  22.116  42.068   3.042
49408W        W17813  22.943   0.806  12.333
49409W        W17814  25.029   6.119   2.866
49410W        W17815  44.955  30.927   2.255
49411W        W17816  11.206  26.214   0.265
49412W        W17817  40.998  24.183  12.450
49413W        W17818  41.936  12.295   0.121
49414W        W17819   1.044  13.223   0.707
49415W        W17820  41.815  38.425   4.216
49416W        W17821  13.355  14.717   2.195
49417W        W17822   2.668  16.991   0.403
49418W        W17823  37.079  43.975  12.053
49419W        W17824  36.111   4.348  13.997
49420W        W17825  24.471  31.420   0.451
49421W        W17826  37.090  38.497   0.821
49422W        W17827   8.144   0.830   0.352
49423W        W17828   2.922  38.677  10.545
49424W        W17829  35.002  33.824   2.918
49425W        W17830   5.818   4.303  11.048
49426W        W17831  12.964   8.713  12.522
49427W        W17832   2.687  18.795  11.975
49428W        W17833  21.590  13.176   3.957
49429W        W17834  28.250   6.359  10.697
49430W        W17835   3.855   0.691   2.273
49431W        W17836  16.716  14.732   3.470
49432W        W17837  31.931  28.714   2.768
49433W        W17838  35.667  24.436   0.308
49434W        W17839   4.482  32.556  11.609
49435W        W17840  39.953  17.843  12.094
49436W        W17841  15.358  44.362   3.187
49437W        W17842  15.117  41.856   3.467
49438W        W17843   2.797   9.710   4.073
49439W        W17844  42.374  37.657  14.701
49440W        W17845   1.036   8.737   3.215
49441W        W17846  11.317  15.791   2.961
49442W        W17847  42.760  18.060   4.098
49443W        W17848   9.440  22.694  14.017
49444W        W17849  32.006  23.418  14.999
49445W        W17850  43.735   1.715  14.990
49446W        W17851  18.083  33.779   2.796
49447W        W17852   9.127  14.618  12.631
49448W        W17853  31.476  37.259   1.538
49449W        W17854  24.265   7.784  13.912
49450W        W17855  27.182  17.013   3.688
49451W        W17856  11.849  38.332   2.843
49452W        W17857  10.432  11.537  14.100
49453W        W17858  31.350  28.165  11.315
49454W        W17859  38.507  29.934   2.919
49455W        W17860   9.511   0.340   9.666
49456W        W17861  21.725  12.350  14.569
49457W        W17862  28.796  42.069  12.715
49458W        W17863  24.596  28.890  12.085
49459W        W17864  13.291   6.905   1.893
49460W        W17865  43.842  11.185  13.602
49461W        W17866  18.290  29.982   0.058
49462W        W17867   0.199   9.545   5.092
49463W        W17868  22.963   0.864  14.365
49464W        W17869  11.151   1.211  14.279
49465W        W17870  32.880  25.516   4.003
49466W        W17871  39.318  33.920  14.031
49467W        W17872  19.702   7.505   2.024
49468W        W17873  18.586   1.768   4.079
49469W        W17874   8.103  28.868   3.516
49470W        W17875  36.113   7.431  12.449
49471W        W17876  24.204  14.094   4.155
49472W        W17877   0.292  28.546   4.623
49473W        W17878  13.397   3.187   0.910
49474W        W17879  40.765  20.705   4.300
49475W        W17880  41.008  30.877   3.283
49476W        W17881  21.159  26.659   5.121
49477W        W17882  43.982   1.696  14.546
49478W        W17883  23.390  23.566  14.088
49479W        W17884  30.592  32.159  14.912
49480W        W17885   2.386  23.392   0.967
49481W        W17886  22.348  17.325   5.028
49482W        W17887  12.295  14.285  11.646
49483W        W17888  18.225  22.253  14.736
49484W        W17889   5.895  12.306  13.276
49485W        W17890  28.368   7.856   0.310
49486W        W17891  23.790  15.908  11.193
49487W        W17892  17.157  37.125   4.108
49488W        W17893  34.624  37.450   0.308
49489W        W17894  28.636  30.560   1.833
49490W        W17895  18.890   7.401   2.617
49491W        W17896  36.010  24.686   4.388
49492W        W17897  36.567   7.330   4.879
49493W        W17898  40.930  37.365   2.444
49494W        W17899  35.029  13.128   1.609
49495W        W17900   8.096   8.212  11.112
49496W        W17901  27.349  37.967  10.976
49497W        W17902  20.233  21.716   0.019
49498W        W17903  29.042  43.790  12.903
49499W        W17904  38.302  10.789   1.475
49500W        W17905  13.270  21.088   4.619
49501W        W17906  22.538   9.148  13.619
49502W        W17907  28.105  22.648  13.885
49503W        W17908  33.341  32.000  12.835
49504W        W17909  20.314  37.671  14.009
49505W        W17910  15.255  31.412   0.959
49506W        W17911   0.887  38.804  12.907
49507W        W17912  41.866  10.189   3.836
49508W        W17913  13.648  29.586  11.241
49509W        W17914  24.185  27.078   2.883
49510W        W17915  27.706  32.223  14.933
49511W        W17916  27.269   7.567  10.484
49512W        W17917   1.449  37.220   4.424
49513W        W17918  41.663  30.481  14.520
49514W        W17919   8.704  34.603  11.173
49515W        W17920  19.575  26.462  11.972
49516W        W17921   8.942  36.499  11.134
49517W        W17922  14.206  17.557   1.926
49518W        W17923  26.447  34.887  13.634
49519W        W17924   7.623  37.619   3.940
49520W        W17925  11.797   7.735   2.761
49521W        W17926  21.912  23.014   4.179
49522W        W17927   8.473   6.263   4.362
49523W        W17928  44.403  43.831   0.839
49524W        W17929  19.619  18.505   4.720
49525W        W17930  20.049  17.230   4.184
49526W        W17931   7.629  23.770   1.341
49527W        W17932  30.113   8.350   3.085
49528W        W17933  10.253  15.494  11.532
49529W        W17934  24.822   2.258  10.766
49530W        W17935  41.970   4.106   4.846
49531W        W17936   7.378  44.409  12.000
49532W        W17937  21.180  18.277  12.577
49533W        W17938  26.682  14.021   0.549
49534W        W17939  41.612  15.752   3.697
49535W        W17940   3.798   8.983  10.804
49536W        W17941  36.473  24.896  12.933
49537W        W17942  36.630   0.760   0.017
49538W        W17943   7.901   6.753  14.949
49539W        W17944  42.291  31.188   1.828
49540W        W17945  28.973  37.365   3.205
49541W        W17946  32.436  44.888  14.742
49542W        W17947  23.533  10.134   3.138
49543W        W17948   6.719  35.815   0.185
49544W        W17949  44.359  26.676  11.518
49545W        W17950  27.492  11.891   3.319
49546W        W17951  33.493  38.293  11.651
49547W        W17952  28.851  27.185  14.280
49548W        W17953  29.942  34.657   0.893
49549W        W17954   1.196  39.366   1.240
49550W        W17955  25.234  43.081   0.348
49551W        W17956   6.617  19.342   3.193
49552W        W17957  15.335  14.280  14.372
49553W        W17958  30.466  28.411   3.084
49554W        W17959  37.837  30.619  12.029
49555W        W17960  11.837  19.727   3.212
49556W        W17961   6.742  28.134  10.125
49557W        W17962  24.824  10.647  12.498
49558W        W17963   0.023  41.567  12.984
49559W        W17964  22.148  41.015   0.370
49560W        W17965  26.737  24.472  12.914
49561W        W17966  14.262   4.210  11.634
49562W        W17967  34.943   3.508   3.703
49563W        W17968  44.082   7.924   0.458
49564W        W17969  42.416  18.632  12.882
49565W        W17970  17.700  20.173  12.059
49566W        W17971  10.423  40.310   0.925
49567W        W17972   3.739   3.480  10.622
49568W        W17973  39.641  40.391  12.426
49569W        W17974  21.555  27.496  14.054
49570W        W17975  40.911  25.715  12.137
49571W        W17976  11.108  43.500   3.171
49572W        W17977   1.741  35.544   0.141
49573W        W17978  27.341  11.372  11.581
49574W        W17979  37.884   1.054  14.697
49575W        W17980  31.127  28.709   3.818
49576W        W17981   1.245  44.045   2.200
49577W        W17982  13.917  19.568   4.725
49578W        W17983   8.425  34.056  13.487
49579W        W17984  13.821  38.437   0.374
49580W        W17985   3.262   8.929  12.154
49581W        W17986  35.990  26.049  12.961
49582W        W17987  15.793   6.840   4.209
49583W        W17988  27.968  21.633   2.236
49584W        W17989  15.293  32.074   0.033
49585W        W17990  30.352  14.541   3.246
49586W        W17991  35.711  11.788   1.896
49587W        W17992  32.672  19.156  12.678
49588W        W17993   8.876  13.621  11.219
49589W        W17994  41.745  36.009  12.716
49590W        W17995  26.692  38.609  12.430
49591W        W17996   9.019  25.700  11.260
49592W        W17997  37.339   6.426   4.482
49593W        W17998   8.131  31.587   2.833
49594W        W17999  25.556  12.869  13.363
49595W        W18000  11.626  11.842   4.961
49596W        W18001   7.430   8.306  13.812
49597W        W18002   5.136  15.270   2.294
49598W        W18003  12.907   6.794  11.817
49599W        W18004   4.355   4.251  14.974
49600W        W18005  38.373   5.793   0.860
49601W        W18006   2.985  26.664   2.299
49602W        W18007  17.524  43.009   3.710
49603W        W18008  12.123  33.108  13.463
49604W        W18009   0.497  31.028  12.504
49605W        W18010  25.531  31.797  12.964
49606W        W18011  29.792  43.926   3.272
49607W        W18012  31.223  32.997   2.922
49608W        W18013  25.556   3.881  13.048
49609W        W18014   4.267  30.480  14.938
49610W        W18015   6.660  36.365  14.476
49611W        W18016  31.584  41.470  13.292
49612W        W18017  21.722   5.741   2.405
49613W        W18018  31.497   2.367   3.214
49614W        W18019  13.852  22.835   4.892
49615W        W18020  17.062  27.698  10.715
49616W        W18021  43.211  10.314   2.746
49617W        W18022  22.522   5.490   3.895
49618W        W18023  22.903  36.073   3.787
49619W        W18024  38.359  40.758   3.798
49620W        W18025  24.032  43.731  13.804
49621W        W18026   0.718  17.218   2.847
49622W        W18027  31.631   1.458   2.841
49623W        W18028  26.489  42.048  11.623
49624W        W18029  29.909  21.518   0.772
49625W        W18030  16.575  42.891   4.750
49626W        W18031  12.992  20.498  13.525
49627W        W18032   9.364   9.701  11.951
49628W        W18033  40.842  39.354   4.083
49629W        W18034  31.041   9.259   4.165
49630W        W18035  43.451  36.089   2.458
49631W        W18036   8.645  24.194  13.567
49632W        W18037  38.958  21.668  10.672
49633W        W18038  38.078  27.044   0.528
49634W        W18039  12.766   4.765  11.871
49635W        W18040  11.996  28.996   4.596
49636W        W18041  21.823   1.771   1.668
49637W        W18042   8.743  14.733   4.997
49638W        W18043  13.273  18.777   0.875
49639W        W18044  25.950  18.211   5.052
49640W        W18045  38.684  20.947   5.211
49641W        W18046  16.299   8.362   2.752
49642W        W18047  10.386  26.991   0.297
49643W        W18048  37.058  31.675  11.131
49644W        W18049   8.761  39.125  11.110
49645W        W18050  30.458  23.093   3.449
49646W        W18051   3.431  33.017   1.426
49647W        W18052   4.429  17.116  11.100
49648W        W18053  42.228  37.668  11.054
49649W        W18054  24.631  17.602   3.748
49650W        W18055   9.834  39.278   3.308
49651W        W18056  26.950  25.083   3.913
49652W        W18057  38.611  31.117   2.103
49653W        W18058  11.841  42.585  13.875
49654W        W18059  10.192   8.239  13.774
49655W        W18060  30.415  17.343   9.788
49656W        W18061  31.154  29.559  12.194
49657W        W18062  19.253  26.491   5.029
49658W        W18063  10.065   3.025   3.769
49659W        W18064  19.587  36.841   2.261
49660W        W18065  37.468   1.730  14.351
49661W        W18066  17.848   0.447  11.108
49662W        W18067  38.810  12.682   4.199
49663W        W18068  28.619  39.099   1.362
49664W        W18069  28.992   6.395   2.343
49665W        W18070  37.063  36.500  11.225
49666W        W18071   1.803  19.561   4.463
49667W        W18072  23.283  29.924   0.812
49668W        W18073  26.958   2.368  11.933
49669W        W18074   5.324   1.724   1.638
49670W        W18075  21.998  21.737  11.012
49671W        W18076  31.671  31.471   2.168
49672W        W18077  14.681  21.777  12.041
49673W        W18078  42.309  13.565  13.901
49674W        W18079  29.931  33.067   2.491
49675W        W18080  31.888  25.618  11.591
49676W        W18081  26.586   3.481   1.410
49677W        W18082  15.827  23.283   5.633
49678W        W18083   0.468   8.297  14.261
49679W        W18084  13.392  27.520  10.783
49680W        W18085  19.441   9.034   9.730
49681W        W18086  28.403   6.725  12.520
49682W        W18087  41.935  31.993   1.451
49683W        W18088   7.617  26.872   0.820
49684W        W18089  27.642   0.318   1.201
49685W        W18090  20.825  22.734   1.172
49686W        W18091   7.486  38.514  14.231
49687W        W18092  44.796  10.742  10.899
49688W        W18093  29.566  40.679   3.996
49689W        W18094  38.289  25.679   0.871
49690W        W18095  36.659  31.874   5.037
49691W        W18096   3.295  10.226  11.140
49692W        W18097  35.632  38.498  11.020
49693W        W18098  19.851  28.703  13.824
49694W        W18099  20.693  26.168   3.459
49695W        W18100   5.268   2.314   0.890
49696W        W18101  20.648  20.088  10.618
49697W        W18102  14.093  13.380  11.148
49698W        W18103  14.094  25.119  11.496
49699W        W18104  16.126  21.406   3.458
49700W        W18105   5.706  18.590  10.709
49701W        W18106  38.529  27.595   4.665
49702W        W18107  25.271   9.392  13.912
49703W        W18108  34.411  28.507  11.396
49704W        W18109   9.592  30.644   0.706
49705W        W18110  41.496   9.108   1.092
49706W        W18111  26.076  44.174  12.009
49707W        W18112   6.000   8.949   1.578
49708W        W18113  34.912  11.769  14.479
49709W        W18114   7.502  10.145   3.723
49710W        W18115  21.733  22.499   4.181
49711W        W18116  41.774  12.596   1.380
49712W        W18117   9.173  44.090   1.228
49713W        W18118  21.512  22.027   5.075
49714W        W18119  33.506  26.309   1.466
49715W        W18120  12.587  19.786   2.766
49716W        W18121  20.708  32.144   2.240
49717W        W18122  20.751  20.367  11.037
49718W        W18123   0.980  15.567   4.467
49719W        W18124  36.605  18.399   1.586
49720W        W18125  10.372  27.621  14.912
49721W        W18126   2.352  31.377   0.133
49722W        W18127  12.950   5.872   0.065
49723W        W18128   2.681  32.646  13.856
49724W        W18129  25.731  10.886  12.222
49725W        W18130  19.267   0.495   1.825
49726W        W18131  18.101  40.510   4.699
49727W        W18132  14.353  41.854   2.792
49728W        W18133   8.401  38.397   3.308
49729W        W18134   6.198   3.868   1.183
49730W        W18135  24.193  44.655   2.746
49731W        W18136  12.117   4.910  14.443
49732W        W18137   7.258  15.875   3.693
49733W        W18138  14.083  15.788   0.748
49734W        W18139  39.937  39.308  13.497
49735W        W18140   0.493  42.279   1.622
49736W        W18141  44.397  38.756   2.734
49737W        W18142  20.669  20.625  13.245
49738W        W18143   3.824   6.249  14.405
49739W        W18144  21.711  37.118   0.316
49740W        W18145  42.365  18.675   3.637
49741W        W18146   1.362  30.744   2.215
49742W        W18147   2.303  19.572   0.915
49743W        W18148  17.153  24.070   2.179
49744W        W18149  35.988  11.830   4.317
49745W        W18150  41.883  21.837  14.550
49746W        W18151  14.353  13.168  10.751
49747W        W18152  37.880  43.838  13.547
49748W        W18153  40.863   6.371   4.106
49749W        W18154  35.925  44.495  11.881
49750W        W18155  26.027  31.882   3.787
49751W        W18156  38.615  24.082   2.838
49752W        W18157  42.146   0.288  11.061
49753W        W18158  10.359  39.397   0.702
49754W        W18159  29.687   7.026  12.278
49755W        W18160  20.665  43.311   4.161
49756W        W18161   5.951   1.544   2.772
49757W        W18162  43.929  12.135  13.913
49758W        W18163  33.989   3.960   0.794
49759W        W18164   9.860   0.437  13.978
49760W        W18165   9.747  21.757   0.491
49761W        W18166   4.768  15.237   2.754
49762W        W18167  31.887  14.586  11.112
49763W        W18168  27.969  44.737   1.053
49764W        W18169  32.379  29.889  13.623
49765W        W18170  20.120  10.433  13.389
49766W        W18171  26.007  16.385  12.422
49767W        W18172   9.424  44.685   3.939
49768W        W18173   5.694  22.517   0.238
49769W        W18174  42.101   6.387  14.412
49770W        W18175  33.134   5.256  10.495
49771W        W18176  36.783  12.824   4.114
49772W        W18177  14.682  23.027   2.474
49773W        W18178   5.930  25.309   2.785
49774W        W18179  30.493  14.369  11.054
49775W        W18180  28.137  15.054   4.505
49776W        W18181  25.728  34.324  12.468
49777W        W18182  33.359  27.714   1.872
49778W        W18183   3.381  14.847   4.273
49779W        W18184  39.991  34.985   2.623
49780W        W18185   5.791  13.808   3.760
49781W        W18186   4.444   2.418   1.762
49782W        W18187  18.257   5.479   0.313
49783W        W18188  23.929  23.176   0.307
49784W        W18189  10.047  22.611   5.001
49785W        W18190  22.142   8.668   0.793
49786W        W18191  41.328  13.420   3.739
49787W        W18192  32.640  38.276   0.795
49788W        W18193  29.675  28.951   1.432
49789W        W18194  15.395   5.221  11.075
49790W        W18195  14.772  18.611   2.212
49791W        W18196  23.784  23.406   3.412
49792W        W18197  34.609  15.118   0.209
49793W        W18198   8.844  37.424   4.923
49794W        W18199  44.097   2.395   3.795
49795W        W18200  12.350   8.154   2.160
49796W        W18201   2.844  16.238   2.036
49797W        W18202   5.902  31.955  12.087
49798W        W18203  36.274  14.361  11.221
49799W        W18204  32.655   9.911  10.960
49800W        W18205  38.795  24.492  12.006
49801W        W18206   5.169  33.258   1.821
49802W        W18207  14.259   7.996  14.540
49803W        W18208  34.892  39.056  14.330
49804W        W18209  41.120   0.299  11.160
49805W        W18210  42.034  16.454  11.989
49806W        W18211  39.984   9.428  12.015
49807W        W18212  18.050  19.261   4.079
49808W        W18213  44.545  20.704  13.848
49809W        W18214   1.199  25.056   4.483
49810W        W18215  28.150   4.326  13.548
49811W        W18216   1.489  41.514   2.992
49812W        W18217  16.217  30.398   2.415
49813W        W18218  38.778  29.619   0.288
49814W        W18219  21.033  22.598   3.184
49815W        W18220  43.315   2.061   0.795
49816W        W18221   8.234  35.157   4.192
49817W        W18222  12.169  13.741   4.501
49818W        W18223  11.705   2.251  14.285
49819W        W18224   7.421  43.263   1.806
49820W        W18225  34.038  25.530   3.077
49821W        W18226  12.095  22.778  13.774
49822W        W18227   8.315  36.828   3.654
49823W        W18228   9.856  17.088  11.873
49824W        W18229  28.484  15.125  11.027
49825W        W18230  27.952  30.371  13.950
49826W        W18231  14.123  14.404   4.611
49827W        W18232  12.307  10.869  14.584
49828W        W18233  22.111  42.005   5.161
49829W        W18234  11.590   8.486  14.298
49830W        W18235  39.300  15.637  14.996
49831W        W18236  23.401  14.659  14.435
49832W        W18237   7.153  42.463   2.217
49833W        W18238  23.209  36.205  13.098
49834W        W18239   1.220  31.181  13.050
49835W        W18240  34.311  34.281  10.983
49836W        W18241  18.969   3.714  12.829
49837W        W18242  39.302  38.792  10.706
49838W        W18243  15.814   8.330   3.634
49839W        W18244  28.727   8.853   1.312
49840W        W18245  14.581   6.243   3.565
49841W        W18246  21.042  21.870   0.469
49842W        W18247  31.964   2.562  14.422
49843W        W18248  24.976  22.928  12.242
49844W        W18249  10.659   6.434   0.958
49845W        W18250  33.127   5.401   3.684
49846W        W18251   7.418  32.669   0.660
49847W        W18252  26.239   9.171  10.690
49848W        W18253   4.972  43.369   3.472
49849W        W18254  34.927   9.702   3.271
49850W        W18255   5.717   3.798   1.011
49851W        W18256  15.531  21.683  11.607
49852W        W18257  13.569  17.719  12.106
49853W        W18258  12.791  42.356  14.294
49854W        W18259   9.043  44.274  12.874
49855W        W18260  25.838  32.436   1.713
49856W        W18261  32.677   8.143  10.639
49857W        W18262  26.019  25.302   3.258
49858W        W18263   0.983  39.742  14.808
49859W        W18264  13.561  44.312   4.125
49860W        W18265  19.207  37.999   0.893
49861W        W18266  39.729  18.963   3.563
49862W        W18267   7.968  28.152   2.607
49863W        W18268  19.179   7.893  12.564
49864W        W18269  17.678   8.732  14.757
49865W        W18270   9.425  25.404  11.131
49866W        W18271   5.495  20.837  10.088
49867W        W18272  21.793  33.560   2.381
49868W        W18273  24.449  40.521   2.875
49869W        W18274  27.602  38.977  14.481
49870W        W18275  18.295  32.897  13.448
49871W        W18276  34.562  12.971  14.995
49872W        W18277   2.466   4.028   9.940
49873W        W18278  31.873  11.695   4.664
49874W        W18279  25.293  14.375   4.798
49875W        W18280  32.626  20.494   2.777
49876W        W18281  26.758  43.131  11.463
49877W        W18282  34.931  36.533   0.042
49878W        W18283  30.390  22.422  14.756
49879W        W18284  26.975  27.441  11.161
49880W        W18285   6.181  35.331  14.848
49881W        W18286  23.558  34.412  11.060
49882W        W18287  13.104  31.737   9.924
49883W        W18288  13.639  13.076   3.764
49884W        W18289  16.577  21.744  12.512
49885W        W18290  25.914  24.631  11.296
49886W        W18291  17.552  39.936  12.311
49887W        W18292   1.673  35.072   3.654
49888W        W18293  22.563  29.602  11.215
49889W        W18294  32.985  27.822  11.931
49890W        W18295  41.902  44.351  13.074
49891W        W18296  42.679  29.495   4.808
49892W        W18297  43.379  11.252  13.869
49893W        W18298  35.170  30.926  11.574
49894W        W18299  22.107   5.693  11.731
49895W        W18300  37.501  34.631   1.801
49896W        W18301  20.823  38.921  11.929
49897W        W18302  28.984  11.192  14.861
49898W        W18303  30.515  36.307  12.852
49899W        W18304  42.986  37.292  11.586
49900W        W18305  35.861   4.527  14.871
49901W        W18306   0.360  41.533  10.753
49902W        W18307  18.659  33.846  10.982
49903W        W18308  38.389   9.887   1.525
49904W        W18309  10.164  21.738   1.290
49905W        W18310  28.670  28.431  12.953
49906W        W18311  21.227   9.730   3.200
49907W        W18312  37.937  19.213   3.607
49908W        W18313   2.934  10.095  14.841
49909W        W18314   4.251  43.819   0.794
49910W        W18315  28.113  20.470   4.473
49911W        W18316   9.007  41.763   3.900
49912W        W18317  39.865  17.598   1.690
49913W        W18318  28.607  31.988  10.633
49914W        W18319   4.001  19.369  14.990
49915W        W18320  20.700  38.545  12.245
49916W        W18321  10.147  21.473  11.469
49917W        W18322  16.722  32.996   1.835
49918W        W18323  35.918  16.800  13.954
49919W        W18324  24.474  36.963   0.865
49920W        W18325   6.675  29.576   4.873
49921W        W18326  38.830  17.616   3.234
49922W        W18327  15.394   8.380  11.679
49923W        W18328  13.862  30.567   2.474
49924W        W18329  32.057  34.431  10.273
49925W        W18330   5.011  43.300  11.844
49926W        W18331  22.591  31.872  13.486
49927W        W18332   0.999  38.397   4.226
49928W        W18333  30.981  30.051   1.468
49929W        W18334  35.965  31.980   2.167
49930W        W18335  26.176  10.326   3.164
49931W        W18336  15.519  18.172   4.234
49932W        W18337  23.602  28.944  11.167
49933W        W18338  32.612  15.267  14.757
49934W        W18339  42.293  29.027   1.909
49935W        W18340  12.617  38.899   3.647
49936W        W18341  13.452  21.216  12.071
49937W        W18342  14.270  36.360  14.283
49938W        W18343  26.122  37.062   0.270
49939W        W18344   4.221  18.828  12.910
49940W        W18345  28.672  31.508   2.890
49941W        W18346  31.614   4.963  10.718
49942W        W18347  26.972  11.056  11.776
49943W        W18348  36.726  36.491  10.551
49944W        W18349  10.399  40.380  11.623
49945W        W18350  31.535   6.122  14.883
49946W        W18351  15.064  21.473  10.918
49947W        W18352  33.019  21.355  10.688
49948W        W18353  10.689   0.927  14.279
49949W        W18354  15.618  32.291  10.617
49950W        W18355  30.244  28.588  13.153
49951W        W18356   3.885  26.699   2.920
49952W        W18357  23.081  38.527   1.660
49953W        W18358  20.215  35.417   0.325
49954W        W18359  34.456  35.713  12.943
49955W        W18360  31.157  37.875  13.943
49956W        W18361  16.053  34.356   5.197
49957W        W18362  34.153  25.929  14.989
49958W        W18363  24.156  13.046   3.208
49959W        W18364  42.367   5.215  14.078
49960W        W18365   8.806  38.807  10.703
49961W        W18366  22.210   4.237  14.762
49962W        W18367  10.245  40.878  11.566
49963W        W18368  20.728  35.645   1.968
49964W        W18369   6.814  22.201   1.266
49965W        W18370  26.307  42.792   4.452
49966W        W18371  27.276  42.113  11.942
49967W        W18372  18.060  43.830   1.996
49968W        W18373  21.068  34.988  13.499
49969W        W18374  26.529   4.533   3.171
49970W        W18375  34.951   8.731   5.085
49971W        W18376  40.910  27.677  14.936
49972W        W18377  42.004  31.444   1.340
49973W        W18378  24.642  39.437   1.705
49974W        W18379   0.812  18.154   2.801
49975W        W18380  35.484  24.575  11.699
49976W        W18381   5.854  13.338  13.923
49977W        W18382  17.001  34.026  14.401
49978W        W18383   4.547  43.392   5.190
49979W        W18384  17.686  43.120  11.138
49980W        W18385  43.894  23.176  10.807
49981W        W18386  29.130  41.682   4.650
49982W        W18387  38.527  38.020  11.118
49983W        W18388  19.617   8.049  11.941
49984W        W18389   6.156  36.422  14.598
49985W        W18390  44.073  30.555   3.760
49986W        W18391  36.072  27.017  13.162
49987W        W18392   9.526  29.396   2.212
49988W        W18393  16.741  27.979  13.929
49989W        W18394  29.932  28.628  12.726
49990W        W18395  37.070  20.639   2.750
49991W        W18396  22.983  22.957   1.823
49992W        W18397   4.829   4.517  13.950
49993W        W18398  36.110  18.453   3.709
49994W        W18399   8.867  26.112   2.816
49995W        W18400   0.407   1.523   3.191
49996W        W18401  19.697   9.353  14.203
49997W        W18402  36.591   7.395  12.830
49998W        W18403  18.087  30.556  13.842
49999W        W18404  12.626  37.514  13.378
50000W        W18405  10.177   3.976   2.798
50001W        W18406  24.725  21.580   3.208
50002W        W18407   9.631  36.697   0.521
50003W        W18408   0.383  13.329   0.756
50004W        W18409  32.025  41.873  12.753
50005W        W18410  30.588  26.952  14.942
50006W        W18411  43.156  24.072   1.310
50007W        W18412   6.208   5.235   1.298
50008W        W18413  36.553   5.120   4.945
50009W        W18414  32.515   9.340   1.698
50010W        W18415  25.981  17.802   4.258
50011W        W18416  18.779  39.404   2.308
50012W        W18417  42.828  24.062  14.946
50013W        W18418   5.314   6.774   2.559
50014W        W18419   4.035   0.496  12.977
50015W        W18420  39.086  37.868   2.320
50016W        W18421  25.326  20.753   0.214
50017W        W18422   3.961  12.886   0.538
50018W        W18423  40.252  37.356  12.542
50019W        W18424   0.260  28.782  14.015
50020W        W18425  13.634  40.958  12.083
50021W        W18426  39.577  41.996   2.209
50022W        W18427  16.312  12.723  10.517
50023W        W18428  10.826  22.344   2.262
50024W        W18429  26.157   0.289   0.723
50025W        W18430   2.457  23.903  14.272
50026W        W18431  12.762  18.548  14.983
50027W        W18432  41.045  16.661   0.148
50028W        W18433  14.059   7.156  12.081
50029W        W18434  10.346  10.308  11.999
50030W        W18435   7.613  33.509   1.874
50031W        W18436  42.422   4.532  11.451
50032W        W18437  35.676   6.381   1.131
50033W        W18438  26.497  41.245   2.371
50034W        W18439  30.595  36.922   2.743
50035W        W18440  21.963  44.780   2.415
50036W        W18441  11.239   0.661   3.217
50037W        W18442   9.543  33.327  11.599
50038W        W18443  27.640  33.457  13.424
50039W        W18444  22.125  17.255  13.133
50040W        W18445  21.315   6.854  13.641
50041W        W18446  18.822  32.376  12.509
50042W        W18447   2.895  14.934   4.108
50043W        W18448  38.440  17.950  13.421
50044W        W18449  39.350  19.687   4.193
50045W        W18450  11.521   9.434  13.413
50046W        W18451  26.597  30.639  11.653
50047W        W18452  16.626  34.394  11.247
50048W        W18453  24.006  34.917   3.959
50049W        W18454  26.015  28.071   0.825
50050W        W18455  11.085  21.559   0.726
50051W        W18456  14.600  17.748   1.628
50052W        W18457   4.640  10.621  10.742
50053W        W18458   4.788  41.826   1.641
50054W        W18459  31.030  35.102   0.010
50055W        W18460  41.720  22.008   2.705
50056W        W18461  39.965  25.664   0.753
50057W        W18462   6.043  41.114   3.453
50058W        W18463  11.826   9.158  11.505
50059W        W18464   7.119   0.823   1.892
50060W        W18465   8.403  31.975  10.706
50061W        W18466  15.238  35.147   3.785
50062W        W18467  14.606   4.892  14.834
50063W        W18468  19.556  16.533   2.886
50064W        W18469   6.862  11.717   2.809
50065W        W18470  42.363  44.285  13.374
50066W        W18471   7.351  12.698   4.575
50067W        W18472  35.137  40.518  10.739
50068W        W18473  12.390   4.241  11.558
50069W        W18474  10.429   1.431  10.089
50070W        W18475  17.801  12.117  14.884
50071W        W18476  21.401   0.952   1.360
50072W        W18477  38.807   4.518  13.489
50073W        W18478  29.585   6.339  14.339
50074W        W18479   9.332  16.728  10.867
50075W        W18480  12.982  26.487   1.345
50076W        W18481  37.062  21.463   3.221
50077W        W18482  44.308  10.271  12.413
50078W        W18483  34.903   3.179   1.767
50079W        W18484  14.126  30.309  14.187
50080W        W18485  39.727  35.511   0.468
50081W        W18486  31.211  26.549  14.489
50082W        W18487  34.489  36.881   1.188
50083W        W18488   8.091   8.380   0.192
50084W        W18489   4.482  24.557  14.866
50085W        W18490  14.549   1.727   1.896
50086W        W18491  16.141  35.824  13.796
50087W        W18492  40.487  19.705  10.572
50088W        W18493  27.908  39.488  14.100
50089W        W18494  11.361  32.297   3.634
50090W        W18495  14.502  24.195  14.501
50091W        W18496  44.710  32.849   0.873
50092W        W18497  29.043  24.170  14.997
50093W        W18498  17.661  38.407   1.846
50094W        W18499  10.113  17.307  12.956
50095W        W18500  28.524  25.013  12.526
50096W        W18501  33.270   1.227   1.701
50097W        W18502   1.909  42.018  14.317
50098W        W18503   1.358  28.631  14.934
50099W        W18504  33.925  26.610  11.542
50100W        W18505  10.722   1.638   4.506
50101W        W18506  11.600  29.785   0.281
50102W        W18507  40.741  21.312  10.951
50103W        W18508  33.627  34.443  11.620
50104W        W18509  15.085   3.165   1.431
50105W        W18510  37.872   4.328  11.646
50106W        W18511  21.302   8.898  13.801
50107W        W18512  33.945  15.686  14.709
50108W        W18513   6.306  41.487   3.766
50109W        W18514   5.676  14.161  14.452
50110W        W18515  23.123  24.972   3.786
50111W        W18516  22.792  42.378   0.434
50112W        W18517   6.986  21.034   4.639
50113W        W18518  21.759  31.898  13.875
50114W        W18519  37.398  35.908  12.989
50115W        W18520  33.866  41.938   3.652
50116W        W18521  44.272  22.103   0.853
50117W        W18522  16.808  31.065   0.333
50118W        W18523  11.848  16.404   4.308
50119W        W18524  15.603   5.724  11.171
50120W        W18525  21.331  35.842  14.810
50121W        W18526  17.057  13.175   2.263
50122W        W18527  10.699  33.219   2.188
50123W        W18528  19.495  15.553   3.747
50124W        W18529  13.787  25.047  12.453
50125W        W18530  44.950  12.308   2.339
50126W        W18531  25.553   1.709   0.483
50127W        W18532  34.985  43.000  13.402
50128W        W18533   1.452  31.118   3.374
50129W        W18534  25.521  11.417   1.513
50130W        W18535  22.060  34.109   0.460
50131W        W18536  25.054  27.163   2.157
50132W        W18537   1.027  40.877   1.652
50133W        W18538   9.585  10.380   0.877
50134W        W18539   0.652  23.641   4.622
50135W        W18540  34.287  19.290  12.021
50136W        W18541  21.192  41.851   3.681
50137W        W18542   6.680  29.709   3.531
50138W        W18543  37.008   3.284   0.682
50139W        W18544  21.720   2.489   3.299
50140W        W18545  26.924  31.176   0.365
50141W        W18546  30.659   5.419  12.118
50142W        W18547  22.695  44.259   0.512
50143W        W18548  15.984  30.874  10.748
50144W        W18549   0.898  12.908   4.646
50145W        W18550  12.614  27.675  13.973
50146W        W18551  28.646   6.579  12.957
50147W        W18552  33.665  20.609   3.822
50148W        W18553  39.356  43.847   0.188
50149W        W18554  19.438  13.885   2.322
50150W        W18555  11.386  26.456  13.974
50151W        W18556   0.222  25.948   2.323
50152W        W18557  34.010  13.724  12.802
50153W        W18558  44.232   2.907  12.905
50154W        W18559  37.118  10.489  11.206
50155W        W18560   8.649  24.141  12.116
50156W        W18561   1.596  44.377  12.574
50157W        W18562  24.005  39.928  12.448
50158W        W18563  36.139  11.434  12.184
50159W        W18564   0.217  21.561  11.388
50160W        W18565  37.325  11.264   0.328
50161W        W18566   1.510  31.585   3.591
50162W        W18567   0.763  37.472   3.189
50163W        W18568  11.704  13.800   2.772
50164W        W18569  43.309  35.007   0.208
50165W        W18570  36.071  32.977   2.450
50166W        W18571  43.526  42.582  11.550
50167W        W18572  19.068  33.829  10.661
50168W        W18573  20.788  24.297  10.598
50169W        W18574  24.761  38.060  10.565
50170W        W18575  14.464   2.254  12.425
50171W        W18576  32.610  26.618   4.102
50172W        W18577  44.824   6.100  13.898
50173W        W18578  11.240   2.344   1.765
50174W        W18579  28.963  31.507  12.865
50175W        W18580  30.831   1.749   4.992
50176W        W18581  37.269   6.468  13.470
50177W        W18582  43.255  27.458  13.504
50178W        W18583  11.839  29.960   0.937
50179W        W18584  12.524   6.741  12.165
50180W        W18585  12.454  29.150   4.887
50181W        W18586  20.461  20.663  11.312
50182W        W18587  40.842  37.537   0.667
50183W        W18588  37.305  18.731   4.801
50184W        W18589  18.144  19.065  14.764
50185W        W18590  26.304  22.816  12.522
50186W        W18591  14.731  20.612  14.108
50187W        W18592  35.005  37.954  13.026
50188W        W18593   6.832  12.698   4.383
50189W        W18594  21.131  39.071   0.022
50190W        W18595  27.168  23.344   1.514
50191W        W18596  30.821  37.081   4.548
50192W        W18597   8.857  40.235  12.911
50193W        W18598  40.059  21.744   2.320
50194W        W18599  17.230  36.077  13.060
50195W        W18600  27.033  24.649  11.595
50196W        W18601  12.312  21.168  13.418
50197W        W18602  29.663  30.476  14.858
50198W        W18603   3.708  42.081   1.401
50199W        W18604  36.440  41.850  10.353
50200W        W18605  43.259  16.294  12.396
50201W        W18606  12.333  39.982  14.283
50202W        W18607  20.961  21.113   3.164
50203W        W18608  42.024   7.116  12.211
50204W        W18609  28.459  36.952  12.908
50205W        W18610  44.412  40.358   3.463
50206W        W18611  13.282   7.241   1.114
50207W        W18612  35.803  13.240   0.503
50208W        W18613   9.079  10.914  14.028
50209W        W18614  40.901  16.022   1.562
50210W        W18615  38.525  43.831   3.605
50211W        W18616  13.291  25.479  14.819
50212W        W18617  12.415  11.143  12.549
50213W        W18618  11.865  36.149   1.664
50214W        W18619   7.813  41.726  14.748
50215W        W18620  31.330  36.962   3.689
50216W        W18621  29.405  22.636  14.360
50217W        W18622  12.895  44.931  14.514
50218W        W18623  39.850   2.982   0.919
50219W        W18624  40.493  40.971   0.461
50220W        W18625  35.138   1.924   1.943
50221W        W18626  16.184  14.576   4.256
50222W        W18627  41.840  36.479   0.862
50223W        W18628  34.676  42.191   2.658
50224W        W18629   8.094   1.947  14.404
50225W        W18630   5.456  12.122  13.471
50226W        W18631  42.209  13.752  11.462
50227W        W18632  43.499  41.238  10.715
50228W        W18633   6.826  10.771  11.050
50229W        W18634  24.804  30.965  10.713
50230W        W18635   2.390  40.618  11.364
50231W        W18636  42.446   6.327   4.228
50232W        W18637   9.836  41.250   4.264
50233W        W18638  33.939  23.253   1.811
50234W        W18639   3.842  10.716  13.052
50235W        W18640   0.814  21.999   3.958
50236W        W18641  36.943   4.269  14.141
50237W        W18642  40.505  33.061  14.549
50238W        W18643   4.942   5.268   3.251
50239W        W18644  23.306  36.079   0.865
50240W        W18645  41.447  31.947   0.046
50241W        W18646  27.403  35.837   2.807
50242W        W18647   5.702  33.891   3.665
50243W        W18648   8.415  33.114  14.980
50244W        W18649  44.580  22.412   4.521
50245W        W18650  22.247   4.761   2.395
50246W        W18651   8.152  44.928  10.561
50247W        W18652  14.326  13.827  11.160
50248W        W18653   6.332   5.165  13.456
50249W        W18654  29.494  37.378  14.969
50250W        W18655  30.087  18.882   3.328
50251W        W18656  24.994   5.348   2.288
50252W        W18657  26.612  27.033   4.919
50253W        W18658  10.861  28.446  13.386
50254W        W18659  23.459  36.581   0.864
50255W        W18660  26.068  30.601  11.593
50256W        W18661  35.239   9.209  11.613
50257W        W18662  38.189  28.152  12.952
50258W        W18663  35.395   1.324  14.795
50259W        W18664   1.752  26.031   0.285
50260W        W18665   4.710   5.473   0.338
50261W        W18666  33.422  14.578   1.346
50262W        W18667  19.104   9.205  11.183
50263W        W18668  30.795  44.968   2.263
50264W        W18669  12.994  21.694   1.695
50265W        W18670  22.976  11.788  10.451
50266W        W18671  36.352  17.708  10.887
50267W        W18672   6.137   2.771  12.456
50268W        W18673   6.116  42.942   3.549
50269W        W18674   0.710  37.214   2.244
50270W        W18675  31.928  22.767   1.955
50271W        W18676  29.267  19.374   4.444
50272W        W18677  44.921  15.512  10.662
50273W        W18678   4.074  25.985  11.161
50274W        W18679  28.592  44.307  11.505
50275W        W18680  14.122  19.123  12.294
50276W        W18681  39.006  16.419  12.415
50277W        W18682   4.705  16.052  11.457
50278W        W18683   4.177  16.329   2.499
50279W        W18684  44.034   6.712  13.990
50280W        W18685   7.338  20.653   1.986
50281W        W18686  20.268  33.947   1.328
50282W        W18687  21.564  32.088  14.310
50283W        W18688  29.522  11.223   1.159
50284W        W18689  23.319  20.757  13.812
50285W        W18690  23.509  17.733   0.026
50286W        W18691  40.087  14.772  14.502
50287W        W18692  17.822  28.887   2.359
50288W        W18693  27.170  34.954  12.895
50289W        W18694  21.233  36.111   2.272
50290W        W18695  22.706  39.540  13.889
50291W        W18696  13.747  30.078   3.241
50292W        W18697  17.837  13.019   0.925
50293W        W18698  36.552  11.254  14.851
50294W        W18699   3.739  36.004  11.146
50295W        W18700   9.094  40.644   9.613
50296W        W18701  21.767  25.733  12.925
50297W        W18702  18.599   9.740   2.019
50298W        W18703  25.598  25.366   0.041
50299W        W18704  43.743  42.415  12.423
50300W        W18705  34.856  16.313   3.295
50301W        W18706  36.343  17.015  12.430
50302W        W18707  30.119  35.037  14.442
50303W        W18708  12.429  17.014   0.256
50304W        W18709  13.609   3.439  12.570
50305W        W18710   9.518  13.298   0.349
50306W        W18711  11.905  42.449  11.032
50307W        W18712  29.085  15.104   2.761
50308W        W18713  26.856  27.569   2.710
50309W        W18714   1.764   5.557   4.034
50310W        W18715  35.900  33.091   4.769
50311W        W18716  42.419  40.938   0.470
50312W        W18717   1.691  41.074  13.939
50313W        W18718   7.554  35.966   1.664
50314W        W18719  38.926  30.956  14.571
50315W        W18720  17.339  44.326   3.191
50316W        W18721  18.169  40.078  14.055
50317W        W18722   4.057   6.017  10.331
50318W        W18723  17.634  16.167   4.410
50319W        W18724   1.717   8.001   4.290
50320W        W18725  33.901  36.331  14.844
50321W        W18726  39.118  30.795  12.416
50322W        W18727   2.803  37.606   4.695
50323W        W18728  17.580   3.114  12.950
50324W        W18729  23.658  13.677   1.566
50325W        W18730  26.403   6.398   4.969
50326W        W18731  38.880  21.917  12.105
50327W        W18732  35.588   6.363  13.060
50328W        W18733  27.008  11.012  11.253
50329W        W18734  11.376  39.501  13.595
50330W        W18735  33.055  34.946  11.369
50331W        W18736  32.677  18.842  13.246
50332W        W18737   1.011  31.465   4.890
50333W        W18738  25.076  43.225   5.033
50334W        W18739  36.031  36.317   4.148
50335W        W18740  39.229  34.609   1.891
50336W        W18741  33.652  43.486  13.422
50337W        W18742  32.065  26.033   2.810
50338W        W18743  44.571  31.693   1.802
50339W        W18744  29.674  36.036   1.261
50340W        W18745  43.370  36.837   1.700
50341W        W18746  43.409  21.026   2.127
50342W        W18747  14.139  34.612  10.646
50343W        W18748  42.145   2.914   0.494
50344W        W18749  35.929  28.923  12.151
50345W        W18750   3.312  25.171  14.776
50346W        W18751  42.279  12.830   0.225
50347W        W18752  34.609   9.905   4.599
50348W        W18753   7.327  16.751  12.181
50349W        W18754  36.029  17.551   4.714
50350W        W18755   6.283  28.754  11.741
50351W        W18756  20.113   1.323   1.362
50352W        W18757  15.160  27.022   0.612
50353W        W18758  14.277  33.624   1.959
50354W        W18759  33.280   8.186  12.099
50355W        W18760   5.264  17.342   0.353
50356W        W18761  37.962  17.140  14.405
50357W        W18762   4.283  17.184   0.966
50358W        W18763   3.043  36.496  11.926
50359W        W18764   3.248   6.413   2.640
50360W        W18765  41.384  26.088   2.315
50361W        W18766   9.248  14.433  13.094
50362W        W18767  14.663  24.908   3.187
50363W        W18768  32.791   9.450  11.153
50364W        W18769   9.275   8.421  14.509
50365W        W18770  20.162  14.705   1.303
50366W        W18771  23.128  15.283   1.230
50367W        W18772  21.855  39.906   1.330
50368W        W18773   2.266   9.426  13.049
50369W        W18774  12.763  17.360   1.552
50370W        W18775  13.214   6.019   1.284
50371W        W18776  23.013   1.248  13.057
50372W        W18777  37.338   8.662   3.343
50373W        W18778  13.803   9.250   3.284
50374W        W18779  23.437  32.477   3.117
50375W        W18780  25.195  40.102   0.179
50376W        W18781  40.547  32.177  12.086
50377W        W18782  30.448   8.920  13.854
50378W        W18783   1.924  31.904   3.757
50379W        W18784  32.910  40.772   3.718
50380W        W18785  24.409  42.557   4.703
50381W        W18786  31.123  42.848  13.722
50382W        W18787  31.548  29.927   4.614
50383W        W18788  39.389   1.773   2.339
50384W        W18789   4.687   4.123   4.125
50385W        W18790  24.549  19.226  11.764
50386W        W18791  11.463  22.761  11.022
50387W        W18792  26.221  28.520   3.931
50388W        W18793   8.748  30.986  14.647
50389W        W18794  33.866  44.700  11.185
50390W        W18795  13.337  44.230  12.141
50391W        W18796   9.388  26.988   3.686
50392W        W18797  39.997   7.567  11.388
50393W        W18798  44.295  36.507   0.354
50394W        W18799   0.786  21.519   0.273
50395W        W18800  20.985  18.347  11.875
50396W        W18801  12.248  34.879   2.089
50397W        W18802  42.816  19.181   1.746
50398W        W18803   0.734  44.884   2.354
50399W        W18804  24.249  41.216  11.400
50400W        W18805  10.568  33.937  13.170
50401W        W18806  42.670  26.156  11.359
50402W        W18807  13.005  44.984  11.265
50403W        W18808   5.825  13.343   2.622
50404W        W18809   9.155  17.167  12.537
50405W        W18810  10.186  14.688  14.863
50406W        W18811  35.371  38.234   2.354
50407W        W18812  34.492   4.767  13.360
50408W        W18813   6.992  14.155   2.771
50409W        W18814  40.878  12.911  11.508
50410W        W18815  10.718  28.421   0.513
50411W        W18816  16.998  39.017   0.267
50412W        W18817  44.856  10.386   0.189
50413W        W18818  19.999  30.456   3.712
50414W        W18819  19.491   5.677   1.238
50415W        W18820  15.371  34.992   9.980
50416W        W18821  14.042  34.359  14.470
50417W        W18822  42.002  38.842   4.475
50418W        W18823  40.409  23.429   4.559
50419W        W18824  24.043  37.885  12.677
50420W        W18825  20.596  31.701  14.904
50421W        W18826  27.138  33.396   2.264
50422W        W18827  21.533  34.953  12.973
50423W        W18828  40.933   1.203   0.353
50424W        W18829  18.188  44.777   4.771
50425W        W18830  14.696  12.812   2.170
50426W        W18831  20.109  44.440  12.554
50427W        W18832  35.899  31.909   1.322
50428W        W18833   8.357  26.279   2.732
50429W        W18834  30.640  33.147  13.831
50430W        W18835  24.462  29.573   0.389
50431W        W18836  39.999  41.301  11.159
50432W        W18837  43.082   1.919  11.136
50433W        W18838  41.845  14.329   3.276
50434W        W18839  26.030  33.756  13.975
50435W        W18840  11.581  29.645  11.890
50436W        W18841  37.363  43.325  11.159
50437W        W18842  15.751  38.712   3.696
50438W        W18843   2.049  41.091   1.393
50439W        W18844   2.161   2.227   5.274
50440W        W18845   8.497  44.183   4.827
50441W        W18846  39.748  21.229   3.345
50442W        W18847  14.894   8.145  13.855
50443W        W18848   7.391   0.250   2.718
50444W        W18849   1.728  25.598  14.026
50445W        W18850   8.575   5.374  11.481
50446W        W18851  19.632  36.620  12.123
50447W        W18852  31.328  21.022   0.508
50448W        W18853  19.661  34.259  11.022
50449W        W18854  41.659   4.544   4.942
50450W        W18855  15.597  13.199  13.954
50451W        W18856  29.147  17.907   4.142
50452W        W18857  10.814  26.151  10.400
50453W        W18858   2.981  42.680   4.882
50454W        W18859  27.220  36.403  12.003
50455W        W18860  18.336  41.745  12.328
50456W        W18861  27.278  40.860  11.306
50457W        W18862  20.233  32.386  14.247
50458W        W18863   4.562  13.385   3.366
50459W        W18864  26.683  18.277   0.311
50460W        W18865  36.932  39.977  14.848
50461W        W18866  42.299  20.729  12.960
50462W        W18867  15.315  17.118   2.248
50463W        W18868  17.778  18.259  10.666
50464W        W18869   7.133  23.231  12.043
50465W        W18870  27.265   9.126   0.840
50466W        W18871  26.117   3.497   0.633
50467W        W18872  23.955  23.732  13.438
50468W        W18873   9.534  24.458  10.594
50469W        W18874  34.540  33.945   3.938
50470W        W18875  44.665  42.380   3.161
50471W        W18876  13.606   8.283   1.845
50472W        W18877  28.443   9.805   1.606
50473W        W18878  37.468  41.755  13.557
50474W        W18879   3.088  10.820   3.142
50475W        W18880  40.431  43.818   0.683
50476W        W18881  35.347  18.532   4.222
50477W        W18882  40.889   0.265  10.634
50478W        W18883   6.906  19.112  12.115
50479W        W18884  22.067   0.359  14.359
50480W        W18885  31.673  39.286  11.994
50481W        W18886  25.370  12.142  14.526
50482W        W18887  34.643  19.442   2.275
50483W        W18888  38.992  12.301  13.864
50484W        W18889  41.365  43.760   2.888
50485W        W18890  43.201   4.658  12.407
50486W        W18891  18.659   5.726   0.089
50487W        W18892  27.353  27.352   2.645
50488W        W18893  42.331  43.381  10.647
50489W        W18894  36.037  40.981  10.785
50490W        W18895   1.897  20.606   1.822
50491W        W18896   5.196   1.260  14.082
50492W        W18897  22.984   7.223  13.186
50493W        W18898   9.125  13.673  13.765
50494W        W18899  29.227  32.084   2.268
50495W        W18900  10.687  44.413   2.845
50496W        W18901   0.849  24.525  10.705
50497W        W18902  22.319  33.251  13.993
50498W        W18903  42.446  37.173   4.086
50499W        W18904  19.573  42.514  14.747
50500W        W18905  36.088   6.355  12.956
50501W        W18906   1.204  34.118   2.600
50502W        W18907  33.596  14.683   3.640
50503W        W18908   2.416   4.549   4.075
50504W        W18909  29.577  32.930   0.220
50505W        W18910  16.414   1.908   0.869
50506W        W18911  44.233   1.817   5.047
50507W        W18912   2.925  38.783  11.555
50508W        W18913  37.013  12.245   1.012
50509W        W18914  44.141  19.262   0.630
50510W        W18915   9.661  19.240  12.580
50511W        W18916  39.521  19.645  12.663
50512W        W18917  36.981  25.448  11.637
50513W        W18918   1.674  23.096   2.378
50514W        W18919  28.158  40.535  11.606
50515W        W18920  25.626  10.868  14.690
50516W        W18921  36.341  17.299   1.660
50517W        W18922  29.483  40.578  13.823
50518W        W18923  18.607  18.519  12.667
50519W        W18924  28.969  31.607  14.978
50520W        W18925  40.644  31.504   0.080
50521W        W18926  39.515   0.969   3.672
50522W        W18927  20.350  23.043   3.555
50523W        W18928  13.326  18.229  14.511
50524W        W18929  33.367   2.255  10.665
50525W        W18930  17.200  11.461   2.726
50526W        W18931  31.667  39.151  10.579
50527W        W18932  17.281  11.690  10.753
50528W        W18933  43.687  19.159   1.431
50529W        W18934  13.567   0.316  13.193
50530W        W18935  22.314  19.602  12.756
50531W        W18936   4.776  37.303  11.924
50532W        W18937  17.013  33.051   2.282
50533W        W18938  27.176   9.240  11.041
50534W        W18939  28.055  36.914   4.141
50535W        W18940   1.694  38.839  13.916
50536W        W18941  35.344  39.567   1.103
50537W        W18942  35.542   9.399   4.459
50538W        W18943  30.434  14.648   1.460
50539W        W18944  40.386  38.130   4.264
50540W        W18945  13.533  40.525   1.048
50541W        W18946  23.820  27.109  12.247
50542W        W18947   1.080   9.827  14.238
50543W        W18948  25.986  22.309   3.447
50544W        W18949  18.849  17.150   3.744
50545W        W18950  26.659  35.014  11.086
50546W        W18951  32.180  37.901  11.973
50547W        W18952  42.278  10.253   2.136
50548W        W18953  14.903  30.450   0.735
50549W        W18954   6.125  38.846  10.804
50550W        W18955  40.313  27.576  10.698
50551W        W18956  18.713  36.354   2.346
50552W        W18957  39.380  34.418  13.878
50553W        W18958  23.753  14.174  12.941
50554W        W18959  29.523  24.823   3.721
50555W        W18960  36.300   5.704   3.299
50556W        W18961  30.232  36.606   0.297
50557W        W18962  27.367  42.650   1.288
50558W        W18963   1.920   7.915   2.291
50559W        W18964  33.148  26.242  14.082
50560W        W18965  12.283  21.186   2.698
50561W        W18966   8.187  27.629  13.411
50562W        W18967  25.434  10.094   4.566
50563W        W18968  20.722   1.853   0.082
50564W        W18969  28.003  12.264   0.248
50565W        W18970  34.230   1.398   1.842
50566W        W18971  44.461  39.876  10.656
50567W        W18972  21.504   0.919  13.054
50568W        W18973  29.697  30.741  14.428
50569W        W18974  32.348   2.163  12.125
50570W        W18975  15.770   2.295   0.763
50571W        W18976  36.321  19.576   2.341
50572W        W18977  18.091  42.905  11.948
50573W        W18978   1.782   7.863  11.113
50574W        W18979  39.818  24.301  11.752
50575W        W18980  15.699  12.375  10.801
50576W        W18981  11.811   0.493  13.440
50577W        W18982  19.069  30.959  13.900
50578W        W18983  18.770  20.211   2.959
50579W        W18984  12.671  23.763   0.450
50580W        W18985   6.225   4.936   2.706
50581W        W18986  25.041  15.189  14.753
50582W        W18987   1.465   3.488  13.007
50583W        W18988  23.960  39.441   0.572
50584W        W18989   1.293  31.206  13.551
50585W        W18990  21.355  42.829   3.130
50586W        W18991  41.260  39.342   0.506
50587W        W18992   6.525  15.171  14.712
50588W        W18993  41.930  14.608   3.824
50589W        W18994  34.971  36.870   3.475
50590W        W18995  44.036   0.317  12.844
50591W        W18996  25.805  20.685   0.439
50592W        W18997  36.498  28.926  13.002
50593W        W18998   6.488   2.039  13.496
50594W        W18999  33.613  20.654   4.969
50595W        W19000   4.118  23.824  14.507
50596W        W19001  33.535  13.354  11.578
50597W        W19002  25.631   4.885   2.792
50598W        W19003  30.338  33.407  14.202
50599W        W19004   6.241  37.566  12.187
50600W        W19005  36.355   5.721  10.239
50601W        W19006   3.923   3.404   5.301
50602W        W19007   7.444  28.154  10.733
50603W        W19008   4.974  27.877   0.313
50604W        W19009  26.748  37.983  12.181
50605W        W19010  35.890  22.474   0.271
50606W        W19011   9.436   8.221   3.572
50607W        W19012  15.263  27.728  13.686
50608W        W19013  24.627  37.456   0.390
50609W        W19014  37.160   0.394   0.534
50610W        W19015  13.851  11.453   0.037
50611W        W19016   1.080  11.453  13.331
50612W        W19017   1.542   3.993  10.623
50613W        W19018  38.296  41.668   4.129
50614W        W19019   2.849  44.491  13.681
50615W        W19020   4.896  20.595   3.259
50616W        W19021  16.016  24.147   1.673
50617W        W19022  42.776  13.765  11.510
50618W        W19023   7.629  43.495  12.566
50619W        W19024  22.424  33.117   3.080
50620W        W19025  13.124   5.830  11.110
50621W        W19026  33.600  44.470  11.928
50622W        W19027  23.653  30.429  12.122
50623W        W19028  15.030   0.674  13.385
50624W        W19029  43.360  25.195   3.773
50625W        W19030  31.639  33.083   1.205
50626W        W19031   6.175  29.551   2.678
50627W        W19032  14.599   3.207  14.262
50628W        W19033  28.145   7.272  14.181
50629W        W19034  40.020  24.201  10.591
50630W        W19035  22.066  38.938  11.695
50631W        W19036  29.520  38.428  10.869
50632W        W19037   8.933  10.327   1.237
50633W        W19038  37.855  28.983   1.892
50634W        W19039  43.459  35.770   2.871
50635W        W19040  12.279  20.315   2.139
50636W        W19041   6.523  40.769  13.970
50637W        W19042   6.618  15.623  11.515
50638W        W19043   6.177  29.401  13.376
50639W        W19044  40.954  28.042  10.618
50640W        W19045  20.778  26.167  12.419
50641W        W19046   1.249  23.650   1.743
50642W        W19047  16.042  17.496  10.343
50643W        W19048  27.491   8.316   1.252
50644W        W19049  29.654   3.940  10.743
50645W        W19050   4.191   0.262   1.320
50646W        W19051  11.760   9.749  11.636
50647W        W19052  35.037  11.253  12.494
50648W        W19053  17.803  20.772   3.266
50649W        W19054  36.212   1.560   1.085
50650W        W19055  39.804  29.899  13.917
50651W        W19056  29.878   8.735  11.478
50652W        W19057  38.320   6.631  14.152
50653W        W19058  32.292  28.540   2.443
50654W        W19059  18.556  32.510   1.866
50655W        W19060   3.683  36.373   1.683
50656W        W19061  30.001   0.297   3.600
50657W        W19062  39.054   9.889   2.640
50658W        W19063   9.743   9.212  14.387
50659W        W19064  33.986   6.308  11.556
50660W        W19065  35.747  41.319   0.202
50661W        W19066   0.512  24.434   4.853
50662W        W19067  31.505  30.600  14.606
50663W        W19068  35.103  25.698  14.842
50664W        W19069   0.057  27.306   1.249
50665W        W19070  40.421   5.533  10.156
50666W        W19071  21.186  41.014   4.123
50667W        W19072  43.931  24.916   3.275
50668W        W19073  30.566  26.506  12.719
50669W        W19074  34.354  22.701  14.386
50670W        W19075  35.766   2.025   2.130
50671W        W19076  32.524  12.207   0.623
50672W        W19077  30.858  21.634  11.494
50673W        W19078  12.837  18.696   1.470
50674W        W19079  13.567  16.588  12.135
50675W        W19080  35.679  36.213   0.693
50676W        W19081   4.230  30.787   4.171
50677W        W19082  40.877  22.883  13.651
50678W        W19083  44.881  31.607  12.497
50679W        W19084  42.774  36.516  10.954
50680W        W19085   0.700   7.600   4.737
50681W        W19086  16.849   1.298   3.188
50682W        W19087  31.442  25.205   1.423
50683W        W19088  17.798  40.410  10.510
50684W        W19089  25.922  37.115  11.636
50685W        W19090  32.667   9.836   3.827
50686W        W19091  12.195  44.904  10.337
50687W        W19092  23.913  18.383  13.049
50688W        W19093   6.431  29.477   1.479
50689W        W19094  16.143  40.515  10.112
50690W        W19095  36.370   0.409  11.288
50691W        W19096  15.182  28.549   2.408
50692W        W19097  44.399  18.514   3.069
50693W        W19098   7.258  12.596  11.602
50694W        W19099   4.911   0.779   1.351
50695W        W19100  23.715  30.553  11.116
50696W        W19101  44.857   8.040  10.451
50697W        W19102  42.850  24.540   1.502
50698W        W19103   9.614   8.113  13.338
50699W        W19104  32.747  24.574  14.002
50700W        W19105  21.172  13.242   3.641
50701W        W19106  28.834  36.300  13.413
50702W        W19107  35.000  44.048  14.833
50703W        W19108  26.716  25.597   4.554
50704W        W19109   3.840  27.737   1.982
50705W        W19110   2.287  21.316   1.477
50706W        W19111  22.370  17.852   5.069
50707W        W19112  24.444  17.210   0.681
50708W        W19113   1.846  16.235  11.275
50709W        W19114  41.839   9.787  12.505
50710W        W19115  19.467  33.468  14.397
50711W        W19116   5.122   3.824  14.944
50712W        W19117  34.294   3.844   0.374
50713W        W19118  28.095  35.037   3.612
50714W        W19119  40.378  24.007  12.823
50715W        W19120  43.954  44.843   9.981
50716W        W19121  30.245   6.417   2.781
50717W        W19122  17.028  32.023   4.531
50718W        W19123  16.312   4.015   1.187
50719W        W19124  42.091  27.180   2.195
50720W        W19125  39.524  26.104  10.314
50721W        W19126  30.210  15.819   0.915
50722W        W19127   8.862  22.606  12.779
50723W        W19128  39.875   3.525  14.899
50724W        W19129  21.035  30.913  12.399
50725W        W19130  28.582  27.469  14.676
50726W        W19131  40.678  15.574   1.478
50727W        W19132  29.527  22.725   3.746
50728W        W19133   1.412  35.445   1.965
50729W        W19134  43.062  44.408   2.953
50730W        W19135   5.713  38.858   4.115
50731W        W19136  40.140  32.019   1.184
50732W        W19137  38.567  16.232   4.493
50733W        W19138  20.304  22.750  11.412
50734W        W19139  35.055   0.048  14.821
50735W        W19140  11.179  40.635   3.642
50736W        W19141  39.302  37.016  12.861
50737W        W19142   2.073  30.069  14.729
50738W        W19143   0.174  16.893  10.647
50739W        W19144   9.924  10.040   3.706
50740W        W19145  44.291  32.836   2.840
50741W        W19146  22.131  42.264  12.568
50742W        W19147  20.535   0.872   0.720
50743W        W19148  15.514  30.397  14.920
50744W        W19149   6.645  27.690   4.901
50745W        W19150  23.952  34.513   3.605
50746W        W19151  43.873  26.566   1.808
50747W        W19152  19.112  18.076   1.940
50748W        W19153  12.290  38.534  13.636
50749W        W19154   0.954  17.536   2.389
50750W        W19155  28.439  22.686   1.696
50751W        W19156  40.217  12.764   0.465
50752W        W19157   6.409  30.420  11.506
50753W        W19158  37.876  28.234  12.478
50754W        W19159  30.112  17.229   1.742
50755W        W19160   7.910  36.400   1.668
50756W        W19161   9.241  40.870   3.735
50757W        W19162  27.686  16.716   0.924
50758W        W19163  31.122  42.454  14.486
50759W        W19164   5.868  39.154  11.591
50760W        W19165  40.815   3.387   3.251
50761W        W19166  14.637   9.722   4.670
50762W        W19167  23.215   9.921  13.267
50763W        W19168  18.670  25.764   1.493
50764W        W19169  36.635  35.063  13.571
50765W        W19170  19.172  39.060  13.836
50766W        W19171   3.337  18.951  10.875
50767W        W19172   3.165  44.784   3.903
50768W        W19173   8.245  43.293   0.694
50769W        W19174  38.446  41.282  13.063
50770W        W19175  30.452  26.895   4.496
50771W        W19176   3.642  10.092   1.221
50772W        W19177  27.128  29.110   4.649
50773W        W19178  32.969  33.000   3.205
50774W        W19179  16.561   9.781  11.457
50775W        W19180   4.432  20.057   0.920
50776W        W19181  19.608  41.314  11.948
50777W        W19182   4.932  37.047   2.837
50778W        W19183  44.265  11.280   3.639
50779W        W19184  43.453  28.620   3.874
50780W        W19185  10.146  14.225  12.382
50781W        W19186  19.859  25.117   4.770
50782W        W19187  32.357  23.550   0.842
50783W        W19188  16.753   1.781   3.736
50784W        W19189  25.953  31.724  13.669
50785W        W19190  25.226  12.785   0.009
50786W        W19191   4.713  32.539   1.309
50787W        W19192  38.393  15.194   4.543
50788W        W19193  15.276  21.024  11.955
50789W        W19194  32.406  39.612   1.798
50790W        W19195  24.071  15.695   4.135
50791W        W19196   1.518  24.862   0.987
50792W        W19197   6.350  39.394  11.666
50793W        W19198  24.024  43.957  10.411
50794W        W19199  12.447  12.545  12.079
50795W        W19200  42.202   3.668   0.941
50796W        W19201   3.426  35.076  11.648
50797W        W19202  10.034  25.238  12.154
50798W        W19203  14.713  17.757   3.601
50799W        W19204  28.335  41.064  14.496
50800W        W19205  14.247  44.494  14.346
50801W        W19206  27.614  16.149   3.640
50802W        W19207   2.441  29.464  11.541
50803W        W19208  32.118   0.420  10.165
50804W        W19209  25.465  22.343   3.294
50805W        W19210  38.995  23.043   2.182
50806W        W19211   5.250  26.997   0.741
50807W        W19212  24.613  42.238  12.566
50808W        W19213  17.163   7.740   1.500
50809W        W19214  12.828  35.928   4.325
50810W        W19215  12.079  29.101  14.979
50811W        W19216  38.617   9.438   0.788
50812W        W19217   7.430  35.210   2.286
50813W        W19218  16.698   2.700   0.862
50814W        W19219   5.418  40.954  12.203
50815W        W19220  15.790   2.945   3.694
50816W        W19221   0.803  33.607  12.085
50817W        W19222  28.419  10.410  11.856
50818W        W19223  40.675  23.141  14.053
50819W        W19224   2.455  32.968   2.431
50820W        W19225  31.726  37.417   1.969
50821W        W19226  17.461   9.861   3.664
50822W        W19227   5.978  23.124   1.759
50823W        W19228  38.553  36.584   0.870
50824W        W19229  20.553  42.793  12.400
50825W        W19230  21.491  16.524  11.560
50826W        W19231   0.940  37.275   0.882
50827W        W19232  39.268   8.709   2.157
50828W        W19233  23.990  12.309   2.771
50829W        W19234  44.909  26.638   1.858
50830W        W19235  23.171   4.235  12.620
50831W        W19236   2.357  31.213   0.728
50832W        W19237  15.191  32.897   1.401
50833W        W19238  40.798  19.005   0.207
50834W        W19239  24.394   0.948  10.684
50835W        W19240  28.673  20.090  11.202
50836W        W19241  12.927  24.534   2.856
50837W        W19242  16.687  12.681   2.606
50838W        W19243  12.801   4.646   2.299
50839W        W19244  32.606  31.466   3.805
50840W        W19245  39.055   6.178   3.977
50841W        W19246  32.828   7.328   0.297
50842W        W19247  39.763  36.024   0.350
50843W        W19248  40.737   7.643  14.114
50844W        W19249  29.879  38.326   3.086
50845W        W19250  44.357   3.473   3.180
50846W        W19251  28.528  36.570   1.195
50847W        W19252  22.677   8.141  13.321
50848W        W19253  29.009  31.824  12.474
50849W        W19254  31.186  18.572   0.811
50850W        W19255  33.497  18.362   2.352
50851W        W19256  27.138   0.773  13.036
50852W        W19257  34.966  25.020  13.692
50853W        W19258  13.580  32.586  10.236
50854W        W19259  28.537  18.782   1.331
50855W        W19260  40.343  26.824   3.535
50856W        W19261  12.167  26.690  12.833
50857W        W19262  26.953  41.314  12.561
50858W        W19263  18.532  25.273   1.318
50859W        W19264  34.818  41.334   0.179
50860W        W19265  15.129  20.083  12.795
50861W        W19266  39.078  23.176  11.520
50862W        W19267  34.006   6.461   2.832
50863W        W19268   1.527  17.045  14.295
50864W        W19269  21.326   3.289   2.380
50865W        W19270  10.738  26.022  13.595
50866W        W19271  32.133  14.811   2.788
50867W        W19272  39.797   0.137  12.048
50868W        W19273   8.237  37.133  13.539
50869W        W19274  29.009  14.577   3.755
50870W        W19275   3.651  26.290  13.109
50871W        W19276   7.813  43.372   4.202
50872W        W19277  21.250  35.136   3.276
50873W        W19278   0.849  43.660  13.574
50874W        W19279  10.011  36.433   4.984
50875W        W19280  25.912   7.449   1.226
50876W        W19281  22.502  42.544   3.134
50877W        W19282  16.134  32.382   1.324
50878W        W19283  38.693   6.469   5.404
50879W        W19284  15.096   7.233   1.868
50880W        W19285  20.543  21.978   2.188
50881W        W19286   2.734  39.786  14.925
50882W        W19287  42.237  21.459  10.650
50883W        W19288   0.216  35.544   0.596
50884W        W19289   9.234  20.556   0.911
50885W        W19290  41.081  31.110  12.116
50886W        W19291   0.300  23.909   2.598
50887W        W19292  26.337   6.245   1.000
50888W        W19293   4.790  21.834   1.423
50889W        W19294  23.556  34.541   0.790
50890W        W19295   5.355   7.836  13.565
50891W        W19296   6.311   2.799   3.901
50892W        W19297  14.675   7.220   0.260
50893W        W19298  20.514   5.432   3.727
50894W        W19299  13.648  40.032  10.404
50895W        W19300  15.388  27.127   1.375
50896W        W19301  43.001  38.984   4.174
50897W        W19302  14.275   3.434   0.429
50898W        W19303  33.660  10.258  14.003
50899W        W19304   9.146  24.052   1.779
50900W        W19305  33.974  37.124  12.086
50901W        W19306  42.051  12.332   3.241
50902W        W19307  43.658  38.818  11.915
50903W        W19308  10.409  33.629   5.244
50904W        W19309  27.016  42.061  12.808
50905W        W19310  18.690  11.726   0.285
50906W        W19311  25.482  43.796   2.896
50907W        W19312  40.953  13.235   0.589
50908W        W19313  16.805  40.249   0.290
50909W        W19314   4.954  31.900  12.962
50910W        W19315  18.994   6.467   2.146
50911W        W19316  42.994  29.319  12.068
50912W        W19317   5.132  10.781  10.761
50913W        W19318   6.358  33.764   2.367
50914W        W19319  21.704  29.922  11.598
50915W        W19320   8.373  17.616   0.980
50916W        W19321   4.688  30.677  12.640
50917W        W19322  33.207   4.366   3.647
50918W        W19323  24.830  15.809   1.273
50919W        W19324  22.386  14.826  11.487
50920W        W19325  44.867  10.659   0.635
50921W        W19326  30.050  35.531  13.044
50922W        W19327  25.915  17.157  14.719
50923W        W19328   3.676  12.666   4.820
50924W        W19329   1.397   0.821   0.422
50925W        W19330  34.971  18.500  12.560
50926W        W19331  36.000  22.437   4.555
50927W        W19332   9.900   9.341  10.681
50928W        W19333  28.377   8.600   4.673
50929W        W19334  28.086  14.325  10.941
50930W        W19335  33.106  39.002   0.254
50931W        W19336  40.377  17.978   3.361
50932W        W19337  10.405  16.275   1.505
50933W        W19338   2.446  27.143   4.100
50934W        W19339  33.348  28.561  11.027
50935W        W19340  36.713  42.743  12.322
50936W        W19341  36.327  24.035   0.500
50937W        W19342  28.212  23.037   3.639
50938W        W19343  18.747   1.868   0.855
50939W        W19344  37.493  28.587  12.457
50940W        W19345  16.571  11.605  13.725
50941W        W19346  21.262  44.352   2.766
50942W        W19347  26.669   0.987  13.056
50943W        W19348  16.381  29.894  12.914
50944W        W19349  24.032   8.862   2.725
50945W        W19350  44.338  23.685   3.615
50946W        W19351   6.670  23.041  12.116
50947W        W19352  35.099  37.826   2.177
50948W        W19353  37.408  22.756   1.386
50949W        W19354   7.160  36.535   2.206
50950W        W19355  38.433  31.011   2.975
50951W        W19356   4.403  16.233  10.986
50952W        W19357  40.809   5.485   2.364
50953W        W19358  42.266  38.537  14.694
50954W        W19359  42.915  34.923  14.361
50955W        W19360   3.753  36.786   4.150
50956W        W19361   5.038   6.171   9.832
50957W        W19362  30.660  39.549   1.049
50958W        W19363  22.251   2.251   3.693
50959W        W19364  44.746  22.676  11.435
50960W        W19365  31.588  24.358   3.108
50961W        W19366  14.158  29.652  11.198
50962W        W19367   8.404   1.807   2.883
50963W        W19368  37.111  23.601  10.521
50964W        W19369   1.852  23.686  13.974
50965W        W19370   8.378  38.075   1.977
50966W        W19371  14.565  11.110  12.476
50967W        W19372  33.178  14.107   1.337
50968W        W19373  11.143  28.317   2.578
50969W        W19374  33.579   8.246  14.670
50970W        W19375   7.237  10.460   4.998
50971W        W19376  30.664  35.588  12.140
50972W        W19377  33.618  39.930  13.981
50973W        W19378  23.131  29.226   3.141
50974W        W19379  37.091   6.648  10.301
50975W        W19380  20.317  16.977  11.132
50976W        W19381  19.300  40.845   0.342
50977W        W19382  11.369   7.435   2.836
50978W        W19383  28.693  16.297   2.707
50979W        W19384  14.056   0.341  13.042
50980W        W19385  19.971  22.736   0.604
50981W        W19386  41.752   7.663   4.091
50982W        W19387  13.051  43.992   3.477
50983W        W19388  11.641  31.085  14.338
50984W        W19389   2.368   8.320  13.226
50985W        W19390  41.504   8.601   0.394
50986W        W19391  34.812  11.722  11.629
50987W        W19392  21.432  30.622  12.018
50988W        W19393  24.694  10.687  13.300
50989W        W19394   7.839  15.348   1.337
50990W        W19395  16.641  12.388  14.804
50991W        W19396  26.977   6.253   0.351
50992W        W19397  14.194  43.961  14.111
50993W        W19398  34.422  14.491  13.338
50994W        W19399   2.167  33.500   0.620
50995W        W19400  16.533  17.301  11.528
50996W        W19401  26.405  31.060  12.388
50997W        W19402  24.491  21.167   3.000
50998W        W19403  25.362   3.218   3.161
50999W        W19404  40.095  23.680   4.899
51000W        W19405  16.095  27.987  12.536
51001W        W19406  43.012  37.094  12.279
51002W        W19407  33.691  16.883  11.714
51003W        W19408  29.395  42.086   3.253
51004W        W19409  21.103  17.818  13.920
51005W        W19410  41.862  23.993   0.355
51006W        W19411  39.123  44.742  14.289
51007W        W19412  31.615  25.638  13.908
51008W        W19413  32.832  27.460  11.590
51009W        W19414  22.511   0.820   2.121
51010W        W19415   2.928  31.905   0.849
51011W        W19416  22.464  44.893   2.361
51012W        W19417  16.692  32.923  12.496
51013W        W19418   4.383  16.814   2.627
51014W        W19419  30.643  39.053   2.896
51015W        W19420   8.696  14.609   9.980
51016W        W19421   6.310  34.389  10.803
51017W        W19422   0.748  34.870  14.650
51018W        W19423  38.010   5.587  14.402
51019W        W19424  24.174  21.040  10.714
51020W        W19425   3.038  17.853   3.355
51021W        W19426   4.234  24.480   2.976
51022W        W19427   6.719  14.657   3.827
51023W        W19428  44.245   4.934   0.851
51024W        W19429  39.056  17.066  11.570
51025W        W19430  38.670   5.251  11.202
51026W        W19431   7.619  16.792  14.401
51027W        W19432   1.377   4.871   4.612
51028W        W19433  16.751  29.227   2.355
51029W        W19434  38.903  13.258  13.083
51030W        W19435   8.507  16.160   2.807
51031W        W19436  43.040  13.476  11.856
51032W        W19437  38.972   8.588  12.437
51033W        W19438  21.281   3.667  13.111
51034W        W19439  27.676  23.309   0.405
51035W        W19440  42.692   9.946   1.448
51036W        W19441  41.112   6.045   1.169
51037W        W19442   4.193  30.499   2.839
51038W        W19443  35.369  25.931   2.512
51039W        W19444   5.080   6.523  14.663
51040W        W19445  41.481   8.212  12.971
51041W        W19446  11.344  21.235  13.086
51042W        W19447  21.739   5.103   1.812
51043W        W19448   7.793  44.551   0.361
51044W        W19449  13.581  39.547   4.131
51045W        W19450  15.797   0.734   2.536
51046W        W19451  12.109  37.533  13.901
51047W        W19452   9.034  29.585   4.071
51048W        W19453   5.443   9.522  13.544
51049W        W19454   2.112  28.109  14.930
51050W        W19455   4.892  16.980   0.392
51051W        W19456  16.300  44.485  13.764
51052W        W19457  26.185  43.300   3.168
51053W        W19458  44.761   3.002  12.872
51054W        W19459  38.862   9.334  13.027
51055W        W19460  20.048  43.910  12.324
51056W        W19461  44.092  36.874   4.685
51057W        W19462  27.192   8.921   2.184
51058W        W19463  14.205  12.788   0.032
51059W        W19464  30.622  30.464  14.103
51060W        W19465  38.524   8.445  12.064
51061W        W19466  18.611  31.547   0.345
51062W        W19467  25.338  11.342   3.239
51063W        W19468  14.496  44.040  10.514
51064W        W19469  19.769  21.541   4.139
51065W        W19470  41.786  13.352   0.037
51066W        W19471  26.072  23.004   0.059
51067W        W19472  32.151   4.381  14.563
51068W        W19473  15.271  23.258  12.511
51069W        W19474   4.872  29.214   5.183
51070W        W19475  41.943  14.166   1.406
51071W        W19476  27.484  10.217   4.598
51072W        W19477  23.648  14.999   3.234
51073W        W19478  39.003  29.659  13.967
51074W        W19479   6.674  32.655   0.276
51075W        W19480  31.443  28.582  11.617
51076W        W19481  29.375  18.744  14.138
51077W        W19482  34.390  36.502   4.204
51078W        W19483  35.627  15.104  14.285
51079W        W19484  14.256   2.077   3.883
51080W        W19485  13.344  41.614  11.040
51081W        W19486   3.182  41.002  13.829
51082W        W19487  15.729  15.773  14.708
51083W        W19488  22.944  35.194  11.154
51084W        W19489  44.277   9.926  11.652
51085W        W19490  23.654  33.657  14.384
51086W        W19491  10.098  29.482  11.624
51087W        W19492   4.292  22.412  12.619
51088W        W19493  29.382   9.790   2.250
51089W        W19494   6.828  38.051   2.580
51090W        W19495   7.663   4.933   3.735
51091W        W19496   2.886   5.393   3.264
51092W        W19497   2.098  31.082   1.195
51093W        W19498  41.313  43.311  11.503
51094W        W19499  10.657   9.174   4.246
51095W        W19500  12.908  20.339  14.820
51096W        W19501   2.813   2.902  13.924
51097W        W19502  24.186  37.929  10.708
51098W        W19503   4.094  32.022  12.529
51099W        W19504  34.752   6.811   1.363
51100W        W19505  20.140  17.442  13.860
51101W        W19506  36.031  30.769   4.091
51102W        W19507  18.308  10.270   2.778
51103W        W19508  24.107  32.610   1.312
51104W        W19509   2.482  43.467   1.764
51105W        W19510  15.331  37.529  14.032
51106W        W19511   7.343   4.715  14.772
51107W        W19512  21.206  43.391  14.986
51108W        W19513  26.593  22.089   4.187
51109W        W19514  23.624  26.719  14.339
51110W        W19515  21.311   3.807  12.159
51111W        W19516   7.743   8.871   4.593
51112W        W19517  12.829  17.225  12.824
51113W        W19518  27.704   2.064  12.921
51114W        W19519  37.544  17.604  11.186
51115W        W19520  18.042  30.540   4.560
51116W        W19521   1.135  36.468   4.246
51117W        W19522  41.831  18.611  11.139
51118W        W19523  37.904   1.335   1.275
51119W        W19524  37.823  19.174  13.581
51120W        W19525  30.444  13.584   0.806
51121W        W19526  15.678  39.353  13.779
51122W        W19527  19.076  32.354   3.132
51123W        W19528  35.014  16.019  10.660
51124W        W19529  12.323  19.492  12.362
51125W        W19530  30.054   9.447  12.926
51126W        W19531  11.276  28.967  13.351
51127W        W19532  24.379  12.355   1.862
51128W        W19533  15.007   5.889  14.106
51129W        W19534  19.130   6.639   0.245
51130W        W19535  29.254   8.413   2.885
51131W        W19536  17.087  28.432   3.821
51132W        W19537  39.929   8.437  13.599
51133W        W19538  43.364  11.262  12.916
51134W        W19539  13.564  34.639   3.201
51135W        W19540  20.598   4.965  14.453
51136W        W19541  19.485   0.526   2.355
51137W        W19542  40.805  24.960   1.925
51138W        W19543   3.906  27.610   0.957
51139W        W19544   5.134  30.551   5.148
51140W        W19545   2.053  22.033   0.266
51141W        W19546  41.867   5.970  10.926
51142W        W19547  34.462  36.405   0.380
51143W        W19548   3.978  22.571   2.147
51144W        W19549   6.281  23.234  10.858
51145W        W19550  11.557  23.305  12.638
51146W        W19551  33.937  24.456  14.882
51147W        W19552   5.938  21.513  12.464
51148W        W19553  29.953   7.370  10.797
51149W        W19554  24.060  22.631  11.924
51150W        W19555  10.264  15.796   2.382
51151W        W19556   7.883   1.924   1.135
51152W        W19557  39.796  29.568   2.384
51153W        W19558  16.330  39.134  11.059
51154W        W19559  41.273   0.889   1.350
51155W        W19560   4.379  22.988   1.670
51156W        W19561  36.427  14.107   0.070
51157W        W19562  44.151  31.048   2.772
51158W        W19563  35.982  13.107   2.813
51159W        W19564  40.641   2.602  12.658
51160W        W19565  44.502  34.496  10.669
51161W        W19566  39.854   7.682   3.736
51162W        W19567  19.985  10.552   3.650
51163W        W19568   7.907  23.077   3.796
51164W        W19569   1.212   5.349   1.881
51165W        W19570  13.185  42.499   3.286
51166W        W19571  28.029  31.930   2.883
51167W        W19572  38.491  29.550  11.362
51168W        W19573  18.171  40.437   4.185
51169W        W19574   4.706   9.696  13.015
51170W        W19575  20.174  35.829  12.826
51171W        W19576  22.614  14.022  10.332
51172W        W19577   5.270   7.143   0.822
51173W        W19578  27.202   4.877   2.251
51174W        W19579  24.549  20.155   1.279
51175W        W19580  27.444   8.664  13.825
51176W        W19581  40.261   4.035   3.740
51177W        W19582   0.268  42.057  13.026
51178W        W19583   2.287  17.869   0.198
51179W        W19584   9.302  19.625   4.049
51180W        W19585  42.855  43.254  10.434
51181W        W19586   2.256   5.458   3.906
51182W        W19587  15.169  29.724   4.759
51183W        W19588  29.959  38.430   2.586
51184W        W19589   0.855  38.599  10.740
51185W        W19590  42.483  21.012   4.239
51186W        W19591  35.686  19.176  12.479
51187W        W19592  18.251  22.462  11.142
51188W        W19593   4.705  35.920  14.362
51189W        W19594   6.925  40.887  11.725
51190W        W19595  31.987  16.625   1.646
51191W        W19596  44.737  44.688   1.395
51192W        W19597  29.033   9.837  12.908
51193W        W19598  20.077  18.622   3.139
51194W        W19599  38.429   7.370  14.818
51195W        W19600  38.143  20.099   1.773
51196W        W19601   8.116  26.964   0.753
51197W        W19602  41.344   5.176   0.516
51198W        W19603  38.968  19.866  11.950
51199W        W19604  22.209  12.146   3.372
51200W        W19605  41.955   6.436   3.642
51201W        W19606  33.978  36.421   3.873
51202W        W19607  24.758  31.649  12.430
51203W        W19608  25.170  41.934   0.456
51204W        W19609   3.815  26.968   2.486
51205W        W19610   2.401   5.636  10.577
51206W        W19611  11.213   9.792   1.683
51207W        W19612  10.848  32.697  11.508
51208W        W19613   1.861  22.341   1.576
51209W        W19614   6.793   1.359   4.111
51210W        W19615  11.070  17.196  11.034
51211W        W19616  44.055  37.342  13.347
51212W        W19617   8.810  35.026   4.707
51213W        W19618   0.375  29.177  14.993
51214W        W19619  16.263  36.892  11.663
51215W        W19620  24.971  16.326  12.520
51216W        W19621   0.087  41.471   3.134
51217W        W19622   8.267  18.309   1.718
51218W        W19623   8.451  44.916  12.865
51219W        W19624  22.764  22.701  10.538
51220W        W19625   9.356   2.437  13.035
51221W        W19626  11.906  43.979  11.167
51222W        W19627  15.017  43.992  10.599
51223W        W19628  24.113  24.235  12.414
51224W        W19629  10.545  16.288  11.116
51225W        W19630  43.301  15.553  12.054
51226W        W19631  30.657  36.416  11.739
51227W        W19632  11.251  41.443  11.348
51228W        W19633  42.752  34.787   4.130
51229W        W19634  22.035  37.388   4.471
51230W        W19635  19.888   0.951   4.970
51231W        W19636  36.098  22.128  10.984
51232W        W19637   5.679   8.523   1.659
51233W        W19638  28.423  14.114  13.919
51234W        W19639  44.938  32.368   1.445
51235W        W19640  19.688  16.269  11.222
51236W        W19641  37.318   7.259   4.163
51237W        W19642  25.262  19.141  14.643
51238W        W19643   8.191  23.955   0.921
51239W        W19644   7.614  26.407   5.086
51240W        W19645   0.818  18.751   0.896
51241W        W19646   3.255   2.524   3.768
51242W        W19647  41.378  39.474  12.911
51243W        W19648  22.446  35.895   3.910
51244W        W19649  10.078  16.299   3.678
51245W        W19650  16.661  15.270   0.392
51246W        W19651   4.372   6.675   2.173
51247W        W19652  31.140  42.245  12.575
51248W        W19653  35.589  27.086   1.985
51249W        W19654  44.204  31.613  14.888
51250W        W19655  38.438  12.124   0.436
51251W        W19656  23.036  24.673   3.157
51252W        W19657  19.737  17.287   3.298
51253W        W19658  20.036  20.027  12.287
51254W        W19659  30.932  18.576   1.284
51255W        W19660   0.338  33.373  12.355
51256W        W19661  16.400  34.667   4.964
51257W        W19662   3.781  40.566   4.783
51258W        W19663  28.992  18.150  11.996
51259W        W19664  31.124  21.161  11.506
51260W        W19665  18.042  29.027   3.599
51261W        W19666  15.545  31.362   4.600
51262W        W19667  31.161  38.868  12.415
51263W        W19668  35.141  30.614  13.446
51264W        W19669  28.184  41.904   2.311
51265W        W19670   1.426  30.188  11.187
51266W        W19671  33.545  19.849   0.119
51267W        W19672  10.163  30.074  12.843
51268W        W19673   1.312  29.768  12.995
51269W        W19674  37.272   4.587   3.646
51270W        W19675  26.934  21.738  13.153
51271W        W19676  12.117  39.886   1.858
51272W        W19677  37.388  20.605  13.850
51273W        W19678  35.942  21.301   1.717
51274W        W19679   3.244  27.005   0.962
51275W        W19680   4.143   7.217  10.723
51276W        W19681  31.744  19.044   3.434
51277W        W19682   3.170  43.839  13.995
51278W        W19683  32.158  25.672  14.364
51279W        W19684  25.901  36.996  14.774
51280W        W19685  39.356  12.159  10.997
51281W        W19686  23.093  41.328  14.545
51282W        W19687  35.385  26.668   1.197
51283W        W19688  44.879  35.563   1.836
51284W        W19689  33.392  13.098   4.193
51285W        W19690  35.094  41.908  12.497
51286W        W19691   1.966  34.530   4.356
51287W        W19692  29.106   6.216  11.069
51288W        W19693  36.562  44.394  13.895
51289W        W19694  14.722  11.655   0.851
51290W        W19695  11.556  36.949  13.931
51291W        W19696  21.875  34.545  14.746
51292W        W19697  43.350  39.412  12.394
51293W        W19698  13.605   3.170   5.514
51294W        W19699  27.993  10.597  10.785
51295W        W19700  32.355  10.631   2.796
51296W        W19701  14.418  27.185   4.198
51297W        W19702  35.865  41.829   0.263
51298W        W19703   7.990   2.888  12.508
51299W        W19704  15.136  23.876  12.058
51300W        W19705  17.333  44.335   1.780
51301W        W19706   0.653  35.093  14.183
51302W        W19707   1.244  29.943   1.245
51303W        W19708  41.694  11.827  13.445
51304W        W19709  15.108  27.420  14.114
51305W        W19710  21.761  12.724   3.669
51306W        W19711  15.573  35.496   4.200
51307W        W19712   2.425  17.199  12.582
51308W        W19713  43.020   6.237   0.420
51309W        W19714  19.953   7.240  14.636
51310W        W19715   3.440  20.167  10.550
51311W        W19716  42.604  13.374   3.782
51312W        W19717  41.809  10.133  13.818
51313W        W19718  12.940  37.337   4.372
51314W        W19719  25.175   7.126  11.609
51315W        W19720  40.977  19.944  12.203
51316W        W19721  26.540  43.018   1.454
51317W        W19722  44.938  32.119   2.694
51318W        W19723  30.946  31.177   2.451
51319W        W19724  22.746  23.304  13.023
51320W        W19725  41.741  20.777  12.935
51321W        W19726  30.974   2.784  14.360
51322W        W19727  26.571  21.596   1.964
51323W        W19728   0.353  32.321  14.076
51324W        W19729   9.129  28.135   0.841
51325W        W19730  33.947  16.553  12.932
51326W        W19731  35.522  35.237   2.712
51327W        W19732  28.535  14.754   3.722
51328W        W19733  28.987  44.046   4.202
51329W        W19734  37.509  30.651   4.506
51330W        W19735  40.470  34.842   2.178
51331W        W19736  34.943  22.979  12.171
51332W        W19737  23.715  31.296   0.743
51333W        W19738  36.137  28.545  10.497
51334W        W19739  31.486  28.434   2.690
51335W        W19740  12.901  43.408  14.297
51336W        W19741  26.189  37.593  10.090
51337W        W19742  24.753  24.989   4.516
51338W        W19743  34.558  21.069  12.283
51339W        W19744   3.020  27.571  14.313
51340W        W19745   4.006  38.015  10.881
51341W        W19746  44.745  28.834  11.876
51342W        W19747  34.682  15.580  12.550
51343W        W19748  11.101  43.463   2.093
51344W        W19749  23.592   4.696   2.156
51345W        W19750  28.978  16.312   5.398
51346W        W19751  11.928  11.201  12.361
51347W        W19752  31.607  30.007   1.808
51348W        W19753   3.233  36.091  11.553
51349W        W19754  38.592  35.587  13.230
51350W        W19755   8.173   0.246   3.322
51351W        W19756  29.198  11.518   2.853
51352W        W19757  22.717  39.363  12.497
51353W        W19758   0.437   3.271   0.482
51354W        W19759  25.713   0.291   2.735
51355W        W19760  24.525  38.555  14.009
51356W        W19761  26.001  32.585   3.078
51357W        W19762   4.143   2.408  12.972
51358W        W19763  17.830   5.772  12.949
51359W        W19764  28.629  18.253  10.706
51360W        W19765  36.928  30.002   1.738
51361W        W19766  43.475  23.049   3.223
51362W        W19767   0.436  41.786  11.697
51363W        W19768  29.304  12.832   0.338
51364W        W19769   8.294  30.540  12.489
51365W        W19770   6.993  12.929   0.419
51366W        W19771  35.855   1.397  12.834
51367W        W19772  23.988  12.135  13.555
51368W        W19773  24.564   7.953  13.503
51369W        W19774  37.569  31.922   2.314
51370W        W19775  44.990  42.482   0.296
51371W        W19776  40.456  43.437  10.912
51372W        W19777   0.001   2.264   1.362
51373W        W19778  43.900  44.622  11.487
51374W        W19779  16.884  21.004   3.140
51375W        W19780   5.153   3.189   0.210
51376W        W19781  39.967  23.393  11.029
51377W        W19782  39.140  33.360  13.887
51378W        W19783  42.795  19.508  12.808
51379W        W19784  19.303  20.164   0.612
51380W        W19785  28.092  40.504  12.951
51381W        W19786  10.863  26.457   4.854
51382W        W19787  12.647  36.975   4.588
51383W        W19788   2.761  16.133  10.741
51384W        W19789  14.625  40.632  12.589
51385W        W19790  36.342  42.317   5.079
51386W        W19791  17.043  35.046   0.206
51387W        W19792  12.123  36.003   1.201
51388W        W19793   4.800  14.515  12.382
51389W        W19794  13.884  44.024   3.787
51390W        W19795  33.876  14.285  13.441
51391W        W19796  40.973   1.472   0.813
51392W        W19797  22.545  29.941   2.229
51393W        W19798  14.119   7.415  13.331
51394W        W19799  11.706   3.695   0.203
51395W        W19800  36.370  36.417   4.942
51396W        W19801  41.721   9.229  12.530
51397W        W19802  19.287  11.750   0.327
51398W        W19803  25.076   9.401  12.184
51399W        W19804   3.425  23.805  10.659
51400W        W19805  19.953  41.588   3.321
51401W        W19806   5.908  31.692   4.681
51402W        W19807  38.966  19.000  13.926
51403W        W19808  18.612  42.351   4.064
51404W        W19809  37.658  11.762  12.159
51405W        W19810   0.873   8.683  14.862
51406W        W19811  16.245  14.062  11.215
51407W        W19812  21.443   9.174   4.909
51408W        W19813   8.111  19.157  12.550
51409W        W19814  19.363  23.206   3.585
51410W        W19815   0.326  41.516  14.973
51411W        W19816  10.425  13.341   1.400
51412W        W19817  33.059  42.519   3.119
51413W        W19818  10.297  28.489  14.638
51414W        W19819  16.785   8.472  14.477
51415W        W19820   8.333  13.579   3.686
51416W        W19821  16.620  12.052   4.063
51417W        W19822  15.832  13.233  11.801
51418W        W19823   9.826  44.501   2.811
51419W        W19824  28.979  19.037  13.436
51420W        W19825   6.313  25.037  12.220
51421W        W19826   8.929  17.762  14.925
51422W        W19827  21.757  31.542  11.590
51423W        W19828  33.948  37.642  13.514
51424W        W19829  39.162  26.534   3.145
51425W        W19830  18.332  35.692   4.983
51426W        W19831  44.504   4.809   4.270
51427W        W19832  28.985  15.385  14.586
51428W        W19833  41.593   5.804   3.151
51429W        W19834  27.953   4.076   1.182
51430W        W19835  42.793  27.740   0.868
51431W        W19836  11.370  27.714   4.753
51432W        W19837  15.051  16.202   3.185
51433W        W19838   5.072  17.821   3.431
51434W        W19839  41.588  24.019   4.090
51435W        W19840  43.360  19.357   1.028
51436W        W19841   3.160  23.498   0.826
51437W        W19842   2.437  37.815   2.329
51438W        W19843  32.285  21.564  14.284
51439W        W19844  30.666  42.778   4.811
51440W        W19845  32.552   5.090  13.002
51441W        W19846  40.977   5.126  12.461
51442W        W19847  15.593  33.154  12.940
51443W        W19848   9.708  18.276   1.012
51444W        W19849  16.208  42.982  11.794
51445W        W19850  26.879   9.668  11.069
51446W        W19851  30.077  32.558  14.292
51447W        W19852  25.784  22.225  12.983
51448W        W19853  20.263  31.347   3.909
51449W        W19854  31.009  12.111   0.180
51450W        W19855  33.359  26.953   0.394
51451W        W19856   0.532  28.165  11.120
51452W        W19857  25.594   5.849  12.106
51453W        W19858  40.556  13.510   4.206
51454W        W19859  18.675  28.002  11.145
51455W        W19860  37.857  39.914  13.487
51456W        W19861   7.078  40.533   2.181
51457W        W19862   6.436  18.769   0.882
51458W        W19863  24.527  40.014  12.419
51459W        W19864   4.977  41.118  14.878
51460W        W19865  11.169  36.679  12.958
51461W        W19866  31.455   0.020   2.742
51462W        W19867  36.551  17.269   4.688
51463W        W19868  42.405  41.938   3.989
51464W        W19869   6.053  40.371   4.190
51465W        W19870  33.084   9.866  12.797
51466W        W19871   1.465  42.319   2.351
51467W        W19872   3.386  25.621   0.037
51468W        W19873  10.342  39.603  11.160
51469W        W19874   3.835  25.368  14.270
51470W        W19875   6.711  43.338   3.200
51471W        W19876  25.701   5.597   3.161
51472W        W19877   4.478  42.738  10.860
51473W        W19878  13.862  26.013   1.737
51474W        W19879  27.702   9.198   4.558
51475W        W19880  36.590   1.957  14.946
51476W        W19881  34.249  11.347  12.006
51477W        W19882   9.061  36.478   3.127
51478W        W19883  20.268  28.110  10.956
51479W        W19884  26.142  41.321   1.563
51480W        W19885  23.563  16.360  14.014
51481W        W19886  15.984  13.227   4.054
51482W        W19887  43.345  37.630  11.566
51483W        W19888  21.688  35.740  14.365
51484W        W19889  41.425  21.478  12.636
51485W        W19890  13.576   0.898   0.151
51486W        W19891   5.782   2.797   2.967
51487W        W19892  28.003  30.914  11.263
51488W        W19893  29.112  43.759  10.933
51489W        W19894  22.463  44.912   4.149
51490W        W19895  25.504  30.010   0.039
51491W        W19896  12.711  24.849  12.493
51492W        W19897  40.902  33.103  11.095
51493W        W19898  23.979  18.844  13.271
51494W        W19899  18.071  44.740   0.016
51495W        W19900   9.282  44.730   1.971
51496W        W19901  20.669  12.877  11.222
51497W        W19902  15.154  42.945  13.045
51498W        W19903  12.296  30.189  11.878
51499W        W19904  33.929  15.564  12.975
51500W        W19905  27.980  40.072   3.645
51501W        W19906  42.849  25.186   3.778
51502W        W19907  27.150  33.091   1.833
51503W        W19908  14.627  17.674  14.318
51504W        W19909  42.889  37.005  13.826
51505W        W19910  42.290  24.751   3.155
51506W        W19911  28.646  34.484   1.619
51507W        W19912  37.721   8.733  12.850
51508W        W19913   8.890  41.472  12.017
51509W        W19914  15.331  23.972   4.749
51510W        W19915  25.037  27.949  14.329
51511W        W19916  28.992  29.982  14.300
51512W        W19917  40.329  27.733  14.344
51513W        W19918  12.351  22.524   2.363
51514W        W19919  17.674   5.969   4.929
51515W        W19920  23.663  18.663   0.304
51516W        W19921  29.776  21.699  14.424
51517W        W19922  32.951  38.238   4.841
51518W        W19923  16.364   4.525   3.175
51519W        W19924  41.160  40.905  11.834
51520W        W19925  24.568  38.007  11.040
51521W        W19926   1.825  27.269   3.942
51522W        W19927   2.989   1.344   4.682
51523W        W19928   1.924  24.550   4.616
51524W        W19929   6.758   7.941   2.367
51525W        W19930  44.312  22.043  14.638
51526W        W19931  20.286   1.330   0.830
51527W        W19932  16.360  34.675  14.432
51528W        W19933  17.300   8.738   2.140
51529W        W19934  24.573  43.475   3.820
51530W        W19935  14.188  32.849  13.008
51531W        W19936  39.302  13.687   1.398
51532W        W19937  37.296  26.157  12.540
51533W        W19938   3.254  15.213  11.375
51534W        W19939  36.052   0.568   0.878
51535W        W19940  40.494  35.971  11.875
51536W        W19941  22.023   5.831   3.158
51537W        W19942  32.938  20.504   1.173
51538W        W19943   2.408  20.160  13.602
51539W        W19944   7.163  24.254   1.936
51540W        W19945  31.233  35.616  14.789
51541W        W19946  12.778  38.423  10.628
51542W        W19947  28.098  11.906  11.175
51543W        W19948  24.499   7.829  10.631
51544W        W19949  17.218  40.136   2.538
51545W        W19950  26.765   0.863  12.094
51546W        W19951  40.066  30.593  12.497
51547W        W19952  19.812  34.508   3.722
51548W        W19953  31.369  39.845  13.609
51549W        W19954  21.158  22.245  11.230
51550W        W19955  16.460  28.723   1.004
51551W        W19956  32.029  18.027  13.343
51552W        W19957  24.929  26.784   3.303
51553W        W19958  20.713   2.904  11.073
51554W        W19959  43.603  17.169   0.294
51555W        W19960  16.809  16.223   4.016
51556W        W19961   2.287   9.668  14.414
51557W        W19962   9.872  18.689  11.509
51558W        W19963  34.186   6.951  12.651
51559W        W19964   1.047  21.106   3.827
51560W        W19965  10.897  32.543   2.312
51561W        W19966  12.185  21.492   3.436
51562W        W19967  14.307  30.165   1.593
51563W        W19968  18.115  14.624  10.602
51564W        W19969  38.941  10.323  11.592
51565W        W19970   9.897  24.929  12.531
51566W        W19971   4.914  39.120  14.409
51567W        W19972  39.026   9.348   1.717
51568W        W19973  20.521  18.246  13.707
51569W        W19974  21.665   8.918  14.506
51570W        W19975  23.557  16.852  13.964
51571W        W19976  38.636   7.127  13.027
51572W        W19977  17.742  36.469   4.818
51573W        W19978  19.185  16.861  12.615
51574W        W19979  21.876  32.413   4.503
51575W        W19980  32.365   1.867  13.912
51576W        W19981  25.271  25.262   2.302
51577W        W19982  31.441  39.075   2.307
51578W        W19983  30.005   9.299   2.641
51579W        W19984  27.236  37.481  12.852
51580W        W19985  38.528  37.162  13.945
51581W        W19986   8.065   0.385   4.128
51582W        W19987  25.232  38.333  13.348
51583W        W19988  42.055  28.248  10.758
51584W        W19989  41.006  27.666  11.552
51585W        W19990  32.628  40.826   3.274
51586W        W19991  44.694  35.039  14.433
51587W        W19992   5.402   1.293  11.501
51588W        W19993  40.339  14.718  12.772
51589W        W19994  32.127  35.302  13.923
51590W        W19995   0.278   3.031   3.239
51591W        W19996   1.858  20.634   2.397
51592W        W19997  23.270  25.642  11.114
51593W        W19998  33.649   5.440  11.109
51594W        W19999  26.940  14.820   0.405
51595W        W20000  34.482   0.741  10.694
51596W        W20001  35.036  35.463  14.794
51597W        W20002  10.883   1.303  12.690
51598W        W20003  10.806  24.799  11.960
51599W        W20004  23.118   3.507  13.433
51600W        W20005  19.491   2.930   4.474
51601W        W20006  42.771  42.466  14.002
51602W        W20007  36.372   1.777  12.052
51603W        W20008  37.753   7.701   0.425
51604W        W20009  14.630  40.858  12.064
51605W        W20010  38.962  29.559  12.596
51606W        W20011  36.862  34.038   2.201
51607W        W20012  41.077  10.566   2.545
51608W        W20013  10.329  10.820  12.048
51609W        W20014  25.468   5.300  12.833
51610W        W20015   6.545  42.403   4.749
51611W        W20016  24.580  11.704  11.569
51612W        W20017  19.640  19.325  10.764
51613W        W20018  21.741  15.779   2.336
51614W        W20019  34.959   7.235  14.470
51615W        W20020  44.496  26.655  10.390
51616W        W20021  35.581  26.498   0.729
51617W        W20022  39.043  17.033   0.316
51618W        W20023  37.042   1.158  13.020
51619W        W20024  34.828  22.122   1.942
51620W        W20025   6.924   8.987  14.688
51621W        W20026   0.838  39.590  11.568
51622W        W20027  19.765  44.461  12.975
51623W        W20028  43.274  42.763  14.950
51624W        W20029  41.254  40.328   0.255
51625W        W20030  37.846  33.506  11.008
51626W        W20031  33.937  18.834   0.766
51627W        W20032  11.560  20.387  14.431
51628W        W20033   1.129  11.408  11.427
51629W        W20034  19.400  30.071   0.950
51630W        W20035  23.188  18.841  11.420
51631W        W20036  25.476  16.300  12.459
51632W        W20037   0.200  26.982  12.574
51633W        W20038  29.404  12.383  10.423
51634W        W20039   9.747  30.064  13.798
51635W        W20040   4.871  34.041   0.798
51636W        W20041   8.797  12.089  13.518
51637W        W20042   2.806  18.155   2.127
51638W        W20043  35.593  32.152   3.989
51639W        W20044  18.743  33.502   0.832
51640W        W20045  29.329  13.200  13.956
51641W        W20046  29.534  14.608  10.670
51642W        W20047  44.142   7.439  10.682
51643W        W20048  21.018  12.331  12.442
51644W        W20049  30.047   7.485  12.709
51645W        W20050   5.616  13.275   1.152
51646W        W20051  25.972   3.807  13.382
51647W        W20052  19.431  36.858  14.793
51648W        W20053  39.875  24.474   3.476
51649W        W20054   3.361  35.837   3.063
51650W        W20055  38.985  12.665   1.803
51651W        W20056  30.543  41.430  10.393
51652W        W20057  33.180  31.477  11.166
51653W        W20058  22.184  16.067   2.845
51654W        W20059   0.287  18.585   0.911
51655W        W20060   8.815  28.000  13.465
51656W        W20061  35.087  38.309   0.465
51657W        W20062  41.528  43.269   1.332
51658W        W20063  36.182  36.015  13.540
51659W        W20064   9.121  17.294  14.014
51660W        W20065  16.861  33.928  13.518
51661W        W20066   3.052  11.168  10.484
51662W        W20067   8.760  30.545   2.174
51663W        W20068  44.288  26.591   3.698
51664W        W20069   7.647  14.365  12.390
51665W        W20070   2.343  31.564   3.602
51666W        W20071  41.989  39.203   2.671
51667W        W20072  32.828   1.871  11.159
51668W        W20073  27.094  28.388   1.353
51669W        W20074  26.134  21.186  14.035
51670W        W20075  31.010  32.526  13.336
51671W        W20076  17.523  39.440  14.091
51672W        W20077  15.113  15.598   1.489
51673W        W20078  42.385  42.194  14.953
51674W        W20079   9.423  13.189   1.232
51675W        W20080  24.719  32.108  13.297
51676W        W20081  39.824   6.688   1.550
51677W        W20082  41.761  27.735   1.885
51678W        W20083  16.177   3.946  10.693
51679W        W20084  38.286  43.484  13.432
51680W        W20085  24.115  25.183   4.985
51681W        W20086  16.648  35.366   1.625
51682W        W20087  12.929  32.482   1.161
51683W        W20088  20.282  10.692  12.123
51684W        W20089  28.407  14.796   2.330
51685W        W20090  14.111  26.946  14.374
51686W        W20091  29.464  17.623  11.582
51687W        W20092   1.607  37.387  13.466
51688W        W20093  22.671  12.711   0.399
51689W        W20094  21.524  25.882  11.302
51690W        W20095  44.001   7.107  14.310
51691W        W20096   8.286  22.525  10.684
51692W        W20097  32.140  44.063   3.436
51693W        W20098  28.163  15.439   1.214
51694W        W20099  25.400  21.261   4.614
51695W        W20100  26.485  22.258  12.478
51696W        W20101   2.913  29.507  14.003
51697W        W20102  14.784   4.687  14.388
51698W        W20103  17.215   6.389  14.892
51699W        W20104  23.476  30.069   1.269
51700W        W20105  30.583  17.216   3.231
51701W        W20106  15.642   2.958   1.416
51702W        W20107  24.083  23.956   4.137
51703W        W20108  32.662  39.970   0.680
51704W        W20109   9.319  37.050   4.702
51705W        W20110  36.627  24.012   2.454
51706W        W20111  31.551  26.979  13.821
51707W        W20112  34.317  43.461  11.282
51708W        W20113  43.359  39.603   0.890
51709W        W20114   6.481  33.619  13.082
51710W        W20115  43.921  32.835   4.156
51711W        W20116   1.716   6.682  12.428
51712W        W20117  11.161  15.364  11.486
51713W        W20118  24.382   0.800  12.589
51714W        W20119   6.782  29.651   1.796
51715W        W20120  32.682  32.014  12.185
51716W        W20121  41.015  32.705  14.439
51717W        W20122   4.767  31.526   4.246
51718W        W20123  32.512  28.685  14.747
51719W        W20124   0.468  23.242  11.197
51720W        W20125  39.610  17.655   2.141
51721W        W20126  30.795  15.442   4.601
51722W        W20127  15.150   0.233  12.490
51723W        W20128  10.403   2.677  10.682
51724W        W20129  16.061  20.525  10.468
51725W        W20130  21.838  30.280  14.346
51726W        W20131  37.878  13.855   4.142
51727W        W20132  40.006  31.866  12.197
51728W        W20133  13.355  35.775  12.060
51729W        W20134  26.833   0.386  12.472
51730W        W20135  32.914  33.883  14.115
51731W        W20136   4.869  37.544   2.319
51732W        W20137  28.013  19.260  13.325
51733W        W20138  34.421  24.040  14.301
51734W        W20139  22.810  37.764  11.442
51735W        W20140   7.564  32.060   1.269
51736W        W20141  23.111  36.269  11.815
51737W        W20142  31.050   2.785   0.935
51738W        W20143   7.928  18.132   1.360
51739W        W20144   6.653  20.156  13.344
51740W        W20145   4.507  28.688   3.334
51741W        W20146  23.596   9.037  14.719
51742W        W20147  21.359  44.052  11.216
51743W        W20148  13.596   3.413   5.059
51744W        W20149  32.482   7.107  13.077
51745W        W20150  24.625  21.808  14.979
51746W        W20151  38.293   2.752   3.695
51747W        W20152  13.674  24.991   4.076
51748W        W20153  30.588  20.803   3.663
51749W        W20154   7.177  36.397  12.004
51750W        W20155  24.258  39.478  11.240
51751W        W20156  26.053  16.264  14.240
51752W        W20157  44.556  30.971   1.371
51753W        W20158  17.328   0.563  14.934
51754W        W20159  39.395  41.899   1.726
51755W        W20160  28.359  35.121  11.693
51756W        W20161  31.107   7.433   1.279
51757W        W20162  40.528  16.942   4.170
51758W        W20163  30.118  34.845   4.591
51759W        W20164  18.530  35.486  12.482
51760W        W20165  24.709  42.351  11.100
51761W        W20166  20.311   5.438  14.400
51762W        W20167  37.231  26.704   5.311
51763W        W20168  31.038  43.934  11.418
51764W        W20169  33.109  21.485   3.850
51765W        W20170  44.287  24.042   1.702
51766W        W20171  35.930  21.724  14.653
51767W        W20172  18.544  17.975   0.266
51768W        W20173  44.877  29.082  14.943
51769W        W20174  27.692  30.420   1.863
51770W        W20175  36.404  26.013  10.663
51771W        W20176  39.363  23.971  14.889
51772W        W20177  35.951   3.415   2.945
51773W        W20178  43.986  37.895   2.171
51774W        W20179  38.955  16.318   2.639
51775W        W20180  17.702   0.002   2.255
51776W        W20181  36.051  44.986  12.497
51777W        W20182  20.725  39.477  14.403
51778W        W20183  15.626   9.665   4.203
51779W        W20184  20.567  31.439  10.772
51780W        W20185   5.447  15.903   0.013
51781W        W20186   9.935  33.044  13.176
51782W        W20187  28.220   0.192  12.377
51783W        W20188  19.951  38.083  13.571
51784W        W20189  18.822  24.390   5.599
51785W        W20190  29.575   7.043  10.844
51786W        W20191  41.246  21.221   2.301
51787W        W20192  37.550  44.012   3.228
51788W        W20193  23.051  33.357   3.048
51789W        W20194  29.671  12.133   3.555
51790W        W20195  35.855  21.320  13.828
51791W        W20196   6.555  39.311   1.366
51792W        W20197  44.949  11.698   1.499
51793W        W20198   1.681  24.634   2.038
51794W        W20199  14.168  29.533  13.796
51795W        W20200  17.592   2.814  14.639
51796W        W20201  33.518  13.819  12.917
51797W        W20202  13.641  13.854  13.114
51798W        W20203   4.370  43.213  11.052
51799W        W20204  29.896   4.900   2.676
51800W        W20205  40.863   6.267  10.900
51801W        W20206  10.879   6.075  14.029
51802W        W20207  27.975  41.338  14.792
51803W        W20208  28.903   2.903   3.291
51804W        W20209  16.860  40.775   4.190
51805W        W20210  19.850  44.240  14.832
51806W        W20211  34.314  27.018  13.762
51807W        W20212  14.351  39.107   0.939
51808W        W20213  14.888  22.156   1.472
51809W        W20214  22.212  17.820  12.129
51810W        W20215  40.467  23.354   0.041
51811W        W20216  16.787   6.867  12.248
51812W        W20217  18.734  33.939   5.033
51813W        W20218  34.526  43.981   0.938
51814W        W20219  15.374  10.802   0.960
51815W        W20220   3.309  36.897  13.684
51816W        W20221  20.720  14.239  10.552
51817W        W20222   5.999   0.562   1.942
51818W        W20223  29.050  27.938  11.031
51819W        W20224  29.389  24.702   2.923
51820W        W20225  36.899  20.775  12.981
51821W        W20226  44.988  12.730   2.896
51822W        W20227  36.374  22.847  13.465
51823W        W20228  18.278  14.190  12.405
51824W        W20229  19.624  40.489   4.305
51825W        W20230  34.914  29.588  11.650
51826W        W20231  14.686  37.110  14.508
51827W        W20232   4.825  17.799   4.410
51828W        W20233   4.442   2.424  13.851
51829W        W20234  11.192  17.296  14.832
51830W        W20235  43.274   3.993  11.626
51831W        W20236  22.662  26.526  12.965
51832W        W20237   3.904   1.511   4.242
51833W        W20238  11.358  12.327   3.700
51834W        W20239  35.605  14.278   4.181
51835W        W20240  43.239  16.654   1.359
51836W        W20241  18.660  25.845   4.994
51837W        W20242  22.330  27.733   4.274
51838W        W20243  27.138  41.523  10.710
51839W        W20244  11.120  32.954   3.493
51840W        W20245  28.962  22.126  10.657
51841W        W20246  17.910   3.969  13.830
51842W        W20247  16.729   8.628   1.683
51843W        W20248   6.326  16.566  13.911
51844W        W20249  34.590  25.646  14.832
51845W        W20250  21.168  40.284   3.217
51846W        W20251   3.021  16.190  13.778
51847W        W20252  23.920  22.663   3.853
51848W        W20253  33.292   9.804  13.527
51849W        W20254  15.704  37.463   1.432
51850W        W20255  34.582  31.551  12.564
51851W        W20256  34.464   8.428   3.732
51852W        W20257  30.510  35.587   3.160
51853W        W20258  44.179   7.945  14.047
51854W        W20259  19.380  35.537   0.484
51855W        W20260  29.164  35.532  12.044
51856W        W20261   6.866  40.346   1.697
51857W        W20262  27.202  35.875   2.091
51858W        W20263  39.768  13.633  10.529
51859W        W20264  35.395  11.214   4.126
51860W        W20265   5.434  17.161  13.609
51861W        W20266  23.869  19.795   5.053
51862W        W20267  24.624  38.423   3.725
51863W        W20268  40.170  42.971  12.528
51864W        W20269  20.132   3.311  11.547
51865W        W20270  44.432  28.518   2.397
51866W        W20271  30.747  42.979   1.776
51867W        W20272  19.804  37.877  14.036
51868W        W20273  37.866  31.110  12.099
51869W        W20274  37.955  38.003   4.121
51870W        W20275  22.181  12.492   0.230
51871W        W20276  24.183  16.629  14.885
51872W        W20277   1.238   8.600   2.448
51873W        W20278   8.639   5.784  11.076
51874W        W20279  32.840  42.787  10.648
51875W        W20280  34.381  36.775  13.928
51876W        W20281  39.048   2.373  14.278
51877W        W20282  17.016   7.868  11.581
51878W        W20283  13.620   8.836   3.614
51879W        W20284   0.332  10.278   2.938
51880W        W20285   1.720  38.083   1.745
51881W        W20286  14.738  41.173  14.396
51882W        W20287  15.434   0.230  11.208
51883W        W20288  32.579  34.578  10.390
51884W        W20289  22.898   5.106  10.654
51885W        W20290   5.638  40.525  11.998
51886W        W20291  36.048  16.758  12.034
51887W        W20292   0.477  39.453   4.185
51888W        W20293  36.804  23.986   1.275
51889W        W20294  43.970  27.014  11.578
51890W        W20295  18.132   1.152   3.001
51891W        W20296  40.235  37.082   9.892
51892W        W20297  18.593   9.127  12.002
51893W        W20298   9.714  24.652   4.978
51894W        W20299  40.942  31.417   2.437
51895W        W20300   1.010  22.335  13.313
51896W        W20301   4.937  42.538  14.764
51897W        W20302  41.347  33.535   4.514
51898W        W20303  44.221  43.480   2.801
51899W        W20304  42.660   9.287   0.270
51900W        W20305   1.566   1.863   0.722
51901W        W20306  43.279  11.857  14.448
51902W        W20307  15.755  32.482  14.214
51903W        W20308   0.903  24.638  11.230
51904W        W20309  41.467  44.399  12.785
51905W        W20310  23.673  22.334   1.590
51906W        W20311  10.840  12.481   4.696
51907W        W20312  11.606  31.824  14.824
51908W        W20313  16.042   3.354   1.446
51909W        W20314   2.962   9.348  12.389
51910W        W20315  25.786  19.579  13.232
51911W        W20316  32.279  28.664  11.208
51912W        W20317  11.206   1.828   1.528
51913W        W20318   0.965  31.635  13.098
51914W        W20319  16.273  40.013   3.093
51915W        W20320  27.213  19.044  12.878
51916W        W20321  21.734  10.642  12.475
51917W        W20322  31.931   8.985  13.839
51918W        W20323  15.003  44.952  14.832
51919W        W20324  10.831  19.976  13.989
51920W        W20325   0.277  31.109   4.515
51921W        W20326  11.068  13.791   3.438
51922W        W20327  17.562  42.426   1.377
51923W        W20328   5.018  44.958   4.117
51924W        W20329  44.043  40.786   3.199
51925W        W20330   9.410  36.479  14.421
51926W        W20331   2.400  38.375  14.851
51927W        W20332  17.752  20.046   0.408
51928W        W20333  26.305  36.436   3.373
51929W        W20334  21.290  40.808   3.641
51930W        W20335  16.687   2.413   4.695
51931W        W20336  22.021  21.622   0.373
51932W        W20337  36.883  28.823  14.977
51933W        W20338  14.214  30.417  11.866
51934W        W20339  28.150  22.746  14.794
51935W        W20340  39.112   2.343   0.780
51936W        W20341   6.462  22.192   0.893
51937W        W20342   2.012  39.025   0.205
51938W        W20343  16.022  21.186  12.945
51939W        W20344   5.174  27.642  10.090
51940W        W20345  17.261  26.176  14.980
51941W        W20346  39.577  42.397  10.976
51942W        W20347  29.328   9.667  13.325
51943W        W20348  35.412  41.499  12.851
51944W        W20349  12.258  11.571  12.158
51945W        W20350  41.566  28.526   2.257
51946W        W20351  27.038  12.216  12.370
51947W        W20352  44.395   7.499   2.778
51948W        W20353   9.744  31.499  12.966
51949W        W20354  37.604  22.600   3.611
51950W        W20355  18.596  41.000   0.879
51951W        W20356  20.686  17.093   3.644
51952W        W20357  21.482  12.009  14.203
51953W        W20358  38.546  43.449   0.327
51954W        W20359  16.613  34.424  12.325
51955W        W20360  30.948  20.676  11.520
51956W        W20361  27.709  30.497   4.490
51957W        W20362  37.560  24.742  13.861
51958W        W20363  22.079   5.965  12.169
51959W        W20364  43.196   9.484   4.829
51960W        W20365  15.482  39.888  10.470
51961W        W20366  14.602   2.280  11.580
51962W        W20367   0.191   4.577  10.720
51963W        W20368  15.998   5.778  13.505
51964W        W20369  43.857  31.622   1.661
51965W        W20370  32.133  43.877  13.942
51966W        W20371  42.075  14.259  10.506
51967W        W20372  35.891   0.553   3.227
51968W        W20373  17.087  20.794  11.961
51969W        W20374  35.591  37.693  12.284
51970W        W20375  11.677  26.502  11.123
51971W        W20376  10.943  15.219   0.703
51972W        W20377  42.955  18.676  10.794
51973W        W20378  30.995  40.290  12.343
51974W        W20379  39.973  29.460   1.372
51975W        W20380   9.269  35.169  11.609
51976W        W20381  38.489  43.930   4.672
51977W        W20382  15.231  37.065  12.792
51978W        W20383  17.592  23.155  12.081
51979W        W20384  11.089  17.546   0.302
51980W        W20385   8.889   2.895   0.768
51981W        W20386  18.108  44.765  11.425
51982W        W20387  28.146  19.805   1.893
51983W        W20388  32.813  11.611  11.330
51984W        W20389  41.628  15.775   0.215
51985W        W20390   2.302  43.446  12.026
51986W        W20391   1.985  27.563  14.227
51987W        W20392   6.151  34.133  11.494
51988W        W20393   4.239  29.628   1.924
51989W        W20394  42.962  35.197  14.811
51990W        W20395  30.607  38.816  13.286
51991W        W20396  24.562   7.674   5.090
51992W        W20397  44.277  10.796   4.352
51993W        W20398  31.297  30.009  14.375
51994W        W20399  32.003  18.783   2.311
51995W        W20400  13.674  34.181  13.511
51996W        W20401  28.572  42.926   5.369
51997W        W20402  22.777   4.295  12.967
51998W        W20403  11.107  10.453  12.450
51999W        W20404  28.011  36.522   2.823
52000W        W20405   6.455   1.639   1.069
52001W        W20406  25.037   7.893   3.166
52002W        W20407  38.351  36.582  12.470
52003W        W20408   1.388  33.507  13.134
52004W        W20409  11.181   4.249  13.767
52005W        W20410  10.137  38.437   1.915
52006W        W20411  32.365  25.385  13.487
52007W        W20412   3.016  29.128   1.270
52008W        W20413  10.786  39.837   4.606
52009W        W20414  30.136  15.301  13.462
52010W        W20415  39.445   8.399  12.252
52011W        W20416   0.054  18.576   3.678
52012W        W20417  18.001   4.937  11.075
52013W        W20418  15.411  39.981   4.140
52014W        W20419  31.849   1.271  13.069
52015W        W20420  28.392  35.837  14.325
52016W        W20421  10.595   5.291  10.551
52017W        W20422  22.689  43.485   4.308
52018W        W20423  22.229  10.303  14.926
52019W        W20424  30.901  33.798   0.835
52020W        W20425  34.611  30.641  13.591
52021W        W20426   2.818   1.823   2.926
52022W        W20427  41.378  11.072  14.805
52023W        W20428  34.355  15.149   0.637
52024W        W20429  24.031  44.886   4.076
52025W        W20430  33.154  27.992   1.020
52026W        W20431  39.616  15.608   4.233
52027W        W20432  41.519  22.271  13.657
52028W        W20433   2.257  17.320  13.084
52029W        W20434  38.798  11.341  11.499
52030W        W20435   4.430   9.712   1.227
52031W        W20436  27.452  18.418   1.963
52032W        W20437  30.636   7.274   1.397
52033W        W20438  13.175  17.556  10.742
52034W        W20439  34.959  33.236   1.328
52035W        W20440  23.479  39.523   0.773
52036W        W20441  13.977  24.725   2.822
52037W        W20442   6.943   0.917  10.927
52038W        W20443  11.399   2.173  14.699
52039W        W20444  30.885  37.290  12.452
52040W        W20445  18.792  27.537  12.554
52041W        W20446   2.640  42.794   5.286
52042W        W20447  34.595   3.939   2.631
52043W        W20448  23.476  14.178   4.517
52044W        W20449  30.383  17.050  11.714
52045W        W20450   6.681  38.268   3.294
52046W        W20451  12.857  10.971  12.912
52047W        W20452  34.902  33.847  12.781
52048W        W20453  35.428  38.619  13.813
52049W        W20454  30.975  26.103   4.498
52050W        W20455  21.799  19.001  13.530
52051W        W20456  43.998  34.505  10.632
52052W        W20457  15.009  43.466   4.135
52053W        W20458  37.479  42.782  10.686
52054W        W20459  24.629  14.096   3.738
52055W        W20460   5.700  38.047   1.879
52056W        W20461  44.814  43.509   2.221
52057W        W20462  22.615  31.527   1.438
52058W        W20463  32.390  35.441  14.366
52059W        W20464   0.004  35.528  10.583
52060W        W20465  37.881  12.662  14.783
52061W        W20466  16.104  15.796  13.500
52062W        W20467  14.043  29.774  12.409
52063W        W20468  33.449  25.205  11.606
52064W        W20469  29.502  17.117   2.178
52065W        W20470  35.138  26.630   3.652
52066W        W20471  17.595  39.021  10.670
52067W        W20472   1.725  43.396   3.245
52068W        W20473  44.375  33.377  12.433
52069W        W20474  44.404  21.150   1.385
52070W        W20475  37.655  40.168   0.294
52071W        W20476   7.847  15.753  14.795
52072W        W20477  29.496  38.805  13.471
52073W        W20478  32.322  31.912  10.306
52074W        W20479  42.476   7.590  11.182
52075W        W20480  33.656  25.571  12.921
52076W        W20481  43.946   3.944   1.201
52077W        W20482  32.198  22.450   0.838
52078W        W20483  30.330  36.809   3.760
52079W        W20484  33.587  11.442  12.930
52080W        W20485  30.138   1.843   1.787
52081W        W20486   0.878  13.185  11.425
52082W        W20487  33.451   7.481  13.351
52083W        W20488   2.356  15.558  12.952
52084W        W20489  15.047  22.639   0.370
52085W        W20490   7.142  44.368   2.819
52086W        W20491  27.105  33.659  12.024
52087W        W20492  12.698  13.704  10.656
52088W        W20493   7.166   0.329  13.864
52089W        W20494  19.750  39.983   1.202
52090W        W20495  33.526  21.205  11.609
52091W        W20496  13.290  14.305   1.813
52092W        W20497   9.438  35.848  14.992
52093W        W20498  11.963  42.160  10.587
52094W        W20499  14.091  41.823   2.332
52095W        W20500  39.022  19.008   1.394
52096W        W20501  35.054  34.102  11.981
52097W        W20502  31.120  40.984   3.114
52098W        W20503  31.008  27.427  11.591
52099W        W20504  11.608  13.332  14.441
52100W        W20505  30.161  28.906   1.210
52101W        W20506  36.623  16.080   3.802
52102W        W20507   9.985   5.900   0.711
52103W        W20508   3.032  25.873   1.761
52104W        W20509  36.096   1.861   0.187
52105W        W20510  28.395  15.756   2.890
52106W        W20511  42.697  14.796   1.303
52107W        W20512   8.379   9.483  12.999
52108W        W20513  22.153  11.537  10.635
52109W        W20514  32.018   6.416   0.145
52110W        W20515   5.089  20.513  12.044
52111W        W20516  42.216  21.538   1.698
52112W        W20517  42.930  21.252  13.471
52113W        W20518  37.440  44.344  10.630
52114W        W20519  43.012  16.511   3.153
52115W        W20520  42.416   8.723   2.699
52116W        W20521  24.022  31.560  13.534
52117W        W20522  20.445  27.972  13.466
52118W        W20523  20.400  42.577  13.334
52119W        W20524  27.458  22.027   4.052
52120W        W20525  24.591  24.179   2.703
52121W        W20526   6.744  26.213   4.687
52122W        W20527  38.576  40.806   4.291
52123W        W20528  20.442  37.888  12.400
52124W        W20529  26.577  16.826   1.485
52125W        W20530  31.932  24.228   4.168
52126W        W20531  30.401  29.079   4.173
52127W        W20532  30.605  17.116  10.923
52128W        W20533  16.899   5.185   9.669
52129W        W20534  39.097  26.473  11.694
52130W        W20535  21.070  23.613  14.630
52131W        W20536   1.451  41.324  13.529
52132W        W20537   3.018  20.079   1.317
52133W        W20538  25.895   8.294   1.176
52134W        W20539  12.198  13.439   4.951
52135W        W20540  38.313  22.725   4.047
52136W        W20541  39.943  17.342  11.988
52137W        W20542   1.766   9.556   4.966
52138W        W20543  11.854   4.459  14.583
52139W        W20544   5.425  30.643  12.177
52140W        W20545  34.468   1.897  12.579
52141W        W20546  40.923   3.206   0.454
52142W        W20547  12.116  42.050  14.476
52143W        W20548  28.988   7.388  13.928
52144W        W20549  36.624  14.331   4.237
52145W        W20550  36.517  38.729  13.405
52146W        W20551   5.349   2.541  12.072
52147W        W20552  12.198  30.819  13.517
52148W        W20553  10.197   7.738   3.163
52149W        W20554  28.142  15.066  12.583
52150W        W20555  16.248   7.659   1.461
52151W        W20556   2.131  34.407  11.688
52152W        W20557  42.123   1.419  14.263
52153W        W20558  25.119  23.050  14.968
52154W        W20559  15.137  37.374   4.835
52155W        W20560  26.234  14.735   4.888
52156W        W20561  43.067  32.054  14.216
52157W        W20562  10.152  25.457  13.285
52158W        W20563  13.299  35.597   2.790
52159W        W20564  20.058  43.948  10.892
52160W        W20565  15.544  19.765  13.988
52161W        W20566  41.517  22.610   0.378
52162W        W20567   6.848  34.036   2.157
52163W        W20568  37.325  44.861  10.648
52164W        W20569  30.569  37.450   0.984
52165W        W20570  11.205  16.191   3.811
52166W        W20571  17.789   5.699   1.660
52167W        W20572  37.908   5.721   2.878
52168W        W20573  38.528  15.028   2.502
52169W        W20574  15.835   2.751  14.825
52170W        W20575  33.546   3.301   1.462
52171W        W20576  30.846   8.539  14.440
52172W        W20577   6.091  22.479   2.260
52173W        W20578   5.680  40.376  13.763
52174W        W20579   5.886   3.641   2.864
52175W        W20580  29.688  32.941   1.641
52176W        W20581  44.166  27.188  13.289
52177W        W20582  26.026  36.275   4.670
52178W        W20583  10.963   8.705   2.260
52179W        W20584   2.930  14.105   0.227
52180W        W20585   5.526  22.101   1.763
52181W        W20586  26.723  38.540   3.102
52182W        W20587   6.497  12.363  12.548
52183W        W20588  19.620  11.660   3.840
52184W        W20589  40.901  33.385  12.774
52185W        W20590  11.869  15.326  13.872
52186W        W20591  43.493  10.819   3.890
52187W        W20592  19.622  29.889   4.604
52188W        W20593  14.464  18.187  11.068
52189W        W20594  30.000  10.722  10.729
52190W        W20595  38.069  15.063  10.905
52191W        W20596   8.376  21.135   1.975
52192W        W20597  40.863  13.492  13.858
52193W        W20598  18.297   0.003  11.825
52194W        W20599   0.462  24.782  11.487
52195W        W20600   7.604   4.299   4.104
52196W        W20601  29.849  13.213  10.747
52197W        W20602  43.786  13.899   3.706
52198W        W20603  20.101  22.117   4.792
52199W        W20604  23.496  24.453   1.383
52200W        W20605  25.835  18.065  10.647
52201W        W20606   3.417   4.231   2.299
52202W        W20607  32.831  34.396  12.638
52203W        W20608  42.778  31.417  12.579
52204W        W20609  40.015   8.300   2.477
52205W        W20610   7.934  37.479  14.951
52206W        W20611  25.597   0.960   0.212
52207W        W20612  21.107   1.753  11.524
52208W        W20613  44.307  12.944  13.362
52209W        W20614  16.300   4.838  13.447
52210W        W20615  32.813  29.843  12.082
52211W        W20616  39.850  42.254   1.799
52212W        W20617  43.025   3.140  11.587
52213W        W20618  10.362  43.643   0.779
52214W        W20619   2.817   1.333  12.620
52215W        W20620  33.022   1.209  11.966
52216W        W20621  26.209  32.914  12.821
52217W        W20622  27.913   1.114  12.784
52218W        W20623  40.939   0.950  12.762
52219W        W20624   1.690  27.146  11.628
52220W        W20625  26.983  27.141  13.373
52221W        W20626  24.710  39.160  14.809
52222W        W20627  23.865  30.786  12.936
52223W        W20628  11.134  19.839   2.271
52224W        W20629  28.628  27.762  12.433
52225W        W20630   1.232  13.362   1.344
52226W        W20631  43.673  39.875  14.860
52227W        W20632   1.896  17.677   2.869
52228W        W20633   5.626  10.123   0.008
52229W        W20634  33.952  12.138  11.650
52230W        W20635   0.500   3.672  11.933
52231W        W20636  28.857  16.735   3.774
52232W        W20637  44.348   8.235   1.590
52233W        W20638   3.255  14.102   1.860
52234W        W20639  25.755  33.479   1.347
52235W        W20640  41.069  37.922   3.129
52236W        W20641  21.481   8.913  10.596
52237W        W20642   7.411  27.108   2.849
52238W        W20643  30.942   8.029   4.266
52239W        W20644  27.757  42.325   1.399
52240W        W20645   8.707   3.007   3.928
52241W        W20646  10.578  43.382   5.222
52242W        W20647  13.635  42.399  13.601
52243W        W20648  33.420  10.742   2.849
52244W        W20649  27.631  35.916  13.900
52245W        W20650   4.855  28.517   4.601
52246W        W20651  16.792  44.059  12.523
52247W        W20652  28.545  26.251   1.666
52248W        W20653  34.048   9.282  13.417
52249W        W20654  29.052  35.110  12.943
52250W        W20655  10.567  29.618  11.732
52251W        W20656  33.368  28.475   0.967
52252W        W20657  42.001  15.260   1.911
52253W        W20658  14.198  22.686  11.431
52254W        W20659  37.534  13.987  10.376
52255W        W20660   2.869  33.136  12.105
52256W        W20661  31.845  22.932  11.062
52257W        W20662  28.713  31.163   1.193
52258W        W20663  42.844  21.946  14.061
52259W        W20664   5.821  26.560   3.274
52260W        W20665  25.649   6.441   4.622
52261W        W20666  37.813  23.703   1.718
52262W        W20667   3.375   5.703  14.985
52263W        W20668  27.490  25.628   4.361
52264W        W20669  37.076   0.739   4.376
52265W        W20670  31.618  12.743   4.641
52266W        W20671  13.071  31.004  12.438
52267W        W20672  44.053  32.729  12.066
52268W        W20673  19.646  38.992  12.443
52269W        W20674  21.151  14.539  14.442
52270W        W20675  20.071  19.619   2.158
52271W        W20676  17.343  43.031   0.813
52272W        W20677   6.194  35.230  10.222
52273W        W20678  37.436  16.654  14.932
52274W        W20679   9.474  17.795   3.903
52275W        W20680  28.106  41.415  12.836
52276W        W20681  12.848  29.109   3.651
52277W        W20682  43.776  13.238  14.818
52278W        W20683  16.597  43.455  13.021
52279W        W20684  28.680  35.987   2.615
52280W        W20685  36.930  11.783  10.764
52281W        W20686  13.753  32.151  11.943
52282W        W20687  20.796  34.455  14.128
52283W        W20688  22.473  10.814   1.052
52284W        W20689  25.604  34.102  14.636
52285W        W20690  37.011  20.086  14.029
52286W        W20691  36.168  13.104  12.566
52287W        W20692  43.931  25.887   3.005
52288W        W20693  31.071   4.664   3.195
52289W        W20694   7.615  34.901   1.881
52290W        W20695  28.008  30.445   2.359
52291W        W20696  14.747  40.702  13.334
52292W        W20697  39.221   1.587   5.462
52293W        W20698  38.767   4.969  14.355
52294W        W20699  28.166  31.679  11.550
52295W        W20700  22.734  22.272  13.793
52296W        W20701  32.517  15.244   2.114
52297W        W20702   1.322  38.326  13.604
52298W        W20703   4.529  22.065  12.010
52299W        W20704  16.742   1.849   1.521
52300W        W20705  27.090  36.928  10.669
52301W        W20706  34.306  40.764  11.252
52302W        W20707  17.083  20.119   0.835
52303W        W20708  39.406  27.415  13.875
52304W        W20709  33.551  34.593  12.110
52305W        W20710   2.847  20.572   4.632
52306W        W20711   1.592   2.874  10.873
52307W        W20712   7.859   9.729   4.507
52308W        W20713  32.180  27.688   0.776
52309W        W20714  12.404  40.614  12.451
52310W        W20715  15.688   9.104   0.459
52311W        W20716  40.818   5.436   4.193
52312W        W20717  14.823  14.700  14.811
52313W        W20718  19.211  14.373   2.261
52314W        W20719   0.836  39.322  12.016
52315W        W20720  11.984  33.789   3.715
52316W        W20721  44.275   7.853  14.550
52317W        W20722   0.378  34.487  11.153
52318W        W20723  42.861  31.832  11.200
52319W        W20724  23.175   6.239   3.667
52320W        W20725  39.357  20.608   4.076
52321W        W20726  24.078  41.409  14.940
52322W        W20727   8.934  41.346   1.675
52323W        W20728  24.113  42.356  12.455
52324W        W20729   8.757  23.211   2.416
52325W        W20730  26.708  25.311  11.098
52326W        W20731  23.219   6.406   3.159
52327W        W20732   2.428  16.864   4.630
52328W        W20733   8.141   5.417   2.876
52329W        W20734  22.196  19.070   0.004
52330W        W20735  20.631   9.230  10.121
52331W        W20736  28.213  29.709  12.816
52332W        W20737  11.116  44.798  11.090
52333W        W20738   6.825  24.477   0.827
52334W        W20739  17.528  33.487  13.497
52335W        W20740  37.027  31.691   0.903
52336W        W20741  43.980  10.993  11.996
52337W        W20742  13.687  12.914  14.853
52338W        W20743  36.897  31.582   3.317
52339W        W20744   0.874  14.724   4.082
52340W        W20745  28.202  16.791   0.843
52341W        W20746   8.621   0.959  14.875
52342W        W20747   1.862  14.623   4.789
52343W        W20748  12.226  36.278  14.884
52344W        W20749   8.856   7.323   3.903
52345W        W20750  11.679  22.477  14.022
52346W        W20751  32.944   5.438  12.984
52347W        W20752   6.173  38.973   1.180
52348W        W20753  31.120  17.796  14.017
52349W        W20754  33.394  17.918  10.738
52350W        W20755  26.190  41.378   2.801
52351W        W20756  30.530  43.770   2.132
52352W        W20757   4.893  21.029  10.679
52353W        W20758  35.765  26.238  11.635
52354W        W20759   3.537  25.253   5.025
52355W        W20760  42.008  13.794   4.302
52356W        W20761   2.461   1.926  13.985
52357W        W20762  20.515   8.672  12.965
52358W        W20763  41.342   3.633   3.266
52359W        W20764  41.334  23.565   3.813
52360W        W20765  20.629  42.950  13.602
52361W        W20766  14.107  17.261  13.681
52362W        W20767   4.700  29.722  14.450
52363W        W20768  17.862   6.629  11.022
52364W        W20769  37.863  23.273   0.249
52365W        W20770  38.492  16.801   1.331
52366W        W20771   8.768  14.202  11.991
52367W        W20772   7.187  35.712  13.024
52368W        W20773  22.580  43.497   1.225
52369W        W20774  29.898  18.717  13.030
52370W        W20775   2.019  28.107   4.692
52371W        W20776  14.392  22.103   1.050
52372W        W20777  41.363  31.137   2.497
52373W        W20778  37.550  32.627  14.106
52374W        W20779  18.025  13.981   1.820
52375W        W20780  29.438  26.559  14.490
52376W        W20781  12.687  39.831   1.046
52377W        W20782   2.670  37.400   2.504
52378W        W20783   1.383  18.277   2.047
52379W        W20784  23.142  29.194  11.996
52380W        W20785   7.799  18.169  14.981
52381W        W20786   7.678  21.427   2.725
52382W        W20787   6.703  24.109   2.632
52383W        W20788  29.550  27.482   2.350
52384W        W20789  11.332  10.936  11.179
52385W        W20790  29.041  10.056  10.726
52386W        W20791  18.666  29.565   3.341
52387W        W20792   9.373   2.707   0.649
52388W        W20793  31.310  12.154  11.160
52389W        W20794   2.825  32.300   4.707
52390W        W20795   6.871  44.486  11.927
52391W        W20796   9.662  33.836  11.667
52392W        W20797   9.816  13.271  10.673
52393W        W20798  21.150  28.789  11.435
52394W        W20799  41.869   6.451   0.946
52395W        W20800  35.959  34.552  12.988
52396W        W20801  34.336   6.951  12.062
52397W        W20802  34.864   7.670   4.960
52398W        W20803  27.571  36.803  14.411
52399W        W20804  35.940  40.062  10.703
52400W        W20805  23.481   2.952  13.888
52401W        W20806   3.875  39.464   4.076
52402W        W20807  13.994   8.434   2.193
52403W        W20808  29.067   6.979   0.687
52404W        W20809  16.530  19.726  11.806
52405W        W20810  12.737  19.892  14.007
52406W        W20811  32.635   7.368   0.795
52407W        W20812  41.875  39.781  11.299
52408W        W20813  37.956  18.816  11.964
52409W        W20814  42.764  44.426   0.543
52410W        W20815  34.867   7.140  10.393
52411W        W20816  42.948  23.515   3.338
52412W        W20817  15.500  16.106  10.933
52413W        W20818  38.418   7.423   0.884
52414W        W20819  34.447  36.897   2.243
52415W        W20820   0.373   8.313  14.765
52416W        W20821  12.347   6.841  10.687
52417W        W20822   8.422  34.993  10.965
52418W        W20823  23.708  20.339  14.778
52419W        W20824  30.165  38.706  12.001
52420W        W20825  28.481   7.650  12.880
52421W        W20826   4.416  19.043  11.077
52422W        W20827  22.550  28.117  13.302
52423W        W20828  28.939  18.130   0.985
52424W        W20829  31.255  38.470   3.830
52425W        W20830  22.983  13.821  10.795
52426W        W20831   4.313   5.179  12.590
52427W        W20832  28.306  19.738  13.735
52428W        W20833  32.148  22.973  13.614
52429W        W20834  36.159  41.078  13.110
52430W        W20835  26.818  37.076  11.944
52431W        W20836   2.685  30.849   2.229
52432W        W20837  24.606  31.592  11.957
52433W        W20838  16.066  37.472  11.551
52434W        W20839   8.892  32.003  13.748
52435W        W20840  42.294  17.364  11.919
52436W        W20841   0.766  32.593  10.247
52437W        W20842  43.472  27.218   1.871
52438W        W20843   4.329   3.731  13.126
52439W        W20844  10.062   5.857  12.010
52440W        W20845  28.550   0.498   1.006
52441W        W20846  43.236   0.367  13.616
52442W        W20847   2.897   3.282   3.825
52443W        W20848  22.148  40.345  12.485
52444W        W20849  44.335  44.471   1.140
52445W        W20850   8.790  14.258   2.604
52446W        W20851   1.684  33.927   3.193
52447W        W20852  41.903  15.047   4.129
52448W        W20853  44.003  14.638  10.732
52449W        W20854   8.858   1.923   3.424
52450W        W20855  24.746  42.376   3.796
52451W        W20856  15.847  39.497   1.837
52452W        W20857  22.512  41.479  12.419
52453W        W20858  10.853   3.729   0.327
52454W        W20859  44.535  10.680  12.618
52455W        W20860  13.306  13.199  14.276
52456W        W20861  14.317   4.041  11.093
52457W        W20862  31.146  11.437   3.797
52458W        W20863  23.389  41.796   1.466
52459W        W20864  10.833   3.247  10.935
52460W        W20865  29.582  27.451  12.734
52461W        W20866  15.986  40.313  11.087
52462W        W20867  16.172  44.370  11.610
52463W        W20868  25.442  19.209  13.300
52464W        W20869   2.337  20.301   2.779
52465W        W20870   0.687  12.479  14.763
52466W        W20871  17.079  16.585  12.448
52467W        W20872   5.009  24.686  12.587
52468W        W20873  18.849  44.399   1.727
52469W        W20874   2.982  25.718  10.341
52470W        W20875   9.817  19.367   4.999
52471W        W20876  26.484  40.336   0.002
52472W        W20877  43.911  11.791  12.338
52473W        W20878  32.151  17.512   4.350
52474W        W20879   3.387   2.438   1.852
52475W        W20880  15.830   9.801   2.332
52476W        W20881  21.516  19.670  11.460
52477W        W20882  20.612  25.085   4.161
52478W        W20883  22.469  23.202  13.468
52479W        W20884  33.629  18.809  12.091
52480W        W20885  30.414  41.272  11.944
52481W        W20886  39.760  34.318  11.030
52482W        W20887  39.321  28.655  12.607
52483W        W20888   5.032  30.832  13.035
52484W        W20889  33.179  39.086   1.222
52485W        W20890  17.503  25.228  11.169
52486W        W20891  38.799  35.396   2.859
52487W        W20892   9.696   4.989   0.200
52488W        W20893  12.293  19.776  14.323
52489W        W20894  32.466  43.234  12.124
52490W        W20895   3.994  27.758  13.005
52491W        W20896  38.332   8.481   0.907
52492W        W20897  38.524  14.638  13.476
52493W        W20898  13.527   8.714  10.922
52494W        W20899  10.352   2.266   4.547
52495W        W20900  37.048  33.036   2.450
52496W        W20901  37.284  31.210   3.692
52497W        W20902  26.936  12.904  11.530
52498W        W20903  11.147  28.961   3.167
52499W        W20904   0.609  27.134  13.494
52500W        W20905  38.695  19.204  13.471
52501W        W20906   2.853   0.521   2.866
52502W        W20907   9.720   7.696   2.421
52503W        W20908  35.930   1.408   1.481
52504W        W20909  30.923  33.132  15.000
52505W        W20910  29.551   2.900  12.069
52506W        W20911  31.381  42.479  14.953
52507W        W20912  21.040  24.500  12.939
52508W        W20913   1.903  25.596  13.548
52509W        W20914  30.674  43.062  10.000
52510W        W20915   4.692  12.540   4.591
52511W        W20916  11.332  20.367   3.821
52512W        W20917  31.853  21.406  13.362
52513W        W20918  15.621   5.293   0.424
52514W        W20919   5.397  35.008   3.259
52515W        W20920  31.942  39.955  11.159
52516W        W20921  32.526  30.829   1.422
52517W        W20922  44.641  33.832   0.694
52518W        W20923  16.637  41.716  11.463
52519W        W20924  38.852   6.401  13.379
52520W        W20925  36.575  32.496   1.484
52521W        W20926  30.909   7.433  10.612
52522W        W20927   9.373  32.395   1.485
52523W        W20928   4.319  28.516   1.376
52524W        W20929  41.928  44.801  12.284
52525W        W20930  44.323  32.030   1.404
52526W        W20931  42.945  17.816   4.539
52527W        W20932  40.247  10.305   2.364
52528W        W20933   7.406  21.983   3.263
52529W        W20934   8.950  10.901  12.273
52530W        W20935  42.674  20.511   4.790
52531W        W20936  13.745  42.470   2.742
52532W        W20937  36.585  23.363  13.423
52533W        W20938   4.671  40.247  12.104
52534W        W20939  15.584   7.761  14.355
52535W        W20940  41.383   1.333  14.253
52536W        W20941  13.396   5.067   4.150
52537W        W20942   7.535  41.410  12.009
52538W        W20943  23.603   0.220   0.312
52539W        W20944  21.427  24.442  13.846
52540W        W20945  41.139  35.010  10.692
52541W        W20946  44.060  35.739   5.208
52542W        W20947   9.930  35.885  10.721
52543W        W20948   1.851   1.466   4.916
52544W        W20949  30.443  20.534  14.015
52545W        W20950   9.848  28.916  12.937
52546W        W20951  27.993  20.997  14.779
52547W        W20952  31.637  28.835   0.479
52548W        W20953  43.057  35.124  13.892
52549W        W20954   0.537  17.848   1.340
52550W        W20955   7.656  32.130   3.384
52551W        W20956  30.700  32.909   1.373
52552W        W20957  25.010   3.886  13.459
52553W        W20958  26.087  13.939  12.163
52554W        W20959  30.929  20.944  11.063
52555W        W20960  36.863  41.837   0.361
52556W        W20961  44.329  30.818   1.863
52557W        W20962  24.514  25.922  13.594
52558W        W20963  25.921  10.945   0.266
52559W        W20964   0.278  42.238   0.669
52560W        W20965   1.020   5.589  11.666
52561W        W20966  40.929  16.250   3.591
52562W        W20967  40.138  23.432  14.654
52563W        W20968   9.600   4.481  13.741
52564W        W20969  15.002  28.406   4.278
52565W        W20970   3.479   6.353   0.817
52566W        W20971  21.666  17.079   4.222
52567W        W20972  39.390  10.003  10.509
52568W        W20973   4.694  31.234   0.962
52569W        W20974  40.314  10.126   2.839
52570W        W20975  19.570  19.608  12.366
52571W        W20976  36.363  28.726  14.077
52572W        W20977  17.604   3.679  12.863
52573W        W20978  43.436  32.989   2.939
52574W        W20979   0.974  17.872  12.965
52575W        W20980  13.021   9.123   4.293
52576W        W20981  16.300  32.587   4.105
52577W        W20982  16.807   8.950   3.240
52578W        W20983  18.648  37.974   3.197
52579W        W20984  25.473  29.128   1.462
52580W        W20985  36.514  25.711   1.328
52581W        W20986   8.401  16.837  11.975
52582W        W20987  25.861  27.107  14.001
52583W        W20988  27.906   2.309  14.770
52584W        W20989  15.889  35.982  10.099
52585W        W20990  33.907  43.358   0.452
52586W        W20991  10.677  43.412   0.422
52587W        W20992  28.376  44.901  13.138
52588W        W20993   2.865   7.493   2.337
52589W        W20994  18.820  19.212   2.886
52590W        W20995   0.953  11.415  10.619
52591W        W20996  44.561  34.373   0.683
52592W        W20997  35.837  29.000   1.452
52593W        W20998  42.032  31.919  14.245
52594W        W20999   8.682   1.386  13.957
52595W        W21000  19.682  16.047   2.852
52596W        W21001   5.682   7.878  12.292
52597W        W21002   5.210   9.052  13.586
52598W        W21003  44.893   7.362   2.726
52599W        W21004  40.098  24.250  12.174
52600W        W21005  41.006  30.164   3.882
52601W        W21006  15.731  14.827  12.010
52602W        W21007  41.629  28.709  14.913
52603W        W21008  38.513  30.543   1.749
52604W        W21009  11.689  38.583  13.337
52605W        W21010  13.691  31.421  10.647
52606W        W21011  40.511   5.863  13.906
52607W        W21012  43.503  42.468   3.754
52608W        W21013   8.105  36.839   1.259
52609W        W21014   0.486  38.943  11.974
52610W        W21015  19.543  43.918  10.958
52611W        W21016  30.893   8.278   4.949
52612W        W21017  19.020  10.066  11.501
52613W        W21018  42.763  44.520  11.123
52614W        W21019  20.139   1.522  12.935
52615W        W21020  43.800  41.849  11.528
52616W        W21021  34.107  11.068   0.830
52617W        W21022   8.366  37.672  13.542
52618W        W21023  34.981  21.301   1.186
52619W        W21024   2.857  12.371  11.789
52620W        W21025  44.146   0.479   0.326
52621W        W21026  43.533  35.980   0.453
52622W        W21027  32.018   7.478   1.329
52623W        W21028  10.368   7.683  12.527
52624W        W21029   1.292  29.254  12.885
52625W        W21030   5.637  41.953   4.719
52626W        W21031  26.786  33.587   0.283
52627W        W21032  41.845  21.517  14.981
52628W        W21033   1.956  27.628  14.735
52629W        W21034  36.327   6.405   2.441
52630W        W21035  14.542  31.723  10.710
52631W        W21036   0.871  43.057   1.142
52632W        W21037   8.665  22.313   1.252
52633W        W21038  26.033  19.799   0.013
52634W        W21039  19.110  29.879  13.861
52635W        W21040   4.801  37.520  10.210
52636W        W21041  33.966  27.830  13.832
52637W        W21042  28.085  16.963   4.128
52638W        W21043  40.310  17.760   4.254
52639W        W21044  10.219  38.423   0.371
52640W        W21045  10.356  38.717   5.042
52641W        W21046  32.681  27.550   0.677
52642W        W21047  42.809   7.211   1.914
52643W        W21048  22.172  28.727   1.204
52644W        W21049   3.746   5.699   4.717
52645W        W21050   4.396   7.443   0.796
52646W        W21051  27.046   4.454  12.528
52647W        W21052  40.391  36.395   2.225
52648W        W21053  10.193  30.684   4.178
52649W        W21054  33.186  23.059   3.363
52650W        W21055   0.008  44.368  13.413
52651W        W21056  18.051  42.959   1.913
52652W        W21057  36.375   5.940   4.665
52653W        W21058  23.948  24.701   1.352
52654W        W21059   4.268  25.712  10.761
52655W        W21060   3.769  19.588  14.363
52656W        W21061  20.354  26.068  10.452
52657W        W21062  18.978  33.622   0.329
52658W        W21063  41.962  12.165  14.608
52659W        W21064  28.767   7.380  12.545
52660W        W21065  11.686  11.602   4.498
52661W        W21066  21.708  21.986   4.045
52662W        W21067  32.530  15.727   0.951
52663W        W21068  23.922  38.311   3.341
52664W        W21069  15.332   9.396   4.587
52665W        W21070  39.442  43.917  10.775
52666W        W21071  11.721  42.053  14.802
52667W        W21072   2.595  39.556  13.924
52668W        W21073  32.279  40.315   2.118
52669W        W21074  17.707  29.670  10.685
52670W        W21075  11.316  36.535  14.934
52671W        W21076  28.709  39.342   0.931
52672W        W21077  43.768  33.454  13.940
52673W        W21078   8.872   1.930   3.948
52674W        W21079   1.031  21.583   1.115
52675W        W21080  32.157  33.565   0.569
52676W        W21081  30.399   7.213   4.551
52677W        W21082  34.420  41.398   0.536
52678W        W21083  15.466  15.260   3.269
52679W        W21084  27.404  19.486  13.994
52680W        W21085   7.892  34.184  11.545
52681W        W21086  40.760  11.795   4.795
52682W        W21087  39.996  27.624   4.268
52683W        W21088  38.828  43.361   2.667
52684W        W21089  41.998  44.855  13.864
52685W        W21090   1.717  12.866  11.676
52686W        W21091  17.030  13.220   1.156
52687W        W21092   5.147  42.432  10.315
52688W        W21093  18.278  21.853   9.830
52689W        W21094  10.573  11.558  11.251
52690W        W21095   9.944  41.951   2.471
52691W        W21096  17.919  19.448   1.705
52692W        W21097  33.841  33.692  14.519
52693W        W21098  16.977  43.843  10.584
52694W        W21099  21.818  38.559   3.376
52695W        W21100  37.606   5.130   2.349
52696W        W21101  39.467  36.618   0.749
52697W        W21102   8.162   4.845   3.673
52698W        W21103  23.240  10.212  14.968
52699W        W21104  25.100  35.845   0.335
52700W        W21105  21.050  13.370   2.753
52701W        W21106  11.811  16.916   4.226
52702W        W21107  12.350  10.971  14.066
52703W        W21108  30.603  41.767   1.860
52704W        W21109  32.866  11.675   1.795
52705W        W21110  11.776  11.661  14.062
52706W        W21111  18.091  26.927   1.812
52707W        W21112  28.153  24.842  12.190
52708W        W21113  32.374  32.862   4.463
52709W        W21114  12.919  35.411   1.282
52710W        W21115  30.165  11.149   4.368
52711W        W21116  20.025   2.381  12.885
52712W        W21117   1.505  23.128  11.562
52713W        W21118   9.669  19.600   0.748
52714W        W21119  33.585  10.375   0.757
52715W        W21120  22.061  16.318  12.017
52716W        W21121  43.481  26.535  13.162
52717W        W21122  37.506  21.591   2.198
52718W        W21123  41.984   5.220   2.784
52719W        W21124  28.547  38.435   5.417
52720W        W21125  40.434  28.104  10.736
52721W        W21126  27.542  21.149   1.592
52722W        W21127  26.909   6.897  13.518
52723W        W21128  24.687  14.641  13.963
52724W        W21129  11.532  40.710  10.294
52725W        W21130  19.705  23.452  13.509
52726W        W21131  31.683  31.659   0.469
52727W        W21132  12.685   8.795   4.037
52728W        W21133  16.318  26.699  14.822
52729W        W21134  26.845  17.634   0.411
52730W        W21135  14.225  12.150  10.633
52731W        W21136  27.593  26.968   1.206
52732W        W21137  25.712  26.726   1.265
52733W        W21138  24.536   8.718  10.692
52734W        W21139  29.069  23.181   0.829
52735W        W21140   7.749   6.367   1.674
52736W        W21141  36.454  22.944   4.117
52737W        W21142  38.450  41.966  13.822
52738W        W21143   6.133  15.146   0.239
52739W        W21144  10.395  36.495  11.906
52740W        W21145  13.898  16.096   4.047
52741W        W21146  43.884  11.281  14.095
52742W        W21147  32.164  29.406   3.303
52743W        W21148  44.309  29.074   4.118
52744W        W21149   8.793  37.965  11.003
52745W        W21150  14.762  27.645   2.634
52746W        W21151  16.267   6.292  14.513
52747W        W21152  18.984   7.416  12.551
52748W        W21153  15.659  26.936   0.410
52749W        W21154  24.669  34.367  13.311
52750W        W21155  28.273  19.829   4.127
52751W        W21156  29.502  20.558   4.638
52752W        W21157  17.127  15.057   1.775
52753W        W21158  35.414  39.982   3.865
52754W        W21159  21.523  29.694   3.853
52755W        W21160  43.880   4.194  12.063
52756W        W21161  37.837  21.073  13.868
52757W        W21162   1.280  12.037   0.544
52758W        W21163  42.184  19.035  11.603
52759W        W21164  21.183  35.535  10.396
52760W        W21165  21.036  26.940  12.877
52761W        W21166  27.223  17.511  14.000
52762W        W21167  44.344  29.401   2.775
52763W        W21168  31.105  12.872  13.200
52764W        W21169  30.495  40.478   1.790
52765W        W21170  23.955  30.143   2.196
52766W        W21171  32.617  31.119   2.740
52767W        W21172  42.850  25.230  13.900
52768W        W21173  31.666  34.562  12.534
52769W        W21174  43.808  44.898  13.114
52770W        W21175   2.136  39.261   1.321
52771W        W21176  44.405   5.986   5.084
52772W        W21177  41.297  13.925  12.447
52773W        W21178   4.828  28.007  14.446
52774W        W21179   2.074  19.088  14.819
52775W        W21180  25.356  26.997  14.048
52776W        W21181  33.847   7.247  11.396
52777W        W21182  44.295  22.149   1.725
52778W        W21183  26.668  11.871   2.823
52779W        W21184  22.737   7.825  14.034
52780W        W21185  43.307   5.009  11.425
52781W        W21186  19.727   3.799   3.348
52782W        W21187  22.400  32.438   4.484
52783W        W21188   7.163  15.683   0.368
52784W        W21189   4.978   6.105   1.447
52785W        W21190   7.973  17.304  11.907
52786W        W21191  41.326  30.880   1.722
52787W        W21192  17.176  34.672  12.677
52788W        W21193  16.689  28.274   0.846
52789W        W21194   7.666  27.956   4.160
52790W        W21195  21.117  27.539  12.470
52791W        W21196   9.729  38.940  14.396
52792W        W21197  44.340  11.521  12.616
52793W        W21198  28.845  34.577  12.320
52794W        W21199  32.620  37.821   2.967
52795W        W21200  11.340  12.550   4.166
52796W        W21201  22.764  40.070   2.343
52797W        W21202  31.068  26.751   2.148
52798W        W21203  26.765  30.594  11.178
52799W        W21204   2.754  33.982   1.411
52800W        W21205  13.354  20.013  10.683
52801W        W21206  15.687  25.280   2.362
52802W        W21207  14.810  13.254   0.287
52803W        W21208   1.749  18.747  11.356
52804W        W21209  32.125  23.945   1.063
52805W        W21210  16.724  41.498   1.043
52806W        W21211   4.806  19.335   4.094
52807W        W21212  13.187   4.274  14.856
52808W        W21213  35.391   9.347   2.601
52809W        W21214   2.652  18.118   1.648
52810W        W21215  34.111  25.526   4.808
52811W        W21216   8.885   3.317  13.396
52812W        W21217  20.891  26.254  14.261
52813W        W21218  44.547  34.275   4.062
52814W        W21219   9.358  25.057  13.089
52815W        W21220  10.362   3.605   4.596
52816W        W21221  21.393   4.908   4.576
52817W        W21222  34.430   6.859  13.544
52818W        W21223  27.521   6.639   1.918
52819W        W21224  31.746  33.500   3.300
52820W        W21225  30.552  33.829  14.432
52821W        W21226  38.621  34.542   2.956
52822W        W21227  39.071  12.594  11.117
52823W        W21228  17.142  38.124   4.581
52824W        W21229   0.401  23.150   4.621
52825W        W21230   4.809  11.909  11.129
52826W        W21231  13.652  30.393  13.963
52827W        W21232   4.884  43.966  11.489
52828W        W21233  30.194  34.402   3.325
52829W        W21234  39.923  24.189  13.101
52830W        W21235  23.261  35.524  14.413
52831W        W21236  38.630  27.992  12.397
52832W        W21237  16.353  40.018  13.478
52833W        W21238   2.312  28.261   3.183
52834W        W21239   7.914   8.779   0.482
52835W        W21240   5.723   1.012   4.885
52836W        W21241  27.382  38.433  10.181
52837W        W21242  26.061  39.570   4.125
52838W        W21243  40.991  25.597  13.043
52839W        W21244  16.967   0.919   0.243
52840W        W21245  38.522  19.590  11.246
52841W        W21246  29.468  11.963  13.528
52842W        W21247  37.966  24.356  13.825
52843W        W21248  23.718  36.450  13.920
52844W        W21249  44.247  29.810  14.296
52845W        W21250  25.147  24.134  12.343
52846W        W21251  33.926  36.319  12.804
52847W        W21252  35.539  19.796   3.789
52848W        W21253   1.549  29.301   0.585
52849W        W21254  33.894  28.922  14.735
52850W        W21255  41.330  20.996   1.081
52851W        W21256  42.388   7.422   3.257
52852W        W21257  15.339  20.007  11.098
52853W        W21258  41.434  27.465   4.181
52854W        W21259   5.904  28.015   4.152
52855W        W21260  17.741   0.777  11.889
52856W        W21261  14.280  20.003  11.586
52857W        W21262  34.414   7.888   4.714
52858W        W21263  13.204  40.961  12.992
52859W        W21264   1.922   7.880  14.371
52860W        W21265  21.550  38.971   3.269
52861W        W21266  16.626  16.550   4.378
52862W        W21267  35.941  41.071  13.594
52863W        W21268  30.662  42.516   1.316
52864W        W21269  22.655  24.023  14.013
52865W        W21270  32.547  43.205   1.936
52866W        W21271  19.641  42.808  11.013
52867W        W21272  23.541  31.532  14.312
52868W        W21273  44.983  43.947   2.448
52869W        W21274  25.615  24.110   1.366
52870W        W21275  18.649  10.932  10.631
52871W        W21276   0.123  26.759  11.028
52872W        W21277  31.529  20.810   3.813
52873W        W21278  33.577  31.578   1.952
52874W        W21279   1.508  13.353   0.895
52875W        W21280   8.288   1.967  13.289
52876W        W21281  14.271   5.938  14.552
52877W        W21282  31.622  44.981   0.877
52878W        W21283  11.487   5.861   4.874
52879W        W21284  15.603  30.207   1.784
52880W        W21285  14.415   5.715   1.014
52881W        W21286  27.671  11.755  11.440
52882W        W21287  25.127  43.194  10.940
52883W        W21288   5.329   2.800  13.646
52884W        W21289  38.538  21.182  11.544
52885W        W21290  34.313  11.446  10.677
52886W        W21291  41.776   3.914   1.849
52887W        W21292   1.828  22.722  13.964
52888W        W21293   6.869  37.870   0.255
52889W        W21294   8.130  20.882   3.976
52890W        W21295   3.014   6.795  13.852
52891W        W21296  14.758  36.437   3.020
52892W        W21297  10.431   8.645  14.889
52893W        W21298  36.018  19.974   3.666
52894W        W21299  15.780  12.039   1.728
52895W        W21300  24.074  38.787  13.859
52896W        W21301  35.569  26.042  13.993
52897W        W21302  31.438  42.102   1.908
52898W        W21303  36.571  16.697  11.179
52899W        W21304  12.975  37.462  13.753
52900W        W21305   3.614  40.112   4.605
52901W        W21306  31.040  41.744   2.620
52902W        W21307  43.973  12.644   1.458
52903W        W21308  22.753  20.807   4.549
52904W        W21309  11.788  44.512  12.024
52905W        W21310  23.626  26.681   3.726
52906W        W21311   8.049  14.817   4.149
52907W        W21312  40.314  18.855   0.834
52908W        W21313   7.974   8.783  12.588
52909W        W21314  27.887  15.555   2.877
52910W        W21315   6.331  44.452  11.991
52911W        W21316   4.751   4.946  12.674
52912W        W21317  36.711  12.503   1.811
52913W        W21318  30.573  33.829   2.633
52914W        W21319   5.455  18.303   3.301
52915W        W21320  21.133  34.108   1.846
52916W        W21321  22.183   0.728   1.709
52917W        W21322   1.459  26.221  12.803
52918W        W21323   1.735  39.486  13.299
52919W        W21324  42.601   8.217   3.716
52920W        W21325  36.308  16.282  12.106
52921W        W21326  24.661  20.142  11.574
52922W        W21327  42.249  33.114   1.687
52923W        W21328   5.436  11.777   0.518
52924W        W21329   7.289  20.724   0.011
52925W        W21330  25.769  36.885   1.791
52926W        W21331   0.507  10.252  14.801
52927W        W21332  24.990  26.108  13.699
52928W        W21333  12.810  40.906  10.734
52929W        W21334   3.711  10.406  14.437
52930W        W21335  21.601   0.142  14.259
52931W        W21336  14.842   3.267  12.034
52932W        W21337  15.621  30.090   2.808
52933W        W21338  35.313  16.975   3.721
52934W        W21339  37.090  20.159   0.461
52935W        W21340  23.676  38.340  11.652
52936W        W21341  43.373   3.152   3.788
52937W        W21342  13.291  36.310  13.518
52938W        W21343  16.707  17.725  14.753
52939W        W21344   5.430  13.209   1.660
52940W        W21345  30.896   7.686  13.934
52941W        W21346  16.266  29.417   2.746
52942W        W21347  14.732  34.996   2.071
52943W        W21348  22.190  23.737   2.738
52944W        W21349  18.125  20.920  13.998
52945W        W21350  36.080   5.999  13.440
52946W        W21351  39.102  22.252   3.522
52947W        W21352  26.767  37.282  14.752
52948W        W21353  12.199   1.449   3.775
52949W        W21354   1.670  33.216  13.508
52950W        W21355  40.078   8.116  14.015
52951W        W21356  29.518  43.485   3.175
52952W        W21357  21.587  25.877   2.365
52953W        W21358  39.789  25.017   3.455
52954W        W21359  20.771  10.387   3.801
52955W        W21360   1.632  44.821  13.555
52956W        W21361  27.553  36.702  10.708
52957W        W21362  35.942  33.893   1.274
52958W        W21363   3.395  33.368  13.008
52959W        W21364  10.788  11.687  13.773
52960W        W21365   8.728  34.535   3.772
52961W        W21366   5.706  29.406   2.813
52962W        W21367  10.731   9.180   0.392
52963W        W21368  35.171   4.886  14.547
52964W        W21369  44.485  35.584  10.703
52965W        W21370  23.985   6.211  14.771
52966W        W21371  23.035  41.856   1.845
52967W        W21372   6.151  43.764  11.105
52968W        W21373  37.957  35.147  13.868
52969W        W21374  32.694  26.040  11.877
52970W        W21375  37.909  40.368  11.989
52971W        W21376   3.799  37.626   3.444
52972W        W21377  31.453  22.607   2.123
52973W        W21378  38.670   7.899   9.947
52974W        W21379  11.170   4.276   3.255
52975W        W21380  40.602  18.619  13.030
52976W        W21381  32.504  27.047  12.047
52977W        W21382  15.590  11.038   1.797
52978W        W21383   6.216  10.043  14.048
52979W        W21384  43.883  15.738   3.114
52980W        W21385  34.467   4.269  12.478
52981W        W21386  14.202  44.194  12.624
52982W        W21387   4.853  20.036   3.061
52983W        W21388   4.297  30.351  12.495
52984W        W21389  13.090  21.957   3.549
52985W        W21390  19.242   3.435  11.656
52986W        W21391  33.419  12.053   4.050
52987W        W21392  24.888  24.373   0.241
52988W        W21393  27.162  33.135  12.906
52989W        W21394   5.854  32.923  12.875
52990W        W21395   5.290   7.993  14.039
52991W        W21396  39.467  27.543  12.974
52992W        W21397  36.995  42.318  12.559
52993W        W21398  20.515   3.706   4.318
52994W        W21399  38.656  26.627   3.583
52995W        W21400  39.876   6.483  14.297
52996W        W21401  30.926   0.608   5.180
52997W        W21402  18.857  44.360   0.248
52998W        W21403  32.159   3.034  14.535
52999W        W21404  11.342   8.388   2.717
53000W        W21405  42.056  40.190   2.983
53001W        W21406   4.848  18.011   3.935
53002W        W21407   4.240  37.022  12.054
53003W        W21408  44.003  16.477  14.240
53004W        W21409  26.118  34.026   1.460
53005W        W21410  18.032  27.945   1.074
53006W        W21411  28.082  36.657  10.823
53007W        W21412   8.900  42.996  13.113
53008W        W21413   1.329  35.714  14.809
53009W        W21414  33.134  26.610   2.349
53010W        W21415   0.342  11.319  11.970
53011W        W21416  33.440  29.637   1.518
53012W        W21417  22.956   0.774   2.380
53013W        W21418  38.556  29.500   1.333
53014W        W21419   6.913  35.584  12.050
53015W        W21420  33.012  29.693   1.216
53016W        W21421  29.072  38.578   4.820
53017W        W21422  12.398  28.443  14.488
53018W        W21423  26.637  14.644  14.944
53019W        W21424  19.920  23.010   1.192
53020W        W21425  31.884  23.727   3.539
53021W        W21426   2.818  40.834  12.917
53022W        W21427  20.333  42.893   3.265
53023W        W21428  16.210  14.682  11.899
53024W        W21429  16.286   1.424   0.719
53025W        W21430  12.948  43.227  11.124
53026W        W21431  27.001  41.360   0.674
53027W        W21432  30.031   4.025   0.011
53028W        W21433  15.601  19.693   1.788
53029W        W21434  29.175  30.616  14.926
53030W        W21435  15.665  31.636   1.208
53031W        W21436  34.810  44.407  11.051
53032W        W21437  21.249   7.661   3.656
53033W        W21438  31.896   1.804   3.270
53034W        W21439  11.109  20.551   0.969
53035W        W21440  33.744   0.824  10.252
53036W        W21441  27.572  29.986   4.751
53037W        W21442   9.125  19.793  12.020
53038W        W21443  28.209  13.213   2.217
53039W        W21444  26.257  30.197   1.960
53040W        W21445  28.691  11.215  14.439
53041W        W21446  43.898  34.086   1.930
53042W        W21447  32.653  31.523  11.985
53043W        W21448  42.935  36.085  12.678
53044W        W21449   4.670   7.484  12.067
53045W        W21450   0.213  31.189  12.028
53046W        W21451  29.724  43.863   1.665
53047W        W21452  25.521  44.058  13.919
53048W        W21453  32.078   2.683  14.931
53049W        W21454  25.044  37.721   4.131
53050W        W21455  30.466   5.213  14.884
53051W        W21456   0.818  27.032   2.997
53052W        W21457  28.929   7.367  12.031
53053W        W21458   8.276  22.482   4.815
53054W        W21459   4.858  20.512   1.742
53055W        W21460  40.593  30.182   3.089
53056W        W21461   6.113  40.372  13.340
53057W        W21462  12.904  13.516   4.507
53058W        W21463  32.156  36.944  11.190
53059W        W21464  37.076  25.562   3.857
53060W        W21465   5.893  39.755  12.354
53061W        W21466  39.170   5.721   0.009
53062W        W21467  13.823  11.559   1.423
53063W        W21468  42.642  38.900   3.823
53064W        W21469  22.712  27.101   2.603
53065W        W21470  44.014  14.916  11.180
53066W        W21471  39.885   4.111   1.316
53067W        W21472  30.431  29.503  13.755
53068W        W21473  42.322   4.248   2.760
53069W        W21474  24.838   7.785   2.676
53070W        W21475  27.929  18.866  12.455
53071W        W21476  14.603   6.368   1.725
53072W        W21477  24.941   3.771   0.337
53073W        W21478   0.841   5.200   4.525
53074W        W21479   6.830   6.724   1.781
53075W        W21480  18.270  31.888  12.075
53076W        W21481   1.821  11.704   3.091
53077W        W21482  12.750  18.535  10.620
53078W        W21483  18.649  44.444  13.360
53079W        W21484   6.878  10.702   3.707
53080W        W21485  16.849  22.476   4.962
53081W        W21486  32.493   6.304   0.348
53082W        W21487   4.860   8.296   0.369
53083W        W21488   8.586  38.930  13.926
53084W        W21489  12.660  16.184   0.846
53085W        W21490  26.112  12.114  11.872
53086W        W21491  10.390  34.366  13.374
53087W        W21492  21.503  14.096   4.571
53088W        W21493  27.851   1.001   0.475
53089W        W21494   0.693  42.979   3.770
53090W        W21495  32.525  35.023   3.173
53091W        W21496  22.998  16.685   2.789
53092W        W21497   7.779  21.076   3.153
53093W        W21498  43.835  43.239  12.015
53094W        W21499  20.150  14.625   3.431
53095W        W21500  14.169  28.423   0.420
53096W        W21501  31.634   7.692   2.354
53097W        W21502  43.684  15.357   3.893
53098W        W21503  21.812  16.177   4.745
53099W        W21504  24.202  17.642  10.520
53100W        W21505  19.202  13.430   1.948
53101W        W21506  28.687  42.942   1.756
53102W        W21507  21.869  38.956   1.572
53103W        W21508  15.139   6.700  11.557
53104W        W21509  28.422  43.859  14.446
53105W        W21510  12.959  42.167  14.739
53106W        W21511  33.119  28.342  13.677
53107W        W21512  38.430  32.761   2.358
53108W        W21513  13.035  10.210   1.291
53109W        W21514  11.829  12.558   0.748
53110W        W21515  16.683   9.109  11.441
53111W        W21516   6.002  39.000   3.177
53112W        W21517   7.723  19.173   4.521
53113W        W21518  15.332   5.614   0.914
53114W        W21519  24.756   3.349  10.973
53115W        W21520   2.938  23.262  12.613
53116W        W21521  18.355   9.878   1.535
53117W        W21522  22.087  13.292  10.544
53118W        W21523  16.071   5.298  10.332
53119W        W21524  40.599  19.119  12.409
53120W        W21525  24.551  14.362  12.509
53121W        W21526  38.360  12.481  14.494
53122W        W21527  31.517  34.489  12.058
53123W        W21528  23.246   9.159  14.333
53124W        W21529  41.045  24.138   1.917
53125W        W21530  16.302  31.165  10.465
53126W        W21531  24.036  18.562   0.776
53127W        W21532  41.502  21.208   0.264
53128W        W21533   7.246  33.379   0.494
53129W        W21534  22.801  33.045   0.381
53130W        W21535  39.777  39.743   0.477
53131W        W21536  12.918  23.654  13.951
53132W        W21537   1.330  37.278   0.498
53133W        W21538   0.814  22.183  14.362
53134W        W21539   5.331  20.318   1.878
53135W        W21540   1.778  36.313  11.173
53136W        W21541  41.614  31.976   4.053
53137W        W21542   2.810  20.031   4.661
53138W        W21543   9.973  20.241   0.268
53139W        W21544   6.108  18.372   0.873
53140W        W21545  20.554  31.889  13.407
53141W        W21546   6.436  40.115  14.926
53142W        W21547  12.829  31.645   4.499
53143W        W21548   9.900  18.585   4.025
53144W        W21549  21.718  41.846   4.305
53145W        W21550  36.361   7.112   1.816
53146W        W21551  35.889  38.090   4.476
53147W        W21552  20.709   5.872  11.895
53148W        W21553  35.435  34.928  14.421
53149W        W21554  39.192   8.924   4.586
53150W        W21555  13.673  24.664   1.558
53151W        W21556  19.613  35.042  13.764
53152W        W21557   0.366  30.988  13.508
53153W        W21558   7.397  13.913  12.875
53154W        W21559   2.326  18.534   1.133
53155W        W21560  41.275   8.590  10.795
53156W        W21561  11.676   1.210  12.651
53157W        W21562  19.725  11.885  12.680
53158W        W21563  14.767   1.435  12.015
53159W        W21564  27.529   3.085   3.122
53160W        W21565  23.664  18.921  11.255
53161W        W21566  22.475  29.477   3.660
53162W        W21567  26.696  42.699  13.851
53163W        W21568  22.009  12.140  10.995
53164W        W21569  30.771   1.144  12.994
53165W        W21570   2.956   5.431   4.733
53166W        W21571  22.257  44.979   3.681
53167W        W21572   6.138   0.986   4.520
53168W        W21573  44.357  43.779  13.695
53169W        W21574  41.444  27.630  13.960
53170W        W21575  37.959  12.047   1.351
53171W        W21576  23.445   8.198   4.744
53172W        W21577  19.184  36.483   4.910
53173W        W21578  24.163  38.273   2.847
53174W        W21579  24.754  16.259  12.032
53175W        W21580  38.607  44.493   0.385
53176W        W21581  18.824  43.340  12.048
53177W        W21582  12.099   6.907   4.548
53178W        W21583   4.957  23.646  14.900
53179W        W21584  16.483  14.825   2.715
53180W        W21585   5.493  17.576  14.928
53181W        W21586   9.843  34.151  13.539
53182W        W21587   5.395   4.251   3.617
53183W        W21588  20.254  20.084  13.271
53184W        W21589  35.289  35.339  13.270
53185W        W21590  40.436  16.190   2.894
53186W        W21591  28.541  23.211  11.636
53187W        W21592  15.477  32.018   4.188
53188W        W21593  29.313  36.882   1.454
53189W        W21594   8.108  33.952  13.896
53190W        W21595   0.315  28.944   1.811
53191W        W21596  15.634  30.861  13.264
53192W        W21597  14.284  44.767  12.471
53193W        W21598   4.886   1.392  13.295
53194W        W21599  42.899  24.658   4.670
53195W        W21600   4.965   0.025   1.761
53196W        W21601  14.370  41.417   2.526
53197W        W21602  18.385   6.268   4.060
53198W        W21603   3.008  31.629   2.133
53199W        W21604  44.419  19.272   4.106
53200W        W21605  31.468  27.080  14.476
53201W        W21606   5.668  18.756  14.643
53202W        W21607  10.352  40.750  13.338
53203W        W21608  15.068  23.349  12.019
53204W        W21609  31.098  16.386  14.452
53205W        W21610  21.313  19.172   4.271
53206W        W21611  37.966  17.995  12.382
53207W        W21612   1.947   5.701   1.883
53208W        W21613   6.434   7.663  12.542
53209W        W21614  40.715  36.077   1.982
53210W        W21615  44.418   6.924  10.894
53211W        W21616  13.831  30.438   1.968
53212W        W21617  43.344  22.116   1.191
53213W        W21618  36.568  17.579   0.255
53214W        W21619   2.476  33.064   0.394
53215W        W21620  15.029  40.685   0.504
53216W        W21621  37.579  16.726  11.090
53217W        W21622  31.722  27.148   4.199
53218W        W21623   1.179   4.365  13.444
53219W        W21624   4.737  34.307  11.200
53220W        W21625   8.761  27.236   1.315
53221W        W21626   2.276   4.351  11.381
53222W        W21627  37.574  20.223  12.679
53223W        W21628  41.394   9.033  11.090
53224W        W21629  33.494  14.399  11.602
53225W        W21630  18.008   2.880   2.619
53226W        W21631  32.921  36.186   3.835
53227W        W21632   3.856   1.713  11.585
53228W        W21633  19.757  29.878  14.204
53229W        W21634   6.281  39.852  14.042
53230W        W21635  33.663   6.371   0.484
53231W        W21636  29.484  31.040  14.842
53232W        W21637  22.441   0.055   0.277
53233W        W21638  29.452  41.600  11.475
53234W        W21639  40.517  38.321   3.412
53235W        W21640  35.059  44.357   4.023
53236W        W21641   7.734  37.572   1.562
53237W        W21642  43.985  31.033   0.013
53238W        W21643  19.600  34.708   4.171
53239W        W21644  23.958  42.999   0.766
53240W        W21645  32.903  18.116  13.858
53241W        W21646  29.371  18.475   1.030
53242W        W21647  41.498   3.040   3.798
53243W        W21648  43.721  33.854  12.878
53244W        W21649  19.666  44.364  13.477
53245W        W21650  30.739  20.087   5.094
53246W        W21651  16.193  39.204  13.842
53247W        W21652   7.976  31.646   4.220
53248W        W21653  13.536   7.327   4.618
53249W        W21654  39.450  16.107   4.343
53250W        W21655   7.815   1.211  11.652
53251W        W21656  25.596  15.347  14.478
53252W        W21657  11.652   6.743  13.799
53253W        W21658  17.570  28.128  12.027
53254W        W21659  30.643  12.710  10.726
53255W        W21660  24.353  19.846  13.995
53256W        W21661  34.720  11.150  10.730
53257W        W21662  42.934  40.554  12.109
53258W        W21663  25.260  40.291   5.019
53259W        W21664  34.737   7.092   2.876
53260W        W21665  23.818  36.771  11.063
53261W        W21666   2.711  21.234   2.801
53262W        W21667  35.392  23.792   3.620
53263W        W21668  20.431  41.992   1.921
53264W        W21669  44.229   6.485   4.976
53265W        W21670  42.440   5.154  14.997
53266W        W21671  44.817  43.656  14.907
53267W        W21672  33.045  31.608  12.976
53268W        W21673  24.543  25.266   1.335
53269W        W21674  41.607   8.653   4.914
53270W        W21675  33.687  17.748   1.043
53271W        W21676  35.527  23.287   1.957
53272W        W21677  31.455  33.386   4.156
53273W        W21678   0.115  31.504   1.969
53274W        W21679  40.453   5.793  14.964
53275W        W21680  18.787  13.380  10.972
53276W        W21681  27.873   8.415   3.845
53277W        W21682  32.535  20.210  13.831
53278W        W21683  44.460  32.154  13.095
53279W        W21684   0.354  15.374  13.060
53280W        W21685  27.948   7.326   3.316
53281W        W21686  27.108  40.916   0.928
53282W        W21687  15.393  35.821   2.230
53283W        W21688  19.300  30.182   1.836
53284W        W21689  40.397  10.542  10.541
53285W        W21690  28.690  16.106   9.462
53286W        W21691  24.254   6.343   0.192
53287W        W21692   0.774  35.652  11.880
53288W        W21693   0.601  22.738  12.544
53289W        W21694  41.849  22.565   2.140
53290W        W21695  37.993  11.135  13.095
53291W        W21696  16.402  14.271  14.277
53292W        W21697   7.604  11.928   0.293
53293W        W21698  31.881   8.328   4.758
53294W        W21699  26.118  27.090   2.185
53295W        W21700  17.268   6.400   2.215
53296W        W21701   3.839  26.151  12.158
53297W        W21702  16.109  38.987   1.909
53298W        W21703  40.537   3.123   1.606
53299W        W21704  24.008  32.126   0.378
53300W        W21705  22.003  12.673  12.002
53301W        W21706   9.298  44.936   1.426
53302W        W21707  36.215  30.651   0.007
53303W        W21708   6.927  30.472   3.176
53304W        W21709   0.150  28.160   4.295
53305W        W21710  10.780  44.725  13.745
53306W        W21711  19.656  35.467  11.522
53307W        W21712  23.299  32.879   0.484
53308W        W21713  44.282  37.754   1.296
53309W        W21714  14.213  26.521   5.013
53310W        W21715  24.149   1.879  14.892
53311W        W21716  44.783  27.984   1.822
53312W        W21717  35.929  41.514   1.648
53313W        W21718   9.243  25.530  11.986
53314W        W21719  24.788   5.406  12.010
53315W        W21720  19.390  26.087  12.850
53316W        W21721  22.087  10.178  14.418
53317W        W21722  34.047  31.397   3.768
53318W        W21723  43.514  15.921  14.059
53319W        W21724  23.217  35.395  13.914
53320W        W21725  21.340   6.335  14.440
53321W        W21726  40.544  44.927   0.526
53322W        W21727   2.305  29.951  11.362
53323W        W21728  13.742  39.834  11.404
53324W        W21729   2.356  13.858   1.821
53325W        W21730  38.327  44.634  14.930
53326W        W21731  35.784   1.979   2.646
53327W        W21732   0.299  38.486   2.212
53328W        W21733  42.458  17.653  13.425
53329W        W21734  37.475  28.046   3.720
53330W        W21735  18.502   9.542   5.068
53331W        W21736  20.151  36.684  14.447
53332W        W21737  20.200  17.186   1.407
53333W        W21738  11.004  32.615   3.860
53334W        W21739  40.353  32.905   4.398
53335W        W21740  43.266  20.308  14.063
53336W        W21741  24.003  13.078   0.244
53337W        W21742  39.451  17.028   1.180
53338W        W21743   3.342  27.945  10.525
53339W        W21744  11.377  39.166   2.812
53340W        W21745  20.883  37.067   1.105
53341W        W21746  31.555  26.047   0.484
53342W        W21747  36.164  21.517   2.767
53343W        W21748   6.602  33.504  12.515
53344W        W21749  38.726  22.125  10.749
53345W        W21750   0.824  38.999   3.334
53346W        W21751  11.823   8.212   0.824
53347W        W21752   6.976  19.489  12.547
53348W        W21753   5.231  16.578   3.842
53349W        W21754   0.466   5.777   2.185
53350W        W21755  10.428   3.412   1.696
53351W        W21756  26.441  25.620   1.266
53352W        W21757  19.375  10.353   4.160
53353W        W21758   0.723   4.626  14.786
53354W        W21759  41.312  40.931   1.008
53355W        W21760  43.130  15.791  14.398
53356W        W21761   2.331   4.424  11.893
53357W        W21762  40.384  18.664   1.770
53358W        W21763  33.468  14.165   0.915
53359W        W21764   2.387  17.683   2.112
53360W        W21765  12.878   7.220  13.829
53361W        W21766  40.501   8.309  12.397
53362W        W21767  12.762   8.901   3.532
53363W        W21768  27.583  38.557   2.710
53364W        W21769  13.328  36.062   2.132
53365W        W21770   4.445   9.778   4.998
53366W        W21771  18.087  31.032  14.790
53367W        W21772  36.017  28.007  12.029
53368W        W21773   6.472  41.817  13.853
53369W        W21774  26.302  15.177   1.016
53370W        W21775  28.064  29.934   2.295
53371W        W21776  14.241  13.599   2.161
53372W        W21777  10.199  38.447   0.907
53373W        W21778  22.777  12.821   2.769
53374W        W21779  38.233  19.005  13.254
53375W        W21780  25.062   0.076   4.717
53376W        W21781  39.294  35.937  12.065
53377W        W21782  34.965  31.633  11.981
53378W        W21783  38.471  15.033  13.883
53379W        W21784  25.462   0.469   1.846
53380W        W21785   0.077   1.458   0.346
53381W        W21786   1.442  32.067   0.820
53382W        W21787  43.899  23.129   0.379
53383W        W21788  32.575  24.472  12.589
53384W        W21789  15.683  31.935  10.230
53385W        W21790  36.723   6.894  12.821
53386W        W21791  28.406  19.945  14.697
53387W        W21792   7.653  39.072   1.433
53388W        W21793  26.199  22.250  12.053
53389W        W21794  21.839  43.897   0.684
53390W        W21795  16.122  28.843   0.598
53391W        W21796   6.523  18.484  13.006
53392W        W21797  30.646   7.590   4.831
53393W        W21798   2.452  21.986  12.494
53394W        W21799  11.445   5.485  13.662
53395W        W21800  37.888  26.989   1.848
53396W        W21801  27.522  16.751   4.179
53397W        W21802  39.609  41.101  13.054
53398W        W21803   5.284  12.337   4.294
53399W        W21804  15.646  26.740  11.660
53400W        W21805  22.086  15.563  10.373
53401W        W21806   4.724  43.006   3.744
53402W        W21807  42.213  19.350   0.452
53403W        W21808  36.483   7.343   0.704
53404W        W21809   7.099  42.052   3.195
53405W        W21810  24.377  37.859   0.131
53406W        W21811  37.429   5.433  13.158
53407W        W21812   4.642  20.701   0.751
53408W        W21813   9.881  26.759   0.819
53409W        W21814   0.851  25.605  14.289
53410W        W21815  27.626  21.802   0.307
53411W        W21816  19.178  11.498  11.092
53412W        W21817  17.825  41.780  10.992
53413W        W21818   8.439   4.138  14.314
53414W        W21819   8.881  29.140   3.283
53415W        W21820  34.642  36.540   1.926
53416W        W21821  38.527  34.095   2.687
53417W        W21822   9.306  44.040  12.487
53418W        W21823  10.206   8.438  14.248
53419W        W21824  39.534  23.533   4.655
53420W        W21825   8.365  39.185   2.475
53421W        W21826   0.813   1.872  10.079
53422W        W21827  38.466  31.003  10.923
53423W        W21828   5.371  23.155   3.208
53424W        W21829  14.282  13.588   3.151
53425W        W21830  25.467  36.854  11.634
53426W        W21831  39.071  17.217   2.809
53427W        W21832  34.004  40.452   0.969
53428W        W21833  44.007  19.649   0.987
53429W        W21834   1.350   5.392   4.590
53430W        W21835  16.024  28.716  10.635
53431W        W21836  28.472  32.927  13.338
53432W        W21837  26.447  34.434   1.376
53433W        W21838  31.016  41.403   4.496
53434W        W21839   9.587  20.204  13.378
53435W        W21840  29.887  43.859   1.171
53436W        W21841  15.118  38.239   4.151
53437W        W21842  20.031  24.484  14.292
53438W        W21843  36.293  41.755   3.401
53439W        W21844  33.509  26.735  14.255
53440W        W21845   6.617   2.132  11.835
53441W        W21846   0.234  11.194  14.889
53442W        W21847  19.712  29.345   1.952
53443W        W21848  35.020   6.662  12.368
53444W        W21849  14.038   2.500   4.111
53445W        W21850  40.599  39.499   2.744
53446W        W21851  16.292   5.786   4.238
53447W        W21852  17.968  19.668  13.079
53448W        W21853  24.511  36.811  14.063
53449W        W21854  28.564  13.701  11.846
53450W        W21855   4.149  22.200   3.311
53451W        W21856  30.969  25.867  13.390
53452W        W21857  13.573   0.455   1.328
53453W        W21858   3.632   3.191  14.239
53454W        W21859  25.118  18.050   4.647
53455W        W21860  11.609  44.848   2.200
53456W        W21861  31.398  15.427   2.754
53457W        W21862  19.771   3.198   4.825
53458W        W21863   3.750   5.284   3.039
53459W        W21864  22.430   1.566  14.209
53460W        W21865   0.264  36.614  12.492
53461W        W21866  42.519  28.435  14.777
53462W        W21867  36.048  11.704   1.492
53463W        W21868  10.745  34.603   3.374
53464W        W21869  38.927  27.195  13.964
53465W        W21870  42.962  35.707  14.685
53466W        W21871  35.390  10.837   1.826
53467W        W21872  20.614  22.108  12.936
53468W        W21873  18.493  12.207   0.383
53469W        W21874  24.425   9.954   3.839
53470W        W21875  25.110  35.361   1.359
53471W        W21876  20.865   9.188   0.494
53472W        W21877  10.468  35.560  14.224
53473W        W21878  43.662  15.517  13.371
53474W        W21879  22.993  14.538  13.495
53475W        W21880  26.118  25.488  13.917
53476W        W21881  18.735  16.671  14.331
53477W        W21882  15.115  29.152   2.700
53478W        W21883   3.971  33.845  12.009
53479W        W21884  30.351   3.089   0.619
53480W        W21885  35.815  29.574   0.326
53481W        W21886  26.683  27.615   0.393
53482W        W21887  44.790   7.398   3.731
53483W        W21888  25.218  41.826  12.255
53484W        W21889   8.508  26.143   3.227
53485W        W21890   0.431  35.603   1.472
53486W        W21891  11.234  20.273   3.320
53487W        W21892  25.233  21.079  11.612
53488W        W21893  38.580  15.247   2.983
53489W        W21894  16.247  26.999  11.441
53490W        W21895  40.631  23.004   4.375
53491W        W21896  35.003  10.155   0.978
53492W        W21897  14.363   0.008  14.272
53493W        W21898  29.375  15.069  14.657
53494W        W21899  13.180  27.757   1.389
53495W        W21900   9.097  14.831   3.280
53496W        W21901  35.390  32.396   2.667
53497W        W21902  27.568  22.979  12.993
53498W        W21903  26.682  19.236  14.296
53499W        W21904   9.792  11.143  10.802
53500W        W21905  25.470  38.844  13.833
53501W        W21906  33.078   7.918  14.428
53502W        W21907  16.005   4.402   4.707
53503W        W21908  33.385   4.978   4.114
53504W        W21909  36.059  23.265   3.268
53505W        W21910   2.653  42.233  12.620
53506W        W21911  28.659  17.600  14.723
53507W        W21912  26.283   6.014  11.860
53508W        W21913   0.757  29.067  12.026
53509W        W21914   6.150  14.238   2.500
53510W        W21915  31.196  41.291   4.993
53511W        W21916  44.298  25.528   4.656
53512W        W21917   6.627  29.570  11.491
53513W        W21918  19.637  10.515  14.909
53514W        W21919  14.533  28.071  12.142
53515W        W21920   5.404  34.556   1.259
53516W        W21921   9.502   3.299  10.730
53517W        W21922   7.682  26.102  13.814
53518W        W21923  30.033  38.161   4.104
53519W        W21924  11.907   7.925   1.821
53520W        W21925   6.873  11.316  14.020
53521W        W21926  20.516  10.090   1.923
53522W        W21927  42.065   1.695   1.806
53523W        W21928  39.152  38.788   1.422
53524W        W21929   9.713  33.235  13.603
53525W        W21930  27.786  15.753   4.922
53526W        W21931  36.058  39.262  11.116
53527W        W21932  40.873  11.138  14.771
53528W        W21933  39.901  10.928  13.708
53529W        W21934   9.336  31.943  12.480
53530W        W21935  12.048  39.291   0.856
53531W        W21936  32.891   9.889  11.427
53532W        W21937   4.183  14.310  14.526
53533W        W21938   8.924  21.183   4.121
53534W        W21939  38.407  23.101  10.830
53535W        W21940  14.486  41.898   4.086
53536W        W21941   3.403  13.357  11.961
53537W        W21942  16.878  32.609  12.002
53538W        W21943  20.230   7.812  12.263
53539W        W21944  18.203  19.028  13.438
53540W        W21945   8.842  27.509   9.771
53541W        W21946  36.376  25.711  11.990
53542W        W21947  18.410   8.730   0.530
53543W        W21948  15.099   8.753  11.978
53544W        W21949   6.773  30.932  12.842
53545W        W21950  12.758  26.470   2.782
53546W        W21951  38.695  41.838  14.284
53547W        W21952  22.209  23.979  13.720
53548W        W21953  27.962   2.778  10.998
53549W        W21954  35.864  11.114   2.257
53550W        W21955  40.002  21.667   2.830
53551W        W21956  30.137  19.590  12.194
53552W        W21957   2.231  12.366   4.541
53553W        W21958   7.255  10.547   2.199
53554W        W21959   2.561   3.912   2.183
53555W        W21960  15.804  37.027  11.461
53556W        W21961   0.121  36.894   2.545
53557W        W21962   2.541   4.672   0.719
53558W        W21963  41.817  17.486   0.308
53559W        W21964  11.594  19.681   3.665
53560W        W21965  22.130  34.965   2.490
53561W        W21966  39.346  34.261  11.584
53562W        W21967  10.988  19.258  13.051
53563W        W21968   6.907  27.078   2.766
53564W        W21969  38.105   7.651   3.258
53565W        W21970  12.687   3.720  10.508
53566W        W21971  16.229  21.284   1.381
53567W        W21972  27.132  28.380  12.994
53568W        W21973  25.199  21.095   0.607
53569W        W21974   6.806   0.465  10.663
53570W        W21975  35.331  14.881  11.136
53571W        W21976  27.101   0.084  14.011
53572W        W21977  10.680  44.065   4.046
53573W        W21978   8.061   1.670  14.980
53574W        W21979  26.715   8.756  14.459
53575W        W21980  44.336  19.665  11.951
53576W        W21981   7.964  20.072   0.007
53577W        W21982  12.525  40.981   0.464
53578W        W21983  44.202  41.519  12.564
53579W        W21984  10.962  35.515  14.109
53580W        W21985  25.218   4.003  10.703
53581W        W21986  29.315  13.123   2.331
53582W        W21987  38.604  36.623   3.321
53583W        W21988  25.717   5.252   4.239
53584W        W21989  23.218  33.482   1.277
53585W        W21990   0.094  25.300   4.156
53586W        W21991  34.063  35.406  12.824
53587W        W21992   2.894  14.078  12.282
53588W        W21993  42.308  35.383   2.143
53589W        W21994   9.160  23.540   9.893
53590W        W21995   5.001   0.496   0.937
53591W        W21996  44.283  26.138  14.900
53592W        W21997  28.504  14.112   1.004
53593W        W21998  11.210  17.816  14.023
53594W        W21999  27.626  38.590   2.156
53595W        W22000  38.024   8.165  14.204
53596W        W22001  17.568   5.680   2.612
53597W        W22002   8.368   0.908   2.217
53598W        W22003  41.834  30.231   0.910
53599W        W22004   4.857  23.488   4.553
53600W        W22005  24.273   0.131  14.025
53601W        W22006   7.835  20.556  13.272
53602W        W22007  21.065   6.778   1.734
53603W        W22008  44.411  32.382  12.065
53604W        W22009  38.744  19.466   9.953
53605W        W22010  34.190  35.355   3.193
53606W        W22011   1.296  39.412   0.731
53607W        W22012  16.585  35.576  14.405
53608W        W22013  43.551  32.611   1.323
53609W        W22014   8.273  42.083  11.247
53610W        W22015  22.951  31.459   2.738
53611W        W22016  12.735  33.967   2.427
53612W        W22017  17.650  19.242  14.888
53613W        W22018  40.730  31.329   3.321
53614W        W22019  25.261   8.453  14.497
53615W        W22020  38.293  23.642   2.944
53616W        W22021  19.060  38.107   2.314
53617W        W22022  23.699  37.801  14.341
53618W        W22023  18.768  39.352  13.655
53619W        W22024  40.996   6.946   0.215
53620W        W22025  20.288  24.390   9.991
53621W        W22026  22.317   9.639   3.140
53622W        W22027  28.413  13.583  11.329
53623W        W22028  26.562  33.647   4.077
53624W        W22029  18.843  25.297   1.735
53625W        W22030  44.796  38.701  12.492
53626W        W22031  19.211  38.614   3.384
53627W        W22032  41.777  34.647   2.568
53628W        W22033  32.076  12.771   0.008
53629W        W22034  19.523  35.780  12.445
53630W        W22035  10.899  15.317   4.030
53631W        W22036  15.079  14.148  14.820
53632W        W22037   7.087   3.222   3.704
53633W        W22038   0.238  13.648   3.651
53634W        W22039   2.792  40.578  10.645
53635W        W22040   6.454   3.506  14.806
53636W        W22041  34.998   3.806   4.457
53637W        W22042   0.107  42.348   2.882
53638W        W22043  15.840  17.664  14.026
53639W        W22044   9.035  17.340   3.292
53640W        W22045   4.093  44.579  14.592
53641W        W22046  37.207  32.384  13.271
53642W        W22047   7.204   0.873   0.727
53643W        W22048  12.480  40.948   4.656
53644W        W22049  38.977  28.810  11.367
53645W        W22050  14.519  20.460  11.610
53646W        W22051  44.373  37.987   1.754
53647W        W22052  21.219  18.715   1.673
53648W        W22053  22.662  11.389  10.585
53649W        W22054  21.513   4.220  10.632
53650W        W22055   3.750  42.141   0.031
53651W        W22056  26.664  40.950   0.205
53652W        W22057  10.400   1.961   2.768
53653W        W22058  19.325  28.878   4.166
53654W        W22059   3.973   4.750  11.927
53655W        W22060   8.879  20.492  13.450
53656W        W22061   3.136  31.881   0.356
53657W        W22062   8.770   4.865   0.540
53658W        W22063  42.371  39.321  12.277
53659W        W22064   2.258   0.166   2.264
53660W        W22065  23.785  42.371  12.028
53661W        W22066  23.019   5.908   0.487
53662W        W22067  10.683  34.241   2.074
53663W        W22068   9.809  25.608  14.040
53664W        W22069  10.897  14.618  10.646
53665W        W22070   3.900  41.909   4.153
53666W        W22071  27.643  15.077  12.394
53667W        W22072  33.280  41.585  12.524
53668W        W22073  12.179   5.893  11.942
53669W        W22074  10.711  15.358   2.357
53670W        W22075  44.946   2.338   4.559
53671W        W22076  41.005  20.529   3.868
53672W        W22077  39.921  37.123   3.369
53673W        W22078  20.200   3.806  11.947
53674W        W22079  20.137  22.545   4.487
53675W        W22080  15.041  30.934   3.807
53676W        W22081  28.829  31.393   4.211
53677W        W22082   3.320  42.124   3.310
53678W        W22083  18.551   3.721  10.689
53679W        W22084  25.130  24.985   3.626
53680W        W22085  32.123  43.548  13.483
53681W        W22086  35.560   5.983  13.444
53682W        W22087  15.604  31.322  13.511
53683W        W22088  40.597  30.587   2.169
53684W        W22089   9.124  27.969  11.244
53685W        W22090  25.649   8.300   0.731
53686W        W22091   2.788  28.093   3.148
53687W        W22092  33.791  44.015  13.419
53688W        W22093   8.152   7.337  11.125
53689W        W22094  40.237  44.488  13.430
53690W        W22095   4.325  28.707   1.879
53691W        W22096  16.646  36.922   4.121
53692W        W22097  10.431  16.296  14.738
53693W        W22098  35.614  28.088   4.062
53694W        W22099  18.377  40.562  13.803
53695W        W22100   2.710  34.843   3.262
53696W        W22101  32.548  11.591  13.014
53697W        W22102  44.834  26.142   2.031
53698W        W22103   7.703  42.879  11.219
53699W        W22104  24.620   2.735  11.669
53700W        W22105  20.496  40.087  13.155
53701W        W22106  16.102   9.933  13.619
53702W        W22107  19.046  39.003   3.696
53703W        W22108  35.437  21.415  10.747
53704W        W22109  38.119   3.521  12.626
53705W        W22110  19.281   8.863  14.318
53706W        W22111  18.235  37.195   2.183
53707W        W22112   1.545   4.568  13.140
53708W        W22113   8.272  32.582  11.986
53709W        W22114  35.433  43.718  14.945
53710W        W22115  17.624  24.496  12.518
53711W        W22116  14.865   8.109   0.491
53712W        W22117  10.760   1.232  12.179
53713W        W22118  23.212  27.824  10.269
53714W        W22119  28.468   6.792  11.430
53715W        W22120  12.271  17.304   0.970
53716W        W22121  11.237   1.093  12.364
53717W        W22122  14.143  32.972   4.232
53718W        W22123   8.110  26.659   3.653
53719W        W22124   9.838  13.451   2.246
53720W        W22125   6.784  41.285   1.336
53721W        W22126  43.630  25.325   0.892
53722W        W22127   3.275  11.173  14.066
53723W        W22128   0.706  26.982  12.648
53724W        W22129   4.394  36.582  12.955
53725W        W22130  31.039  31.221  13.444
53726W        W22131  33.174  34.961   2.321
53727W        W22132   9.215  31.879  11.150
53728W        W22133  40.499  18.647   0.389
53729W        W22134  40.465  17.120   0.090
53730W        W22135  30.409  16.122  10.958
53731W        W22136  17.625  20.888   5.443
53732W        W22137  15.597  31.107   2.376
53733W        W22138  15.700  16.233   0.917
53734W        W22139  40.963   2.401   4.071
53735W        W22140  26.638  29.997   4.876
53736W        W22141  10.145   0.181   2.330
53737W        W22142  20.569  29.722   1.476
53738W        W22143  44.705   2.707   1.517
53739W        W22144  19.254  37.843  11.789
53740W        W22145  29.481  19.764   0.290
53741W        W22146  13.700   6.862   1.013
53742W        W22147  20.611  14.707   3.710
53743W        W22148   9.211  22.698   2.379
53744W        W22149  19.644  22.057  13.257
53745W        W22150  22.955  17.741   3.429
53746W        W22151  15.187  21.023  14.297
53747W        W22152  39.844   7.436   0.874
53748W        W22153  24.094  40.867   3.034
53749W        W22154   1.914  14.809  14.141
53750W        W22155  21.789   3.592   1.834
53751W        W22156  16.492   7.810  11.687
53752W        W22157   4.211  15.558  13.362
53753W        W22158  17.070  21.736   2.278
53754W        W22159  23.645  23.423   1.535
53755W        W22160  23.710  38.115  10.867
53756W        W22161  25.206  33.190  12.969
53757W        W22162  35.613   7.384  13.926
53758W        W22163   8.358   9.652   1.404
53759W        W22164  25.184  43.191   1.156
53760W        W22165   4.654  35.958  13.484
53761W        W22166  10.206  40.581   0.340
53762W        W22167   2.951  42.831  10.864
53763W        W22168  16.711  24.746   3.799
53764W        W22169  24.847  17.729   0.263
53765W        W22170   7.438  23.506   4.169
53766W        W22171   2.251  40.360  12.360
53767W        W22172   2.724  39.293  11.207
53768W        W22173  39.821  12.270   0.313
53769W        W22174  32.677  37.018  11.173
53770W        W22175  38.580  27.697   2.714
53771W        W22176  13.834  38.969   2.800
53772W        W22177  26.430  24.103   3.919
53773W        W22178  43.462  31.654  10.682
53774W        W22179  40.580  25.666  11.683
53775W        W22180  38.126  34.900  11.661
53776W        W22181  22.755  31.729  13.958
53777W        W22182  36.914  15.272   0.388
53778W        W22183  17.556   1.386  12.003
53779W        W22184   8.766  16.865  14.878
53780W        W22185  12.446   8.507  11.970
53781W        W22186  23.759   2.378  13.014
53782W        W22187  24.808   8.340   0.356
53783W        W22188  15.067   9.092  13.486
53784W        W22189   7.880  14.104  10.287
53785W        W22190   0.197  26.170   2.822
53786W        W22191  15.087  20.213   0.274
53787W        W22192  19.371  29.699  12.433
53788W        W22193  14.931   8.632  13.978
53789W        W22194   6.625  23.012  14.058
53790W        W22195   4.644  15.599   3.097
53791W        W22196  25.288   4.741   5.022
53792W        W22197   8.276  28.887  13.059
53793W        W22198   2.172  26.518   2.859
53794W        W22199   2.754   5.467   0.583
53795W        W22200  17.004  15.139   3.296
53796W        W22201   0.818  42.944  12.958
53797W        W22202  10.971  18.814   3.353
53798W        W22203  35.581  40.892   4.228
53799W        W22204   5.669  15.576   4.341
53800W        W22205  30.125  10.085   1.290
53801W        W22206  22.028  28.379  12.400
53802W        W22207  12.175  13.227  11.215
53803W        W22208   1.386  41.489  11.543
53804W        W22209  25.529  42.154   9.618
53805W        W22210   3.785   1.743  12.433
53806W        W22211  10.676  42.494   2.683
53807W        W22212  29.973  11.858  11.535
53808W        W22213  25.295  33.482   1.704
53809W        W22214  44.428  22.179  12.553
53810W        W22215  20.084  42.339  11.611
53811W        W22216  12.793  38.918   1.773
53812W        W22217  44.307   4.290  13.007
53813W        W22218  35.469  27.920   3.594
53814W        W22219   3.959  34.031  13.027
53815W        W22220  35.162  36.931  12.015
53816W        W22221  32.168  42.241  14.511
53817W        W22222   8.752   0.060   2.267
53818W        W22223  39.923  34.647   4.356
53819W        W22224  18.800  40.786   2.001
53820W        W22225  33.763  41.424   2.882
53821W        W22226  20.284  36.596  14.974
53822W        W22227  31.041  30.716  13.883
53823W        W22228  21.655   2.950  13.351
53824W        W22229  43.765  39.231   3.274
53825W        W22230  42.677  22.090   0.605
53826W        W22231  40.791  18.979   2.693
53827W        W22232  34.556  13.532   4.162
53828W        W22233   6.693  16.073   5.005
53829W        W22234  33.034  39.414   3.055
53830W        W22235  25.479  41.835   1.893
53831W        W22236   8.937  22.699  10.365
53832W        W22237  11.364   6.648   4.071
53833W        W22238  24.516  29.304   4.140
53834W        W22239  38.495  24.576  11.030
53835W        W22240  37.983  42.615   1.883
53836W        W22241  13.621  10.394  10.759
53837W        W22242   6.737  38.589  12.004
53838W        W22243  25.420  32.737  14.508
53839W        W22244  18.866  17.087   2.893
53840W        W22245  18.989  36.781  11.171
53841W        W22246  14.266  37.439   4.538
53842W        W22247   4.959   8.607   4.905
53843W        W22248  41.192  21.672   3.310
53844W        W22249  29.399  30.619  13.541
53845W        W22250  44.505  35.837  11.141
53846W        W22251  11.464  16.485   1.477
53847W        W22252   4.313   9.048   3.742
53848W        W22253   1.027  23.737  13.416
53849W        W22254  25.241  12.132   4.302
53850W        W22255  41.945  36.139  13.414
53851W        W22256   6.385  19.736   1.959
53852W        W22257  15.976  21.444  11.097
53853W        W22258  23.359   3.418  14.729
53854W        W22259   8.104  41.801   3.345
53855W        W22260  43.288   7.048   0.083
53856W        W22261  19.148  12.538  11.096
53857W        W22262  36.086  40.065  11.723
53858W        W22263   4.859  33.537   1.256
53859W        W22264  14.866  37.963  11.659
53860W        W22265  30.407   5.067   2.759
53861W        W22266  19.633  13.835   1.375
53862W        W22267  21.174  29.427   4.520
53863W        W22268  27.118  36.984  11.539
53864W        W22269  13.780   1.460  13.974
53865W        W22270  12.296  23.646   4.200
53866W        W22271  30.719  16.621   5.512
53867W        W22272  40.409   0.013  10.619
53868W        W22273  41.899  16.691  14.642
53869W        W22274  17.780  40.893  13.791
53870W        W22275  37.795  22.233  12.985
53871W        W22276  20.707  38.092   0.322
53872W        W22277  26.927  23.155  10.413
53873W        W22278  18.743   4.936   4.443
53874W        W22279  23.242  38.952   4.040
53875W        W22280  26.419   4.771   2.598
53876W        W22281  11.705  13.840  14.355
53877W        W22282   9.938  24.114  12.965
53878W        W22283  33.620  14.626  13.797
53879W        W22284   3.503  41.490   4.090
53880W        W22285  42.083  41.063   4.322
53881W        W22286  20.296  12.842  14.485
53882W        W22287  33.000  29.227  14.571
53883W        W22288  38.062  21.706  12.040
53884W        W22289  27.365  17.789   0.344
53885W        W22290  25.113  26.487   3.703
53886W        W22291  44.525   6.698  13.275
53887W        W22292  21.139  12.225  14.580
53888W        W22293  31.027   8.383  10.337
53889W        W22294  38.049  36.482  10.888
53890W        W22295   9.337  32.987   2.288
53891W        W22296   4.756  31.024  13.947
53892W        W22297  12.156  27.919   3.402
53893W        W22298  43.629  27.266  10.914
53894W        W22299   1.794   4.024   3.699
53895W        W22300  12.656   7.399   4.084
53896W        W22301  44.434  40.308   2.000
53897W        W22302  33.952  20.672   1.166
53898W        W22303  25.439   6.829  14.520
53899W        W22304  16.813  44.206  13.512
53900W        W22305  17.528  12.084  11.013
53901W        W22306  25.522  16.298  13.475
53902W        W22307   7.248  34.753  13.051
53903W        W22308   8.196   4.608  12.018
53904W        W22309  42.739  26.336   3.382
53905W        W22310   3.813  39.466  13.509
53906W        W22311  34.236   4.251   1.376
53907W        W22312  38.017  13.889  12.918
53908W        W22313  28.130   9.911  11.516
53909W        W22314  28.077  19.101   0.704
53910W        W22315  10.036  43.134  11.192
53911W        W22316  30.184  33.828  11.185
53912W        W22317  40.703  14.788   3.807
53913W        W22318  19.294  19.123  13.767
53914W        W22319  24.782  25.994   0.797
53915W        W22320  18.821  35.268   1.227
53916W        W22321  16.718   3.284  14.989
53917W        W22322  32.397  24.641  14.828
53918W        W22323  19.657   0.386  13.092
53919W        W22324   6.819  26.400   4.090
53920W        W22325   1.740   0.040  14.841
53921W        W22326  22.120  11.096   0.408
53922W        W22327   8.429  18.328  13.814
53923W        W22328  29.610  39.334  10.837
53924W        W22329  15.202  17.643   2.239
53925W        W22330  41.284   0.905  10.643
53926W        W22331  42.777  25.984  11.842
53927W        W22332  24.510  22.592   2.355
53928W        W22333  41.377  31.272  12.664
53929W        W22334  29.541  33.171  10.865
53930W        W22335  20.611   7.399   2.117
53931W        W22336  42.703   8.922  10.766
53932W        W22337  22.743  44.809   4.568
53933W        W22338   7.842  43.168   3.688
53934W        W22339  26.009  37.478  11.119
53935W        W22340  21.324  34.849   0.728
53936W        W22341  27.451  30.496  13.080
53937W        W22342  36.531  44.763   0.843
53938W        W22343  27.308  24.697  13.958
53939W        W22344  16.101  37.600  12.461
53940W        W22345  41.045  20.821  14.281
53941W        W22346  29.108   6.800  12.818
53942W        W22347  32.421  13.210   0.499
53943W        W22348   5.516  30.172   3.824
53944W        W22349  16.273  16.028  13.944
53945W        W22350  33.570  41.545   4.748
53946W        W22351  36.891   8.735   1.781
53947W        W22352  18.902  28.544   4.067
53948W        W22353  27.020  28.714   3.748
53949W        W22354  37.109  19.999  12.675
53950W        W22355  41.218  12.891   2.497
53951W        W22356   3.496  26.735   3.318
53952W        W22357  17.229  25.327   0.562
53953W        W22358  38.372  28.120   3.499
53954W        W22359  28.216   8.295   2.434
53955W        W22360   4.456  11.788  12.540
53956W        W22361  16.136  42.930   4.479
53957W        W22362  28.657  44.391  12.490
53958W        W22363  42.333  41.972  11.663
53959W        W22364  29.045  22.234  14.536
53960W        W22365  37.177  41.718  10.151
53961W        W22366  41.827   1.501   2.242
53962W        W22367  26.826  31.727  14.287
53963W        W22368   2.842  33.312  14.883
53964W        W22369  34.537  30.978   2.564
53965W        W22370  40.905  39.967  10.764
53966W        W22371   1.989  40.821  14.995
53967W        W22372  22.538  20.999  12.865
53968W        W22373  28.880  11.332  13.971
53969W        W22374  32.925   6.935  14.337
53970W        W22375  25.778  26.343   0.419
53971W        W22376  30.106  17.026  13.838
53972W        W22377  16.279   8.442   1.864
53973W        W22378  10.593  11.810   2.897
53974W        W22379   3.845   5.992   1.405
53975W        W22380  16.233  15.116  10.647
53976W        W22381  18.063  42.327   1.194
53977W        W22382  37.347   3.299   3.083
53978W        W22383  19.170  33.081  14.571
53979W        W22384  34.338  16.022  11.657
53980W        W22385   1.168  28.337   5.024
53981W        W22386  16.091  23.548   0.862
53982W        W22387  19.714  34.433   2.856
53983W        W22388  32.428  19.057   2.225
53984W        W22389  12.031   4.676   1.241
53985W        W22390  19.678  14.300  13.482
53986W        W22391  35.646  21.625   2.753
53987W        W22392  44.482  15.722   1.989
53988W        W22393  26.068   7.167   0.341
53989W        W22394   2.303  27.350  13.828
53990W        W22395   0.443  18.597   0.001
53991W        W22396  18.821  11.367   3.749
53992W        W22397  43.348  21.503  11.090
53993W        W22398  40.085  13.405  11.196
53994W        W22399  35.503   1.930   0.841
53995W        W22400  38.835   9.183   1.225
53996W        W22401   8.955   0.266  10.533
53997W        W22402  38.958   6.777   4.632
53998W        W22403  24.443  26.358   0.922
53999W        W22404  25.470   7.635   4.546
54000W        W22405   8.335  28.489  13.403
54001W        W22406   2.799  20.278   0.883
54002W        W22407  34.911  28.217   1.742
54003W        W22408  28.294  30.558  12.533
54004W        W22409   7.706  15.759   2.723
54005W        W22410   2.966   5.195   4.259
54006W        W22411  10.597  44.815   4.594
54007W        W22412   5.781   6.700   0.809
54008W        W22413  26.638  13.850  11.639
54009W        W22414   7.859  34.706   2.355
54010W        W22415  41.061   4.934   0.034
54011W        W22416  15.694  33.670   1.528
54012W        W22417   5.776  25.137   3.552
54013W        W22418  18.366  41.994   3.360
54014W        W22419  18.996   3.264   1.721
54015W        W22420  12.556   2.962  11.958
54016W        W22421   7.802   8.043   4.168
54017W        W22422  26.413   5.997   2.798
54018W        W22423   9.945  20.759   0.340
54019W        W22424  44.782   6.753  11.971
54020W        W22425  36.109  41.532  13.410
54021W        W22426  21.033   2.146  12.846
54022W        W22427   1.511  38.864  11.680
54023W        W22428  14.138   3.097   3.487
54024W        W22429  25.555  16.031   3.825
54025W        W22430  19.681   9.724   4.498
54026W        W22431  16.179  36.354   0.312
54027W        W22432  28.123  11.532  12.449
54028W        W22433   4.805   3.948  13.101
54029W        W22434  11.166  14.897   0.332
54030W        W22435  12.783  19.161  14.197
54031W        W22436  42.118  39.299   1.256
54032W        W22437  35.453   9.811   1.746
54033W        W22438   0.786   1.229   0.871
54034W        W22439  39.820  20.572  14.784
54035W        W22440  35.559  13.161  11.638
54036W        W22441  14.107  43.474  13.036
54037W        W22442  13.220  37.276  12.060
54038W        W22443  30.750  29.075   2.381
54039W        W22444  11.130  29.507   3.124
54040W        W22445  29.595  42.434  14.327
54041W        W22446  33.603  17.312   0.060
54042W        W22447  21.628  15.591  10.674
54043W        W22448  33.092  43.019  11.046
54044W        W22449  10.656  24.114   0.826
54045W        W22450   6.151   3.125   4.907
54046W        W22451  32.813   9.099  14.845
54047W        W22452   7.152  18.986   2.354
54048W        W22453   6.702   2.388  10.229
54049W        W22454  26.648   2.722  12.171
54050W        W22455  11.516  29.649   1.245
54051W        W22456  17.516  15.178  14.963
54052W        W22457  39.429  44.993   1.811
54053W        W22458  15.095  39.914   4.615
54054W        W22459  23.567  30.635   1.513
54055W        W22460   0.431  35.201  14.880
54056W        W22461   3.912   0.999  12.095
54057W        W22462  34.539  21.696   0.402
54058W        W22463  20.193  14.154  10.458
54059W        W22464  44.890  33.820  14.937
54060W        W22465   1.417  36.868   4.069
54061W        W22466  35.988  18.632  11.635
54062W        W22467  11.171  33.021  11.202
54063W        W22468   2.380   4.520  12.999
54064W        W22469  40.562  42.970   5.147
54065W        W22470   2.329  31.168   4.943
54066W        W22471   6.790   0.999   1.512
54067W        W22472   6.903  33.412   3.720
54068W        W22473  44.810  30.186   2.576
54069W        W22474  27.464  41.342  12.065
54070W        W22475  16.218   0.622  10.790
54071W        W22476  22.677  39.880  14.494
54072W        W22477  27.033   2.507  12.451
54073W        W22478   7.425  36.518   0.905
54074W        W22479  32.834  24.196   0.330
54075W        W22480  40.557  19.629  14.432
54076W        W22481  16.226   1.971  14.914
54077W        W22482   9.981   4.279  11.376
54078W        W22483  11.709  44.249  10.762
54079W        W22484   8.641   3.674   4.742
54080W        W22485  29.550  18.178   0.205
54081W        W22486   2.573   3.440  11.659
54082W        W22487  17.331   6.919   2.688
54083W        W22488  30.983   3.798   1.788
54084W        W22489  34.287  35.344  14.276
54085W        W22490  14.527  42.956   0.370
54086W        W22491  32.470  44.778   2.858
54087W        W22492  10.725  20.787  12.414
54088W        W22493   3.836  20.660  13.234
54089W        W22494  13.749   1.523   2.830
54090W        W22495   1.779  15.117   0.974
54091W        W22496  19.749  20.154  11.116
54092W        W22497  27.453  23.722  11.506
54093W        W22498  35.580  22.172   4.689
54094W        W22499  18.515  28.832  12.774
54095W        W22500   9.912  17.973  12.533
54096W        W22501  32.901  13.156   0.704
54097W        W22502   4.863  39.804   2.806
54098W        W22503  11.119  15.592   1.393
54099W        W22504  19.142   9.375   0.371
54100W        W22505   5.445  13.273  11.484
54101W        W22506  31.665  15.755  14.301
54102W        W22507  23.400  14.555   3.171
54103W        W22508  36.312  39.942   1.364
54104W        W22509  27.238  40.479  13.514
54105W        W22510  23.022  37.555  14.227
54106W        W22511  37.875   3.348  14.869
54107W        W22512  41.393  11.619   2.287
54108W        W22513  36.656  40.883  13.057
54109W        W22514   2.988  22.116   4.553
54110W        W22515  21.913  27.522   0.939
54111W        W22516  32.858  10.409   3.654
54112W        W22517   3.295  18.635   4.468
54113W        W22518   3.733  26.929  14.483
54114W        W22519   5.770  32.235   0.490
54115W        W22520  29.519  42.080   2.350
54116W        W22521   6.399  35.383   1.224
54117W        W22522  43.152  21.655  14.869
54118W        W22523  23.638   2.259  12.279
54119W        W22524  42.284  16.144  10.707
54120W        W22525  10.831  10.459   1.169
54121W        W22526   4.293  13.994   3.608
54122W        W22527  34.133  35.493   4.768
54123W        W22528  38.151  13.969  12.016
54124W        W22529  26.479  11.523  13.804
54125W        W22530  44.490  44.300   0.659
54126W        W22531  18.052  21.988  11.138
54127W        W22532  26.736  25.135  13.560
54128W        W22533  19.665  18.741  12.951
54129W        W22534  16.577  35.084  10.553
54130W        W22535   3.489  36.344   2.171
54131W        W22536  36.355   3.731   0.283
54132W        W22537  39.496  34.387   4.215
54133W        W22538  33.425   7.909   4.660
54134W        W22539   8.832   0.728   4.116
54135W        W22540  10.342   8.667  13.511
54136W        W22541  25.597  39.071   1.203
54137W        W22542  23.585  14.797  12.236
54138W        W22543  38.677  37.286   5.170
54139W        W22544  42.370  15.278  14.393
54140W        W22545  24.078  43.459   0.009
54141W        W22546   6.408  24.038  10.486
54142W        W22547   6.309  34.895   1.342
54143W        W22548  22.565  16.271  12.402
54144W        W22549  33.134   4.418  14.012
54145W        W22550  38.059  20.986  11.555
54146W        W22551  14.874  20.722  12.009
54147W        W22552  21.225   2.892   4.632
54148W        W22553  13.278   9.862  12.086
54149W        W22554  41.183  19.133  11.577
54150W        W22555  27.259  36.701   3.354
54151W        W22556  33.494  30.237   5.026
54152W        W22557   8.329  43.052   3.780
54153W        W22558  18.416  21.827   0.457
54154W        W22559  28.517  31.112   2.032
54155W        W22560  32.247  27.920   4.176
54156W        W22561  43.749  30.155  11.691
54157W        W22562  14.176   1.798   3.051
54158W        W22563  26.268  33.068  14.738
54159W        W22564  41.527  35.927  13.197
54160W        W22565  22.371   9.874  10.602
54161W        W22566  41.611   8.126   0.223
54162W        W22567  37.216   6.384   0.512
54163W        W22568   9.873   2.432  12.984
54164W        W22569   7.208   3.670  14.824
54165W        W22570  14.917  29.074   3.710
54166W        W22571  13.498  31.988  14.152
54167W        W22572  20.796  39.106   0.404
54168W        W22573   6.669  11.795  14.005
54169W        W22574  12.359  37.461  12.084
54170W        W22575  19.552  11.157  13.575
54171W        W22576  29.906   9.787   2.399
54172W        W22577  17.842  11.194  13.879
54173W        W22578   2.287  11.398  13.994
54174W        W22579  20.156  11.354   1.950
54175W        W22580   2.130  30.089  11.819
54176W        W22581  44.228  42.441  12.613
54177W        W22582   3.281  22.530   3.417
54178W        W22583  26.511  23.385  14.365
54179W        W22584  16.740  41.211  11.496
54180W        W22585  23.248  34.133   0.808
54181W        W22586  31.842  38.421   1.137
54182W        W22587  12.896  30.216  14.625
54183W        W22588   9.635  38.511  11.005
54184W        W22589  31.944   1.225   5.014
54185W        W22590  31.850   2.745   3.117
54186W        W22591  36.594  39.012  13.868
54187W        W22592  43.482  26.041  10.699
54188W        W22593  23.957  39.399   2.377
54189W        W22594  14.024  14.254  11.112
54190W        W22595  11.185   5.812  12.083
54191W        W22596  16.327  23.121   9.768
54192W        W22597  28.718  38.236  10.079
54193W        W22598   1.335  32.544  11.158
54194W        W22599  18.284  42.776   3.333
54195W        W22600  18.764   7.653  12.955
54196W        W22601  14.341  30.697   3.353
54197W        W22602  14.560   8.125   1.360
54198W        W22603  14.570  11.923   1.289
54199W        W22604  12.197  34.669   3.716
54200W        W22605  11.686  15.333  11.468
54201W        W22606  36.538  11.924   3.670
54202W        W22607  40.496  31.986   3.585
54203W        W22608  31.504  42.800  12.707
54204W        W22609   4.357  10.067  10.580
54205W        W22610   5.927  32.833  10.882
54206W        W22611   0.435  35.123   4.420
54207W        W22612  25.170   0.272   0.637
54208W        W22613  18.623  38.924  11.807
54209W        W22614  15.145  18.417   2.681
54210W        W22615  16.838  36.053  12.186
54211W        W22616  33.982  33.158   3.270
54212W        W22617  38.651   1.672  11.893
54213W        W22618  38.378   8.316   1.395
54214W        W22619   7.254  39.799   0.247
54215W        W22620  40.718  38.061   1.728
54216W        W22621  34.469  44.899  13.369
54217W        W22622  20.501  27.415  12.164
54218W        W22623  38.397  34.192  10.927
54219W        W22624   9.233  29.514  11.256
54220W        W22625   3.845  38.597  12.452
54221W        W22626  20.173  14.916   1.767
54222W        W22627  28.873  21.891  13.561
54223W        W22628  19.776  22.156   2.676
54224W        W22629  40.763  44.033   2.837
54225W        W22630  11.963  29.997   4.553
54226W        W22631  33.569  12.268   3.586
54227W        W22632  19.089   8.853   0.286
54228W        W22633  41.763  21.127   2.395
54229W        W22634   4.715  25.536  14.457
54230W        W22635   8.799  15.354   0.012
54231W        W22636   9.871  42.423  12.592
54232W        W22637  11.625  32.226  12.815
54233W        W22638  20.850  17.121   1.753
54234W        W22639  42.269  16.176   3.395
54235W        W22640  41.766  16.154  10.740
54236W        W22641  42.253  17.801   1.978
54237W        W22642  37.849  11.341  14.445
54238W        W22643  16.291  25.678   1.879
54239W        W22644  23.497  41.702   3.809
54240W        W22645  43.239  23.299  11.128
54241W        W22646  32.046  40.766   4.948
54242W        W22647  22.252  19.788  10.422
54243W        W22648  21.534  20.633   4.070
54244W        W22649  18.272  21.878  13.876
54245W        W22650  15.396  24.474   4.483
54246W        W22651  38.361  34.013   1.284
54247W        W22652  31.047   0.820   4.710
54248W        W22653  32.445   2.452  13.601
54249W        W22654  25.415  24.100  11.918
54250W        W22655  44.566   3.231   4.213
54251W        W22656   7.941   1.462  14.508
54252W        W22657   7.719  17.992   3.308
54253W        W22658  19.799  42.073  10.634
54254W        W22659  35.480   3.273   0.282
54255W        W22660  19.710   8.896   0.979
54256W        W22661  43.677   9.905  13.860
54257W        W22662   0.033  36.950   3.069
54258W        W22663  24.658  43.367   2.879
54259W        W22664  19.607  44.241   3.196
54260W        W22665  32.912  32.490  13.901
54261W        W22666  27.975   2.749   3.782
54262W        W22667  39.372  32.351   2.245
54263W        W22668  37.071  40.408   3.744
54264W        W22669  32.044  38.099   4.200
54265W        W22670  21.165  32.159   2.509
54266W        W22671  34.547  34.075   2.904
54267W        W22672  27.926   6.987   0.213
54268W        W22673   6.108   3.244  13.008
54269W        W22674  35.121  19.278   2.626
54270W        W22675  27.955  16.464   4.063
54271W        W22676  42.194  32.376   4.130
54272W        W22677  41.386  33.572   0.298
54273W        W22678   6.686  16.714  13.455
54274W        W22679   3.558  35.022  13.449
54275W        W22680  35.435  25.215   4.940
54276W        W22681  28.136  24.857  11.188
54277W        W22682  29.278  14.651   2.845
54278W        W22683  42.966  39.718   2.773
54279W        W22684  13.826  41.311  14.256
54280W        W22685  43.364  16.159   3.272
54281W        W22686  32.644  13.532  11.013
54282W        W22687  24.649  41.302   1.810
54283W        W22688  36.491  40.771  10.663
54284W        W22689   2.727   5.926  13.920
54285W        W22690  27.000   6.140  13.165
54286W        W22691  39.809  41.958  14.074
54287W        W22692  15.590  19.262   0.890
54288W        W22693  34.686   4.875   0.906
54289W        W22694  12.849  28.549  13.953
54290W        W22695   8.884  31.635   4.879
54291W        W22696   8.899  33.402  12.166
54292W        W22697  15.951   1.190  14.737
54293W        W22698  30.836  18.827   5.000
54294W        W22699  12.345  39.311   2.827
54295W        W22700  29.111  24.240   3.073
54296W        W22701  36.364  32.875   0.536
54297W        W22702   3.052  18.984   0.023
54298W        W22703   7.920  41.389   2.737
54299W        W22704  10.823  35.533  11.111
54300W        W22705   2.045  44.993   1.793
54301W        W22706  26.605  15.385   1.842
54302W        W22707  36.162   1.020  14.902
54303W        W22708  28.666  43.436   3.668
54304W        W22709  41.012  36.275   3.341
54305W        W22710  14.058  44.396   4.128
54306W        W22711   2.344  30.620   2.587
54307W        W22712  10.311  26.999  13.044
54308W        W22713  15.878  16.192  14.975
54309W        W22714   5.741  13.272  13.284
54310W        W22715  20.250  19.041   4.841
54311W        W22716  33.654   8.268   3.374
54312W        W22717  37.536  11.839  13.475
54313W        W22718  25.631  32.376  11.637
54314W        W22719  33.497  34.569  14.028
54315W        W22720  44.468   2.264   4.159
54316W        W22721  40.775   7.611  11.508
54317W        W22722  19.627  21.744   0.765
54318W        W22723   1.588   5.067   3.301
54319W        W22724  43.100  34.047   3.705
54320W        W22725  11.304  17.670  13.515
54321W        W22726  21.702   5.265   3.298
54322W        W22727   6.717  34.829  14.500
54323W        W22728   1.754  24.280  14.817
54324W        W22729  20.363   8.211  12.571
54325W        W22730  30.537  31.099  10.723
54326W        W22731  33.356   6.153  14.020
54327W        W22732   8.862  43.719   2.873
54328W        W22733  22.259  35.419   3.641
54329W        W22734  34.557  37.553   1.759
54330W        W22735  13.646  44.418  10.227
54331W        W22736  19.210  36.390  14.013
54332W        W22737  41.634   6.686  13.953
54333W        W22738  24.279   5.372  12.097
54334W        W22739  29.189  22.302   0.291
54335W        W22740  43.295   8.401   0.168
54336W        W22741  28.462  44.084  11.055
54337W        W22742  37.626   7.301   1.744
54338W        W22743  25.490  31.624  13.450
54339W        W22744   6.460  10.616   3.145
54340W        W22745   6.729  14.741  14.973
54341W        W22746  35.827  22.551   2.707
54342W        W22747  37.991  37.740  10.354
54343W        W22748   5.374   5.271  10.144
54344W        W22749   3.779   6.291  12.998
54345W        W22750   2.824  36.890  14.631
54346W        W22751   2.151  42.581  11.001
54347W        W22752   8.251  44.717   3.416
54348W        W22753  18.756  20.155   4.294
54349W        W22754  14.768  11.145   2.402
54350W        W22755   2.164  37.328   1.398
54351W        W22756  26.535  40.901  14.320
54352W        W22757  10.253  22.615  12.899
54353W        W22758  42.236  34.679   4.198
54354W        W22759  43.862  15.193   0.914
54355W        W22760   6.516  36.877  12.421
54356W        W22761  34.653  15.687  10.925
54357W        W22762   2.403  14.085   0.345
54358W        W22763  14.783  28.673  11.573
54359W        W22764  16.305  22.569   2.866
54360W        W22765   7.780  43.919   4.375
54361W        W22766   6.753  34.334   3.638
54362W        W22767  24.501  13.665   2.822
54363W        W22768   3.378  15.629  14.899
54364W        W22769  42.285  13.195  13.075
54365W        W22770  13.723   1.027   4.030
54366W        W22771  37.553  40.786   1.195
54367W        W22772  38.478  32.637  11.498
54368W        W22773  14.349  31.206   3.285
54369W        W22774  25.029   3.798  11.154
54370W        W22775  12.896   0.497   0.795
54371W        W22776  39.341  39.630   3.707
54372W        W22777  27.887  13.892  13.523
54373W        W22778  40.871  41.546  13.057
54374W        W22779  22.048   6.720  10.622
54375W        W22780  14.008  37.889  13.057
54376W        W22781  14.644  24.018   1.396
54377W        W22782  23.631  20.214   3.238
54378W        W22783   2.125  22.329   2.414
54379W        W22784  20.589  44.336  13.511
54380W        W22785   0.088  38.026   2.399
54381W        W22786  42.323   8.095   1.458
54382W        W22787  29.999  27.931  13.733
54383W        W22788   5.683  44.343  13.404
54384W        W22789  36.105  42.728  14.117
54385W        W22790   5.020   9.075   4.135
54386W        W22791  15.103  19.176  12.445
54387W        W22792  26.973   8.702   0.775
54388W        W22793  24.067  10.210  14.830
54389W        W22794  16.755  44.041   2.366
54390W        W22795  13.483  15.585  12.115
54391W        W22796  28.676   0.533  10.650
54392W        W22797   1.286  35.494   4.913
54393W        W22798  29.920  15.567   1.273
54394W        W22799  43.427  28.183  12.868
54395W        W22800  23.548  36.410   3.657
54396W        W22801  44.519  29.385   0.443
54397W        W22802   7.256  34.945   4.014
54398W        W22803  24.627  12.828   3.290
54399W        W22804  36.362  43.267  13.407
54400W        W22805   1.026  14.324   2.472
54401W        W22806  32.862  38.351   1.420
54402W        W22807  41.267  23.177  10.628
54403W        W22808   7.208  28.366   5.008
54404W        W22809   6.555  38.121  12.159
54405W        W22810  16.667  10.580  13.507
54406W        W22811   0.066  22.736   3.957
54407W        W22812  29.925  35.560  10.684
54408W        W22813  24.723  36.515  12.060
54409W        W22814  41.795  10.895   4.248
54410W        W22815  12.884  29.494   1.587
54411W        W22816  28.565  30.336   0.655
54412W        W22817  36.360   1.254  12.893
54413W        W22818  40.333   2.484  11.151
54414W        W22819  28.413  38.719  14.514
54415W        W22820   1.934   9.302  14.467
54416W        W22821  38.284  26.665   1.768
54417W        W22822  30.600  25.553   3.200
54418W        W22823   9.682   3.507  11.577
54419W        W22824  16.597   2.974  12.355
54420W        W22825  34.651  36.216  11.244
54421W        W22826  27.523  19.525  10.592
54422W        W22827  40.465   9.902   4.069
54423W        W22828  18.839  35.706  10.651
54424W        W22829   8.754  44.945   0.813
54425W        W22830  22.335   5.650   1.326
54426W        W22831  16.767  39.729  11.440
54427W        W22832  29.987  34.000  12.022
54428W        W22833  28.097  19.035   3.643
54429W        W22834  30.090  39.766   1.838
54430W        W22835  40.344  37.615  13.524
54431W        W22836  39.751   9.777   1.252
54432W        W22837   7.382  29.988   3.761
54433W        W22838  15.375  26.436  14.007
54434W        W22839  14.611  36.119  12.017
54435W        W22840   1.723  18.071  13.844
54436W        W22841   1.375  31.234   2.325
54437W        W22842   0.814  36.763   2.446
54438W        W22843  19.158   8.259   0.976
54439W        W22844  43.154  41.159  13.069
54440W        W22845  24.263  20.840   3.758
54441W        W22846   8.238  23.194  11.262
54442W        W22847   1.667  19.873  14.793
54443W        W22848   2.190   0.790  13.521
54444W        W22849   6.223  22.505   3.234
54445W        W22850  16.721  16.814  14.389
54446W        W22851   8.178  19.301  13.962
54447W        W22852  40.985  30.197  13.364
54448W        W22853  29.115  20.115  12.968
54449W        W22854  24.463   6.682   2.838
54450W        W22855  40.833  33.638  14.038
54451W        W22856  30.488  23.760   0.498
54452W        W22857  24.916  17.365   2.054
54453W        W22858  15.232  10.348   1.705
54454W        W22859  26.233  37.378  14.867
54455W        W22860  11.551  15.869   4.001
54456W        W22861  20.480  29.643   3.699
54457W        W22862  43.887  26.080   0.237
54458W        W22863  41.432  29.170  12.962
54459W        W22864   5.259  40.821   3.225
54460W        W22865  38.933  32.381   0.783
54461W        W22866  27.698   3.289  10.876
54462W        W22867  24.456   2.714   3.397
54463W        W22868  14.314  13.316  14.386
54464W        W22869   9.121  44.029  11.304
54465W        W22870  32.572  24.319  11.355
54466W        W22871  34.594  38.416   0.345
54467W        W22872   0.469  38.639  11.078
54468W        W22873  29.947   7.739   2.819
54469W        W22874  34.584   7.585   2.818
54470W        W22875  18.150  35.430   3.385
54471W        W22876  20.744  15.674   0.933
54472W        W22877   0.948  11.152  14.387
54473W        W22878  44.044   9.699  12.506
54474W        W22879  17.161   2.187  10.684
54475W        W22880  17.640  11.622  11.210
54476W        W22881  23.294   3.402   3.316
54477W        W22882   9.032   9.443   3.366
54478W        W22883  13.124  37.987   2.159
54479W        W22884  36.297  41.346   0.820
54480W        W22885  26.241  40.365   4.685
54481W        W22886  41.009  29.787  11.416
54482W        W22887  31.389  15.339  14.480
54483W        W22888  30.353  23.186  11.084
54484W        W22889  21.076   2.866  12.525
54485W        W22890  41.695  42.359  13.909
54486W        W22891  21.007  32.071   3.487
54487W        W22892  15.153  11.320   1.743
54488W        W22893  13.335  10.913   1.773
54489W        W22894   4.688  16.271  14.944
54490W        W22895   5.695   6.301  12.935
54491W        W22896  44.489  26.416   4.574
54492W        W22897   7.647  16.597   0.667
54493W        W22898   1.850  19.966   1.111
54494W        W22899  30.598  26.204   0.895
54495W        W22900   9.461  32.505   5.000
54496W        W22901   2.623  25.629   3.738
54497W        W22902  14.669   4.717  12.657
54498W        W22903  20.711  22.938  14.019
54499W        W22904  21.993  36.469  13.796
54500W        W22905   2.531   1.543   1.703
54501W        W22906  38.912   4.791   1.899
54502W        W22907  38.341  21.235  13.607
54503W        W22908  35.970  33.943   2.091
54504W        W22909   7.113  42.886   3.776
54505W        W22910  17.712  20.819   0.868
54506W        W22911  37.411  27.702   3.293
54507W        W22912   6.778  44.760   3.178
54508W        W22913  27.684   3.416   4.117
54509W        W22914  28.860  30.137   2.654
54510W        W22915  28.132  30.017   0.264
54511W        W22916  16.499  32.439  11.111
54512W        W22917  11.770  35.696  14.372
54513W        W22918   7.457  21.234   0.922
54514W        W22919   5.853  29.221   2.312
54515W        W22920  25.038  25.713   2.439
54516W        W22921  42.831  27.216   0.854
54517W        W22922  23.756  20.844   3.770
54518W        W22923  38.448  41.548  12.173
54519W        W22924  25.031   0.764  14.382
54520W        W22925  26.458   3.905   4.284
54521W        W22926  27.652  13.236  11.859
54522W        W22927  14.206  14.122   0.803
54523W        W22928  12.347  18.329   0.727
54524W        W22929  10.495   5.736  13.900
54525W        W22930   9.897  30.873   0.350
54526W        W22931   5.237  24.646  11.564
54527W        W22932  15.249  12.864  14.304
54528W        W22933   4.263   4.858   3.598
54529W        W22934  41.838  16.771   4.056
54530W        W22935   6.136   1.283   4.959
54531W        W22936   3.491  43.035   3.261
54532W        W22937  25.324  19.486   2.728
54533W        W22938  25.923  37.050  12.933
54534W        W22939  10.139  27.148  14.834
54535W        W22940  34.524  38.967   0.338
54536W        W22941   9.880  14.262   3.385
54537W        W22942  17.918  32.720   5.104
54538W        W22943  20.194  22.148  10.181
54539W        W22944  14.011   6.760   1.414
54540W        W22945  15.707  22.695  10.001
54541W        W22946  39.731  15.606   0.924
54542W        W22947  24.498  14.931   4.047
54543W        W22948  27.199   0.541   3.790
54544W        W22949  36.519  43.919   4.518
54545W        W22950   7.864  32.514   1.277
54546W        W22951  42.741  18.657   1.868
54547W        W22952  14.654  40.168  13.370
54548W        W22953  20.870  31.128   3.311
54549W        W22954   5.402  43.066   0.347
54550W        W22955  26.480   0.781   3.678
54551W        W22956  10.216  40.622  11.126
54552W        W22957  18.541  38.041  12.600
54553W        W22958  23.144  30.434   0.711
54554W        W22959  14.771  19.936   2.202
54555W        W22960  38.980  29.462  14.455
54556W        W22961  15.552  27.772   3.774
54557W        W22962   6.209  19.807  13.558
54558W        W22963  37.159  16.776  14.252
54559W        W22964  17.042   9.222   4.166
54560W        W22965  22.199  40.912   4.482
54561W        W22966   5.846  30.142   4.659
54562W        W22967  38.378  38.523  13.979
54563W        W22968  14.733   0.993  13.079
54564W        W22969  36.629  21.803   3.377
54565W        W22970  19.979  33.283   2.776
54566W        W22971  38.771   3.482  13.393
54567W        W22972  34.832  23.513  13.759
54568W        W22973   0.601  23.489   2.774
54569W        W22974  44.430  19.625   2.323
54570W        W22975  13.095  18.122   0.004
54571W        W22976  13.286   6.106   4.178
54572W        W22977  34.035  15.943   4.371
54573W        W22978  26.584  10.554   1.928
54574W        W22979  41.994  43.789  10.817
54575W        W22980  28.127  27.530  14.942
54576W        W22981  17.815  43.420   3.787
54577W        W22982   5.878  37.532  12.979
54578W        W22983   0.901  38.594   0.912
54579W        W22984  40.901  43.557   2.791
54580W        W22985  44.850  34.066   3.666
54581W        W22986  18.242  22.726  14.908
54582W        W22987  33.553  16.835  14.853
54583W        W22988  26.397  42.531  13.445
54584W        W22989  20.099   6.824   1.486
54585W        W22990  15.225  42.881   3.269
54586W        W22991  31.378  11.750   4.746
54587W        W22992  21.429  44.391  11.585
54588W        W22993  21.221  15.801  10.009
54589W        W22994  31.407   3.165   0.958
54590W        W22995  35.967  14.149  11.599
54591W        W22996   9.741   0.865  11.396
54592W        W22997  44.062   4.728  12.783
54593W        W22998  43.558   4.835   2.718
54594W        W22999  37.404  26.546   2.789
54595W        W23000  10.164  32.814  14.550
54596W        W23001  24.507  15.901  10.723
54597W        W23002  28.779  25.945   1.300
54598W        W23003  31.113  37.996   4.034
54599W        W23004  32.573   5.645  14.041
54600W        W23005  17.989  34.165  12.431
54601W        W23006   4.475  41.061   1.273
54602W        W23007  15.236  17.053  11.123
54603W        W23008   1.373  44.727  11.961
54604W        W23009  23.174  16.162   1.790
54605W        W23010  23.435  20.343   3.700
54606W        W23011  43.468  24.634   1.741
54607W        W23012  31.542   7.700   1.401
54608W        W23013  35.153   0.839  14.862
54609W        W23014  37.886  42.808  11.651
54610W        W23015  44.543   3.218  13.553
54611W        W23016   0.090  36.383  14.884
54612W        W23017  25.385  16.921   0.709
54613W        W23018  16.057  37.322   1.876
54614W        W23019  29.135   9.270   4.709
54615W        W23020  23.592  34.001  12.190
54616W        W23021   3.451  24.272  12.958
54617W        W23022   0.306  17.727   3.625
54618W        W23023  15.152  23.508  13.032
54619W        W23024  24.258   7.485  14.384
54620W        W23025   7.577  39.454  13.875
54621W        W23026  37.983  42.641   4.912
54622W        W23027  39.390   5.274  14.287
54623W        W23028  38.692  31.573  11.147
54624W        W23029  27.583  35.055   4.064
54625W        W23030  17.488  35.118  13.842
54626W        W23031  24.471  13.123   0.043
54627W        W23032  44.442  15.635  10.791
54628W        W23033  35.649   8.507  11.134
54629W        W23034   5.738   0.874  12.803
54630W        W23035   4.228   4.441   4.739
54631W        W23036  20.022   1.778   0.735
54632W        W23037  14.171  31.870   5.058
54633W        W23038  28.733  41.153   1.657
54634W        W23039  22.767  21.164  14.505
54635W        W23040  23.673  28.708   1.357
54636W        W23041  43.471  14.219   1.772
54637W        W23042   2.713  25.133   0.459
54638W        W23043  43.189  40.356  13.304
54639W        W23044  31.513  31.936  14.873
54640W        W23045   4.449   8.389   2.450
54641W        W23046  33.862   6.877  12.227
54642W        W23047  20.969  25.128  13.586
54643W        W23048  37.073  29.057  14.461
54644W        W23049  24.867   4.347  12.050
54645W        W23050   3.697  23.681  12.955
54646W        W23051  44.513  12.798   4.101
54647W        W23052  10.675  30.597  14.289
54648W        W23053  18.232  32.779  10.167
54649W        W23054  14.226   0.939  14.691
54650W        W23055  17.722  30.360   0.872
54651W        W23056  15.160  13.697   3.403
54652W        W23057  35.670  19.230  11.027
54653W        W23058  32.917  28.879   1.538
54654W        W23059  36.616   1.304  12.057
54655W        W23060  14.281  15.131   3.683
54656W        W23061   5.771  11.805  13.129
54657W        W23062   6.488  39.860   0.825
54658W        W23063  37.645   7.647   1.352
54659W        W23064   2.685  18.410  12.343
54660W        W23065  32.915  19.501  13.047
54661W        W23066   7.596  24.185  14.367
54662W        W23067  31.648  22.761  13.417
54663W        W23068  13.679  35.054   1.432
54664W        W23069  36.208  33.803  11.941
54665W        W23070   5.445  23.785  11.858
54666W        W23071   2.960  32.688   3.301
54667W        W23072  32.150  20.649   0.472
54668W        W23073  39.265  25.961  13.556
54669W        W23074  20.689  41.276  11.988
54670W        W23075  24.118  26.690  13.406
54671W        W23076  14.072   9.769  11.709
54672W        W23077   6.187   3.336  14.390
54673W        W23078  42.540  16.394  11.972
54674W        W23079  14.761   7.129  11.560
54675W        W23080   6.956  28.523   4.574
54676W        W23081   9.367   5.436   0.066
54677W        W23082   6.751  13.745   3.995
54678W        W23083  26.226  38.808   3.126
54679W        W23084  18.193  28.714  11.166
54680W        W23085  34.925  23.836   2.759
54681W        W23086  42.090  32.898  11.630
54682W        W23087  34.223  35.421   0.855
54683W        W23088  29.963  16.729   1.752
54684W        W23089   7.681  34.623   4.649
54685W        W23090  37.466  19.999  10.794
54686W        W23091  10.108  10.242  13.982
54687W        W23092  20.793  16.058  14.902
54688W        W23093   2.936  37.585   1.213
54689W        W23094   1.346  38.839   2.541
54690W        W23095  15.705  38.147  10.424
54691W        W23096  33.965  30.641   2.972
54692W        W23097  28.322  41.282   4.503
54693W        W23098   8.429  31.025  13.099
54694W        W23099  11.881  32.001   1.663
54695W        W23100   1.849  33.373   2.730
54696W        W23101  29.014  43.539   0.029
54697W        W23102  23.687  35.918   0.516
54698W        W23103  34.904  24.300  11.180
54699W        W23104  40.488  44.235   9.979
54700W        W23105  16.558  32.696   2.296
54701W        W23106  32.007  22.428  13.563
54702W        W23107  44.929  34.319   4.892
54703W        W23108  15.029  37.945  13.022
54704W        W23109  40.368  16.034  12.038
54705W        W23110  20.728  35.327  14.346
54706W        W23111  38.157  14.089   1.372
54707W        W23112  26.655  14.101  11.206
54708W        W23113   0.699  42.369  10.739
54709W        W23114  35.879  42.905   4.599
54710W        W23115   2.784  14.563  14.416
54711W        W23116   8.767  22.023   3.717
54712W        W23117   5.711  23.695   0.950
54713W        W23118  41.506   8.996   4.324
54714W        W23119  13.782  20.795  14.511
54715W        W23120  15.569  30.889  12.436
54716W        W23121   1.747  38.155   2.727
54717W        W23122  14.340  42.864   4.495
54718W        W23123   9.279  33.432   4.206
54719W        W23124  35.561   6.465  12.112
54720W        W23125   1.129  21.238   4.333
54721W        W23126  40.340  24.471  13.108
54722W        W23127   0.321   0.982   1.450
54723W        W23128  11.709  11.655  14.594
54724W        W23129  36.321  17.669  14.805
54725W        W23130  37.825  44.645  12.234
54726W        W23131  18.644  18.708   3.076
54727W        W23132  41.199  44.973   1.345
54728W        W23133  40.343  37.001   3.637
54729W        W23134  10.456  38.415  14.893
54730W        W23135  32.641  39.902  10.587
54731W        W23136  10.149  18.284  13.107
54732W        W23137  34.759   8.696  12.801
54733W        W23138  12.674   6.814   0.998
54734W        W23139  20.753  43.950   1.107
54735W        W23140  32.017   8.339   0.995
54736W        W23141  14.780  22.610   2.203
54737W        W23142  18.355  29.199  11.098
54738W        W23143  34.410  39.998   1.957
54739W        W23144  36.864  38.381  11.372
54740W        W23145  24.106  40.892  12.177
54741W        W23146  40.466  43.025   3.313
54742W        W23147  33.002  19.416   0.498
54743W        W23148  32.249   4.966  12.545
54744W        W23149  17.144  15.453  10.084
54745W        W23150  17.026  24.771   3.379
54746W        W23151  14.102   6.376   1.722
54747W        W23152   8.872  35.566   3.568
54748W        W23153  30.600   9.814  14.615
54749W        W23154   5.413   1.722  13.989
54750W        W23155  23.152  40.812  13.331
54751W        W23156  43.506  20.498   3.425
54752W        W23157  43.691   4.998  14.978
54753W        W23158  16.673  20.722  11.609
54754W        W23159   0.286  37.898   0.030
54755W        W23160   0.857  44.284   1.926
54756W        W23161  21.247  13.340  13.370
54757W        W23162  37.768  15.427  11.788
54758W        W23163   5.164  42.705  13.112
54759W        W23164  25.472  23.666   1.137
54760W        W23165  37.314  18.222  13.914
54761W        W23166  22.108  39.258  14.580
54762W        W23167  14.846  30.962  13.943
54763W        W23168  25.489  37.433   2.664
54764W        W23169  34.034  43.855   0.329
54765W        W23170  37.836  43.087   3.511
54766W        W23171  13.759  44.323   0.382
54767W        W23172  19.084   2.318  10.667
54768W        W23173   7.111  27.528   0.251
54769W        W23174   7.325  28.076   1.959
54770W        W23175   0.866  14.343   1.785
54771W        W23176  42.279   3.393  13.710
54772W        W23177   2.750  36.128   0.814
54773W        W23178  38.840   5.293   9.913
54774W        W23179  10.570  18.710  12.555
54775W        W23180  19.617  27.312   4.825
54776W        W23181  28.768   7.647  11.620
54777W        W23182  31.890  28.646  13.899
54778W        W23183  25.560   4.998  14.014
54779W        W23184  39.063   6.233  14.117
54780W        W23185  34.817   8.784   3.569
54781W        W23186  35.953   5.613   4.758
54782W        W23187   0.475  38.615   1.707
54783W        W23188  30.664  39.273  10.038
54784W        W23189  34.010  22.468  14.797
54785W        W23190   9.390  23.945   3.259
54786W        W23191   7.438  17.286   4.604
54787W        W23192   2.794  32.897   2.840
54788W        W23193  11.142  32.939   0.297
54789W        W23194  40.628  37.986   0.830
54790W        W23195  13.552  41.549   2.733
54791W        W23196   5.139  28.048   4.715
54792W        W23197  24.877  13.608  14.399
54793W        W23198  34.497   1.302  10.701
54794W        W23199  36.378   7.316   0.200
54795W        W23200  44.514  20.043  11.145
54796W        W23201  30.053  39.253  12.822
54797W        W23202   3.403  23.479   3.939
54798W        W23203  15.388  28.117  12.860
54799W        W23204  36.147  12.314  11.560
54800W        W23205  14.977  43.582   1.057
54801W        W23206  17.218  40.879  14.959
54802W        W23207  38.071   6.267  13.874
54803W        W23208  38.318   1.297  14.803
54804W        W23209  30.562  34.787  14.345
54805W        W23210  40.086   7.944   2.923
54806W        W23211   6.888   0.790   0.001
54807W        W23212  14.864  26.494  14.891
54808W        W23213  31.542  34.108   1.670
54809W        W23214  20.575  30.110  13.661
54810W        W23215  11.748  32.660  11.654
54811W        W23216  30.447   0.781  12.089
54812W        W23217  31.987  29.660   0.260
54813W        W23218  26.625  35.347   3.897
54814W        W23219  19.298   3.951  11.569
54815W        W23220  24.786   8.853   1.413
54816W        W23221  10.719   2.552   0.978
54817W        W23222  28.402  21.260   0.578
54818W        W23223  14.348  42.335  11.143
54819W        W23224  15.713  36.137   4.475
54820W        W23225   5.066  14.740   0.739
54821W        W23226   7.689  35.638   2.045
54822W        W23227  28.533   2.770   1.689
54823W        W23228  25.307  26.013  12.927
54824W        W23229  39.668  12.589  12.366
54825W        W23230  23.920   0.397   3.213
54826W        W23231  14.310  39.494  14.992
54827W        W23232  14.242  22.157   0.563
54828W        W23233  25.223  34.097  13.812
54829W        W23234  31.134   3.485  11.046
54830W        W23235   1.052  31.397   2.699
54831W        W23236   8.356  25.509  11.991
54832W        W23237  31.963  44.628   4.285
54833W        W23238  11.381   1.064   2.488
54834W        W23239   1.409   4.438  10.387
54835W        W23240  27.908  16.258  11.834
54836W        W23241   1.806  36.335   3.199
54837W        W23242   8.149  23.658   0.448
54838W        W23243  41.293  24.202  12.868
54839W        W23244  32.183   3.383  11.544
54840W        W23245  16.780  35.816  14.820
54841W        W23246  31.361  31.619  10.635
54842W        W23247  27.171  16.583  11.854
54843W        W23248  12.097  40.851  13.812
54844W        W23249  24.992   0.757  11.502
54845W        W23250  37.896   3.260   2.242
54846W        W23251  17.074  31.917   1.340
54847W        W23252  13.629  33.556   2.304
54848W        W23253  29.026  43.996   2.694
54849W        W23254   1.782  40.319   3.664
54850W        W23255  21.241  33.621   1.665
54851W        W23256   5.941  10.888   0.713
54852W        W23257   8.073  19.237   3.115
54853W        W23258  13.631  44.648  12.030
54854W        W23259  23.174  16.304  14.761
54855W        W23260  35.498  21.535   1.881
54856W        W23261  32.871   7.892  13.949
54857W        W23262   4.732  41.798  11.573
54858W        W23263  25.654  20.226  10.681
54859W        W23264  36.852  39.078   1.408
54860W        W23265   1.386  22.092   2.839
54861W        W23266  10.134  21.933  13.806
54862W        W23267  36.364  20.753  11.359
54863W        W23268   9.486  20.105  11.141
54864W        W23269   6.814  29.945  14.370
54865W        W23270   3.803  35.965   0.877
54866W        W23271  25.560  44.489  11.170
54867W        W23272  34.322  23.579  13.591
54868W        W23273   0.368  33.842  13.946
54869W        W23274  27.860  40.584   2.852
54870W        W23275  42.048   8.714  14.391
54871W        W23276  22.541  17.813  13.852
54872W        W23277   4.202  19.334  13.095
54873W        W23278  14.704  21.743   3.474
54874W        W23279  15.532  38.210   2.814
54875W        W23280  28.374  31.422   0.266
54876W        W23281  41.518  24.167   2.695
54877W        W23282   4.146  21.968   3.775
54878W        W23283  36.910  10.629   1.706
54879W        W23284  18.170  33.150   2.228
54880W        W23285  10.274  23.741  12.068
54881W        W23286  13.122  21.498  14.478
54882W        W23287  22.023  18.476   3.250
54883W        W23288   4.831   1.489   0.454
54884W        W23289  34.793  32.723   1.437
54885W        W23290   8.292  15.398  12.130
54886W        W23291  18.302  36.456   2.714
54887W        W23292  30.598   4.982   2.292
54888W        W23293  20.730   4.537  11.721
54889W        W23294  35.658   5.174   3.081
54890W        W23295  21.009  21.552   0.896
54891W        W23296  23.692   3.741   3.236
54892W        W23297  27.596  28.863   1.820
54893W        W23298  16.099  16.798   2.759
54894W        W23299  28.199  20.799   2.694
54895W        W23300  44.935  34.673   2.821
54896W        W23301  37.236   6.657   3.251
54897W        W23302  21.007  10.863  10.882
54898W        W23303   7.221  41.205   0.203
54899W        W23304  12.135  29.094  13.979
54900W        W23305  18.517  34.033  14.729
54901W        W23306  43.531   1.329   0.281
54902W        W23307  29.753  43.360  13.628
54903W        W23308  38.540   8.641  13.058
54904W        W23309  44.636  19.313   0.463
54905W        W23310  27.986  41.971   4.140
54906W        W23311  13.642  26.757  11.954
54907W        W23312  25.070  24.656   0.954
54908W        W23313  30.275  37.070   1.783
54909W        W23314  42.987  16.315  12.843
54910W        W23315  41.509   4.227   3.189
54911W        W23316  22.476  28.207  14.744
54912W        W23317  17.039  16.401   3.597
54913W        W23318  12.376  41.482   1.694
54914W        W23319  33.024  44.262   3.827
54915W        W23320  40.348  11.664  11.975
54916W        W23321   5.260  15.619   3.733
54917W        W23322  13.798  40.310   2.286
54918W        W23323   0.351  35.539  10.982
54919W        W23324   2.432  31.143  12.654
54920W        W23325   3.904  41.572   3.743
54921W        W23326  11.403  21.848  11.111
54922W        W23327  26.293  22.425  14.327
54923W        W23328   9.366  43.831   0.824
54924W        W23329   5.304  27.672   4.406
54925W        W23330  44.539   6.265  11.558
54926W        W23331  29.013  27.055  13.372
54927W        W23332  15.213  35.483  12.135
54928W        W23333  16.725  26.339   4.795
54929W        W23334   1.946  26.837  12.029
54930W        W23335  20.231  24.031  13.643
54931W        W23336  23.284   2.646  13.032
54932W        W23337  34.393  12.874   1.413
54933W        W23338  30.424   8.777   3.207
54934W        W23339   3.280  41.612   0.776
54935W        W23340  26.457  32.010  10.495
54936W        W23341  19.100   0.931   1.575
54937W        W23342   8.190  28.990   2.140
54938W        W23343  11.067  22.697   1.433
54939W        W23344  34.730   9.221  11.642
54940W        W23345  42.761   2.779   4.135
54941W        W23346   8.583  15.960   3.665
54942W        W23347  16.335   3.873   1.682
54943W        W23348  12.342   1.211  12.915
54944W        W23349  10.683  38.525   0.772
54945W        W23350   4.802  28.046  13.438
54946W        W23351  33.684  22.552  11.604
54947W        W23352  31.885   9.696  11.400
54948W        W23353  27.056  22.231  13.296
54949W        W23354  13.566  21.739  13.591
54950W        W23355  12.018   3.476  11.595
54951W        W23356  35.991   3.134   3.766
54952W        W23357   2.351   1.357  14.971
54953W        W23358  11.700  32.061   4.551
54954W        W23359  31.900  41.784  10.283
54955W        W23360  40.375   8.993   2.305
54956W        W23361  38.435  18.673   3.290
54957W        W23362  13.590  34.378   4.177
54958W        W23363  17.597  17.663   0.714
54959W        W23364  44.803   6.753  10.027
54960W        W23365  39.442  26.960   4.071
54961W        W23366  43.741   0.559  10.233
54962W        W23367  38.418  42.297   1.869
54963W        W23368   7.676  17.252  10.986
54964W        W23369  25.434  22.470   0.866
54965W        W23370  16.914  18.123  11.661
54966W        W23371  28.109  44.926   3.742
54967W        W23372  38.270  28.422  13.790
54968W        W23373  33.988   2.753   2.368
54969W        W23374  29.598  34.977  14.478
54970W        W23375  19.668  33.948   2.708
54971W        W23376   6.414  36.503  13.050
54972W        W23377  28.660  28.649   1.327
54973W        W23378  34.786  23.299  11.145
54974W        W23379  35.909  29.230   4.074
54975W        W23380  25.993   3.707  11.364
54976W        W23381  26.726   0.462  13.030
54977W        W23382  16.728  36.833   2.304
54978W        W23383  10.907  16.457  11.446
54979W        W23384   6.670  44.903  12.525
54980W        W23385   7.904  13.576  11.157
54981W        W23386  40.888  31.841   3.221
54982W        W23387  17.163   5.931   2.386
54983W        W23388  39.369  27.609  10.762
54984W        W23389  42.352  31.971  13.422
54985W        W23390  43.131  21.055  14.371
54986W        W23391  13.312  21.748  14.904
54987W        W23392  36.598  18.776  13.394
54988W        W23393  10.933  15.505  12.618
54989W        W23394  12.153  26.788   3.171
54990W        W23395  17.143   7.165  14.045
54991W        W23396  10.981   8.761  12.497
54992W        W23397  19.726  29.403   4.798
54993W        W23398  26.474  18.099  12.849
54994W        W23399  38.324  35.836   0.391
54995W        W23400  33.697   7.209  13.805
54996W        W23401  17.683  11.115  11.365
54997W        W23402  33.484  17.318  14.548
54998W        W23403  40.483  39.792   0.039
54999W        W23404  24.561  28.234   1.145
55000W        W23405   1.953  14.357  12.544
55001W        W23406  42.149  37.120  12.705
55002W        W23407  16.092  31.876   1.404
55003W        W23408   3.368  12.694   1.760
55004W        W23409  41.398   3.260   0.994
55005W        W23410  14.054   5.775  13.854
55006W        W23411  41.975  18.099   4.534
55007W        W23412  19.087  22.073   1.904
55008W        W23413  35.656  39.097  13.946
55009W        W23414  35.210  36.328   0.848
55010W        W23415  15.062  37.521  11.275
55011W        W23416  12.795  38.516  13.416
55012W        W23417   9.481  40.311  11.925
55013W        W23418  20.580  31.193  14.854
55014W        W23419  23.014   0.344  14.528
55015W        W23420   0.773  12.265   2.802
55016W        W23421  23.579  26.520   2.599
55017W        W23422  44.830  23.742  11.680
55018W        W23423  29.442  22.705   4.587
55019W        W23424  32.242  23.678   1.818
55020W        W23425  34.017  20.246  14.456
55021W        W23426  10.149  19.761  12.006
55022W        W23427  10.949  33.367   1.311
55023W        W23428  39.335  25.545   2.275
55024W        W23429  15.931  22.572  14.917
55025W        W23430  36.768  16.204  11.163
55026W        W23431   4.231  12.250   4.043
55027W        W23432  31.474  44.266   1.574
55028W        W23433   2.914   1.375  11.470
55029W        W23434   7.287  20.614   2.502
55030W        W23435  22.676  15.213   4.104
55031W        W23436   9.527  12.569  10.231
55032W        W23437  34.624   7.374   4.014
55033W        W23438  13.361   9.927  13.790
55034W        W23439  19.341  25.564  12.058
55035W        W23440  35.463  14.723   1.151
55036W        W23441  10.724  35.532  13.193
55037W        W23442  40.326   0.544  10.998
55038W        W23443   8.185   8.261   1.924
55039W        W23444   6.513  11.381   4.151
55040W        W23445  26.203  30.704   4.564
55041W        W23446  44.739  30.572  13.844
55042W        W23447  28.876   5.239  10.688
55043W        W23448  41.801  25.397  13.526
55044W        W23449  36.106   3.351   2.429
55045W        W23450  35.302   5.928  13.019
55046W        W23451  38.101  35.832  14.624
55047W        W23452  20.315  28.006   0.932
55048W        W23453  10.287   9.953   0.427
55049W        W23454  37.381  27.232   1.863
55050W        W23455  11.211  35.461   1.775
55051W        W23456   5.439  40.579   0.561
55052W        W23457   4.891  27.644  13.801
55053W        W23458   9.319   6.362  13.677
55054W        W23459  30.850  42.541  14.034
55055W        W23460  25.006  14.183   1.870
55056W        W23461   5.679  15.863   3.481
55057W        W23462  25.107  28.693  10.696
55058W        W23463  14.538  39.000   0.254
55059W        W23464  21.478  39.362  12.916
55060W        W23465  11.774  32.210  14.516
55061W        W23466  44.300   3.049  10.300
55062W        W23467  43.050   3.159  10.788
55063W        W23468  36.414   2.703   2.212
55064W        W23469   8.691   3.031  13.012
55065W        W23470   2.058  24.257  12.572
55066W        W23471  13.205  27.336  11.986
55067W        W23472  17.776   8.959   4.566
55068W        W23473  34.415  15.259  11.106
55069W        W23474  41.046  18.330  13.048
55070W        W23475  10.444  16.252   2.574
55071W        W23476  17.564  42.551  14.918
55072W        W23477  30.351  36.825  11.663
55073W        W23478  38.819  40.382   9.953
55074W        W23479  18.576  38.054  10.804
55075W        W23480   0.819  15.482  14.967
55076W        W23481   9.896   5.298  13.442
55077W        W23482  21.591  37.578  14.539
55078W        W23483  20.218   5.512  12.574
55079W        W23484  34.230   2.344  12.838
55080W        W23485   0.449  10.855   3.698
55081W        W23486  23.776  28.982  12.925
55082W        W23487  35.929   1.860   3.144
55083W        W23488  38.633  17.537   3.697
55084W        W23489  16.991  41.993   4.624
55085W        W23490   8.115   9.914   4.086
55086W        W23491  24.422   3.343   5.140
55087W        W23492  34.767  20.319  13.045
55088W        W23493  15.537   7.070  11.524
55089W        W23494  11.399   5.764  14.801
55090W        W23495  39.652   3.759  11.523
55091W        W23496   5.663  33.659   0.509
55092W        W23497  41.811   5.726  13.103
55093W        W23498  14.424  25.135   2.050
55094W        W23499  36.356  17.029  11.589
55095W        W23500  36.970   5.493   1.744
55096W        W23501   1.803  41.775  10.948
55097W        W23502  15.513  44.478  12.176
55098W        W23503   3.328  36.822   3.409
55099W        W23504  12.769  14.594   1.266
55100W        W23505   4.694   0.956   1.804
55101W        W23506  42.903  22.662   3.641
55102W        W23507  18.098  11.820  14.114
55103W        W23508  43.771  32.130   1.355
55104W        W23509   8.394  13.428  12.020
55105W        W23510  44.751   4.000   3.738
55106W        W23511  43.810  15.660  12.011
55107W        W23512   1.787  18.548   0.901
55108W        W23513  12.567  41.335  14.776
55109W        W23514  34.553  36.634  14.398
55110W        W23515  41.601  20.288  11.021
55111W        W23516  31.567  36.285   0.358
55112W        W23517  35.957   8.502   4.555
55113W        W23518  34.106  12.214   0.418
55114W        W23519   7.748  26.725  10.176
55115W        W23520  39.637  33.113   3.322
55116W        W23521  35.472  34.431  12.150
55117W        W23522  18.838   9.002   3.839
55118W        W23523  44.428   6.342   3.041
55119W        W23524   1.518  32.515  13.340
55120W        W23525  24.536  32.148  11.112
55121W        W23526  29.179  38.406  11.667
55122W        W23527  27.620  37.602  11.913
55123W        W23528   1.466  42.939  10.690
55124W        W23529   5.381   0.851   2.202
55125W        W23530   3.135  43.424   0.315
55126W        W23531   4.287   6.842  13.556
55127W        W23532  12.103  15.176   2.489
55128W        W23533  20.671  40.413  12.769
55129W        W23534  41.075  34.578   1.346
55130W        W23535  16.124  11.726  10.963
55131W        W23536  26.961  23.787   3.845
55132W        W23537  32.478   8.044   2.663
55133W        W23538  14.806  38.090  12.171
55134W        W23539   3.209   5.271   0.929
55135W        W23540  31.567  23.882   2.350
55136W        W23541  10.197  20.799   1.230
55137W        W23542  17.732   5.459  10.647
55138W        W23543   8.764  43.735   1.914
55139W        W23544   9.710   6.663  14.417
55140W        W23545   3.276  41.396  13.395
55141W        W23546  20.218  28.729  10.453
55142W        W23547   5.874  35.870   4.589
55143W        W23548  42.879   4.190  10.733
55144W        W23549  33.624  21.070   2.351
55145W        W23550  43.144  10.078  12.921
55146W        W23551   7.013   2.732  11.091
55147W        W23552   1.897  14.340  11.451
55148W        W23553   9.493  11.952  14.226
55149W        W23554  43.288  16.388  10.640
55150W        W23555  28.466  22.965   2.152
55151W        W23556  44.902   1.778   3.356
55152W        W23557  17.078  26.890  12.054
55153W        W23558  40.921  14.236  10.771
55154W        W23559  43.026   6.746  13.804
55155W        W23560  12.433   3.690   1.303
55156W        W23561  42.391  39.992   4.250
55157W        W23562  26.863  10.267  14.440
55158W        W23563  24.205  37.872   2.496
55159W        W23564  44.525  18.114   1.711
55160W        W23565   6.558  11.606   4.739
55161W        W23566  21.661  35.116  10.751
55162W        W23567   9.096  38.244  14.548
55163W        W23568  42.382  15.232   3.845
55164W        W23569  14.750  12.581   3.717
55165W        W23570   9.583  34.996  10.433
55166W        W23571  33.046  42.822  14.382
55167W        W23572   7.700  28.058   3.044
55168W        W23573  19.499  19.059  12.106
55169W        W23574  13.249  15.089  13.495
55170W        W23575  15.668   4.034  10.701
55171W        W23576   3.920  10.816  14.117
55172W        W23577  20.181  29.488  12.654
55173W        W23578  12.294  42.972   1.591
55174W        W23579  10.755  27.295  14.817
55175W        W23580  39.648  19.479   3.797
55176W        W23581   3.332  36.889  14.786
55177W        W23582   8.910   7.926  11.143
55178W        W23583  22.316  29.990   3.575
55179W        W23584  16.478  14.277   3.299
55180W        W23585   7.240  11.071   3.611
55181W        W23586  17.744   4.478  12.461
55182W        W23587  15.153   4.245  13.167
55183W        W23588  14.745  42.055   0.370
55184W        W23589  15.009  35.949  10.314
55185W        W23590  27.170  43.780  11.672
55186W        W23591  18.627   2.121  14.361
55187W        W23592  40.497  15.661  12.997
55188W        W23593  37.815  15.589  12.293
55189W        W23594   2.811  11.780  14.843
55190W        W23595  37.866  39.593   4.304
55191W        W23596   3.859  35.417  14.453
55192W        W23597  19.074  29.406   3.091
55193W        W23598  37.878  34.585  10.549
55194W        W23599  37.466  28.846   4.141
55195W        W23600  42.685  30.345  14.125
55196W        W23601  24.042  29.839  13.985
55197W        W23602  16.229  30.856   4.228
55198W        W23603  43.986  35.961   3.836
55199W        W23604  33.075   0.192  13.517
55200W        W23605  26.190  26.797   4.062
55201W        W23606  32.660  35.099  12.232
55202W        W23607  14.824  26.312   2.486
55203W        W23608  21.851   1.869  10.751
55204W        W23609  21.430  42.768  11.960
55205W        W23610  23.956   7.220   3.777
55206W        W23611  41.107  29.431   0.047
55207W        W23612  42.007  31.865   9.916
55208W        W23613  23.219  19.533   4.135
55209W        W23614  14.232  10.073   3.878
55210W        W23615  40.972  33.531  11.372
55211W        W23616   1.686   9.112   0.833
55212W        W23617   0.383   0.049   4.299
55213W        W23618  25.163  23.389   0.403
55214W        W23619  42.897  12.905  13.855
55215W        W23620   7.813   1.985  12.433
55216W        W23621  27.030  15.535  14.448
55217W        W23622  40.827  28.461  14.378
55218W        W23623  34.520  42.696   2.072
55219W        W23624   0.350   5.635   0.304
55220W        W23625  22.103  13.272   4.872
55221W        W23626  18.347  24.562  12.059
55222W        W23627  35.118  39.093  14.797
55223W        W23628  21.677   9.419   2.775
55224W        W23629  13.568   9.579  11.184
55225W        W23630  34.434  15.591   1.884
55226W        W23631  44.569   7.866  12.377
55227W        W23632   1.425  33.503   3.274
55228W        W23633  12.838  28.507   1.312
55229W        W23634   5.367  16.807   0.399
55230W        W23635  36.998   1.019   0.897
55231W        W23636  21.736  29.785  14.389
55232W        W23637  20.122  42.695  13.815
55233W        W23638  31.864  16.584   3.054
55234W        W23639  40.447  34.747  13.191
55235W        W23640  43.167  42.889   4.594
55236W        W23641   0.760  36.002  13.226
55237W        W23642  11.176  28.560  14.931
55238W        W23643  12.817  40.172  13.186
55239W        W23644   3.180   7.900   0.957
55240W        W23645  11.339  44.277  13.312
55241W        W23646  34.934  14.618  12.558
55242W        W23647  24.064   3.932   2.020
55243W        W23648   8.844  34.533   0.063
55244W        W23649  44.413  44.007   1.353
55245W        W23650  12.936  27.267  13.036
55246W        W23651   3.418  34.937  10.626
55247W        W23652  37.139   1.961  14.816
55248W        W23653  12.196  21.517   1.250
55249W        W23654   6.468  18.608  14.571
55250W        W23655   5.579  10.084   0.851
55251W        W23656  44.537   7.377  14.400
55252W        W23657  22.922   8.577  13.035
55253W        W23658  37.228  33.733   0.723
55254W        W23659  43.032  32.827   0.489
55255W        W23660  25.811   5.697  12.595
55256W        W23661  24.570  44.955  10.512
55257W        W23662  15.215  30.927   1.148
55258W        W23663   3.723  43.825  10.812
55259W        W23664  16.355   8.498  12.995
55260W        W23665  37.392  29.357   4.122
55261W        W23666  14.598  17.472  13.509
55262W        W23667  17.506   4.284   1.066
55263W        W23668  35.334  21.015   4.108
55264W        W23669   5.153   4.398  13.221
55265W        W23670  42.659  10.160   0.851
55266W        W23671  18.307  17.161  11.625
55267W        W23672  30.466  37.055   0.092
55268W        W23673  17.634  44.980   1.228
55269W        W23674  37.633  22.735  12.967
55270W        W23675  23.936  22.747   1.323
55271W        W23676  43.811  16.538  10.687
55272W        W23677  25.571   7.785   4.067
55273W        W23678  15.734  12.816  14.571
55274W        W23679  40.374  29.268   0.316
55275W        W23680  21.463  24.531   2.322
55276W        W23681   2.859  36.341  12.377
55277W        W23682  23.097   4.195   0.356
55278W        W23683  34.478  41.175  10.684
55279W        W23684  41.998   6.364  13.201
55280W        W23685   4.404   3.204  10.439
55281W        W23686   7.238  35.370  13.969
55282W        W23687   0.218  27.390  11.559
55283W        W23688   2.895  37.204   5.062
55284W        W23689  29.784   0.505  11.238
55285W        W23690  23.663  14.140   3.043
55286W        W23691   3.238  29.453   0.915
55287W        W23692  35.964   9.435  11.181
55288W        W23693  14.916   3.919  11.172
55289W        W23694  39.744   3.514  13.075
55290W        W23695  17.200  32.556   2.206
55291W        W23696   6.243   2.646   4.737
55292W        W23697  38.035  12.333  10.203
55293W        W23698  25.869  21.348   4.961
55294W        W23699  40.970   1.728   3.283
55295W        W23700  32.092  26.212  12.443
55296W        W23701   2.599  27.453   2.863
55297W        W23702  25.054  42.759  11.884
55298W        W23703  32.871  35.058   4.434
55299W        W23704   6.168   8.826  10.412
55300W        W23705  18.017   8.889   2.229
55301W        W23706  23.370   5.843  10.741
55302W        W23707  25.072  39.066  12.215
55303W        W23708  22.953  39.579  12.900
55304W        W23709   4.382  11.229   3.453
55305W        W23710  24.551  14.143  13.827
55306W        W23711  19.675  34.674   0.474
55307W        W23712  44.489  13.312  13.936
55308W        W23713  11.611  44.811   4.564
55309W        W23714   6.012  18.438  12.920
55310W        W23715   5.727  10.149   4.958
55311W        W23716  10.245  44.828   0.987
55312W        W23717  37.374  38.773   3.232
55313W        W23718  26.386   1.454  13.093
55314W        W23719   8.697  15.587  13.411
55315W        W23720  23.806  33.404  11.127
55316W        W23721  34.565   6.329  13.330
55317W        W23722   6.334  38.324  14.390
55318W        W23723  39.711   4.871  14.200
55319W        W23724  28.058  23.762   9.930
55320W        W23725  42.934  18.365   4.530
55321W        W23726   3.331  35.274   2.314
55322W        W23727  39.760  18.638  11.513
55323W        W23728  35.512   7.206   4.500
55324W        W23729   9.709  10.555   1.850
55325W        W23730  35.845  21.513  11.695
55326W        W23731  33.493  39.175  11.923
55327W        W23732  29.032   1.923   3.828
55328W        W23733  32.657  34.109   1.342
55329W        W23734  12.656  30.075  12.670
55330W        W23735  26.611  23.940  14.304
55331W        W23736  14.348  37.054  14.918
55332W        W23737  39.370   4.857   3.927
55333W        W23738   4.970  34.333  12.087
55334W        W23739  14.263   4.467   1.423
55335W        W23740   2.545  22.692  10.408
55336W        W23741  26.060  43.634  11.145
55337W        W23742  16.629  38.483  12.296
55338W        W23743  18.919  11.057   5.430
55339W        W23744  43.255  37.308   0.530
55340W        W23745  38.364   4.070  12.140
55341W        W23746  14.551  16.218   3.259
55342W        W23747   0.358  15.908  12.999
55343W        W23748   5.309  30.201  10.730
55344W        W23749  44.439  44.392   3.715
55345W        W23750   6.348  12.221  11.168
55346W        W23751  10.253  40.962  12.395
55347W        W23752  35.036  29.385  10.711
55348W        W23753  35.863   8.119  13.299
55349W        W23754  21.540  10.267  13.348
55350W        W23755   4.812  20.466  13.319
55351W        W23756  40.114  37.892   0.835
55352W        W23757   1.828  38.160   0.388
55353W        W23758   1.697  22.174  13.919
55354W        W23759  24.253   8.279  10.740
55355W        W23760  24.593  10.609   0.598
55356W        W23761   8.432  32.319   4.152
55357W        W23762  44.032   5.912  13.401
55358W        W23763  40.347  23.704  11.207
55359W        W23764  22.449  42.087  13.016
55360W        W23765  32.036  14.192   4.471
55361W        W23766   4.723  19.560  12.195
55362W        W23767  40.886  10.277   1.575
55363W        W23768   0.908  27.789  12.365
55364W        W23769  19.618  19.180   3.223
55365W        W23770  18.382  18.550  13.421
55366W        W23771  31.666  19.937  10.829
55367W        W23772   3.670  44.770  11.084
55368W        W23773  16.271  24.159   4.967
55369W        W23774  35.475  25.219   4.380
55370W        W23775  15.834  40.461   1.649
55371W        W23776  36.534  21.931  13.411
55372W        W23777  10.431  15.030   3.143
55373W        W23778  33.921  40.774  11.632
55374W        W23779   8.176   5.992   5.085
55375W        W23780  29.957   6.062   4.098
55376W        W23781  22.685  13.563   2.866
55377W        W23782  44.060   5.583   4.265
55378W        W23783   0.561  14.666  14.865
55379W        W23784   0.801  44.176  14.496
55380W        W23785   8.496  42.134  13.107
55381W        W23786  44.351  11.911  13.622
55382W        W23787  37.892   8.363   1.155
55383W        W23788  37.341   0.562  11.790
55384W        W23789   0.902   0.434  12.027
55385W        W23790   8.136  42.872  13.512
55386W        W23791   9.829  34.409   4.301
55387W        W23792  36.872  17.019  13.825
55388W        W23793   7.331   4.578  11.554
55389W        W23794   0.367  19.492   4.637
55390W        W23795   3.757  37.038  11.402
55391W        W23796  10.837  23.629   1.646
55392W        W23797  10.170  28.344   0.129
55393W        W23798  30.278   5.258  14.377
55394W        W23799  22.006   5.250   0.045
55395W        W23800  32.410   9.609   2.906
55396W        W23801  30.159   0.380   0.884
55397W        W23802   3.239  17.746  11.430
55398W        W23803   5.427  13.648  11.116
55399W        W23804  15.618   7.775   3.120
55400W        W23805   1.888   0.430   1.438
55401W        W23806   8.781  39.417  12.465
55402W        W23807   1.351  39.129  12.999
55403W        W23808  44.730  44.981  12.134
55404W        W23809  14.177   9.599   0.816
55405W        W23810  33.556  44.357   2.549
55406W        W23811  14.425  29.727   4.186
55407W        W23812  41.075   8.696  10.322
55408W        W23813  41.822  11.462   0.466
55409W        W23814  22.553  25.254  10.710
55410W        W23815  43.292  14.251  14.571
55411W        W23816  38.843  10.345   0.363
55412W        W23817   7.621  15.751   4.037
55413W        W23818  12.763  28.126  14.279
55414W        W23819  34.475   1.747   1.069
55415W        W23820   9.835  39.575  12.429
55416W        W23821  42.749  20.610   0.357
55417W        W23822   4.933   3.969   3.676
55418W        W23823  12.382  16.651  14.910
55419W        W23824  12.405   3.648   3.243
55420W        W23825  39.385   0.308   2.196
55421W        W23826  40.404  21.218   0.907
55422W        W23827  23.440  32.465  10.764
55423W        W23828  27.139   9.839   1.133
55424W        W23829  34.527  34.978   3.282
55425W        W23830   5.921   0.330  14.795
55426W        W23831  30.487  32.105  13.082
55427W        W23832  34.751   4.852  11.216
55428W        W23833  27.549  21.514  12.049
55429W        W23834  29.966   3.335   0.874
55430W        W23835  32.552  25.217  11.448
55431W        W23836  22.271  25.265   4.993
55432W        W23837  20.779  38.532   4.225
55433W        W23838   5.388   8.440   0.430
55434W        W23839  34.978  44.973   2.781
55435W        W23840  25.560  32.090   4.448
55436W        W23841   6.169  41.676  11.205
55437W        W23842  33.656  24.244   3.728
55438W        W23843  35.967   4.771  13.050
55439W        W23844  22.837   2.443  12.685
55440W        W23845  11.283  35.801   0.908
55441W        W23846  18.140  43.606  14.311
55442W        W23847  42.780  42.742   4.941
55443W        W23848  39.533  43.344  13.945
55444W        W23849  14.031  20.726   1.792
55445W        W23850  25.279  31.858   0.778
55446W        W23851  32.423  10.694  11.455
55447W        W23852  40.323  39.646  13.332
55448W        W23853  14.799   2.060  11.166
55449W        W23854  37.788  40.325  10.309
55450W        W23855   9.908  40.077   3.656
55451W        W23856   9.326  34.552  12.447
55452W        W23857  25.931  32.267  11.213
55453W        W23858  11.596   4.726  11.274
55454W        W23859   9.769   0.282  10.146
55455W        W23860  19.744  11.295   2.261
55456W        W23861   0.602  20.087  13.435
55457W        W23862   9.254  16.660   3.627
55458W        W23863  41.672  41.285   1.743
55459W        W23864   2.331   3.665  10.284
55460W        W23865  37.327  11.396  14.453
55461W        W23866  19.030  26.538   4.563
55462W        W23867  25.684  36.909  10.814
55463W        W23868   1.967   1.655  12.648
55464W        W23869  13.694  20.807   3.726
55465W        W23870  40.760  12.007   0.391
55466W        W23871  34.909  40.852  11.635
55467W        W23872  18.071  40.360  14.692
55468W        W23873  28.132   1.447   3.234
55469W        W23874  30.137   0.281  12.924
55470W        W23875  38.454  39.277  13.723
55471W        W23876  31.982   6.477   2.497
55472W        W23877   3.152  43.419   1.256
55473W        W23878  40.897  16.123   3.085
55474W        W23879  11.302  38.356  14.305
55475W        W23880   9.810   4.951  13.881
55476W        W23881   7.837  39.764   0.774
55477W        W23882  24.170  26.873   2.365
55478W        W23883  21.545  36.666  14.497
55479W        W23884  14.088  15.238   1.185
55480W        W23885  26.696   8.079  12.941
55481W        W23886  13.344   4.721   1.693
55482W        W23887  20.055   9.768  12.570
55483W        W23888  25.414  33.431   2.720
55484W        W23889  13.129  20.136   1.647
55485W        W23890  42.097  31.159   0.892
55486W        W23891  33.077  20.204   4.539
55487W        W23892  27.552  40.915  12.356
55488W        W23893  19.583   1.811  12.403
55489W        W23894  32.052  44.004  11.656
55490W        W23895  35.896  20.585   1.466
55491W        W23896   7.878   8.300  14.331
55492W        W23897  37.051   8.425  13.814
55493W        W23898  36.817  16.288  12.069
55494W        W23899  35.647  38.502   1.711
55495W        W23900  33.578  26.013   1.876
55496W        W23901  30.370  41.141  10.011
55497W        W23902   5.477   9.142   1.773
55498W        W23903  15.773  20.991   4.088
55499W        W23904  13.335  13.490   0.770
55500W        W23905  27.545  30.394  13.608
55501W        W23906  26.099  35.074   3.370
55502W        W23907  37.066  19.295  12.035
55503W        W23908   4.688  39.591  12.618
55504W        W23909  37.933  11.092   1.824
55505W        W23910   2.119   6.628  13.775
55506W        W23911  18.119  38.995  11.562
55507W        W23912  14.619  17.258   2.371
55508W        W23913  34.171   0.082   3.901
55509W        W23914  37.087  33.023   3.948
55510W        W23915  36.315  17.541   2.129
55511W        W23916  20.179   5.413  13.469
55512W        W23917  15.556  17.203   0.234
55513W        W23918  28.042  28.009   3.994
55514W        W23919  20.824  44.181   0.063
55515W        W23920  28.501  38.526  10.937
55516W        W23921   3.915  27.219   2.910
55517W        W23922  19.450   8.590   1.528
55518W        W23923  19.104  29.613   2.626
55519W        W23924  18.034  27.632   4.118
55520W        W23925  31.651   8.003   2.923
55521W        W23926  29.627  44.607   4.557
55522W        W23927  11.887  33.018  13.944
55523W        W23928  25.999  14.194   0.910
55524W        W23929  18.489  39.359   3.164
55525W        W23930  17.097  24.829   1.396
55526W        W23931  37.791   5.038  13.290
55527W        W23932   7.187  34.438   2.181
55528W        W23933   6.655  14.335   2.419
55529W        W23934  20.668   3.257   5.257
55530W        W23935  20.818  12.557   3.226
55531W        W23936  22.828  23.367   4.078
55532W        W23937  14.145  43.685  12.573
55533W        W23938  44.041  21.448  12.195
55534W        W23939  41.553  44.728  11.138
55535W        W23940  19.278  29.237  11.611
55536W        W23941   2.746  31.065   0.392
55537W        W23942  18.106   1.983   2.621
55538W        W23943  29.099  25.685  13.092
55539W        W23944  35.382  14.963  13.829
55540W        W23945  28.950  41.492  11.434
55541W        W23946   1.961  38.616   2.581
55542W        W23947  14.651  29.565  14.029
55543W        W23948  41.781  17.151   4.883
55544W        W23949  18.247  13.813  14.426
55545W        W23950   0.385  41.048   2.281
55546W        W23951   4.122  13.508   0.779
55547W        W23952  30.736   6.526   2.663
55548W        W23953   4.529  40.006  14.746
55549W        W23954   2.526  22.870   2.351
55550W        W23955  29.407   1.336   1.001
55551W        W23956  36.312  15.160   3.752
55552W        W23957  32.486  27.979   1.845
55553W        W23958  33.135  24.245   4.592
55554W        W23959  37.131  17.191  12.786
55555W        W23960  37.407  22.776  11.846
55556W        W23961  15.275  26.491  12.292
55557W        W23962  35.143  31.706  13.868
55558W        W23963   4.695  44.335   0.425
55559W        W23964  11.218  32.541   1.891
55560W        W23965  34.997   3.360  13.382
55561W        W23966  20.259  32.760   1.886
55562W        W23967  30.453  15.033   2.350
55563W        W23968  35.433  19.593  10.763
55564W        W23969  34.897  42.891  11.536
55565W        W23970   8.912  38.364  12.194
55566W        W23971   9.445  29.754   1.286
55567W        W23972   4.666  44.524   2.894
55568W        W23973  22.018  41.599  13.191
55569W        W23974   7.261  11.832  12.159
55570W        W23975  17.315   8.484  14.429
55571W        W23976   5.222   0.892   1.725
55572W        W23977  13.838  16.819  11.748
55573W        W23978  14.722  29.910   1.357
55574W        W23979   7.900  11.385  10.691
55575W        W23980  17.524  15.626  14.390
55576W        W23981  37.931  36.688   2.718
55577W        W23982   2.208   6.321  12.528
55578W        W23983  25.925  26.670   3.626
55579W        W23984  14.449   9.609  13.072
55580W        W23985  15.305  31.130   4.209
55581W        W23986  21.563  24.915  11.681
55582W        W23987  28.042   4.964  12.324
55583W        W23988  37.794  24.149  12.524
55584W        W23989  33.409  44.098   4.697
55585W        W23990  30.533  40.530   0.758
55586W        W23991  10.262   2.196  10.634
55587W        W23992   0.024   1.413   1.255
55588W        W23993  37.464   4.840   3.255
55589W        W23994  18.012   9.986   3.784
55590W        W23995  29.490  28.496  11.698
55591W        W23996  22.000  12.791  13.098
55592W        W23997   5.383  21.798   4.065
55593W        W23998   0.040  21.587   1.761
55594W        W23999  22.523  30.187  12.655
55595W        W24000  28.955   5.296  12.122
55596W        W24001  34.994   7.993  14.967
55597W        W24002  29.500  35.869   2.773
55598W        W24003   3.737   4.347  10.631
55599W        W24004  40.900  19.794  11.455
55600W        W24005   2.371  25.638   0.698
55601W        W24006  33.126   4.824   2.390
55602W        W24007  26.599  44.780   4.566
55603W        W24008  13.672  33.211  11.954
55604W        W24009  19.760  12.121  14.813
55605W        W24010  23.708   8.755  12.820
55606W        W24011  37.358  34.001   4.057
55607W        W24012  31.550  10.039   4.164
55608W        W24013  12.575  24.643   2.463
55609W        W24014   0.907   4.177   1.258
55610W        W24015  27.535  18.916   3.308
55611W        W24016  32.090  35.473   4.518
55612W        W24017  39.002  25.367  14.359
55613W        W24018   5.329   6.291  11.460
55614W        W24019  40.474  27.930  12.478
55615W        W24020  25.046  18.973  10.534
55616W        W24021  39.154  29.462   0.803
55617W        W24022   5.028  35.915   4.802
55618W        W24023  26.706  24.146   4.674
55619W        W24024   0.343  40.323  14.525
55620W        W24025  43.526   1.634   3.747
55621W        W24026  30.960  13.170  13.726
55622W        W24027  25.448  40.038   4.591
55623W        W24028   2.767  20.163  11.955
55624W        W24029  18.448  14.329   2.710
55625W        W24030   6.103  27.332  11.077
55626W        W24031  31.109  16.466   4.640
55627W        W24032   4.388  26.389   1.268
55628W        W24033  26.186  42.029  13.514
55629W        W24034   9.383   0.177   3.793
55630W        W24035  41.939  11.821  11.489
55631W        W24036  39.565  35.959  11.617
55632W        W24037   0.769  21.677   3.193
55633W        W24038   7.300  29.596  13.769
55634W        W24039  11.517  38.597   0.940
55635W        W24040  25.985  24.176  11.060
55636W        W24041   7.634  23.061  12.043
55637W        W24042  23.481  26.016   1.051
55638W        W24043   8.840  36.530   2.658
55639W        W24044  35.866   8.904   3.803
55640W        W24045  13.742  43.788   0.385
55641W        W24046  29.017  13.830  14.370
55642W        W24047   3.446  40.964   4.886
55643W        W24048   4.008  13.279   1.820
55644W        W24049  14.317  38.941   3.214
55645W        W24050  26.470  17.985   4.210
55646W        W24051  34.915  22.277   4.324
55647W        W24052   9.705  20.505   0.720
55648W        W24053  36.692  37.346   0.754
55649W        W24054  42.896  15.538  11.226
55650W        W24055   7.190   7.770   4.668
55651W        W24056  23.110  42.410   4.165
55652W        W24057   4.710   5.983   0.307
55653W        W24058  26.066   1.759  13.381
55654W        W24059  29.281  21.590  10.782
55655W        W24060  42.344  19.387   4.107
55656W        W24061  40.895   0.478  14.905
55657W        W24062  16.819   3.423  14.019
55658W        W24063   2.764  33.598   2.393
55659W        W24064   1.359  29.671  11.157
55660W        W24065  32.452  31.961   3.786
55661W        W24066  25.338  18.044  10.728
55662W        W24067  23.963  27.219  12.735
55663W        W24068  35.443  37.461   1.919
55664W        W24069  34.062  22.422   0.323
55665W        W24070  23.573  11.823   2.626
55666W        W24071  24.963   6.636   2.656
55667W        W24072   4.983  30.101   9.923
55668W        W24073  24.053  33.145  13.884
55669W        W24074   4.457   6.670  14.486
55670W        W24075  39.873   5.887  13.275
55671W        W24076  42.263  33.149  14.734
55672W        W24077  20.709  23.849   4.960
55673W        W24078  24.201  42.718  12.092
55674W        W24079  31.880  30.010   4.203
55675W        W24080  34.466  26.647   4.058
55676W        W24081  31.369  25.506  13.383
55677W        W24082  10.982  37.501  14.840
55678W        W24083  39.532  24.984  13.657
55679W        W24084  26.205  19.552  11.952
55680W        W24085  39.511   3.206  13.403
55681W        W24086  43.670  29.447  13.197
55682W        W24087  13.851   4.092  14.354
55683W        W24088  11.032   0.948   1.523
55684W        W24089  17.659  20.720   1.420
55685W        W24090  22.747   5.961   1.391
55686W        W24091  32.056  31.544  13.703
55687W        W24092  44.297  30.386  14.375
55688W        W24093  37.567  32.935   0.735
55689W        W24094   4.133   4.456  14.268
55690W        W24095  10.356  33.178  14.885
55691W        W24096   2.758  22.222  14.711
55692W        W24097  32.914   0.751  11.081
55693W        W24098   3.652  16.224  10.397
55694W        W24099  14.981   8.285   2.287
55695W        W24100  26.996  20.871  12.618
55696W        W24101   0.408  43.394   3.925
55697W        W24102   8.922  14.171   3.104
55698W        W24103   9.924  15.101   2.979
55699W        W24104   8.238  32.014   4.630
55700W        W24105  13.769  24.328   1.986
55701W        W24106   0.904  39.356  13.026
55702W        W24107  17.091  27.643  12.449
55703W        W24108  44.273  32.579  13.915
55704W        W24109  35.376  17.187  13.846
55705W        W24110  25.177  31.599   3.221
55706W        W24111   7.305  41.448  12.928
55707W        W24112   2.955  37.143   3.265
55708W        W24113  12.803  19.568   0.863
55709W        W24114  24.744   8.201  10.922
55710W        W24115  21.520  11.159  13.845
55711W        W24116   2.977  34.338  11.209
55712W        W24117   4.268  29.682  11.632
55713W        W24118   8.285   5.595  11.943
55714W        W24119  33.439  17.850  11.621
55715W        W24120  25.925  23.410   2.858
55716W        W24121  10.846  11.787  11.707
55717W        W24122  20.129  13.214   2.187
55718W        W24123  23.088  25.990   4.830
55719W        W24124  36.956  12.586  13.473
55720W        W24125  35.620  12.265  11.588
55721W        W24126  14.669  22.710  14.377
55722W        W24127   2.503  14.510   1.337
55723W        W24128  23.250  22.284  13.798
55724W        W24129  26.628   8.457   0.277
55725W        W24130  43.545  37.246  10.197
55726W        W24131  19.603  39.863   3.567
55727W        W24132  16.284  14.614  12.959
55728W        W24133   2.303   1.956   3.671
55729W        W24134  23.653  36.502  11.893
55730W        W24135  35.207  25.591  12.900
55731W        W24136  29.247   1.769  10.797
55732W        W24137  26.673  20.032   4.573
55733W        W24138  44.436  32.414   0.247
55734W        W24139  17.432  34.688   5.026
55735W        W24140  15.307  32.007  12.860
55736W        W24141  25.705  34.936   4.239
55737W        W24142  18.146  11.343   9.936
55738W        W24143  11.355  40.024  13.570
55739W        W24144  30.496  31.982   2.338
55740W        W24145  21.627   0.443  12.888
55741W        W24146  28.502   6.383  12.128
55742W        W24147   5.003   3.732  12.655
55743W        W24148   9.137   4.763   1.404
55744W        W24149   3.370  17.579  12.903
55745W        W24150   7.446  26.962   4.583
55746W        W24151   2.825  12.743  14.579
55747W        W24152  34.370  16.590   0.452
55748W        W24153  31.683  10.104  11.178
55749W        W24154   5.179  22.781   0.204
55750W        W24155  20.860  39.891   4.505
55751W        W24156  30.556  21.317   5.067
55752W        W24157  37.782   2.760   2.435
55753W        W24158  42.506  10.702  14.736
55754W        W24159  23.843  17.732   3.676
55755W        W24160   1.295  37.359   2.737
55756W        W24161   5.811  35.331   3.321
55757W        W24162  20.090  40.732   0.630
55758W        W24163   4.328   5.704  12.581
55759W        W24164  17.536  14.507  12.421
55760W        W24165  14.041  39.073   0.058
55761W        W24166   4.123  41.064   0.326
55762W        W24167  20.051  13.069  13.924
55763W        W24168  30.552  27.539  12.949
55764W        W24169   3.290   2.214   1.375
55765W        W24170  43.414  23.479   1.755
55766W        W24171  37.410  41.058  12.688
55767W        W24172   3.236  37.953  11.645
55768W        W24173  36.240  10.068   3.470
55769W        W24174  27.475   3.199  13.503
55770W        W24175  11.986  23.627  12.553
55771W        W24176  24.043  26.714  10.973
55772W        W24177  19.598  22.275  12.784
55773W        W24178  32.336  26.367   1.930
55774W        W24179   5.392  11.912   4.528
55775W        W24180  15.421  32.081   1.904
55776W        W24181  34.781  13.420  10.874
55777W        W24182  41.544  15.115   3.338
55778W        W24183  20.321  33.619  13.793
55779W        W24184  35.841  38.858  14.382
55780W        W24185   9.329  27.356  14.978
55781W        W24186  36.193   4.675   0.658
55782W        W24187  15.858   1.931   5.670
55783W        W24188  40.854   9.703   4.334
55784W        W24189  29.161  18.022  14.123
55785W        W24190  17.028  42.858   4.525
55786W        W24191  25.546   1.736   2.844
55787W        W24192   9.477   8.495   2.247
55788W        W24193  10.390  12.374   2.910
55789W        W24194  42.003   4.270  11.289
55790W        W24195   3.198  34.666  13.361
55791W        W24196  28.703  27.281  13.757
55792W        W24197  10.775  27.678   1.832
55793W        W24198   0.292   8.759  14.509
55794W        W24199  33.447   1.034   5.099
55795W        W24200  12.157  27.891  11.298
55796W        W24201   7.488  11.852  14.463
55797W        W24202  43.245  38.012  11.220
55798W        W24203  10.946  14.566  14.341
55799W        W24204   9.018  36.945   1.346
55800W        W24205  34.946  19.721   3.417
55801W        W24206   3.166  31.226   4.556
55802W        W24207  22.355   4.841  10.709
55803W        W24208   0.908  39.458   2.086
55804W        W24209  12.384  14.325   3.058
55805W        W24210   1.032  16.227  14.731
55806W        W24211  22.093  43.333   4.391
55807W        W24212  15.120  11.975  13.769
55808W        W24213   8.418  29.808   2.249
55809W        W24214  20.503  36.154  14.821
55810W        W24215  26.649  39.835  14.091
55811W        W24216  18.763  18.416  10.731
55812W        W24217  18.273  34.737   2.693
55813W        W24218  44.791  13.299  14.835
55814W        W24219  41.693   3.823   5.567
55815W        W24220   5.563  16.289   2.142
55816W        W24221   9.891  31.875   0.385
55817W        W24222  42.538  32.462   3.148
55818W        W24223  19.540  25.478   2.604
55819W        W24224  16.490   9.592   3.804
55820W        W24225  37.125  24.927  11.677
55821W        W24226  13.426  17.074  11.990
55822W        W24227  18.527  31.060   2.434
55823W        W24228  28.174  22.103   3.216
55824W        W24229  10.189  20.744  14.881
55825W        W24230  12.787  39.792  14.105
55826W        W24231  20.120  40.880  10.630
55827W        W24232  11.167  19.028  11.694
55828W        W24233  12.181  35.358  11.878
55829W        W24234  31.049   2.797   3.682
55830W        W24235  12.646   0.026  11.629
55831W        W24236  35.145  41.357   1.876
55832W        W24237  35.039   9.553   4.510
55833W        W24238  26.406   9.822  11.234
55834W        W24239  41.931  29.998  10.374
55835W        W24240  27.515   5.268   4.019
55836W        W24241  29.493   1.335  14.252
55837W        W24242   3.356  30.137  12.125
55838W        W24243  15.563   0.254  11.791
55839W        W24244  26.144  24.295   0.303
55840W        W24245  33.407  19.578  10.507
55841W        W24246   9.961  37.058   2.331
55842W        W24247   2.692  37.822   2.795
55843W        W24248  35.592   0.982   3.206
55844W        W24249  40.423  36.970  12.834
55845W        W24250  14.689  22.014  10.757
55846W        W24251   7.371  41.610  14.260
55847W        W24252   8.076  32.672   4.329
55848W        W24253  16.627  43.111  15.000
55849W        W24254  24.950   7.265  13.574
55850W        W24255  29.890  33.909   2.367
55851W        W24256   0.886   7.744  12.245
55852W        W24257  39.941  31.368  11.455
55853W        W24258   2.770  26.454   4.429
55854W        W24259  36.460  24.494  13.762
55855W        W24260   5.144  19.704  13.898
55856W        W24261   9.837  23.029   1.378
55857W        W24262  38.764   8.722   2.351
55858W        W24263   9.957  30.861  11.980
55859W        W24264  44.304   5.391  12.041
55860W        W24265  18.376  33.808  13.325
55861W        W24266  23.967  14.351   4.561
55862W        W24267  36.409   6.948   2.333
55863W        W24268   8.098   3.909   2.308
55864W        W24269  30.627  16.636  14.418
55865W        W24270  36.439  25.818  13.856
55866W        W24271  29.465   5.447   3.311
55867W        W24272   4.716   8.876   1.682
55868W        W24273  39.374  36.408   3.956
55869W        W24274   6.165   4.711   4.436
55870W        W24275  10.807   3.474   2.232
55871W        W24276  37.225  27.880  13.015
55872W        W24277  10.885  32.095   1.909
55873W        W24278  16.194   3.248  12.577
55874W        W24279   9.791  38.600  12.656
55875W        W24280   6.683  23.195   4.768
55876W        W24281  17.043  32.545   4.074
55877W        W24282   6.913  21.689   1.375
55878W        W24283  26.700  29.054  12.379
55879W        W24284  21.573  21.200   1.428
55880W        W24285  29.502  19.491   0.740
55881W        W24286  17.010  41.649   0.369
55882W        W24287  32.481  41.333   2.263
55883W        W24288  16.676  40.043  12.011
55884W        W24289  33.529   2.304  12.088
55885W        W24290  27.318  36.387   4.285
55886W        W24291  28.173  30.967   0.444
55887W        W24292  31.169  31.005   3.854
55888W        W24293  41.795   3.458  11.070
55889W        W24294  12.042  11.670  13.109
55890W        W24295  28.120  14.797  11.185
55891W        W24296  44.469  20.790  12.613
55892W        W24297  16.793   2.677   9.932
55893W        W24298   7.184  38.556   2.764
55894W        W24299   7.282  26.790   3.263
55895W        W24300  39.055   3.939   1.260
55896W        W24301  25.766   6.275   4.148
55897W        W24302  32.969  24.676   2.444
55898W        W24303  27.168  21.068   2.255
55899W        W24304  10.712  32.573  10.550
55900W        W24305  18.422  40.485  14.316
55901W        W24306  17.038  24.486  10.819
55902W        W24307  23.178  19.835   2.825
55903W        W24308  42.862  37.489   2.431
55904W        W24309  33.722  13.211  12.509
55905W        W24310  24.647  37.133  10.433
55906W        W24311  34.152  44.239   0.662
55907W        W24312  36.682   9.795  10.787
55908W        W24313  22.263   9.176   3.847
55909W        W24314  39.112  15.730  12.931
55910W        W24315   5.504   4.693  14.555
55911W        W24316  10.625  39.306   0.252
55912W        W24317  40.502  27.504   4.089
55913W        W24318  21.961   3.240  12.457
55914W        W24319  38.548  33.403  12.090
55915W        W24320   9.736  39.447  14.298
55916W        W24321  15.365   4.969   4.162
55917W        W24322  35.272  40.561  14.881
55918W        W24323  10.191  26.147   1.218
55919W        W24324  22.021  36.665   1.956
55920W        W24325  20.987  43.688  14.345
55921W        W24326   3.817  44.145   4.920
55922W        W24327  24.171   1.140  12.914
55923W        W24328  12.259   7.758   0.317
55924W        W24329   9.353  36.376  14.959
55925W        W24330  11.602  18.240   1.771
55926W        W24331  25.179  36.517   2.864
55927W        W24332  38.659  39.312   3.152
55928W        W24333  38.969  29.937  12.963
55929W        W24334  10.122  12.860   4.122
55930W        W24335  29.737  11.002  10.375
55931W        W24336   3.504  26.597   0.254
55932W        W24337  43.396  36.421   4.326
55933W        W24338   7.306  30.248  11.058
55934W        W24339  20.839  33.145   2.423
55935W        W24340  34.409  15.712  14.447
55936W        W24341  25.960   9.186   0.288
55937W        W24342  44.744   9.240   4.202
55938W        W24343  44.743  13.832  11.360
55939W        W24344  18.011  29.867   2.269
55940W        W24345  27.000  18.032  14.751
55941W        W24346  32.429  27.709  11.424
55942W        W24347  34.407  22.164   4.198
55943W        W24348   7.212  14.605   2.708
55944W        W24349  16.046   0.260   9.998
55945W        W24350  31.618  21.575  12.019
55946W        W24351  35.575  35.617   0.724
55947W        W24352  22.789  25.930  12.365
55948W        W24353  31.005  34.504   0.115
55949W        W24354   9.203  33.986  10.650
55950W        W24355  29.030  18.432  10.093
55951W        W24356  40.814  23.104  10.903
55952W        W24357   9.329  24.420   3.108
55953W        W24358  24.919  38.988  12.775
55954W        W24359  15.927  31.751   4.296
55955W        W24360  32.557  27.946   4.614
55956W        W24361  10.660   3.815   2.628
55957W        W24362  19.606  40.805   3.389
55958W        W24363  31.427  30.901  12.556
55959W        W24364   2.941  42.016   0.854
55960W        W24365   7.358   7.925   1.380
55961W        W24366  22.009  26.578  14.866
55962W        W24367   6.512   1.024   2.740
55963W        W24368  36.419  16.546   2.384
55964W        W24369  41.720  39.157  13.197
55965W        W24370  40.964  41.759   3.305
55966W        W24371  40.101  40.221   4.682
55967W        W24372  27.050  17.651   1.895
55968W        W24373  23.568  18.645   2.779
55969W        W24374  11.930  11.140  11.531
55970W        W24375  29.889  42.794  10.657
55971W        W24376  10.351  22.394  13.865
55972W        W24377   8.335   7.102  10.715
55973W        W24378  41.115  25.651  11.660
55974W        W24379  13.740  14.328   0.960
55975W        W24380  15.635  23.009   1.192
55976W        W24381  28.120  25.681   5.076
55977W        W24382  28.713  40.771   3.161
55978W        W24383   6.309  40.379  11.599
55979W        W24384  16.604   4.371   0.260
55980W        W24385  33.537  17.388   3.145
55981W        W24386  40.568  10.168   3.283
55982W        W24387   1.274  30.960   2.877
55983W        W24388  33.012  15.313   2.270
55984W        W24389   6.187   6.537  10.248
55985W        W24390  31.139  41.878   4.662
55986W        W24391  38.030   3.353  11.758
55987W        W24392   7.869  37.976   1.842
55988W        W24393  21.519  19.637   0.451
55989W        W24394  29.509   7.558  10.983
55990W        W24395   4.172   0.282   2.215
55991W        W24396   4.379  22.320  14.414
55992W        W24397  30.221  17.818  11.114
55993W        W24398  11.896  36.030  10.936
55994W        W24399  42.201  23.050   0.963
55995W        W24400  31.908  41.985   0.650
55996W        W24401  10.896  21.301   0.257
55997W        W24402  39.910  11.677   2.804
55998W        W24403  43.550  33.641  13.494
55999W        W24404  35.411  41.259  13.714
56000W        W24405  16.593  14.272  14.772
56001W        W24406  34.137   7.672   0.187
56002W        W24407  26.580  20.481   3.256
56003W        W24408  32.105   8.851   1.157
56004W        W24409  14.728  41.535   0.362
56005W        W24410  31.910  29.232   3.708
56006W        W24411   1.252   2.617  13.798
56007W        W24412  29.908  34.109   1.860
56008W        W24413  21.780  32.555  14.435
56009W        W24414   0.483  36.184   3.721
56010W        W24415   5.693  33.949   2.275
56011W        W24416  23.050   9.008   0.869
56012W        W24417   6.663  23.803  12.527
56013W        W24418   2.960  28.381  14.341
56014W        W24419  16.769   2.912  13.858
56015W        W24420   5.289  10.369  12.412
56016W        W24421   4.374  34.142  13.328
56017W        W24422  43.772  37.234   5.063
56018W        W24423   7.636   1.468   3.947
56019W        W24424  21.719  36.246   2.121
56020W        W24425  15.769  31.245   0.309
56021W        W24426  16.733  17.018   0.942
56022W        W24427  26.037  36.520   2.955
56023W        W24428  43.776  43.539  11.586
56024W        W24429   7.607   1.966  12.904
56025W        W24430   4.814  32.791   4.497
56026W        W24431  42.626  19.658   0.422
56027W        W24432   3.731  20.087  14.496
56028W        W24433  14.829   6.503  12.394
56029W        W24434   1.444  15.804   4.497
56030W        W24435  13.898   7.728   3.675
56031W        W24436  22.000  44.247   3.212
56032W        W24437  43.325  28.054   4.214
56033W        W24438  42.143  39.011   3.968
56034W        W24439  42.515   4.457   1.433
56035W        W24440  36.651  40.358  12.461
56036W        W24441   6.373  12.386   3.304
56037W        W24442  25.346   5.766  11.662
56038W        W24443  39.239   5.724   3.738
56039W        W24444  13.297  20.091   4.271
56040W        W24445   3.438  11.128  12.202
56041W        W24446  15.534  38.191   3.758
56042W        W24447  36.677  38.398   1.869
56043W        W24448   8.809  15.160  11.364
56044W        W24449  34.446  43.176  14.716
56045W        W24450  35.963   8.288   3.464
56046W        W24451  35.158  35.197   3.070
56047W        W24452  16.859  14.977   2.343
56048W        W24453  10.580   1.375   4.082
56049W        W24454   3.819  31.059   3.915
56050W        W24455  21.065  23.623  13.093
56051W        W24456  35.843  38.984  10.737
56052W        W24457  28.896  35.940   0.754
56053W        W24458   1.009  39.976  12.561
56054W        W24459  12.170  14.367  13.928
56055W        W24460  37.246  17.514  13.169
56056W        W24461  25.779   1.173   3.757
56057W        W24462   3.966  20.169  10.655
56058W        W24463  32.985  29.685  14.271
56059W        W24464   3.332  31.163   3.008
56060W        W24465  40.966  29.820  14.760
56061W        W24466  21.657   0.334  13.404
56062W        W24467  26.558  39.582  13.640
56063W        W24468   1.999  15.708  12.479
56064W        W24469  11.131  34.594  14.424
56065W        W24470   3.306   2.999  12.487
56066W        W24471  29.543  20.235  11.645
56067W        W24472  27.547   0.764  12.748
56068W        W24473  14.777   7.915  11.047
56069W        W24474  32.373  20.539  12.120
56070W        W24475   9.234  31.733  11.625
56071W        W24476  14.103  35.347   4.288
56072W        W24477   6.296  39.088   3.576
56073W        W24478   3.303   0.270   2.764
56074W        W24479  15.422  12.356   3.197
56075W        W24480  19.364  26.116  10.705
56076W        W24481  11.540  26.471   1.583
56077W        W24482  28.395  14.173   3.580
56078W        W24483  38.968  12.554  14.879
56079W        W24484  34.324   5.795  11.114
56080W        W24485   9.228  43.549  14.828
56081W        W24486  14.775  43.421   0.220
56082W        W24487   6.434  19.089  11.219
56083W        W24488   8.727  15.071  13.487
56084W        W24489  10.672  17.244   5.257
56085W        W24490  28.642  24.212   2.812
56086W        W24491  31.621   2.889  14.656
56087W        W24492  33.405  16.511  10.429
56088W        W24493  27.646  15.078   9.957
56089W        W24494  39.595  15.828  12.760
56090W        W24495   5.790   7.256  11.618
56091W        W24496   0.757  13.189   1.126
56092W        W24497   8.774   4.971   3.243
56093W        W24498  44.843  21.762  13.271
56094W        W24499  22.061  41.740   1.355
56095W        W24500  33.923  28.872  12.987
56096W        W24501   7.497  44.591  14.374
56097W        W24502   1.093   8.205  12.138
56098W        W24503  29.132   6.234  12.510
56099W        W24504   6.605  16.262   0.460
56100W        W24505  40.425  17.140   2.040
56101W        W24506  16.199  30.922   3.204
56102W        W24507  21.608   3.298   2.796
56103W        W24508  19.178  28.549   0.902
56104W        W24509  20.864  13.588  11.080
56105W        W24510  28.465   7.293  10.804
56106W        W24511  41.893  29.441   1.296
56107W        W24512   8.923  10.654  10.848
56108W        W24513  32.438  17.602   3.075
56109W        W24514  38.970  11.451   3.810
56110W        W24515  24.316  15.433   4.677
56111W        W24516  11.721  35.561  11.118
56112W        W24517   8.798  23.660   1.770
56113W        W24518  44.947  34.575  11.871
56114W        W24519  36.704   8.730  11.220
56115W        W24520  23.268  13.330  12.803
56116W        W24521  29.081   8.465   2.393
56117W        W24522  39.854  34.001  13.977
56118W        W24523  23.519  25.644   4.548
56119W        W24524  24.679  20.933   0.875
56120W        W24525  38.974  29.539  12.043
56121W        W24526  17.606  30.596  11.573
56122W        W24527   8.292  30.306   2.232
56123W        W24528   5.551  44.624   0.032
56124W        W24529  18.729  44.972   0.402
56125W        W24530  42.818  37.399  14.723
56126W        W24531  16.971  15.787  13.369
56127W        W24532  22.521  14.313  11.620
56128W        W24533  33.075  23.567  11.873
56129W        W24534  44.400  36.068   2.343
56130W        W24535  41.797  31.299   0.472
56131W        W24536  18.614  25.420   2.324
56132W        W24537  23.239  24.668   1.792
56133W        W24538  26.024  40.532   0.224
56134W        W24539  43.773   3.165   1.360
56135W        W24540  16.488  30.622   2.865
56136W        W24541  41.926  24.693   4.527
56137W        W24542  41.341  28.765   2.684
56138W        W24543  25.189  36.555  13.911
56139W        W24544   9.371   3.528   4.541
56140W        W24545  32.359  26.889   1.903
56141W        W24546  24.575  36.995   4.275
56142W        W24547  21.361  16.297  11.119
56143W        W24548  22.943  22.061   2.827
56144W        W24549   9.108  22.036  12.161
56145W        W24550   9.083  38.945  14.938
56146W        W24551  28.977  39.515  11.369
56147W        W24552  17.075  39.748  11.892
56148W        W24553   4.398  32.446   4.039
56149W        W24554   8.089  33.914   4.603
56150W        W24555  35.608  40.982   0.836
56151W        W24556  17.247  33.052   4.090
56152W        W24557  15.686  41.411   1.966
56153W        W24558  31.494  14.219   1.850
56154W        W24559  40.831  28.590  11.508
56155W        W24560  11.541  40.454   1.436
56156W        W24561  44.139  30.203  14.921
56157W        W24562   2.197  31.637   2.505
56158W        W24563  15.394  14.580   3.695
56159W        W24564  20.511  38.367   3.799
56160W        W24565  43.663  43.908   0.559
56161W        W24566  30.870  19.492  13.433
56162W        W24567  41.694  35.573  11.357
56163W        W24568  14.695   8.890   5.099
56164W        W24569  22.747   7.813   4.364
56165W        W24570  40.555   2.265  13.073
56166W        W24571   8.916  11.384  12.458
56167W        W24572  25.121   4.947  14.324
56168W        W24573  35.506  10.492   3.174
56169W        W24574  21.016   5.340   3.805
56170W        W24575  16.106  18.117   2.345
56171W        W24576   5.426  31.892   3.754
56172W        W24577  34.683   7.490   4.514
56173W        W24578  12.676   2.796   1.308
56174W        W24579   3.340  39.291  12.390
56175W        W24580  16.812  44.869  14.760
56176W        W24581  42.094  33.638  14.949
56177W        W24582   1.348  31.977   4.546
56178W        W24583  21.027   8.712   0.280
56179W        W24584  24.671  40.834   4.193
56180W        W24585   0.532   4.140   0.437
56181W        W24586  34.162  37.144  11.233
56182W        W24587  34.876  11.282  11.184
56183W        W24588  19.111  20.682  10.604
56184W        W24589  38.017  21.355   4.739
56185W        W24590   4.876  19.007   3.692
56186W        W24591  36.516  31.560  14.764
56187W        W24592   7.068   1.095   4.543
56188W        W24593  18.457  36.588  14.826
56189W        W24594  13.658  21.287  14.493
56190W        W24595  11.946  31.489   4.152
56191W        W24596  11.450   5.375  12.694
56192W        W24597   0.675   9.358  11.666
56193W        W24598  30.506   3.755  12.107
56194W        W24599   7.396   6.490   3.063
56195W        W24600  28.965  44.661  13.976
56196W        W24601  10.288  25.299  11.150
56197W        W24602   5.574   8.357   9.744
56198W        W24603  43.197  23.096   4.592
56199W        W24604  38.812  39.148   5.159
56200W        W24605  22.189  37.859  12.027
56201W        W24606  31.388  30.416  10.594
56202W        W24607   9.247  42.512  13.954
56203W        W24608   2.701  32.410  11.890
56204W        W24609   1.302  17.897   1.617
56205W        W24610  39.933   5.785   4.713
56206W        W24611  23.075  35.463   4.996
56207W        W24612  26.064  40.816   0.680
56208W        W24613  17.713  42.283  14.479
56209W        W24614   9.378   1.450   1.783
56210W        W24615  14.315  16.079   3.707
56211W        W24616  19.561   0.688  14.888
56212W        W24617  19.793  43.022   2.345
56213W        W24618  23.479  23.205  11.974
56214W        W24619  40.571   9.422  14.386
56215W        W24620  34.126  21.250  12.501
56216W        W24621  14.946  41.686   3.902
56217W        W24622  37.106  39.436  10.659
56218W        W24623  21.102  17.980   2.185
56219W        W24624  27.413  23.701   3.561
56220W        W24625  18.145   2.156  14.903
56221W        W24626  24.918  23.848  13.295
56222W        W24627  28.215   8.224  14.450
56223W        W24628  10.080   6.190  12.395
56224W        W24629   2.409  20.622   1.879
56225W        W24630  33.461  43.253   3.246
56226W        W24631   1.892   2.176  11.270
56227W        W24632  25.523  22.581  10.229
56228W        W24633  10.602   3.409  14.477
56229W        W24634  11.452   1.424  14.711
56230W        W24635  17.439  36.788  13.412
56231W        W24636  14.025  32.157   3.240
56232W        W24637  35.165  30.368   2.718
56233W        W24638   4.838   6.952   2.367
56234W        W24639  44.009   5.198  12.999
56235W        W24640  24.211  35.952  13.566
56236W        W24641  15.669  30.645   5.025
56237W        W24642  28.525  18.287  11.639
56238W        W24643  19.815  20.327  10.604
56239W        W24644  17.647  32.370  14.504
56240W        W24645  36.140  23.195  14.622
56241W        W24646  29.582   9.503   0.922
56242W        W24647   8.262  42.446  11.626
56243W        W24648  30.864  21.356   0.748
56244W        W24649   6.329   0.544  13.383
56245W        W24650  13.793   9.178   1.757
56246W        W24651   6.165  31.820  14.575
56247W        W24652  12.771   8.294   4.189
56248W        W24653  19.371  28.428   3.896
56249W        W24654   2.505   5.261   2.670
56250W        W24655  35.854  38.333   2.188
56251W        W24656   9.851  28.473  11.575
56252W        W24657  26.684  12.297   4.618
56253W        W24658  26.854  12.119   4.167
56254W        W24659  41.375  25.436  11.248
56255W        W24660  43.862  17.762   3.230
56256W        W24661  31.395  14.595   3.302
56257W        W24662   8.596  24.095  14.064
56258W        W24663  28.887  37.577  13.433
56259W        W24664  14.262  41.003   3.332
56260W        W24665  36.943  20.702   1.690
56261W        W24666   9.696   8.688   3.691
56262W        W24667   5.196  25.632   1.449
56263W        W24668  34.528  19.194   0.385
56264W        W24669  14.621  14.765  11.533
56265W        W24670  43.666  26.506  14.424
56266W        W24671  37.054  32.847  10.676
56267W        W24672  16.059  19.541   0.857
56268W        W24673  17.066  34.477   0.048
56269W        W24674  23.928  22.964   0.805
56270W        W24675  38.869   6.909   5.115
56271W        W24676  38.805  38.650  10.601
56272W        W24677  35.643  23.072  14.516
56273W        W24678   4.655  14.747   3.476
56274W        W24679  24.452   4.251   1.920
56275W        W24680  26.675  36.756  14.391
56276W        W24681  34.604  18.888  11.894
56277W        W24682  13.074  19.209   2.152
56278W        W24683  40.955  38.391   4.592
56279W        W24684  22.199  39.097   4.651
56280W        W24685  15.652  14.809   4.738
56281W        W24686   7.270  16.402  11.810
56282W        W24687  28.090   4.221  14.056
56283W        W24688  28.464  19.315   1.393
56284W        W24689  25.214   9.344  10.781
56285W        W24690   4.683   4.248   3.312
56286W        W24691  10.896   6.417  10.943
56287W        W24692   0.296  17.625  11.056
56288W        W24693  36.852  17.779  14.829
56289W        W24694  30.645  43.149   4.238
56290W        W24695   8.188   0.331  10.853
56291W        W24696  18.522  21.449   3.640
56292W        W24697  24.126  27.393  11.484
56293W        W24698   7.619   6.444  12.847
56294W        W24699   4.983  41.848   0.776
56295W        W24700  14.882  12.507  12.914
56296W        W24701  38.265  20.221   1.271
56297W        W24702   8.901  34.599   2.784
56298W        W24703  13.303  19.613  14.574
56299W        W24704   2.409  38.408   0.796
56300W        W24705  37.782  29.299   1.245
56301W        W24706  26.961  18.588  12.994
56302W        W24707  13.497  17.696  14.414
56303W        W24708  15.562  19.061  14.455
56304W        W24709  44.906  41.017   2.963
56305W        W24710   2.365   0.189   1.408
56306W        W24711  38.574  15.709  14.416
56307W        W24712  13.640  32.782   4.282
56308W        W24713  32.843   8.841  11.479
56309W        W24714  24.940  42.187   3.264
56310W        W24715  15.678  23.635  12.478
56311W        W24716  31.546  14.302   0.903
56312W        W24717  29.365  40.991   3.607
56313W        W24718  32.796  20.014   2.287
56314W        W24719  19.682   6.041  12.984
56315W        W24720  33.841   3.502   0.991
56316W        W24721   8.840  36.992  11.132
56317W        W24722   7.265  42.386   0.827
56318W        W24723   4.705  20.618  13.819
56319W        W24724  39.089  28.404   0.761
56320W        W24725   0.111  33.847  12.521
56321W        W24726  25.732  10.887  10.779
56322W        W24727  36.359  32.842   3.316
56323W        W24728  16.894  25.524   9.487
56324W        W24729  20.683  14.069  11.030
56325W        W24730  39.305  18.673  14.195
56326W        W24731   9.471   9.459  13.765
56327W        W24732   4.088  26.210   1.951
56328W        W24733  23.981  41.198  10.951
56329W        W24734  18.268  28.422  14.931
56330W        W24735  10.219  16.766  12.983
56331W        W24736  33.333  27.758  11.508
56332W        W24737  11.161   2.494  12.131
56333W        W24738  14.695  43.961   1.340
56334W        W24739  14.398  30.159  12.368
56335W        W24740  41.379  16.751   3.791
56336W        W24741   2.743   1.889  12.592
56337W        W24742  27.766   6.635  11.079
56338W        W24743  31.185  11.540  10.316
56339W        W24744  11.864  18.234   3.251
56340W        W24745  41.119  44.457  14.848
56341W        W24746  43.877  27.546  14.410
56342W        W24747  10.594  39.430  13.327
56343W        W24748  15.191  23.757  14.060
56344W        W24749  19.636   6.433   4.954
56345W        W24750  19.647  12.685   3.889
56346W        W24751  39.351  15.346  11.203
56347W        W24752  44.504  11.309   3.174
56348W        W24753  10.057   6.180   4.221
56349W        W24754  25.052  17.279  11.669
56350W        W24755   6.733  20.795  14.080
56351W        W24756  37.553  26.951   3.168
56352W        W24757   8.154  29.975   1.742
56353W        W24758  41.841   6.819  11.458
56354W        W24759  31.172  33.150  12.078
56355W        W24760   7.238  27.078   1.561
56356W        W24761  29.028   1.681   2.345
56357W        W24762  38.994  11.960   2.431
56358W        W24763  34.604  37.101   3.139
56359W        W24764  28.166  18.819  11.019
56360W        W24765   3.460  21.473  14.814
56361W        W24766   7.370  17.550  14.687
56362W        W24767  44.391  44.177  12.728
56363W        W24768  14.727  37.428   4.095
56364W        W24769  18.163  11.317   1.250
56365W        W24770  35.942   2.160  12.538
56366W        W24771   4.912  40.591  14.758
56367W        W24772   3.913  19.836  11.064
56368W        W24773  24.418   6.615   3.800
56369W        W24774  44.900  34.316   1.334
56370W        W24775  12.476   8.843  13.945
56371W        W24776  16.695   4.988  10.471
56372W        W24777  35.013  39.560  14.068
56373W        W24778  27.561  42.079   3.160
56374W        W24779  29.150  25.112  12.972
56375W        W24780   3.896  28.553  13.358
56376W        W24781  34.813   6.167  10.293
56377W        W24782  10.171   8.270   1.307
56378W        W24783  12.724  20.130   2.392
56379W        W24784  27.906  29.575  12.427
56380W        W24785  16.487   3.473   4.664
56381W        W24786  18.683  15.275   2.691
56382W        W24787  42.614  11.053   0.712
56383W        W24788  44.985  44.126   0.066
56384W        W24789  11.359  11.856   1.836
56385W        W24790   6.256  42.240  12.973
56386W        W24791  27.935   5.435  12.820
56387W        W24792  17.286   7.329   4.642
56388W        W24793  43.730   4.113   1.752
56389W        W24794  34.132  29.882   4.447
56390W        W24795  21.186  25.562  11.051
56391W        W24796  28.252   3.976   2.400
56392W        W24797  21.177   9.618   0.484
56393W        W24798  24.177  37.286  11.528
56394W        W24799  36.459  23.564  12.383
56395W        W24800   8.691  11.120  14.308
56396W        W24801  14.281  19.354   2.876
56397W        W24802   3.470  33.118   0.916
56398W        W24803   0.310  44.867  14.724
56399W        W24804  11.340  13.779  10.618
56400W        W24805  34.562   8.099   2.834
56401W        W24806  41.410  29.517   1.131
56402W        W24807  20.611  16.232  11.691
56403W        W24808  35.131  40.328  11.607
56404W        W24809  14.101  43.142   4.107
56405W        W24810   9.207   7.718  12.582
56406W        W24811  16.552  14.790  11.533
56407W        W24812  41.351  24.064   0.241
56408W        W24813  21.036  28.295   4.979
56409W        W24814  18.621  25.123  13.401
56410W        W24815  38.936  24.273  13.077
56411W        W24816   8.716  28.683   3.442
56412W        W24817   3.517  11.714   5.099
56413W        W24818  25.422   7.634  12.513
56414W        W24819  12.372  25.515  14.002
56415W        W24820  12.115  34.447  12.059
56416W        W24821  16.136  31.440  14.099
56417W        W24822   6.034  29.757  10.275
56418W        W24823   7.546  19.034   2.018
56419W        W24824  20.372   6.388   4.726
56420W        W24825  34.070  21.000   4.621
56421W        W24826   7.619  39.777  14.268
56422W        W24827  34.984  31.609   4.621
56423W        W24828  26.615  38.893  14.822
56424W        W24829   6.478  17.617   1.404
56425W        W24830  10.136  23.043   2.193
56426W        W24831  35.440   6.361   4.320
56427W        W24832   9.368  39.819  14.473
56428W        W24833  24.955  18.692  11.155
56429W        W24834  16.340  39.147  13.041
56430W        W24835   3.466  24.670  14.738
56431W        W24836   5.360  32.191  10.329
56432W        W24837  32.181  40.902   0.823
56433W        W24838  35.474  31.443   4.516
56434W        W24839  12.868  30.090  10.731
56435W        W24840  23.116  32.937   4.400
56436W        W24841  39.513   8.839   3.260
56437W        W24842   7.151   8.913  12.092
56438W        W24843  35.220  21.845  11.147
56439W        W24844  43.315   5.210   2.368
56440W        W24845  21.029  18.801   1.190
56441W        W24846   4.936  36.159   3.945
56442W        W24847  10.726   9.879   4.550
56443W        W24848  37.051  15.727  13.384
56444W        W24849  26.993  17.041   1.293
56445W        W24850  19.814  24.665  10.036
56446W        W24851  36.076  29.723   4.100
56447W        W24852  19.166  22.369  11.047
56448W        W24853  16.370  16.927  12.917
56449W        W24854  39.867  21.632   4.584
56450W        W24855  31.175  37.858   1.772
56451W        W24856  43.425  17.143   0.781
56452W        W24857  44.032  12.597   4.113
56453W        W24858  20.291   2.257   3.674
56454W        W24859  16.788  18.977  12.014
56455W        W24860  23.515  29.702  11.536
56456W        W24861  27.634  22.253   2.266
56457W        W24862  22.454   9.185  11.095
56458W        W24863  16.132  23.676  11.495
56459W        W24864  16.111  13.213  13.978
56460W        W24865  34.316  24.576   1.743
56461W        W24866   0.676   1.988  12.513
56462W        W24867  14.173  20.002  12.495
56463W        W24868  28.647  30.755  11.929
56464W        W24869  16.128   4.363  13.478
56465W        W24870  17.043  39.963  12.382
56466W        W24871  32.375  18.590   3.742
56467W        W24872  34.343  28.648  13.958
56468W        W24873  19.956   8.678   1.399
56469W        W24874  43.715  30.593  11.375
56470W        W24875  17.745  10.155   0.735
56471W        W24876   7.401  18.729  12.929
56472W        W24877  20.603  33.696   3.226
56473W        W24878  43.671   2.965   0.204
56474W        W24879   6.760  42.959  13.946
56475W        W24880  13.148  35.956   1.275
56476W        W24881   2.674  25.492  13.131
56477W        W24882  37.125   3.300  10.660
56478W        W24883  37.572  13.878  13.681
56479W        W24884  34.364   0.814   4.630
56480W        W24885  41.865  35.993  12.152
56481W        W24886  29.742  22.197   0.299
56482W        W24887  12.151   2.266   4.404
56483W        W24888  38.011  42.748  12.929
56484W        W24889   6.974  29.757   5.243
56485W        W24890  28.760   0.426   1.661
56486W        W24891  12.342  24.255   2.191
56487W        W24892   7.790  41.121   3.690
56488W        W24893  30.167  25.778  13.811
56489W        W24894  25.726  39.952   4.156
56490W        W24895  44.939   8.368  14.384
56491W        W24896  38.544   9.123   1.657
56492W        W24897   1.670   9.769   1.845
56493W        W24898  12.625  18.103  12.039
56494W        W24899  35.378  43.028   1.834
56495W        W24900  29.869  11.538   1.450
56496W        W24901   1.366  38.918   0.977
56497W        W24902  19.318  25.512  10.316
56498W        W24903  22.539  28.581   3.747
56499W        W24904  35.148  30.857  12.963
56500W        W24905  28.033  18.973  11.573
56501W        W24906  29.936  35.176   0.834
56502W        W24907   8.751   8.391   1.340
56503W        W24908  29.294   4.342   1.828
56504W        W24909  16.064  17.288   0.308
56505W        W24910  41.897   9.814   0.792
56506W        W24911   5.432  17.854  12.097
56507W        W24912  22.207  21.779   1.712
56508W        W24913  37.032  24.524   0.993
56509W        W24914  39.088  30.843  11.589
56510W        W24915   9.318  44.123  13.936
56511W        W24916  37.919  26.173  13.961
56512W        W24917   6.297   7.771  11.691
56513W        W24918  31.712  11.752   0.305
56514W        W24919  41.537  22.217  14.645
56515W        W24920  16.912  32.883  13.992
56516W        W24921   8.728  29.313  13.791
56517W        W24922  15.072  27.639   1.414
56518W        W24923   8.486  24.431   0.890
56519W        W24924  41.560  35.123   3.637
56520W        W24925  14.727  32.446   0.514
56521W        W24926   1.763  40.084   0.361
56522W        W24927   4.969  43.305   2.178
56523W        W24928   7.097  24.890  11.817
56524W        W24929  35.666  16.991   3.337
56525W        W24930   0.322  34.327   1.673
56526W        W24931  10.280  21.147  14.232
56527W        W24932  42.809  18.750   0.706
56528W        W24933  25.172  22.565  11.936
56529W        W24934  38.274  28.898  10.543
56530W        W24935  25.703   4.894  12.086
56531W        W24936  10.751  41.863   1.494
56532W        W24937  20.235  21.630   1.940
56533W        W24938  29.030   6.418  11.999
56534W        W24939  12.573  33.829  10.275
56535W        W24940   9.259  14.258   4.155
56536W        W24941  17.629  40.843  11.535
56537W        W24942   9.966   5.682   0.223
56538W        W24943  42.559  25.740  12.840
56539W        W24944  18.009  23.977  12.053
56540W        W24945  37.597  37.576  10.922
56541W        W24946   0.499  10.269  13.806
56542W        W24947  11.702  11.846   1.407
56543W        W24948  24.245   5.285   4.924
56544W        W24949   3.577  39.464  11.503
56545W        W24950  42.759  18.971   1.173
56546W        W24951  14.573  12.855  10.395
56547W        W24952  24.725  37.882   2.380
56548W        W24953   7.892  14.507   4.543
56549W        W24954  23.249  35.052   4.627
56550W        W24955  15.140  33.215  11.613
56551W        W24956   3.323  17.019   5.242
56552W        W24957  40.336  20.181  10.681
56553W        W24958  34.571  25.014   4.235
56554W        W24959  20.532  42.134  11.665
56555W        W24960  38.964  26.996   3.298
56556W        W24961   3.464  21.159   4.533
56557W        W24962   2.882  13.632  12.070
56558W        W24963  28.951  40.414  12.700
56559W        W24964  42.879  15.782  13.921
56560W        W24965   9.771  42.874  11.985
56561W        W24966   9.908  39.492   2.693
56562W        W24967  18.106  38.987  10.702
56563W        W24968  40.805  42.516  11.659
56564W        W24969  19.191  36.982   4.712
56565W        W24970  21.432  26.629   2.896
56566W        W24971  19.608  44.910   0.212
56567W        W24972   7.132  27.957   5.372
56568W        W24973  14.899  32.514  12.063
56569W        W24974  35.506  42.814  13.295
56570W        W24975  22.261  44.125  11.051
56571W        W24976  18.811   5.889   3.270
56572W        W24977  15.971  44.668   1.013
56573W        W24978  37.426  15.882   0.934
56574W        W24979   6.493  39.342   2.607
56575W        W24980  16.810  40.834   3.317
56576W        W24981  41.267  15.108   0.887
56577W        W24982   0.829  39.149  10.781
56578W        W24983  24.571  16.369   2.124
56579W        W24984   0.828   7.364   2.810
56580W        W24985  23.671  23.475  11.581
56581W        W24986   9.987   8.444  14.712
56582W        W24987  14.337  34.600   2.790
56583W        W24988   4.410  14.884   2.925
56584W        W24989   9.836  21.502   0.948
56585W        W24990   5.631  19.791   3.556
56586W        W24991  25.893  20.327  12.844
56587W        W24992  38.380  40.380  12.856
56588W        W24993   3.287  15.305  13.460
56589W        W24994  37.834  28.195   2.831
56590W        W24995  31.341  28.576   0.968
56591W        W24996  40.525   6.369  13.551
56592W        W24997  28.473   7.282   3.287
56593W        W24998  23.476  32.471   0.751
56594W        W24999   3.324  17.198   4.618
56595W        W25000   0.496  24.492  12.323
56596W        W25001   5.939  16.897  12.927
56597W        W25002  42.435   1.246   4.573
56598W        W25003   2.003  22.278  12.435
56599W        W25004  35.226  20.057   4.197
56600W        W25005  17.318  21.168   0.830
56601W        W25006  21.187  40.155   1.814
56602W        W25007   5.353  28.896  12.062
56603W        W25008  32.622  18.584   2.933
56604W        W25009  20.613  29.206  10.596
56605W        W25010  19.046  34.556  11.410
56606W        W25011  15.029  26.660   3.205
56607W        W25012  24.170   3.986  13.340
56608W        W25013  24.470  33.494   0.859
56609W        W25014  22.019  17.523  12.674
56610W        W25015  10.332  25.814   4.665
56611W        W25016  27.010   8.307  12.090
56612W        W25017  19.897  33.495  11.677
56613W        W25018  13.317  43.260   3.669
56614W        W25019   2.953  41.583  14.606
56615W        W25020  25.130  17.731  10.359
56616W        W25021  37.314  10.050   1.303
56617W        W25022  12.772  38.455  14.370
56618W        W25023  39.360   0.224  14.911
56619W        W25024  33.555  25.681   2.739
56620W        W25025  20.759  26.324  11.414
56621W        W25026  14.082  23.083   0.846
56622W        W25027  41.844   1.225  11.181
56623W        W25028  26.499   4.426  10.572
56624W        W25029  31.643   6.325   1.662
56625W        W25030   1.442   9.331   1.673
56626W        W25031  27.558  38.588  13.291
56627W        W25032  17.002  14.300   3.318
56628W        W25033  17.891   9.962  12.064
56629W        W25034  31.050  25.235  12.075
56630W        W25035   2.555  39.613  11.600
56631W        W25036  24.511  33.142   4.613
56632W        W25037  28.679  18.547  12.071
56633W        W25038  34.498  42.724  10.779
56634W        W25039  26.679   0.913   3.187
56635W        W25040   4.005  17.143  10.812
56636W        W25041  24.850  27.476   4.808
56637W        W25042   9.235  20.865  13.956
56638W        W25043   9.641  20.332  10.719
56639W        W25044  17.053  28.842  11.543
56640W        W25045   3.251  15.720  13.835
56641W        W25046  24.126  29.156  12.012
56642W        W25047  44.767  37.952  10.703
56643W        W25048  14.647  30.588  10.744
56644W        W25049  20.236  28.580   1.620
56645W        W25050  38.267  37.657   2.635
56646W        W25051  42.994   1.004   2.363
56647W        W25052  30.541  34.360   2.667
56648W        W25053  33.130  14.565   2.715
56649W        W25054  38.993   8.786  10.219
56650W        W25055  40.869  34.614   4.022
56651W        W25056  23.266  16.984  12.426
56652W        W25057  36.817  19.597  14.436
56653W        W25058  15.736  24.784   4.685
56654W        W25059  42.005   5.811   2.198
56655W        W25060  27.931   3.290   4.911
56656W        W25061  24.859  29.691   1.207
56657W        W25062  40.157  38.714   1.923
56658W        W25063  39.633  26.113   0.559
56659W        W25064   0.145  24.587   1.443
56660W        W25065  21.045  43.773   0.276
56661W        W25066  14.308   3.035   0.742
56662W        W25067  23.666  28.190   1.224
56663W        W25068  16.864  37.731   1.913
56664W        W25069  21.084  28.201   3.145
56665W        W25070  28.160  34.271  12.855
56666W        W25071  25.131  23.917   4.077
56667W        W25072  27.368  33.004   1.349
56668W        W25073  30.125  36.362   4.086
56669W        W25074  32.530   8.477   4.149
56670W        W25075   2.331  42.994   1.461
56671W        W25076  40.799  24.100   4.686
56672W        W25077  43.396  15.213   1.759
56673W        W25078   0.236  23.544  14.561
56674W        W25079   8.846  41.685   2.797
56675W        W25080  10.223   7.443  11.153
56676W        W25081  24.162  12.850  14.303
56677W        W25082  16.659  25.758   2.234
56678W        W25083  27.712  20.874   2.451
56679W        W25084  11.319  24.914  12.530
56680W        W25085  22.800  16.889   4.178
56681W        W25086  34.861  37.403  14.849
56682W        W25087  40.461  44.866  11.810
56683W        W25088  25.536  41.124   4.652
56684W        W25089  17.020  10.560   4.655
56685W        W25090  33.643   2.855   1.216
56686W        W25091  24.490  28.189   3.232
56687W        W25092  10.612  30.844   3.368
56688W        W25093   8.376  36.488  14.310
56689W        W25094  15.093  21.783  11.330
56690W        W25095  25.157   8.185  13.651
56691W        W25096  23.872   1.446  14.969
56692W        W25097  18.748  21.882  14.124
56693W        W25098  35.478   2.703   1.337
56694W        W25099  16.699  30.203  14.397
56695W        W25100  30.572  21.270  14.428
56696W        W25101  34.614  19.643  13.367
56697W        W25102  36.920  15.343  13.025
56698W        W25103   9.655  11.145   0.221
56699W        W25104  29.035  29.079  14.676
56700W        W25105  23.070  36.516   3.993
56701W        W25106  25.125   7.318   3.929
56702W        W25107  19.751   8.236  11.394
56703W        W25108  26.011   7.037  12.603
56704W        W25109  10.317  17.786  13.907
56705W        W25110  31.521  26.228  14.776
56706W        W25111  25.015  12.854  11.158
56707W        W25112  17.178  28.326  11.694
56708W        W25113  31.622  44.803  13.958
56709W        W25114  33.111  17.266  11.241
56710W        W25115  16.076  24.548  11.633
56711W        W25116  27.555  34.691  11.230
56712W        W25117  13.147   1.865  12.604
56713W        W25118   6.357  11.068  13.830
56714W        W25119  30.130   3.755  12.520
56715W        W25120  33.880  38.872  14.259
56716W        W25121   9.596  37.995  11.114
56717W        W25122   9.465  35.480  14.416
56718W        W25123  12.264   5.504   0.770
56719W        W25124   9.331   4.741   3.183
56720W        W25125  26.789  14.649  13.713
56721W        W25126  38.963   8.126  10.650
56722W        W25127  38.103  12.923   3.686
56723W        W25128  30.367  12.601   2.148
56724W        W25129  22.649   3.873  14.324
56725W        W25130  28.578  37.756   4.334
56726W        W25131  14.743   9.161   1.338
56727W        W25132  40.503  44.696   3.678
56728W        W25133  23.544  43.012   2.234
56729W        W25134  20.509  19.597   2.423
56730W        W25135  17.768  43.262  13.044
56731W        W25136  41.277  13.949   4.491
56732W        W25137  25.741  24.549  11.930
56733W        W25138  29.809   8.669   4.612
56734W        W25139  21.223  33.341  13.470
56735W        W25140  15.707  23.758  14.818
56736W        W25141  14.072  26.165  14.949
56737W        W25142  22.386  31.487  14.833
56738W        W25143   1.034  39.918   3.020
56739W        W25144  23.601   6.483  13.915
56740W        W25145   6.151  44.698  11.524
56741W        W25146  31.866  19.301  13.479
56742W        W25147  29.419  26.081   2.854
56743W        W25148  42.407  20.017  14.530
56744W        W25149  26.755  22.725  10.161
56745W        W25150  43.223  39.353  14.553
56746W        W25151  19.755  20.779  13.795
56747W        W25152  36.024  44.796  14.536
56748W        W25153  22.540  41.632   1.151
56749W        W25154   3.625  15.381   0.299
56750W        W25155   0.856  25.437  11.654
56751W        W25156   5.934  12.784   3.834
56752W        W25157  16.239  15.594  11.901
56753W        W25158  34.992  18.258   0.117
56754W        W25159   7.208   0.115  10.730
56755W        W25160   4.411  12.838  12.849
56756W        W25161  25.637  20.641  14.299
56757W        W25162   9.547  32.344  12.161
56758W        W25163  38.229  22.008  11.644
56759W        W25164  35.759  33.238   0.936
56760W        W25165   9.384  39.781  12.110
56761W        W25166  33.907  35.014  14.453
56762W        W25167   3.819  32.886  11.103
56763W        W25168  40.107   9.897  11.154
56764W        W25169  34.912  35.063   4.679
56765W        W25170   2.985  43.871   0.012
56766W        W25171  37.486  26.672  14.431
56767W        W25172  42.984  18.638  14.514
56768W        W25173  38.480   5.723   2.225
56769W        W25174   9.315  30.362  12.383
56770W        W25175  40.356  25.968   3.107
56771W        W25176  21.790   4.094   1.834
56772W        W25177  11.392  27.679   2.173
56773W        W25178   3.482  22.158  13.996
56774W        W25179  14.327  40.486   2.046
56775W        W25180  16.652  12.487  11.073
56776W        W25181  22.455  11.324  14.454
56777W        W25182  29.010  21.377  13.481
56778W        W25183  28.230  18.272  14.334
56779W        W25184  22.532   8.813   4.126
56780W        W25185  12.095  23.654  13.421
56781W        W25186  30.453  41.343  10.881
56782W        W25187   1.962  19.258   2.592
56783W        W25188  22.215   4.819   0.517
56784W        W25189  24.410   0.648  14.956
56785W        W25190  37.471  25.396  11.055
56786W        W25191  29.321  22.173  12.052
56787W        W25192   4.746  12.118   0.738
56788W        W25193  38.554  28.534  11.541
56789W        W25194  33.141   4.689  12.220
56790W        W25195  24.695  16.694   0.060
56791W        W25196  42.086  23.184  13.895
56792W        W25197  30.940  20.158  11.534
56793W        W25198   4.437  23.520  14.898
56794W        W25199  21.263  32.029  10.733
56795W        W25200  44.906  42.934  11.555
56796W        W25201  34.538  41.881  12.040
56797W        W25202  43.395  42.992  14.319
56798W        W25203  32.897  17.874   2.970
56799W        W25204  41.053  15.211  12.010
56800W        W25205  41.959  17.847  12.957
56801W        W25206  18.994  16.592   4.695
56802W        W25207   7.809   4.941  11.947
56803W        W25208  12.907  11.568  14.577
56804W        W25209  20.212  27.700   3.222
56805W        W25210   2.159   8.035   0.684
56806W        W25211  21.125  42.459   2.228
56807W        W25212  33.966  12.617  10.497
56808W        W25213   2.696   5.932  14.808
56809W        W25214  13.197  39.985  12.563
56810W        W25215  25.101   6.239   0.934
56811W        W25216  33.279  17.252  12.970
56812W        W25217   7.743  27.752   2.204
56813W        W25218   4.658  36.555  14.927
56814W        W25219  22.706   9.818  10.997
56815W        W25220  17.286   9.242  12.054
56816W        W25221  30.193  31.419   2.197
56817W        W25222  22.687  41.425  14.250
56818W        W25223  10.637  42.789  14.940
56819W        W25224  39.018  37.525   1.831
56820W        W25225  29.103  24.489   3.886
56821W        W25226  39.017   0.322   1.776
56822W        W25227  41.427   1.339  10.323
56823W        W25228  17.556  19.932   3.657
56824W        W25229  38.938  19.205   2.841
56825W        W25230  16.967  18.697   2.818
56826W        W25231  16.536  40.518  11.900
56827W        W25232  11.863  34.167  10.887
56828W        W25233  26.954  11.207   0.505
56829W        W25234  18.736  33.607  13.016
56830W        W25235   4.398  41.701  12.887
56831W        W25236  37.571  28.291   3.270
56832W        W25237  18.287  30.210  11.184
56833W        W25238  21.709  31.555   0.553
56834W        W25239  37.343  21.967  13.965
56835W        W25240  28.206  38.526   4.999
56836W        W25241  36.573  15.101  10.721
56837W        W25242   9.055  29.536   2.384
56838W        W25243  24.619  30.343   4.212
56839W        W25244  18.578   1.240   3.234
56840W        W25245  40.060  44.863   3.329
56841W        W25246  35.512   9.125  14.332
56842W        W25247  40.297  17.398  13.525
56843W        W25248   0.085  20.058  14.984
56844W        W25249  10.481  27.638   4.171
56845W        W25250  12.290   8.227   1.646
56846W        W25251  44.301  38.915  12.572
56847W        W25252   9.281  21.371  14.844
56848W        W25253  29.592   2.832   1.866
56849W        W25254  40.037  38.014  14.842
56850W        W25255  30.216  24.977  11.208
56851W        W25256  31.124  41.691   1.813
56852W        W25257  17.502  24.639   3.360
56853W        W25258  27.254   5.810   0.269
56854W        W25259  27.797  34.495  13.407
56855W        W25260   1.347  21.775  14.006
56856W        W25261   1.166  11.869  10.542
56857W        W25262  40.459  25.911   0.730
56858W        W25263  11.653   6.862   3.110
56859W        W25264  16.028  21.109   2.685
56860W        W25265  16.137  14.197   2.182
56861W        W25266   1.107  41.409   3.351
56862W        W25267  12.433  28.425  12.075
56863W        W25268  15.802  14.095  12.189
56864W        W25269  13.187  26.920  13.560
56865W        W25270  11.901  14.596  12.143
56866W        W25271  37.618  14.497   3.065
56867W        W25272  32.582  23.700  11.969
56868W        W25273  15.601   2.770  12.000
56869W        W25274  36.954  15.526  12.495
56870W        W25275  21.088   4.855   0.478
56871W        W25276  21.135  40.266  13.607
56872W        W25277   6.827   0.002  14.593
56873W        W25278   5.859   4.855  11.708
56874W        W25279  44.580  15.648   9.911
56875W        W25280   8.703  20.282   2.860
56876W        W25281   0.510  38.665   3.100
56877W        W25282  15.755  30.567   2.599
56878W        W25283  38.665  38.947  14.053
56879W        W25284  18.163   6.477   3.557
56880W        W25285  37.974  32.935   2.961
56881W        W25286  11.260  27.035  11.291
56882W        W25287  11.291   9.960  11.585
56883W        W25288  33.893  17.367   4.376
56884W        W25289  37.144   5.780   4.242
56885W        W25290  30.226  32.643  12.293
56886W        W25291  20.230  19.188  13.315
56887W        W25292  30.502   1.596  11.718
56888W        W25293  11.444   6.164   2.216
56889W        W25294  35.817  35.153   3.664
56890W        W25295   9.725  26.243  11.800
56891W        W25296  17.158  18.568   1.421
56892W        W25297   0.560  29.273  13.992
56893W        W25298   9.607  38.750   4.571
56894W        W25299  35.601  22.185  11.035
56895W        W25300  34.720   4.767   4.520
56896W        W25301  12.808  26.271   3.272
56897W        W25302  35.134  12.198   0.394
56898W        W25303  22.265  25.160  13.836
56899W        W25304   1.998  30.509  13.132
56900W        W25305  19.507   9.966   1.709
56901W        W25306  22.213  24.208   4.026
56902W        W25307  31.924  37.535  12.517
56903W        W25308  34.527  22.476  14.823
56904W        W25309  10.479  37.567  10.247
56905W        W25310   3.796  42.598   4.693
56906W        W25311  39.003  18.671   0.973
56907W        W25312  17.325   6.181   5.501
56908W        W25313  24.613  30.923   3.354
56909W        W25314  37.440   1.868  11.078
56910W        W25315  17.304  42.252   2.224
56911W        W25316  26.787  22.655  12.576
56912W        W25317  39.829  38.181  12.924
56913W        W25318   5.053  11.782  11.569
56914W        W25319   6.804  36.379  13.458
56915W        W25320  35.440   4.358   4.109
56916W        W25321  28.464  43.559  11.052
56917W        W25322  12.590  21.462   0.808
56918W        W25323   1.251   7.366   1.844
56919W        W25324  21.799  24.253  13.004
56920W        W25325  17.089  25.147  13.033
56921W        W25326  30.443  30.975  14.069
56922W        W25327  20.468  29.800   2.222
56923W        W25328   5.174  11.541   0.916
56924W        W25329   0.361  17.771   0.286
56925W        W25330  42.227   9.338  11.602
56926W        W25331   1.362  41.797   2.408
56927W        W25332  19.627   3.745   1.920
56928W        W25333  23.077  17.645  14.728
56929W        W25334   2.339   1.870  14.501
56930W        W25335  31.422  42.455   4.552
56931W        W25336  13.756  15.667   3.140
56932W        W25337  18.031  32.712   4.268
56933W        W25338  25.678  31.468  14.835
56934W        W25339  23.640  36.037   4.525
56935W        W25340  30.151  20.567   3.475
56936W        W25341  16.047  43.558  10.620
56937W        W25342  13.148  44.763   2.395
56938W        W25343   9.936   4.715  12.994
56939W        W25344  20.343  38.787  11.737
56940W        W25345  11.847  37.899  11.659
56941W        W25346  24.369   0.719   0.471
56942W        W25347  38.301  20.791  13.847
56943W        W25348   7.305  12.335  14.554
56944W        W25349  15.165  24.918   5.392
56945W        W25350  32.117  11.304   4.437
56946W        W25351   1.900   0.457   4.559
56947W        W25352  33.596  13.920   0.252
56948W        W25353   6.430   8.303  14.019
56949W        W25354  40.089  39.620   2.787
56950W        W25355  32.903  22.646  12.396
56951W        W25356  42.800  34.576   2.404
56952W        W25357  26.304  36.495   4.282
56953W        W25358   9.897  12.654  11.499
56954W        W25359  36.365  34.308  12.011
56955W        W25360  27.105  10.273   2.273
56956W        W25361  15.724   0.563  13.366
56957W        W25362   4.715  27.112   4.474
56958W        W25363  25.271  28.976   4.293
56959W        W25364   1.674  29.139   3.695
56960W        W25365   3.900  42.249   3.160
56961W        W25366   2.196  14.133  11.076
56962W        W25367  16.579  24.501   3.319
56963W        W25368  21.647  43.886  12.627
56964W        W25369   0.783  10.749   1.291
56965W        W25370  34.173  33.868  10.656
56966W        W25371  11.815  36.612  12.582
56967W        W25372  24.312  10.879  11.117
56968W        W25373  19.068  16.846  10.627
56969W        W25374   1.561  18.006  11.412
56970W        W25375  33.620  40.545  10.703
56971W        W25376  36.009  15.735  10.987
56972W        W25377   6.024  41.902  11.652
56973W        W25378  17.539  18.173   0.937
56974W        W25379  22.023   4.358  10.664
56975W        W25380  29.983  39.288  11.167
56976W        W25381  32.379  42.618  13.451
56977W        W25382  10.366  35.830  10.994
56978W        W25383   8.939   5.130   1.966
56979W        W25384  40.433  20.542  11.030
56980W        W25385  39.302   0.574   0.788
56981W        W25386  26.957  18.041  13.062
56982W        W25387   3.758  23.803  11.044
56983W        W25388  35.436  33.873  14.398
56984W        W25389  21.939  10.565  11.070
56985W        W25390  13.679   3.296   4.277
56986W        W25391  13.387  33.577   1.826
56987W        W25392   7.902  23.496   0.877
56988W        W25393  42.047   8.862   5.091
56989W        W25394   5.146  37.893  12.559
56990W        W25395   7.457   8.999   1.822
56991W        W25396  23.730  35.562   1.726
56992W        W25397   1.375   5.939  11.879
56993W        W25398  24.172  14.685  13.770
56994W        W25399  19.808  12.939   1.441
56995W        W25400   8.068  28.423  12.977
56996W        W25401   8.697   8.996  12.370
56997W        W25402  44.005  22.260   3.735
56998W        W25403   7.416  15.277   4.259
56999W        W25404  40.861  40.018  12.533
57000W        W25405  34.605  18.538   0.389
57001W        W25406  35.689  19.214   0.791
57002W        W25407  18.041   4.222  12.082
57003W        W25408  18.547  27.990   4.004
57004W        W25409  25.895  18.982  11.514
57005W        W25410  14.682  10.861  12.021
57006W        W25411  44.286  28.497   4.826
57007W        W25412  29.719  37.436   0.455
57008W        W25413  42.307   0.291   0.880
57009W        W25414   0.614  35.566  13.944
57010W        W25415  24.687  11.763   1.775
57011W        W25416  12.403  36.319   4.188
57012W        W25417  38.247  33.390  12.510
57013W        W25418   6.861   9.121   1.065
57014W        W25419  25.389  37.157   4.721
57015W        W25420  22.684   6.489   1.424
57016W        W25421  37.046   1.678  11.343
57017W        W25422  42.208   4.168  13.285
57018W        W25423  30.644  24.446   1.670
57019W        W25424  35.837  13.380  14.606
57020W        W25425   6.628  12.947   2.463
57021W        W25426  18.341  31.098  13.736
57022W        W25427  13.129  44.487   4.361
57023W        W25428  30.127  22.136   1.899
57024W        W25429  38.803  29.823  14.821
57025W        W25430  40.634  26.004   1.700
57026W        W25431   2.763  31.767   3.416
57027W        W25432   0.647  41.108   1.392
57028W        W25433  31.966   8.367  11.704
57029W        W25434   2.311  44.337   2.737
57030W        W25435  14.637  28.564   1.645
57031W        W25436  23.761   0.073   3.641
57032W        W25437   3.042   8.945  13.606
57033W        W25438   0.716  32.015  12.416
57034W        W25439   4.193   3.425   4.442
57035W        W25440   9.645  34.765   3.978
57036W        W25441  32.543   3.212  10.726
57037W        W25442  10.330  20.026   2.919
57038W        W25443   1.991  22.536   1.130
57039W        W25444  30.412   4.292   0.301
57040W        W25445  13.622  11.747  12.229
57041W        W25446   8.719   1.751   4.440
57042W        W25447  13.665  30.694  13.514
57043W        W25448  38.830  33.727   5.152
57044W        W25449   7.058   4.210  13.071
57045W        W25450  35.106   5.658  13.430
57046W        W25451  38.189   7.415  11.196
57047W        W25452   5.906  26.627  12.802
57048W        W25453  22.012  37.529   2.064
57049W        W25454  43.400  28.189  14.897
57050W        W25455  13.255  21.830  10.906
57051W        W25456   3.363  14.100  14.544
57052W        W25457   6.811   5.578  14.890
57053W        W25458  22.658   9.410  10.673
57054W        W25459  18.811  44.825   0.968
57055W        W25460  36.576  42.984   4.899
57056W        W25461  43.477   0.511  10.702
57057W        W25462  18.229  36.495   3.658
57058W        W25463   8.639   4.198  12.837
57059W        W25464  27.618  37.036   3.199
57060W        W25465  31.326   4.224   3.396
57061W        W25466   5.914  22.277  12.139
57062W        W25467  30.255  24.481  12.533
57063W        W25468  37.846  40.512   4.129
57064W        W25469  18.605   0.218  13.469
57065W        W25470   9.924  41.455   1.710
57066W        W25471   0.810   9.492  11.158
57067W        W25472   5.788  16.492  13.955
57068W        W25473  20.056  28.669  11.599
57069W        W25474   0.914   0.782   3.296
57070W        W25475  39.678  35.021   2.207
57071W        W25476   4.453  34.434   1.538
57072W        W25477  38.855  17.343   4.134
57073W        W25478  41.828  43.975   0.503
57074W        W25479  10.575  43.833  14.080
57075W        W25480   9.799   0.943   4.183
57076W        W25481   6.958  23.694  14.000
57077W        W25482   0.211  37.261   2.153
57078W        W25483  34.114   6.670   4.163
57079W        W25484  31.904  24.948   0.805
57080W        W25485  24.001  34.174  11.452
57081W        W25486   0.533   4.799   3.727
57082W        W25487  13.874  30.877   1.677
57083W        W25488   6.692  39.124  14.275
57084W        W25489  27.147  24.093   4.972
57085W        W25490   2.498  44.346  14.804
57086W        W25491  36.318   6.800  13.145
57087W        W25492   5.938  16.208  13.544
57088W        W25493  38.526  16.243  10.812
57089W        W25494  20.103  27.687  11.969
57090W        W25495   5.867  31.074   0.379
57091W        W25496  39.611   0.043  10.934
57092W        W25497   0.593  16.373  12.864
57093W        W25498  34.532  27.947   4.781
57094W        W25499   7.248   5.733   3.718
57095W        W25500  37.521   7.738   4.221
57096W        W25501   7.645  27.423   4.148
57097W        W25502  11.282  14.301   1.867
57098W        W25503   9.159  27.174  10.690
57099W        W25504  19.758   8.562   0.558
57100W        W25505  40.489   9.748  12.077
57101W        W25506  36.301   9.375   0.270
57102W        W25507  12.318  14.752  12.417
57103W        W25508   4.221  11.656  12.988
57104W        W25509  13.691  25.895   3.215
57105W        W25510   6.014  33.530  14.803
57106W        W25511  43.042   9.511  11.879
57107W        W25512  13.780  28.200   3.186
57108W        W25513  23.959  27.903   4.037
57109W        W25514  10.880   5.142  14.358
57110W        W25515  19.008  26.206  12.500
57111W        W25516  18.662   8.384  13.826
57112W        W25517  32.377  29.641   2.914
57113W        W25518  14.295  10.758   1.768
57114W        W25519  14.777  25.941   4.664
57115W        W25520   5.735  27.727  10.375
57116W        W25521   1.307  10.653  11.948
57117W        W25522  33.452  16.207  12.209
57118W        W25523  14.167  37.747   4.127
57119W        W25524   8.987   0.892   4.581
57120W        W25525  41.574  32.891  11.581
57121W        W25526  15.243  29.394   0.408
57122W        W25527  42.842   9.403  11.117
57123W        W25528  35.264  28.106  14.510
57124W        W25529  21.274  38.296   0.311
57125W        W25530   5.219  19.423   0.746
57126W        W25531  21.491  29.490   3.400
57127W        W25532  31.154   8.440  13.437
57128W        W25533   5.491   3.399   0.757
57129W        W25534  25.278  40.022  12.884
57130W        W25535   8.736  12.150  11.954
57131W        W25536   0.309  10.538   1.266
57132W        W25537  16.254  40.364   4.907
57133W        W25538  16.146  44.259  13.319
57134W        W25539  16.599  38.385  11.378
57135W        W25540  33.461  16.019  10.227
57136W        W25541   1.846  19.642   3.403
57137W        W25542  43.852  40.026  11.153
57138W        W25543   7.821   1.032  12.784
57139W        W25544  11.439   3.597  10.244
57140W        W25545   4.060  18.723   3.233
57141W        W25546  41.394  11.366  14.363
57142W        W25547  19.119   1.981  12.302
57143W        W25548  20.766  44.056  13.997
57144W        W25549  20.457  24.736  14.398
57145W        W25550  10.260  30.889   3.714
57146W        W25551  29.993  11.767  13.259
57147W        W25552  30.719  37.625  13.496
57148W        W25553  43.378   3.393   1.028
57149W        W25554  15.048   7.894   5.273
57150W        W25555  31.905  19.817  12.408
57151W        W25556  44.464   3.188   1.710
57152W        W25557  15.596   1.532   4.523
57153W        W25558   8.684  43.260  11.206
57154W        W25559  39.044  21.185  11.408
57155W        W25560  25.931  11.063   1.610
57156W        W25561  11.337  14.791   2.894
57157W        W25562  27.154  20.663  10.619
57158W        W25563   3.352   7.462  12.843
57159W        W25564  17.831  22.837   2.739
57160W        W25565  12.532  26.311  12.392
57161W        W25566  32.373  28.413   4.038
57162W        W25567  44.956  27.242  11.023
57163W        W25568  10.943  21.193   4.114
57164W        W25569  37.437   0.017  12.038
57165W        W25570  26.389  13.059   4.185
57166W        W25571  42.830  15.021   3.623
57167W        W25572  41.528  15.353  11.079
57168W        W25573  40.944  38.000  10.634
57169W        W25574  19.793  28.990   3.377
57170W        W25575  40.608  34.851   1.290
57171W        W25576  22.189  29.089   0.235
57172W        W25577  27.597  38.309   1.711
57173W        W25578  19.509  32.175  14.239
57174W        W25579  34.110  21.090  12.011
57175W        W25580  25.710   5.092   3.301
57176W        W25581  30.441  21.777   3.144
57177W        W25582  16.695  29.873   1.619
57178W        W25583  40.522  30.750   1.214
57179W        W25584  41.031  31.528   4.624
57180W        W25585  32.405  35.170   0.912
57181W        W25586  25.218  37.523  14.822
57182W        W25587  42.410  12.085  12.462
57183W        W25588  17.790  31.953   2.664
57184W        W25589   9.130  40.785   0.762
57185W        W25590  27.117  21.523   4.530
57186W        W25591  19.567  10.240  13.985
57187W        W25592  13.635  41.725   3.218
57188W        W25593  32.899  41.727   1.376
57189W        W25594   6.691   9.920  13.078
57190W        W25595   6.115   1.860  13.097
57191W        W25596   3.522  31.059  14.773
57192W        W25597   5.207  16.173  11.425
57193W        W25598  14.656  30.928  11.147
57194W        W25599  21.715  36.491   3.100
57195W        W25600  19.885  22.241  10.610
57196W        W25601  18.260  18.883  14.283
57197W        W25602  37.222  39.907  12.339
57198W        W25603  31.270  19.054   3.198
57199W        W25604  41.198  18.230  13.572
57200W        W25605  20.558   0.719  12.781
57201W        W25606   8.603  30.947   1.502
57202W        W25607  20.760  43.663  14.822
57203W        W25608  31.779   6.640   2.938
57204W        W25609  14.725  38.572  10.816
57205W        W25610  13.864  14.275  11.957
57206W        W25611  40.776   4.846  10.664
57207W        W25612  27.176  15.692  13.985
57208W        W25613  17.733  17.517  14.906
57209W        W25614  18.206  17.961  11.130
57210W        W25615  44.580  17.479   1.255
57211W        W25616   6.365  17.528   5.100
57212W        W25617  32.373  12.616  14.177
57213W        W25618  37.579  31.732   0.314
57214W        W25619   2.364  15.697   4.535
57215W        W25620  22.706   2.846  14.827
57216W        W25621  36.591   9.011   2.094
57217W        W25622  24.172  10.940  14.344
57218W        W25623   0.326  23.272   1.262
57219W        W25624  21.008  28.043  13.510
57220W        W25625  40.559  30.535   2.672
57221W        W25626  22.565   1.499  12.467
57222W        W25627  24.714  42.011   4.143
57223W        W25628   0.254  42.744  14.469
57224W        W25629  30.889  17.585   1.901
57225W        W25630  13.096  42.435   1.938
57226W        W25631  13.959  11.747   2.329
57227W        W25632  25.412  25.213  14.045
57228W        W25633  28.504  24.872  14.511
57229W        W25634  44.875   0.836  11.981
57230W        W25635  11.860  23.904  12.991
57231W        W25636  40.496  27.741  11.579
57232W        W25637  42.088   5.102  11.068
57233W        W25638   6.978  34.368  14.451
57234W        W25639  22.799  22.728   2.547
57235W        W25640   7.406  41.783  13.780
57236W        W25641  20.328  21.213  12.005
57237W        W25642  11.903  11.596  11.270
57238W        W25643  33.414   9.149   1.796
57239W        W25644  37.921  18.328  14.844
57240W        W25645  41.912  11.767   2.315
57241W        W25646  31.683   4.819   4.554
57242W        W25647  33.494   3.195  12.188
57243W        W25648  35.491  13.095   1.859
57244W        W25649  26.249  30.407   3.663
57245W        W25650  26.868  17.339   4.507
57246W        W25651  22.595  33.594   1.878
57247W        W25652  42.239   6.819  10.534
57248W        W25653  24.921  23.089   1.600
57249W        W25654  17.684  43.512  13.503
57250W        W25655  44.457  33.514   1.615
57251W        W25656   2.430   4.164  10.427
57252W        W25657  26.675  39.044   3.021
57253W        W25658   4.815  39.924  11.235
57254W        W25659  35.606  20.101   0.825
57255W        W25660  27.892   9.805   3.765
57256W        W25661  39.556   8.526   4.550
57257W        W25662  30.205  17.016  12.646
57258W        W25663  38.132  41.448  12.580
57259W        W25664  41.936  24.383  14.448
57260W        W25665  10.697  33.758   3.622
57261W        W25666  38.914  39.534  10.827
57262W        W25667  44.351   4.410  12.086
57263W        W25668   6.192  10.244   5.174
57264W        W25669   3.726  24.688   4.071
57265W        W25670  12.352  26.397  14.866
57266W        W25671  21.062  16.485  11.894
57267W        W25672  16.232  43.891   4.435
57268W        W25673  26.134  13.830   3.934
57269W        W25674  34.277   5.655  12.421
57270W        W25675  26.594  42.746  14.778
57271W        W25676  21.006  29.525   2.749
57272W        W25677   6.318  29.023  12.324
57273W        W25678  21.785  38.535  11.490
57274W        W25679  27.682  24.069   1.721
57275W        W25680  10.276  24.255  12.113
57276W        W25681  21.933  42.867   1.482
57277W        W25682  12.062  20.585  13.922
57278W        W25683  27.527  12.189  10.645
57279W        W25684  27.683  29.161  13.293
57280W        W25685  20.838  30.479  11.256
57281W        W25686  12.666   9.400  11.166
57282W        W25687  30.419  32.098  14.427
57283W        W25688   8.267  38.871  13.029
57284W        W25689   9.522  10.212  11.094
57285W        W25690  44.672   8.765  11.176
57286W        W25691  26.693  19.722  14.481
57287W        W25692  14.206  44.002  13.096
57288W        W25693  14.655  17.938  11.983
57289W        W25694  12.648  14.297   0.781
57290W        W25695   0.266   4.273  12.407
57291W        W25696  42.753   1.801  12.054
57292W        W25697  38.927  19.501   3.277
57293W        W25698   7.109  35.422   3.830
57294W        W25699   5.343   1.065   4.010
57295W        W25700  39.863   8.592  12.518
57296W        W25701  20.480  18.001   0.840
57297W        W25702  33.367  35.037   4.623
57298W        W25703  12.642  25.233   4.064
57299W        W25704  18.222  34.663  14.370
57300W        W25705  37.409   1.555   1.324
57301W        W25706  19.140  36.823  11.672
57302W        W25707  39.826   8.191   4.858
57303W        W25708  30.315  27.510  13.796
57304W        W25709  12.131   7.748   0.869
57305W        W25710  20.518  41.062  11.496
57306W        W25711  38.103  17.515   3.728
57307W        W25712  39.350  37.167  14.315
57308W        W25713  28.446  21.238   2.838
57309W        W25714  25.112  38.566   3.690
57310W        W25715   7.880  11.335  11.581
57311W        W25716  37.422  29.723   1.594
57312W        W25717  36.471  10.346  10.760
57313W        W25718  11.679  32.869   2.204
57314W        W25719  33.660  44.321   0.857
57315W        W25720  36.779  38.621   2.511
57316W        W25721   8.329  36.776   1.714
57317W        W25722  13.398   6.295   0.871
57318W        W25723  43.379  11.190   2.619
57319W        W25724  20.227   7.335   3.613
57320W        W25725  30.034  36.461   3.108
57321W        W25726  29.381  30.090   3.829
57322W        W25727  37.431  28.879  12.904
57323W        W25728  27.845   6.430  12.897
57324W        W25729   5.516  15.253   3.124
57325W        W25730  28.183  20.548  11.627
57326W        W25731  34.871  24.610   4.310
57327W        W25732   2.426  33.984   1.025
57328W        W25733  35.091  23.674  11.988
57329W        W25734  37.989  34.622  13.919
57330W        W25735   3.481  11.416   3.788
57331W        W25736  30.926   2.884  13.269
57332W        W25737  11.780  37.320   3.581
57333W        W25738   2.967  34.904   0.942
57334W        W25739   3.735  10.894   0.338
57335W        W25740  21.212   8.221   1.592
57336W        W25741  14.695   4.254   3.445
57337W        W25742  26.049   0.759   3.983
57338W        W25743  25.827   8.703   1.854
57339W        W25744  24.177  27.605  14.334
57340W        W25745  42.836  27.680  10.711
57341W        W25746  24.639  10.578   3.034
57342W        W25747  38.765  18.291   2.157
57343W        W25748   4.873  26.846   3.159
57344W        W25749  41.496  26.066   0.643
57345W        W25750   4.971  26.011  11.549
57346W        W25751  33.664  22.614  10.608
57347W        W25752   2.253  18.645   3.130
57348W        W25753  43.913  21.034   3.889
57349W        W25754  15.583  39.452   4.270
57350W        W25755  40.002  13.587  12.063
57351W        W25756  36.444   6.114  10.599
57352W        W25757  40.906  41.650   0.821
57353W        W25758  19.067  10.660  10.693
57354W        W25759  34.242  16.160  13.801
57355W        W25760  29.113  28.660   4.189
57356W        W25761  24.248  19.333  13.904
57357W        W25762  40.371  23.606   4.070
57358W        W25763  20.067  33.099   4.713
57359W        W25764  10.484  23.578   1.221
57360W        W25765  37.530  41.424  11.121
57361W        W25766  35.551  23.624  14.516
57362W        W25767  30.581  39.567  14.069
57363W        W25768  28.116  33.060  12.546
57364W        W25769  30.128  13.088  12.116
57365W        W25770   9.730  37.618  14.941
57366W        W25771  29.086  24.834   1.761
57367W        W25772  26.265  11.561  12.516
57368W        W25773  37.100  29.222  11.108
57369W        W25774  39.840  33.488  10.532
57370W        W25775  21.591  34.159  14.554
57371W        W25776  26.622  16.340   1.241
57372W        W25777   0.743   4.931   0.673
57373W        W25778   1.441  43.556  12.884
57374W        W25779  34.917  12.584   4.190
57375W        W25780  17.552  41.740   0.362
57376W        W25781  20.237  29.312   4.923
57377W        W25782  27.174  25.495   3.105
57378W        W25783  38.885  41.819  12.931
57379W        W25784   7.201   3.290  13.470
57380W        W25785  27.210  43.858   3.190
57381W        W25786  32.950  44.970   1.004
57382W        W25787  33.175  28.309  14.843
57383W        W25788  37.760  36.436   1.238
57384W        W25789  44.768  37.640  14.353
57385W        W25790  12.374  18.863   3.140
57386W        W25791   7.188  13.236  10.730
57387W        W25792  21.775   6.313  11.181
57388W        W25793  25.983  20.023   1.194
57389W        W25794  39.053  12.920   3.825
57390W        W25795   2.960   0.355   4.660
57391W        W25796  21.014  27.471  14.429
57392W        W25797  23.190   9.348   1.657
57393W        W25798   7.115  39.975  14.366
57394W        W25799  17.115  12.577  14.069
57395W        W25800  26.417  28.007  11.503
57396W        W25801   1.996  14.611   1.359
57397W        W25802  37.486  24.888   0.380
57398W        W25803   8.106  41.067   4.530
57399W        W25804  14.187  25.621  12.548
57400W        W25805  19.171  23.996   1.195
57401W        W25806  23.218  22.059  10.790
57402W        W25807  28.090  19.014   1.228
57403W        W25808   4.869  14.059  12.589
57404W        W25809  29.482  16.612   2.010
57405W        W25810  17.782  37.371  10.700
57406W        W25811  35.405   8.722   3.373
57407W        W25812  41.446  27.590  14.927
57408W        W25813   8.615  36.931  14.436
57409W        W25814  38.405  22.549  10.802
57410W        W25815   4.698   6.639  13.323
57411W        W25816  15.088  29.540   3.379
57412W        W25817   1.393  22.217   4.250
57413W        W25818  29.858  41.013  12.067
57414W        W25819   3.366  22.458  12.499
57415W        W25820  25.504  12.165   2.942
57416W        W25821  31.109  24.767   2.330
57417W        W25822  17.284  29.092  12.786
57418W        W25823  20.718   2.871   0.378
57419W        W25824  27.662   3.433  13.940
57420W        W25825  40.970  16.744   3.390
57421W        W25826  31.585  31.238   3.632
57422W        W25827  17.245  40.397   3.759
57423W        W25828   2.879  19.991  14.298
57424W        W25829  35.440  30.817  14.444
57425W        W25830  42.346  40.809  14.559
57426W        W25831  10.124  17.922  11.578
57427W        W25832  43.789   0.879   0.423
57428W        W25833  23.702  44.821   2.781
57429W        W25834  28.062  34.227   2.825
57430W        W25835  36.090   5.000  14.817
57431W        W25836  25.144  12.047  10.806
57432W        W25837  35.830   2.333   0.982
57433W        W25838  26.149  38.777  14.996
57434W        W25839  22.720   3.613   1.708
57435W        W25840  18.675  14.290   2.238
57436W        W25841   3.106  21.622   1.888
57437W        W25842  10.962  23.554  10.739
57438W        W25843  13.131   1.429  11.849
57439W        W25844  10.928  34.423  14.882
57440W        W25845  15.160  28.472  11.140
57441W        W25846  26.351   1.061  11.091
57442W        W25847  40.075  26.175  13.807
57443W        W25848  14.752  42.347  14.037
57444W        W25849  40.093   0.433  12.852
57445W        W25850   6.175  18.854   2.475
57446W        W25851  20.041  20.206   2.746
57447W        W25852  20.507   1.957   1.766
57448W        W25853  11.214  19.403   1.294
57449W        W25854  32.485   0.131   4.737
57450W        W25855  26.078   3.498   2.652
57451W        W25856  26.428  12.679   1.351
57452W        W25857  28.373  32.920   1.252
57453W        W25858  33.023  43.331   1.770
57454W        W25859  31.224  26.520   0.914
57455W        W25860  39.130  14.713   2.630
57456W        W25861  22.115  17.744  13.543
57457W        W25862  23.652  28.350   2.908
57458W        W25863  16.808  31.750   4.922
57459W        W25864  33.576  16.364   0.799
57460W        W25865   4.962  21.833   4.996
57461W        W25866  33.566  15.726   4.157
57462W        W25867  42.536  20.098  13.600
57463W        W25868  33.089  21.114  12.006
57464W        W25869  31.406  29.724   1.419
57465W        W25870  16.169  38.431  12.577
57466W        W25871  32.450  22.071  14.124
57467W        W25872  27.479  18.490   0.578
57468W        W25873  23.720   4.706   2.666
57469W        W25874  41.321   5.176  12.058
57470W        W25875  19.176  30.168  13.427
57471W        W25876   9.343   1.384  12.165
57472W        W25877  16.807  40.997  14.127
57473W        W25878   0.708  23.130   2.400
57474W        W25879   4.967   5.484  13.975
57475W        W25880  33.338   6.468   4.677
57476W        W25881   9.165  16.264   0.414
57477W        W25882  39.368  42.809  13.771
57478W        W25883  42.283  33.338  11.797
57479W        W25884  17.847   8.855   0.865
57480W        W25885  12.206   3.328   2.178
57481W        W25886  30.627  40.970  14.574
57482W        W25887   9.298  11.243  13.497
57483W        W25888   7.758  34.030  12.882
57484W        W25889  23.955  18.143   3.360
57485W        W25890  14.733  24.596  14.260
57486W        W25891  10.881  40.267   0.680
57487W        W25892  25.547  16.091   4.859
57488W        W25893  14.137  25.354  13.009
57489W        W25894  27.644  23.053  14.963
57490W        W25895   5.558   4.713   0.940
57491W        W25896   6.517  22.830   2.921
57492W        W25897   8.074  39.814   1.675
57493W        W25898  37.311  36.493   4.577
57494W        W25899   9.241   8.234   4.046
57495W        W25900  23.678   9.730   0.498
57496W        W25901  28.287   4.199   1.582
57497W        W25902  16.047   0.122   4.662
57498W        W25903   1.936   4.685   4.233
57499W        W25904  43.497  21.087  10.840
57500W        W25905  41.247  44.800   2.326
57501W        W25906  18.286   1.724  13.491
57502W        W25907  40.386   2.498   0.555
57503W        W25908  38.291  16.036   2.916
57504W        W25909  16.966   0.427   3.387
57505W        W25910  15.131   0.523   2.755
57506W        W25911  12.783  23.601   2.772
57507W        W25912   3.175  32.189   3.250
57508W        W25913  20.538  30.165   1.172
57509W        W25914   1.401  12.832  13.922
57510W        W25915  37.197  42.832  11.106
57511W        W25916   6.660  21.133  13.376
57512W        W25917  37.540  21.180   3.334
57513W        W25918  39.535  26.418   2.190
57514W        W25919  38.839  13.296  13.582
57515W        W25920   2.857  33.662  13.897
57516W        W25921  33.410  14.838  12.837
57517W        W25922   3.445  33.835  12.101
57518W        W25923  35.400  12.608   3.997
57519W        W25924  17.743  37.039   1.008
57520W        W25925  29.424  23.476  10.711
57521W        W25926  19.143  41.112  12.084
57522W        W25927  30.101   9.914  14.822
57523W        W25928  16.535  19.882  13.093
57524W        W25929  35.287  27.971   1.492
57525W        W25930   9.496  25.895  14.978
57526W        W25931  22.107  20.023  12.533
57527W        W25932   2.725  43.390   3.331
57528W        W25933  44.269  19.462   3.252
57529W        W25934  35.613  18.681   0.707
57530W        W25935  23.859  41.669   1.255
57531W        W25936   5.360  44.628   2.399
57532W        W25937  37.318  17.644   3.013
57533W        W25938  24.227  17.717   4.135
57534W        W25939  37.170  19.607   0.432
57535W        W25940   9.089  43.943  13.284
57536W        W25941  44.260  22.935  11.429
57537W        W25942  28.618  28.382  14.640
57538W        W25943  43.367  41.868   3.602
57539W        W25944  21.166   5.634  11.730
57540W        W25945   7.493   3.884  14.407
57541W        W25946  19.599  25.728   2.155
57542W        W25947  11.848  15.046   3.335
57543W        W25948  34.583  40.936   2.443
57544W        W25949  18.535  18.183  12.273
57545W        W25950  19.115  43.757   2.429
57546W        W25951  31.085  34.603   4.765
57547W        W25952  14.515  28.264   5.114
57548W        W25953  28.881  29.608  12.546
57549W        W25954  36.615  24.704   1.266
57550W        W25955   5.232  16.798  12.654
57551W        W25956  28.374  20.324   1.319
57552W        W25957  41.528  27.274  13.418
57553W        W25958  22.252  42.569  12.983
57554W        W25959   2.956  40.462  14.075
57555W        W25960  29.427   0.009  11.081
57556W        W25961   3.672  35.922  14.502
57557W        W25962  39.469  29.400  12.046
57558W        W25963  14.235  12.820  14.508
57559W        W25964  17.274  13.647   2.532
57560W        W25965   7.255  17.254   2.186
57561W        W25966  31.175  26.001  12.389
57562W        W25967  16.140   2.808  12.087
57563W        W25968  26.608  15.048  10.279
57564W        W25969  30.766  21.257  11.852
57565W        W25970  21.447  18.905  14.378
57566W        W25971  25.947  16.045  13.290
57567W        W25972   3.853  44.651   4.621
57568W        W25973  43.769  30.467   4.204
57569W        W25974  17.612  34.733  13.000
57570W        W25975  40.062  33.231  12.280
57571W        W25976   8.891  36.644   1.761
57572W        W25977  41.513  23.492  11.155
57573W        W25978   0.025   9.094  14.794
57574W        W25979   2.724  21.948   3.194
57575W        W25980  17.685   5.230   1.883
57576W        W25981  22.266   5.670   4.490
57577W        W25982  43.807  33.347   0.863
57578W        W25983   9.782   9.308   2.573
57579W        W25984  21.074   3.352   1.921
57580W        W25985   2.000  22.221  11.592
57581W        W25986   9.608   7.476  14.744
57582W        W25987  10.099  21.048  13.722
57583W        W25988   4.399  24.240  14.433
57584W        W25989  44.548  40.057   0.829
57585W        W25990  14.635  16.682   4.387
57586W        W25991  20.696  38.336   4.690
57587W        W25992  14.752  11.353   4.137
57588W        W25993  24.061  24.694  13.627
57589W        W25994  18.671  22.755   0.871
57590W        W25995  25.519  37.302  14.444
57591W        W25996   2.419  21.447   4.030
57592W        W25997  36.515  28.952   3.421
57593W        W25998  31.370  23.028  13.065
57594W        W25999  18.239  30.724  11.198
57595W        W26000  43.955  31.446   3.839
57596W        W26001  34.539   6.728  10.877
57597W        W26002  38.808   4.754  12.973
57598W        W26003  21.560  18.273   3.488
57599W        W26004  20.606  19.736   0.262
57600W        W26005   0.887  11.552   3.987
57601W        W26006   6.464  13.289   1.192
57602W        W26007  32.043  14.722  14.225
57603W        W26008  41.512  36.891   1.687
57604W        W26009  35.744  44.469   4.544
57605W        W26010  16.886  24.163  13.826
57606W        W26011  41.931  11.306  14.314
57607W        W26012  39.346  12.590   4.412
57608W        W26013  44.211  21.385  10.865
57609W        W26014  17.750  11.078  12.348
57610W        W26015  21.552  12.871   2.362
57611W        W26016  18.216   3.745  12.217
57612W        W26017  41.421  39.867  10.733
57613W        W26018  20.104  22.226   0.548
57614W        W26019  14.251  26.700   0.961
57615W        W26020  34.595   0.078   2.400
57616W        W26021  21.385  16.126   5.041
57617W        W26022  18.067  19.553  14.923
57618W        W26023  43.311   3.804   1.845
57619W        W26024  26.676  33.316  10.746
57620W        W26025  36.987  28.419   0.879
57621W        W26026   2.144  44.809  13.475
57622W        W26027  25.081  43.188   2.571
57623W        W26028   6.822  42.939  13.075
57624W        W26029  31.013   6.758  14.869
57625W        W26030  33.864  21.088  14.844
57626W        W26031  11.518  32.003   3.209
57627W        W26032  43.109  35.642  13.407
57628W        W26033  28.664  19.284   0.419
57629W        W26034  26.881  33.969  14.865
57630W        W26035  19.214  41.948  14.398
57631W        W26036  29.487  43.277   2.717
57632W        W26037  30.878   6.279   4.653
57633W        W26038   5.305  19.562   5.031
57634W        W26039  23.618  16.320   0.979
57635W        W26040   5.794  34.739  12.202
57636W        W26041   0.742  21.540   4.164
57637W        W26042  38.973  35.458  14.600
57638W        W26043  35.384  44.477   0.640
57639W        W26044   8.104   5.841  11.114
57640W        W26045  20.115  38.724  12.608
57641W        W26046  41.051  16.688  13.487
57642W        W26047  10.290   1.032  12.218
57643W        W26048  13.246  14.294   4.801
57644W        W26049  12.592  16.275   2.836
57645W        W26050  28.685  34.261   3.302
57646W        W26051  36.503  39.373  13.476
57647W        W26052   3.407  29.664  13.901
57648W        W26053  12.519   2.511   4.116
57649W        W26054  22.580  38.139   3.689
57650W        W26055  25.788  37.536   0.989
57651W        W26056  30.045   4.855   4.563
57652W        W26057  41.996  41.054  11.638
57653W        W26058   5.318  36.571   4.674
57654W        W26059   5.070   2.744   0.608
57655W        W26060  12.894  38.927  13.102
57656W        W26061   6.358  19.201   3.617
57657W        W26062  20.042  35.993  14.980
57658W        W26063  20.471  42.776  14.600
57659W        W26064  19.889  43.558   3.813
57660W        W26065  31.593   1.727  11.542
57661W        W26066   5.673   2.432  11.680
57662W        W26067  13.536  21.051   1.295
57663W        W26068  38.108  34.597  14.468
57664W        W26069   2.179  28.157   2.296
57665W        W26070  33.918  30.749  11.635
57666W        W26071  21.097  32.438   4.221
57667W        W26072  14.256  41.373   1.492
57668W        W26073  25.441  44.351  12.489
57669W        W26074  13.864  43.486   3.695
57670W        W26075  26.446  28.108   4.231
57671W        W26076  44.020  13.914   1.775
57672W        W26077  43.451  10.128  11.174
57673W        W26078  13.252  33.611   2.681
57674W        W26079   2.638  29.951   1.262
57675W        W26080   1.228  19.135   4.371
57676W        W26081  23.850  29.695   3.194
57677W        W26082   6.345  20.339  14.953
57678W        W26083   2.794  26.065   0.290
57679W        W26084  42.934   3.247  12.799
57680W        W26085  38.006  22.265  14.979
57681W        W26086   3.928  21.426   0.775
57682W        W26087  28.410  12.784  11.450
57683W        W26088  21.667  37.573  14.035
57684W        W26089   4.230  12.251   1.281
57685W        W26090  40.993  41.766  12.592
57686W        W26091  26.492  17.616  10.494
57687W        W26092  17.130  39.104  10.473
57688W        W26093   8.131  30.559   4.498
57689W        W26094  14.200  22.017   2.265
57690W        W26095  22.286  39.546  11.115
57691W        W26096   7.986   4.300   3.019
57692W        W26097  40.165   0.095   3.778
57693W        W26098   6.590  36.514   1.236
57694W        W26099  37.994   6.234   2.780
57695W        W26100  39.483  19.772   1.295
57696W        W26101   5.190  18.992   1.941
57697W        W26102  35.002  18.226  13.013
57698W        W26103  17.748  21.547   1.884
57699W        W26104  34.424  33.189  12.513
57700W        W26105  36.236  12.585  12.908
57701W        W26106  23.249   8.122   2.969
57702W        W26107  32.180  27.413  14.782
57703W        W26108  15.712   7.333  10.028
57704W        W26109   1.719  44.184  14.966
57705W        W26110  16.937  33.034  12.988
57706W        W26111  24.620  23.262  14.221
57707W        W26112  21.077  34.134  13.053
57708W        W26113  28.523  15.321  14.283
57709W        W26114   0.341  17.356  13.002
57710W        W26115   6.930  15.833  12.481
57711W        W26116  20.259  24.303  12.647
57712W        W26117   2.240  32.540  12.643
57713W        W26118  26.173  19.274  14.350
57714W        W26119  31.844  11.721   1.787
57715W        W26120  17.468   2.328  14.434
57716W        W26121  13.947  29.675  11.673
57717W        W26122  38.062  33.416   0.644
57718W        W26123  44.422  14.201  11.571
57719W        W26124  21.113  33.605  13.907
57720W        W26125   7.685  29.470  11.349
57721W        W26126  25.555   6.876  13.494
57722W        W26127  12.344  25.366   0.790
57723W        W26128  35.234  27.306  11.348
57724W        W26129   1.631  23.753   4.339
57725W        W26130  11.428  20.171  12.857
57726W        W26131   0.503  18.733  11.931
57727W        W26132  22.554  42.986  13.145
57728W        W26133  15.357  16.108  14.932
57729W        W26134  25.528  38.401  12.908
57730W        W26135  29.987  16.008   0.495
57731W        W26136  19.907   6.684   4.123
57732W        W26137   5.447   1.308   1.915
57733W        W26138  22.558  37.619   3.825
57734W        W26139  31.443  16.648  12.794
57735W        W26140  21.563  40.883  14.761
57736W        W26141  37.017  34.114  12.949
57737W        W26142  44.478  22.081  13.460
57738W        W26143  42.929  15.293   3.177
57739W        W26144   4.318  16.337   1.172
57740W        W26145  38.028   3.787  13.869
57741W        W26146  10.255   9.340   1.851
57742W        W26147   3.617  15.008   0.680
57743W        W26148  39.408  38.526   0.569
57744W        W26149  28.659  38.738   4.499
57745W        W26150   5.810  16.359  12.190
57746W        W26151  26.343  10.113   1.781
57747W        W26152  24.400  42.846   0.454
57748W        W26153   4.660  25.631  12.576
57749W        W26154   2.337   0.642   3.170
57750W        W26155  23.394  30.866  12.057
57751W        W26156  35.529   4.731  11.521
57752W        W26157   8.366  34.952  11.487
57753W        W26158   4.209  24.609   0.305
57754W        W26159  19.957  14.585   0.840
57755W        W26160  20.677  26.506  13.827
57756W        W26161  17.504  16.708   3.088
57757W        W26162   7.250  44.758  13.897
57758W        W26163  20.020   1.383  14.427
57759W        W26164  35.461  24.194   0.771
57760W        W26165  11.487  33.702  12.881
57761W        W26166  22.466  34.931   1.923
57762W        W26167   2.767  17.314   2.765
57763W        W26168  18.191  32.269   5.001
57764W        W26169  14.855  32.043   3.780
57765W        W26170  21.157   8.941   0.852
57766W        W26171  15.306  32.588   1.812
57767W        W26172  37.556  14.857  11.127
57768W        W26173  21.848  38.089  11.730
57769W        W26174  37.418   1.715   0.196
57770W        W26175  24.065  35.004   2.912
57771W        W26176  15.343  32.031  10.995
57772W        W26177  30.987  32.987  12.557
57773W        W26178  14.847   2.966  11.587
57774W        W26179  36.095  38.401  14.489
57775W        W26180   2.271  26.834  13.839
57776W        W26181   4.760  26.105   2.597
57777W        W26182   4.771  36.478   1.285
57778W        W26183  25.728  30.426  14.823
57779W        W26184  30.306  22.698   4.104
57780W        W26185  32.097  23.143   2.776
57781W        W26186  12.141  34.814   1.573
57782W        W26187  42.255  27.710   3.555
57783W        W26188  26.154   7.362  11.924
57784W        W26189  14.641  13.363  11.126
57785W        W26190  40.482  16.312  12.463
57786W        W26191  23.864  18.686  14.372
57787W        W26192  32.411   3.768  12.903
57788W        W26193  29.653  35.597   4.082
57789W        W26194  36.033   7.818   0.029
57790W        W26195  11.355  21.543   0.285
57791W        W26196  21.161  17.371   3.675
57792W        W26197  28.232  38.235  14.414
57793W        W26198  39.904   3.927   4.102
57794W        W26199  29.377   7.320   1.907
57795W        W26200  42.952  20.008  11.402
57796W        W26201  33.291  27.260  11.560
57797W        W26202  33.898   8.371   1.303
57798W        W26203  29.364  22.999   4.167
57799W        W26204  33.678  38.313  12.954
57800W        W26205   5.344  39.655  12.937
57801W        W26206  13.695  41.880   4.592
57802W        W26207  19.698  38.467  13.793
57803W        W26208  21.547  44.648   0.234
57804W        W26209   7.884  18.166   4.653
57805W        W26210  14.095  12.206  13.933
57806W        W26211  24.909  27.996   5.041
57807W        W26212  36.194   3.171  12.594
57808W        W26213  29.365  25.088   3.308
57809W        W26214   7.485   7.396  13.814
57810W        W26215   6.679  33.651  12.026
57811W        W26216  13.946   5.813  10.665
57812W        W26217   5.373   7.969   5.060
57813W        W26218  33.659  16.114  13.835
57814W        W26219  27.404  12.334   2.670
57815W        W26220  40.319  20.904   1.390
57816W        W26221  26.489  19.257  10.351
57817W        W26222  11.318  27.957   1.744
57818W        W26223  32.518  28.083   1.340
57819W        W26224  18.945  14.369   1.770
57820W        W26225  32.820   5.468   2.798
57821W        W26226   1.323  38.501   3.667
57822W        W26227  36.019   5.253  12.837
57823W        W26228  26.382  31.870   0.185
57824W        W26229  36.658  11.404  12.084
57825W        W26230  15.294  31.804  10.546
57826W        W26231  15.759  34.099   1.249
57827W        W26232  15.142  19.813  14.919
57828W        W26233  19.608  22.593   2.431
57829W        W26234  44.420  13.178  14.448
57830W        W26235  18.342  17.160   3.630
57831W        W26236  18.544  23.232   2.149
57832W        W26237  25.140  22.802  10.572
57833W        W26238   6.562  39.562  11.142
57834W        W26239  41.545  11.497  10.738
57835W        W26240  44.888  17.326  11.178
57836W        W26241   0.337  30.976  10.730
57837W        W26242  42.841  34.063   2.662
57838W        W26243  40.334  28.004   4.141
57839W        W26244   9.202   6.346  14.699
57840W        W26245  14.094  38.495   3.287
57841W        W26246   8.726  37.294  13.452
57842W        W26247  41.924  16.623   1.709
57843W        W26248   5.891  19.550  12.525
57844W        W26249   9.916  31.973   3.347
57845W        W26250  43.991   1.307  12.002
57846W        W26251  36.488   2.754  14.271
57847W        W26252   5.753  10.838  11.974
57848W        W26253  34.462  44.405   3.192
57849W        W26254  19.506  42.866   2.769
57850W        W26255  22.003  27.953  14.813
57851W        W26256   9.607   3.112   1.783
57852W        W26257  29.712  26.304  13.491
57853W        W26258  43.238  28.671  13.800
57854W        W26259   7.385  24.004  13.335
57855W        W26260  16.975  43.063   0.397
57856W        W26261  12.625  43.898  10.683
57857W        W26262   5.304  12.766  11.338
57858W        W26263  22.672  35.988  13.414
57859W        W26264  22.690  30.754  14.272
57860W        W26265  38.396  40.499  14.418
57861W        W26266  20.664   7.817   0.168
57862W        W26267   5.144   7.314  12.152
57863W        W26268  14.118   2.379   2.353
57864W        W26269   4.765  16.673   3.610
57865W        W26270  19.318  43.380  12.057
57866W        W26271  44.866  19.246   4.603
57867W        W26272   8.927  16.287   1.771
57868W        W26273   2.820   1.963   1.351
57869W        W26274  35.998  23.181  13.607
57870W        W26275  10.836  35.109   1.869
57871W        W26276  31.676  37.326  11.968
57872W        W26277  42.961  19.055  10.458
57873W        W26278  24.063   9.194  14.915
57874W        W26279  24.124  35.001  13.519
57875W        W26280   9.912  25.034  14.763
57876W        W26281  40.246  42.048   1.500
57877W        W26282  31.044  17.466  14.872
57878W        W26283   4.781  20.154   3.729
57879W        W26284  41.993   4.602  10.299
57880W        W26285   8.495   8.223   4.532
57881W        W26286  26.549  25.324   1.714
57882W        W26287  42.545  25.019   2.791
57883W        W26288  20.820  28.009  11.662
57884W        W26289  40.093  15.623   3.867
57885W        W26290   6.317  23.591   1.118
57886W        W26291   4.656   0.041   2.734
57887W        W26292   7.401   9.680  11.139
57888W        W26293   3.851  42.394  13.066
57889W        W26294  17.289  23.065   0.217
57890W        W26295  24.897  11.826  11.191
57891W        W26296   6.953  24.036  13.606
57892W        W26297  42.429  24.865   4.523
57893W        W26298  44.201  29.112  13.071
57894W        W26299  38.368   0.426   3.329
57895W        W26300  24.524  36.560   3.491
57896W        W26301  29.578  30.561   3.675
57897W        W26302   2.444  39.884  12.038
57898W        W26303   7.645  41.263  13.285
57899W        W26304  25.077   1.582   0.707
57900W        W26305  13.536   6.560  12.964
57901W        W26306  14.825  33.516  11.919
57902W        W26307   9.943  20.519   3.678
57903W        W26308  14.527  12.361   4.179
57904W        W26309  32.367  20.189  11.515
57905W        W26310  26.253  30.066   0.583
57906W        W26311  43.490  13.753  14.476
57907W        W26312  11.230   7.760  10.697
57908W        W26313   8.175  26.469  12.087
57909W        W26314  36.952  16.004   0.759
57910W        W26315  16.314  24.449  14.524
57911W        W26316  40.440  16.796   4.649
57912W        W26317   6.462  28.201  13.461
57913W        W26318  37.436   1.192   0.269
57914W        W26319   6.989  29.043   0.378
57915W        W26320  24.742   7.274  13.107
57916W        W26321  24.463  12.125   2.341
57917W        W26322  25.923  28.958  11.035
57918W        W26323  36.144  31.054   3.231
57919W        W26324  18.533  30.590  12.519
57920W        W26325  24.733   2.943   4.340
57921W        W26326   7.677  17.855  10.617
57922W        W26327  10.843  36.411  13.722
57923W        W26328   5.187  15.672   4.248
57924W        W26329  24.680  11.662  13.587
57925W        W26330  18.419  20.523  12.201
57926W        W26331  29.366  39.004   0.756
57927W        W26332  32.071  29.050   0.989
57928W        W26333   6.960  11.612  13.606
57929W        W26334  25.869  30.939   3.579
57930W        W26335  11.380  40.457   3.210
57931W        W26336  40.260  13.040   4.406
57932W        W26337   7.707  36.050   4.791
57933W        W26338  16.843  40.074   1.295
57934W        W26339  39.137   8.135  11.487
57935W        W26340  39.273  16.547   0.299
57936W        W26341  15.676  30.683   1.598
57937W        W26342  29.400  19.786  14.409
57938W        W26343  23.704  23.492   4.435
57939W        W26344  25.128   2.546   4.138
57940W        W26345  23.036  26.723  14.907
57941W        W26346   7.315  33.022  10.637
57942W        W26347   7.375  33.929  14.548
57943W        W26348   8.893  37.334  14.298
57944W        W26349  37.419   1.444  13.838
57945W        W26350   4.434  22.821  10.657
57946W        W26351  33.838   5.185  14.990
57947W        W26352  29.794   3.429  11.917
57948W        W26353   0.480  17.378   2.243
57949W        W26354  10.817  19.731   3.285
57950W        W26355  22.492   6.597   1.897
57951W        W26356  11.330  42.885  10.496
57952W        W26357  18.018  40.969   0.888
57953W        W26358  29.447  18.899   1.400
57954W        W26359  16.678  39.917  10.494
57955W        W26360  17.132  40.246  14.330
57956W        W26361  13.759  40.999   0.948
57957W        W26362  16.033  39.537  11.155
57958W        W26363  23.579  35.000  11.945
57959W        W26364  44.222   8.838  14.341
57960W        W26365  16.703  17.438   2.326
57961W        W26366  22.714  34.673  10.751
57962W        W26367  21.758  35.129   3.396
57963W        W26368  36.396  40.833   4.590
57964W        W26369   0.838  18.073  10.753
57965W        W26370  21.500  13.604  12.141
57966W        W26371  20.514  17.818  13.431
57967W        W26372  37.295  16.706  11.525
57968W        W26373  27.848  12.344   1.811
57969W        W26374  18.072  39.618   1.839
57970W        W26375  37.005  39.242   4.134
57971W        W26376   6.521  24.899  10.763
57972W        W26377  18.342  21.573  10.258
57973W        W26378  11.506  30.423  11.560
57974W        W26379  43.623   6.250  14.625
57975W        W26380  25.275  10.184   1.891
57976W        W26381  31.147  44.053   3.239
57977W        W26382   6.205  28.488   1.780
57978W        W26383  21.208   4.777  11.491
57979W        W26384   2.936  30.916  12.750
57980W        W26385  29.740  34.440  12.653
57981W        W26386  27.288  13.826  12.376
57982W        W26387  15.485  41.811   3.827
57983W        W26388  43.333   5.811  11.677
57984W        W26389  40.715   5.740   1.194
57985W        W26390  26.585  25.505   2.241
57986W        W26391  24.073   5.697  13.867
57987W        W26392  32.473  21.827  11.984
57988W        W26393  41.876  23.152   3.271
57989W        W26394  18.800   3.461  10.284
57990W        W26395  28.466  32.318   0.492
57991W        W26396  35.546  10.927  10.682
57992W        W26397  19.748  28.882   4.707
57993W        W26398  32.240  34.511  11.261
57994W        W26399  14.243  16.560   3.493
57995W        W26400  16.550  21.444   3.111
57996W        W26401  14.764  43.839   3.177
57997W        W26402   2.931  18.769   3.144
57998W        W26403  37.349  13.679  10.756
57999W        W26404  26.473  40.310   1.425
58000W        W26405   4.204  28.435   2.695
58001W        W26406  37.608  42.978   1.759
58002W        W26407   8.754  44.209   0.210
58003W        W26408  15.612   0.708  11.139
58004W        W26409   9.169  35.992  12.615
58005W        W26410  24.620  26.234  14.033
58006W        W26411  16.097   2.546   2.564
58007W        W26412  37.056  38.558  13.496
58008W        W26413  28.950  34.485  13.971
58009W        W26414   6.670  21.994   4.438
58010W        W26415  44.191  24.282   1.236
58011W        W26416  35.612   4.857  13.431
58012W        W26417  39.615  32.016   1.913
58013W        W26418   0.680   2.643   1.710
58014W        W26419  38.103  42.238  13.006
58015W        W26420  43.745  32.411   0.884
58016W        W26421  36.378  42.806   4.486
58017W        W26422  36.478   1.696   1.851
58018W        W26423  13.363   7.316  14.251
58019W        W26424  13.334  40.468   2.136
58020W        W26425  35.029  14.526  13.975
58021W        W26426  15.261   7.484   3.352
58022W        W26427  24.888   8.602   4.106
58023W        W26428  17.170  28.116   1.440
58024W        W26429  35.960  23.772   0.817
58025W        W26430  20.626  27.377   3.300
58026W        W26431  31.930   5.840  10.705
58027W        W26432  10.622  26.595   1.735
58028W        W26433  17.809   5.314  11.490
58029W        W26434  14.030  11.490   1.884
58030W        W26435   6.443  20.187   4.759
58031W        W26436   1.180   3.104   3.271
58032W        W26437  23.593  22.875  13.435
58033W        W26438  19.960  11.223   4.705
58034W        W26439  12.235  22.115  11.245
58035W        W26440  22.653  16.257  14.284
58036W        W26441  11.345  27.459  10.327
58037W        W26442  22.034  30.104   3.130
58038W        W26443  30.438  17.404  11.342
58039W        W26444   3.423  29.650   2.350
58040W        W26445  25.467  39.659   0.016
58041W        W26446  12.467  12.194  13.483
58042W        W26447  34.544  37.322  12.726
58043W        W26448  15.119   5.297  13.004
58044W        W26449  31.382  35.365  12.567
58045W        W26450  29.729  28.024   1.470
58046W        W26451  41.176  39.394  10.796
58047W        W26452   4.249  27.223   0.868
58048W        W26453  17.631  24.596   4.255
58049W        W26454  23.731   0.550  11.191
58050W        W26455  35.014   7.655   0.410
58051W        W26456  21.201  24.724   3.710
58052W        W26457  29.211  23.594  14.872
58053W        W26458  10.267  40.916  10.715
58054W        W26459  31.480  40.012  14.458
58055W        W26460  27.137  22.455   0.341
58056W        W26461  28.187  22.841  10.344
58057W        W26462  14.698  30.476   3.067
58058W        W26463   2.685  43.654  13.948
58059W        W26464  16.872  20.320   2.136
58060W        W26465  23.194  37.397  14.716
58061W        W26466  38.488  34.070  11.413
58062W        W26467  24.113  28.055   0.969
58063W        W26468   3.412  16.574   0.938
58064W        W26469  35.624  15.755   5.132
58065W        W26470  14.797  12.807  13.798
58066W        W26471  32.532   7.666   3.007
58067W        W26472   2.413  34.942   0.264
58068W        W26473   3.409   7.666   2.738
58069W        W26474   7.689   8.882  13.003
58070W        W26475   8.330  10.927   3.574
58071W        W26476  19.020   6.896  11.522
58072W        W26477  36.869  23.248   0.089
58073W        W26478  35.685  26.547   4.209
58074W        W26479  38.787   6.022   0.449
58075W        W26480  15.129   6.886   2.303
58076W        W26481  30.750  24.542  12.512
58077W        W26482  44.860  32.780  14.975
58078W        W26483  19.040  23.963   1.692
58079W        W26484   2.804  19.314   1.698
58080W        W26485  13.238  29.077  11.643
58081W        W26486  43.364   1.970  10.715
58082W        W26487   3.078  38.402   2.326
58083W        W26488   0.700   9.787   1.697
58084W        W26489   8.133  17.044   2.359
58085W        W26490  17.860  21.270   3.209
58086W        W26491  39.977  30.544   1.789
58087W        W26492  22.472  26.018   1.005
58088W        W26493  42.113  24.451  13.432
58089W        W26494   4.704  14.195  13.548
58090W        W26495  10.176   5.915   4.671
58091W        W26496  30.097  40.794  12.991
58092W        W26497  43.124  22.246  10.456
58093W        W26498  27.236   5.714  12.970
58094W        W26499  22.566  23.936  11.171
58095W        W26500   5.667  22.744   4.131
58096W        W26501  30.651   9.928   4.124
58097W        W26502  25.000  13.610   2.994
58098W        W26503   5.716   8.704   0.809
58099W        W26504   7.020  43.653  14.469
58100W        W26505  25.287  34.994  14.260
58101W        W26506  25.120  18.273   0.053
58102W        W26507  20.467  17.184  14.264
58103W        W26508  14.808   8.641   4.675
58104W        W26509  32.039   9.878   0.855
58105W        W26510  40.893   4.863  13.288
58106W        W26511   0.404   3.247  11.673
58107W        W26512  42.162  36.056   4.968
58108W        W26513   8.405  33.625   4.214
58109W        W26514  42.677  38.914  12.092
58110W        W26515  17.126  43.726   2.187
58111W        W26516  36.060  12.891   3.320
58112W        W26517  30.059  39.072  10.670
58113W        W26518  38.899  39.515   4.027
58114W        W26519  17.171  17.175  11.212
58115W        W26520  37.025  40.590   2.415
58116W        W26521  24.398  14.190   2.839
58117W        W26522   8.800  10.586   2.772
58118W        W26523  18.070   3.352   2.901
58119W        W26524   8.955  38.926  12.401
58120W        W26525  28.498  28.156  13.378
58121W        W26526  31.402  28.991   4.412
58122W        W26527  25.155  44.986   2.176
58123W        W26528  33.466   5.740  12.587
58124W        W26529  35.807  20.467  14.286
58125W        W26530  31.548   7.223   2.153
58126W        W26531  33.928  22.923  13.080
58127W        W26532  30.022  30.355  10.596
58128W        W26533  29.497  43.338   4.957
58129W        W26534  41.777  35.435  13.901
58130W        W26535   0.182  14.015  11.157
58131W        W26536  35.370  35.034   3.895
58132W        W26537  39.497  20.967   4.451
58133W        W26538  10.327  20.667  12.045
58134W        W26539  20.826   2.185   0.839
58135W        W26540  12.169   7.277   3.826
58136W        W26541  35.893   5.317   1.212
58137W        W26542  10.595   7.104  11.458
58138W        W26543  30.637  10.140  12.594
58139W        W26544   7.753  23.569   3.737
58140W        W26545  38.567  13.201  12.523
58141W        W26546  13.847   9.381  10.564
58142W        W26547  41.837   4.494  13.585
58143W        W26548   3.883  23.515  10.636
58144W        W26549  29.039  28.150   0.725
58145W        W26550   2.371  18.237  10.756
58146W        W26551  38.497  15.683   1.140
58147W        W26552   2.040  42.540   4.355
58148W        W26553  14.263  14.190  13.551
58149W        W26554  28.224  17.830   3.866
58150W        W26555  22.744  16.780  14.337
58151W        W26556   0.355  35.929  13.614
58152W        W26557  41.909  18.565   0.365
58153W        W26558  25.573  32.448   1.273
58154W        W26559   4.720  12.816   3.281
58155W        W26560  35.549   1.894  13.929
58156W        W26561  15.307   3.623  13.824
58157W        W26562  34.443  21.707  10.627
58158W        W26563  43.661  17.213  12.495
58159W        W26564  34.928  40.848  12.588
58160W        W26565  16.201  31.725   1.883
58161W        W26566  12.790  31.324   3.153
58162W        W26567  42.025  29.560  14.419
58163W        W26568   9.742  34.900   4.481
58164W        W26569  24.888  39.331   4.912
58165W        W26570  14.678   3.869   3.803
58166W        W26571  27.706  36.538  11.156
58167W        W26572  40.498   4.804   1.865
58168W        W26573   8.314  10.282  14.357
58169W        W26574  33.666  37.848   3.759
58170W        W26575   0.167   7.923  14.485
58171W        W26576  17.469  40.005   5.072
58172W        W26577  10.137  26.035  11.542
58173W        W26578  35.546  27.243  14.395
58174W        W26579  33.522  38.816  12.755
58175W        W26580  34.827   9.749   2.380
58176W        W26581  42.140  18.243  10.967
58177W        W26582  44.772   7.899   2.697
58178W        W26583  12.933  33.798   3.925
58179W        W26584  34.940  33.562  14.297
58180W        W26585  26.265  40.992  11.148
58181W        W26586  31.526  39.608   1.141
58182W        W26587  43.053  39.895   1.899
58183W        W26588  22.243  42.855  13.515
58184W        W26589   0.545  21.719   1.256
58185W        W26590  42.218  38.957  10.961
58186W        W26591  26.143   4.628   4.692
58187W        W26592  44.431  24.519   4.860
58188W        W26593  40.516   0.444   3.903
58189W        W26594  21.536  33.648  14.584
58190W        W26595  29.446  28.254   4.225
58191W        W26596  42.586  21.127  10.435
58192W        W26597  38.368  35.044   1.214
58193W        W26598   5.907   3.454  14.798
58194W        W26599   3.511  18.567  14.976
58195W        W26600  26.550  13.816   4.722
58196W        W26601  32.618   1.745   2.161
58197W        W26602  15.606   9.947  11.109
58198W        W26603  42.763   5.753  10.683
58199W        W26604  18.232  27.363  11.886
58200W        W26605  35.679  27.269  11.606
58201W        W26606  43.006   0.971   4.526
58202W        W26607  31.201   0.317   2.272
58203W        W26608  24.118   2.248  12.024
58204W        W26609   5.445  19.571   4.014
58205W        W26610  44.419   5.954  14.967
58206W        W26611  32.064  43.242  14.329
58207W        W26612   9.145   9.141  12.559
58208W        W26613   9.859  14.766  12.527
58209W        W26614   2.245  28.181   4.225
58210W        W26615  33.181  32.963  13.917
58211W        W26616  21.641  11.708   4.472
58212W        W26617  15.783  21.634  12.963
58213W        W26618  33.923  32.643  10.504
58214W        W26619  40.777  18.088   0.373
58215W        W26620   3.609  19.534   1.768
58216W        W26621  29.017  11.756  12.116
58217W        W26622  20.212  13.316   2.683
58218W        W26623  42.342  29.019   2.432
58219W        W26624   4.941  20.186  13.986
58220W        W26625   7.760   9.154   0.172
58221W        W26626  23.984  38.824  12.513
58222W        W26627  42.278  13.192  12.207
58223W        W26628  32.033  23.520   4.006
58224W        W26629  41.587  37.648   4.096
58225W        W26630  12.680  36.504  13.050
58226W        W26631  15.529  15.099  10.995
58227W        W26632  13.369  25.148   3.625
58228W        W26633  25.751   4.405  11.107
58229W        W26634  42.330  25.370  11.172
58230W        W26635  34.167  44.280  12.571
58231W        W26636  17.558  16.584  14.791
58232W        W26637  24.169  13.570   3.225
58233W        W26638   2.022  43.423   4.618
58234W        W26639   8.557  28.923  13.515
58235W        W26640  34.414  19.693   2.710
58236W        W26641  20.092   5.740   4.011
58237W        W26642  43.380  23.299   2.245
58238W        W26643  36.994   8.221   1.716
58239W        W26644  30.082  30.830  13.257
58240W        W26645   7.911  40.547   2.647
58241W        W26646  29.805   3.589  12.883
58242W        W26647  12.597  11.766   2.936
58243W        W26648  32.732  36.410   0.853
58244W        W26649  33.462  16.753  12.979
58245W        W26650   8.346   9.211  11.602
58246W        W26651  42.042  38.592  11.905
58247W        W26652  40.508  38.540  11.946
58248W        W26653  15.265   9.863   1.514
58249W        W26654  43.194  15.677   4.468
58250W        W26655   2.735   9.649   0.166
58251W        W26656  23.698  18.306  11.993
58252W        W26657  11.242  32.434   0.399
58253W        W26658  19.753  40.511  14.072
58254W        W26659  39.500  35.886   2.275
58255W        W26660  12.907  37.983  11.654
58256W        W26661   6.855   4.406  12.645
58257W        W26662  12.680  27.081  14.500
58258W        W26663  13.326  44.063  11.078
58259W        W26664  40.546  18.033   2.046
58260W        W26665  14.048  27.465  11.457
58261W        W26666  18.794   4.555   4.076
58262W        W26667   2.550  41.767   3.783
58263W        W26668  35.107  21.038   5.002
58264W        W26669  15.082   4.239  11.977
58265W        W26670  25.235   8.004  14.236
58266W        W26671  28.015  19.609  10.731
58267W        W26672  23.582  29.922  13.521
58268W        W26673  34.873  38.332   4.528
58269W        W26674   5.609  44.633   2.836
58270W        W26675   6.204  18.409   4.200
58271W        W26676  30.665  16.149  13.949
58272W        W26677  34.085  33.917   0.808
58273W        W26678  11.000   0.912   2.819
58274W        W26679  17.583  41.297  12.476
58275W        W26680  12.218   3.813   3.691
58276W        W26681  38.063  15.812  14.298
58277W        W26682  26.192  34.143   0.962
58278W        W26683   4.641   1.825  12.037
58279W        W26684  30.737  27.558   2.999
58280W        W26685   3.729  40.874  14.067
58281W        W26686  41.277  44.363  11.362
58282W        W26687   0.552  43.188   1.535
58283W        W26688  43.968  16.548  13.514
58284W        W26689  11.233  44.317   2.264
58285W        W26690  37.942  19.634  13.379
58286W        W26691  18.829  34.097  11.924
58287W        W26692  25.183   6.230  11.067
58288W        W26693  43.767  12.345   3.742
58289W        W26694  36.316   6.597   1.952
58290W        W26695  26.218   5.142   1.898
58291W        W26696  21.761   0.572  11.054
58292W        W26697  39.539  30.592   2.896
58293W        W26698  10.675  13.174  14.579
58294W        W26699   7.271  27.668  10.944
58295W        W26700  43.463  21.284  10.338
58296W        W26701  24.344  38.378  14.969
58297W        W26702  13.412  20.189  13.152
58298W        W26703   1.296  33.297  12.127
58299W        W26704  33.659  15.370   1.778
58300W        W26705  17.731  30.913  10.945
58301W        W26706  28.650  44.696  12.057
58302W        W26707  38.493  39.963  14.937
58303W        W26708  22.071  25.256   1.301
58304W        W26709  22.842  18.131   4.141
58305W        W26710  24.897   1.191   1.474
58306W        W26711  19.104  41.900   2.637
58307W        W26712  26.300   5.797  12.631
58308W        W26713  21.120   1.977  11.044
58309W        W26714  19.596  18.052  10.832
58310W        W26715  32.139  26.176   0.332
58311W        W26716  29.369   3.487  10.661
58312W        W26717  24.902  34.477   2.394
58313W        W26718  16.578  15.136  14.902
58314W        W26719  20.805   6.452   1.355
58315W        W26720  21.104  23.720   1.901
58316W        W26721  36.500  35.877  12.156
58317W        W26722   4.181  23.098   4.846
58318W        W26723  42.445  30.537   2.604
58319W        W26724  10.296  34.428   1.705
58320W        W26725  18.222   3.234  12.380
58321W        W26726  43.190  36.497  12.057
58322W        W26727  41.778  18.644   2.845
58323W        W26728  36.044  16.497  12.504
58324W        W26729  18.596   8.842   1.972
58325W        W26730   6.900  43.371  10.995
58326W        W26731  35.555  16.733  12.135
58327W        W26732  39.397  24.491  14.872
58328W        W26733   4.146   8.808   2.284
58329W        W26734   7.310  40.268  13.995
58330W        W26735   4.623   2.859  12.433
58331W        W26736  35.660  34.366   2.698
58332W        W26737   4.791  44.515  12.324
58333W        W26738  18.330  32.942  11.046
58334W        W26739  22.811  35.883   4.273
58335W        W26740  28.702  15.543  13.817
58336W        W26741  39.415  41.514  14.297
58337W        W26742  17.865  30.616  14.527
58338W        W26743  17.430   5.227   9.820
58339W        W26744  29.136   8.340  11.252
58340W        W26745  35.524  19.465   0.168
58341W        W26746  27.038  26.101  10.873
58342W        W26747  42.479  23.609   3.574
58343W        W26748  38.504  16.881  13.125
58344W        W26749  20.919  20.228  14.718
58345W        W26750  27.719  40.094   4.100
58346W        W26751  32.055  33.185  11.198
58347W        W26752  27.031  28.648   0.868
58348W        W26753   3.231  12.108  11.489
58349W        W26754  31.468  26.156   2.558
58350W        W26755  39.004  43.964   4.886
58351W        W26756  43.973  41.978  13.599
58352W        W26757  39.866   5.281   2.343
58353W        W26758   6.694  26.969  11.057
58354W        W26759  15.882  38.973  12.843
58355W        W26760  16.136  34.526  12.118
58356W        W26761  22.029  13.783   4.635
58357W        W26762  16.045  41.531  10.802
58358W        W26763  33.130  44.127  11.756
58359W        W26764   0.829  12.211   0.802
58360W        W26765  37.625  32.391  11.630
58361W        W26766  10.359  14.402   0.318
58362W        W26767  13.297   8.485   0.983
58363W        W26768  32.006  40.060  13.893
58364W        W26769   9.446   7.996   2.032
58365W        W26770  18.070  29.593  13.903
58366W        W26771  44.682  15.228  11.021
58367W        W26772   3.692  20.572   0.168
58368W        W26773  34.632  34.006   1.485
58369W        W26774  15.179   1.016  12.015
58370W        W26775   8.386  15.249   3.976
58371W        W26776  17.173  13.565   3.760
58372W        W26777  43.049  17.045  11.200
58373W        W26778  16.997  41.941   0.821
58374W        W26779  17.055  26.041   3.494
58375W        W26780  15.074   1.334   1.415
58376W        W26781  33.433   4.926   3.251
58377W        W26782  37.571  29.898  12.861
58378W        W26783  17.497  22.602   1.489
58379W        W26784   6.563  42.348  14.181
58380W        W26785  42.779  23.053  11.101
58381W        W26786  26.013  41.778   1.812
58382W        W26787   8.172  36.370  13.844
58383W        W26788  18.595   9.961   0.921
58384W        W26789  44.788  36.588  13.499
58385W        W26790  12.525  16.357   1.781
58386W        W26791   3.339  37.116  12.279
58387W        W26792   9.651  20.105  14.335
58388W        W26793  20.435   9.171  12.069
58389W        W26794  41.047  44.972  13.994
58390W        W26795  19.662  23.595   3.385
58391W        W26796  10.800   8.702  11.470
58392W        W26797  28.324  22.534   4.138
58393W        W26798  20.308   0.911   3.167
58394W        W26799  41.985  41.633  14.479
58395W        W26800  43.517  40.795   2.644
58396W        W26801   9.910  15.510   2.635
58397W        W26802   5.908   0.932   1.202
58398W        W26803  32.035  13.295   2.367
58399W        W26804  20.222  21.190   3.793
58400W        W26805  12.523  10.425   4.197
58401W        W26806  27.551  17.737  12.661
58402W        W26807  43.030  34.920  12.975
58403W        W26808  41.036   4.946   4.174
58404W        W26809  24.172  33.549   2.260
58405W        W26810  15.788  26.074   4.546
58406W        W26811  40.965  42.250   3.148
58407W        W26812   1.492   6.375  11.562
58408W        W26813   8.531  24.539   4.248
58409W        W26814  35.896  35.114  11.080
58410W        W26815  16.710   1.320   2.674
58411W        W26816  16.149  26.725  10.916
58412W        W26817  40.735  36.727  13.985
58413W        W26818  26.043  25.893  11.964
58414W        W26819  17.792  25.096   4.431
58415W        W26820  42.440  38.989   2.458
58416W        W26821  16.315   8.232  12.523
58417W        W26822  11.205  28.111  12.584
58418W        W26823  29.651   1.039   0.229
58419W        W26824  22.581  28.938   2.392
58420W        W26825  12.203   8.499  14.860
58421W        W26826   2.375  27.927  10.385
58422W        W26827  39.834  10.351  11.152
58423W        W26828   8.814   9.728  14.101
58424W        W26829  31.470  44.251  12.162
58425W        W26830  28.103   1.076   1.356
58426W        W26831  32.575  28.777  10.749
58427W        W26832   6.417  11.041   0.624
58428W        W26833  36.995  11.021   2.062
58429W        W26834   0.722  44.491   0.560
58430W        W26835  39.267  20.791   0.534
58431W        W26836  39.765  39.927   2.335
58432W        W26837   7.034  21.498   0.317
58433W        W26838  37.523  25.581   2.759
58434W        W26839  19.008  31.380  12.156
58435W        W26840  18.271   6.237   4.596
58436W        W26841   2.226  22.074   3.301
58437W        W26842  32.269   9.774   5.084
58438W        W26843  40.351  32.418  11.426
58439W        W26844  29.443  25.657   0.306
58440W        W26845   2.533  12.248  12.230
58441W        W26846  39.919  44.002   3.751
58442W        W26847  43.105  44.720   4.227
58443W        W26848  35.461  19.549  14.651
58444W        W26849  32.665  42.294   4.105
58445W        W26850  14.056  23.182   2.724
58446W        W26851  30.710  21.671   3.620
58447W        W26852   1.452   4.527   1.333
58448W        W26853   6.742  37.047   4.667
58449W        W26854  34.331  44.967   1.235
58450W        W26855   6.248  27.384   4.737
58451W        W26856  12.938  29.503  11.513
58452W        W26857  17.670  10.764   3.284
58453W        W26858  44.719   2.792  13.775
58454W        W26859   4.717   7.520  11.541
58455W        W26860   2.943   5.711   0.988
58456W        W26861   5.328  23.484  13.018
58457W        W26862  32.128  44.951   1.032
58458W        W26863  29.280  18.334   3.305
58459W        W26864  15.490   4.250   2.695
58460W        W26865  39.386  38.869   0.964
58461W        W26866  42.038  15.085  11.987
58462W        W26867   8.597  19.930  10.967
58463W        W26868  34.102  42.974  12.482
58464W        W26869   6.630  44.949  11.994
58465W        W26870  17.618  33.661  12.037
58466W        W26871  41.891  23.716   0.828
58467W        W26872  14.308  25.675   3.142
58468W        W26873   7.818  29.579   0.471
58469W        W26874   2.665  42.338   4.020
58470W        W26875   1.820  29.455  11.282
58471W        W26876  18.454  35.064   3.591
58472W        W26877  31.452   9.511   2.154
58473W        W26878  25.213  33.506   2.212
58474W        W26879  26.817  24.824  11.093
58475W        W26880  13.901  35.883   2.607
58476W        W26881  18.549   8.829   3.461
58477W        W26882  38.350  20.096  13.342
58478W        W26883  11.931  42.891  14.299
58479W        W26884  36.039  10.803  13.041
58480W        W26885  42.463  17.319   4.347
58481W        W26886  21.642  39.037  11.394
58482W        W26887   4.801  14.616  11.500
58483W        W26888   6.785  11.386   0.512
58484W        W26889  31.664  32.193  12.007
58485W        W26890  24.130  21.527  12.485
58486W        W26891   4.604  27.041   1.847
58487W        W26892  23.116  21.805   3.284
58488W        W26893  15.756  31.345   0.812
58489W        W26894  28.009  24.761  11.691
58490W        W26895   2.177   8.072   4.056
58491W        W26896  40.054  34.130   1.375
58492W        W26897  22.967  41.957  11.557
58493W        W26898   9.395  31.429   3.626
58494W        W26899  36.831  17.492  12.430
58495W        W26900   1.834  23.529   1.046
58496W        W26901  12.673  44.519  11.590
58497W        W26902  21.721  34.379   1.399
58498W        W26903  29.601  40.771   9.463
58499W        W26904  14.148  31.687   0.490
58500W        W26905  42.302   9.918   3.658
58501W        W26906   9.249  30.251  11.878
58502W        W26907  21.577  21.553   3.785
58503W        W26908  41.887  27.950   3.792
58504W        W26909  43.310  15.715   3.949
58505W        W26910  23.083  16.363   2.284
58506W        W26911  33.956   3.889  12.915
58507W        W26912  39.999  22.068   3.605
58508W        W26913  30.086  41.578  13.424
58509W        W26914  13.513  26.581   4.610
58510W        W26915  37.079   9.081   0.202
58511W        W26916  13.400  30.668   1.739
58512W        W26917   6.420   2.355   1.768
58513W        W26918  24.609  40.343   1.500
58514W        W26919  28.908   1.037   3.988
58515W        W26920  23.480  42.106   1.945
58516W        W26921   1.404  18.383   1.514
58517W        W26922   2.526  28.621  12.833
58518W        W26923  22.696  10.777   2.022
58519W        W26924  20.977  40.091  10.239
58520W        W26925  44.777  27.612   2.213
58521W        W26926  35.465  26.936   3.917
58522W        W26927  24.678  36.134   3.730
58523W        W26928  42.075  43.950   4.347
58524W        W26929  13.322  44.662  12.459
58525W        W26930  35.477   3.456   4.624
58526W        W26931  18.546  35.608   0.915
58527W        W26932   7.597  36.626   3.215
58528W        W26933  28.003  12.411  13.407
58529W        W26934  11.193   9.637  11.110
58530W        W26935  24.415  38.870  11.546
58531W        W26936   7.661  18.138  14.043
58532W        W26937  32.486   1.253  11.692
58533W        W26938  43.433  18.768  10.609
58534W        W26939  20.090  34.094   3.826
58535W        W26940   6.966   3.317   0.424
58536W        W26941  36.550  20.472   4.118
58537W        W26942  20.904  39.290  13.949
58538W        W26943   4.663  38.870   1.372
58539W        W26944  41.794   1.203   1.807
58540W        W26945  26.999  14.153   5.150
58541W        W26946  30.986  35.017  13.066
58542W        W26947  28.870  43.464   1.775
58543W        W26948  42.316  35.008   0.451
58544W        W26949  28.126  28.463   3.058
58545W        W26950  22.443  11.152  10.984
58546W        W26951  37.889  28.970   0.790
58547W        W26952   1.956  13.099   0.912
58548W        W26953   0.379  19.678   2.014
58549W        W26954  42.326  15.136  11.572
58550W        W26955  40.804  38.453  11.550
58551W        W26956   9.461  24.644  12.454
58552W        W26957  31.489  30.628  12.105
58553W        W26958  22.553   7.868   2.950
58554W        W26959  33.163  34.018   1.226
58555W        W26960  20.785   2.129   2.593
58556W        W26961  21.659  40.046  12.312
58557W        W26962  35.257  15.386  11.158
58558W        W26963  31.016  26.945  10.481
58559W        W26964  18.143  24.392  10.401
58560W        W26965  31.940   4.925  11.965
58561W        W26966  33.429  25.358  14.049
58562W        W26967  37.775  12.525   2.101
58563W        W26968   6.952  21.300   2.147
58564W        W26969   6.689  20.826   3.359
58565W        W26970  22.042  37.371  14.397
58566W        W26971  34.952   8.628   2.238
58567W        W26972  35.762  37.031   1.898
58568W        W26973  44.823  13.915   3.318
58569W        W26974  32.635  42.787   3.334
58570W        W26975   4.176  44.388   0.447
58571W        W26976  43.479  23.435   0.457
58572W        W26977  13.111  24.960   1.131
58573W        W26978  25.284  43.777  11.514
58574W        W26979  26.099  31.135   1.481
58575W        W26980  21.035   4.260   2.390
58576W        W26981  24.092  12.301  12.097
58577W        W26982   1.502  19.978  13.316
58578W        W26983  35.049  26.001   1.283
58579W        W26984  10.347  38.307   3.887
58580W        W26985   1.293  12.820  11.991
58581W        W26986   0.288   5.027   3.305
58582W        W26987  42.261  10.353  11.589
58583W        W26988  16.657  42.813   4.163
58584W        W26989  14.682  19.542   3.130
58585W        W26990  35.296  19.237  13.848
58586W        W26991   0.288  10.556   2.127
58587W        W26992  31.806  31.697  12.391
58588W        W26993  18.095  28.399  14.441
58589W        W26994  25.098   1.968   2.661
58590W        W26995  32.709   4.782   4.513
58591W        W26996  19.100  29.529  12.019
58592W        W26997   6.653  19.636  13.376
58593W        W26998  26.291  12.226   3.431
58594W        W26999  22.613  11.403   3.204
58595W        W27000  25.573  12.204  11.103
58596W        W27001   5.177   0.307  12.362
58597W        W27002  33.683   3.739  10.630
58598W        W27003  26.135  13.695   1.029
58599W        W27004   0.496   7.428  12.474
58600W        W27005  12.419  23.002   1.355
58601W        W27006   9.373   7.175  10.679
58602W        W27007  22.725  41.637   0.673
58603W        W27008   5.833  26.738   3.771
58604W        W27009  43.404  20.595  10.881
58605W        W27010   0.410  43.698   1.722
58606W        W27011  13.866  42.789  11.973
58607W        W27012  13.990  26.508  13.596
58608W        W27013  26.235   9.623   3.783
58609W        W27014  36.521  14.852  14.547
58610W        W27015  17.391  32.631   5.096
58611W        W27016  22.194  23.183  14.755
58612W        W27017   8.874  26.420  13.021
58613W        W27018   0.593   5.903  11.654
58614W        W27019  35.857  27.878   0.826
58615W        W27020   3.953  30.166  14.455
58616W        W27021  10.185  25.506   2.916
58617W        W27022  30.735  26.948   4.074
58618W        W27023   1.389  36.055  11.442
58619W        W27024  33.939   9.994   0.719
58620W        W27025  44.328  22.316   0.387
58621W        W27026  10.874  17.754  12.645
58622W        W27027  44.231  14.893   4.606
58623W        W27028  40.292  29.935  11.165
58624W        W27029  41.914  42.471  14.877
58625W        W27030  13.398  13.311  13.229
58626W        W27031  10.654   3.798  14.112
58627W        W27032  21.797  13.454  14.499
58628W        W27033  18.740   0.720  14.441
58629W        W27034  25.497  34.816   1.727
58630W        W27035  15.371   6.529   1.367
58631W        W27036  15.416  35.100   5.040
58632W        W27037  42.282  17.236   0.308
58633W        W27038  22.907   8.516   5.227
58634W        W27039  24.632  11.241   0.582
58635W        W27040  41.872  29.378  13.058
58636W        W27041  29.178  30.946   1.191
58637W        W27042  13.829  26.632   0.073
58638W        W27043  24.133  14.382   2.144
58639W        W27044  17.641   9.851   4.131
58640W        W27045   0.264  42.822  11.995
58641W        W27046  44.462   1.231  10.468
58642W        W27047  41.645  25.634   3.059
58643W        W27048   3.266  23.083  14.519
58644W        W27049   4.594   1.778  11.200
58645W        W27050  17.539  27.708  13.453
58646W        W27051  25.628  25.508  13.604
58647W        W27052   1.794  32.418  14.471
58648W        W27053  12.839  41.547  11.973
58649W        W27054  31.545  39.071  11.519
58650W        W27055  37.265  40.139  11.459
58651W        W27056   9.138  14.205   3.634
58652W        W27057  24.033  26.403   5.025
58653W        W27058  19.170   6.622  10.263
58654W        W27059   4.997  20.907  10.176
58655W        W27060  30.095  18.264  10.851
58656W        W27061   0.937  28.982   3.326
58657W        W27062  28.108  42.511  10.250
58658W        W27063   9.698  18.047   0.097
58659W        W27064   4.826  43.348  13.114
58660W        W27065  24.459  43.236  10.665
58661W        W27066   7.465  35.037  12.655
58662W        W27067   1.831  34.674  13.480
58663W        W27068  18.483  36.349   3.205
58664W        W27069  38.034  39.456   1.239
58665W        W27070  31.567  19.277   1.445
58666W        W27071  32.550   4.922   3.237
58667W        W27072  19.187  16.214   1.186
58668W        W27073  36.438  15.905  14.456
58669W        W27074  28.906  27.471   1.424
58670W        W27075  27.664  37.680   4.445
58671W        W27076  27.105  34.556   0.453
58672W        W27077  11.835  14.584   4.602
58673W        W27078  24.619  28.184   1.662
58674W        W27079  25.482  18.322   3.269
58675W        W27080  16.197  19.297   4.567
58676W        W27081   9.867  10.596  12.022
58677W        W27082  38.456  21.490   4.477
58678W        W27083  23.544  29.860  12.945
58679W        W27084   6.623  14.690  11.963
58680W        W27085  10.719  35.995  11.859
58681W        W27086   9.273  25.272   2.857
58682W        W27087  36.012  10.719   3.021
58683W        W27088  30.559   4.897  12.003
58684W        W27089   1.152  32.677   0.138
58685W        W27090  39.584   2.283  13.799
58686W        W27091  30.390   8.873  10.613
58687W        W27092  23.608  27.146   1.798
58688W        W27093  38.531  33.146   0.777
58689W        W27094  15.056  19.931   2.848
58690W        W27095  33.816  32.461   1.959
58691W        W27096  13.868  38.769  13.086
58692W        W27097  15.811  25.144   1.860
58693W        W27098  14.299   1.169  12.016
58694W        W27099  34.333  41.893  11.119
58695W        W27100   9.823  38.401  13.134
58696W        W27101  43.468   6.188   4.145
58697W        W27102  20.585  13.875   3.089
58698W        W27103   3.849  40.346  13.106
58699W        W27104  44.300   7.932   2.480
58700W        W27105  29.963  28.057   1.929
58701W        W27106  21.428  25.400  11.488
58702W        W27107  29.641  38.431  11.438
58703W        W27108   7.381  19.833  13.907
58704W        W27109  27.908  18.491  12.870
58705W        W27110  20.759  34.589   3.925
58706W        W27111  11.242  24.621  12.959
58707W        W27112  21.274  16.321   2.694
58708W        W27113  37.658   9.571  10.750
58709W        W27114  41.907  40.635  10.360
58710W        W27115  36.122  26.371   4.423
58711W        W27116  13.818  28.366  12.580
58712W        W27117  19.974   7.969  13.557
58713W        W27118  39.403  20.161   4.397
58714W        W27119  28.143  27.711  14.473
58715W        W27120  16.543  10.133   1.774
58716W        W27121   6.971  15.319  12.436
58717W        W27122  42.616  41.097   1.829
58718W        W27123  16.494  34.792  13.942
58719W        W27124  43.674   0.406   0.186
58720W        W27125  28.659  35.474  10.882
58721W        W27126  13.173   6.918   4.608
58722W        W27127  41.547   3.187   4.534
58723W        W27128  43.887  41.064  12.029
58724W        W27129   6.943   0.057  11.180
58725W        W27130   5.313   1.126  12.924
58726W        W27131  27.510  19.003   4.244
58727W        W27132  17.757  18.656   1.889
58728W        W27133   7.131   2.321   3.973
58729W        W27134  19.679  44.733  14.714
58730W        W27135  43.278  43.392   1.426
58731W        W27136  39.622  10.571   3.671
58732W        W27137  36.533  37.542   4.163
58733W        W27138   6.309  35.628   1.697
58734W        W27139  40.906   9.593  11.771
58735W        W27140   5.395  42.738   2.359
58736W        W27141   1.460  18.528   3.023
58737W        W27142  17.707  11.640   2.844
58738W        W27143  40.711  20.443   2.687
58739W        W27144  34.803  20.051   1.270
58740W        W27145  20.565  14.837   3.193
58741W        W27146  39.331  20.123   3.890
58742W        W27147  25.098  35.526   3.922
58743W        W27148  19.479   5.703   0.117
58744W        W27149   8.877  33.893   0.527
58745W        W27150  44.829   2.123   2.569
58746W        W27151  41.901  17.718   3.747
58747W        W27152  39.883  33.200  14.270
58748W        W27153  37.714  42.403  11.348
58749W        W27154  27.939  32.791   3.213
58750W        W27155   7.437  25.205  12.054
58751W        W27156  10.273  41.495   4.160
58752W        W27157  38.941  14.660  11.602
58753W        W27158  41.530  43.851   2.417
58754W        W27159  35.969  44.289   0.410
58755W        W27160  23.648  13.043  13.442
58756W        W27161   6.165  12.659  14.016
58757W        W27162  21.558  23.691   5.001
58758W        W27163  34.677   0.389   2.000
58759W        W27164  28.513  10.088  10.084
58760W        W27165  39.444  12.487  11.456
58761W        W27166   6.970   3.410   0.942
58762W        W27167  31.819  33.735   4.207
58763W        W27168   7.906  24.200   3.099
58764W        W27169  16.464  31.114   0.777
58765W        W27170  17.231  20.659   0.744
58766W        W27171  15.552   3.575   0.419
58767W        W27172  22.689  27.610   3.426
58768W        W27173  19.096  21.427  13.082
58769W        W27174  10.437  27.286   4.969
58770W        W27175  26.366  24.544  11.063
58771W        W27176  25.054  40.798  12.992
58772W        W27177   1.939  34.397  12.537
58773W        W27178  33.638  17.111  11.110
58774W        W27179   8.713  21.462  13.400
58775W        W27180  38.032  19.338  14.821
58776W        W27181  19.676   7.705  14.571
58777W        W27182  18.814   3.889  11.090
58778W        W27183  40.808   0.347  13.440
58779W        W27184  37.815  31.462  13.045
58780W        W27185  34.547  35.399  11.921
58781W        W27186  15.967  19.356   3.698
58782W        W27187  23.261   9.576  12.531
58783W        W27188   4.722  38.102  12.371
58784W        W27189  22.164  19.083  13.953
58785W        W27190  23.245  20.171  11.967
58786W        W27191  20.801   6.450   3.158
58787W        W27192  34.520  21.707  13.477
58788W        W27193   6.916   8.655  13.396
58789W        W27194  34.627   9.300   2.240
58790W        W27195  34.819  10.440   1.821
58791W        W27196  24.854  12.293  13.999
58792W        W27197  11.299  13.237   0.338
58793W        W27198   5.329  26.310  14.013
58794W        W27199  37.608  13.328  14.832
58795W        W27200  33.992  12.069  13.434
58796W        W27201  40.605   4.749   3.234
58797W        W27202  24.690  24.651   4.146
58798W        W27203  26.173  36.991  11.205
58799W        W27204  15.579  34.138   1.722
58800W        W27205  20.065  25.084   0.360
58801W        W27206  11.548  37.943  12.079
58802W        W27207  26.846  35.794   4.864
58803W        W27208  19.246  13.327   4.163
58804W        W27209  40.418  23.557   2.321
58805W        W27210  44.714  44.939  14.504
58806W        W27211   6.947  19.845   2.272
58807W        W27212  44.406  10.404   2.317
58808W        W27213  29.846  37.941  11.570
58809W        W27214   9.057   4.936  13.370
58810W        W27215  41.893  22.242   3.810
58811W        W27216  10.532   6.016   2.782
58812W        W27217  37.544  17.560   1.222
58813W        W27218  12.565  22.606   1.908
58814W        W27219   7.205   5.089  11.597
58815W        W27220   0.904  28.573  11.948
58816W        W27221  20.033  36.854  10.680
58817W        W27222  30.188  27.984   3.302
58818W        W27223   6.869  27.480  12.493
58819W        W27224  32.218  24.638   3.994
58820W        W27225  21.695  14.967  13.405
58821W        W27226  25.754   4.392  11.923
58822W        W27227  27.424   2.883   4.964
58823W        W27228  35.403  15.574   1.718
58824W        W27229  18.377  28.173   3.525
58825W        W27230  13.144  35.507  12.474
58826W        W27231   7.637   4.642  13.481
58827W        W27232   1.954  17.965  10.584
58828W        W27233  29.149  19.004   1.805
58829W        W27234  14.549   2.921  12.955
58830W        W27235  20.278  32.026   2.618
58831W        W27236   5.439   7.212   2.274
58832W        W27237  10.878   9.672  11.532
58833W        W27238  28.425  44.232   3.350
58834W        W27239  25.654  23.287   4.105
58835W        W27240  10.292  35.560  10.533
58836W        W27241  16.572  38.361   3.556
58837W        W27242  15.716  36.989  13.055
58838W        W27243  37.338   9.407  11.109
58839W        W27244  39.036  27.496   2.349
58840W        W27245  25.013   0.154  11.329
58841W        W27246  11.954   9.398  11.955
58842W        W27247  38.891   6.104  10.286
58843W        W27248  26.064  35.530   2.939
58844W        W27249   9.686  18.446  12.306
58845W        W27250  31.362  19.300  13.415
58846W        W27251   1.831  21.687  14.722
58847W        W27252  15.872  26.880   1.243
58848W        W27253  40.455   2.327  14.108
58849W        W27254  38.624  25.447   2.411
58850W        W27255  30.259   4.830   0.415
58851W        W27256  43.106  11.718   1.947
58852W        W27257  31.889  34.532   1.352
58853W        W27258  18.867   7.032   1.421
58854W        W27259  26.045   4.004   2.761
58855W        W27260  21.810  28.956   4.192
58856W        W27261  20.277  25.978   1.095
58857W        W27262  44.406  36.050   3.437
58858W        W27263   0.890  21.645   4.785
58859W        W27264  22.286  16.362   1.161
58860W        W27265   4.399  22.805  14.800
58861W        W27266  26.000  17.703  13.499
58862W        W27267  12.009  30.856   1.138
58863W        W27268   9.857  11.372  12.453
58864W        W27269  32.420  43.293  12.635
58865W        W27270  15.038  14.119   3.101
58866W        W27271  21.769  43.742   4.875
58867W        W27272  17.348  17.734  12.380
58868W        W27273  13.524  33.587  12.891
58869W        W27274  11.179  19.723  12.933
58870W        W27275   6.792   9.143   4.810
58871W        W27276   3.286  44.284   2.617
58872W        W27277  33.476  27.190  10.576
58873W        W27278   1.706   5.312   1.618
58874W        W27279  11.402  38.775   4.179
58875W        W27280  37.237  24.060   4.586
58876W        W27281  20.916  42.856  11.249
58877W        W27282  42.065  23.976   4.622
58878W        W27283  44.953  34.739  12.868
58879W        W27284  42.905  11.253   3.931
58880W        W27285  37.963  22.062   1.895
58881W        W27286  21.752  23.144  12.932
58882W        W27287  17.212  26.482   0.946
58883W        W27288  10.157  36.490   2.336
58884W        W27289  21.294  41.009   1.462
58885W        W27290  21.545  34.975  12.032
58886W        W27291  28.615  32.436   2.501
58887W        W27292  14.909  34.026   0.024
58888W        W27293  38.159  25.462  14.993
58889W        W27294  26.621  27.564   2.236
58890W        W27295  42.741  18.132  12.448
58891W        W27296  17.821  36.180  12.263
58892W        W27297  30.644   0.361  11.152
58893W        W27298  15.641  38.429   3.284
58894W        W27299  20.637   9.634  11.961
58895W        W27300  24.641  43.010  12.101
58896W        W27301   3.906  24.218   3.880
58897W        W27302  42.963  26.477  11.107
58898W        W27303  13.814  30.051   2.316
58899W        W27304   7.504   2.689  10.926
58900W        W27305   2.491  40.449  13.790
58901W        W27306  28.728  11.129   3.637
58902W        W27307  41.596  26.974  10.637
58903W        W27308   8.446   3.995  13.275
58904W        W27309  13.745  20.245  12.714
58905W        W27310  10.781  28.640   2.748
58906W        W27311   9.400  28.988  13.861
58907W        W27312   1.841  24.490   3.758
58908W        W27313  42.114  23.626   3.195
58909W        W27314  43.490  10.924  12.477
58910W        W27315  37.073  17.170   1.901
58911W        W27316  13.427  40.330   0.555
58912W        W27317  30.579   3.061   3.641
58913W        W27318   5.504  12.484  10.495
58914W        W27319   3.926  23.194   1.861
58915W        W27320   7.319  29.059   0.871
58916W        W27321  34.616  28.658  12.585
58917W        W27322  13.850  19.311  11.121
58918W        W27323  40.918  15.583   2.362
58919W        W27324  30.531   8.372  11.164
58920W        W27325  27.693   1.716   1.854
58921W        W27326  40.876  12.648   3.837
58922W        W27327  20.449  42.304  14.291
58923W        W27328  17.728  43.764  13.025
58924W        W27329  40.724  12.906  11.999
58925W        W27330  13.606  17.290  10.988
58926W        W27331  42.330  40.567   2.736
58927W        W27332  40.015  28.129  12.718
58928W        W27333  35.559  19.033   2.403
58929W        W27334  14.322  10.837  14.054
58930W        W27335  19.553   9.610   2.687
58931W        W27336  15.737   2.688   2.891
58932W        W27337  42.493  31.680   1.980
58933W        W27338  15.671  19.119   0.386
58934W        W27339   4.768  11.227   4.831
58935W        W27340  14.553  24.163   4.331
58936W        W27341  24.223  32.848  10.656
58937W        W27342  26.134  36.005   3.164
58938W        W27343  19.801  13.041   2.597
58939W        W27344   4.483  36.025   4.594
58940W        W27345   1.749  13.282  10.444
58941W        W27346  10.901  36.183   0.833
58942W        W27347  38.917  31.990  13.014
58943W        W27348  41.706  22.207  14.163
58944W        W27349  22.537  19.509  10.758
58945W        W27350  11.435  21.573   3.786
58946W        W27351  36.879  27.089   3.959
58947W        W27352  17.017  25.058   2.524
58948W        W27353  10.093   1.673  11.271
58949W        W27354  13.659  26.792  11.206
58950W        W27355  36.302  44.289   0.792
58951W        W27356  35.281  23.666  13.308
58952W        W27357  10.568  25.621   3.834
58953W        W27358  24.765  32.088  11.997
58954W        W27359  26.940  21.010   4.545
58955W        W27360   0.021   1.000   1.871
58956W        W27361  39.053  38.076  11.130
58957W        W27362  35.310  19.462  12.302
58958W        W27363  25.054  29.453  13.367
58959W        W27364  18.731  29.716  11.726
58960W        W27365  40.970   3.595  14.258
58961W        W27366   2.719  16.827   4.165
58962W        W27367  28.019  44.914  12.766
58963W        W27368  34.525  19.878   4.593
58964W        W27369  34.680   3.962  10.802
58965W        W27370  33.513  16.082   2.271
58966W        W27371  39.916  36.350   0.739
58967W        W27372  14.915  13.238   1.703
58968W        W27373  30.093   5.131   3.159
58969W        W27374  31.387  10.396  11.499
58970W        W27375  39.032  20.299  14.274
58971W        W27376  29.207   2.492   1.875
58972W        W27377  15.578  30.556  14.020
58973W        W27378   1.245  21.816   3.261
58974W        W27379  21.841   7.628   4.221
58975W        W27380  23.604  21.580  12.624
58976W        W27381  37.156  11.354  11.415
58977W        W27382  28.050  31.554  13.391
58978W        W27383  31.410  17.747  11.459
58979W        W27384  31.070  37.382  11.557
58980W        W27385  22.685  40.355   2.774
58981W        W27386  36.358  30.714  10.289
58982W        W27387  18.284  25.178  11.587
58983W        W27388  26.650  28.502  10.596
58984W        W27389  36.435   3.498   1.503
58985W        W27390  38.504   2.703   0.774
58986W        W27391   4.476   7.502  13.063
58987W        W27392  22.169  30.807  12.441
58988W        W27393   8.822  34.447   4.735
58989W        W27394   6.444  36.180   0.839
58990W        W27395  16.517   2.197  13.565
58991W        W27396   5.074  34.367  14.444
58992W        W27397  31.053  33.432   0.485
58993W        W27398  22.336  40.893   4.980
58994W        W27399  12.968  27.408  11.059
58995W        W27400   5.203   8.697   1.705
58996W        W27401  41.210  36.981  14.688
58997W        W27402   4.969  25.514  14.018
58998W        W27403  31.317  21.970   3.215
58999W        W27404  42.435  40.054   0.864
59000W        W27405  25.610   9.644   4.400
59001W        W27406  39.594  24.766  11.628
59002W        W27407   6.277   9.244  12.620
59003W        W27408   3.482  22.222  11.584
59004W        W27409  21.330  12.943   4.573
59005W        W27410  33.264  34.079  11.538
59006W        W27411  35.576   8.537   2.869
59007W        W27412   5.729  31.595   2.435
59008W        W27413   1.778  24.772  11.317
59009W        W27414  25.445  24.067   0.806
59010W        W27415  25.651  28.924  13.416
59011W        W27416  32.056  17.773   2.139
59012W        W27417  15.081  39.358   1.404
59013W        W27418  12.297  23.668  12.132
59014W        W27419  12.358  30.246  14.739
59015W        W27420   7.289  19.301  13.919
59016W        W27421  44.883  35.477   4.028
59017W        W27422  32.642  34.566   2.957
59018W        W27423  16.815   8.680  13.151
59019W        W27424  13.357  36.793  13.357
59020W        W27425  36.965  15.057   2.630
59021W        W27426  29.037  13.592   1.269
59022W        W27427  18.017  14.394   5.070
59023W        W27428   2.887  34.918  12.560
59024W        W27429  39.918   3.685   3.633
59025W        W27430  14.114  17.236   0.521
59026W        W27431  37.442  27.662   1.493
59027W        W27432  15.790  18.657  14.194
59028W        W27433   1.977   5.016   3.841
59029W        W27434  12.372  28.662   4.623
59030W        W27435  33.522  29.178  13.216
59031W        W27436  44.814  34.694   3.335
59032W        W27437  37.307   3.513  10.034
59033W        W27438  33.909  25.111  12.843
59034W        W27439  32.695  36.856   3.348
59035W        W27440   2.029  13.825   4.413
59036W        W27441  41.956  42.491  12.972
59037W        W27442  10.137  34.495  14.848
59038W        W27443  20.755  22.165   4.079
59039W        W27444  15.787  41.570  14.934
59040W        W27445   4.567  14.618   0.788
59041W        W27446  27.426  25.000   3.659
59042W        W27447  25.283  11.083  10.592
59043W        W27448  22.749   7.427   1.796
59044W        W27449  34.899  15.382  11.872
59045W        W27450   0.173  18.154   0.011
59046W        W27451  35.290  17.211  14.369
59047W        W27452  43.502  10.544  13.488
59048W        W27453  39.354  44.844  13.293
59049W        W27454   6.090  19.624   0.494
59050W        W27455  19.771   8.932  10.140
59051W        W27456  21.793  10.051  11.183
59052W        W27457  40.054  32.425  14.090
59053W        W27458   1.627  38.928  14.851
59054W        W27459  36.917   2.793  13.969
59055W        W27460  23.008  20.722  12.836
59056W        W27461  13.321  25.704   4.580
59057W        W27462  21.261  11.557   1.886
59058W        W27463  12.019  26.725   4.101
59059W        W27464  38.500  30.628   3.832
59060W        W27465   9.754  28.935  12.090
59061W        W27466  29.562  10.217   0.861
59062W        W27467  38.915   4.227   0.305
59063W        W27468  15.357  17.797   0.333
59064W        W27469  22.918  28.478   4.704
59065W        W27470  39.115  19.677   3.727
59066W        W27471  29.866   0.808  11.646
59067W        W27472  22.236  41.972  14.880
59068W        W27473  15.561  39.064  11.507
59069W        W27474   7.186  27.958   1.481
59070W        W27475   0.685  37.793  12.072
59071W        W27476   6.192   1.794   2.385
59072W        W27477  11.390  14.652  12.316
59073W        W27478  10.794  33.735   2.154
59074W        W27479  36.326  27.888   3.294
59075W        W27480  40.385  19.788   5.273
59076W        W27481   4.777  27.136   2.725
59077W        W27482  19.800   2.667   4.836
59078W        W27483   3.240  24.099   4.549
59079W        W27484  10.055   7.162   0.261
59080W        W27485  37.642  29.686  12.361
59081W        W27486  27.719  38.187  14.460
59082W        W27487  34.980  30.882  10.691
59083W        W27488  38.013   8.479  11.879
59084W        W27489  11.456  11.314  14.258
59085W        W27490  15.530  29.289  14.981
59086W        W27491   8.389  11.402  10.480
59087W        W27492  27.691   7.930  14.327
59088W        W27493  31.961   2.362  13.333
59089W        W27494  25.478  33.247  14.505
59090W        W27495  30.493  31.377   2.617
59091W        W27496  37.535  35.266  14.330
59092W        W27497   2.957  10.090  12.803
59093W        W27498  27.292  29.142  11.299
59094W        W27499  17.502  41.691   3.551
59095W        W27500  12.148   3.489  10.659
59096W        W27501   5.247   2.008  10.535
59097W        W27502  31.554  21.294   1.386
59098W        W27503   2.985  22.449  13.842
59099W        W27504  41.782  36.432   1.731
59100W        W27505  18.227  14.142   1.376
59101W        W27506  17.487  24.954  12.755
59102W        W27507  14.279  39.139  10.436
59103W        W27508  15.955   9.079   9.766
59104W        W27509  23.971  17.718  10.984
59105W        W27510  41.354   2.227   0.976
59106W        W27511  27.003  20.091  13.057
59107W        W27512  20.267   8.777  13.903
59108W        W27513  38.636   7.845   1.367
59109W        W27514  13.608  42.052  11.157
59110W        W27515  41.340  11.088  13.914
59111W        W27516  28.609  37.846   3.832
59112W        W27517   1.822   0.439  11.511
59113W        W27518   7.152  35.477  11.597
59114W        W27519  10.907  35.035  10.985
59115W        W27520  23.014  25.575  10.648
59116W        W27521  28.441   8.273   0.004
59117W        W27522   2.418  41.122   2.174
59118W        W27523  21.456  27.872   2.262
59119W        W27524  14.248  16.376  10.745
59120W        W27525  23.191  44.478  12.975
59121W        W27526  42.719  39.645   0.455
59122W        W27527  42.429  41.990  12.606
59123W        W27528  38.998  17.094   3.335
59124W        W27529  18.563  22.254   0.795
59125W        W27530  23.087  43.786  14.256
59126W        W27531  22.185  14.731   3.673
59127W        W27532  13.238  16.101   2.217
59128W        W27533   1.021  36.485  13.934
59129W        W27534   0.766  32.924   1.014
59130W        W27535   2.261  24.341  13.515
59131W        W27536  24.162  27.020   0.375
59132W        W27537  28.285  15.971   4.964
59133W        W27538   6.254  23.066   1.236
59134W        W27539   7.610  37.036  11.140
59135W        W27540   8.278  19.648   1.870
59136W        W27541   2.937   2.180   1.828
59137W        W27542  25.031  10.920   3.208
59138W        W27543  39.383  20.568  13.960
59139W        W27544   2.880  29.945  12.166
59140W        W27545  15.719  34.724   0.088
59141W        W27546  15.248  16.993   3.614
59142W        W27547   7.014  19.961   3.598
59143W        W27548  10.945   9.162  11.653
59144W        W27549  36.508  12.801   3.616
59145W        W27550  21.046  36.078  14.075
59146W        W27551  12.192   7.386   4.342
59147W        W27552  23.406   5.099   2.443
59148W        W27553  12.627  17.236  11.065
59149W        W27554  20.436  40.811  11.959
59150W        W27555   6.405  43.766  10.638
59151W        W27556  44.559  31.320  14.496
59152W        W27557  19.681  29.656  12.887
59153W        W27558   9.465  10.827  14.372
59154W        W27559  41.330  32.925  10.660
59155W        W27560  25.917  32.538   2.590
59156W        W27561  39.472   3.569  14.243
59157W        W27562  31.892   1.425   4.086
59158W        W27563   7.312   7.789  13.549
59159W        W27564   3.835  38.407  11.475
59160W        W27565   7.756   4.329  14.439
59161W        W27566  23.165  13.828   1.683
59162W        W27567  19.183  15.710   0.972
59163W        W27568   6.957  32.030  14.991
59164W        W27569  32.642   6.336  13.512
59165W        W27570  31.622  44.245   4.185
59166W        W27571   4.068  13.926  14.044
59167W        W27572  21.563  42.025  11.185
59168W        W27573  13.389  37.270   1.340
59169W        W27574   2.775  24.163  12.004
59170W        W27575  14.308  43.260   0.016
59171W        W27576  10.814  19.165   1.868
59172W        W27577  22.384  41.219  13.871
59173W        W27578   6.621  20.189  10.643
59174W        W27579  34.355   1.513   4.268
59175W        W27580  16.969  24.170  12.510
59176W        W27581  14.867  17.280  10.325
59177W        W27582  43.399   3.498  11.662
59178W        W27583  24.858  12.079  14.497
59179W        W27584  17.160  39.057   5.131
59180W        W27585  42.324  38.906   2.961
59181W        W27586  43.336  36.601  13.251
59182W        W27587   5.384  16.939   1.472
59183W        W27588  32.691  40.866   0.901
59184W        W27589  38.795  38.559   2.805
59185W        W27590  12.212   5.450  12.212
59186W        W27591  37.118  21.697   2.746
59187W        W27592   5.470   6.316   3.256
59188W        W27593   9.215  32.773   3.643
59189W        W27594  44.919   1.236  11.633
59190W        W27595   9.883  38.973   2.881
59191W        W27596  22.515  16.958   4.656
59192W        W27597  38.850  43.201   1.715
59193W        W27598  12.378  38.236   0.090
59194W        W27599  27.480   8.762  11.085
59195W        W27600   5.948  41.557  14.744
59196W        W27601  20.986  26.945  10.353
59197W        W27602   4.019  32.557  14.833
59198W        W27603  13.783   4.206  11.112
59199W        W27604  24.592   3.879  14.018
59200W        W27605  43.780  38.064  10.924
59201W        W27606  20.558  28.901   4.768
59202W        W27607  26.981   2.603  14.929
59203W        W27608  21.904  39.133  12.668
59204W        W27609  13.618  22.944  11.996
59205W        W27610   3.178  42.055  12.664
59206W        W27611  19.106  30.422  13.888
59207W        W27612  18.991  24.570   2.345
59208W        W27613   7.461  31.031   0.787
59209W        W27614   8.368  24.727  12.387
59210W        W27615  41.048  28.097   3.620
59211W        W27616  43.006  38.402  10.997
59212W        W27617   8.660   8.892  13.946
59213W        W27618  38.878  14.717  12.970
59214W        W27619  17.677  43.503   2.898
59215W        W27620  33.984  25.744   1.718
59216W        W27621   8.327  31.067   0.049
59217W        W27622  10.055  31.414   4.978
59218W        W27623  15.822  38.055  12.356
59219W        W27624  12.724   2.034   4.166
59220W        W27625  17.284  31.629   0.942
59221W        W27626  24.033   0.383  14.452
59222W        W27627  14.648  32.027   3.322
59223W        W27628  33.883  44.743  14.433
59224W        W27629   5.117  26.689  11.956
59225W        W27630  36.706  36.526  11.649
59226W        W27631   3.468  12.032  10.190
59227W        W27632  22.252  44.175  13.847
59228W        W27633   8.906  24.643   1.860
59229W        W27634  20.185  36.394  12.621
59230W        W27635   3.707  15.203  14.821
59231W        W27636  17.005   8.416  13.573
59232W        W27637  19.264  22.988  13.848
59233W        W27638  25.994  19.077   1.140
59234W        W27639   4.623  16.653  12.045
59235W        W27640  24.742   7.713  11.058
59236W        W27641  15.022   6.941   1.412
59237W        W27642  21.593  13.616   0.013
59238W        W27643   9.224  10.584  11.295
59239W        W27644  33.912  28.925  12.066
59240W        W27645  32.046  38.259   4.699
59241W        W27646   2.542  39.639   3.583
59242W        W27647  13.054  17.177  12.374
59243W        W27648  13.794  15.348   0.708
59244W        W27649  29.090  22.775   0.490
59245W        W27650  16.209   0.383  13.291
59246W        W27651  17.838  34.660  11.977
59247W        W27652  38.782  33.587  12.524
59248W        W27653  12.177  12.100   3.716
59249W        W27654  15.793   8.868   0.915
59250W        W27655  25.631   4.978   0.693
59251W        W27656  20.496  12.790  14.018
59252W        W27657  23.665  25.014  10.653
59253W        W27658  44.749  21.076   3.541
59254W        W27659   7.701  13.238  14.444
59255W        W27660  34.502  18.677  12.400
59256W        W27661   3.736  42.823  10.620
59257W        W27662  40.839  11.275  12.345
59258W        W27663  21.268  12.264   1.391
59259W        W27664  20.613  37.934  11.099
59260W        W27665  21.401  19.774  14.487
59261W        W27666  21.626  11.197   1.137
59262W        W27667  38.133   4.209   0.257
59263W        W27668  25.582  36.291   3.838
59264W        W27669  32.396  44.950  12.483
59265W        W27670  36.536  43.282  12.436
59266W        W27671   7.539  36.113  14.827
59267W        W27672  32.758   4.619  12.900
59268W        W27673  23.275  15.623   4.601
59269W        W27674  41.111  10.834  11.053
59270W        W27675  26.314  33.070   3.668
59271W        W27676  20.541  13.195   1.864
59272W        W27677  41.672  42.578  12.552
59273W        W27678  37.904  24.158   0.460
59274W        W27679  26.700  24.575   3.831
59275W        W27680  21.794   1.803   4.552
59276W        W27681  27.992   1.897  11.110
59277W        W27682  39.478  16.312   2.769
59278W        W27683  25.513  40.538  11.268
59279W        W27684  21.143   1.439   3.831
59280W        W27685  29.967   1.119   4.080
59281W        W27686  21.016  22.103  13.779
59282W        W27687   2.815  17.204   0.876
59283W        W27688   2.855  41.086  10.725
59284W        W27689   2.978  30.585   1.365
59285W        W27690  17.380  18.226   3.711
59286W        W27691  32.931  42.079  11.194
59287W        W27692   9.195  19.197  14.920
59288W        W27693  22.935  41.370   4.343
59289W        W27694  20.181   6.940  11.551
59290W        W27695  42.973  24.576   0.088
59291W        W27696   4.426   7.164   4.586
59292W        W27697  17.955  34.437   4.245
59293W        W27698  34.337  16.071   1.328
59294W        W27699  21.262  20.187  11.549
59295W        W27700  38.973   5.424   1.255
59296W        W27701  16.125  25.411  14.361
59297W        W27702  10.297  13.758  10.618
59298W        W27703  23.224  37.455  10.521
59299W        W27704  30.303  32.669  10.801
59300W        W27705  40.376  37.501  10.445
59301W        W27706  42.582  15.615   3.432
59302W        W27707   7.898  30.655   1.857
59303W        W27708   0.328  41.730   0.638
59304W        W27709  18.092  44.283  11.757
59305W        W27710  24.540  18.580  12.527
59306W        W27711  28.258  38.308  13.308
59307W        W27712  13.483   5.929  11.552
59308W        W27713  28.118   1.881   0.027
59309W        W27714  11.300   1.265   9.949
59310W        W27715   3.665  35.028   4.060
59311W        W27716  36.512  27.659  11.258
59312W        W27717  30.038  31.616   2.677
59313W        W27718   4.172  12.006  10.740
59314W        W27719  42.582  36.426  12.808
59315W        W27720   4.974   0.853  14.302
59316W        W27721   1.379   7.917  13.529
59317W        W27722   6.860  25.178  13.989
59318W        W27723  33.846   3.327  10.336
59319W        W27724   7.330  10.491  14.775
59320W        W27725  16.799   2.742   1.398
59321W        W27726  25.106  39.995   3.176
59322W        W27727   1.513  36.893  13.247
59323W        W27728  35.002  16.354  11.063
59324W        W27729  37.725  12.065  13.983
59325W        W27730   5.841   2.761  12.027
59326W        W27731  11.077  25.219  12.108
59327W        W27732   4.611  28.669  10.583
59328W        W27733   2.511  42.693   3.209
59329W        W27734   3.055  39.753   0.873
59330W        W27735  33.952  37.442  11.650
59331W        W27736   7.177   9.159  13.390
59332W        W27737  13.725  43.976  12.392
59333W        W27738   9.187  25.716   4.191
59334W        W27739  13.614   6.519   1.717
59335W        W27740  41.285  23.083   1.091
59336W        W27741  28.631  31.715   4.580
59337W        W27742  24.518  12.551  11.996
59338W        W27743  30.526  32.614   5.121
59339W        W27744   1.459   7.075   2.238
59340W        W27745  14.991  19.648  12.558
59341W        W27746  43.550   6.750   3.626
59342W        W27747   8.915  35.999  11.090
59343W        W27748  37.028  36.325   2.217
59344W        W27749  43.966   4.274   3.286
59345W        W27750  21.534  37.563  11.146
59346W        W27751   5.713  36.188  11.455
59347W        W27752  38.791  10.189   1.368
59348W        W27753  27.213   1.865  12.012
59349W        W27754  37.178  37.860   2.079
59350W        W27755   5.264   1.911  13.531
59351W        W27756   0.327  29.145  14.454
59352W        W27757  32.917  33.663  11.105
59353W        W27758   6.664   9.477   3.276
59354W        W27759  11.571  24.844  12.105
59355W        W27760   5.874  18.095   0.503
59356W        W27761  13.219   7.925   2.747
59357W        W27762  18.537  41.901   0.644
59358W        W27763   3.712  23.470   0.895
59359W        W27764  27.470  16.124  14.042
59360W        W27765  14.298  33.665  12.555
59361W        W27766  17.918  15.235   1.530
59362W        W27767  23.654  14.213  14.432
59363W        W27768  24.165  37.402   0.017
59364W        W27769  17.332  30.209  11.239
59365W        W27770  38.110  23.962   1.365
59366W        W27771  25.233   8.579   1.298
59367W        W27772  27.068  15.207  13.813
59368W        W27773  14.960   1.876   2.344
59369W        W27774  25.038  40.371   4.562
59370W        W27775   8.319   3.422   1.781
59371W        W27776  44.438  28.876   2.803
59372W        W27777  28.176  22.296   1.459
59373W        W27778   3.234  14.678   1.920
59374W        W27779  37.010   3.865   2.385
59375W        W27780  19.111   0.211  12.190
59376W        W27781   5.864  41.043  14.775
59377W        W27782  11.695  41.386  11.600
59378W        W27783  26.220  13.515   1.491
59379W        W27784  17.142  21.357   1.340
59380W        W27785   8.893  20.141   3.328
59381W        W27786  31.647  18.092  11.068
59382W        W27787   9.828  19.142  11.265
59383W        W27788  23.434   0.870  12.459
59384W        W27789  35.024  29.506   2.919
59385W        W27790   1.000  43.433   2.824
59386W        W27791  31.488  43.956  14.461
59387W        W27792  30.174  12.250  13.009
59388W        W27793  36.627  14.590  12.458
59389W        W27794  13.903  24.020  11.161
59390W        W27795   4.433  24.605  11.727
59391W        W27796   8.659  11.150   1.322
59392W        W27797  34.090  16.812  11.162
59393W        W27798  11.278   3.346   5.098
59394W        W27799   2.357  30.168   2.868
59395W        W27800  26.556  37.499  11.995
59396W        W27801  16.053   0.557   3.551
59397W        W27802  10.361  29.189   3.485
59398W        W27803  21.560  41.780   1.464
59399W        W27804   3.170  31.380   0.380
59400W        W27805  41.317   2.703   2.740
59401W        W27806  39.783  41.247   4.206
59402W        W27807  37.416  15.301   2.678
59403W        W27808  21.039  12.874   0.672
59404W        W27809  22.166   8.713   3.164
59405W        W27810  28.211  11.751   0.967
59406W        W27811  13.535  35.633   2.322
59407W        W27812   6.204  33.028  11.639
59408W        W27813  14.458  43.050  14.512
59409W        W27814   7.011  37.480   4.811
59410W        W27815  24.625  42.042  13.053
59411W        W27816  28.007  37.901  13.050
59412W        W27817   4.671  31.939   1.754
59413W        W27818  21.659  14.634  13.849
59414W        W27819   1.374   4.666   4.128
59415W        W27820  24.362  21.695  11.080
59416W        W27821  16.290   3.534  14.052
59417W        W27822  15.746  23.000   3.291
59418W        W27823  34.138  40.769   1.354
59419W        W27824   0.357  36.493   0.375
59420W        W27825  24.233  15.554  14.009
59421W        W27826  39.021   6.961   1.244
59422W        W27827  41.439  39.973  12.961
59423W        W27828  12.634   8.326  12.589
59424W        W27829  40.836  39.191   1.299
59425W        W27830   4.311  13.160  14.494
59426W        W27831  12.122   0.291  12.469
59427W        W27832  29.759  13.184   1.182
59428W        W27833  42.862   2.411  11.990
59429W        W27834  19.241  12.572   4.665
59430W        W27835  39.757  34.392  12.442
59431W        W27836  16.027   4.468  14.524
59432W        W27837  12.650   3.929  12.820
59433W        W27838  21.103  18.624   3.001
59434W        W27839  44.229  36.050  11.881
59435W        W27840  20.467  22.585  12.812
59436W        W27841  15.709  24.778  14.753
59437W        W27842  28.576  15.805   4.579
59438W        W27843  18.438  15.395  11.949
59439W        W27844  27.852   7.639  12.516
59440W        W27845  27.915  26.021   3.222
59441W        W27846  15.560  10.651  12.959
59442W        W27847  32.465  23.536  12.559
59443W        W27848   0.345  35.666   0.069
59444W        W27849  18.657  14.690   4.423
59445W        W27850  27.924  12.365   2.769
59446W        W27851  42.722  30.873   1.844
59447W        W27852  10.087  33.991   0.021
59448W        W27853  16.738   2.327   3.325
59449W        W27854   2.990   5.822   3.797
59450W        W27855   6.527   8.646  10.772
59451W        W27856  30.646  25.066  11.794
59452W        W27857  20.072  40.049   3.383
59453W        W27858  14.320  34.884   4.247
59454W        W27859  15.012   4.670   0.734
59455W        W27860  34.450   2.972   2.444
59456W        W27861  25.354  17.559   2.645
59457W        W27862   2.447  14.350  12.367
59458W        W27863  33.609  34.061  14.798
59459W        W27864  40.405  10.823  12.871
59460W        W27865   3.279  34.892  13.851
59461W        W27866  24.363  14.705   4.555
59462W        W27867  19.066  36.517   0.401
59463W        W27868   6.359  41.055   2.153
59464W        W27869  41.916  41.928   0.025
59465W        W27870  38.886  10.036  11.177
59466W        W27871   1.671   0.808  14.723
59467W        W27872  23.438  14.799  11.753
59468W        W27873   1.756   7.443   3.296
59469W        W27874  43.279   5.247   4.016
59470W        W27875  10.885  20.678   3.348
59471W        W27876   2.819  14.629   3.708
59472W        W27877   8.762  33.922  14.435
59473W        W27878   2.253  35.722   2.714
59474W        W27879  44.994  19.251  11.683
59475W        W27880  29.655   7.519  12.377
59476W        W27881  41.539   3.426  10.619
59477W        W27882  40.385  22.500   5.075
59478W        W27883  25.949  44.284   0.281
59479W        W27884   1.895  43.435  10.712
59480W        W27885  14.569   5.756   3.811
59481W        W27886  31.025   5.657  10.917
59482W        W27887  11.352  44.267  11.922
59483W        W27888  17.265  11.273  11.086
59484W        W27889  26.025  41.029  14.396
59485W        W27890  24.318  43.381   1.324
59486W        W27891  25.811  22.129  13.806
59487W        W27892  28.423   7.303  14.627
59488W        W27893  33.974  40.269   2.038
59489W        W27894  19.751   7.865   4.147
59490W        W27895  23.048  10.185   3.306
59491W        W27896  31.095  41.318  12.495
59492W        W27897  17.068  28.959  11.043
59493W        W27898   4.011  21.438   2.859
59494W        W27899  22.694  34.528   0.401
59495W        W27900   8.686  14.487   0.553
59496W        W27901   3.902   9.253   2.185
59497W        W27902  26.477  33.519  12.624
59498W        W27903  16.594  23.344  11.213
59499W        W27904  24.267   9.071   2.263
59500W        W27905  27.693   1.208   2.586
59501W        W27906  15.722   9.659  13.888
59502W        W27907  36.470   6.321  13.309
59503W        W27908   7.895  39.390  12.435
59504W        W27909  19.916  26.490   4.291
59505W        W27910  39.505   5.938   4.108
59506W        W27911  30.181  10.234   2.260
59507W        W27912  24.003  16.108   3.824
59508W        W27913  11.329  24.548   3.611
59509W        W27914  12.278  19.861  10.565
59510W        W27915  35.449  12.214  12.067
59511W        W27916   6.666   6.246  12.026
59512W        W27917  44.748  16.103  11.555
59513W        W27918   1.783  38.018   4.304
59514W        W27919   3.365   7.735   4.932
59515W        W27920  10.207  11.658  11.645
59516W        W27921  13.080  22.974  10.799
59517W        W27922   4.968   0.469   2.744
59518W        W27923  24.217  12.041  10.770
59519W        W27924   4.753  40.758   3.212
59520W        W27925  17.761  33.986   4.057
59521W        W27926   6.472  14.087  10.364
59522W        W27927   2.132  11.758   1.451
59523W        W27928  32.621  15.815  13.120
59524W        W27929  19.190  38.621   4.710
59525W        W27930  40.350  42.766  12.981
59526W        W27931  22.139  38.442   3.784
59527W        W27932   5.320  28.611   2.166
59528W        W27933   2.916  12.501  11.296
59529W        W27934   2.421  33.354  13.024
59530W        W27935  29.089   8.714  12.613
59531W        W27936   1.655   9.668   4.144
59532W        W27937   0.972  22.739  14.894
59533W        W27938  12.382  30.943  13.027
59534W        W27939  12.614  25.053  12.972
59535W        W27940  12.794   2.727  10.699
59536W        W27941  22.592   9.192   0.525
59537W        W27942  17.142  32.284   3.639
59538W        W27943  19.468   1.827   2.631
59539W        W27944  14.638  42.724   2.438
59540W        W27945  21.273  18.184   9.904
59541W        W27946  27.085  30.446  13.956
59542W        W27947  19.861  24.249   9.723
59543W        W27948  13.618  31.882  12.359
59544W        W27949  14.713  30.828  12.524
59545W        W27950  29.970   4.036  11.149
59546W        W27951   7.839  20.911  12.857
59547W        W27952  31.541  31.979   2.266
59548W        W27953   2.922   8.378  11.536
59549W        W27954  26.968  11.324  10.261
59550W        W27955  15.803  25.582  11.237
59551W        W27956   8.439   9.801  14.481
59552W        W27957  44.908  15.741  11.116
59553W        W27958  36.479   3.999  12.959
59554W        W27959  29.026   3.657  11.240
59555W        W27960  22.033  28.211  13.933
59556W        W27961  16.340  44.846   3.197
59557W        W27962  12.919  26.616  10.566
59558W        W27963  29.321   4.996   4.612
59559W        W27964   5.742   3.838   0.487
59560W        W27965  11.629  37.359   2.751
59561W        W27966  39.782   1.733   1.337
59562W        W27967   4.882  42.589   5.044
59563W        W27968   1.180  22.919   2.440
59564W        W27969   3.139  15.859   4.208
59565W        W27970  21.634  28.407   1.825
59566W        W27971  36.613  13.737   2.876
59567W        W27972  32.408   3.358  13.197
59568W        W27973  23.607  33.187  14.135
59569W        W27974  24.971  27.628  13.892
59570W        W27975   2.635  21.236  12.165
59571W        W27976  12.779  43.716   2.173
59572W        W27977  30.797  34.907   2.759
59573W        W27978  24.051  24.566   2.218
59574W        W27979  21.982  25.463  12.524
59575W        W27980  22.503  21.132  13.351
59576W        W27981  15.600   8.710   9.976
59577W        W27982  12.246  41.552  14.043
59578W        W27983  20.563  27.005   1.829
59579W        W27984  21.119  16.199   0.903
59580W        W27985  21.051  22.225   2.378
59581W        W27986  34.491   1.807  14.496
59582W        W27987  22.556  31.898  12.117
59583W        W27988  15.652  38.901   2.166
59584W        W27989  15.324  42.401   1.336
59585W        W27990  23.153  30.966   1.383
59586W        W27991  22.048   3.191   0.353
59587W        W27992  13.225   4.930   3.676
59588W        W27993  28.067  33.760  12.925
59589W        W27994   8.192   3.586  11.549
59590W        W27995  19.147  25.803  13.793
59591W        W27996  17.349   6.703  11.058
59592W        W27997   6.753   1.028   3.664
59593W        W27998   7.433  26.158  11.619
59594W        W27999  17.672   1.373   3.752
59595W        W28000  28.719  10.857  12.472
59596W        W28001  10.686  25.469   4.832
59597W        W28002  30.818  33.652   2.210
59598W        W28003  37.546  32.708   3.651
59599W        W28004  43.749   3.967  12.515
59600W        W28005  20.940  17.123  14.470
59601W        W28006  27.110  16.535   3.904
59602W        W28007  13.385  24.030  13.091
59603W        W28008  35.697  35.921  13.479
59604W        W28009  42.180  38.071  12.002
59605W        W28010  13.728  25.458   3.854
59606W        W28011   4.382  13.607  10.647
59607W        W28012  11.280  40.591  11.697
59608W        W28013  32.572  42.508   4.574
59609W        W28014  33.330  19.052   0.700
59610W        W28015  10.581   4.389   1.366
59611W        W28016  25.596  34.568  10.327
59612W        W28017  23.296   5.207  13.257
59613W        W28018  29.705  32.986   2.942
59614W        W28019  37.267   2.887   2.732
59615W        W28020   1.915   1.964   1.384
59616W        W28021  32.822   5.699   1.033
59617W        W28022   7.892  40.857  13.520
59618W        W28023  44.255  14.160  14.651
59619W        W28024   3.164  16.096  14.965
59620W        W28025  29.393  28.305   4.744
59621W        W28026  44.899  43.977  11.294
59622W        W28027  14.880  20.673   1.336
59623W        W28028  21.243  35.761   1.210
59624W        W28029   8.843  24.944  13.011
59625W        W28030   6.710  10.695  13.801
59626W        W28031   8.240  31.513   3.721
59627W        W28032  32.392  31.933   4.778
59628W        W28033  21.104   4.022   1.417
59629W        W28034  44.010   2.151   3.335
59630W        W28035   0.346   5.539  10.684
59631W        W28036  31.487  43.984  11.125
59632W        W28037   0.802   6.913   0.362
59633W        W28038  22.263  13.610  14.294
59634W        W28039  17.549  34.478  12.371
59635W        W28040  15.235  40.953  13.288
59636W        W28041  44.906  32.494   4.902
59637W        W28042  11.295  25.958  14.102
59638W        W28043  30.998  29.216   4.632
59639W        W28044  27.084   9.747  12.056
59640W        W28045  38.029  17.159   4.291
59641W        W28046  32.058  16.513  13.415
59642W        W28047  31.476  28.815  13.108
59643W        W28048  40.089  10.680   2.723
59644W        W28049   2.333  39.551   2.283
59645W        W28050   5.917  10.361   3.925
59646W        W28051   5.861  41.030  11.971
59647W        W28052  14.568   8.443   4.269
59648W        W28053  20.725  29.489   1.021
59649W        W28054  24.517  35.422   0.804
59650W        W28055  33.388   9.905   0.777
59651W        W28056  26.932  42.915   5.124
59652W        W28057  31.078  38.979   3.622
59653W        W28058   5.965  43.450   0.300
59654W        W28059  42.450   4.432  10.524
59655W        W28060   6.313  11.857   4.078
59656W        W28061  32.883  39.652  13.535
59657W        W28062   6.356  15.198  11.187
59658W        W28063   4.457  43.319  14.498
59659W        W28064  22.773  44.352  11.923
59660W        W28065  30.420  15.354   4.239
59661W        W28066  40.631  15.586  10.352
59662W        W28067  11.143   0.331  11.077
59663W        W28068   5.234  10.780  14.452
59664W        W28069   9.684  26.015   1.109
59665W        W28070  16.755  32.059  12.656
59666W        W28071  18.819  17.688  13.642
59667W        W28072  36.617   1.837   0.934
59668W        W28073  23.690  18.599   4.137
59669W        W28074  23.072   7.690  11.924
59670W        W28075   5.654  40.364   2.389
59671W        W28076  32.049   3.183  12.509
59672W        W28077  15.526   4.817   1.654
59673W        W28078  22.306  36.121  13.064
59674W        W28079  13.313  21.236  11.540
59675W        W28080   4.896  23.212  13.589
59676W        W28081   9.481   8.692  12.657
59677W        W28082  29.281  14.646   4.197
59678W        W28083  26.046  19.011   1.646
59679W        W28084  24.243  16.700  13.441
59680W        W28085   5.720   5.879  12.505
59681W        W28086  41.726   6.924  10.538
59682W        W28087  27.866  12.677  11.459
59683W        W28088   4.468  41.942  13.335
59684W        W28089  16.275  42.549  10.604
59685W        W28090  34.837  11.471   1.432
59686W        W28091  43.060  23.557  13.299
59687W        W28092  13.385   2.679   2.720
59688W        W28093  23.552  25.549  10.659
59689W        W28094   8.182  28.930   4.028
59690W        W28095   6.644   6.953   3.912
59691W        W28096  44.403  40.034  11.151
59692W        W28097   1.346  11.268  14.684
59693W        W28098   5.394  39.815  12.446
59694W        W28099  19.081  11.369  12.054
59695W        W28100  27.603  25.443   3.443
59696W        W28101  17.433  10.202   1.125
59697W        W28102  25.206  14.687  14.036
59698W        W28103   8.707  26.110   4.321
59699W        W28104  30.866   7.628   3.891
59700W        W28105   8.722   1.679  11.119
59701W        W28106  20.246   0.643   1.956
59702W        W28107  29.982   0.502   3.119
59703W        W28108  25.551   3.231   2.621
59704W        W28109  16.544  31.269  13.298
59705W        W28110  22.523   9.656  11.927
59706W        W28111  21.115  27.524   3.399
59707W        W28112   3.320  32.853  13.091
59708W        W28113  12.187  26.975   3.664
59709W        W28114   9.430   5.337  12.542
59710W        W28115  12.504  25.482   2.906
59711W        W28116   1.491  44.591  14.758
59712W        W28117  15.016  44.411  11.552
59713W        W28118   4.900   7.525   3.451
59714W        W28119  12.482  42.548   4.290
59715W        W28120   1.147  25.297  13.160
59716W        W28121  35.025  39.151  12.078
59717W        W28122   6.243  32.942  13.591
59718W        W28123  24.417  10.109  12.119
59719W        W28124  22.111  22.827   3.737
59720W        W28125  34.673   6.324   1.194
59721W        W28126  31.492   1.082   4.761
59722W        W28127  35.033   8.314   3.595
59723W        W28128  31.435   3.867   4.324
59724W        W28129   3.740  26.596  11.914
59725W        W28130  17.657  18.650   3.799
59726W        W28131  29.860  23.046  13.266
59727W        W28132  38.692  39.921  14.412
59728W        W28133  24.209  30.851   2.698
59729W        W28134  21.416   0.377   3.698
59730W        W28135  29.873   6.144   1.419
59731W        W28136  16.975  29.983   0.494
59732W        W28137  37.562  23.057  14.866
59733W        W28138  32.623   7.173   2.832
59734W        W28139   9.436  42.388  12.095
59735W        W28140  43.401  24.025  10.696
59736W        W28141  23.544  31.619   3.753
59737W        W28142  11.790   1.461  13.760
59738W        W28143  23.757  32.504   4.087
59739W        W28144  12.579  18.153   2.601
59740W        W28145  43.278  37.436  14.485
59741W        W28146  19.815  24.194   0.869
59742W        W28147  12.395  10.833   4.578
59743W        W28148   0.416   7.170   3.696
59744W        W28149  39.618   6.327   1.945
59745W        W28150  24.799   3.786   0.831
59746W        W28151  39.389  35.582   0.980
59747W        W28152  17.567  32.115   1.432
59748W        W28153  23.135   9.395  13.398
59749W        W28154  31.159   1.098  11.522
59750W        W28155   6.421   6.192   2.348
59751W        W28156   4.637  40.979   4.108
59752W        W28157   6.374  31.421   1.344
59753W        W28158  40.341  25.171  10.333
59754W        W28159  38.308   3.437   4.071
59755W        W28160  40.797  40.022   3.375
59756W        W28161  20.631  17.137  11.676
59757W        W28162   8.547   6.936   4.141
59758W        W28163  21.389  42.396  13.414
59759W        W28164  21.558  12.284   0.067
59760W        W28165  23.692   9.401  14.289
59761W        W28166   6.803  22.904  10.235
59762W        W28167  14.668  44.844   0.217
59763W        W28168  10.407  36.877   2.089
59764W        W28169  43.116  32.149  11.565
59765W        W28170  12.184  44.112  12.885
59766W        W28171  44.081  25.450   2.760
59767W        W28172  10.746   3.620  11.292
59768W        W28173  14.644   6.711   3.761
59769W        W28174  39.528   1.007  13.022
59770W        W28175  21.342   4.894   3.158
59771W        W28176  25.476   3.176  14.377
59772W        W28177   6.288  17.235  11.119
59773W        W28178   8.239  14.706   5.149
59774W        W28179  27.226  31.510   4.598
59775W        W28180  34.412  28.093   1.728
59776W        W28181   5.092  13.056  10.521
59777W        W28182  27.234  30.490  11.279
59778W        W28183  17.631  37.008   3.778
59779W        W28184  23.173   9.689  14.257
59780W        W28185  37.870   1.404   2.719
59781W        W28186  23.064  18.180   3.674
59782W        W28187  17.339  21.797   4.560
59783W        W28188   2.331  33.867   2.324
59784W        W28189  23.674  29.932  14.461
59785W        W28190  42.508   2.378  12.716
59786W        W28191  20.342  15.659  13.354
59787W        W28192  36.408  11.736  12.535
59788W        W28193  26.028  28.448   0.436
59789W        W28194  22.028  11.196  13.739
59790W        W28195  25.523  40.481  14.942
59791W        W28196  38.702  11.714   1.522
59792W        W28197  36.620  40.016  13.057
59793W        W28198  24.665  18.216   0.915
59794W        W28199  23.141  21.595  12.301
59795W        W28200  16.762  25.852  10.212
59796W        W28201  41.926   7.198   3.192
59797W        W28202  39.945  36.963   2.838
59798W        W28203  23.616  44.589   3.316
59799W        W28204  13.780  25.214   2.844
59800W        W28205   2.645  19.480   2.190
59801W        W28206  13.132  27.879   2.442
59802W        W28207   7.129  39.368   1.325
59803W        W28208   1.011  25.103   3.619
59804W        W28209   5.698  34.104   3.187
59805W        W28210  16.043   1.436  11.486
59806W        W28211  16.819  33.953  11.595
59807W        W28212  40.576  21.488   4.985
59808W        W28213  15.761  25.793   2.481
59809W        W28214  28.396  20.396   4.026
59810W        W28215  29.914  32.522   1.318
59811W        W28216  39.010  19.087  13.086
59812W        W28217  33.328  30.961   4.312
59813W        W28218  32.346  10.023   4.202
59814W        W28219  41.789   2.897   2.460
59815W        W28220  37.972  40.532  10.766
59816W        W28221  32.481  42.882   2.375
59817W        W28222  28.616  14.294   4.024
59818W        W28223  18.253  22.807  11.702
59819W        W28224  30.951   0.269  11.922
59820W        W28225  37.073  27.524  14.228
59821W        W28226  20.012  32.440  14.960
59822W        W28227  30.169  15.129   0.428
59823W        W28228   6.577  37.483   5.117
59824W        W28229   9.375  15.217   4.104
59825W        W28230   3.846  33.597  10.575
59826W        W28231  14.586  39.598  10.682
59827W        W28232  39.291  42.036  14.248
59828W        W28233  22.545  38.477  11.084
59829W        W28234  43.854  40.698  12.902
59830W        W28235  21.668   8.492  14.818
59831W        W28236  40.259  20.681   2.613
59832W        W28237  38.693   6.607  11.169
59833W        W28238   1.219  38.092   1.576
59834W        W28239  11.400  30.144  14.080
59835W        W28240  25.704  20.624   1.693
59836W        W28241  44.823  36.089  14.374
59837W        W28242   2.062  29.071  14.916
59838W        W28243  16.800  41.019  14.631
59839W        W28244  33.205  23.975   3.727
59840W        W28245  21.988  13.111   1.583
59841W        W28246  37.445  39.338   4.448
59842W        W28247  25.854  27.747   1.181
59843W        W28248  10.372  16.188   2.047
59844W        W28249  40.415   1.852  13.839
59845W        W28250  44.276  11.724   0.470
59846W        W28251  17.244  21.010  11.010
59847W        W28252  39.834   5.406  13.463
59848W        W28253  17.625   0.902  11.028
59849W        W28254  23.066  39.195   3.217
59850W        W28255  39.436  20.217   4.903
59851W        W28256  11.265  26.248   2.336
59852W        W28257  22.955  44.331   4.555
59853W        W28258  32.381   6.672  11.442
59854W        W28259  13.034  25.715  12.415
59855W        W28260   3.487  22.411   1.001
59856W        W28261  19.280  16.252  12.461
59857W        W28262  21.779  27.081  14.289
59858W        W28263  32.094  42.265   4.574
59859W        W28264  26.130  42.146   3.794
59860W        W28265  33.639  12.876   0.834
59861W        W28266  38.596  44.016  11.196
59862W        W28267  35.379  38.617   0.771
59863W        W28268   6.810  13.029  11.487
59864W        W28269  19.640  24.208   3.711
59865W        W28270  43.531  26.156   3.151
59866W        W28271  43.495   2.907   3.347
59867W        W28272  21.399  37.945  12.463
59868W        W28273  39.902  14.303  14.341
59869W        W28274  37.267  17.611   1.687
59870W        W28275  27.680  24.663  12.100
59871W        W28276  29.239  37.367  13.113
59872W        W28277  36.770  15.055  11.593
59873W        W28278  32.128  37.858   3.769
59874W        W28279  26.696  18.140   2.290
59875W        W28280  10.547  21.548   4.659
59876W        W28281  36.558  41.780  13.566
59877W        W28282   4.377  40.896  10.773
59878W        W28283  11.757  20.658  11.070
59879W        W28284  40.761  30.203  11.209
59880W        W28285  25.512  41.383   4.190
59881W        W28286   4.192  29.716  14.380
59882W        W28287  31.623  36.601   2.245
59883W        W28288  17.273   1.786   1.480
59884W        W28289   3.369  41.855   4.886
59885W        W28290  27.393  29.551  13.490
59886W        W28291  39.582  41.649   3.771
59887W        W28292   5.297  25.031  12.871
59888W        W28293  32.942   6.278  10.767
59889W        W28294  41.280  13.923   3.628
59890W        W28295  37.590  13.170  12.511
59891W        W28296   0.163  31.265   0.522
59892W        W28297   6.317  21.037  14.342
59893W        W28298  29.635   8.555  11.030
59894W        W28299  25.655  36.582  12.435
59895W        W28300   4.804  34.553  12.621
59896W        W28301   4.314   2.657  11.670
59897W        W28302  24.954  13.198  14.840
59898W        W28303  29.796  30.230  14.398
59899W        W28304  25.561  12.810  14.278
59900W        W28305   0.192  21.353   2.684
59901W        W28306   6.360  10.557   4.778
59902W        W28307  38.930  16.953  12.448
59903W        W28308  25.215  38.060   4.484
59904W        W28309   3.453  26.136  11.807
59905W        W28310   0.278  36.199   0.808
59906W        W28311  32.802  34.010   0.846
59907W        W28312  27.887   6.769  12.510
59908W        W28313  21.184  26.703   3.709
59909W        W28314   2.267  39.885   0.306
59910W        W28315  20.513  34.826  14.379
59911W        W28316  23.585   1.476  10.965
59912W        W28317  16.456   4.855   0.158
59913W        W28318  17.093  32.434  13.775
59914W        W28319   5.842  35.656   1.436
59915W        W28320  34.932  30.369   4.136
59916W        W28321   4.241  35.879   3.229
59917W        W28322  16.811   9.906   0.279
59918W        W28323  25.948   0.216  11.157
59919W        W28324   3.628  14.254   0.905
59920W        W28325  43.296  32.587   3.661
59921W        W28326   1.904   7.118  14.708
59922W        W28327   9.867   9.836   4.913
59923W        W28328   0.359  24.678   3.264
59924W        W28329   9.887  30.423   5.119
59925W        W28330  44.709   6.054  11.136
59926W        W28331  33.381  39.252  11.323
59927W        W28332  35.662  42.238  14.478
59928W        W28333   0.482  35.423   2.396
59929W        W28334  29.491  43.927  11.923
59930W        W28335  16.639   4.471  13.312
59931W        W28336  43.826  27.024  14.716
59932W        W28337  19.009   6.723   4.320
59933W        W28338  38.838  17.711   4.998
59934W        W28339   5.941  15.256  14.770
59935W        W28340   7.380  34.727   2.579
59936W        W28341  38.447  32.799  10.686
59937W        W28342  43.398  30.071  13.446
59938W        W28343  26.232  43.887   1.001
59939W        W28344   3.157  21.601   4.636
59940W        W28345  29.209  36.570  13.685
59941W        W28346  31.548  11.361   4.324
59942W        W28347  40.011   0.755  14.512
59943W        W28348  21.149   1.384   1.214
59944W        W28349   9.792  36.879  12.101
59945W        W28350   9.120  31.071   1.424
59946W        W28351  31.019  13.358  14.753
59947W        W28352   1.262  44.544   1.751
59948W        W28353  21.922  40.527  11.014
59949W        W28354  24.321   3.511  10.749
59950W        W28355   0.017  28.163  10.388
59951W        W28356  13.720  44.600   0.802
59952W        W28357  40.103  21.955  12.585
59953W        W28358  23.098  36.663   1.252
59954W        W28359  42.953  15.657   0.689
59955W        W28360  37.989  30.069   0.262
59956W        W28361  15.300   9.347  10.638
59957W        W28362  32.838  35.107   2.728
59958W        W28363  14.145   8.223   3.494
59959W        W28364  28.430   5.325   4.084
59960W        W28365  44.223   9.292   4.295
59961W        W28366   5.349   6.957  10.931
59962W        W28367  38.104  32.411   1.170
59963W        W28368  29.856  37.386   1.772
59964W        W28369  38.561  28.542   1.502
59965W        W28370  18.683  30.014  14.353
59966W        W28371  15.667  31.654   1.700
59967W        W28372  22.279  17.412   1.917
59968W        W28373   3.360   3.732   1.412
59969W        W28374   0.481  13.686  12.545
59970W        W28375  23.769   1.023   3.733
59971W        W28376  35.952  11.800   0.981
59972W        W28377  13.254  42.545  14.477
59973W        W28378  30.498  24.668   4.555
59974W        W28379  37.947   6.884  12.299
59975W        W28380  40.675  21.683  13.019
59976W        W28381  16.494  43.654  14.312
59977W        W28382   3.412  14.380   3.294
59978W        W28383   3.838  10.200  13.075
59979W        W28384  16.669  22.412   3.204
59980W        W28385  28.836  35.988   3.636
59981W        W28386  31.915  10.783   3.707
59982W        W28387  39.567  29.746   3.688
59983W        W28388  12.683  37.450   3.356
59984W        W28389  39.066  31.594   4.597
59985W        W28390  12.302  27.695  10.665
59986W        W28391  42.964  12.565   1.689
59987W        W28392   9.443  20.583  14.374
59988W        W28393  35.498  15.167   4.321
59989W        W28394  31.030  36.534   3.814
59990W        W28395   0.752  23.601  13.001
59991W        W28396   1.185  32.550  13.790
59992W        W28397   9.065  41.793   3.381
59993W        W28398  13.846  41.972   2.798
59994W        W28399  16.935   5.692  14.457
59995W        W28400  40.014  32.282  11.896
59996W        W28401   0.280  20.572  11.103
59997W        W28402  16.666  22.662   3.643
59998W        W28403  10.591  10.874   1.404
59999W        W28404  27.514  21.458  13.964
60000W        W28405  44.518   5.254  12.895
60001W        W28406   2.730  18.747  10.534
60002W        W28407  44.263  37.538  14.379
60003W        W28408  26.377  30.174  11.566
60004W        W28409  11.910  22.080  14.742
60005W        W28410  32.130  43.103   3.292
60006W        W28411  18.059  27.331  14.310
60007W        W28412   6.705   7.926  12.888
60008W        W28413  30.880  14.402   0.509
60009W        W28414  21.702   4.538   4.083
60010W        W28415   3.428   0.884  10.897
60011W        W28416  18.238   5.951   2.155
60012W        W28417  18.426  23.317   1.427
60013W        W28418  26.522   1.770   3.791
60014W        W28419   1.844  27.962   5.173
60015W        W28420  26.185   3.074  12.938
60016W        W28421  17.283  11.608  13.086
60017W        W28422  35.440  36.643  12.511
60018W        W28423  27.008  23.570  10.769
60019W        W28424  43.710  23.200   4.587
60020W        W28425   3.719  19.989   4.544
60021W        W28426  33.396  15.114   3.855
60022W        W28427  32.415  10.135  11.635
60023W        W28428   9.807  25.764  12.998
60024W        W28429  31.189  12.129   3.514
60025W        W28430  30.525  14.181  13.472
60026W        W28431  39.077  18.748  13.485
60027W        W28432  19.547   2.556  14.879
60028W        W28433   0.603  21.274   9.735
60029W        W28434  43.481  16.262  14.456
60030W        W28435   4.285   7.020  13.058
60031W        W28436  36.245  10.907  13.499
60032W        W28437  23.367  41.010  11.707
60033W        W28438  33.680  28.275  14.715
60034W        W28439  10.241   7.693  10.699
60035W        W28440  27.138   1.015   4.089
60036W        W28441   6.832  35.793  14.178
60037W        W28442   7.369  26.084  14.999
60038W        W28443   7.861  22.718  11.328
60039W        W28444  43.815  35.567   0.233
60040W        W28445  12.860  24.396  11.949
60041W        W28446   7.845  33.610  14.607
60042W        W28447  13.846  44.324   2.235
60043W        W28448  24.415  28.600   3.531
60044W        W28449  27.980  36.037   4.648
60045W        W28450  40.923   6.530  14.904
60046W        W28451  15.170   3.255   0.468
60047W        W28452  29.576  13.858   2.312
60048W        W28453  24.536  37.275  14.279
60049W        W28454   5.315  39.198  11.070
60050W        W28455  16.913   3.237   3.322
60051W        W28456  13.835  14.730  11.114
60052W        W28457  16.403   1.948   1.936
60053W        W28458  28.553  16.779   0.375
60054W        W28459  21.710  28.976   0.042
60055W        W28460  10.608   4.963  12.203
60056W        W28461  19.055   0.839   3.810
60057W        W28462   6.791  28.578  10.485
60058W        W28463   7.769  14.875  10.693
60059W        W28464  38.164   2.092   5.466
60060W        W28465  36.856  38.549   3.029
60061W        W28466  13.299   0.904  11.138
60062W        W28467  29.731  22.739   0.785
60063W        W28468  35.405  21.202  13.540
60064W        W28469  14.852  22.788   3.611
60065W        W28470   8.896  10.207   2.307
60066W        W28471  27.171  16.058  11.878
60067W        W28472  41.440  35.511   3.318
60068W        W28473  22.291   4.323   4.689
60069W        W28474  34.326   1.456   0.269
60070W        W28475  15.598  15.517   2.778
60071W        W28476  38.466  10.287   3.138
60072W        W28477  13.694  29.673   3.627
60073W        W28478  12.508  33.475   1.471
60074W        W28479  44.489  36.355  11.229
60075W        W28480  12.671  31.483   3.654
60076W        W28481  32.894  35.439  12.606
60077W        W28482  39.517  15.756   4.794
60078W        W28483  22.759   6.374   0.448
60079W        W28484  33.401  15.112  12.156
60080W        W28485  27.135  24.547   2.833
60081W        W28486  30.344   2.411   1.274
60082W        W28487  30.179  18.740  12.074
60083W        W28488  17.154  23.546   1.935
60084W        W28489  28.735  25.119   1.411
60085W        W28490  10.073   4.695   1.374
60086W        W28491  18.300   8.360  14.210
60087W        W28492  42.219  42.323   2.198
60088W        W28493  25.644  24.194   0.293
60089W        W28494  14.352  35.801  11.136
60090W        W28495  35.570  12.261  10.705
60091W        W28496   8.234  24.982  13.382
60092W        W28497   9.778  40.054   1.240
60093W        W28498  11.262  40.743  10.754
60094W        W28499  23.282  25.185   4.763
60095W        W28500  16.982  22.076  10.236
60096W        W28501  13.696   2.150  10.943
60097W        W28502   1.357  40.316   2.111
60098W        W28503  13.501  44.449   1.802
60099W        W28504  24.084  25.029  14.514
60100W        W28505  30.857  43.088  10.652
60101W        W28506  18.067  24.124   2.108
60102W        W28507  38.793  26.123  13.428
60103W        W28508  20.565   5.206   4.719
60104W        W28509  39.200   1.728  13.444
60105W        W28510  29.335  39.841   3.742
60106W        W28511  31.971  10.759   3.173
60107W        W28512  44.645  40.479  13.387
60108W        W28513  18.251  20.345   2.129
60109W        W28514  23.932  38.397   2.369
60110W        W28515   8.846  39.555  14.425
60111W        W28516  20.781  39.210   1.613
60112W        W28517   9.169  16.582   0.823
60113W        W28518  10.871  36.639   0.266
60114W        W28519   0.730  40.905  11.259
60115W        W28520  17.215  38.340   0.513
60116W        W28521  36.604  27.476   3.680
60117W        W28522  26.061  23.742   3.227
60118W        W28523   0.756  29.002  12.829
60119W        W28524  16.535   7.456   0.781
60120W        W28525   4.477  38.247   3.353
60121W        W28526  25.071   2.837  13.484
60122W        W28527   1.480  20.478  13.476
60123W        W28528  36.376  24.258   1.094
60124W        W28529  15.582  16.189   0.406
60125W        W28530   4.967   1.885   4.338
60126W        W28531  12.319  12.401   1.837
60127W        W28532  28.760  39.178  12.156
60128W        W28533   9.944  18.542   3.254
60129W        W28534  10.498  29.864   1.375
60130W        W28535   6.987  26.649   4.533
60131W        W28536   8.046  19.083   4.058
60132W        W28537  31.422  12.478   1.490
60133W        W28538   8.156  34.821   1.906
60134W        W28539   3.750  41.753  11.555
60135W        W28540  27.424  39.390   2.187
60136W        W28541   9.746  11.655  12.950
60137W        W28542  41.971  15.595  11.954
60138W        W28543  12.945  25.083  14.801
60139W        W28544  16.075  18.830   3.676
60140W        W28545  35.654  26.491   3.706
60141W        W28546  34.474  15.626   2.882
60142W        W28547   7.888  36.106  11.594
60143W        W28548  31.940  27.343   1.111
60144W        W28549  12.626  21.916  13.675
60145W        W28550   3.018  27.599  14.830
60146W        W28551  27.624  41.152   4.134
60147W        W28552   6.311  43.045   3.072
60148W        W28553  30.469  42.294  11.924
60149W        W28554  40.332  39.333   3.612
60150W        W28555  44.422  13.403  10.281
60151W        W28556   4.257  17.539  13.794
60152W        W28557  10.798  17.024  13.808
60153W        W28558  44.865   4.558   1.710
60154W        W28559   8.151  34.584  11.091
60155W        W28560   8.309   6.306   3.341
60156W        W28561  33.711  29.381   3.400
60157W        W28562  27.489  20.480   4.108
60158W        W28563  13.344  22.854  12.524
60159W        W28564  14.478  40.282  11.267
60160W        W28565  24.291   1.203  11.230
60161W        W28566  31.606   8.461  14.676
60162W        W28567  19.409  40.950  12.905
60163W        W28568  16.816  42.407  11.968
60164W        W28569  43.224   3.751  13.485
60165W        W28570  23.043  34.917  12.706
60166W        W28571  24.709   5.400   4.205
60167W        W28572   4.828   6.450  11.559
60168W        W28573   6.479   1.368  12.085
60169W        W28574  31.357  39.693   4.274
60170W        W28575  16.383   3.815  11.149
60171W        W28576   8.173   5.103  14.349
60172W        W28577   6.629  20.377  12.867
60173W        W28578   0.862   8.388   2.734
60174W        W28579  14.527   6.798   1.395
60175W        W28580  35.490  10.068   2.228
60176W        W28581  35.398  15.023   3.315
60177W        W28582  20.081  16.003   0.710
60178W        W28583  35.524  36.813  11.161
60179W        W28584  36.953  18.300   1.218
60180W        W28585  29.659  38.017   2.751
60181W        W28586  34.144  15.609   3.561
60182W        W28587  33.550   9.414  13.271
60183W        W28588  33.969  12.864   3.393
60184W        W28589  43.985  14.368   3.781
60185W        W28590   2.986  24.849   1.861
60186W        W28591  34.357  26.492   1.282
60187W        W28592  34.951   5.599  10.766
60188W        W28593  17.835  35.054   2.741
60189W        W28594  35.375   6.840   4.101
60190W        W28595  37.199  19.253  14.440
60191W        W28596  18.711  14.776   2.022
60192W        W28597  30.645   9.296  10.773
60193W        W28598  36.440   2.108  12.470
60194W        W28599   4.665  34.860  11.159
60195W        W28600  38.998  25.154  13.321
60196W        W28601  26.365  19.153  11.440
60197W        W28602  40.448  18.869   5.064
60198W        W28603  28.509  23.296  14.985
60199W        W28604  33.897  36.649  11.170
60200W        W28605  28.968  33.053  13.056
60201W        W28606  23.247  44.511   4.124
60202W        W28607  15.061  16.489   3.615
60203W        W28608  27.072  28.575  12.502
60204W        W28609   6.774  18.344   1.736
60205W        W28610  22.711  24.542  14.107
60206W        W28611  42.496   0.544  11.931
60207W        W28612  39.841  13.187  10.787
60208W        W28613  20.115  21.750   5.160
60209W        W28614  30.056  19.110  13.824
60210W        W28615  40.387   5.274   3.173
60211W        W28616  19.211  32.264  12.125
60212W        W28617  24.678  28.353   0.656
60213W        W28618   1.469  11.620  11.084
60214W        W28619  17.799   1.767   0.744
60215W        W28620  43.124  27.263  10.817
60216W        W28621  26.483  23.960  12.795
60217W        W28622  17.063  24.337   1.202
60218W        W28623  10.978  12.155  13.660
60219W        W28624  35.102  35.969  11.213
60220W        W28625  20.482   7.685  11.852
60221W        W28626  17.076  43.187  12.512
60222W        W28627  25.068  30.696   3.517
60223W        W28628  15.610  20.161   0.253
60224W        W28629  39.315  25.236   3.326
60225W        W28630  26.587  34.314  10.411
60226W        W28631  32.049  23.017  14.668
60227W        W28632  41.855  13.077  10.049
60228W        W28633  30.985   5.202   1.459
60229W        W28634  44.721   9.343   2.371
60230W        W28635  40.508   5.017  10.249
60231W        W28636  35.476   8.835  10.771
60232W        W28637   9.287   8.417  13.053
60233W        W28638  22.757  30.529  11.018
60234W        W28639   9.758  15.349   2.060
60235W        W28640  21.096  20.250  13.000
60236W        W28641  34.401  16.001  12.481
60237W        W28642  44.781  37.247   3.495
60238W        W28643   1.769  22.480  12.004
60239W        W28644  37.904  35.833  12.216
60240W        W28645  43.923  39.816   4.161
60241W        W28646  15.149  27.124   3.373
60242W        W28647  24.645  31.609   4.722
60243W        W28648  30.915  39.510  12.793
60244W        W28649  39.930  16.238  10.750
60245W        W28650   8.605  22.502   3.035
60246W        W28651  28.491  27.466  12.057
60247W        W28652  27.646  33.723  12.131
60248W        W28653  21.036  32.942   4.236
60249W        W28654  12.450  15.397   9.708
60250W        W28655  38.993  17.669  10.767
60251W        W28656  13.421  19.695   3.186
60252W        W28657  18.581  38.417   1.949
60253W        W28658  23.631  11.263   0.435
60254W        W28659  28.833  38.223  13.145
60255W        W28660  31.545  34.082  10.374
60256W        W28661  38.453   3.878   3.740
60257W        W28662  41.286   4.347   2.738
60258W        W28663  38.711   3.717   0.919
60259W        W28664  38.168  16.758  13.976
60260W        W28665  37.886  17.943  13.866
60261W        W28666  31.945  15.313   0.754
60262W        W28667  32.369  17.664   2.553
60263W        W28668   2.709  11.290   4.761
60264W        W28669   3.697  43.310  13.505
60265W        W28670  37.011  19.022   4.315
60266W        W28671   6.124  42.207  13.857
60267W        W28672  27.605  31.340  12.724
60268W        W28673  27.138   5.019   4.395
60269W        W28674  28.139  20.076   4.811
60270W        W28675  22.183  29.384   1.043
60271W        W28676  36.579  11.597   1.671
60272W        W28677   8.276  24.461  13.352
60273W        W28678  39.728  30.240   3.831
60274W        W28679  28.065  22.261  12.034
60275W        W28680  22.008  20.611  14.336
60276W        W28681  32.574  27.527  13.790
60277W        W28682  31.964  11.108   1.432
60278W        W28683  44.917  23.322   1.910
60279W        W28684  15.799  13.244  12.351
60280W        W28685   1.284  10.729   2.235
60281W        W28686  12.700  15.284  14.714
60282W        W28687  10.200  39.657  12.807
60283W        W28688  28.620  41.617   0.377
60284W        W28689  19.241  22.504   3.672
60285W        W28690  31.964  22.944   4.064
60286W        W28691  12.617  25.124   0.197
60287W        W28692  36.528  10.640  11.197
60288W        W28693  33.395  44.717   0.225
60289W        W28694   6.094  31.576   0.919
60290W        W28695  29.158  42.286   1.376
60291W        W28696   6.963  39.199   3.208
60292W        W28697  13.725  28.098   0.394
60293W        W28698  30.094  30.467   4.751
60294W        W28699  31.118  43.912  11.936
60295W        W28700  43.085   0.721   3.708
60296W        W28701  38.096  30.722   2.688
60297W        W28702  35.045  29.422   4.169
60298W        W28703  39.424  42.947   1.343
60299W        W28704  29.443  34.038   2.149
60300W        W28705  35.041   0.001   1.803
60301W        W28706  31.353   2.318   1.336
60302W        W28707  29.632   9.790   4.665
60303W        W28708  18.262  23.209   0.079
60304W        W28709  43.462  32.072   4.875
60305W        W28710  31.444  13.062  13.982
60306W        W28711  36.060  22.655  11.017
60307W        W28712  17.912  18.235   3.604
60308W        W28713  34.521  17.658  14.014
60309W        W28714  22.750  22.534  12.607
60310W        W28715  37.551   6.305   0.106
60311W        W28716  19.818  32.475   1.922
60312W        W28717  15.201  29.244   4.578
60313W        W28718   5.273  40.823  12.666
60314W        W28719  12.725   0.315   0.327
60315W        W28720  21.832  43.517   2.793
60316W        W28721  21.687  38.794   2.062
60317W        W28722  23.480   0.469  12.989
60318W        W28723  28.640  25.122   4.408
60319W        W28724  31.588   2.389  11.418
60320W        W28725  10.197  32.681  11.928
60321W        W28726   2.356  33.508   2.718
60322W        W28727  38.513  39.467  14.205
60323W        W28728  17.757  27.004  14.935
60324W        W28729  19.746  17.307   1.190
60325W        W28730  33.534  41.949   2.774
60326W        W28731  36.092  38.443   0.379
60327W        W28732  12.062  28.949   3.094
60328W        W28733   7.855  40.569   0.265
60329W        W28734  15.184  36.096  13.106
60330W        W28735   0.962  30.387  11.060
60331W        W28736   9.099  24.259  12.416
60332W        W28737  13.021  28.073   0.754
60333W        W28738  16.140  27.931  13.417
60334W        W28739  35.949  19.962  11.976
60335W        W28740  40.632  28.527  12.007
60336W        W28741  29.508  19.141  14.812
60337W        W28742   0.727  14.276  11.962
60338W        W28743  22.286  29.647   3.175
60339W        W28744  25.499  29.346  13.167
60340W        W28745  43.269  43.350   2.700
60341W        W28746  31.115  36.915   2.840
60342W        W28747  21.195  33.909  12.618
60343W        W28748  22.076  15.872   0.997
60344W        W28749  24.638  24.111  12.487
60345W        W28750  42.080  13.796  12.878
60346W        W28751  31.980   2.144  10.868
60347W        W28752  41.968  40.753   3.792
60348W        W28753  26.145   8.946   2.201
60349W        W28754   0.918  21.717  14.796
60350W        W28755  39.346  40.165   2.140
60351W        W28756  30.490  12.086  14.373
60352W        W28757  24.523  22.757  14.066
60353W        W28758  42.806  15.240  11.698
60354W        W28759  31.009  43.879   2.337
60355W        W28760  26.397  29.342   3.584
60356W        W28761  13.189  16.825  14.476
60357W        W28762  31.906  13.874   1.782
60358W        W28763  17.866  21.566  13.710
60359W        W28764  41.473  14.479   1.704
60360W        W28765  16.225  17.333   3.683
60361W        W28766   2.543  32.479   4.269
60362W        W28767   9.394  28.296   5.065
60363W        W28768  26.992  29.748  11.806
60364W        W28769  27.364  24.126   4.092
60365W        W28770  39.345  27.469   3.162
60366W        W28771  22.595  30.652  11.541
60367W        W28772  38.311  28.568   2.732
60368W        W28773  44.201   5.680  12.941
60369W        W28774  11.095  41.004   3.991
60370W        W28775   9.915   0.242   1.893
60371W        W28776  12.258  31.026   0.248
60372W        W28777  20.537  28.472  11.695
60373W        W28778  29.165   5.815   3.094
60374W        W28779  14.841  42.681  11.939
60375W        W28780   4.666  37.903   3.812
60376W        W28781  42.501   6.682   3.687
60377W        W28782  27.400  40.420   3.716
60378W        W28783  32.710  27.654  14.959
60379W        W28784  39.084  24.732  11.618
60380W        W28785  17.650  27.260   0.857
60381W        W28786  34.547  30.114   1.291
60382W        W28787  12.746   8.362   0.829
60383W        W28788  19.914  15.139  12.070
60384W        W28789   9.867  31.353  10.160
60385W        W28790  17.685  39.236   0.237
60386W        W28791   4.933  11.706   0.438
60387W        W28792  40.166   6.564   3.400
60388W        W28793   7.923  13.202  13.784
60389W        W28794   6.143  42.414   0.734
60390W        W28795   7.811  28.124   4.650
60391W        W28796  11.249   9.401   3.399
60392W        W28797  29.639  14.802  11.631
60393W        W28798   9.944   2.776  14.317
60394W        W28799  42.047  18.050   2.751
60395W        W28800  23.480  42.244   3.839
60396W        W28801  42.556  12.216   1.831
60397W        W28802  18.700  29.647   3.849
60398W        W28803   8.249   9.649   1.913
60399W        W28804  34.504  19.868  13.866
60400W        W28805   6.877  22.284  13.007
60401W        W28806  30.641  34.841   0.252
60402W        W28807   3.891  26.410   3.353
60403W        W28808  37.538  34.395   4.298
60404W        W28809  37.486  23.721  12.466
60405W        W28810  11.152  41.633  12.531
60406W        W28811  15.633  38.718   2.830
60407W        W28812   4.472  21.268  11.509
60408W        W28813  33.662  42.459   2.690
60409W        W28814  31.881  37.476  11.066
60410W        W28815  14.632  14.903   3.353
60411W        W28816  21.633  34.651  11.159
60412W        W28817  40.980  43.058   2.717
60413W        W28818   0.774  22.672   2.132
60414W        W28819  29.048   1.118   1.457
60415W        W28820  26.133  18.330  12.510
60416W        W28821  16.001   8.778   2.816
60417W        W28822  16.666  27.018   0.748
60418W        W28823  34.453  28.433   4.645
60419W        W28824   0.515   2.842  14.823
60420W        W28825  28.605   2.444  11.550
60421W        W28826  39.368  38.384   4.028
60422W        W28827  19.313  20.672   2.935
60423W        W28828  31.971   2.419  11.765
60424W        W28829  44.810  22.074   1.727
60425W        W28830   4.354  33.342   1.421
60426W        W28831  40.577  40.241   4.499
60427W        W28832  17.104  34.847   0.877
60428W        W28833  16.607  41.930  11.929
60429W        W28834  25.950  13.297   1.881
60430W        W28835   2.331  36.230   4.990
60431W        W28836  10.394  28.462   5.336
60432W        W28837  32.551  27.987   0.355
60433W        W28838  24.783   5.799  11.648
60434W        W28839  31.544  22.719   0.585
60435W        W28840  26.332  25.819   4.073
60436W        W28841  36.054  42.020   1.631
60437W        W28842  27.619  13.407  10.482
60438W        W28843  22.313  35.980   4.391
60439W        W28844  37.569  38.248   2.388
60440W        W28845  32.967  21.058   3.591
60441W        W28846  11.084   6.447  11.462
60442W        W28847  41.864  44.994   4.239
60443W        W28848  23.441  41.568  13.653
60444W        W28849  39.361   7.985   4.930
60445W        W28850  23.537  18.124   0.391
60446W        W28851  10.983   6.119   3.247
60447W        W28852  39.842  16.031   4.032
60448W        W28853  26.746  32.084   2.565
60449W        W28854   2.375   5.949  14.381
60450W        W28855  40.333  38.833  10.813
60451W        W28856  12.906  32.364  12.517
60452W        W28857   7.846  31.793   0.949
60453W        W28858  19.710  27.405   3.328
60454W        W28859  12.885  11.864   0.010
60455W        W28860  31.634  31.460  14.985
60456W        W28861   6.716   9.297  13.911
60457W        W28862   9.661  18.622  10.311
60458W        W28863  18.260  33.141   4.050
60459W        W28864  26.166  24.727   2.296
60460W        W28865   6.207   8.872   2.788
60461W        W28866  23.239  39.975   0.636
60462W        W28867  20.896   3.912   0.065
60463W        W28868  26.802  41.373  13.788
60464W        W28869  41.980  35.939   1.806
60465W        W28870  32.941  12.189   1.876
60466W        W28871  43.424  30.387   1.009
60467W        W28872  12.027   6.769   1.300
60468W        W28873  44.893  10.208   2.136
60469W        W28874   2.433  32.103   2.859
60470W        W28875   0.860  35.541  13.475
60471W        W28876  26.728  37.456  12.909
60472W        W28877  25.756   4.188   2.103
60473W        W28878  29.687  39.299  10.338
60474W        W28879  16.169  23.063   1.924
60475W        W28880   7.964  23.047   1.803
60476W        W28881  43.436  17.610   0.985
60477W        W28882  41.104   5.612   0.348
60478W        W28883  14.089  21.088  14.189
60479W        W28884  15.257  36.806  11.815
60480W        W28885  33.092  11.192  11.404
60481W        W28886   3.432  31.487  13.517
60482W        W28887  13.129  40.456   5.090
60483W        W28888  18.715  29.883  11.253
60484W        W28889  28.341  31.350   3.320
60485W        W28890   7.539  28.221   9.807
60486W        W28891  43.615   0.406   4.744
60487W        W28892   7.833  21.801  13.767
60488W        W28893  24.097  31.135   4.064
60489W        W28894  27.993   6.245  12.025
60490W        W28895  44.357   0.938   4.214
60491W        W28896  28.438  39.305   5.651
60492W        W28897   1.683   0.797  13.451
60493W        W28898  10.591   5.912  12.899
60494W        W28899  35.647  32.664   0.996
60495W        W28900  29.539   8.650  10.187
60496W        W28901   3.806  26.242   0.495
60497W        W28902  37.071  33.500   1.647
60498W        W28903  23.963   8.279  14.246
60499W        W28904  33.290   0.785  11.996
60500W        W28905  41.611  24.066  11.719
60501W        W28906  10.501  40.742  12.803
60502W        W28907  23.510  35.080  12.501
60503W        W28908  27.584  29.145  13.819
60504W        W28909  14.610  41.862  11.181
60505W        W28910  12.470   7.594   3.530
60506W        W28911   4.650   3.869   2.232
60507W        W28912   4.188  14.571  11.722
60508W        W28913  19.973   2.914   2.378
60509W        W28914  32.088  26.276  13.523
60510W        W28915  27.943  24.020  10.924
60511W        W28916  44.396  40.203  14.499
60512W        W28917  27.555  40.852   1.212
60513W        W28918   9.386  26.816   1.127
60514W        W28919  29.459  28.821  14.829
60515W        W28920   2.604   3.406   1.019
60516W        W28921  36.550  36.321   1.892
60517W        W28922  41.530  36.832  14.297
60518W        W28923   3.826  11.659  10.956
60519W        W28924   9.880  39.988   2.800
60520W        W28925  41.345  10.120   3.735
60521W        W28926  27.664  20.223   4.556
60522W        W28927   7.718   1.279  13.576
60523W        W28928  18.227   9.488  13.212
60524W        W28929  18.912  13.305   3.351
60525W        W28930  23.326  43.720   0.181
60526W        W28931  10.597  36.049  14.036
60527W        W28932  19.099  16.767   0.948
60528W        W28933   9.727  31.846  10.427
60529W        W28934  42.556   9.696   2.788
60530W        W28935   4.018  43.839   2.250
60531W        W28936  12.228  35.423  11.368
60532W        W28937   3.948  39.522   0.378
60533W        W28938  36.565  35.184   1.311
60534W        W28939  18.830  31.807   1.303
60535W        W28940   2.278  40.457   3.692
60536W        W28941  36.183   5.185   0.797
60537W        W28942   7.605  32.414  12.544
60538W        W28943   5.342  32.864  14.556
60539W        W28944   9.575  10.620   4.104
60540W        W28945  24.099  29.434   0.943
60541W        W28946  16.297  20.754   1.460
60542W        W28947   7.363  28.270  12.703
60543W        W28948  44.423  22.972  13.624
60544W        W28949  13.010  10.706   2.158
60545W        W28950  22.705  30.406  13.875
60546W        W28951  15.801  31.332  10.599
60547W        W28952  17.287  20.222   4.825
60548W        W28953  18.172  31.542  10.841
60549W        W28954  29.333  43.815   0.381
60550W        W28955  25.096  42.883   4.582
60551W        W28956   7.725  17.010   3.846
60552W        W28957  14.298  33.470  14.851
60553W        W28958   6.072  11.167  11.068
60554W        W28959  11.063  10.137   4.234
60555W        W28960  15.819   7.437   0.697
60556W        W28961  14.427  12.315  13.025
60557W        W28962  33.944  14.683   1.363
60558W        W28963  16.807  21.585   2.693
60559W        W28964   5.883  43.898   4.563
60560W        W28965  30.339  39.085  12.418
60561W        W28966  38.408  38.970   3.429
60562W        W28967  22.753  29.224  14.490
60563W        W28968  16.338  44.337   3.242
60564W        W28969  24.583   4.655  11.151
60565W        W28970   8.195   3.017   4.374
60566W        W28971  18.760  30.991  13.455
60567W        W28972  32.495  18.823   4.208
60568W        W28973  29.725  27.760   2.779
60569W        W28974  20.229  13.310   3.589
60570W        W28975  15.586  10.107   2.763
60571W        W28976  43.009   8.471   1.901
60572W        W28977  21.732  24.708   3.682
60573W        W28978  33.308  25.639  13.377
60574W        W28979  27.657  26.561   1.530
60575W        W28980   7.198  42.934  13.581
60576W        W28981  22.752  13.113   2.130
60577W        W28982  34.561  29.403   3.123
60578W        W28983  23.104  34.678  11.143
60579W        W28984  25.034  22.908  11.097
60580W        W28985  27.445   0.807   2.792
60581W        W28986  44.534   3.463  12.197
60582W        W28987  37.537  36.023   4.658
60583W        W28988  36.361  30.750   4.720
60584W        W28989  32.677   0.525  13.418
60585W        W28990   3.882   8.192   0.222
60586W        W28991   4.492  20.161  14.947
60587W        W28992   8.656   0.534   2.448
60588W        W28993  42.027  33.406   2.259
60589W        W28994  24.315   2.313  10.706
60590W        W28995  24.089   3.441  14.306
60591W        W28996  19.590   0.421  14.441
60592W        W28997  28.120  31.984  12.578
60593W        W28998  22.483  24.314   0.474
60594W        W28999  28.260  29.526   3.897
60595W        W29000  15.319  23.021   3.679
60596W        W29001   6.288  30.901  14.154
60597W        W29002  41.689  34.047  11.402
60598W        W29003  15.684   2.867   2.408
60599W        W29004  36.800   8.661   3.310
60600W        W29005  28.029   5.170   3.786
60601W        W29006  40.339  24.704  10.570
60602W        W29007   7.488  35.046  10.729
60603W        W29008   0.212  26.681   5.054
60604W        W29009  39.937   5.046   3.350
60605W        W29010   5.471  19.958   2.222
60606W        W29011  32.813  18.247   0.284
60607W        W29012  34.101  36.377   4.636
60608W        W29013  33.378  18.948  14.332
60609W        W29014  44.296  44.955  10.770
60610W        W29015  29.940  19.237  11.354
60611W        W29016  28.569   7.858   0.922
60612W        W29017  12.406  15.150   0.735
60613W        W29018  32.766   3.884  13.509
60614W        W29019  43.344   1.258   4.818
60615W        W29020  23.803   4.842  10.682
60616W        W29021   1.380  38.957   1.500
60617W        W29022   7.364   4.923   4.154
60618W        W29023  12.889  35.866  14.298
60619W        W29024   5.829  13.671  14.363
60620W        W29025  10.621  16.512  13.412
60621W        W29026  29.585  14.759   4.592
60622W        W29027   7.135  30.754   0.494
60623W        W29028  13.171  26.924  14.594
60624W        W29029   8.286  25.715  14.847
60625W        W29030  12.134   3.629   0.476
60626W        W29031   9.663   6.439   0.671
60627W        W29032  27.368   4.257  11.567
60628W        W29033  24.025  12.828  11.168
60629W        W29034  40.339  27.087  12.664
60630W        W29035  21.088  14.261  11.564
60631W        W29036  27.916  22.069   1.856
60632W        W29037  43.573  43.449   0.336
60633W        W29038   4.770   9.417  11.400
60634W        W29039  16.973  10.379  12.045
60635W        W29040  38.991  38.086   2.786
60636W        W29041   1.493  23.539  13.324
60637W        W29042  30.023  23.023   3.756
60638W        W29043  22.551   9.572  11.426
60639W        W29044   1.351  40.803   4.761
60640W        W29045   1.898   8.302   3.666
60641W        W29046   5.989  10.440  14.806
60642W        W29047   2.948  12.802  13.548
60643W        W29048  16.068  32.436  11.422
60644W        W29049   9.036  31.786   3.517
60645W        W29050  33.194  38.067   3.822
60646W        W29051  16.138  27.859   2.133
60647W        W29052  28.382  36.726   0.715
60648W        W29053   0.364   1.397  14.906
60649W        W29054   3.306  41.097   0.809
60650W        W29055  43.822  24.423   3.382
60651W        W29056   3.915  35.688  10.451
60652W        W29057  35.442  32.692  10.855
60653W        W29058  24.071  12.701   4.402
60654W        W29059  36.172   6.241  11.331
60655W        W29060  10.285  23.861   5.066
60656W        W29061  18.853   5.817  11.998
60657W        W29062   4.487  17.633  14.726
60658W        W29063  31.626  20.490   0.999
60659W        W29064  24.035  44.576   3.660
60660W        W29065  21.074   8.623  10.528
60661W        W29066  42.924  29.378  14.277
60662W        W29067  27.104  42.711  11.574
60663W        W29068  30.664  21.576   1.199
60664W        W29069   8.777  29.571   3.600
60665W        W29070  35.811  24.794  11.364
60666W        W29071   4.033  31.142  14.823
60667W        W29072  23.805  11.220   2.632
60668W        W29073   6.690  41.145  13.652
60669W        W29074  13.077   5.860   2.191
60670W        W29075   5.724  27.639  10.893
60671W        W29076  39.451  13.319   0.317
60672W        W29077  20.413   9.486   5.663
60673W        W29078  20.940   5.424   2.298
60674W        W29079  41.916  42.165   1.250
60675W        W29080  12.224  44.177   4.664
60676W        W29081   1.889  26.224   1.702
60677W        W29082  35.489  31.046   4.871
60678W        W29083  24.740   6.835  13.376
60679W        W29084  25.319  11.149  11.099
60680W        W29085  10.591  11.950  13.367
60681W        W29086  31.151  35.702  10.353
60682W        W29087  22.584  13.137  10.471
60683W        W29088   8.816   7.893   4.146
60684W        W29089  17.544  27.160   4.006
60685W        W29090  20.740  31.396   0.318
60686W        W29091  15.135  43.705  14.082
60687W        W29092  25.076  19.220  13.649
60688W        W29093  32.791  35.990  14.861
60689W        W29094  19.288  15.556  11.128
60690W        W29095  20.727  25.557  13.021
60691W        W29096  22.794   5.416   1.343
60692W        W29097  20.602  35.781  13.432
60693W        W29098   3.964  21.512  14.725
60694W        W29099   5.352  12.369  14.973
60695W        W29100  29.738  39.995  13.021
60696W        W29101  34.071  23.937   3.842
60697W        W29102  32.645  38.870  12.513
60698W        W29103  23.142  24.994  14.497
60699W        W29104   6.107  44.481   2.843
60700W        W29105  12.537   3.179   9.739
60701W        W29106  36.359  41.342  13.793
60702W        W29107   3.782  42.943   2.823
60703W        W29108  23.043   3.356   4.745
60704W        W29109   0.569  41.821  13.380
60705W        W29110   6.330  35.616   2.570
60706W        W29111  25.006  40.477  14.843
60707W        W29112  24.340  32.009   5.051
60708W        W29113  10.221  13.487  14.014
60709W        W29114   3.676  16.701   1.678
60710W        W29115  36.306  15.649  14.929
60711W        W29116  41.079  21.712   2.254
60712W        W29117   9.166   9.856   4.157
60713W        W29118  34.407  43.231  10.817
60714W        W29119  40.525  42.035   3.297
60715W        W29120   9.451  39.392  13.862
60716W        W29121  11.037   8.095   3.699
60717W        W29122   2.001   5.018  10.699
60718W        W29123   0.923  40.938   2.147
60719W        W29124   1.703  27.887  13.537
60720W        W29125   7.113  11.269   2.719
60721W        W29126   9.908  38.182   2.312
60722W        W29127  15.205  12.770   3.445
60723W        W29128  40.857  11.551  13.213
60724W        W29129  24.227  39.564   1.425
60725W        W29130  12.588  15.300   2.624
60726W        W29131   7.903   1.431  13.116
60727W        W29132  23.687  29.629  10.663
60728W        W29133   6.241  25.081   9.998
60729W        W29134   0.509  24.041   0.751
60730W        W29135  18.581  16.706  10.436
60731W        W29136  36.317  13.357  14.391
60732W        W29137  39.120   9.303  14.458
60733W        W29138  42.731  37.628   1.950
60734W        W29139  31.637   8.613   1.334
60735W        W29140  16.887  16.826  12.908
60736W        W29141  22.438   0.787   1.266
60737W        W29142  25.291  12.821   2.402
60738W        W29143  28.520   2.824   4.266
60739W        W29144  28.475   9.644   3.751
60740W        W29145  17.458   5.762  13.298
60741W        W29146  21.338  11.622  13.587
60742W        W29147  28.679   3.282   4.059
60743W        W29148  25.519   0.658   4.587
60744W        W29149  10.382  22.177   3.254
60745W        W29150  21.505  10.795   0.734
60746W        W29151   1.645   8.939  10.780
60747W        W29152  44.549  44.613  13.403
60748W        W29153  14.108  30.785  11.499
60749W        W29154  22.445  18.969  12.899
60750W        W29155  20.929   6.243   1.815
60751W        W29156  28.535   4.281  11.980
60752W        W29157  25.594  23.581   0.652
60753W        W29158  25.755   9.531  14.052
60754W        W29159  21.256  20.109   0.432
60755W        W29160   4.495   2.815  13.035
60756W        W29161  11.102  19.112  10.642
60757W        W29162  12.314  11.605  10.468
60758W        W29163  15.264  29.127  12.362
60759W        W29164  28.382  16.688  12.507
60760W        W29165   8.504   7.365  13.122
60761W        W29166  16.207  16.825   3.647
60762W        W29167  36.857  12.857   3.219
60763W        W29168   0.496  38.255  14.247
60764W        W29169  17.208  22.057   4.990
60765W        W29170  41.514  14.470  11.557
60766W        W29171  22.279  14.136  12.054
60767W        W29172   3.950  28.038  11.632
60768W        W29173  12.803  27.263  11.524
60769W        W29174  13.850  43.043  14.937
60770W        W29175  23.431  11.658  14.577
60771W        W29176   0.009  35.001  11.559
60772W        W29177   2.387  38.653   2.882
60773W        W29178   6.613  18.838   1.622
60774W        W29179  12.856  35.947  12.013
60775W        W29180   2.503  25.555   2.851
60776W        W29181   3.437  25.862   1.396
60777W        W29182  36.034  14.825  11.166
60778W        W29183   3.281   6.755  10.747
60779W        W29184  38.795  42.785  14.431
60780W        W29185  44.273  21.009  13.533
60781W        W29186  15.309   9.841   2.417
60782W        W29187  39.418   0.460  12.165
60783W        W29188  10.842  24.403   1.317
60784W        W29189  32.196   1.841   4.266
60785W        W29190  29.427  23.295   2.365
60786W        W29191  22.407  15.259   2.652
60787W        W29192  16.026  43.413   4.290
60788W        W29193  22.238  34.915   3.380
60789W        W29194   1.079  35.473  11.511
60790W        W29195  26.907  34.891  13.363
60791W        W29196  13.167  43.366   1.423
60792W        W29197  19.395  42.795   4.071
60793W        W29198  44.454   4.405  11.193
60794W        W29199  41.056  28.438   2.273
60795W        W29200  14.382  17.279  12.105
60796W        W29201  27.559  36.524   0.661
60797W        W29202  34.868  23.399   0.020
60798W        W29203  22.284  20.669  10.256
60799W        W29204  19.464  34.010  12.664
60800W        W29205  42.018  21.341  13.589
60801W        W29206  23.142  16.242   1.233
60802W        W29207  14.450  31.945   1.862
60803W        W29208  15.567   8.501  10.898
60804W        W29209  17.529  25.958   3.262
60805W        W29210   3.207  24.733   2.321
60806W        W29211   6.387   4.369  14.846
60807W        W29212  16.072  44.839  10.844
60808W        W29213  12.681  18.725   0.487
60809W        W29214  12.077   2.843   2.319
60810W        W29215  30.088  30.486  12.881
60811W        W29216   7.512  19.545  11.637
60812W        W29217  12.526  10.905  11.566
60813W        W29218  26.572  17.180  12.400
60814W        W29219  20.292  38.843   0.412
60815W        W29220  27.183   3.228  10.916
60816W        W29221  11.242  36.188  13.051
60817W        W29222  34.392  18.118  13.810
60818W        W29223  38.904  41.301   3.650
60819W        W29224   2.209   1.375   0.854
60820W        W29225  34.453   9.387   3.647
60821W        W29226  40.085   9.619   3.822
60822W        W29227  39.761   5.127   4.178
60823W        W29228  23.029   0.405  10.785
60824W        W29229   1.917  30.650  14.105
60825W        W29230  21.184  17.858  11.813
60826W        W29231  31.618  39.025   3.239
60827W        W29232  44.790  33.289   2.421
60828W        W29233  10.161  29.581  12.131
60829W        W29234   7.860  29.795   3.655
60830W        W29235  20.330  26.964   1.320
60831W        W29236   9.196   1.748   4.683
60832W        W29237  19.912  41.507  14.565
60833W        W29238   5.195   2.849  10.680
60834W        W29239  38.251  10.937  13.567
60835W        W29240  27.990   8.211   1.348
60836W        W29241  36.747  14.529   0.041
60837W        W29242  36.795   9.529   0.201
60838W        W29243  41.277  38.367  10.789
60839W        W29244  35.579  19.288  11.549
60840W        W29245  39.585  28.414   3.177
60841W        W29246  11.321   4.980  11.636
60842W        W29247  30.407  30.051   4.595
60843W        W29248  26.033  34.928   0.464
60844W        W29249  14.285  14.909   2.895
60845W        W29250  31.596  34.554   4.988
60846W        W29251  28.478  18.989  13.293
60847W        W29252   5.000  27.111   3.613
60848W        W29253  28.452  24.519  11.414
60849W        W29254  38.777  36.342  12.602
60850W        W29255  12.287  39.077   1.386
60851W        W29256  36.077  21.967   0.933
60852W        W29257  32.515  29.197  14.844
60853W        W29258  36.366  38.235  11.553
60854W        W29259  11.677  11.744   2.298
60855W        W29260  24.222  20.622   1.731
60856W        W29261  22.615   6.404  10.842
60857W        W29262   6.616  24.707  11.953
60858W        W29263  20.827   4.772  14.020
60859W        W29264  11.608  16.244   2.479
60860W        W29265   7.216  16.338  11.290
60861W        W29266  19.918  40.087  14.471
60862W        W29267  23.890  23.592  14.976
60863W        W29268  26.138  35.638  10.605
60864W        W29269  32.154  34.478  12.489
60865W        W29270  10.613  27.326   3.713
60866W        W29271   9.717  32.111   4.667
60867W        W29272   4.960  44.785  10.438
60868W        W29273  21.196  16.459  13.873
60869W        W29274   4.870  21.748   4.048
60870W        W29275  20.764  22.115   5.567
60871W        W29276  40.511  13.002  10.668
60872W        W29277   6.682  23.297   2.704
60873W        W29278  44.953  44.863  13.191
60874W        W29279   7.570  44.685  12.412
60875W        W29280  10.677  11.419  13.332
60876W        W29281  10.890  40.396   2.258
60877W        W29282  30.391  43.021   5.282
60878W        W29283  12.100  43.688   3.835
60879W        W29284  41.539  25.964  13.844
60880W        W29285  44.490  17.194   3.820
60881W        W29286  30.469  24.958  12.696
60882W        W29287   1.268  39.835  14.353
60883W        W29288   6.908  26.953  11.550
60884W        W29289  32.046  10.838   4.673
60885W        W29290  16.598  42.022   1.149
60886W        W29291  20.566  33.969   3.702
60887W        W29292  27.973   8.702   1.002
60888W        W29293  40.186  15.389   0.155
60889W        W29294  21.481  15.001   2.735
60890W        W29295  11.132  30.775  11.682
60891W        W29296   0.965  32.457  12.473
60892W        W29297  14.417  17.768  14.888
60893W        W29298  20.025  24.024   3.395
60894W        W29299  30.448  24.167  14.382
60895W        W29300  29.171  42.405   0.866
60896W        W29301  44.858   4.268  12.098
60897W        W29302   2.951   3.975  13.511
60898W        W29303  13.449  43.334   0.053
60899W        W29304  17.049  16.597   0.922
60900W        W29305  35.961  25.713   2.426
60901W        W29306  14.735  15.228  11.741
60902W        W29307  22.629   6.993   2.198
60903W        W29308  36.122  36.617   1.883
60904W        W29309  20.065  26.511  11.656
60905W        W29310  15.865  37.331  11.007
60906W        W29311  22.572  38.547  10.297
60907W        W29312  25.173  35.891  13.279
60908W        W29313   5.440  37.725   3.108
60909W        W29314  44.370  39.505  11.012
60910W        W29315  21.910  15.529   1.379
60911W        W29316   8.809  43.214   0.426
60912W        W29317  29.273  41.794   1.999
60913W        W29318  29.582   3.428   1.219
60914W        W29319  25.561  31.924   2.062
60915W        W29320  18.531  11.743   2.403
60916W        W29321   3.924  11.627  10.452
60917W        W29322  44.001  18.756  11.806
60918W        W29323  16.578  42.862  12.110
60919W        W29324  23.783  32.066   3.810
60920W        W29325  20.985  34.282  12.213
60921W        W29326  37.599  44.887   2.201
60922W        W29327  40.127  17.066   2.570
60923W        W29328  15.055  23.445  10.764
60924W        W29329   3.403  30.942   4.191
60925W        W29330  31.941  16.641   4.830
60926W        W29331  20.981  29.833   2.211
60927W        W29332  23.941   3.504  12.468
60928W        W29333   0.477  27.084  12.154
60929W        W29334  13.090  24.854  12.912
60930W        W29335  38.048  35.066  10.681
60931W        W29336  19.213  29.106   2.711
60932W        W29337  22.620   1.956  14.468
60933W        W29338   0.933  28.293  12.394
60934W        W29339  19.937  13.681   2.369
60935W        W29340  18.098  42.543  14.216
60936W        W29341   9.377  18.047  13.584
60937W        W29342  24.527  39.405   4.053
60938W        W29343  30.848  12.669   2.903
60939W        W29344   0.391  11.263   3.327
60940W        W29345  17.817  26.971  11.462
60941W        W29346  42.290   9.016   0.517
60942W        W29347  33.767  41.414  12.325
60943W        W29348  15.545   6.706   4.674
60944W        W29349   7.299  37.955   3.621
60945W        W29350  35.124  44.042  14.335
60946W        W29351  31.410  17.616   1.909
60947W        W29352   0.413  21.722   4.528
60948W        W29353  19.782   7.526  13.037
60949W        W29354  30.877  41.431   2.181
60950W        W29355   0.132  39.881  12.360
60951W        W29356  12.428  41.461   4.842
60952W        W29357  19.269  14.065  13.314
60953W        W29358   4.507   0.878  13.413
60954W        W29359  10.408  21.511   0.148
60955W        W29360  25.386  42.753   0.756
60956W        W29361  40.980  10.601  13.466
60957W        W29362  30.512  23.331   4.732
60958W        W29363  44.793  14.701   4.409
60959W        W29364  16.130   9.869  11.106
60960W        W29365  16.048  28.596  12.483
60961W        W29366  21.976  38.114   1.406
60962W        W29367  25.572  42.902   1.336
60963W        W29368   9.362  17.758  14.046
60964W        W29369  29.641  34.139   3.669
60965W        W29370  14.017  44.570  14.842
60966W        W29371  27.225   2.240   4.874
60967W        W29372  27.574  43.713   2.357
60968W        W29373  11.595  23.580   3.361
60969W        W29374  20.299  31.836   2.137
60970W        W29375   1.091  15.045   3.691
60971W        W29376   4.741   6.783   4.772
60972W        W29377   9.561  42.919  13.406
60973W        W29378  41.897   3.087  10.733
60974W        W29379  29.288   3.445  12.854
60975W        W29380  34.951  16.552   4.143
60976W        W29381  30.325  24.118   1.874
60977W        W29382  30.468  19.807   3.861
60978W        W29383  32.390   4.153  14.961
60979W        W29384   4.789  20.422   2.708
60980W        W29385  21.415  27.157  10.597
60981W        W29386  27.055   4.173  14.901
60982W        W29387  35.420  24.287   3.456
60983W        W29388  11.714  34.317  13.271
60984W        W29389  14.889  17.322  13.938
60985W        W29390  37.900  34.576  13.043
60986W        W29391   4.036   0.092  14.928
60987W        W29392  17.936  44.681  12.122
60988W        W29393  13.194  31.106  13.787
60989W        W29394  31.098  39.211   4.999
60990W        W29395  43.399  39.569   3.406
60991W        W29396  31.015  36.755   3.323
60992W        W29397  40.357  28.055  13.108
60993W        W29398   4.776  22.165   0.391
60994W        W29399  37.666  30.595  14.098
60995W        W29400   4.214  10.656   2.121
60996W        W29401  26.720  24.698   3.168
60997W        W29402  18.392  14.410   1.814
60998W        W29403  12.681  41.188  12.943
60999W        W29404  34.485  31.944  14.541
61000W        W29405   7.713   2.881   2.411
61001W        W29406  32.853  38.946  14.295
61002W        W29407  41.307  15.271  14.451
61003W        W29408  33.500  38.981   2.392
61004W        W29409   3.313  26.931   5.089
61005W        W29410  35.706  18.117  14.310
61006W        W29411  36.068   0.411  13.979
61007W        W29412   1.243  23.566  11.600
61008W        W29413  30.888   6.272   2.199
61009W        W29414  40.931  33.421   4.839
61010W        W29415  17.017  28.547  10.739
61011W        W29416   8.131  43.379  12.532
61012W        W29417  14.780  17.619   4.134
61013W        W29418  43.970   6.706  10.722
61014W        W29419   8.944   6.660  13.998
61015W        W29420  18.811  38.488  10.605
61016W        W29421  24.713  13.807   2.170
61017W        W29422  42.665  43.502   0.478
61018W        W29423  11.443  23.073   0.297
61019W        W29424  41.469  32.622  12.846
61020W        W29425  29.079  33.337  12.455
61021W        W29426   7.882  39.621   0.247
61022W        W29427  26.459  21.071   1.885
61023W        W29428  27.562  28.937   0.429
61024W        W29429  32.138  43.517   1.816
61025W        W29430  39.311  29.392  12.944
61026W        W29431  17.745  15.944   3.685
61027W        W29432  27.289  41.484   5.443
61028W        W29433   5.163  33.948   0.320
61029W        W29434  40.986  38.983   1.752
61030W        W29435   4.387   8.600  13.468
61031W        W29436  11.891   1.690  12.573
61032W        W29437   3.760  28.723   2.779
61033W        W29438   3.895  36.227   3.456
61034W        W29439  38.667  12.865  13.342
61035W        W29440   3.809  42.505   1.732
61036W        W29441   8.750  43.767  14.961
61037W        W29442  22.295   6.187  14.106
61038W        W29443  11.660   5.316  14.979
61039W        W29444  40.778  17.340  12.946
61040W        W29445  26.008   5.620   3.733
61041W        W29446  30.909  32.682  13.833
61042W        W29447   1.714  29.593   3.412
61043W        W29448  20.311   2.479   0.268
61044W        W29449  27.184  16.006   3.374
61045W        W29450   8.293  19.074  14.419
61046W        W29451  30.165  24.102  11.374
61047W        W29452  19.984   8.716  13.072
61048W        W29453  41.373  37.832  14.408
61049W        W29454  41.748   6.630   4.097
61050W        W29455  40.480  24.026   3.767
61051W        W29456  29.087  37.129  11.825
61052W        W29457  10.515  39.351  13.876
61053W        W29458   7.367   4.990   0.229
61054W        W29459  13.418  26.078   2.471
61055W        W29460  21.027   1.498  10.852
61056W        W29461  15.363  23.464   1.913
61057W        W29462  23.523   5.844   0.387
61058W        W29463  10.154  10.064  10.269
61059W        W29464  42.806  21.204  14.860
61060W        W29465  23.146  24.213  14.064
61061W        W29466  25.181  21.027  13.020
61062W        W29467  10.671  10.211  13.273
61063W        W29468  36.342  43.258   2.170
61064W        W29469  10.552  36.932  13.721
61065W        W29470  35.250   7.386  12.088
61066W        W29471  21.463  17.878   2.665
61067W        W29472  38.390   5.890  10.601
61068W        W29473  44.063  34.899  13.002
61069W        W29474   1.740  43.315   2.314
61070W        W29475  38.778  37.159  12.085
61071W        W29476  33.154  20.056  11.196
61072W        W29477  19.812  43.997  13.853
61073W        W29478  22.659   4.339   3.296
61074W        W29479  28.623  43.439  12.970
61075W        W29480  34.629   3.988   4.089
61076W        W29481  22.240  36.220   2.119
61077W        W29482  43.108  25.982   3.439
61078W        W29483  20.618  23.374  12.086
61079W        W29484   5.566  21.113  12.472
61080W        W29485  16.056   8.400   3.191
61081W        W29486  23.093   5.738   4.683
61082W        W29487  40.932  20.717  12.583
61083W        W29488  20.743  29.177   5.189
61084W        W29489  38.510  37.829   4.065
61085W        W29490  18.031  18.744  13.830
61086W        W29491  28.962  16.291  14.769
61087W        W29492  37.838  41.588  14.089
61088W        W29493  27.706   2.458   5.002
61089W        W29494  19.216  41.140   2.047
61090W        W29495  17.592  44.788  12.960
61091W        W29496  38.954  24.431  11.210
61092W        W29497  26.060   7.933  14.727
61093W        W29498  21.464  28.980  12.473
61094W        W29499  18.469  43.261   3.283
61095W        W29500   8.994  26.244  10.668
61096W        W29501  26.246  41.377  10.781
61097W        W29502   3.217   4.713   2.232
61098W        W29503   4.963   9.891   0.333
61099W        W29504  13.097  40.621  11.075
61100W        W29505  10.699  15.980  13.799
61101W        W29506   3.208  42.270  13.516
61102W        W29507  26.088  15.212   3.429
61103W        W29508  38.164  42.995   0.874
61104W        W29509  29.862  38.434  12.862
61105W        W29510  11.293  27.207  10.783
61106W        W29511   0.080  33.079  14.370
61107W        W29512   5.758   9.381   1.390
61108W        W29513  22.476   9.878   1.864
61109W        W29514  39.559   5.391   1.776
61110W        W29515  12.830  28.194  11.804
61111W        W29516   2.601  43.461   0.332
61112W        W29517  11.708   8.237  11.532
61113W        W29518  21.498  35.255  14.348
61114W        W29519  38.934   1.629  13.000
61115W        W29520  12.681  16.104   3.375
61116W        W29521  38.701  29.063   1.706
61117W        W29522   0.100  10.784  14.209
61118W        W29523  12.199   1.245   0.796
61119W        W29524  39.008  17.176   1.832
61120W        W29525  25.575  22.590  13.775
61121W        W29526   8.723  43.211   2.800
61122W        W29527  20.112  35.781   1.476
61123W        W29528  14.826  40.509   1.916
61124W        W29529  23.722  31.000   2.657
61125W        W29530   7.909  30.097  12.558
61126W        W29531  15.472  42.752  11.110
61127W        W29532   5.725  40.902   2.509
61128W        W29533  32.188   3.556  14.523
61129W        W29534  11.356   0.564   1.755
61130W        W29535  11.168  20.054  14.448
61131W        W29536  23.408  36.985  11.960
61132W        W29537  38.923  39.048  10.982
61133W        W29538  35.807  24.231   4.277
61134W        W29539  22.930   8.270   4.752
61135W        W29540  34.455   5.461   0.737
61136W        W29541  18.278   6.929  11.025
61137W        W29542   9.336  11.097   3.257
61138W        W29543   4.151  17.186   4.096
61139W        W29544  32.735   4.500  11.943
61140W        W29545  36.964  11.901  14.135
61141W        W29546  31.589  43.096   0.900
61142W        W29547   9.220   9.832   2.159
61143W        W29548  21.639  14.713   3.695
61144W        W29549  12.256   5.466  11.057
61145W        W29550  28.574   6.231   1.648
61146W        W29551  21.621  12.437  11.234
61147W        W29552  31.585  13.019  13.393
61148W        W29553   2.050  39.507  13.945
61149W        W29554  43.881  26.630   3.146
61150W        W29555  38.820  25.431   5.110
61151W        W29556  31.011  34.005  11.609
61152W        W29557  34.891  16.247  13.142
61153W        W29558   0.465  20.594  13.373
61154W        W29559  12.412  20.691  13.549
61155W        W29560  33.400  42.891   4.033
61156W        W29561  32.596  20.195   3.684
61157W        W29562  12.199  15.296   3.621
61158W        W29563  14.641  34.499  11.488
61159W        W29564  25.524  35.083   4.748
61160W        W29565  24.980  43.698  14.712
61161W        W29566  40.895  28.743   0.929
61162W        W29567  44.452  38.503   3.704
61163W        W29568  36.321  38.542   2.282
61164W        W29569  42.718   5.793   3.578
61165W        W29570  20.636  19.743  13.961
61166W        W29571  34.972  34.405   2.818
61167W        W29572   9.308   3.198   3.273
61168W        W29573  27.214  37.393   0.604
61169W        W29574  25.931  29.502   3.787
61170W        W29575  21.302   3.155   4.146
61171W        W29576  34.037  43.046  11.479
61172W        W29577  33.191  16.564   2.860
61173W        W29578  13.966   3.768  12.795
61174W        W29579   2.760  28.154  11.111
61175W        W29580  42.958  16.764  12.602
61176W        W29581  27.033   3.953   4.533
61177W        W29582  11.018  13.844   0.930
61178W        W29583  40.090  15.177  12.912
61179W        W29584  17.616   8.127  13.438
61180W        W29585   9.579  21.689  14.280
61181W        W29586  24.986  18.156   1.950
61182W        W29587  33.429  33.039  11.767
61183W        W29588  21.113   9.023  10.210
61184W        W29589  38.366   0.284  11.316
61185W        W29590   1.979  39.299  14.751
61186W        W29591   1.467  23.674  10.684
61187W        W29592   9.024   0.500  14.110
61188W        W29593  12.579  24.532   4.535
61189W        W29594   4.402   1.886  10.739
61190W        W29595  44.049   6.895   0.909
61191W        W29596  21.796  29.288   1.919
61192W        W29597  35.316  22.018   1.864
61193W        W29598  35.121  34.621   3.731
61194W        W29599  27.221  32.513  11.474
61195W        W29600  34.245   0.051  14.737
61196W        W29601  28.630  22.791   3.827
61197W        W29602  33.278  38.974   2.871
61198W        W29603   2.295   6.815  10.673
61199W        W29604  35.966  43.777  11.196
61200W        W29605  18.281  37.054   1.688
61201W        W29606  29.113   6.678   4.627
61202W        W29607  21.458   7.392   0.257
61203W        W29608  14.136   8.164   2.639
61204W        W29609  41.063  30.788  11.721
61205W        W29610  33.152  19.758   3.163
61206W        W29611  40.962  31.245  14.334
61207W        W29612  30.074  15.593  11.518
61208W        W29613  34.728  36.578  10.861
61209W        W29614  38.007  24.715  12.923
61210W        W29615  43.368  28.947  13.389
61211W        W29616  26.129   0.085   1.191
61212W        W29617  26.580  43.027   1.945
61213W        W29618  44.759  21.314  12.996
61214W        W29619  39.791  26.183   4.873
61215W        W29620  39.003  27.702  14.059
61216W        W29621  20.462   7.409  12.450
61217W        W29622  35.346  18.466   3.238
61218W        W29623  43.783  26.034  14.730
61219W        W29624   7.241  12.353  12.109
61220W        W29625  33.484   8.396  10.280
61221W        W29626   9.339  20.751  10.650
61222W        W29627  29.858   5.358  10.978
61223W        W29628   2.433  19.021   1.879
61224W        W29629   0.233  16.142  12.506
61225W        W29630  39.847  17.075  12.454
61226W        W29631   5.213   0.518   4.033
61227W        W29632   7.368  13.599   4.537
61228W        W29633  31.667  18.032   1.697
61229W        W29634  24.726  40.222  11.565
61230W        W29635  42.870  39.893  10.885
61231W        W29636  28.372   4.234  10.720
61232W        W29637  44.778  23.997  14.957
61233W        W29638  11.316   5.485  11.705
61234W        W29639  35.501   3.856   4.302
61235W        W29640  12.383   3.431  12.092
61236W        W29641   8.848  30.580  10.171
61237W        W29642  35.419  12.794   3.524
61238W        W29643  32.173  39.600   4.227
61239W        W29644  23.068  28.953   0.231
61240W        W29645  17.669   5.966  12.506
61241W        W29646   1.382  32.020  11.062
61242W        W29647  31.652  29.498  12.063
61243W        W29648  23.475   7.763  13.497
61244W        W29649  21.063  18.369  13.079
61245W        W29650  34.806  22.075  13.789
61246W        W29651  11.525  35.058   0.963
61247W        W29652  36.988   7.641  12.614
61248W        W29653   5.329  36.380   1.749
61249W        W29654  27.095  33.432  11.044
61250W        W29655  30.664  40.370  10.894
61251W        W29656  41.178  20.086  13.179
61252W        W29657  38.507  36.141   3.759
61253W        W29658  19.113  14.537   5.101
61254W        W29659  10.671  15.908  12.802
61255W        W29660  31.015   8.254  14.842
61256W        W29661  41.475  29.704   3.101
61257W        W29662  12.863  37.284   1.285
61258W        W29663   2.496  12.083   2.429
61259W        W29664   8.310  19.296  12.045
61260W        W29665  28.999  34.305  14.469
61261W        W29666  15.719  10.258   3.701
61262W        W29667  29.881  22.695  14.097
61263W        W29668  35.494  24.439  10.686
61264W        W29669   6.253  23.150  13.748
61265W        W29670  37.802  20.601   4.393
61266W        W29671   0.649  18.292   4.186
61267W        W29672   0.222  10.315   0.767
61268W        W29673  38.541  40.532   0.721
61269W        W29674  41.410   7.737   0.955
61270W        W29675   3.196  22.481   1.930
61271W        W29676  31.724  15.527   0.299
61272W        W29677  44.270  37.316   1.024
61273W        W29678  13.470  23.100  11.135
61274W        W29679  18.181  13.044  12.031
61275W        W29680  13.722  14.351   1.504
61276W        W29681  43.639  40.649  12.432
61277W        W29682  39.541  21.802   2.333
61278W        W29683  32.391  40.091  11.853
61279W        W29684  41.492  25.064  12.445
61280W        W29685  15.761   2.006   4.680
61281W        W29686   3.259   3.466  12.802
61282W        W29687   5.385  43.786   4.677
61283W        W29688  30.158   9.222  12.484
61284W        W29689  27.189  20.304   2.790
61285W        W29690  34.390  19.763  10.860
61286W        W29691  11.629  29.076  14.689
61287W        W29692  13.697   2.501   4.552
61288W        W29693  35.600  42.569   2.752
61289W        W29694  33.232  26.155  10.710
61290W        W29695  31.549  21.495   3.181
61291W        W29696   8.388   4.702  13.908
61292W        W29697   7.910  13.867   1.666
61293W        W29698   9.572  24.252  13.287
61294W        W29699  27.177  13.678  12.859
61295W        W29700   5.184   7.257  11.632
61296W        W29701   9.756  23.237  11.637
61297W        W29702  10.589  11.284  12.830
61298W        W29703  23.421   1.290  13.356
61299W        W29704   6.375  42.563   3.312
61300W        W29705  14.734  16.717   2.392
61301W        W29706  10.733   9.492   1.631
61302W        W29707  25.473  38.061   1.017
61303W        W29708  28.766  35.230  11.358
61304W        W29709  29.408  39.928  14.657
61305W        W29710  26.522  32.892   0.970
61306W        W29711  20.203  28.625  10.972
61307W        W29712  22.132  24.185   1.394
61308W        W29713  30.946  12.345  14.360
61309W        W29714  12.373  12.840   4.754
61310W        W29715  23.226  39.428   1.218
61311W        W29716  15.353  16.301   4.264
61312W        W29717  44.895  11.648  11.400
61313W        W29718   5.766  27.536  12.928
61314W        W29719  20.281  20.112   0.360
61315W        W29720  31.906  37.610  14.290
61316W        W29721  11.810  11.167   4.233
61317W        W29722  38.486  40.449  10.695
61318W        W29723  13.534  16.057  14.372
61319W        W29724  16.087  20.408   1.832
61320W        W29725  31.685  38.626   2.345
61321W        W29726   6.207  32.390  10.768
61322W        W29727  10.339  27.827  11.425
61323W        W29728   1.322  24.414   3.218
61324W        W29729  25.481  20.703  10.472
61325W        W29730  27.185  32.997  14.928
61326W        W29731   0.559  24.208  13.934
61327W        W29732  17.808  11.730  10.713
61328W        W29733  18.617  14.714  13.513
61329W        W29734  23.490   3.099  10.634
61330W        W29735  28.668  23.291   3.793
61331W        W29736  41.357  24.510   4.943
61332W        W29737  31.125  15.455  12.618
61333W        W29738  32.544   7.643  13.223
61334W        W29739  11.755  34.382   4.463
61335W        W29740  38.180  28.877  11.747
61336W        W29741  43.126  13.645   0.866
61337W        W29742  36.387   9.619   3.259
61338W        W29743  36.540  36.678   3.219
61339W        W29744  25.140  36.134   1.889
61340W        W29745  20.628   3.680   2.659
61341W        W29746   1.064  43.463  14.401
61342W        W29747  37.156  19.307   1.353
61343W        W29748   0.397   4.244  11.062
61344W        W29749  14.737  11.017   1.851
61345W        W29750  28.559  18.802   3.630
61346W        W29751   7.184  13.270   0.886
61347W        W29752  24.399  13.782  14.473
61348W        W29753  26.050  21.980   1.436
61349W        W29754  22.052   6.212  14.981
61350W        W29755  10.326   0.893   4.174
61351W        W29756  15.572  19.185  11.463
61352W        W29757  20.694  30.564  10.768
61353W        W29758  40.885  33.546  10.457
61354W        W29759  37.443  44.716   2.669
61355W        W29760  41.429   3.000  12.908
61356W        W29761  32.913  27.464  13.405
61357W        W29762  21.743  16.532   2.830
61358W        W29763   9.083  41.498  11.086
61359W        W29764  21.357  29.004  14.320
61360W        W29765   4.427  21.326   4.753
61361W        W29766  10.317  11.292   4.871
61362W        W29767  21.949   4.014  11.041
61363W        W29768  27.501  20.977   3.192
61364W        W29769  21.105   8.119   1.103
61365W        W29770   2.542   7.090   2.312
61366W        W29771   5.906  12.521   1.330
61367W        W29772  22.505  20.322  13.992
61368W        W29773  20.022   4.729  10.943
61369W        W29774   0.897  32.318   9.835
61370W        W29775   7.658  33.759   3.656
61371W        W29776  28.749  44.010  14.070
61372W        W29777  30.221   7.953  12.843
61373W        W29778  39.880  28.160   1.862
61374W        W29779  29.983  19.821   0.320
61375W        W29780  31.139   0.560   1.808
61376W        W29781  15.029  17.463   1.784
61377W        W29782  31.201  40.072   5.128
61378W        W29783   6.984  10.243   1.904
61379W        W29784  39.374  31.844   2.375
61380W        W29785  39.825  40.633   2.808
61381W        W29786   7.451   1.149  12.420
61382W        W29787  23.254  35.212  13.068
61383W        W29788  10.191  34.421   4.758
61384W        W29789  36.109  10.912  12.168
61385W        W29790  33.030  10.399  14.476
61386W        W29791  44.025  34.986  11.717
61387W        W29792  41.766  13.888   2.347
61388W        W29793  12.585  14.661  13.892
61389W        W29794  20.185  20.547  13.003
61390W        W29795  32.086  41.738   4.595
61391W        W29796  35.101  35.547   2.668
61392W        W29797  25.538  43.270   2.813
61393W        W29798  25.767  38.680   2.165
61394W        W29799  29.606  36.652  10.705
61395W        W29800   3.211  13.160   4.105
61396W        W29801  38.777   8.266   3.142
61397W        W29802   7.846  22.281  12.604
61398W        W29803  23.503   5.896  12.072
61399W        W29804  41.930   0.314  14.996
61400W        W29805  16.877  16.001   0.973
61401W        W29806  24.615   1.706  14.811
61402W        W29807  12.338  18.555  11.991
61403W        W29808   0.712   3.314   3.300
61404W        W29809  11.661  16.022  14.959
61405W        W29810  33.848  44.424   0.247
61406W        W29811  27.750  30.187   0.958
61407W        W29812  17.576  44.364   3.667
61408W        W29813  42.510  20.025   0.866
61409W        W29814  26.492  31.410  10.703
61410W        W29815  14.728  35.600  14.398
61411W        W29816  33.887  13.106   2.722
61412W        W29817   2.957  31.083   2.632
61413W        W29818  34.136   0.953  12.908
61414W        W29819  27.023  43.802  14.414
61415W        W29820  26.536   0.523   0.386
61416W        W29821   5.963   6.220   4.900
61417W        W29822  12.962  25.787   3.277
61418W        W29823  39.691  38.613  12.597
61419W        W29824  13.868  32.506   1.038
61420W        W29825  16.121  11.929   2.906
61421W        W29826  27.174  27.002  12.898
61422W        W29827  19.803  42.895   3.233
61423W        W29828  42.944  12.194   3.597
61424W        W29829  32.538  39.656   5.019
61425W        W29830  12.609   1.809   1.277
61426W        W29831  20.947  15.170   3.315
61427W        W29832  13.641  24.971  13.817
61428W        W29833  22.451   7.757  12.615
61429W        W29834   4.784   5.183  13.573
61430W        W29835  19.205  34.367  14.761
61431W        W29836  15.696   0.458  10.336
61432W        W29837   5.802  17.349  11.207
61433W        W29838  16.621  19.343   2.348
61434W        W29839  39.022  29.165   0.410
61435W        W29840  24.973  30.108  10.651
61436W        W29841  38.405  10.723  11.960
61437W        W29842  11.455  12.935   0.782
61438W        W29843  20.723  38.855   4.721
61439W        W29844  26.936  18.219   4.104
61440W        W29845  44.476   4.745  12.473
61441W        W29846  35.362   1.973  12.017
61442W        W29847  34.840  25.898  13.408
61443W        W29848  37.285  17.200  11.328
61444W        W29849   6.792  21.410   3.686
61445W        W29850  21.182  31.525   3.923
61446W        W29851  42.783  39.300  14.278
61447W        W29852   1.456  20.502   4.147
61448W        W29853  25.452   8.781   0.856
61449W        W29854   2.927  32.439   1.645
61450W        W29855   4.977   4.243   1.221
61451W        W29856  36.002  15.072   4.606
61452W        W29857  17.136  24.675  12.482
61453W        W29858  44.831  31.211  11.597
61454W        W29859  15.082  34.221   1.766
61455W        W29860   1.272   7.894  14.902
61456W        W29861  25.646  25.674  14.101
61457W        W29862  23.640  28.253  14.199
61458W        W29863   3.491  17.000   2.183
61459W        W29864  38.944   1.856  10.475
61460W        W29865  43.961  29.015   2.673
61461W        W29866  33.641  34.463  13.377
61462W        W29867  42.404  14.734   3.666
61463W        W29868  40.521  41.309   3.819
61464W        W29869  29.596  18.791   4.045
61465W        W29870   6.736   1.871  14.314
61466W        W29871  27.046  34.885  11.493
61467W        W29872  10.642  34.732   4.692
61468W        W29873   3.877  31.006  14.353
61469W        W29874  31.483   3.431   4.732
61470W        W29875  28.584  10.273  10.575
61471W        W29876  14.826  44.230   4.609
61472W        W29877  42.234   5.183   0.982
61473W        W29878  17.831  31.389  14.449
61474W        W29879  28.368   1.284  10.048
61475W        W29880  10.283  35.416   4.093
61476W        W29881  27.895  33.601  11.144
61477W        W29882  10.655  31.855  13.069
61478W        W29883  44.333  19.479  12.804
61479W        W29884  22.095  14.966   0.366
61480W        W29885   3.488  33.728  14.725
61481W        W29886  31.688   0.349  10.997
61482W        W29887  34.266  42.575  13.973
61483W        W29888  11.135  23.016  12.486
61484W        W29889  21.740  14.671   4.579
61485W        W29890  39.598  16.686   0.705
61486W        W29891   0.788  22.310  10.593
61487W        W29892  26.642  21.727   4.553
61488W        W29893  19.542   0.665   1.434
61489W        W29894  23.363  10.785   3.618
61490W        W29895  38.008  25.490   1.810
61491W        W29896  35.482  37.352  14.651
61492W        W29897  31.589  27.408   3.703
61493W        W29898   2.226   6.119  13.897
61494W        W29899  25.121   8.740   0.445
61495W        W29900   0.962   3.887  12.027
61496W        W29901  25.817  20.362  11.931
61497W        W29902  37.583   9.131   3.314
61498W        W29903  44.352  19.773   0.582
61499W        W29904   3.185  25.246   2.330
61500W        W29905  15.473  40.954  11.377
61501W        W29906  38.930  18.477  13.924
61502W        W29907  36.844  16.704  12.916
61503W        W29908  44.745  28.915   0.423
61504W        W29909  14.472   0.472  10.927
61505W        W29910  41.595  30.550  10.406
61506W        W29911   9.869  17.334   3.671
61507W        W29912  35.915  30.054   1.308
61508W        W29913  35.768  33.466  11.741
61509W        W29914  32.517  15.437  11.027
61510W        W29915  23.538  11.800   3.608
61511W        W29916   8.626   5.196  13.056
61512W        W29917  37.320  25.220   3.117
61513W        W29918  21.870   4.078   3.937
61514W        W29919  38.469   6.397  10.381
61515W        W29920   1.759  23.003  11.998
61516W        W29921  16.412  16.676  13.375
61517W        W29922   4.572  31.944   2.753
61518W        W29923  23.585  14.635   1.197
61519W        W29924  36.437  12.356  11.996
61520W        W29925  34.750  36.016  14.983
61521W        W29926   7.427   3.367   1.225
61522W        W29927  11.356  36.300   1.036
61523W        W29928  35.426  22.952   1.284
61524W        W29929  14.414  23.055   3.716
61525W        W29930  22.718  17.698  14.347
61526W        W29931  27.629  43.747  14.776
61527W        W29932  33.439  21.684  12.137
61528W        W29933  37.116  36.818  10.382
61529W        W29934  32.828  15.654  10.012
61530W        W29935   2.997  11.227  14.903
61531W        W29936  23.805  37.891   0.203
61532W        W29937  20.011  14.651  14.899
61533W        W29938   5.912  38.030  14.250
61534W        W29939  28.673  36.088   3.136
61535W        W29940   5.311   6.709  12.273
61536W        W29941  40.041  29.183   0.937
61537W        W29942   6.890  15.275   4.245
61538W        W29943  31.892  26.680  12.202
61539W        W29944  21.396  25.068  12.159
61540W        W29945  33.017  20.316   0.682
61541W        W29946  11.640  23.418   1.341
61542W        W29947   0.854   8.470  10.733
61543W        W29948   6.274   0.317  11.533
61544W        W29949  38.123  17.764   0.420
61545W        W29950  26.531  39.204  14.443
61546W        W29951  14.127  17.678  13.380
61547W        W29952  12.592   3.423   2.812
61548W        W29953   0.706  40.350  11.591
61549W        W29954  29.530  42.479   4.633
61550W        W29955   8.642  31.010  13.824
61551W        W29956  29.487  17.010  14.831
61552W        W29957  13.125  33.481  11.988
61553W        W29958  31.031   0.502  13.738
61554W        W29959  43.330  11.986  11.598
61555W        W29960  19.518   9.170  11.520
61556W        W29961   1.301  15.489  12.008
61557W        W29962  36.193  21.434  10.477
61558W        W29963  25.586   7.113  11.272
61559W        W29964  24.182  27.218  11.000
61560W        W29965  11.396  18.634   9.695
61561W        W29966  34.218  34.122  12.204
61562W        W29967  33.585  18.393   3.156
61563W        W29968  10.359  21.635  10.672
61564W        W29969   6.321   4.286  11.251
61565W        W29970   3.804   4.658   1.383
61566W        W29971  19.971  42.221  13.989
61567W        W29972  20.552  27.065   0.376
61568W        W29973  22.019  39.656   4.884
61569W        W29974  16.874   7.356  14.458
61570W        W29975  16.428  10.574   2.698
61571W        W29976  40.982  29.625   0.851
61572W        W29977   3.501   6.600  13.881
61573W        W29978   3.126  24.292  10.642
61574W        W29979  42.945  21.150   1.949
61575W        W29980   9.738   9.604   3.934
61576W        W29981  12.744  12.272  13.963
61577W        W29982  29.032   3.500   1.974
61578W        W29983   8.911  41.843   4.410
61579W        W29984  13.794   8.175  14.330
61580W        W29985   3.309  17.519  10.410
61581W        W29986  42.420  39.383   3.134
61582W        W29987  24.035  40.475  14.812
61583W        W29988  18.778  21.509  14.485
61584W        W29989  38.646  15.772  11.252
61585W        W29990   7.781  33.933   4.185
61586W        W29991  16.593  10.354   0.419
61587W        W29992  41.510  14.309   0.345
61588W        W29993  25.423   0.049   4.349
61589W        W29994  20.090  42.848  11.723
61590W        W29995  30.129   0.269  13.838
61591W        W29996  25.565  17.767   4.635
61592W        W29997  18.856   9.828   4.820
61593W        W29998  37.361  28.577   3.717
61594W        W29999   8.093  44.731  12.515
61595W        W30000  23.134   2.997  13.463
61596W        W30001   1.321  37.983  14.017
61597W        W30002   7.968  40.324   1.753
61598W        W30003  11.572  10.167   1.762
61599W        W30004  34.394   9.919   4.136
61600W        W30005  25.325   4.918  10.693
61601W        W30006  34.581  14.283   4.469
61602W        W30007   0.661  14.692   4.547
61603W        W30008  25.953  41.063  13.561
61604W        W30009  26.871  11.201   4.036
61605W        W30010  18.480   8.754   2.965
61606W        W30011  31.559  27.092   1.441
61607W        W30012  15.725  22.058  12.658
61608W        W30013  37.724  25.739  14.998
61609W        W30014  30.718  29.720  11.123
61610W        W30015  44.069  35.537  13.524
61611W        W30016  23.598   1.831   4.353
61612W        W30017  14.351   3.211  11.576
61613W        W30018  26.275   2.775  12.509
61614W        W30019   2.765  42.764  12.745
61615W        W30020   1.489   3.095  10.429
61616W        W30021  19.096  22.477   0.712
61617W        W30022  17.042  12.651   1.921
61618W        W30023  38.062  22.027  13.417
61619W        W30024  33.324  20.064   2.318
61620W        W30025  39.041  15.083  13.899
61621W        W30026   8.408  30.562   3.613
61622W        W30027  41.801  39.458  14.463
61623W        W30028   8.452  25.362   3.386
61624W        W30029  25.491   4.278  13.865
61625W        W30030   2.435  21.702   1.052
61626W        W30031  41.702  31.385   2.213
61627W        W30032  43.894  31.013   3.552
61628W        W30033  30.854   5.461   3.632
61629W        W30034  22.627  41.304  11.079
61630W        W30035   6.685   1.570   2.269
61631W        W30036  30.757   5.857   4.931
61632W        W30037  39.332   9.318  11.561
61633W        W30038  18.373  24.413   1.053
61634W        W30039  44.012  15.555  10.538
61635W        W30040   9.120  16.094  13.496
61636W        W30041  12.207  28.761   4.121
61637W        W30042  29.529  36.512   3.542
61638W        W30043  26.573  11.200  12.051
61639W        W30044  23.954  29.621   2.233
61640W        W30045  23.758  12.748   2.977
61641W        W30046   0.284   2.396  14.980
61642W        W30047  13.699   2.697   2.323
61643W        W30048  27.077  38.475   4.742
61644W        W30049  40.401  22.762   0.917
61645W        W30050  29.111  29.588  14.784
61646W        W30051  37.013  26.658  11.130
61647W        W30052  40.882  17.772   3.357
61648W        W30053  30.094   6.969   1.244
61649W        W30054   6.340  41.543   0.105
61650W        W30055  13.633  18.455  14.154
61651W        W30056  16.184   8.965  10.655
61652W        W30057  19.322  30.358   3.195
61653W        W30058  12.237  24.875   4.768
61654W        W30059  40.796   2.216   3.266
61655W        W30060  28.039  14.142   0.440
61656W        W30061   5.810   2.023   2.898
61657W        W30062  34.487   1.015  12.484
61658W        W30063   5.056  10.134   0.820
61659W        W30064   3.667  26.542   1.817
61660W        W30065  10.836   2.688   1.756
61661W        W30066  17.306   4.201  13.293
61662W        W30067  27.682  22.766  12.530
61663W        W30068   0.897   1.312   3.321
61664W        W30069   4.421  15.182  14.296
61665W        W30070  26.532  36.307   0.002
61666W        W30071  14.527  26.079   2.876
61667W        W30072  38.533  30.152  13.107
61668W        W30073  18.546  37.825  13.530
61669W        W30074  24.229  34.586  14.073
61670W        W30075   0.332  43.992   1.278
61671W        W30076  21.131  35.660  14.363
61672W        W30077  25.866  42.890   0.885
61673W        W30078  16.681  10.896   4.883
61674W        W30079  44.423  23.539   1.720
61675W        W30080  42.075  12.069   3.701
61676W        W30081  20.706  30.046  13.158
61677W        W30082  39.037  28.411  11.671
61678W        W30083  14.315  15.063   2.396
61679W        W30084  16.219   9.536  13.983
61680W        W30085  26.956   8.646   4.899
61681W        W30086  10.876  29.158   3.561
61682W        W30087   8.434  18.824  13.976
61683W        W30088  25.554   9.613  11.124
61684W        W30089  35.451  19.600   4.272
61685W        W30090  40.698  32.099  10.709
61686W        W30091  40.226   4.830   4.448
61687W        W30092  18.891   3.117  12.954
61688W        W30093  39.859  21.769  14.388
61689W        W30094  38.284  39.472  11.437
61690W        W30095  22.650  27.078  14.866
61691W        W30096  35.821  42.253  11.142
61692W        W30097   6.181  24.971  11.524
61693W        W30098   3.126  35.981  12.084
61694W        W30099  39.475  17.552  14.112
61695W        W30100  41.944  20.257   4.123
61696W        W30101  30.086   9.358   0.716
61697W        W30102  14.094  16.265   4.614
61698W        W30103   6.435  18.442   2.283
61699W        W30104  42.275  34.576  12.496
61700W        W30105  23.697  23.460  10.709
61701W        W30106  12.219   5.690   1.324
61702W        W30107  43.966  14.318   0.432
61703W        W30108  10.506   5.253   3.311
61704W        W30109  17.126  41.342  10.601
61705W        W30110  12.758  22.025  10.888
61706W        W30111  21.743  15.922  13.341
61707W        W30112  36.487  13.496   1.793
61708W        W30113   3.388  27.610   2.241
61709W        W30114   2.416  27.095  13.371
61710W        W30115  37.176  33.474   4.689
61711W        W30116  21.428   8.434   2.542
61712W        W30117  16.191   3.320   0.042
61713W        W30118  30.040   4.677   1.247
61714W        W30119  32.029  42.528   4.095
61715W        W30120   5.417  34.053   0.763
61716W        W30121  39.294   8.359  14.983
61717W        W30122  26.576  24.426   2.170
61718W        W30123  42.004  21.098   4.488
61719W        W30124   1.646  32.578   0.258
61720W        W30125   7.300   3.682   3.689
61721W        W30126  27.599  23.280   3.280
61722W        W30127  11.027  18.580   0.688
61723W        W30128  13.588  37.727   4.994
61724W        W30129  29.083  22.771  11.181
61725W        W30130  15.697  42.952   5.013
61726W        W30131   9.337   7.883  14.525
61727W        W30132  24.908  34.167  11.616
61728W        W30133  41.861  13.394   0.965
61729W        W30134  44.253  30.162   2.297
61730W        W30135  33.854  32.176   1.006
61731W        W30136  31.950   7.159   3.063
61732W        W30137  43.061  33.997   4.550
61733W        W30138  42.080  10.430  10.187
61734W        W30139  29.669  29.464  12.145
61735W        W30140  24.575   4.377  10.674
61736W        W30141  19.311  36.614  13.524
61737W        W30142  15.159  22.773  13.583
61738W        W30143  21.666  31.304   3.111
61739W        W30144  12.198  19.469   0.318
61740W        W30145  20.192  26.094   3.248
61741W        W30146   6.108  14.742  11.977
61742W        W30147  23.464  36.626   3.181
61743W        W30148  39.947   3.149   3.616
61744W        W30149   7.892  30.392   3.598
61745W        W30150   8.698  38.927   2.161
61746W        W30151  18.524  29.199   3.673
61747W        W30152  33.459  19.249   4.286
61748W        W30153  23.717  36.549   2.280
61749W        W30154   1.903  43.438  14.012
61750W        W30155  41.285  22.452  11.975
61751W        W30156  21.027   0.339   0.282
61752W        W30157  19.219  42.063  10.828
61753W        W30158  41.092  26.429   3.075
61754W        W30159  42.089  36.397  12.961
61755W        W30160  31.495   4.459   4.889
61756W        W30161  32.378   5.345   2.358
61757W        W30162  18.292  43.383  14.757
61758W        W30163  13.327  41.254   0.757
61759W        W30164  14.113  38.366  14.313
61760W        W30165  21.763  37.087  13.767
61761W        W30166  43.431  19.289  10.539
61762W        W30167  21.501   6.881  13.113
61763W        W30168  11.844  27.533   3.702
61764W        W30169  44.525  18.951   2.135
61765W        W30170  35.664   6.147  11.253
61766W        W30171  11.630   0.430   0.998
61767W        W30172  37.845  30.003   4.319
61768W        W30173   5.319   2.381  10.889
61769W        W30174  17.788   9.571  12.912
61770W        W30175  42.269   2.840   2.861
61771W        W30176  18.305   0.462   0.578
61772W        W30177  40.708   9.113  12.610
61773W        W30178  12.665   6.863  14.581
61774W        W30179  26.650  12.250  13.151
61775W        W30180  13.767  31.391   1.706
61776W        W30181  10.628  31.363  13.199
61777W        W30182  12.583  10.353   2.821
61778W        W30183  12.337   8.463   2.591
61779W        W30184  43.969  38.019   4.187
61780W        W30185  24.678  18.596   4.094
61781W        W30186  12.227  28.144   0.621
61782W        W30187   5.822  19.511  13.396
61783W        W30188   3.128  42.453   4.236
61784W        W30189  15.270  44.732  12.574
61785W        W30190  21.053  23.239  10.925
61786W        W30191  12.369  41.537   0.364
61787W        W30192  28.103  30.338  11.198
61788W        W30193  24.455  18.352   3.410
61789W        W30194   4.662  35.644  14.826
61790W        W30195  30.378   7.259   0.868
61791W        W30196  12.538  29.084   1.796
61792W        W30197  29.699   7.802   4.634
61793W        W30198  36.142  43.221   2.830
61794W        W30199  21.121  39.468  12.533
61795W        W30200  13.045  27.923   3.925
61796W        W30201   0.652  26.141   1.499
61797W        W30202  37.957  11.911   4.625
61798W        W30203  13.377  21.255   0.809
61799W        W30204  44.246  39.419   3.236
61800W        W30205   1.223   3.253   0.055
61801W        W30206  29.462  35.441   0.893
61802W        W30207   9.675   2.532  14.724
61803W        W30208   8.256  39.088  12.176
61804W        W30209  16.939   0.632   2.428
61805W        W30210  40.971  29.929   4.338
61806W        W30211  24.031  10.796   2.852
61807W        W30212  40.752  19.176   0.703
61808W        W30213  44.623  13.043   0.247
61809W        W30214  35.592  18.691  14.769
61810W        W30215   2.649  31.958   4.295
61811W        W30216   9.758  36.886  14.154
61812W        W30217  38.483  34.997   4.629
61813W        W30218  30.403   2.769   3.235
61814W        W30219  29.097  23.021   3.713
61815W        W30220  41.777  17.966  11.797
61816W        W30221  32.343  34.915   2.705
61817W        W30222  20.009  11.409  13.508
61818W        W30223  43.754  31.078  13.075
61819W        W30224  26.879  14.602  14.477
61820W        W30225  18.189   4.956   4.654
61821W        W30226  39.903  32.543  14.993
61822W        W30227   9.907  44.478  12.991
61823W        W30228   3.580  26.496   3.766
61824W        W30229  18.120  31.943   3.153
61825W        W30230  20.803  37.988   2.746
61826W        W30231  20.994  10.772   1.412
61827W        W30232  26.704   3.514   3.239
61828W        W30233   5.307  31.233  10.831
61829W        W30234  16.657  30.730  14.478
61830W        W30235  10.641  33.811   1.322
61831W        W30236  44.537   6.191   2.187
61832W        W30237   1.949  10.223  14.884
61833W        W30238  41.380  15.756   2.261
61834W        W30239   7.247  41.418   3.090
61835W        W30240  34.423  11.837  14.282
61836W        W30241  11.128  17.738  11.545
61837W        W30242  20.761  35.656   0.990
61838W        W30243  12.678  21.749   0.380
61839W        W30244   9.357  22.065   4.424
61840W        W30245  16.104   2.361   3.564
61841W        W30246  33.410  13.860   1.748
61842W        W30247  17.499  14.072   1.793
61843W        W30248  35.901  44.826   2.773
61844W        W30249  20.549  17.085   0.655
61845W        W30250  19.755   5.294  12.540
61846W        W30251   1.327  13.366  13.934
61847W        W30252  31.154  29.291  14.839
61848W        W30253  13.380   9.602  12.976
61849W        W30254  30.954  38.596   0.118
61850W        W30255  11.195  37.774   1.458
61851W        W30256  11.303  25.236  10.921
61852W        W30257  34.872  35.334   4.026
61853W        W30258  17.077  43.480   0.678
61854W        W30259   2.828  20.741   3.584
61855W        W30260  15.192  13.582   1.982
61856W        W30261  14.406  13.260   1.799
61857W        W30262  36.918  14.629   4.613
61858W        W30263  11.834  30.857  13.894
61859W        W30264   6.174  27.168  14.286
61860W        W30265  30.518   8.555   0.847
61861W        W30266  44.371  32.331  14.361
61862W        W30267   9.682  25.781  14.515
61863W        W30268  10.145  14.277  13.533
61864W        W30269   7.124  41.297  13.399
61865W        W30270   4.548  23.232  11.520
61866W        W30271  29.349  24.072  10.956
61867W        W30272  38.119  27.260   1.417
61868W        W30273  31.386  13.276   2.358
61869W        W30274  14.821  37.011   3.245
61870W        W30275  24.060  18.468   3.759
61871W        W30276  32.590   0.416  10.869
61872W        W30277  37.772  44.662  10.376
61873W        W30278  25.043  15.350   4.872
61874W        W30279  31.878  11.544   5.208
61875W        W30280  22.820  37.552   1.385
61876W        W30281  37.683  41.817   2.308
61877W        W30282  31.094  30.951  11.630
61878W        W30283   7.623  26.077   0.449
61879W        W30284  29.022  12.428   4.188
61880W        W30285   4.193   0.666  12.425
61881W        W30286   5.219   9.427   2.699
61882W        W30287  16.182  12.744  11.015
61883W        W30288  25.073  10.501   2.269
61884W        W30289  41.304  18.608   3.721
61885W        W30290  34.317   8.181  11.863
61886W        W30291   8.637  40.769  14.904
61887W        W30292  36.628  18.756  12.443
61888W        W30293  18.203   5.175   1.881
61889W        W30294  12.197  15.468  11.510
61890W        W30295  26.319  23.961   4.394
61891W        W30296  26.565  44.383  11.962
61892W        W30297  40.133  32.303   3.408
61893W        W30298   0.652  20.075   4.028
61894W        W30299   0.809   9.742   3.137
61895W        W30300  19.316  29.630   1.779
61896W        W30301  39.453   6.120   2.843
61897W        W30302  30.646  15.118  13.446
61898W        W30303   8.149  33.091   3.375
61899W        W30304  35.492  43.797   1.816
61900W        W30305   7.207  38.164  12.432
61901W        W30306   5.574  17.800  11.190
61902W        W30307  21.801   5.909  12.933
61903W        W30308  14.606  11.135   1.051
61904W        W30309  13.996  35.892  12.883
61905W        W30310  28.692  32.846   3.817
61906W        W30311  44.643  22.076   0.051
61907W        W30312   6.211  28.517  12.205
61908W        W30313  13.585  23.630  13.388
61909W        W30314  36.369   5.370  11.363
61910W        W30315   7.104  18.610  11.944
61911W        W30316  28.757  24.254   0.924
61912W        W30317  30.646  28.521  12.849
61913W        W30318  28.979   1.353  10.892
61914W        W30319  17.725  39.508  12.605
61915W        W30320  18.120  35.354  13.477
61916W        W30321  33.048  17.541  13.811
61917W        W30322  21.985  37.108  10.605
61918W        W30323  43.424  33.536  14.347
61919W        W30324   5.030  37.567   2.817
61920W        W30325  14.272  28.912  14.285
61921W        W30326   6.234  25.042  12.761
61922W        W30327  10.916  40.814  14.252
61923W        W30328  14.733  29.159  14.363
61924W        W30329   0.844  36.353   0.513
61925W        W30330   7.529   7.067  10.342
61926W        W30331  41.785  44.808  12.783
61927W        W30332  42.584  44.329  11.825
61928W        W30333  29.257  32.588  12.201
61929W        W30334   3.786  10.584   1.336
61930W        W30335  33.677  22.255   3.350
61931W        W30336   5.633   8.040   3.781
61932W        W30337   5.011  26.452   2.175
61933W        W30338  23.650  44.926  14.864
61934W        W30339   8.270  33.576  13.396
61935W        W30340   5.607  20.845   2.718
61936W        W30341  28.606  25.554   3.220
61937W        W30342  27.800  23.270  12.520
61938W        W30343  40.416  27.424   0.721
61939W        W30344   3.813  33.106  13.147
61940W        W30345  16.609   6.192   4.176
61941W        W30346  30.707  24.004   4.557
61942W        W30347  32.771  40.247  14.813
61943W        W30348  27.801   5.732  13.813
61944W        W30349  39.011   4.273  13.044
61945W        W30350   5.818  44.374   2.414
61946W        W30351  22.735  37.302   0.483
61947W        W30352   9.836  38.305  11.450
61948W        W30353   8.070  44.571   1.237
61949W        W30354   1.252  11.193   0.189
61950W        W30355  32.987  31.197  11.564
61951W        W30356  44.189   9.547   2.857
61952W        W30357  28.961  10.308   4.105
61953W        W30358  29.908  38.061   0.977
61954W        W30359   6.774  14.505  13.372
61955W        W30360  22.232  40.622  13.437
61956W        W30361   6.292  15.517   1.902
61957W        W30362  14.603   0.933  13.580
61958W        W30363   9.669  19.616   4.558
61959W        W30364   1.165   1.378   2.026
61960W        W30365  41.933   7.820  14.298
61961W        W30366  23.602  26.268   1.912
61962W        W30367  20.512  30.502  13.110
61963W        W30368  26.638   9.811  14.278
61964W        W30369  19.447  18.023  11.833
61965W        W30370   2.619  43.855   0.991
61966W        W30371  15.185  25.946  10.636
61967W        W30372  28.287  32.122  14.965
61968W        W30373  38.003  26.347   3.236
61969W        W30374  38.492  43.968   0.916
61970W        W30375  35.896  27.585   3.255
61971W        W30376  15.653   0.790   1.018
61972W        W30377  11.915  17.585  11.883
61973W        W30378   5.246   2.218   2.372
61974W        W30379   1.479  30.656   3.638
61975W        W30380  35.025  17.338   1.249
61976W        W30381  29.712  15.846  13.769
61977W        W30382  13.814  29.427   1.601
61978W        W30383   5.169  21.760   2.925
61979W        W30384  42.433  20.499  12.506
61980W        W30385  28.924  12.639  11.466
61981W        W30386  27.606   2.789   2.182
61982W        W30387  37.307  30.558  11.257
61983W        W30388  29.048  16.265  10.940
61984W        W30389  24.069  18.341   1.618
61985W        W30390  43.398  23.548   3.037
61986W        W30391  31.192  16.210   5.105
61987W        W30392  40.526  15.801  12.497
61988W        W30393   5.918  21.466   1.541
61989W        W30394  33.271  32.575  11.656
61990W        W30395   5.660   2.405   3.850
61991W        W30396  34.132  22.469  11.384
61992W        W30397  42.286   7.227   1.972
61993W        W30398  17.095  37.684  13.365
61994W        W30399   0.692  28.207   0.966
61995W        W30400   7.179   5.499   2.776
61996W        W30401  14.331  31.629   0.989
61997W        W30402  19.139  12.498   3.869
61998W        W30403  27.030  37.887   4.127
61999W        W30404  22.505   0.481  10.788
62000W        W30405  26.100  16.773   0.058
62001W        W30406  12.135  17.698  10.486
62002W        W30407  43.521  44.433   2.729
62003W        W30408  23.728  31.225  14.913
62004W        W30409  10.673  22.500  14.473
62005W        W30410  41.457  19.359   4.086
62006W        W30411  25.998  18.567  13.058
62007W        W30412  17.167  40.362   4.289
62008W        W30413  10.840  40.012  11.057
62009W        W30414   2.481  29.131   4.121
62010W        W30415  25.524  39.935   3.692
62011W        W30416   0.798  36.267   5.067
62012W        W30417  28.027  39.302   0.377
62013W        W30418  19.400  28.310   2.532
62014W        W30419   9.404  41.213  11.356
62015W        W30420  29.734  24.175   1.210
62016W        W30421   0.812  17.945   0.450
62017W        W30422  18.209  12.432  12.941
62018W        W30423  18.516  37.553   2.952
62019W        W30424  28.952  10.340  11.145
62020W        W30425   4.536   0.930   3.606
62021W        W30426  32.483  11.732   2.587
62022W        W30427   3.515  11.173   2.358
62023W        W30428  26.101   8.326  12.100
62024W        W30429  27.679  17.239  12.528
62025W        W30430  20.051  26.111  14.804
62026W        W30431  27.890  36.915   0.855
62027W        W30432  20.751  36.707   3.337
62028W        W30433  25.474  34.142  12.872
62029W        W30434  34.572  37.365   5.054
62030W        W30435  43.372  43.819  12.081
62031W        W30436  11.693  27.706   3.230
62032W        W30437  24.513   3.974  12.032
62033W        W30438  32.585  35.387   4.016
62034W        W30439  35.723  44.918  14.143
62035W        W30440   5.936  37.491   3.154
62036W        W30441   8.265   6.759   1.778
62037W        W30442   8.256  14.098  10.690
62038W        W30443  15.689  24.025  11.950
62039W        W30444  40.321  23.578   0.478
62040W        W30445  39.152  37.489  13.222
62041W        W30446   3.972  32.886   0.711
62042W        W30447  29.164  15.829   3.316
62043W        W30448  25.438  31.997  11.382
62044W        W30449  23.482  20.531  13.084
62045W        W30450   1.329  15.426   0.850
62046W        W30451  13.097  14.209   2.804
62047W        W30452  19.427  14.757   4.137
62048W        W30453  36.037  27.406   2.756
62049W        W30454  37.573  18.293  10.682
62050W        W30455   9.753  11.814   0.511
62051W        W30456  24.967   9.192   0.031
62052W        W30457  28.793  24.653   2.161
62053W        W30458  24.972   7.794   1.281
62054W        W30459  11.686  35.100  12.552
62055W        W30460  23.524   1.679   2.414
62056W        W30461  28.462  37.902   2.678
62057W        W30462  21.626  16.420  13.439
62058W        W30463   6.184   5.989   0.958
62059W        W30464   7.353  18.027  14.474
62060W        W30465  23.547  12.665   4.197
62061W        W30466  30.247  44.016  11.531
62062W        W30467  34.441   1.375  14.779
62063W        W30468   9.205   4.991   2.713
62064W        W30469  26.187  36.569  14.540
62065W        W30470  40.551  13.632  11.179
62066W        W30471  14.025  22.004  12.953
62067W        W30472   3.286   2.798   3.247
62068W        W30473   8.486  40.093   1.842
62069W        W30474  38.336  39.565  11.960
62070W        W30475  19.125   8.541   4.590
62071W        W30476  43.531  22.976   1.707
62072W        W30477  41.284   7.787   0.004
62073W        W30478  29.941  27.683  12.305
62074W        W30479  32.012  12.071  10.519
62075W        W30480   2.699  12.657   1.382
62076W        W30481  20.764  31.922   0.363
62077W        W30482  35.843  23.969   2.730
62078W        W30483   8.619  22.193  14.897
62079W        W30484  29.546  25.047   0.314
62080W        W30485   0.885  38.323  11.162
62081W        W30486   4.339  35.895  11.683
62082W        W30487  32.565  21.153  10.493
62083W        W30488   8.917   0.494   3.275
62084W        W30489  40.908  13.519  12.913
62085W        W30490   6.825  20.507  14.951
62086W        W30491  41.528  14.212  12.828
62087W        W30492  16.713  39.409   1.191
62088W        W30493   7.647   5.253   2.792
62089W        W30494   0.384   4.526   3.310
62090W        W30495  18.587  42.092   2.646
62091W        W30496  38.850  26.919  14.409
62092W        W30497   0.889  40.635   4.548
62093W        W30498  28.709   8.708   0.280
62094W        W30499   9.388  39.809  11.227
62095W        W30500   8.204  43.676  12.008
62096W        W30501   6.281  42.719  13.925
62097W        W30502  36.058   1.373   4.964
62098W        W30503  34.545   0.898   3.430
62099W        W30504  36.414   5.316   1.283
62100W        W30505  35.940  10.998  10.997
62101W        W30506  42.871  24.704  13.832
62102W        W30507  41.354  34.066   2.787
62103W        W30508   0.485   5.412  11.613
62104W        W30509  15.695  28.542  11.391
62105W        W30510   5.689  36.298   3.691
62106W        W30511  22.387  19.507   2.363
62107W        W30512  22.005  25.950   2.693
62108W        W30513  41.539  40.192   3.033
62109W        W30514  31.157  29.623   3.362
62110W        W30515  13.119  30.633  11.613
62111W        W30516  35.959  17.217   0.767
62112W        W30517  40.454  24.163   1.799
62113W        W30518   7.225  26.810  13.479
62114W        W30519  34.878   7.335  12.959
62115W        W30520  26.446  39.600   0.387
62116W        W30521   0.120   8.160   5.183
62117W        W30522   9.273   9.743   1.644
62118W        W30523  10.478  26.190   0.789
62119W        W30524  27.107  32.056   2.945
62120W        W30525  19.371  12.025  13.571
62121W        W30526   4.195  44.494   3.135
62122W        W30527  27.967  14.609   3.271
62123W        W30528   4.509  25.425  12.088
62124W        W30529  25.360   2.999   0.403
62125W        W30530   3.688  37.485   4.664
62126W        W30531  11.521  39.921  10.713
62127W        W30532  13.118  38.068  12.120
62128W        W30533  18.529  28.438  10.407
62129W        W30534  40.813  39.650   0.486
62130W        W30535   3.181   3.463  12.292
62131W        W30536  44.101  32.090  13.942
62132W        W30537  40.282  44.365  11.018
62133W        W30538  42.758  23.736  13.893
62134W        W30539   8.304   9.752  13.459
62135W        W30540  10.340  36.179  10.623
62136W        W30541  43.196  23.898  12.507
62137W        W30542   7.872  29.004   3.076
62138W        W30543  29.670  10.008   5.257
62139W        W30544  33.927  24.413   0.789
62140W        W30545  34.506   3.475  10.746
62141W        W30546  40.088  34.210  12.048
62142W        W30547  29.161  30.590   2.710
62143W        W30548  35.026  39.889   4.651
62144W        W30549  37.714   9.820  10.276
62145W        W30550  10.133  36.515   0.420
62146W        W30551   3.207  30.605   1.868
62147W        W30552  18.556  13.782   2.164
62148W        W30553   0.892   2.184   4.136
62149W        W30554   8.723  30.146  13.527
62150W        W30555  11.256  25.166   0.417
62151W        W30556  16.557   9.407  14.381
62152W        W30557  16.983  31.291  12.964
62153W        W30558   4.398  16.743  10.715
62154W        W30559  13.942  11.211  13.291
62155W        W30560  43.793  42.848   3.506
62156W        W30561  40.337  35.351  11.158
62157W        W30562  26.153   0.477  13.879
62158W        W30563  13.081  42.491  11.753
62159W        W30564  34.250  37.238  13.647
62160W        W30565  30.479  39.496   4.662
62161W        W30566  42.506  40.039   2.763
62162W        W30567  26.648  33.609  11.210
62163W        W30568  19.143   9.890   0.412
62164W        W30569  20.671  38.847  13.305
62165W        W30570  42.009  14.758   4.997
62166W        W30571  31.962   7.126   4.214
62167W        W30572  17.784  11.301  12.813
62168W        W30573  36.565  34.650   3.644
62169W        W30574  23.482  32.904  13.275
62170W        W30575  29.928   1.636   1.318
62171W        W30576   6.386  17.103  13.653
62172W        W30577  40.437   1.038  14.446
62173W        W30578  35.780  37.902  14.516
62174W        W30579   2.282  17.524   1.199
62175W        W30580  27.060  23.682  13.485
62176W        W30581  20.041  11.202   0.004
62177W        W30582   1.428  42.535   1.877
62178W        W30583  12.180  32.384  11.602
62179W        W30584  33.817  39.535  12.108
62180W        W30585  29.403  11.111   3.136
62181W        W30586  39.269   2.391   1.558
62182W        W30587   4.358   3.541   4.927
62183W        W30588  12.137  21.226   1.707
62184W        W30589  34.247  24.498  14.459
62185W        W30590   2.003  14.725  13.641
62186W        W30591  21.256  25.662   0.464
62187W        W30592  20.782  39.092   4.260
62188W        W30593  31.490   4.667   0.836
62189W        W30594  12.826  12.249   0.837
62190W        W30595   7.395  13.195   3.695
62191W        W30596  21.274  27.047  14.306
62192W        W30597   0.947  24.700  12.172
62193W        W30598  30.697  15.638  14.012
62194W        W30599  30.457   2.726  12.521
62195W        W30600  41.833  35.437  10.867
62196W        W30601   9.867  35.153  13.592
62197W        W30602   8.158  22.178   2.474
62198W        W30603  18.135  15.904  14.872
62199W        W30604  11.213  11.807   4.626
62200W        W30605  25.444  38.628  11.130
62201W        W30606  43.477   5.800   3.577
62202W        W30607  18.036  21.314   3.675
62203W        W30608  14.821  15.053   3.831
62204W        W30609  42.111  28.584   0.061
62205W        W30610  44.376   8.350  14.427
62206W        W30611  32.863  41.312   2.616
62207W        W30612  37.957  26.866  14.228
62208W        W30613  17.753  21.768   0.946
62209W        W30614  22.672  38.049  11.954
62210W        W30615  21.829   1.990   3.195
62211W        W30616  34.388   8.925   3.859
62212W        W30617  24.982  32.630   2.863
62213W        W30618  30.144  14.835  14.999
62214W        W30619  38.817  29.683  11.000
62215W        W30620  13.604  37.942   4.036
62216W        W30621  28.116  21.601   0.309
62217W        W30622  25.206  13.713   1.996
62218W        W30623  44.974  36.428  13.012
62219W        W30624  40.987  31.295  12.992
62220W        W30625  29.997  28.780  13.556
62221W        W30626  28.574  14.546   0.035
62222W        W30627   3.281   0.544  11.248
62223W        W30628  41.915  14.285   1.936
62224W        W30629  14.716  33.864   1.783
62225W        W30630  26.687  44.981   1.247
62226W        W30631   8.918   7.864   0.346
62227W        W30632   3.150  30.495  14.430
62228W        W30633  20.043  44.000  12.852
62229W        W30634  11.933  20.745  14.421
62230W        W30635  12.479  32.953  10.734
62231W        W30636  43.899  38.555  14.769
62232W        W30637  23.608  22.076   3.408
62233W        W30638  31.287  27.056   2.486
62234W        W30639  39.501  37.133   0.773
62235W        W30640  15.740  27.602  13.467
62236W        W30641  13.984   5.666  13.018
62237W        W30642   3.733  28.021   4.835
62238W        W30643  37.822  26.455   1.844
62239W        W30644  20.201  13.355  12.958
62240W        W30645  29.515  39.877   3.267
62241W        W30646  30.307  44.796  12.833
62242W        W30647  44.234  42.456  14.806
62243W        W30648  16.589  26.197   4.275
62244W        W30649  28.645  13.208  12.141
62245W        W30650  23.833   1.262   2.482
62246W        W30651   5.755  12.830   0.857
62247W        W30652  27.703  35.014  12.884
62248W        W30653  19.561  18.048   0.401
62249W        W30654   0.174  40.855  11.271
62250W        W30655  24.557  42.762  11.662
62251W        W30656  14.694   8.723   2.283
62252W        W30657  11.050  14.678  10.114
62253W        W30658  43.873  10.674   2.257
62254W        W30659   8.146  13.229  12.432
62255W        W30660   4.860  43.615   1.783
62256W        W30661  38.732  34.528  12.116
62257W        W30662  43.076  14.229   4.200
62258W        W30663  39.911  41.449  14.067
62259W        W30664  35.910  29.566  11.049
62260W        W30665   0.652  28.911   4.469
62261W        W30666  32.512  27.105  13.478
62262W        W30667  27.641   6.321  12.421
62263W        W30668  40.606  37.799   3.295
62264W        W30669  43.794  16.620   2.728
62265W        W30670   9.385  23.904  11.147
62266W        W30671  13.249   3.034  10.679
62267W        W30672  42.490  37.139   2.604
62268W        W30673  23.515  41.082  10.745
62269W        W30674  34.447  32.082   4.026
62270W        W30675  17.688  29.165   0.006
62271W        W30676  42.411  24.039  13.075
62272W        W30677   0.822   5.077  14.532
62273W        W30678  28.401  14.238   1.839
62274W        W30679  24.520  25.134  12.542
62275W        W30680  22.967  34.133   3.705
62276W        W30681  43.178  22.619   1.848
62277W        W30682  41.484  34.204   1.409
62278W        W30683   3.792   8.613   2.711
62279W        W30684  36.060  44.219  11.475
62280W        W30685  22.502   5.441  11.508
62281W        W30686  13.828  44.078   0.834
62282W        W30687   1.206  16.020   3.175
62283W        W30688  28.942  15.785   2.859
62284W        W30689  10.880  21.583   3.774
62285W        W30690  40.362  42.690  13.865
62286W        W30691  16.998  15.694  14.327
62287W        W30692  10.855  38.560  11.790
62288W        W30693  22.222  34.432   3.170
62289W        W30694  13.262   3.917  14.465
62290W        W30695   0.359  11.532   2.402
62291W        W30696  29.038  15.035   1.002
62292W        W30697  30.328  15.786  12.178
62293W        W30698   4.025  12.524  13.014
62294W        W30699  33.727  20.309  11.218
62295W        W30700  15.103  26.545   4.564
62296W        W30701  21.446  30.432  10.208
62297W        W30702  41.949  30.433   3.199
62298W        W30703  41.727   1.952  13.389
62299W        W30704  15.318  28.601  12.210
62300W        W30705  22.070  28.470  11.487
62301W        W30706  18.989  33.495   1.287
62302W        W30707   9.857  28.997  11.582
62303W        W30708  19.095  44.747   1.992
62304W        W30709   5.901  38.161  11.495
62305W        W30710   2.748  16.476   0.306
62306W        W30711  21.496  33.623   4.305
62307W        W30712  38.372  12.711  12.546
62308W        W30713  13.355  23.701   0.769
62309W        W30714  18.567  14.284   5.183
62310W        W30715  22.618  31.002   1.279
62311W        W30716  23.040  44.962  12.781
62312W        W30717  39.324  12.861  14.660
62313W        W30718  37.871  41.996  11.803
62314W        W30719  30.900  17.545   5.262
62315W        W30720   4.762  15.795   4.557
62316W        W30721  36.103  28.721   2.199
62317W        W30722  37.794  35.663   2.542
62318W        W30723  30.673   8.011   2.491
62319W        W30724   9.409  22.227  14.301
62320W        W30725  28.871  19.625   1.306
62321W        W30726  11.909  16.349   5.140
62322W        W30727  10.143  25.960  14.358
62323W        W30728  12.835  17.735  11.094
62324W        W30729  11.177   4.329   2.263
62325W        W30730  43.949  24.959  14.093
62326W        W30731  29.491  39.637  11.273
62327W        W30732  15.039  30.116  14.659
62328W        W30733  36.914  36.126  11.941
62329W        W30734  24.088  14.365   0.676
62330W        W30735   1.396   5.330   5.767
62331W        W30736   5.357  33.438  10.514
62332W        W30737  17.051   4.295   4.408
62333W        W30738  19.209  22.889  11.026
62334W        W30739  37.309  30.876   4.920
62335W        W30740  16.236  15.089   4.099
62336W        W30741  40.960  42.140   0.967
62337W        W30742  40.864  17.137   1.135
62338W        W30743  43.285  30.449  11.638
62339W        W30744   3.867  41.979   1.883
62340W        W30745  41.413  24.570  12.537
62341W        W30746  31.356  36.439  13.452
62342W        W30747   1.559  19.974   4.223
62343W        W30748  41.901  43.545   4.665
62344W        W30749  10.357   7.266  14.110
62345W        W30750   9.474   4.340   4.920
62346W        W30751  12.055  31.504  12.963
62347W        W30752   1.120  25.205  11.289
62348W        W30753  29.531   8.435  14.233
62349W        W30754  17.653  18.047  12.024
62350W        W30755  16.549  24.005   0.858
62351W        W30756  39.223  14.545   1.811
62352W        W30757  43.517  19.072  12.990
62353W        W30758   5.347  23.346  13.873
62354W        W30759  43.910   9.425  12.077
62355W        W30760   9.806  33.951   2.685
62356W        W30761  29.587  33.642  11.990
62357W        W30762  24.125  20.279   2.768
62358W        W30763   0.815  28.192  10.584
62359W        W30764  11.773  21.610  14.942
62360W        W30765  39.802  10.274   2.838
62361W        W30766   7.145   8.629   4.630
62362W        W30767  16.061  11.908  12.341
62363W        W30768  25.183  21.555   3.430
62364W        W30769  14.390  13.634  12.465
62365W        W30770  13.176  42.529   0.309
62366W        W30771   3.750  15.850  11.883
62367W        W30772   9.154  19.702   3.168
62368W        W30773   3.312  26.492  14.764
62369W        W30774  31.585  10.395  12.502
62370W        W30775  27.032  15.808  11.440
62371W        W30776  38.869  24.180  10.775
62372W        W30777  33.255  14.184   2.169
62373W        W30778   0.761   7.091   4.619
62374W        W30779  32.520  17.729   1.601
62375W        W30780  10.465  12.625   1.852
62376W        W30781  32.458  22.934  12.301
62377W        W30782  20.575  34.020  12.152
62378W        W30783  35.036  41.836  12.981
62379W        W30784  10.414  15.100  11.245
62380W        W30785  33.631   4.165   2.777
62381W        W30786  16.028  25.834   1.437
62382W        W30787  39.828  10.739   4.453
62383W        W30788  39.996  34.833  12.284
62384W        W30789   1.980   9.395   0.535
62385W        W30790   7.829  42.290   3.366
62386W        W30791  27.833  34.397  11.637
62387W        W30792  30.831  33.442   3.556
62388W        W30793  43.950  24.451   0.794
62389W        W30794  10.226  27.952  13.747
62390W        W30795  21.482  36.653  13.965
62391W        W30796  44.649  40.368  10.739
62392W        W30797  43.238  27.114   2.847
62393W        W30798  35.947   7.429   2.003
62394W        W30799  41.428  16.536   1.905
62395W        W30800  15.257  37.879   0.745
62396W        W30801  24.353  28.111  12.542
62397W        W30802  42.997  22.175   4.667
62398W        W30803  13.191  28.393   3.731
62399W        W30804  27.042  33.539   3.730
62400W        W30805  23.659  31.065   4.661
62401W        W30806  14.563  25.513  11.021
62402W        W30807  22.597   3.989  11.989
62403W        W30808  35.341  10.446  11.569
62404W        W30809   7.774   4.191   3.612
62405W        W30810  31.897  44.471  11.859
62406W        W30811  13.678  25.990  11.575
62407W        W30812  23.824  17.085  14.777
62408W        W30813  33.063  26.610  14.483
62409W        W30814  21.142  21.534  14.111
62410W        W30815  23.459  20.688   0.051
62411W        W30816  16.803  26.453  13.954
62412W        W30817   6.883   5.133   4.876
62413W        W30818  41.315  25.619  13.476
62414W        W30819  10.414  25.547   0.294
62415W        W30820   9.639  20.381  11.525
62416W        W30821  33.922  42.694   2.274
62417W        W30822  37.488   7.266  11.571
62418W        W30823  22.296  29.004  14.266
62419W        W30824   6.803   1.985  12.508
62420W        W30825  25.644  29.511   2.776
62421W        W30826  12.156   5.770   3.737
62422W        W30827  34.316  16.814  12.003
62423W        W30828  11.173   1.973  12.106
62424W        W30829   7.782  29.906   0.866
62425W        W30830  35.706  23.667   3.247
62426W        W30831  11.930  14.233  13.038
62427W        W30832  24.122  32.617  13.563
62428W        W30833  35.618  20.165   2.854
62429W        W30834  12.206  21.814   0.828
62430W        W30835  22.652  42.605   0.963
62431W        W30836  35.010  43.850   1.193
62432W        W30837  34.597  39.519  12.326
62433W        W30838  24.963  29.221  14.888
62434W        W30839  11.277  19.947   0.408
62435W        W30840  24.533   5.847  12.095
62436W        W30841   3.415  21.378  11.128
62437W        W30842   3.199  20.146   3.688
62438W        W30843  19.823  26.109   1.291
62439W        W30844  10.404  41.938   0.237
62440W        W30845   3.425  33.046   4.939
62441W        W30846  39.948  12.828   2.274
62442W        W30847   4.226  39.775  13.485
62443W        W30848  35.042  10.300   2.301
62444W        W30849  35.469  13.873  12.936
62445W        W30850  26.493  28.070   5.153
62446W        W30851  23.026  35.976  12.466
62447W        W30852  17.496   8.704   0.260
62448W        W30853  44.025  23.770  11.627
62449W        W30854  31.712  38.536  14.750
62450W        W30855  17.768  26.071  11.957
62451W        W30856  13.759   3.672   2.398
62452W        W30857  20.669  16.938  13.166
62453W        W30858  21.664  13.167  12.934
62454W        W30859   5.021  16.935   3.201
62455W        W30860  35.031  33.606   2.459
62456W        W30861  20.624  40.308  13.866
62457W        W30862  27.554  14.629  12.659
62458W        W30863  38.572   9.212   2.237
62459W        W30864   6.466  14.576  12.935
62460W        W30865  16.785  40.018  10.994
62461W        W30866   9.755  11.581   1.588
62462W        W30867   5.195  23.427   1.771
62463W        W30868   1.398   8.440  10.682
62464W        W30869  23.781   5.600   0.767
62465W        W30870  18.812  41.938   4.344
62466W        W30871  35.702   4.802   2.328
62467W        W30872  19.716  35.247  14.218
62468W        W30873  11.803  31.312  10.441
62469W        W30874  12.208  42.937  14.768
62470W        W30875  12.361  38.121  14.491
62471W        W30876  30.312  42.135   2.064
62472W        W30877  41.556  35.323   0.842
62473W        W30878  19.361  27.021   3.336
62474W        W30879  43.357  11.296   0.276
62475W        W30880   5.939   2.766  12.924
62476W        W30881  31.147   3.442   2.386
62477W        W30882   6.009   2.488  14.781
62478W        W30883  22.254   1.644  12.000
62479W        W30884  15.866  34.584   1.131
62480W        W30885   5.310  42.511   1.797
62481W        W30886  19.055   6.208  13.862
62482W        W30887  27.499  12.330   0.018
62483W        W30888  37.773  44.717  10.889
62484W        W30889  20.952  36.117  14.575
62485W        W30890  36.538  42.489  14.298
62486W        W30891  23.815  25.989   0.362
62487W        W30892   8.925  42.342  11.922
62488W        W30893  25.741  39.760  11.969
62489W        W30894  27.671  31.285   4.765
62490W        W30895   9.887   2.895   4.302
62491W        W30896  41.524  24.629  13.087
62492W        W30897  35.672   5.456  13.454
62493W        W30898  16.141  33.230   1.768
62494W        W30899  19.034  15.077   0.272
62495W        W30900   8.656  29.578  14.923
62496W        W30901  11.706  24.928   2.163
62497W        W30902  11.774  13.398   2.411
62498W        W30903  26.963  12.562  11.970
62499W        W30904   4.413  37.861  13.626
62500W        W30905   2.029  11.441  13.167
62501W        W30906   8.650  44.198  11.526
62502W        W30907   1.873  42.347   0.353
62503W        W30908  11.838  24.619   5.028
62504W        W30909  32.495  29.964  12.758
62505W        W30910  22.153  22.740   0.894
62506W        W30911  36.387  37.454   3.660
62507W        W30912  37.825  41.879   4.214
62508W        W30913  19.961  36.253  11.956
62509W        W30914  34.887   0.195  13.917
62510W        W30915  17.565  11.180   3.561
62511W        W30916   4.345  26.150  12.437
62512W        W30917   4.478  20.793  10.468
62513W        W30918  24.515  14.405   3.300
62514W        W30919  16.969  30.148  12.002
62515W        W30920   5.184  29.368  11.982
62516W        W30921  42.573  13.680  12.954
62517W        W30922  35.343  19.608   0.910
62518W        W30923  31.532  27.649  11.015
62519W        W30924   4.842   7.355   0.542
62520W        W30925   6.873  16.030   9.861
62521W        W30926  40.335  17.846   0.650
62522W        W30927  13.820   3.936  11.530
62523W        W30928   8.327   6.477  14.717
62524W        W30929  34.755  32.086   9.994
62525W        W30930  28.175  19.499   1.018
62526W        W30931  36.788  18.742   2.852
62527W        W30932  14.336   5.955   1.895
62528W        W30933  36.025  23.557   4.632
62529W        W30934  18.856  44.304  11.987
62530W        W30935   0.491  16.310  13.826
62531W        W30936  40.668  27.191   1.398
62532W        W30937  38.417  19.969   4.157
62533W        W30938  39.834  15.146  14.233
62534W        W30939  32.311  27.423  14.227
62535W        W30940   6.972   1.249  12.250
62536W        W30941  15.918  10.645   2.742
62537W        W30942   2.388  10.601   1.435
62538W        W30943  18.476  43.022   0.102
62539W        W30944   0.497  12.536   4.737
62540W        W30945  15.407   8.367  13.890
62541W        W30946  28.738  16.032  11.291
62542W        W30947  44.809   5.804   2.779
62543W        W30948  10.290   0.413   3.661
62544W        W30949  14.075  28.144   4.166
62545W        W30950  35.298   3.751   3.379
62546W        W30951   4.172  37.950   4.113
62547W        W30952  34.525   5.977   0.838
62548W        W30953   4.468  22.652   2.043
62549W        W30954  34.014  30.943  13.956
62550W        W30955  31.961  16.355  12.027
62551W        W30956  44.956   2.760   0.699
62552W        W30957  16.782  33.756   0.437
62553W        W30958  13.958  35.369  12.838
62554W        W30959   7.632  29.739   4.601
62555W        W30960  29.457  13.503  12.776
62556W        W30961  43.031  18.755  11.766
62557W        W30962  23.495   6.864   3.114
62558W        W30963  26.660   0.312   0.850
62559W        W30964  22.829  32.021  13.055
62560W        W30965  26.583  24.967   2.652
62561W        W30966  23.475  20.028  12.878
62562W        W30967  41.043  23.652   0.612
62563W        W30968  20.812  12.625   1.166
62564W        W30969  40.933  10.259  12.531
62565W        W30970  31.846  23.522   0.887
62566W        W30971   7.325  23.024  14.382
62567W        W30972  43.542  17.855  12.526
62568W        W30973  20.365  40.313   0.826
62569W        W30974  18.587  35.563  13.408
62570W        W30975  30.476  19.342   3.583
62571W        W30976   3.473  29.192  13.303
62572W        W30977  15.797  26.305  11.899
62573W        W30978  31.420  43.030   3.653
62574W        W30979   2.268  38.172   2.651
62575W        W30980   0.511  32.142   0.863
62576W        W30981  10.807  15.815  12.224
62577W        W30982  10.084  16.807   2.649
62578W        W30983  10.419   2.337   1.377
62579W        W30984  14.863   4.371   3.921
62580W        W30985  17.784  34.412   1.378
62581W        W30986  31.606   3.833  14.744
62582W        W30987  32.808  25.573  13.282
62583W        W30988   5.227  42.430   3.332
62584W        W30989   4.645  34.455  11.683
62585W        W30990   5.912  25.148   4.071
62586W        W30991  38.743   5.783  11.530
62587W        W30992   2.332  37.040  14.484
62588W        W30993   3.739  31.595  11.604
62589W        W30994   0.760   3.236  14.099
62590W        W30995   7.392  25.225   4.284
62591W        W30996   5.634  11.463   4.566
62592W        W30997  28.044  32.822  13.002
62593W        W30998  31.007  16.971   0.285
62594W        W30999  42.191  21.027   0.789
62595W        W31000   2.184  39.905  14.302
62596W        W31001  20.837  25.335  11.412
62597W        W31002   0.464  21.203  14.601
62598W        W31003   6.751  34.117  13.759
62599W        W31004  16.754  24.231   3.735
62600W        W31005   4.962  33.013  13.334
62601W        W31006  14.120  18.861   2.785
62602W        W31007  35.483   7.299   1.303
62603W        W31008  17.297   0.913   1.384
62604W        W31009  36.039  43.107  12.469
62605W        W31010  20.532   0.719   1.208
62606W        W31011  25.043  43.792  11.962
62607W        W31012  34.155  21.348  14.207
62608W        W31013   1.237  35.563  12.523
62609W        W31014   7.220   4.682   3.716
62610W        W31015   2.340  14.733   3.561
62611W        W31016  23.491  16.041  11.565
62612W        W31017   8.836   1.122  11.117
62613W        W31018   8.238   7.580   2.320
62614W        W31019  11.658  12.303  10.578
62615W        W31020   3.292  44.676  10.003
62616W        W31021  25.693  30.711   0.277
62617W        W31022   1.211  29.478  10.693
62618W        W31023  23.058  24.546  11.072
62619W        W31024  41.949  19.085  12.067
62620W        W31025   8.788  24.199   5.041
62621W        W31026   3.507  21.429  12.609
62622W        W31027  37.843  15.096  12.168
62623W        W31028  39.921   1.042  12.450
62624W        W31029  22.368  43.090  10.918
62625W        W31030  38.134  10.709  12.819
62626W        W31031   1.954  21.374  12.761
62627W        W31032  19.772  37.362  10.485
62628W        W31033   8.864   9.219  11.441
62629W        W31034  34.415   7.902  12.543
62630W        W31035  26.727  21.313   9.924
62631W        W31036  36.844  24.879   1.815
62632W        W31037  39.894  28.301  13.199
62633W        W31038  28.844  30.334   0.220
62634W        W31039   2.858  43.867   0.516
62635W        W31040  32.650  25.840   3.653
62636W        W31041  22.570  38.768  14.491
62637W        W31042   8.763  35.360   0.706
62638W        W31043  18.414  44.524  12.086
62639W        W31044  34.510   7.147  14.843
62640W        W31045   4.372  36.363  10.758
62641W        W31046  38.310   9.339   3.603
62642W        W31047  29.963   5.641  12.848
62643W        W31048  29.599  42.347  10.743
62644W        W31049  33.940  30.656   0.407
62645W        W31050  28.176   6.831  12.956
62646W        W31051  12.208  18.799  10.630
62647W        W31052  18.726  27.759  13.994
62648W        W31053  31.790  24.890  14.070
62649W        W31054  44.877  15.628  14.715
62650W        W31055  12.812  12.092  14.479
62651W        W31056  18.166  28.396   1.441
62652W        W31057  15.224  11.083  14.713
62653W        W31058  40.113  12.218   4.090
62654W        W31059  29.800  18.140  12.319
62655W        W31060  15.039  42.453  12.916
62656W        W31061  10.840  16.704  14.468
62657W        W31062  35.921   7.090  10.802
62658W        W31063  41.079   6.709  13.873
62659W        W31064   5.424  22.608   3.680
62660W        W31065  27.071  12.265  13.437
62661W        W31066  27.975  16.041   3.041
62662W        W31067  33.334  43.698  12.584
62663W        W31068  24.507  24.035   3.598
62664W        W31069  32.977  43.273   4.592
62665W        W31070  31.741  39.465   5.558
62666W        W31071  19.102  16.556  11.636
62667W        W31072  19.763  15.257  13.053
62668W        W31073  32.732  44.687   2.417
62669W        W31074  22.249  43.762   4.649
62670W        W31075  35.589  21.307   2.354
62671W        W31076  14.894  38.863   1.346
62672W        W31077  16.807  26.483  11.657
62673W        W31078  41.004  21.956   1.051
62674W        W31079  43.345   6.469   3.154
62675W        W31080   5.418  13.058   3.574
62676W        W31081  17.990   3.424   0.431
62677W        W31082   9.301  41.818  10.755
62678W        W31083  32.222  14.030   0.025
62679W        W31084  14.666  18.938  11.544
62680W        W31085  41.677  39.390  11.602
62681W        W31086  32.912  18.727   0.486
62682W        W31087  28.594   3.349   4.972
62683W        W31088  22.222  18.154  10.461
62684W        W31089  12.428  26.755  10.667
62685W        W31090  19.037  43.804  12.842
62686W        W31091  42.098  17.560   4.745
62687W        W31092  20.084  43.020  13.422
62688W        W31093  44.431   2.389   2.770
62689W        W31094  32.887  23.524   2.931
62690W        W31095   6.700  21.504  12.003
62691W        W31096  40.811  31.191  13.481
62692W        W31097  15.177  21.958  13.540
62693W        W31098  42.361   2.955  13.999
62694W        W31099   8.422   6.333   3.839
62695W        W31100  35.284  31.989  13.409
62696W        W31101  22.714  31.147   4.180
62697W        W31102   4.921  38.294   3.595
62698W        W31103  30.373  43.251  10.524
62699W        W31104   5.008  14.125   4.189
62700W        W31105  40.336  30.965   1.919
62701W        W31106  37.051  25.169   0.247
62702W        W31107  42.192  15.682  13.430
62703W        W31108   3.243  16.135  11.178
62704W        W31109   9.167  16.618  13.474
62705W        W31110  10.639  26.617  12.613
62706W        W31111  40.355  33.656   3.071
62707W        W31112  21.807  33.722  11.116
62708W        W31113  33.982  16.851   3.971
62709W        W31114  38.595  38.134  11.956
62710W        W31115   6.807  13.626   0.999
62711W        W31116  23.291  14.664  11.293
62712W        W31117  35.927  33.859  12.385
62713W        W31118  41.799  33.841  13.489
62714W        W31119  38.345  38.818   2.898
62715W        W31120  36.845  40.591   0.753
62716W        W31121  28.128  37.588  11.956
62717W        W31122   3.022  16.477  13.360
62718W        W31123  33.417  29.009  12.097
62719W        W31124  41.094   4.957  11.052
62720W        W31125  15.956  44.686  12.387
62721W        W31126  26.235  35.007  14.563
62722W        W31127  31.866   0.847  11.047
62723W        W31128  19.752  24.127   0.381
62724W        W31129  18.526   0.953   3.825
62725W        W31130  34.014  22.457  13.977
62726W        W31131  25.118   7.809   3.751
62727W        W31132  26.509  43.036  13.435
62728W        W31133  25.018   0.341   1.609
62729W        W31134  28.320  36.460  13.516
62730W        W31135   9.125  12.245   0.525
62731W        W31136  17.711  24.166   0.335
62732W        W31137  18.661  43.398   2.802
62733W        W31138  25.014  35.591   0.793
62734W        W31139  30.656  34.968  11.447
62735W        W31140  34.423  36.422  14.865
62736W        W31141  36.564  11.237  12.566
62737W        W31142  44.081  18.699   2.239
62738W        W31143  29.993  23.498   1.782
62739W        W31144  41.736   3.458  12.410
62740W        W31145  15.331  24.283   2.297
62741W        W31146  21.820  15.760   3.267
62742W        W31147  32.878  22.298   2.338
62743W        W31148  21.583  39.874  14.307
62744W        W31149  43.002  40.556  13.843
62745W        W31150  31.626  31.420  13.968
62746W        W31151  14.588  13.718   4.244
62747W        W31152   3.487   4.784  11.203
62748W        W31153  38.460  18.146   3.319
62749W        W31154  20.974  24.799  14.342
62750W        W31155  21.915  38.043  12.441
62751W        W31156  13.115  30.873   2.270
62752W        W31157  10.374  39.890   2.859
62753W        W31158  38.877  36.589   0.420
62754W        W31159  17.160   7.821  12.468
62755W        W31160  17.131  41.351  13.377
62756W        W31161   3.701  27.155  13.964
62757W        W31162  18.139  43.802  11.425
62758W        W31163  35.541  33.144   1.825
62759W        W31164  39.752  26.567  13.947
62760W        W31165   4.267  28.681   0.816
62761W        W31166   6.457  40.187  11.144
62762W        W31167  33.151  30.165   1.400
62763W        W31168  21.572   9.118  11.506
62764W        W31169  33.384  30.892  13.418
62765W        W31170  42.739  24.122  11.454
62766W        W31171  23.776  16.139  12.902
62767W        W31172  12.749  21.250  14.195
62768W        W31173  41.433  27.721   3.716
62769W        W31174   1.732  17.046  13.810
62770W        W31175  14.002  28.057   0.841
62771W        W31176  19.999   0.298  12.022
62772W        W31177   5.696   2.782  10.719
62773W        W31178  29.156  20.479  12.447
62774W        W31179  44.698  10.881  14.509
62775W        W31180  39.593  23.939   0.791
62776W        W31181  29.523   3.952   4.615
62777W        W31182   5.548   8.911   1.302
62778W        W31183  41.314  35.595   2.813
62779W        W31184  41.530   6.327  11.648
62780W        W31185  37.751   2.970   2.910
62781W        W31186  12.727  17.561  12.298
62782W        W31187  16.552  28.929   1.962
62783W        W31188   8.160  14.166  13.321
62784W        W31189  43.451   8.739   1.777
62785W        W31190   7.207   5.829   2.341
62786W        W31191  15.342  18.833  14.933
62787W        W31192  12.531  20.006  10.995
62788W        W31193  22.689   8.285   3.686
62789W        W31194  36.831   6.863   0.693
62790W        W31195  16.492  30.796  14.975
62791W        W31196  16.348  31.922  12.065
62792W        W31197  29.780  31.230   0.358
62793W        W31198   7.828  15.639   0.311
62794W        W31199   7.563  18.220   4.237
62795W        W31200   1.227  44.450  14.330
62796W        W31201  44.310  11.104  13.389
62797W        W31202  23.040  28.873  14.201
62798W        W31203  26.140  44.332   4.537
62799W        W31204  22.601   6.648   2.662
62800W        W31205  39.528  37.380   2.741
62801W        W31206   5.955  29.733   2.226
62802W        W31207  33.291   5.941   0.274
62803W        W31208  41.270   2.663  14.328
62804W        W31209   0.482  14.579  11.132
62805W        W31210   7.960   7.283   4.669
62806W        W31211  31.600  18.578  12.796
62807W        W31212  34.437  12.333   2.710
62808W        W31213  33.398  37.854  10.718
62809W        W31214  10.231  38.344  12.780
62810W        W31215  36.700  26.422  11.481
62811W        W31216   4.230  43.432   1.238
62812W        W31217  24.554  29.623  14.057
62813W        W31218  32.543  34.282  12.224
62814W        W31219  16.392  12.145  13.032
62815W        W31220  33.035  19.577   4.282
62816W        W31221  11.385   5.898  13.971
62817W        W31222   7.566  41.348   4.479
62818W        W31223  16.094   8.274   0.240
62819W        W31224  21.691  31.063   4.495
62820W        W31225   7.357  20.159   0.881
62821W        W31226  27.235   2.738  14.078
62822W        W31227   7.899  24.851  12.139
62823W        W31228   7.321  44.373   0.207
62824W        W31229   5.150  24.935  14.451
62825W        W31230  19.574  33.117   4.827
62826W        W31231  10.572  33.649  11.633
62827W        W31232  38.885  37.571   4.747
62828W        W31233  42.974  11.481   0.793
62829W        W31234  23.183  30.443  12.351
62830W        W31235  33.838  38.139   4.161
62831W        W31236  14.302  14.865  11.914
62832W        W31237  32.907  15.682  13.869
62833W        W31238  44.020  11.506   0.870
62834W        W31239   3.312  19.874   2.849
62835W        W31240  29.330  21.547  11.659
62836W        W31241  27.991  18.744  14.379
62837W        W31242  34.546  17.746   3.228
62838W        W31243  21.705  36.520   4.761
62839W        W31244  13.795   5.495  11.498
62840W        W31245  26.646  33.244  13.051
62841W        W31246  22.006  35.651   2.769
62842W        W31247  35.952  20.127   1.200
62843W        W31248  37.381  40.258  11.976
62844W        W31249  43.380   3.274  11.204
62845W        W31250   7.630  22.557  14.340
62846W        W31251   7.114  17.154   0.220
62847W        W31252  15.542  35.032   0.926
62848W        W31253   6.271  18.026  11.571
62849W        W31254   0.971  15.658   2.411
62850W        W31255  39.823   5.301   5.001
62851W        W31256  17.265  44.198  12.332
62852W        W31257  33.965   6.715   3.289
62853W        W31258  27.067   4.720   3.622
62854W        W31259  15.132  20.317  11.477
62855W        W31260  13.232   7.900  12.120
62856W        W31261  26.442   8.283   1.185
62857W        W31262   9.215   5.772  13.376
62858W        W31263   1.811  44.036   1.496
62859W        W31264  41.513   3.878  11.709
62860W        W31265  21.557  44.440  13.939
62861W        W31266  25.685  26.090  10.822
62862W        W31267  24.904  42.954   0.785
62863W        W31268   0.646  21.249   0.825
62864W        W31269  43.618  35.656  13.311
62865W        W31270  33.939  16.665   3.474
62866W        W31271  34.905   6.623  10.530
62867W        W31272  32.399  42.474   3.719
62868W        W31273   8.731   1.029  12.982
62869W        W31274   2.789   2.689  12.966
62870W        W31275  17.688  17.082  11.226
62871W        W31276  12.304  28.710  11.668
62872W        W31277  13.741  32.496   2.394
62873W        W31278  42.279  31.567  12.494
62874W        W31279  33.929  29.369  10.734
62875W        W31280  20.300  24.468   3.614
62876W        W31281  26.447  40.443  11.136
62877W        W31282  32.961  27.234   4.475
62878W        W31283  39.968  13.146   3.607
62879W        W31284   4.718  38.330   5.056
62880W        W31285   6.383  17.005  10.662
62881W        W31286  16.215  11.290   3.466
62882W        W31287  13.745  40.725   3.269
62883W        W31288   1.288  37.981   4.068
62884W        W31289  36.332  40.858   2.821
62885W        W31290  25.706  15.051  13.994
62886W        W31291   7.123  32.835  13.013
62887W        W31292  30.135  32.483  12.767
62888W        W31293  43.333   8.606   3.770
62889W        W31294  18.445  12.646  11.228
62890W        W31295  28.140  41.070  11.500
62891W        W31296  41.791  28.957   1.323
62892W        W31297  15.468  25.991   0.313
62893W        W31298  15.326   6.086   0.052
62894W        W31299  24.974  44.909  11.774
62895W        W31300  42.203  33.565  13.928
62896W        W31301   3.891  27.613  14.093
62897W        W31302  37.593  11.124   2.850
62898W        W31303   8.768   5.634   2.044
62899W        W31304  16.204  26.415   0.292
62900W        W31305   1.757  41.326  11.219
62901W        W31306  44.541  26.954   4.567
62902W        W31307   9.666  19.405  10.815
62903W        W31308  39.452  13.912  10.860
62904W        W31309  29.018  43.059  14.830
62905W        W31310  40.773  29.938  11.916
62906W        W31311  25.376  20.593   0.746
62907W        W31312   6.726   3.401  14.384
62908W        W31313  44.423   7.295   4.728
62909W        W31314  13.723   8.180   3.867
62910W        W31315  33.536  37.148  12.391
62911W        W31316  35.379  31.472   1.720
62912W        W31317  19.997  38.399   3.763
62913W        W31318  41.325  44.534  11.856
62914W        W31319  12.706  15.819   2.626
62915W        W31320  10.748  13.162  12.691
62916W        W31321   2.161   6.771   4.344
62917W        W31322  37.938   1.628   5.082
62918W        W31323  32.055  25.939   4.236
62919W        W31324  14.130  33.882   3.320
62920W        W31325  25.344  23.685  11.112
62921W        W31326  36.884  39.286  14.284
62922W        W31327  24.217  33.928   1.004
62923W        W31328  13.782  41.738   0.407
62924W        W31329  36.557  36.950   4.664
62925W        W31330  43.797  28.032   4.010
62926W        W31331   5.147   2.371   3.891
62927W        W31332  31.065  10.448   1.393
62928W        W31333  36.714  24.768  11.978
62929W        W31334  17.816  33.524   2.285
62930W        W31335  23.431   9.553  14.714
62931W        W31336  41.420  40.124  11.169
62932W        W31337  12.954   3.025   0.496
62933W        W31338   3.049  25.653   4.000
62934W        W31339  28.688  11.634   2.823
62935W        W31340   0.927  32.186   1.817
62936W        W31341  14.603  20.430   0.084
62937W        W31342  24.151  43.224  11.976
62938W        W31343   9.816  29.152   1.873
62939W        W31344  16.158  33.250   3.566
62940W        W31345  18.855  35.348   3.757
62941W        W31346   3.192  17.140   3.095
62942W        W31347  16.528  21.724   0.218
62943W        W31348   8.878  18.128   2.740
62944W        W31349  17.692  20.428   3.661
62945W        W31350  27.503  42.607   3.293
62946W        W31351  29.364  37.612   2.848
62947W        W31352  36.521  41.118  11.038
62948W        W31353  16.138  18.308   2.814
62949W        W31354  32.705  30.958  14.263
62950W        W31355  29.557  39.330   1.449
62951W        W31356  42.734   7.732  12.053
62952W        W31357  16.573   8.448   4.056
62953W        W31358   1.165  40.670   0.217
62954W        W31359  23.245  10.822  13.252
62955W        W31360   1.778  15.032   0.097
62956W        W31361   9.710  19.005   2.354
62957W        W31362   1.491  42.037   2.867
62958W        W31363  34.127  37.167   0.931
62959W        W31364   3.301  35.638  12.468
62960W        W31365   3.782  40.030   2.220
62961W        W31366  22.150  14.110   1.691
62962W        W31367   6.452  27.503  13.950
62963W        W31368  36.855  39.591   0.761
62964W        W31369  41.033  22.407  13.502
62965W        W31370  32.460  36.538   1.274
62966W        W31371  34.347  19.229   0.941
62967W        W31372   3.894  43.606   4.729
62968W        W31373  10.074  17.670   3.252
62969W        W31374  27.399  31.417   0.197
62970W        W31375  22.509  41.862  11.930
62971W        W31376  14.638  17.570   5.083
62972W        W31377  42.278  33.421   0.857
62973W        W31378  37.476  17.719   4.667
62974W        W31379  34.272  27.206  11.565
62975W        W31380   6.413   1.124   1.183
62976W        W31381   8.117  38.565  12.138
62977W        W31382  24.947  39.773  11.503
62978W        W31383  35.259  15.768  14.866
62979W        W31384  11.409  20.865   3.995
62980W        W31385   2.951  10.215   0.857
62981W        W31386  41.720  36.631   0.387
62982W        W31387  14.291   5.487  14.226
62983W        W31388   2.033  28.635  11.560
62984W        W31389   1.315  37.099  11.080
62985W        W31390  31.078  28.412  12.571
62986W        W31391  21.693   6.916   3.644
62987W        W31392  32.573   5.842  13.013
62988W        W31393   4.544  41.494   4.162
62989W        W31394   5.227  25.149   1.239
62990W        W31395  15.663  19.168   2.650
62991W        W31396  10.529  31.656   4.981
62992W        W31397  39.871  41.455   3.292
62993W        W31398  38.799  42.001   1.231
62994W        W31399  31.918  34.861  14.788
62995W        W31400   7.677   1.816   4.602
62996W        W31401  24.062  26.150  12.009
62997W        W31402  17.274   0.052  14.873
62998W        W31403  15.561   3.014  14.401
62999W        W31404  35.527   9.168  11.176
63000W        W31405  24.395  28.714  13.342
63001W        W31406  18.987   1.808  10.635
63002W        W31407  24.780  15.726   3.652
63003W        W31408  31.892  30.952   2.292
63004W        W31409  39.375  10.242  12.818
63005W        W31410   1.622   8.099  10.356
63006W        W31411  20.066  24.750  11.158
63007W        W31412  26.526  44.800   3.094
63008W        W31413  29.176   4.448  13.429
63009W        W31414   1.873  24.200   0.961
63010W        W31415  23.414  28.447  13.464
63011W        W31416  41.330   7.662   2.738
63012W        W31417  11.135  32.851  14.467
63013W        W31418  12.913   3.760  13.250
63014W        W31419  44.396   9.263   3.802
63015W        W31420  22.019   9.668  12.015
63016W        W31421  38.927  22.575  12.602
63017W        W31422  38.457  27.153   3.368
63018W        W31423   8.174  13.594  11.589
63019W        W31424   2.333  10.785  11.721
63020W        W31425  30.193  35.752  14.265
63021W        W31426  32.647  31.646   1.861
63022W        W31427   2.413   5.182   0.227
63023W        W31428  26.492   3.989  10.852
63024W        W31429  20.486   2.879   4.338
63025W        W31430  16.043  22.785  11.730
63026W        W31431  43.453  11.965  12.505
63027W        W31432  25.053   3.370  13.524
63028W        W31433   8.403  43.427   1.566
63029W        W31434   4.265  11.329  14.996
63030W        W31435  39.824  15.681  14.911
63031W        W31436  14.205  40.016   1.291
63032W        W31437   0.425   6.379  11.617
63033W        W31438  39.890  29.634  13.475
63034W        W31439  28.932  17.561   1.195
63035W        W31440  39.096  22.604  13.267
63036W        W31441  19.744  16.154  12.689
63037W        W31442  17.853   5.551  13.563
63038W        W31443   5.688  30.343  11.045
63039W        W31444   6.367  29.453   4.488
63040W        W31445  18.396   3.877   0.581
63041W        W31446   2.715   5.841   5.081
63042W        W31447  34.590  18.357  14.774
63043W        W31448  32.485  13.864  13.544
63044W        W31449   5.349  14.116  13.650
63045W        W31450   6.076  16.025  10.279
63046W        W31451  19.200   4.733  10.565
63047W        W31452  42.283   4.899  11.901
63048W        W31453   3.763  21.330  12.013
63049W        W31454  26.971  36.107  12.434
63050W        W31455  16.778  36.411  13.968
63051W        W31456  41.210  19.147  13.403
63052W        W31457  22.559  22.577   4.023
63053W        W31458  23.799  27.222   2.272
63054W        W31459  29.945  36.017  11.883
63055W        W31460   6.945  34.878  14.956
63056W        W31461  20.127  22.252   5.294
63057W        W31462  14.777  29.208  13.328
63058W        W31463  20.864  36.058  12.010
63059W        W31464   2.750  34.074  12.102
63060W        W31465  25.945  24.756  12.587
63061W        W31466  26.589  29.634  13.855
63062W        W31467  12.422   1.836   0.761
63063W        W31468  29.972  30.569   3.278
63064W        W31469  39.643  14.926  11.150
63065W        W31470  18.430  24.559   2.294
63066W        W31471  30.530  38.304   0.293
63067W        W31472  26.516  13.653   0.219
63068W        W31473  26.187   2.257  14.267
63069W        W31474  30.431  14.137  12.559
63070W        W31475  24.446  21.081   1.672
63071W        W31476  22.765  25.983  13.770
63072W        W31477  44.234  31.493  11.353
63073W        W31478   6.386  30.051  14.648
63074W        W31479  21.734  11.855  12.748
63075W        W31480  16.748  10.267   3.078
63076W        W31481   0.693  16.562   1.388
63077W        W31482  11.911  16.910   3.240
63078W        W31483  19.211  17.608   2.179
63079W        W31484  41.595  15.249   2.257
63080W        W31485  12.493  24.223  14.704
63081W        W31486   9.230  13.693   2.474
63082W        W31487  27.580   7.529  12.069
63083W        W31488  35.600  27.403   3.705
63084W        W31489   2.962  37.120   4.193
63085W        W31490  36.411  36.105   4.529
63086W        W31491   9.341  30.975   3.358
63087W        W31492  43.538  39.927   1.704
63088W        W31493  44.168  35.851  13.078
63089W        W31494   5.867  12.289  13.806
63090W        W31495  38.664  40.889  12.810
63091W        W31496   7.413  27.680  11.498
63092W        W31497  25.384  37.017  14.841
63093W        W31498   5.344  18.381   0.470
63094W        W31499  16.146  24.965   2.258
63095W        W31500  42.873   2.823   0.830
63096W        W31501  18.890  26.225   3.799
63097W        W31502  33.799  15.722  12.495
63098W        W31503  42.075   9.814   2.301
63099W        W31504  27.369  27.949   1.883
63100W        W31505  14.835   2.223  14.226
63101W        W31506  37.016  15.756  11.204
63102W        W31507  43.227  33.628   0.298
63103W        W31508  24.180  14.336   0.139
63104W        W31509  19.797   9.731  13.828
63105W        W31510  35.425  43.957   0.786
63106W        W31511   8.721  14.843   1.813
63107W        W31512  27.184   4.215   3.655
63108W        W31513   2.660   8.009  14.900
63109W        W31514  39.045   9.837  12.650
63110W        W31515  10.229  31.639   3.085
63111W        W31516  40.484  40.936  12.637
63112W        W31517  28.217  19.997   0.806
63113W        W31518  15.255  39.916  14.205
63114W        W31519  11.388  11.677   0.016
63115W        W31520  43.640  14.236  13.482
63116W        W31521  26.454  34.655   2.728
63117W        W31522  37.436  41.129   0.270
63118W        W31523   2.969  28.651   0.997
63119W        W31524  38.153   4.511  14.057
63120W        W31525   6.719  43.493  14.047
63121W        W31526   4.454  30.163  14.321
63122W        W31527  19.324  25.857  11.597
63123W        W31528   9.392  15.136  13.821
63124W        W31529  41.956  33.906  12.583
63125W        W31530  10.020  31.373  11.105
63126W        W31531  44.048  32.013   0.728
63127W        W31532   7.575   5.824  13.037
63128W        W31533  40.443  42.864   0.743
63129W        W31534   3.464  41.357   2.347
63130W        W31535   8.961  33.139  14.945
63131W        W31536  25.235  14.291  13.158
63132W        W31537  13.078  38.285   3.140
63133W        W31538   1.794  11.200  11.148
63134W        W31539  37.332  29.026  14.906
63135W        W31540  26.471  36.385   1.924
63136W        W31541   0.918  35.479  14.378
63137W        W31542  35.452  37.899  10.496
63138W        W31543  41.862   7.157   4.088
63139W        W31544  42.365  27.462  11.019
63140W        W31545   4.354  43.231  12.814
63141W        W31546   2.190  24.484   4.155
63142W        W31547   2.077  21.225   0.430
63143W        W31548   2.175  11.407   0.249
63144W        W31549  24.472  24.751   1.352
63145W        W31550   8.631   1.411  10.689
63146W        W31551  15.556   4.691   2.158
63147W        W31552  13.364   8.221  10.308
63148W        W31553   7.856  19.972   1.843
63149W        W31554  18.192   5.139  10.634
63150W        W31555  37.029  21.838   4.109
63151W        W31556  34.317  11.566  12.467
63152W        W31557   7.684   0.027   4.185
63153W        W31558  11.349  27.236   4.599
63154W        W31559  17.191   9.748  10.806
63155W        W31560  41.587   3.971  11.225
63156W        W31561  44.903  10.039   3.017
63157W        W31562  17.601  15.258  11.627
63158W        W31563  31.371  43.031  10.616
63159W        W31564  32.592  11.446  13.638
63160W        W31565  13.009  43.386   0.914
63161W        W31566  37.826  43.541  11.240
63162W        W31567  19.559  24.973   0.386
63163W        W31568  24.198  38.710   3.596
63164W        W31569  21.450  40.662  10.944
63165W        W31570   2.332  36.336   3.220
63166W        W31571  26.176  33.418   4.753
63167W        W31572  13.703  30.471   4.636
63168W        W31573  31.747  25.354  10.353
63169W        W31574  23.815  38.298  13.408
63170W        W31575  10.853  27.622  10.190
63171W        W31576  17.115  18.189  12.153
63172W        W31577  22.680  23.573   2.829
63173W        W31578  37.094  24.951   1.344
63174W        W31579  12.594   5.884  13.108
63175W        W31580   0.871  34.430   4.212
63176W        W31581  27.563  18.696  13.613
63177W        W31582  22.961  28.667  12.653
63178W        W31583  19.867  36.855   1.329
63179W        W31584   5.569  32.099   1.982
63180W        W31585  35.075  15.773  12.256
63181W        W31586  22.537  41.975   3.312
63182W        W31587  34.868  14.468  12.070
63183W        W31588  18.254   5.458  12.857
63184W        W31589   9.088  19.798  11.154
63185W        W31590   8.078   3.533   5.050
63186W        W31591  28.999  32.455   4.256
63187W        W31592  28.623  17.783   3.557
63188W        W31593  44.885  22.187  11.362
63189W        W31594  20.082  27.313  13.915
63190W        W31595  32.140   8.963  10.246
63191W        W31596  38.904  31.212   3.071
63192W        W31597  14.876  21.629  10.465
63193W        W31598  15.320  31.435   2.022
63194W        W31599  41.354  33.636   9.877
63195W        W31600  30.502   0.506   2.895
63196W        W31601  13.771  13.582   4.602
63197W        W31602  22.796  19.128   1.204
63198W        W31603   0.326   5.339   3.714
63199W        W31604  25.269  35.515   3.419
63200W        W31605  22.569  14.827  13.285
63201W        W31606  30.851  15.017  12.976
63202W        W31607  24.627  43.326  13.561
63203W        W31608   7.353  33.553  12.460
63204W        W31609  33.987  41.393  10.509
63205W        W31610  17.561  44.378   2.683
63206W        W31611  23.949  14.827  11.887
63207W        W31612  30.723  19.141   5.414
63208W        W31613   9.185  20.287  10.456
63209W        W31614  25.475  28.494  13.626
63210W        W31615  28.225  28.956  10.084
63211W        W31616  17.846  13.074   2.799
63212W        W31617  36.506  16.789   4.379
63213W        W31618   4.247  12.520  10.652
63214W        W31619  11.931  29.472  13.345
63215W        W31620  11.731  24.630   1.755
63216W        W31621   3.416   3.288   3.243
63217W        W31622  18.335  22.973  11.220
63218W        W31623  36.124  16.740  13.480
63219W        W31624  34.736  38.760   3.734
63220W        W31625  36.420  28.019  12.610
63221W        W31626  42.072  37.415   2.749
63222W        W31627  21.508  34.154  11.123
63223W        W31628  34.661  14.208  14.742
63224W        W31629  26.072   5.144   4.620
63225W        W31630  29.995  28.572   1.898
63226W        W31631   6.651  29.265   0.755
63227W        W31632  10.794   2.294   2.709
63228W        W31633  30.636   4.844  14.126
63229W        W31634  43.478  14.193  12.554
63230W        W31635   9.704  36.346  10.773
63231W        W31636   1.710  28.950  11.235
63232W        W31637   9.862  33.124  12.587
63233W        W31638  30.254  36.912  14.362
63234W        W31639  41.001  16.855  12.985
63235W        W31640  37.377  29.884   4.117
63236W        W31641  16.543  44.295   2.771
63237W        W31642  33.425   4.684   2.794
63238W        W31643  25.806   1.534  11.546
63239W        W31644  34.178  12.997  12.361
63240W        W31645  36.995  16.269   3.474
63241W        W31646  17.274   4.731  14.465
63242W        W31647  28.486  28.567   3.411
63243W        W31648  31.973  20.110   2.023
63244W        W31649   0.465  40.035  10.838
63245W        W31650  39.546  16.662  13.073
63246W        W31651  22.028  41.842   2.372
63247W        W31652  11.844  38.930   1.645
63248W        W31653   9.927  18.095  13.531
63249W        W31654  40.691  32.948  13.393
63250W        W31655  41.876  20.095   4.935
63251W        W31656   0.963  17.568  14.245
63252W        W31657   1.330  31.130   0.693
63253W        W31658  36.863  35.391   2.124
63254W        W31659  25.917   0.568   1.262
63255W        W31660   2.863  11.225   1.280
63256W        W31661  43.702  21.549  10.707
63257W        W31662  19.776   5.347   4.601
63258W        W31663  22.420   7.916   3.451
63259W        W31664  29.439   3.162   0.290
63260W        W31665  43.311  39.854  14.472
63261W        W31666   4.940  20.527  10.521
63262W        W31667  43.544  28.359   1.454
63263W        W31668  38.317   7.380   4.269
63264W        W31669  33.459   5.165  11.903
63265W        W31670  40.530  40.981   4.225
63266W        W31671  26.942  19.579   4.611
63267W        W31672   8.906  16.597   2.195
63268W        W31673  40.829   5.193   0.412
63269W        W31674  15.258  30.516  10.195
63270W        W31675   4.878  23.218  14.092
63271W        W31676  12.549  33.897   2.935
63272W        W31677  38.058   5.843   1.291
63273W        W31678  26.118  24.769   3.288
63274W        W31679  17.167  17.308   0.856
63275W        W31680  32.966   6.512  12.112
63276W        W31681  23.807  15.480   4.530
63277W        W31682  25.018  17.799   2.326
63278W        W31683  19.634  26.554  12.860
63279W        W31684  33.023  11.807  12.966
63280W        W31685   7.529  10.770  14.375
63281W        W31686   8.636  23.219   4.107
63282W        W31687  32.962  22.511   3.756
63283W        W31688  18.668  38.812  13.841
63284W        W31689  36.974  37.874   4.808
63285W        W31690  17.338  16.307   2.733
63286W        W31691  38.357  22.957  13.941
63287W        W31692  28.483   7.625  12.077
63288W        W31693  38.105  35.402  11.967
63289W        W31694  19.141  30.581   0.212
63290W        W31695  28.579  37.212   9.861
63291W        W31696   6.740  28.738   2.411
63292W        W31697  24.473  30.530   4.667
63293W        W31698  24.692  15.337  13.342
63294W        W31699  34.364  15.162   2.668
63295W        W31700   1.031  15.274   1.241
63296W        W31701  44.512  20.593   2.395
63297W        W31702   5.720  20.254  11.271
63298W        W31703  35.406  39.090   1.324
63299W        W31704  32.212   6.956   2.599
63300W        W31705  29.659  30.133   3.382
63301W        W31706   5.501   0.029   4.103
63302W        W31707   4.316  16.389  12.414
63303W        W31708   5.894   9.272   4.424
63304W        W31709  36.952  42.488  14.599
63305W        W31710   9.776   7.659  12.500
63306W        W31711  39.298  29.833  14.706
63307W        W31712  27.496   1.156  13.099
63308W        W31713  18.881   3.765   4.784
63309W        W31714  21.135  26.193   3.760
63310W        W31715  34.154  14.175  12.986
63311W        W31716  38.339  12.573  13.040
63312W        W31717  30.064  13.576   2.100
63313W        W31718  26.661  25.889  13.953
63314W        W31719  30.707  33.459   4.914
63315W        W31720   0.941  29.660   2.931
63316W        W31721   3.203  11.745   2.633
63317W        W31722  17.860   6.767   0.440
63318W        W31723  30.175   3.941  14.336
63319W        W31724  42.902  38.621  12.466
63320W        W31725  29.500  15.865   1.400
63321W        W31726  32.265   4.979   1.990
63322W        W31727  35.356  31.335  13.033
63323W        W31728  21.481  43.038  13.963
63324W        W31729  11.402  27.040   0.261
63325W        W31730  21.481  10.423  10.730
63326W        W31731   2.374  25.755  13.455
63327W        W31732  17.550  42.206  13.018
63328W        W31733  15.718  14.019   2.764
63329W        W31734  20.686  41.819  12.042
63330W        W31735  18.802  33.412  13.987
63331W        W31736  26.490  22.984  10.939
63332W        W31737  34.652  24.939  11.601
63333W        W31738  33.121  13.053  14.313
63334W        W31739  41.955   7.462   3.648
63335W        W31740   3.961   6.228  11.342
63336W        W31741   0.676  23.511  14.299
63337W        W31742  36.887  24.336  13.497
63338W        W31743  44.080  31.454  12.889
63339W        W31744  37.861  37.342  12.073
63340W        W31745  29.426  24.904  12.497
63341W        W31746   0.511  21.558  13.793
63342W        W31747  13.001   0.251  14.070
63343W        W31748  16.971  30.621  10.569
63344W        W31749  26.941  43.339   1.404
63345W        W31750  30.464  32.911  12.635
63346W        W31751  44.991   8.930   0.293
63347W        W31752  39.911  17.545   2.546
63348W        W31753   8.223   4.757   1.251
63349W        W31754  41.974  24.824  11.548
63350W        W31755  14.235  11.736  13.776
63351W        W31756  16.697  21.073   1.350
63352W        W31757  15.053  38.338  13.510
63353W        W31758  19.709  29.322  12.507
63354W        W31759   0.297  16.481   4.052
63355W        W31760  14.740  42.463  14.976
63356W        W31761  41.231  28.142  12.853
63357W        W31762  18.169  27.968   2.697
63358W        W31763  15.644  23.589   4.550
63359W        W31764   8.420  34.543  13.316
63360W        W31765  37.892   1.914  11.870
63361W        W31766  17.494   6.930   0.756
63362W        W31767  23.508  39.774  12.456
63363W        W31768  44.673  30.589   0.690
63364W        W31769  29.962  37.246   4.032
63365W        W31770   8.549   8.243  11.436
63366W        W31771  10.793  31.223   3.702
63367W        W31772  26.171  23.587  14.991
63368W        W31773  38.935  33.158  13.450
63369W        W31774   6.301   6.972  13.059
63370W        W31775  14.104  29.035   0.677
63371W        W31776  16.113   5.820   2.848
63372W        W31777   7.805  44.930  12.015
63373W        W31778  25.043  26.667   0.354
63374W        W31779  30.905  37.272  11.096
63375W        W31780  26.017   3.508  12.170
63376W        W31781  14.607  25.205  11.629
63377W        W31782  19.115  36.546  12.121
63378W        W31783   9.202  37.665  11.115
63379W        W31784  18.855  20.755   1.945
63380W        W31785  36.849   0.549  11.513
63381W        W31786  21.599   2.976   0.085
63382W        W31787   1.868  14.820   3.272
63383W        W31788  12.875  17.281   0.194
63384W        W31789  39.463  37.120   3.625
63385W        W31790  16.663  27.515   0.961
63386W        W31791  25.929  34.996   1.491
63387W        W31792   1.383   7.753  12.068
63388W        W31793   3.671   8.696  12.902
63389W        W31794  42.497   1.771   4.614
63390W        W31795  10.811  38.803   3.787
63391W        W31796  16.211   4.485  12.980
63392W        W31797  21.074  13.895   0.886
63393W        W31798  40.610  11.960  11.593
63394W        W31799  21.293  25.726  14.303
63395W        W31800   3.641  19.602  13.872
63396W        W31801  32.834  24.740  11.195
63397W        W31802  16.328   8.148   3.715
63398W        W31803   4.882  15.360   1.829
63399W        W31804   9.865  13.215  14.944
63400W        W31805  19.557  38.363   2.111
63401W        W31806   0.038   6.893  13.984
63402W        W31807  19.671   3.127  11.703
63403W        W31808  18.068  31.563   1.670
63404W        W31809  18.983  10.679   1.278
63405W        W31810  20.058  38.213  12.766
63406W        W31811  14.359  23.742   1.859
63407W        W31812   6.286  15.032   3.236
63408W        W31813  41.448  10.843  13.430
63409W        W31814   4.965  31.400  11.247
63410W        W31815  15.259  13.828   1.527
63411W        W31816   9.598  12.334   0.318
63412W        W31817   1.925   9.287   1.841
63413W        W31818  31.491  23.548  11.691
63414W        W31819  10.568  10.165   0.825
63415W        W31820  36.047  15.661   1.429
63416W        W31821   3.932   8.904   3.143
63417W        W31822  24.949  27.954   0.968
63418W        W31823  15.154   3.437   1.850
63419W        W31824   3.394  15.284   3.319
63420W        W31825   9.100  41.464   1.202
63421W        W31826  15.629  35.030   2.785
63422W        W31827  27.740  33.952   3.623
63423W        W31828  12.333   0.102  10.794
63424W        W31829   2.967  29.592  12.546
63425W        W31830  29.988  13.011  14.890
63426W        W31831   5.374  11.372   3.234
63427W        W31832  26.581  31.946   1.115
63428W        W31833  31.131   0.707   0.746
63429W        W31834   7.829  21.897  11.631
63430W        W31835  15.339  36.034   0.477
63431W        W31836   7.217  38.898   3.697
63432W        W31837   3.650   3.441  13.390
63433W        W31838   4.886  23.218  10.638
63434W        W31839  41.523  30.002  11.607
63435W        W31840  44.738   3.753   0.241
63436W        W31841  12.626  31.019   2.345
63437W        W31842  42.443  12.298   4.819
63438W        W31843   0.942  43.019  12.350
63439W        W31844  15.709   1.906  10.590
63440W        W31845  41.434  22.964  12.919
63441W        W31846  41.974  34.201   0.062
63442W        W31847  13.231   8.493  11.846
63443W        W31848  37.304  31.466  13.055
63444W        W31849  41.953  26.923  13.486
63445W        W31850  27.332  34.453  11.673
63446W        W31851  40.772  37.528  13.834
63447W        W31852  44.860   3.873  13.386
63448W        W31853  33.226  28.068  11.114
63449W        W31854  14.930  14.677   1.309
63450W        W31855  21.399  39.173  13.839
63451W        W31856   4.335  15.121   1.181
63452W        W31857   9.820  22.740  11.411
63453W        W31858  21.231  26.077   4.843
63454W        W31859   5.997  37.026   3.937
63455W        W31860  37.346  21.046   2.884
63456W        W31861  44.273  16.534   2.530
63457W        W31862  27.201  43.784   4.046
63458W        W31863  28.653  24.188  13.848
63459W        W31864  36.867  38.779  14.385
63460W        W31865   6.217  27.689  11.493
63461W        W31866  11.912  39.171  12.511
63462W        W31867  32.692  41.019  10.755
63463W        W31868  20.179  22.781   0.122
63464W        W31869  44.470   2.352   0.436
63465W        W31870  38.580  25.169   2.852
63466W        W31871  22.247   6.394   0.460
63467W        W31872  14.185  26.516  10.341
63468W        W31873  13.558   4.026   2.727
63469W        W31874  30.498   2.883   4.610
63470W        W31875  35.258  18.315  12.160
63471W        W31876  10.251   0.289  11.041
63472W        W31877   5.742  15.543   4.857
63473W        W31878  19.242  31.665   0.797
63474W        W31879   2.201  43.694  12.472
63475W        W31880  20.551  25.687   3.258
63476W        W31881   3.002   5.661  11.020
63477W        W31882  28.168   5.987   0.203
63478W        W31883  43.952   7.578   1.677
63479W        W31884   0.821  23.590   1.445
63480W        W31885   2.338  27.738   4.543
63481W        W31886   2.775  28.624  12.396
63482W        W31887  16.314  44.735  12.007
63483W        W31888   6.397   7.146   2.431
63484W        W31889   9.611  41.518   1.195
63485W        W31890  20.524  38.295  10.717
63486W        W31891  38.337  35.007   2.211
63487W        W31892   7.194  36.047  13.435
63488W        W31893  29.026  28.094  12.390
63489W        W31894  43.075   9.342  14.555
63490W        W31895  28.579  32.555   0.954
63491W        W31896  41.461   9.141   4.816
63492W        W31897   6.606  42.849   1.775
63493W        W31898  11.188   9.403   0.263
63494W        W31899  23.047  21.193   4.812
63495W        W31900  28.476   7.474   1.766
63496W        W31901  34.439  37.924   0.433
63497W        W31902  17.820  29.101  12.100
63498W        W31903  20.989  13.054  11.573
63499W        W31904  19.920  31.921  11.015
63500W        W31905  23.492  19.825   3.728
63501W        W31906  16.643  17.257  12.579
63502W        W31907  35.369  31.572   3.216
63503W        W31908   5.220  16.129   3.427
63504W        W31909  37.434  34.995   4.650
63505W        W31910   4.800   1.781  10.426
63506W        W31911  15.219  13.706   3.926
63507W        W31912  40.502  44.233  13.783
63508W        W31913  42.507  36.959   3.075
63509W        W31914  14.494  22.152  13.071
63510W        W31915  43.481  40.526  13.696
63511W        W31916  38.813   7.832  12.829
63512W        W31917  32.226  41.938   0.250
63513W        W31918  28.508   0.619  12.373
63514W        W31919   3.263  41.975   0.375
63515W        W31920   5.666  35.333   2.411
63516W        W31921   9.636  41.595  11.118
63517W        W31922  18.153  44.459  13.986
63518W        W31923  43.199  37.860   3.867
63519W        W31924  29.458   5.323   0.947
63520W        W31925  13.934  16.637   0.750
63521W        W31926   7.465  17.109   0.604
63522W        W31927  38.032  30.978  11.173
63523W        W31928  40.538  37.005  12.232
63524W        W31929   2.474   9.292   4.203
63525W        W31930  32.407  39.365  10.623
63526W        W31931   4.455  13.221  12.467
63527W        W31932  40.349  32.012  14.024
63528W        W31933   4.173  37.753   1.833
63529W        W31934  38.478   6.486  12.560
63530W        W31935  29.358  31.557  12.020
63531W        W31936  38.479   2.159   9.840
63532W        W31937  29.382   5.393  14.849
63533W        W31938  44.544  24.678   2.868
63534W        W31939  18.137  28.409   4.569
63535W        W31940  13.375   3.061  14.725
63536W        W31941  44.432  20.513  13.389
63537W        W31942  14.277   1.722  13.549
63538W        W31943  14.526  14.591  13.349
63539W        W31944   3.825  24.148   2.840
63540W        W31945  35.036  40.440   1.393
63541W        W31946  25.565   4.648   0.289
63542W        W31947  18.387  42.110  14.150
63543W        W31948  23.353  39.589   1.932
63544W        W31949   0.533  34.126  13.490
63545W        W31950   8.425  27.655  12.402
63546W        W31951  18.991   8.803   3.155
63547W        W31952  10.227  10.071  13.514
63548W        W31953  14.833  31.639  14.446
63549W        W31954  10.357  15.247  14.878
63550W        W31955  41.350  42.067   3.498
63551W        W31956  19.772   9.618  11.672
63552W        W31957  31.022   7.437  12.425
63553W        W31958  42.535  16.597   0.862
63554W        W31959  22.960  15.624  10.764
63555W        W31960   5.256  28.887   5.067
63556W        W31961   8.508   8.239  12.953
63557W        W31962  16.289  38.351  13.512
63558W        W31963  43.566  23.135  12.067
63559W        W31964  19.232  37.861   1.901
63560W        W31965  20.338  12.616   4.542
63561W        W31966  40.634   0.480  12.897
63562W        W31967  34.433  28.412   2.902
63563W        W31968  18.631  11.687  11.960
63564W        W31969   6.836  42.092  10.594
63565W        W31970   7.925  32.181   4.251
63566W        W31971  22.499  17.685  12.538
63567W        W31972  26.367  27.988  10.641
63568W        W31973  11.095   6.191  12.417
63569W        W31974  27.969  42.782   3.150
63570W        W31975   0.532  29.566  13.347
63571W        W31976   4.708   1.499  11.603
63572W        W31977  12.072  16.206  13.996
63573W        W31978  10.030  36.849   1.318
63574W        W31979   1.060  35.354   3.665
63575W        W31980  32.677  41.646   1.851
63576W        W31981  16.497  37.074  14.471
63577W        W31982  14.718   1.462  13.524
63578W        W31983  23.796  24.657   4.470
63579W        W31984  23.037  19.400  13.490
63580W        W31985  11.772  35.664  10.591
63581W        W31986  34.048  12.849   2.253
63582W        W31987  27.706  35.374  10.645
63583W        W31988   9.116  34.649   1.946
63584W        W31989  19.606   6.106  14.765
63585W        W31990  28.259  29.597  14.876
63586W        W31991  19.258   1.301   2.464
63587W        W31992  13.249   1.389  10.852
63588W        W31993  38.002  27.964   3.842
63589W        W31994  38.981   4.263  14.791
63590W        W31995  38.129  26.650   0.914
63591W        W31996  40.534  25.954  13.043
63592W        W31997   4.975  33.453   3.759
63593W        W31998  27.023  43.502   4.460
63594W        W31999  30.362  32.845   0.438
63595W        W32000   3.776  19.431   0.861
63596W        W32001  18.707  41.881   2.165
63597W        W32002  38.686   1.616  13.489
63598W        W32003  31.146  37.106   0.251
63599W        W32004  17.631  16.849  13.876
63600W        W32005  24.558   7.728   4.453
63601W        W32006  23.897  33.109   2.421
63602W        W32007  24.012  27.523   1.690
63603W        W32008  33.030  36.164  14.386
63604W        W32009  31.620   4.465   1.754
63605W        W32010  17.347  35.946  12.186
63606W        W32011  25.177  44.178  14.587
63607W        W32012  11.335  42.910  13.843
63608W        W32013  28.223  17.027   3.261
63609W        W32014  44.327  38.582  14.472
63610W        W32015   6.210  14.765   3.666
63611W        W32016  31.636  24.216   0.343
63612W        W32017   0.926  36.507   0.008
63613W        W32018   6.826  14.594   0.983
63614W        W32019  11.505   9.788   2.114
63615W        W32020  35.019  41.135  11.219
63616W        W32021   4.237  41.028   1.848
63617W        W32022  37.613  23.508  10.753
63618W        W32023  27.242   2.297   3.623
63619W        W32024  29.906  11.324  14.910
63620W        W32025  34.394  34.435   1.663
63621W        W32026  36.902  22.202   2.651
63622W        W32027  33.813  35.404  10.682
63623W        W32028  43.499  23.230  13.043
63624W        W32029   0.858  20.131  11.357
63625W        W32030   1.464  17.270   2.209
63626W        W32031  43.088   5.872   3.942
63627W        W32032  10.132  12.026   2.653
63628W        W32033   8.760  28.531   1.738
63629W        W32034  44.018  17.907  12.828
63630W        W32035  11.022  36.957  13.954
63631W        W32036  32.096  44.703   1.496
63632W        W32037  25.645  44.854   1.244
63633W        W32038  25.012  43.347  11.413
63634W        W32039  17.541  30.463  12.498
63635W        W32040  39.973  14.284   1.754
63636W        W32041  43.411  33.855   1.918
63637W        W32042  32.964  43.042   2.217
63638W        W32043  36.417   0.327  10.784
63639W        W32044   2.313  20.008  11.676
63640W        W32045  18.048  21.575  11.563
63641W        W32046  29.112  31.928   3.685
63642W        W32047  16.824  31.149  10.683
63643W        W32048  13.649  20.088   2.360
63644W        W32049  24.059  30.068   0.409
63645W        W32050  21.709  18.515  11.557
63646W        W32051   7.401   1.420   4.809
63647W        W32052  15.175  36.231   1.214
63648W        W32053  24.102  33.382  14.373
63649W        W32054  11.027   4.483   2.745
63650W        W32055  38.188  25.244  11.658
63651W        W32056   7.300  16.945   1.763
63652W        W32057   2.558  33.606   5.037
63653W        W32058  12.016   4.359   0.079
63654W        W32059  17.168   2.089   4.962
63655W        W32060   3.809   9.174   3.640
63656W        W32061   3.213   0.417   1.772
63657W        W32062  10.290  19.834  14.470
63658W        W32063  33.687  42.038   0.219
63659W        W32064   5.931  25.890   0.049
63660W        W32065   5.735  18.215   4.110
63661W        W32066   9.121  37.344  12.083
63662W        W32067  13.374   5.305  13.445
63663W        W32068   7.777  12.217  10.209
63664W        W32069   3.307   1.972  12.361
63665W        W32070  26.195   8.727   1.289
63666W        W32071  39.849  17.632   3.132
63667W        W32072  23.460  26.408   3.102
63668W        W32073  38.906  17.253  14.273
63669W        W32074   0.874  24.434  11.736
63670W        W32075  29.354  33.740   4.381
63671W        W32076  41.481  30.644  14.968
63672W        W32077  33.914  17.686  11.552
63673W        W32078  39.356  26.525  13.038
63674W        W32079   4.754  33.503  14.241
63675W        W32080   6.173  23.039  14.880
63676W        W32081   1.842  43.259  13.538
63677W        W32082   3.464  12.397  12.442
63678W        W32083  12.274  15.540  10.182
63679W        W32084  38.930  39.343   2.255
63680W        W32085  44.957  12.837   0.688
63681W        W32086  14.201  29.870   0.653
63682W        W32087  11.809  43.077  13.771
63683W        W32088  25.730  30.133  13.500
63684W        W32089  19.709  38.171   1.212
63685W        W32090  42.513  18.212  14.973
63686W        W32091   9.373  21.871  14.708
63687W        W32092  35.995  37.592   2.764
63688W        W32093  44.530  15.776   0.048
63689W        W32094  39.175   1.954  11.304
63690W        W32095  22.595  32.563   1.393
63691W        W32096  36.812  15.910   4.313
63692W        W32097  21.180   6.365   4.760
63693W        W32098  26.257  42.210   2.466
63694W        W32099   9.241  17.138  13.046
63695W        W32100  37.442  39.040  10.797
63696W        W32101  11.104  38.423   2.137
63697W        W32102   8.156  23.476  14.419
63698W        W32103  23.100   4.987  14.077
63699W        W32104   2.282   4.650  10.507
63700W        W32105  26.785  23.110   2.810
63701W        W32106  42.397  27.153   4.840
63702W        W32107  33.791  28.679   0.744
63703W        W32108  43.333  25.245   4.587
63704W        W32109   5.698  16.800   4.596
63705W        W32110   2.445  40.555   4.175
63706W        W32111  43.900  32.883  12.547
63707W        W32112  20.348  31.080   4.755
63708W        W32113   4.627  35.742   1.134
63709W        W32114  34.669  27.496  14.450
63710W        W32115  42.576  25.668  11.488
63711W        W32116   6.781  11.876   1.359
63712W        W32117  40.575  15.722   0.404
63713W        W32118  43.775   3.549  13.991
63714W        W32119  33.396  11.340  10.648
63715W        W32120  39.603  17.250   3.878
63716W        W32121  27.870   4.395  10.683
63717W        W32122  25.954  36.573   0.845
63718W        W32123  26.948   7.865  14.815
63719W        W32124   6.258  29.982   1.306
63720W        W32125  22.883  11.099  14.867
63721W        W32126  12.624  35.472   2.147
63722W        W32127  20.728  33.872  14.621
63723W        W32128  25.044  14.833   4.940
63724W        W32129  10.673  40.824   1.823
63725W        W32130  11.686  25.752  12.597
63726W        W32131  37.847  28.205  11.094
63727W        W32132  31.106   3.204  13.624
63728W        W32133  13.154  27.760   1.923
63729W        W32134  35.419   7.078  14.288
63730W        W32135  24.550  37.551  13.847
63731W        W32136  23.329  32.029  13.004
63732W        W32137   3.845  16.961   0.811
63733W        W32138  37.413  12.358   0.720
63734W        W32139  19.283  39.621   3.129
63735W        W32140   4.397   8.449   3.143
63736W        W32141  24.607  26.691   1.944
63737W        W32142  32.995   4.400  11.372
63738W        W32143  13.828   2.427  13.644
63739W        W32144  37.345  37.915   2.784
63740W        W32145   4.760  26.384  13.653
63741W        W32146  29.008   5.484   0.738
63742W        W32147  34.725  40.982   0.564
63743W        W32148  44.270  27.688  13.376
63744W        W32149  30.512   9.072   0.846
63745W        W32150  10.721  17.592  13.521
63746W        W32151   1.545  33.030  13.046
63747W        W32152  31.371  33.074   0.245
63748W        W32153  23.386  10.900   0.004
63749W        W32154   8.397  27.062   3.730
63750W        W32155   3.987  11.764  12.322
63751W        W32156   5.786   1.788  12.374
63752W        W32157  26.201  17.683   3.023
63753W        W32158  19.623  21.047   4.113
63754W        W32159  25.552  18.760   0.266
63755W        W32160  15.574   4.728  13.016
63756W        W32161  33.539  31.052   4.773
63757W        W32162   8.527  29.112   3.668
63758W        W32163   4.444  22.717   1.202
63759W        W32164  24.342  40.516   2.351
63760W        W32165  13.279   0.210   2.643
63761W        W32166  20.075  29.085  14.375
63762W        W32167   7.491  33.980  11.253
63763W        W32168  36.008   0.040   3.621
63764W        W32169  43.004   4.400   2.288
63765W        W32170  28.850  36.165  12.533
63766W        W32171   4.911   8.381  12.132
63767W        W32172  38.608  44.321   5.014
63768W        W32173  20.992  18.080  13.495
63769W        W32174  34.992  17.487   1.764
63770W        W32175   6.617  26.017   3.162
63771W        W32176  20.630  11.078  10.590
63772W        W32177  20.508  10.701   2.857
63773W        W32178  16.659  16.650   0.547
63774W        W32179  21.170  11.313   1.423
63775W        W32180  14.085  19.645  12.120
63776W        W32181  21.558  32.562   0.433
63777W        W32182  36.439  37.076   0.382
63778W        W32183   1.782  26.996  14.042
63779W        W32184  18.194  30.912   4.184
63780W        W32185  40.884  18.492   1.887
63781W        W32186  26.183   9.738   1.411
63782W        W32187  34.809  12.952   4.538
63783W        W32188  22.711  21.730   4.607
63784W        W32189   9.397  15.561  12.215
63785W        W32190  26.548  27.239  12.095
63786W        W32191  25.366  21.851   4.103
63787W        W32192  38.579  11.450  11.029
63788W        W32193   3.914  44.447  12.024
63789W        W32194  41.511  24.069   0.739
63790W        W32195  32.127  42.739  14.386
63791W        W32196  26.261  25.032  11.196
63792W        W32197  39.025   5.465   5.647
63793W        W32198   8.892  21.501   2.027
63794W        W32199   7.382  23.209   3.718
63795W        W32200  31.877  23.175  12.974
63796W        W32201   1.147  27.432   2.842
63797W        W32202   3.864   6.286  12.359
63798W        W32203   8.267  14.610  11.521
63799W        W32204  21.610  32.512  13.864
63800W        W32205  38.408  18.021   1.882
63801W        W32206  34.298  27.494  14.061
63802W        W32207   5.889   8.615  13.341
63803W        W32208  36.492  25.919  12.947
63804W        W32209  20.691  30.163   4.392
63805W        W32210  42.016   8.272  12.967
63806W        W32211  20.826   0.826  11.074
63807W        W32212  35.733  33.342   2.666
63808W        W32213   0.272  29.875   0.292
63809W        W32214  16.422  37.357  14.043
63810W        W32215  32.575  20.967   4.638
63811W        W32216   8.811  43.591  14.477
63812W        W32217  21.432   8.885  12.926
63813W        W32218  38.948  10.795  14.214
63814W        W32219   8.576  20.707   4.171
63815W        W32220  24.060  44.930  12.289
63816W        W32221  17.521  41.988   0.831
63817W        W32222  39.752  24.448   0.929
63818W        W32223  22.759   7.299  11.895
63819W        W32224  24.749  15.170  12.849
63820W        W32225  38.097  28.273   1.291
63821W        W32226  17.096  18.683   3.775
63822W        W32227  17.631  23.832   2.909
63823W        W32228  11.595  28.638   0.886
63824W        W32229  29.478   8.307  12.981
63825W        W32230  27.803  35.943   3.126
63826W        W32231  18.489  19.806  12.996
63827W        W32232   5.160  17.174  11.786
63828W        W32233  11.378  35.938   1.906
63829W        W32234   3.316   2.492   0.476
63830W        W32235  42.440  24.022   2.472
63831W        W32236  33.855  20.248  13.559
63832W        W32237   5.676   8.231  13.750
63833W        W32238   2.440  18.587  13.980
63834W        W32239  41.303  21.131  13.031
63835W        W32240  44.400  30.111   4.184
63836W        W32241   9.783  20.956   2.428
63837W        W32242  20.116  13.720   3.283
63838W        W32243  37.099  27.167  11.070
63839W        W32244   5.933  26.443   2.305
63840W        W32245   6.146   2.220  11.607
63841W        W32246   1.199  29.463   1.844
63842W        W32247   1.021  29.991   3.313
63843W        W32248  16.793  18.592  12.373
63844W        W32249  23.225  25.168  10.865
63845W        W32250  34.131  41.490   1.779
63846W        W32251   2.323  35.143   1.856
63847W        W32252  43.590  25.899   1.095
63848W        W32253  42.271   3.344   3.160
63849W        W32254  25.017  10.287   2.754
63850W        W32255  29.011   4.369   2.707
63851W        W32256  28.359   4.149  12.453
63852W        W32257  32.593  14.108  14.450
63853W        W32258  23.542  39.281   0.248
63854W        W32259  18.593  26.470   2.861
63855W        W32260  21.187  10.644   4.087
63856W        W32261  20.143  23.630  13.274
63857W        W32262  17.292   4.667  13.539
63858W        W32263  26.922   9.233   3.401
63859W        W32264   9.866  21.741   1.884
63860W        W32265  10.166  24.905   3.747
63861W        W32266  14.556  26.054  10.645
63862W        W32267  16.356  41.578   4.203
63863W        W32268  32.272   9.775  14.916
63864W        W32269   8.820  26.613   1.211
63865W        W32270  11.084  16.132  11.820
63866W        W32271  44.812  21.014   0.221
63867W        W32272  36.109  26.555   0.718
63868W        W32273  33.992  20.557  14.853
63869W        W32274  29.203  30.149   3.046
63870W        W32275  19.122  41.066   0.780
63871W        W32276   2.417  29.198  11.981
63872W        W32277   2.315  35.792   0.968
63873W        W32278   1.255  12.086   4.554
63874W        W32279  22.485  42.178   4.640
63875W        W32280  30.449  18.610   0.325
63876W        W32281  13.257   4.213   3.600
63877W        W32282  35.481  10.004  13.843
63878W        W32283  16.025  23.159   2.426
63879W        W32284  11.078   8.313   4.607
63880W        W32285  26.104  12.629   4.296
63881W        W32286  41.655  24.744   2.182
63882W        W32287   8.324  25.486   4.378
63883W        W32288   5.960   2.265  12.602
63884W        W32289  12.795  19.652  12.167
63885W        W32290   8.929   4.442  11.817
63886W        W32291   8.828   5.387  13.538
63887W        W32292   5.837  39.509  12.898
63888W        W32293  35.983  43.869   3.322
63889W        W32294   6.934  39.707   3.293
63890W        W32295   0.757  40.543  13.374
63891W        W32296  28.631  22.258   4.671
63892W        W32297  26.677   1.374   4.874
63893W        W32298  34.431  42.311   3.147
63894W        W32299  11.921   4.843  11.647
63895W        W32300  11.915  18.516   2.395
63896W        W32301  10.657  22.983  11.251
63897W        W32302  41.919   2.653  11.519
63898W        W32303  39.358  42.603   3.426
63899W        W32304  26.503  35.355  13.401
63900W        W32305  16.237  20.760  11.904
63901W        W32306  21.210  30.854   4.147
63902W        W32307   6.841   4.807   3.404
63903W        W32308   9.225  11.341  14.976
63904W        W32309   2.965  33.027  13.560
63905W        W32310  18.460  13.300  12.404
63906W        W32311  11.375  32.868   0.739
63907W        W32312  28.088  40.107   2.749
63908W        W32313  43.253  29.143  11.656
63909W        W32314  43.192  41.562  12.464
63910W        W32315  23.953  16.687   4.166
63911W        W32316   1.631  18.770  13.831
63912W        W32317   8.595  36.138   5.095
63913W        W32318   4.681   4.765   3.316
63914W        W32319  24.046  14.245  11.620
63915W        W32320  28.861  36.960  10.411
63916W        W32321  23.029  28.427  11.687
63917W        W32322  25.039  26.419   1.695
63918W        W32323  13.744  21.881   2.653
63919W        W32324  28.409  20.033   2.342
63920W        W32325   4.585  11.638   4.585
63921W        W32326  37.840  11.427   2.536
63922W        W32327  38.804   0.329  10.610
63923W        W32328  22.025   1.192  11.812
63924W        W32329  18.535   9.836   3.889
63925W        W32330  36.335   8.244   4.816
63926W        W32331  23.117  18.261  12.506
63927W        W32332  24.960   2.378   1.876
63928W        W32333  22.954  13.599   2.177
63929W        W32334  14.623   5.844   4.301
63930W        W32335   6.226  41.478   4.572
63931W        W32336   7.471  40.131   0.930
63932W        W32337  35.888  31.269   4.027
63933W        W32338   8.298  22.634  12.599
63934W        W32339  18.115  24.622   4.523
63935W        W32340   5.712  40.490   0.995
63936W        W32341  13.259  12.329  14.302
63937W        W32342  24.361   6.242   4.605
63938W        W32343   1.792  31.093  14.344
63939W        W32344   5.746  38.328   0.567
63940W        W32345  14.884  27.495  10.812
63941W        W32346  29.703  23.020  14.539
63942W        W32347  30.663  31.381  13.854
63943W        W32348  33.452   2.425   3.788
63944W        W32349   9.301  17.264   0.405
63945W        W32350   1.475  14.773   1.269
63946W        W32351   4.609  41.716   2.934
63947W        W32352  28.052  32.047  13.607
63948W        W32353  26.203  11.703   1.017
63949W        W32354  13.667  39.805  12.751
63950W        W32355  42.414   0.360  14.256
63951W        W32356  34.111  37.834   2.641
63952W        W32357  19.579   5.237  11.174
63953W        W32358   4.998   7.803   0.275
63954W        W32359  20.792  18.526   0.808
63955W        W32360  15.076  13.166  14.830
63956W        W32361  18.846  26.819   5.072
63957W        W32362  40.228  29.794   3.186
63958W        W32363  15.739  28.486  11.929
63959W        W32364  11.258  34.215   4.127
63960W        W32365  26.580  14.232  13.436
63961W        W32366   9.060   6.871   3.767
63962W        W32367  43.425   9.057   0.941
63963W        W32368  19.677  23.762  13.060
63964W        W32369  22.586  15.752  13.583
63965W        W32370  15.120  21.281  11.532
63966W        W32371  24.094  28.485  12.341
63967W        W32372  17.725  11.300   4.529
63968W        W32373   9.240  32.039   4.890
63969W        W32374   4.980   8.773  10.299
63970W        W32375  21.963  32.520  10.546
63971W        W32376  42.856  32.492  12.099
63972W        W32377   2.663  12.143   4.726
63973W        W32378   6.220   0.993  12.885
63974W        W32379  15.998  26.994  14.428
63975W        W32380  38.653   2.293  13.931
63976W        W32381   3.470   9.338  12.381
63977W        W32382   0.026  26.071  11.572
63978W        W32383  14.336   7.634   1.334
63979W        W32384  26.601  27.060  11.612
63980W        W32385   1.943  29.076   3.278
63981W        W32386  18.302  18.205  10.697
63982W        W32387  32.732  40.369   0.334
63983W        W32388  43.861   9.428  12.941
63984W        W32389  25.109  39.496   3.296
63985W        W32390  21.617  11.041   0.233
63986W        W32391  15.052   9.129   2.263
63987W        W32392  41.889  19.381   3.140
63988W        W32393  29.849   1.357   1.842
63989W        W32394   7.867  37.081   3.896
63990W        W32395  26.486   2.184   2.822
63991W        W32396  10.174   2.719   3.282
63992W        W32397   9.082  20.690   4.175
63993W        W32398  44.597  19.586  11.508
63994W        W32399  37.437   4.945  11.109
63995W        W32400  37.994  28.404  10.537
63996W        W32401  14.768   1.532  11.166
63997W        W32402   2.393   1.270   4.490
63998W        W32403  13.526  32.392   0.504
63999W        W32404  10.955  31.961  14.007
64000W        W32405  42.748  42.289   3.201
64001W        W32406  34.250  33.047  12.973
64002W        W32407  17.716   6.813   9.757
64003W        W32408  37.935  35.465  14.948
64004W        W32409  14.718  37.738  12.566
64005W        W32410  31.352  23.991  14.401
64006W        W32411  15.231  28.890  11.383
64007W        W32412  25.078  41.392   4.528
64008W        W32413  30.342  13.374  13.003
64009W        W32414  30.214  12.113  13.913
64010W        W32415  33.448  10.366   1.795
64011W        W32416  32.654  11.250   3.989
64012W        W32417  14.792  38.887  11.215
64013W        W32418  41.763  27.773  10.713
64014W        W32419  35.154  17.704   2.760
64015W        W32420  14.209  21.734  11.561
64016W        W32421   7.274  14.560   1.844
64017W        W32422  23.135  43.648   1.758
64018W        W32423  35.399  42.992  10.371
64019W        W32424  36.078  43.469  10.720
64020W        W32425  37.637  42.373  12.804
64021W        W32426   9.579   6.771  12.335
64022W        W32427  27.134   5.162   1.450
64023W        W32428  30.873  31.085  14.992
64024W        W32429  16.193  11.591   2.452
64025W        W32430  22.368  11.323   3.731
64026W        W32431  26.360  17.848   0.301
64027W        W32432  19.326  13.705  12.930
64028W        W32433  39.567   6.966  12.866
64029W        W32434  24.144  19.468   0.056
64030W        W32435  20.554  33.966   2.592
64031W        W32436  33.585  22.166  11.940
64032W        W32437  22.567  37.416  11.150
64033W        W32438  24.450  39.298   1.036
64034W        W32439  30.209   4.356  12.058
64035W        W32440  25.794  19.741   2.650
64036W        W32441  24.312   9.177  11.603
64037W        W32442  42.799  40.464   0.412
64038W        W32443   8.666   7.860  13.372
64039W        W32444  31.953  30.490   4.707
64040W        W32445  11.864  34.284   3.641
64041W        W32446  39.747  11.831   1.375
64042W        W32447  20.715  41.163   4.288
64043W        W32448  43.026  31.365   2.706
64044W        W32449  19.151   7.397   4.546
64045W        W32450  11.710  24.491   2.792
64046W        W32451  25.552  15.857  14.398
64047W        W32452  30.903  13.110   2.252
64048W        W32453  19.087  16.292  10.652
64049W        W32454  42.004   5.805  10.002
64050W        W32455  12.799  18.270  14.528
64051W        W32456  29.110  34.803  14.398
64052W        W32457  27.709  41.888   4.577
64053W        W32458   5.460  29.524   4.306
64054W        W32459  21.512  29.901  14.863
64055W        W32460  24.153   5.441  11.239
64056W        W32461  39.829  36.415   4.180
64057W        W32462  22.378   2.800  13.876
64058W        W32463  17.332  16.062   3.320
64059W        W32464  24.473  34.755  10.350
64060W        W32465  27.247  22.940   0.267
64061W        W32466  29.403   6.084  11.890
64062W        W32467  16.921  42.299  13.289
64063W        W32468   1.649  43.994   3.766
64064W        W32469  10.254   2.932  11.109
64065W        W32470  16.619  19.004   4.758
64066W        W32471  13.118  31.795   2.374
64067W        W32472  10.333  36.976   3.087
64068W        W32473  39.407  28.251   3.669
64069W        W32474  16.075  17.813   4.619
64070W        W32475  11.952   5.896   0.943
64071W        W32476  34.512  26.904  11.232
64072W        W32477  22.768  37.921   2.803
64073W        W32478  38.114  36.863   0.895
64074W        W32479   1.425  20.872  14.309
64075W        W32480  39.499   0.962  11.034
64076W        W32481  12.796  13.278   1.682
64077W        W32482  11.419  21.491  12.470
64078W        W32483  31.581  27.657  12.036
64079W        W32484  22.980  12.374   2.961
64080W        W32485  40.008   7.126   1.762
64081W        W32486  17.311  40.696   3.278
64082W        W32487   6.137  27.375  13.551
64083W        W32488  17.112  16.050  11.594
64084W        W32489  43.962  28.741   2.229
64085W        W32490  29.926  17.678  12.113
64086W        W32491   6.798  16.625  11.893
64087W        W32492  28.270  37.983   4.675
64088W        W32493  30.392  27.522   3.391
64089W        W32494  44.860  12.780  14.740
64090W        W32495  19.188  44.485   4.315
64091W        W32496  38.544  26.946   1.410
64092W        W32497  36.984  44.757   2.897
64093W        W32498   5.207  37.344   3.371
64094W        W32499  12.664  43.036  11.541
64095W        W32500  38.081  22.390   2.315
64096W        W32501   5.796  21.635   4.335
64097W        W32502  12.834  41.318   0.247
64098W        W32503  38.343   6.954   2.494
64099W        W32504  33.478  37.266  11.566
64100W        W32505  23.181   8.670  14.547
64101W        W32506   8.243   0.405   2.071
64102W        W32507  28.561  18.702  12.569
64103W        W32508   8.214   3.964   4.769
64104W        W32509  34.052  12.564   0.810
64105W        W32510  43.594  15.086  13.033
64106W        W32511  30.543   9.410   2.702
64107W        W32512  24.495  15.421   4.143
64108W        W32513  37.120  35.905  14.631
64109W        W32514  24.959  38.502   1.707
64110W        W32515  33.411   8.233   0.193
64111W        W32516  35.394  34.079   0.026
64112W        W32517  31.710  29.680   5.093
64113W        W32518  31.240  38.823   1.887
64114W        W32519  44.325  38.237  12.042
64115W        W32520   3.448  15.213  12.396
64116W        W32521   4.921  23.779  13.051
64117W        W32522  23.660  18.826   3.679
64118W        W32523  26.976  29.559  12.301
64119W        W32524  44.854  25.144   3.728
64120W        W32525  37.450  14.742   3.884
64121W        W32526  21.076  25.614  14.967
64122W        W32527   4.002  25.774   0.717
64123W        W32528   5.731  11.530   1.233
64124W        W32529  17.207  11.787   1.741
64125W        W32530  25.987  29.177  13.117
64126W        W32531   0.870  19.720   1.777
64127W        W32532  29.920  28.905  11.036
64128W        W32533  31.275  14.060   0.213
64129W        W32534  17.854  14.856  14.739
64130W        W32535  10.114  22.225   2.797
64131W        W32536  24.173   0.883   2.654
64132W        W32537  38.062  23.733  12.646
64133W        W32538  26.283  26.942   0.865
64134W        W32539  32.638   4.678  12.405
64135W        W32540  36.913  28.506  11.432
64136W        W32541  35.669  20.430  10.562
64137W        W32542   0.372  10.743  13.171
64138W        W32543   0.269  37.898  10.798
64139W        W32544  35.539  19.800  11.649
64140W        W32545  22.815  29.869   3.702
64141W        W32546  11.752   2.917   1.487
64142W        W32547  21.015   2.488  11.037
64143W        W32548  33.225  32.422  11.139
64144W        W32549   7.712  25.471   3.689
64145W        W32550  20.524  18.407  11.048
64146W        W32551   4.422  30.458   3.337
64147W        W32552  12.644  35.482  12.046
64148W        W32553   2.206   7.559  10.992
64149W        W32554  25.856   5.837  11.640
64150W        W32555  15.318  15.541  11.868
64151W        W32556   9.777  29.368   1.176
64152W        W32557  27.055  43.025  12.892
64153W        W32558  29.130  20.465   2.824
64154W        W32559  27.658  22.117   1.401
64155W        W32560  18.832  27.479  11.101
64156W        W32561   8.010  36.133   0.201
64157W        W32562  39.466  38.057  14.139
64158W        W32563   0.143  22.721  11.056
64159W        W32564   4.383  21.452  13.912
64160W        W32565  11.367  36.952  11.586
64161W        W32566  20.161  18.189  12.852
64162W        W32567  13.696   4.937  10.645
64163W        W32568  32.585  31.870   1.396
64164W        W32569  44.356  18.579   5.015
64165W        W32570  35.203  43.369   1.410
64166W        W32571  24.901   1.373   3.467
64167W        W32572  33.906   7.095   1.318
64168W        W32573  29.478  15.186   3.326
64169W        W32574  26.214   8.619   3.756
64170W        W32575   4.702  19.014   2.674
64171W        W32576  17.120  36.691   1.572
64172W        W32577   6.443   1.856   4.232
64173W        W32578  20.577  13.258  13.815
64174W        W32579  15.792  26.607  10.180
64175W        W32580  43.433   3.639   2.330
64176W        W32581  19.037  31.457  10.953
64177W        W32582   5.934  21.067   1.897
64178W        W32583  24.454   4.010   0.482
64179W        W32584  23.944  27.417  13.885
64180W        W32585  16.780  37.008  12.524
64181W        W32586  42.020  20.604  11.973
64182W        W32587   4.011  41.859   2.823
64183W        W32588  42.553  27.967   4.921
64184W        W32589  16.563  20.102   0.832
64185W        W32590  34.615  11.642   4.159
64186W        W32591  32.661  32.072  10.681
64187W        W32592   7.102  40.332   4.082
64188W        W32593  42.503  44.276   2.450
64189W        W32594  32.444  30.668  10.544
64190W        W32595  32.676   0.719  12.911
64191W        W32596  36.213  11.418  10.793
64192W        W32597  34.144  12.329   2.279
64193W        W32598  32.632  11.374   4.492
64194W        W32599  33.568  18.679   0.401
64195W        W32600  43.274  19.291  12.455
64196W        W32601  34.127   6.152   4.210
64197W        W32602  34.664  20.845  10.449
64198W        W32603  33.689  24.793  10.842
64199W        W32604  36.133  20.504   3.643
64200W        W32605  17.814  37.577  14.231
64201W        W32606  34.413  39.252   4.407
64202W        W32607  12.160  25.196   2.182
64203W        W32608  19.734  25.509  11.690
64204W        W32609  44.514   0.410   3.612
64205W        W32610  38.392  15.034   4.045
64206W        W32611  30.603  10.431   4.130
64207W        W32612   4.685  25.862   0.149
64208W        W32613  20.023   6.467  12.264
64209W        W32614  15.857   6.275   4.087
64210W        W32615  36.812  20.605   4.631
64211W        W32616  25.975   1.590   2.521
64212W        W32617   6.869  17.685  12.472
64213W        W32618  22.546  40.685   1.728
64214W        W32619  17.687  15.239  12.582
64215W        W32620  36.048  12.174   3.162
64216W        W32621  33.080  18.200   4.140
64217W        W32622  38.308   5.345  12.835
64218W        W32623  19.553  20.770   4.558
64219W        W32624  28.124   8.374   4.290
64220W        W32625  31.952  21.704   0.120
64221W        W32626  44.393  15.561  12.871
64222W        W32627  22.956   9.333  11.646
64223W        W32628   8.847  27.150   2.817
64224W        W32629  40.430  41.427  10.923
64225W        W32630  29.636  15.168   0.324
64226W        W32631  40.481   4.217  12.973
64227W        W32632  44.785  24.021  12.586
64228W        W32633   4.494  37.840  10.585
64229W        W32634  39.435  41.420  11.896
64230W        W32635  42.821  29.110   2.232
64231W        W32636  24.562  11.085   3.027
64232W        W32637  40.419  34.642   2.659
64233W        W32638  21.324   8.940  11.976
64234W        W32639  37.811  21.117  14.380
64235W        W32640  22.190  11.320   4.639
64236W        W32641  39.933  28.668   1.833
64237W        W32642   6.957   7.714  14.496
64238W        W32643  12.320  35.448   2.746
64239W        W32644  39.959  13.162   0.220
64240W        W32645  37.908   7.797  13.794
64241W        W32646  24.799  27.630   0.241
64242W        W32647  13.806  35.498  12.069
64243W        W32648   0.025  14.740   3.431
64244W        W32649  28.124   0.411   1.896
64245W        W32650  29.406   7.390   4.648
64246W        W32651   7.712  42.784   0.477
64247W        W32652   3.769  30.541   1.851
64248W        W32653  42.890  27.175   4.623
64249W        W32654  27.471  27.551   3.101
64250W        W32655  19.734  34.862  12.342
64251W        W32656  43.379  11.503   1.188
64252W        W32657  38.747  11.925   1.058
64253W        W32658  14.758  11.896   4.142
64254W        W32659  13.756  25.482  11.518
64255W        W32660  40.928  27.661   2.660
64256W        W32661  19.607  16.849   1.002
64257W        W32662  40.137   7.183   2.720
64258W        W32663  21.635   9.352   4.382
64259W        W32664  43.163  12.897   4.263
64260W        W32665  13.661   9.209  13.200
64261W        W32666   1.350  13.647  10.368
64262W        W32667   3.315   0.107  13.357
64263W        W32668  26.442  19.248   1.372
64264W        W32669   3.251  22.646  14.236
64265W        W32670  30.785  28.548   0.288
64266W        W32671  11.953   7.666   3.575
64267W        W32672  33.413   0.911   2.593
64268W        W32673  41.762   0.296  13.012
64269W        W32674  35.892  25.732  11.444
64270W        W32675   2.143  42.421  14.538
64271W        W32676  26.522  41.825  10.194
64272W        W32677  40.282  12.338  14.305
64273W        W32678  41.649  17.403  11.019
64274W        W32679   8.213   9.268   0.391
64275W        W32680  40.049  23.919  14.530
64276W        W32681   2.241  43.852   4.360
64277W        W32682  32.070  28.382  14.748
64278W        W32683  10.102  19.386  12.822
64279W        W32684   7.754  38.323   4.165
64280W        W32685   3.918   8.338   4.182
64281W        W32686  42.392  32.438   3.648
64282W        W32687  19.607  31.749  13.920
64283W        W32688   9.326  37.008  11.336
64284W        W32689  38.319  25.502  10.701
64285W        W32690  35.904   8.754   3.247
64286W        W32691  40.068   2.788  10.806
64287W        W32692  33.331  41.534  12.011
64288W        W32693  38.487   3.255  12.395
64289W        W32694  23.910  36.069   3.446
64290W        W32695  28.846  15.833  11.754
64291W        W32696  43.201  19.595  11.194
64292W        W32697  17.753  32.374  13.074
64293W        W32698  34.573  32.856  12.124
64294W        W32699  31.088   2.566   1.881
64295W        W32700  22.552  28.378  12.857
64296W        W32701   5.431  22.181   2.801
64297W        W32702  44.598  25.647   0.816
64298W        W32703  18.238  35.869   1.643
64299W        W32704  23.934  19.216   1.811
64300W        W32705  30.082  33.056   3.826
64301W        W32706  39.318  27.718   1.773
64302W        W32707   0.789  18.199   4.690
64303W        W32708   0.105  28.655  13.482
64304W        W32709  39.899  44.348   3.360
64305W        W32710  12.832   4.576   3.682
64306W        W32711  39.560  29.599  12.547
64307W        W32712  17.131  36.211   3.032
64308W        W32713  38.674  27.218  11.219
64309W        W32714   8.374   6.108  14.303
64310W        W32715   8.693  11.788   1.955
64311W        W32716  38.826   2.234   3.331
64312W        W32717  25.391  34.100  11.119
64313W        W32718  42.445  40.053  11.607
64314W        W32719  17.231  40.302   1.633
64315W        W32720   9.211  25.009   3.741
64316W        W32721  24.231  24.585  14.114
64317W        W32722   2.493  35.115  12.887
64318W        W32723   6.665  37.764   2.972
64319W        W32724  23.000  35.782  14.909
64320W        W32725  28.109  15.382   9.821
64321W        W32726  15.245  18.813   0.460
64322W        W32727  13.024  22.216  13.854
64323W        W32728   4.240   5.433  13.032
64324W        W32729  38.073  32.945   0.845
64325W        W32730  20.370  30.772   9.980
64326W        W32731  29.265  25.716   4.917
64327W        W32732  29.609  44.085  10.294
64328W        W32733  30.660   1.013   4.441
64329W        W32734  39.961  27.384   1.378
64330W        W32735   9.776   7.076   4.320
64331W        W32736   7.445  36.105   2.155
64332W        W32737   4.152   3.016   1.011
64333W        W32738  16.602  27.306   2.379
64334W        W32739  36.906  18.213   0.273
64335W        W32740  44.913  33.100   0.456
64336W        W32741  40.055  40.971  13.957
64337W        W32742  26.688  24.393  14.643
64338W        W32743  15.859  20.523  13.578
64339W        W32744   1.992  44.461   3.764
64340W        W32745  24.514  14.908   3.178
64341W        W32746  35.553  38.982  11.162
64342W        W32747   2.475  15.209  11.596
64343W        W32748  11.745  18.919  10.055
64344W        W32749  14.972  17.145   4.287
64345W        W32750  12.683   7.817   4.361
64346W        W32751  21.595  12.940  11.100
64347W        W32752  16.330  22.416   5.012
64348W        W32753   1.365   6.559   3.206
64349W        W32754  17.113  42.803  10.363
64350W        W32755  39.030  15.538  11.550
64351W        W32756  36.713  10.150  11.163
64352W        W32757  44.186  14.018  12.848
64353W        W32758  26.006  31.524  12.831
64354W        W32759  24.504  19.668  10.475
64355W        W32760  14.844   4.212  12.541
64356W        W32761  41.311   5.862   3.589
64357W        W32762  22.572  37.769   3.318
64358W        W32763  22.230  10.652  11.913
64359W        W32764  34.645  19.130   3.626
64360W        W32765  24.145   4.240  12.859
64361W        W32766  11.290   3.408   0.856
64362W        W32767  42.021  43.904  13.310
64363W        W32768   3.441   3.262   0.894
64364W        W32769   3.871  35.976   1.410
64365W        W32770  32.993  36.868  13.816
64366W        W32771  35.749  19.480  12.022
64367W        W32772  44.539  35.870   3.901
64368W        W32773   5.412  36.116   0.788
64369W        W32774  17.071   0.286  13.538
64370W        W32775   4.403   2.046   3.086
64371W        W32776  37.333  39.900  13.648
64372W        W32777  14.295  10.089  14.777
64373W        W32778  18.332  24.561   0.563
64374W        W32779  22.927  17.043  12.033
64375W        W32780  29.971   0.032  11.116
64376W        W32781  22.868  23.273   2.438
64377W        W32782  25.422  40.851   2.664
64378W        W32783  22.039  15.110   4.497
64379W        W32784  13.807   3.302  12.064
64380W        W32785  43.889   8.092   1.762
64381W        W32786  23.504   9.254   3.103
64382W        W32787  29.973  33.576   3.725
64383W        W32788  29.289  14.678  13.303
64384W        W32789  27.256   5.321   3.439
64385W        W32790  41.250  10.279  12.945
64386W        W32791   1.466   2.360  12.085
64387W        W32792  23.802  44.415  12.039
64388W        W32793  10.205  14.708   4.108
64389W        W32794  26.939  28.385  14.006
64390W        W32795  44.160  36.762  11.867
64391W        W32796  13.225  18.787  14.935
64392W        W32797  16.526  33.513   0.945
64393W        W32798  35.108  37.749  12.155
64394W        W32799   3.204  33.891  14.307
64395W        W32800  34.862  43.587   4.513
64396W        W32801  30.177   0.848   4.477
64397W        W32802   8.009  10.737  12.372
64398W        W32803   8.848  32.357  13.307
64399W        W32804  41.932   9.188   4.013
64400W        W32805   9.401   5.718   3.226
64401W        W32806  44.262  32.470  11.139
64402W        W32807  27.146  10.384  12.479
64403W        W32808  10.306  39.397  10.655
64404W        W32809  22.295   8.440   2.732
64405W        W32810  29.918   8.488  13.869
64406W        W32811  41.288  19.163   4.531
64407W        W32812  11.404   0.850   4.051
64408W        W32813   8.184  11.914   4.540
64409W        W32814  39.100   2.474  13.732
64410W        W32815  43.741  34.979  10.747
64411W        W32816  33.397  11.863  10.737
64412W        W32817  18.959  28.471   4.897
64413W        W32818  18.058   8.984   2.738
64414W        W32819  36.793   4.678  11.177
64415W        W32820  13.363  36.406   1.442
64416W        W32821  22.145  18.746   3.710
64417W        W32822  43.869  36.582  14.426
64418W        W32823   0.441   8.865  12.549
64419W        W32824  14.805  33.364   1.798
64420W        W32825  20.454  25.904  12.109
64421W        W32826  40.069   9.697   0.122
64422W        W32827   4.871  27.924   2.254
64423W        W32828  32.512   9.661  13.623
64424W        W32829  38.365  18.030  11.132
64425W        W32830  20.931  34.950   4.234
64426W        W32831  37.774  22.556   4.089
64427W        W32832  40.429   3.942  12.540
64428W        W32833  25.867  17.997   3.311
64429W        W32834   6.721  10.280  14.112
64430W        W32835  20.857  41.298   2.346
64431W        W32836  19.103  18.302  14.382
64432W        W32837   2.574   7.722   1.545
64433W        W32838  12.288  25.908  11.632
64434W        W32839  38.536  40.293  11.583
64435W        W32840  34.445  31.633  10.690
64436W        W32841  31.867   5.976   3.703
64437W        W32842  41.350  35.265  13.615
64438W        W32843   9.270  28.094  14.349
64439W        W32844  24.281  11.624   1.482
64440W        W32845  35.540   1.480   3.080
64441W        W32846  19.197  36.026   1.156
64442W        W32847  15.684  37.099  12.529
64443W        W32848   6.587  38.401   3.928
64444W        W32849   3.701  40.940  11.994
64445W        W32850   2.907  17.203  10.301
64446W        W32851  25.672  16.684   0.343
64447W        W32852  26.419  43.983   2.843
64448W        W32853  40.397  30.881  13.488
64449W        W32854  35.795   2.847   2.827
64450W        W32855   6.988  38.996  12.778
64451W        W32856  14.793  39.421   0.435
64452W        W32857  10.517  17.080  14.256
64453W        W32858  38.975  43.470   2.182
64454W        W32859  13.791  33.038   2.353
64455W        W32860   7.964  36.622  12.072
64456W        W32861  42.320   4.442  12.847
64457W        W32862   1.751   6.284   0.010
64458W        W32863  34.426  16.773  14.831
64459W        W32864  12.094  18.225  14.818
64460W        W32865   4.972  19.688  10.068
64461W        W32866  36.628   3.355  10.617
64462W        W32867  37.553   5.915   2.235
64463W        W32868  10.764  40.461  11.979
64464W        W32869  38.924  32.045   2.189
64465W        W32870  37.188  25.250   1.791
64466W        W32871   8.582  26.940   2.251
64467W        W32872  19.569  23.591  14.538
64468W        W32873  24.746  26.447   2.936
64469W        W32874  26.669  41.442  10.501
64470W        W32875   6.820  10.044  10.565
64471W        W32876   1.822   8.183   1.778
64472W        W32877   2.302  30.454  10.999
64473W        W32878   4.336   8.945  13.995
64474W        W32879  41.240  26.782   2.724
64475W        W32880  36.898  31.937   1.698
64476W        W32881  22.154   8.831  14.357
64477W        W32882  34.499  38.044  11.427
64478W        W32883   2.270  43.863   2.971
64479W        W32884  11.630   4.212  11.887
64480W        W32885  36.060  12.108  13.502
64481W        W32886   2.896  30.871   3.117
64482W        W32887  29.964   4.834  12.529
64483W        W32888  27.712  22.521  14.962
64484W        W32889  16.091  30.496   1.384
64485W        W32890  30.019  15.593   4.510
64486W        W32891  11.648   2.437   3.159
64487W        W32892  24.172   0.555   1.840
64488W        W32893  29.928   8.832   3.345
64489W        W32894  16.544  30.188   0.728
64490W        W32895  28.930   3.185  10.694
64491W        W32896  20.725  33.270  13.760
64492W        W32897  24.954   2.873   1.751
64493W        W32898  24.569  26.417   5.000
64494W        W32899  29.401   0.706  14.895
64495W        W32900  28.676   3.506  14.810
64496W        W32901  29.889  34.958  10.703
64497W        W32902  21.074   6.536  10.725
64498W        W32903  13.671  34.705  13.574
64499W        W32904  30.008  44.439   3.268
64500W        W32905  16.176  20.151   3.537
64501W        W32906  44.850  17.440   1.878
64502W        W32907  22.963  35.988  10.474
64503W        W32908   9.224  42.573  14.825
64504W        W32909  29.956   6.058   0.354
64505W        W32910   6.307  41.207   1.517
64506W        W32911  18.072  40.964   1.431
64507W        W32912  20.613  36.291  13.408
64508W        W32913   1.052  36.848   0.388
64509W        W32914  35.228  11.609  14.866
64510W        W32915  25.166   1.458  10.969
64511W        W32916   6.714   8.501  14.806
64512W        W32917   5.842  31.926  11.172
64513W        W32918  31.932  16.801   3.600
64514W        W32919  38.476  38.527   0.927
64515W        W32920  11.038  17.775   2.367
64516W        W32921  10.385  14.741  10.602
64517W        W32922  36.453  11.898   4.540
64518W        W32923   3.188  31.833  11.085
64519W        W32924  43.072  19.611   2.648
64520W        W32925  15.118  26.782   1.078
64521W        W32926   9.202   3.773  14.910
64522W        W32927  41.885  22.087   0.007
64523W        W32928   1.778  32.394   2.925
64524W        W32929  13.762   0.342   4.203
64525W        W32930  41.298  29.916   0.177
64526W        W32931  28.885  32.319  12.505
64527W        W32932  17.211   3.832   2.764
64528W        W32933  13.298   4.008  11.041
64529W        W32934  38.099  11.260  11.007
64530W        W32935  29.441  27.538   0.334
64531W        W32936  28.962  30.066   4.508
64532W        W32937  32.415  21.704  14.787
64533W        W32938  41.187  21.646  13.061
64534W        W32939  37.175   3.743   3.340
64535W        W32940   5.905  24.386   2.329
64536W        W32941  23.693  32.318   1.201
64537W        W32942  35.929  26.239   0.209
64538W        W32943  40.409  39.973  12.902
64539W        W32944  25.508  39.666  11.019
64540W        W32945  16.615   2.280   1.173
64541W        W32946  19.855  29.019   4.220
64542W        W32947  39.551  15.140   2.714
64543W        W32948  27.590  32.645  14.001
64544W        W32949  41.394  18.253  14.510
64545W        W32950  35.376   2.783   0.486
64546W        W32951  30.406  27.183  14.501
64547W        W32952   3.987  36.277  11.495
64548W        W32953  31.638  24.214  12.895
64549W        W32954  34.121   0.898   4.181
64550W        W32955  14.201  13.733   1.676
64551W        W32956  40.397  27.438   2.643
64552W        W32957  33.355  33.562  14.227
64553W        W32958  13.549  19.798  11.097
64554W        W32959  11.550   2.921   0.988
64555W        W32960  27.101  15.192  10.788
64556W        W32961  35.890   5.280   4.358
64557W        W32962  37.677   9.453   0.766
64558W        W32963  37.820   5.804  13.929
64559W        W32964  24.612   3.425  13.064
64560W        W32965   3.515  22.876   0.365
64561W        W32966  16.016  16.499   1.791
64562W        W32967   8.060  30.554  11.588
64563W        W32968   2.371  15.732  11.419
64564W        W32969  43.921  35.845  10.689
64565W        W32970  18.296  12.624  10.738
64566W        W32971  35.669  10.178  14.316
64567W        W32972  35.120  39.729   2.307
64568W        W32973  12.755  16.298  13.529
64569W        W32974  22.871  19.137   4.113
64570W        W32975  22.180  12.077  13.798
64571W        W32976  26.431  42.106   1.816
64572W        W32977  18.238  37.155   1.180
64573W        W32978  23.022  10.375  13.415
64574W        W32979  43.259  36.456   0.340
64575W        W32980  35.977  21.572   1.282
64576W        W32981  13.385  12.673  11.091
64577W        W32982  43.844  38.954   4.560
64578W        W32983  44.967  22.409   1.359
64579W        W32984  34.923  14.103   0.819
64580W        W32985  21.378  11.395  14.915
64581W        W32986  22.527  29.719   4.108
64582W        W32987  42.594   3.201  14.714
64583W        W32988  44.960   7.009  14.475
64584W        W32989  34.145  21.708   4.146
64585W        W32990  16.089  18.129   5.060
64586W        W32991  38.120  10.277  11.324
64587W        W32992   3.164  37.161   2.446
64588W        W32993  37.895  22.241   2.863
64589W        W32994  37.295   7.062  11.115
64590W        W32995   8.899  36.510  14.343
64591W        W32996   4.423  40.834  12.507
64592W        W32997   4.898   8.695   3.141
64593W        W32998   9.275  42.561   2.275
64594W        W32999  10.874  38.113  14.401
64595W        W33000   9.230   6.976   4.796
64596W        W33001  25.163   3.693  13.936
64597W        W33002  16.616  38.866   3.651
64598W        W33003  34.802  19.258   1.713
64599W        W33004  12.697  16.671   2.185
64600W        W33005  24.641   4.394  12.902
64601W        W33006  30.879  21.951   2.343
64602W        W33007  18.315  31.102   2.888
64603W        W33008   1.879  18.417  14.178
64604W        W33009  41.490  27.975   4.158
64605W        W33010   4.832  30.961   0.524
64606W        W33011  29.180  11.568  13.396
64607W        W33012  10.501   1.782  11.562
64608W        W33013  27.827  34.086   0.705
64609W        W33014  31.979   4.093   5.041
64610W        W33015  29.709   9.817  14.500
64611W        W33016  21.277   7.878  12.094
64612W        W33017  14.996  39.473  14.401
64613W        W33018  13.612  34.631   1.724
64614W        W33019  12.302  18.701  14.750
64615W        W33020  21.982  11.309  12.368
64616W        W33021  32.331   9.668  13.141
64617W        W33022  15.274   4.222   3.632
64618W        W33023   8.869  28.517  13.351
64619W        W33024  41.707   3.688   1.046
64620W        W33025   3.468  15.345  10.439
64621W        W33026  42.254   8.247  14.310
64622W        W33027   7.364  32.520   1.138
64623W        W33028  43.373  12.545   0.058
64624W        W33029  17.283  26.134  14.039
64625W        W33030  37.070   2.391  12.099
64626W        W33031  34.028  39.572  14.422
64627W        W33032  19.261  34.993   1.340
64628W        W33033  41.452   8.155  10.554
64629W        W33034  23.731  21.912   0.579
64630W        W33035  37.404   9.551   1.195
64631W        W33036  31.139  27.192   2.966
64632W        W33037  28.212  40.803   3.295
64633W        W33038  12.778  25.497  11.130
64634W        W33039  36.301  23.777  13.340
64635W        W33040  36.267   7.464  10.525
64636W        W33041  32.810  34.171  11.803
64637W        W33042  30.576   5.474   2.453
64638W        W33043  40.044   0.969   0.794
64639W        W33044  20.591  10.141  11.426
64640W        W33045  44.488  24.084   4.573
64641W        W33046  44.808  30.650   4.970
64642W        W33047  18.505  34.868   1.114
64643W        W33048   7.347   3.773   1.749
64644W        W33049  22.047  29.888   4.012
64645W        W33050  43.204  41.232   1.754
64646W        W33051   6.337  22.936   2.162
64647W        W33052  10.676  18.186   4.872
64648W        W33053  41.977   5.067   3.751
64649W        W33054  43.779   5.026  11.250
64650W        W33055  19.118  22.416  12.962
64651W        W33056  10.043   3.811  11.800
64652W        W33057  40.846  35.890   4.545
64653W        W33058  10.648  19.977   1.695
64654W        W33059  26.477  34.541  13.239
64655W        W33060  19.011   0.371   2.285
64656W        W33061  29.669  10.721  12.562
64657W        W33062  20.277   7.736  13.190
64658W        W33063  33.810  37.985  12.554
64659W        W33064  44.457  37.843  13.362
64660W        W33065  12.113  23.279  13.902
64661W        W33066  14.839  40.314  10.313
64662W        W33067   7.215  16.131  10.802
64663W        W33068  18.067  38.538   2.722
64664W        W33069   0.278  35.700   3.770
64665W        W33070  10.659  28.229   1.730
64666W        W33071  43.672   3.838   0.384
64667W        W33072   1.455  35.109  11.425
64668W        W33073  21.751  43.785  13.534
64669W        W33074  28.726  38.728  13.069
64670W        W33075  28.485   3.855   3.252
64671W        W33076  28.973  11.807  13.788
64672W        W33077  34.551  11.400  14.542
64673W        W33078   6.297  11.848  12.524
64674W        W33079  43.047  31.076   2.261
64675W        W33080  11.391  42.405  13.691
64676W        W33081  20.118  28.446   0.237
64677W        W33082  34.350  29.509   1.714
64678W        W33083  31.560  39.768   0.651
64679W        W33084   2.447  24.052   1.794
64680W        W33085  13.014   3.264  11.311
64681W        W33086  17.722  36.613   2.853
64682W        W33087  27.751  10.677   2.214
64683W        W33088  38.071  22.821   3.606
64684W        W33089  36.099   9.783  11.597
64685W        W33090  29.631  27.262  12.244
64686W        W33091  44.032  28.663  13.360
64687W        W33092  24.100  32.609  12.531
64688W        W33093  26.835  34.573  10.772
64689W        W33094   2.038   3.931  13.369
64690W        W33095  35.899  18.763   2.093
64691W        W33096  37.647   9.076   0.430
64692W        W33097  24.484  13.602   3.728
64693W        W33098  12.811  23.009   1.693
64694W        W33099  39.997  13.437  13.388
64695W        W33100  19.041  30.200   4.615
64696W        W33101  14.561   8.367  10.978
64697W        W33102  40.106  22.453  10.883
64698W        W33103  29.741  42.014  11.492
64699W        W33104  36.508  24.318   1.627
64700W        W33105  13.331  34.914  10.721
64701W        W33106  42.068  15.692  12.462
64702W        W33107   2.011  27.686   0.757
64703W        W33108  32.703  22.711  11.854
64704W        W33109  11.288  25.458   1.841
64705W        W33110  16.123  12.354  12.584
64706W        W33111  17.933   4.838   4.177
64707W        W33112  44.395  33.785   4.133
64708W        W33113  13.306  33.366   4.009
64709W        W33114  37.336  29.854  14.006
64710W        W33115  17.150  36.350   3.661
64711W        W33116  44.433  23.537   2.586
64712W        W33117  32.041   4.963   2.461
64713W        W33118  44.461  17.174  14.721
64714W        W33119  28.676  10.718  13.744
64715W        W33120  32.973  31.616   1.147
64716W        W33121  41.857  26.446   0.379
64717W        W33122   3.288  13.439   0.729
64718W        W33123  44.488  24.525   4.310
64719W        W33124  32.734   6.373   3.725
64720W        W33125  21.258   7.244  14.769
64721W        W33126  34.802  33.233   2.738
64722W        W33127  20.590  27.262  10.802
64723W        W33128   6.973  22.158   0.787
64724W        W33129  28.476  10.681   3.756
64725W        W33130  37.544   6.334   1.890
64726W        W33131  44.258  36.425  13.602
64727W        W33132  22.057  43.857   1.510
64728W        W33133  29.927  42.761  14.793
64729W        W33134  15.244   2.312   0.029
64730W        W33135  43.579  38.279  13.024
64731W        W33136  14.830   9.169   4.633
64732W        W33137  10.356  33.463  11.178
64733W        W33138  34.002   7.758   3.401
64734W        W33139  22.648   7.821   4.875
64735W        W33140  38.625  17.057  11.847
64736W        W33141  25.633  25.106   2.633
64737W        W33142  33.100  16.074  11.489
64738W        W33143   0.188  33.398   3.655
64739W        W33144  27.870  39.266   9.678
64740W        W33145  24.663   2.785   2.946
64741W        W33146  35.021  41.367  12.543
64742W        W33147  29.162   7.656  13.515
64743W        W33148   1.383   8.918  12.506
64744W        W33149   8.838   6.034   3.921
64745W        W33150  33.375  27.698  12.517
64746W        W33151  33.206  28.092   2.959
64747W        W33152  10.663   1.733   1.695
64748W        W33153  37.923  26.565  13.251
64749W        W33154  28.215  29.502  13.751
64750W        W33155  12.746  17.529   0.814
64751W        W33156   7.187  12.439  10.792
64752W        W33157  11.141  13.478  10.990
64753W        W33158  38.156   6.708   0.651
64754W        W33159  13.620  28.402   5.068
64755W        W33160  11.238   3.255  13.508
64756W        W33161  38.149  12.801  10.987
64757W        W33162  11.185  33.584  12.007
64758W        W33163  34.284  22.110  13.713
64759W        W33164   0.022   5.892   4.922
64760W        W33165   4.678  41.549  14.889
64761W        W33166  32.290   4.314   2.436
64762W        W33167  40.830  24.934  11.909
64763W        W33168  12.303  34.117  13.365
64764W        W33169  20.020  43.030   0.326
64765W        W33170  16.705   7.633   1.242
64766W        W33171   4.342  10.257   4.860
64767W        W33172   5.415  23.207  10.603
64768W        W33173  19.501  40.397   1.382
64769W        W33174   6.464  12.798   2.982
64770W        W33175  37.964  41.515  12.030
64771W        W33176  12.824  15.550   0.144
64772W        W33177  38.386  26.051   4.211
64773W        W33178  37.561   3.201  10.391
64774W        W33179  29.373  10.711   2.282
64775W        W33180   2.241  20.618  13.827
64776W        W33181  14.273   1.999  10.990
64777W        W33182  14.292  17.063  11.568
64778W        W33183  18.513  25.177  12.905
64779W        W33184  36.811  11.701  14.951
64780W        W33185   6.643  42.348   1.985
64781W        W33186  23.986  25.255  12.536
64782W        W33187  26.479   3.618  13.413
64783W        W33188   3.783   7.224  12.124
64784W        W33189  29.424  30.094   2.004
64785W        W33190   9.223  10.170  12.394
64786W        W33191  28.265  41.321   1.845
64787W        W33192  11.576   6.483  11.547
64788W        W33193  35.488  17.185   4.177
64789W        W33194  35.089  19.607   1.411
64790W        W33195  32.396  31.942  14.451
64791W        W33196  12.584  17.365  10.179
64792W        W33197   1.885  11.896  14.652
64793W        W33198  34.100  30.170   4.874
64794W        W33199  41.758  24.766   4.028
64795W        W33200  12.559  42.941  13.452
64796W        W33201  12.189  29.111  11.354
64797W        W33202  39.920  40.143  13.023
64798W        W33203  33.159  25.646  12.894
64799W        W33204  31.014   9.961   2.290
64800W        W33205  21.729  44.266  11.995
64801W        W33206  19.891  40.160  11.138
64802W        W33207  28.457  22.746   4.573
64803W        W33208  44.309  26.181   1.908
64804W        W33209   5.826  44.998  10.529
64805W        W33210  25.614   5.700  14.467
64806W        W33211   8.646   9.081   0.148
64807W        W33212  33.583  36.466   1.263
64808W        W33213  43.121  23.048  13.992
64809W        W33214  17.520  17.554  11.160
64810W        W33215  42.561   3.783  11.108
64811W        W33216  22.348   4.835   3.083
64812W        W33217  43.347  27.944  11.601
64813W        W33218  14.723  41.479   1.730
64814W        W33219  20.069  25.073   1.284
64815W        W33220  20.064  28.982   2.117
64816W        W33221   4.977   2.182  10.114
64817W        W33222  28.450  44.382   4.271
64818W        W33223  11.965   3.498  14.728
64819W        W33224  24.236  21.728   0.422
64820W        W33225  13.196  20.030   0.319
64821W        W33226  30.146  41.714   3.322
64822W        W33227  16.070  42.479  13.809
64823W        W33228  32.642  37.253   3.912
64824W        W33229  32.622  21.329  11.896
64825W        W33230  18.151  19.807   2.252
64826W        W33231   0.241  37.511  12.095
64827W        W33232  39.629  28.918   3.286
64828W        W33233  39.823  40.635  12.982
64829W        W33234   8.284   6.598  10.676
64830W        W33235  28.712  44.853   2.972
64831W        W33236  22.214  26.902  13.516
64832W        W33237   5.618   8.819  10.684
64833W        W33238  17.110   7.201  10.921
64834W        W33239   0.252  14.871   0.309
64835W        W33240  13.732  23.086  14.933
64836W        W33241  35.252   5.248   2.750
64837W        W33242  21.523  22.779   2.625
64838W        W33243  31.101  27.073   1.170
64839W        W33244  22.729  28.036  11.919
64840W        W33245  34.358  12.238  11.358
64841W        W33246  22.626  27.518   2.913
64842W        W33247  41.406  23.574   0.970
64843W        W33248  19.625  22.064   1.175
64844W        W33249  11.256  33.442  13.307
64845W        W33250  34.329  44.167   3.628
64846W        W33251   1.589  37.550   4.062
64847W        W33252   7.810  39.443  14.757
64848W        W33253  22.143  15.601   3.712
64849W        W33254   9.176  43.826   4.099
64850W        W33255  18.642  33.321   2.445
64851W        W33256  31.999  44.127  12.646
64852W        W33257  34.562  31.498  14.033
64853W        W33258  39.464   4.718  13.729
64854W        W33259  32.428  40.579  10.638
64855W        W33260  12.597  20.508  11.153
64856W        W33261  30.558  35.068   3.189
64857W        W33262  35.059  18.325   2.820
64858W        W33263  20.354  25.152  11.528
64859W        W33264  27.487  16.288  11.549
64860W        W33265  19.247  42.056  11.845
64861W        W33266  24.464  26.476  11.142
64862W        W33267  35.981  25.089  12.993
64863W        W33268  24.257  19.308  12.969
64864W        W33269  38.040  37.075  14.146
64865W        W33270  11.592  43.941  14.851
64866W        W33271  38.543  28.039   1.384
64867W        W33272  15.288  18.416   3.630
64868W        W33273  41.457  41.539   2.145
64869W        W33274  22.434  16.383   3.184
64870W        W33275  41.416   6.467   1.260
64871W        W33276  43.170  30.135  12.899
64872W        W33277  30.754   7.439  11.090
64873W        W33278  34.242  14.516   4.101
64874W        W33279  19.106  36.833  13.021
64875W        W33280  10.438  21.145   4.260
64876W        W33281  37.066   4.681   2.264
64877W        W33282  12.722  30.532   4.568
64878W        W33283  12.872  30.966  12.917
64879W        W33284  20.532  43.786   0.268
64880W        W33285   2.270  37.166   0.919
64881W        W33286  24.966   0.010  14.845
64882W        W33287   6.052  41.392  14.265
64883W        W33288  26.722  44.032  11.617
64884W        W33289   4.435   5.689  10.200
64885W        W33290   2.432  11.720  14.445
64886W        W33291  15.541  28.777  12.671
64887W        W33292  35.169  19.779  11.203
64888W        W33293   1.749  18.016   4.681
64889W        W33294  39.348  21.128  14.751
64890W        W33295   1.327  39.423   1.753
64891W        W33296  16.511   8.651  11.671
64892W        W33297  34.580  36.429  12.227
64893W        W33298   6.863  11.469   2.308
64894W        W33299  16.858  25.904   1.263
64895W        W33300  35.357  26.724  13.505
64896W        W33301  33.617   4.378   0.550
64897W        W33302  34.482  37.934   3.433
64898W        W33303  41.967  33.444   3.220
64899W        W33304  18.078   6.153   1.710
64900W        W33305  38.420   5.959   2.684
64901W        W33306  41.893  39.294   0.798
64902W        W33307   8.872  24.926   4.236
64903W        W33308  40.397  34.957   4.454
64904W        W33309  34.003  11.086   4.654
64905W        W33310   2.822   3.731  12.957
64906W        W33311  31.296  44.947   1.344
64907W        W33312   3.680   7.220   2.701
64908W        W33313  16.663  41.088   1.409
64909W        W33314  38.064  30.924  11.667
64910W        W33315  22.756   5.267   2.980
64911W        W33316  30.934  11.682   2.928
64912W        W33317  44.711  40.366  11.621
64913W        W33318   2.958  17.007   1.320
64914W        W33319  28.284  33.339   0.318
64915W        W33320  29.021  29.394   2.402
64916W        W33321  36.660  39.788   0.318
64917W        W33322  16.561   2.356   1.670
64918W        W33323  25.256  14.793   3.631
64919W        W33324  13.322  10.180   2.320
64920W        W33325  20.732   1.665  13.918
64921W        W33326  37.400  32.696  13.636
64922W        W33327  44.812  29.978  14.378
64923W        W33328  15.564   1.963   4.205
64924W        W33329   5.707  18.827   2.748
64925W        W33330   6.751  33.605  13.971
64926W        W33331  26.974   0.061  11.226
64927W        W33332  43.856   7.362   1.073
64928W        W33333  32.016  23.860   3.051
64929W        W33334  13.775  33.560  11.486
64930W        W33335  30.620  29.561   4.231
64931W        W33336  30.344   6.896  14.315
64932W        W33337  34.868   6.810  12.848
64933W        W33338  10.410  23.024   3.716
64934W        W33339  17.426  43.560  11.183
64935W        W33340  24.551  19.252  11.253
64936W        W33341  22.377  18.736  12.189
64937W        W33342  10.128  43.498   1.669
64938W        W33343  33.212  12.627   3.372
64939W        W33344  30.938  14.761   1.389
64940W        W33345  44.008  19.984   2.810
64941W        W33346  33.014  30.442  11.191
64942W        W33347  17.078  16.579  11.581
64943W        W33348  40.933  29.625   1.407
64944W        W33349  32.315  40.203  14.539
64945W        W33350  31.959  31.475  13.213
64946W        W33351  10.927  43.946  13.290
64947W        W33352  39.786   9.290  12.857
64948W        W33353  12.333   0.914  12.067
64949W        W33354  44.172   9.800  13.831
64950W        W33355  18.190  11.666   1.979
64951W        W33356   2.464  13.849  12.489
64952W        W33357  44.745   8.758  12.034
64953W        W33358   8.453  11.365   3.203
64954W        W33359  41.809  36.188   3.666
64955W        W33360  28.943  16.523   2.006
64956W        W33361   4.187  23.182   1.241
64957W        W33362  10.026  31.015   4.531
64958W        W33363  10.318  32.688  13.254
64959W        W33364   1.636  36.203  12.003
64960W        W33365  29.147  26.198   3.803
64961W        W33366   8.160  32.857   0.369
64962W        W33367   1.447  23.415  11.136
64963W        W33368  31.112  10.841  10.758
64964W        W33369  28.735  32.515  13.513
64965W        W33370   3.047  15.566  12.477
64966W        W33371   1.398  39.419  10.844
64967W        W33372   7.120  15.266   5.188
64968W        W33373  34.544  23.743   0.561
64969W        W33374  21.131   9.775  12.060
64970W        W33375  24.013   6.751   2.455
64971W        W33376  30.502  13.644  14.340
64972W        W33377  29.670  30.389  12.588
64973W        W33378   8.205  20.786  13.954
64974W        W33379  36.823  42.989   2.225
64975W        W33380   4.860   5.971   3.721
64976W        W33381  27.992  28.831  10.903
64977W        W33382  40.774  10.251  10.708
64978W        W33383  33.900  29.711  11.559
64979W        W33384   0.371  34.859   3.555
64980W        W33385  31.156  41.497   3.079
64981W        W33386  38.896   4.220   0.835
64982W        W33387  32.387  40.937  11.579
64983W        W33388  25.915  26.710   3.104
64984W        W33389   6.784  37.883   4.037
64985W        W33390  36.298   8.488  11.032
64986W        W33391  15.588   9.990  10.225
64987W        W33392  44.015  44.677   3.781
64988W        W33393   3.172  23.158   1.395
64989W        W33394  25.478  15.124   1.515
64990W        W33395  27.668  10.279  13.930
64991W        W33396  10.160   9.555  13.495
64992W        W33397  39.008  34.798  14.034
64993W        W33398  11.540  28.386  14.096
64994W        W33399  25.235  37.481  14.045
64995W        W33400  10.781  33.646  14.404
64996W        W33401   1.537  16.709   0.890
64997W        W33402  38.500   7.125  13.977
64998W        W33403  23.480  21.055   0.453
64999W        W33404  20.724  20.833  10.616
65000W        W33405  29.383  30.977  13.935
65001W        W33406   5.917  29.987  10.722
65002W        W33407  41.809  18.861  14.688
65003W        W33408  29.525   2.219  14.618
65004W        W33409   9.311   3.951   1.754
65005W        W33410  14.443   7.149   0.704
65006W        W33411  36.437  21.184   0.064
65007W        W33412  41.980  16.510  10.424
65008W        W33413  25.428  26.425   0.024
65009W        W33414  27.216  12.310   3.875
65010W        W33415  22.991  25.106   1.832
65011W        W33416  20.188  34.043   0.457
65012W        W33417   9.739  16.610  12.082
65013W        W33418  30.640  33.473   3.050
65014W        W33419  20.420  15.378   1.229
65015W        W33420  28.623  35.086   3.706
65016W        W33421  24.435  38.500  11.204
65017W        W33422  26.001  24.784   4.187
65018W        W33423  28.440  38.021  13.986
65019W        W33424   4.183  12.309  13.614
65020W        W33425  33.403  32.389   1.184
65021W        W33426  25.684  30.380  14.023
65022W        W33427  24.745  11.923  12.560
65023W        W33428   9.562  39.207   4.157
65024W        W33429  38.262  40.429  14.904
65025W        W33430  26.048  39.302   3.234
65026W        W33431   4.946  40.034   0.887
65027W        W33432   7.706  36.161   1.206
65028W        W33433  25.160  43.985   0.690
65029W        W33434  21.429  30.433  13.416
65030W        W33435   6.618  33.944  11.563
65031W        W33436  29.066  32.544   4.789
65032W        W33437   8.107  17.200  13.718
65033W        W33438  17.678  38.307   3.762
65034W        W33439  13.819  28.432  14.998
65035W        W33440   8.293  11.728   2.523
65036W        W33441  24.967  23.017  13.925
65037W        W33442  32.355  36.331  10.720
65038W        W33443  29.972   7.801  11.057
65039W        W33444  27.412   1.958   2.824
65040W        W33445  12.274   5.202  12.668
65041W        W33446   7.772  35.544   2.540
65042W        W33447  21.567  14.521  12.596
65043W        W33448  10.592  15.665   4.272
65044W        W33449   6.437  15.151  12.164
65045W        W33450  13.337  21.121   3.140
65046W        W33451  11.665  24.940  12.996
65047W        W33452   1.705   6.810  11.910
65048W        W33453   7.829   6.744  14.411
65049W        W33454  31.103  33.491   4.542
65050W        W33455   1.651  25.113  13.820
65051W        W33456  34.356  38.318  10.706
65052W        W33457  34.123  29.392  11.899
65053W        W33458  33.022  27.320  12.046
65054W        W33459  32.026  43.787   4.675
65055W        W33460   2.474  28.940   0.318
65056W        W33461  28.014  38.463   5.466
65057W        W33462   2.362  36.912   4.362
65058W        W33463  27.676  40.440  12.184
65059W        W33464  36.968  21.078   4.514
65060W        W33465  25.573  17.499   4.178
65061W        W33466  34.657   6.376  11.972
65062W        W33467  15.133  13.246   3.668
65063W        W33468  41.306  44.845  12.542
65064W        W33469  19.690  33.075   4.300
65065W        W33470  44.233  29.106  10.101
65066W        W33471  31.105  11.880  10.745
65067W        W33472   2.412   8.748  10.318
65068W        W33473  21.530  20.144   3.879
65069W        W33474  12.959  34.884   3.884
65070W        W33475   0.852  16.522   2.382
65071W        W33476   4.815  24.261   1.635
65072W        W33477  11.368  37.944   0.569
65073W        W33478  36.529  28.111   4.863
65074W        W33479  41.033  18.550  12.023
65075W        W33480   4.308  32.016   0.809
65076W        W33481  35.497  41.549  12.338
65077W        W33482  10.637  21.198  10.603
65078W        W33483  18.671   2.818  13.973
65079W        W33484   0.487   1.872   2.590
65080W        W33485  11.444  13.555  11.611
65081W        W33486  38.796  32.408  14.372
65082W        W33487  40.442  35.104   1.711
65083W        W33488  27.676   0.473   4.563
65084W        W33489   9.332  10.783   3.668
65085W        W33490  21.652  26.177   3.883
65086W        W33491  12.566  13.799   0.870
65087W        W33492  24.122   9.666  13.024
65088W        W33493  24.624  41.511   2.754
65089W        W33494  32.587  43.971   2.230
65090W        W33495  25.959  23.819  13.974
65091W        W33496  41.471  13.278  13.543
65092W        W33497  14.180  31.750  11.131
65093W        W33498  33.087   4.882   3.666
65094W        W33499  39.936  21.972   1.740
65095W        W33500  36.113  42.757  12.030
65096W        W33501  23.680  23.658   0.451
65097W        W33502  31.625  32.544  14.422
65098W        W33503  22.796  14.122  12.069
65099W        W33504   3.433  40.222   1.655
65100W        W33505  10.690  28.117  12.465
65101W        W33506   3.639   1.455  12.005
65102W        W33507  15.137  18.603   3.172
65103W        W33508  36.598  38.337  14.438
65104W        W33509  20.317  38.670  10.412
65105W        W33510   5.871  35.871  10.583
65106W        W33511  32.524  23.509  13.591
65107W        W33512   0.412  37.837  13.068
65108W        W33513  37.346   9.179   1.555
65109W        W33514  33.329  36.730   2.120
65110W        W33515  21.260  15.364  13.782
65111W        W33516  23.221  10.812   1.313
65112W        W33517  13.713  20.327  13.567
65113W        W33518   1.459   8.628   0.529
65114W        W33519  38.380  14.726   2.099
65115W        W33520   3.932  40.032   2.828
65116W        W33521  22.571   7.746  12.112
65117W        W33522  25.769  30.043   3.699
65118W        W33523   3.620  31.471   3.664
65119W        W33524  28.647  44.959  12.513
65120W        W33525  13.323  16.653   3.288
65121W        W33526  29.399  26.309  10.532
65122W        W33527  11.084   8.858   2.738
65123W        W33528  12.805  22.496   0.903
65124W        W33529   2.876  42.904   1.421
65125W        W33530  33.326   5.168  14.931
65126W        W33531  31.086  20.634   3.610
65127W        W33532  29.905  37.922   0.480
65128W        W33533  39.042  38.170  14.481
65129W        W33534  44.522  12.182   0.509
65130W        W33535  23.582  42.864  10.657
65131W        W33536  43.911  41.565  11.996
65132W        W33537  10.346   4.444   9.941
65133W        W33538  21.600  13.658  13.101
65134W        W33539  31.050  42.557   0.338
65135W        W33540  12.525   7.636  10.428
65136W        W33541  37.061   9.383  14.784
65137W        W33542   6.596  15.342   0.473
65138W        W33543  33.770   2.963   4.772
65139W        W33544   7.755  22.095  12.118
65140W        W33545   6.935  24.746  14.888
65141W        W33546   5.863  44.111  11.711
65142W        W33547  34.976   5.124  12.069
65143W        W33548  27.959   2.496   4.259
65144W        W33549  34.168   1.979   4.478
65145W        W33550  26.209  28.057  13.589
65146W        W33551   6.891  43.770  13.357
65147W        W33552  26.782  35.640  13.745
65148W        W33553  20.291  18.402  11.504
65149W        W33554  37.869  40.743  14.451
65150W        W33555  21.156  17.547   1.812
65151W        W33556  13.600  43.933   1.912
65152W        W33557  16.032  17.310   2.780
65153W        W33558  39.009   7.663  10.275
65154W        W33559   6.845  38.037  13.116
65155W        W33560  10.280  33.586   2.129
65156W        W33561  30.188  33.897  14.042
65157W        W33562  12.389  23.364   3.632
65158W        W33563   7.479  35.607   4.710
65159W        W33564  25.599  30.614   0.900
65160W        W33565  14.436  36.548  12.785
65161W        W33566  11.136   0.907   0.437
65162W        W33567  39.444   1.772  14.745
65163W        W33568  18.846  30.977   0.451
65164W        W33569  19.110  44.761   0.038
65165W        W33570   8.722  13.638  10.027
65166W        W33571  16.890  30.166  11.498
65167W        W33572  13.592  11.194   4.823
65168W        W33573  33.610  32.867  13.634
65169W        W33574  18.283  39.495   0.880
65170W        W33575  43.222  34.863  12.047
65171W        W33576  21.183  43.478   1.028
65172W        W33577   5.177  44.324   2.787
65173W        W33578  19.142  24.987   1.367
65174W        W33579  14.312   2.709  11.537
65175W        W33580  18.296  31.977   2.674
65176W        W33581  40.661  30.541  13.994
65177W        W33582  26.177  42.367   3.335
65178W        W33583   3.903  34.071   3.424
65179W        W33584  13.229  35.106   2.889
65180W        W33585  24.472  33.946   4.113
65181W        W33586  25.617  29.211   3.494
65182W        W33587  35.015   3.573  14.586
65183W        W33588   1.923  41.832   3.102
65184W        W33589   8.843   6.151   2.065
65185W        W33590  27.009  15.993   5.308
65186W        W33591  22.607  22.645   1.638
65187W        W33592   7.102   9.269  11.133
65188W        W33593  18.591  39.690   4.059
65189W        W33594  24.670  27.990  13.437
65190W        W33595  43.894   7.878   1.254
65191W        W33596  29.046  34.094  13.042
65192W        W33597   3.939  27.189   1.301
65193W        W33598  17.697  13.369  11.709
65194W        W33599  30.037   1.961   3.766
65195W        W33600  33.562  16.361  14.289
65196W        W33601  15.596  22.713   1.635
65197W        W33602   5.662  23.582  12.670
65198W        W33603  20.365  40.354   3.675
65199W        W33604   7.702  21.918  12.943
65200W        W33605  40.912  44.185  14.415
65201W        W33606  14.917  30.005  14.081
65202W        W33607   0.928   5.909  14.294
65203W        W33608   6.245  10.587  13.578
65204W        W33609  25.060  13.758  12.019
65205W        W33610  40.848  37.088   0.941
65206W        W33611  10.905   5.989   1.649
65207W        W33612   5.218  43.678   3.819
65208W        W33613  20.129  35.561  13.290
65209W        W33614  17.119  28.901   3.622
65210W        W33615  28.359   9.103  14.060
65211W        W33616   6.301  33.175   0.973
65212W        W33617  40.527   8.071  11.928
65213W        W33618  37.379  41.373  13.896
65214W        W33619   8.295   8.898  10.692
65215W        W33620  32.906  31.942   3.366
65216W        W33621  18.047  41.903   3.788
65217W        W33622   9.848  21.758   2.782
65218W        W33623  27.490  33.713   0.889
65219W        W33624  13.387  35.155   3.768
65220W        W33625  14.094   6.831   2.364
65221W        W33626  26.528  16.066   0.421
65222W        W33627  16.226  24.217   3.046
65223W        W33628  21.328  31.436  13.413
65224W        W33629  36.672  32.999   0.948
65225W        W33630  29.826  27.656   1.133
65226W        W33631   8.694   7.019   0.821
65227W        W33632  32.575  40.401   3.570
65228W        W33633  10.539  25.201  12.135
65229W        W33634   7.299  20.349   4.655
65230W        W33635   9.374  41.289  14.442
65231W        W33636  38.361  11.930  11.027
65232W        W33637  44.374  20.318  10.742
65233W        W33638  31.580  20.026  13.932
65234W        W33639  43.528  25.872  12.981
65235W        W33640  38.516  27.691  11.154
65236W        W33641  15.608  39.903   3.679
65237W        W33642  34.453  29.620   1.200
65238W        W33643  11.714  14.580  13.980
65239W        W33644   1.280  18.683  11.095
65240W        W33645   2.078  17.962  12.137
65241W        W33646   4.413  19.758  14.355
65242W        W33647   0.894   3.819   3.375
65243W        W33648  30.180  41.306  12.941
65244W        W33649  38.109  38.871  13.034
65245W        W33650  37.318  42.128  14.505
65246W        W33651  37.926   2.926  10.929
65247W        W33652  32.612   0.294  11.367
65248W        W33653  12.846  26.228  11.542
65249W        W33654  26.819  22.584  11.031
65250W        W33655  27.997  38.735  13.659
65251W        W33656  42.275  34.520  13.872
65252W        W33657  37.433  40.045  14.133
65253W        W33658  42.387  39.453  13.270
65254W        W33659  37.003  26.954  12.358
65255W        W33660  24.792   6.031  12.943
65256W        W33661  26.815  13.612  12.506
65257W        W33662   3.050  11.136  11.854
65258W        W33663  17.797  40.754   0.437
65259W        W33664  43.043  18.220  13.938
65260W        W33665   3.239   2.037   3.640
65261W        W33666  26.419  19.783   1.395
65262W        W33667  42.831  44.964   0.411
65263W        W33668  24.784  18.103   3.740
65264W        W33669   1.283  26.220   3.789
65265W        W33670  22.470  43.237  10.396
65266W        W33671  23.589  29.145   3.860
65267W        W33672  24.648  31.427   3.335
65268W        W33673  17.974  23.679   3.301
65269W        W33674  38.075   5.338   0.884
65270W        W33675  29.373  43.959   1.088
65271W        W33676   4.212   9.700  10.104
65272W        W33677  24.438   5.865   0.131
65273W        W33678  14.702   0.854   3.138
65274W        W33679  15.208  26.788  10.859
65275W        W33680   1.468  11.957   3.828
65276W        W33681   2.827  33.880  12.588
65277W        W33682  18.970  38.847  13.399
65278W        W33683  15.770  24.060   0.270
65279W        W33684  15.410   7.945   3.591
65280W        W33685  36.943   3.317   1.181
65281W        W33686  17.184  18.512   2.378
65282W        W33687  35.129   5.303   4.907
65283W        W33688  21.170  32.835   1.732
65284W        W33689  20.419  29.146   0.673
65285W        W33690  21.657  11.220   3.297
65286W        W33691  43.266   7.744  10.748
65287W        W33692  42.654   6.235   5.120
65288W        W33693  10.295  32.171  10.487
65289W        W33694  20.235  40.739  12.486
65290W        W33695  18.560  36.166   5.046
65291W        W33696  38.556  19.250  12.909
65292W        W33697  43.590  15.574  12.495
65293W        W33698  13.327  28.904   3.757
65294W        W33699  30.858  28.056   1.881
65295W        W33700  40.899  39.505   1.798
65296W        W33701   0.859  34.423  12.417
65297W        W33702  29.011  20.914  13.891
65298W        W33703  33.032   1.430   2.128
65299W        W33704  40.153  30.345   3.292
65300W        W33705  37.516  19.932   4.908
65301W        W33706   8.128   6.798  11.126
65302W        W33707   5.890  14.581   3.299
65303W        W33708  15.258   8.841  14.813
65304W        W33709   8.726  36.155   0.322
65305W        W33710   3.260  41.539  11.545
65306W        W33711  34.568  28.546  10.547
65307W        W33712  31.477   9.085  10.855
65308W        W33713  24.252  19.501  10.899
65309W        W33714   4.754  18.027  12.743
65310W        W33715   9.869  20.175   3.113
65311W        W33716   4.208   8.514   3.721
65312W        W33717  23.719   7.471  12.018
65313W        W33718  10.283  25.981   3.170
65314W        W33719   0.212  35.091   0.335
65315W        W33720   5.673  28.460  14.475
65316W        W33721  37.957  18.152   4.550
65317W        W33722   2.141   0.833  11.717
65318W        W33723  29.407  22.673   1.981
65319W        W33724   9.160  35.138   1.827
65320W        W33725  21.061  12.374   0.067
65321W        W33726  41.694  36.336   4.840
65322W        W33727  30.870  23.999  14.615
65323W        W33728  24.248  34.997   2.433
65324W        W33729  25.151  12.524  13.573
65325W        W33730   4.449  40.812  13.627
65326W        W33731  40.812  34.125  13.864
65327W        W33732  40.371  33.383   2.627
65328W        W33733  42.112  35.859   2.324
65329W        W33734  34.287  38.064  14.557
65330W        W33735  37.377  35.374  13.026
65331W        W33736  43.979  20.015  10.960
65332W        W33737   5.869  28.446  10.944
65333W        W33738   8.953  35.556  14.450
65334W        W33739  11.270  16.098   1.129
65335W        W33740  34.107  42.392  10.686
65336W        W33741  18.112  22.697   3.221
65337W        W33742  26.142  34.593  14.904
65338W        W33743  40.021  30.184   2.240
65339W        W33744  19.352  38.932  13.062
65340W        W33745  10.736  19.240   1.359
65341W        W33746  36.929   4.305   2.600
65342W        W33747  36.295  18.078  14.108
65343W        W33748  15.672  33.080   2.879
65344W        W33749  40.521  27.306   3.582
65345W        W33750  39.809   3.392   4.043
65346W        W33751  12.232  31.348   1.224
65347W        W33752  14.454  24.144  13.432
65348W        W33753  25.965   6.893  12.096
65349W        W33754   5.752  25.161   1.329
65350W        W33755  37.779  18.632   4.480
65351W        W33756  40.259  30.681  13.017
65352W        W33757   0.345  24.532  10.520
65353W        W33758  16.633  23.996   3.277
65354W        W33759  44.196   8.432   0.626
65355W        W33760  18.563   4.753  14.167
65356W        W33761  23.671   8.677   0.868
65357W        W33762   7.203  42.097  14.161
65358W        W33763  33.397  17.351   0.964
65359W        W33764  29.085  28.465  14.432
65360W        W33765  20.205   5.551   4.848
65361W        W33766  24.174  13.626   1.445
65362W        W33767  18.820  42.986   1.394
65363W        W33768  30.705  23.452  11.879
65364W        W33769  29.947  43.447  14.642
65365W        W33770  18.579  31.539  13.933
65366W        W33771  10.466  38.672   4.250
65367W        W33772  12.765   0.812   4.223
65368W        W33773  28.064  43.040  11.031
65369W        W33774  33.620   1.535   4.702
65370W        W33775  24.424  21.701   1.339
65371W        W33776  16.997  13.263  12.408
65372W        W33777  11.192  35.001  13.634
65373W        W33778  34.056  14.358   2.317
65374W        W33779  21.688  13.654   2.826
65375W        W33780  10.313  17.230   2.878
65376W        W33781   2.225  32.662  14.643
65377W        W33782   2.209  22.117   1.932
65378W        W33783  18.296  24.261  13.388
65379W        W33784  18.091   9.690  12.488
65380W        W33785  37.436  14.789   4.399
65381W        W33786  18.762  28.984   1.428
65382W        W33787   0.319  40.369   1.879
65383W        W33788  29.017  27.344   4.049
65384W        W33789  21.498  24.758  12.997
65385W        W33790  29.951  25.469   4.785
65386W        W33791  23.096  19.215   4.571
65387W        W33792  38.486  24.472  12.871
65388W        W33793  21.038  17.302  12.993
65389W        W33794  29.179  26.136   0.532
65390W        W33795  18.506  24.942  11.191
65391W        W33796  10.913  20.991   1.778
65392W        W33797  43.156  44.415   1.897
65393W        W33798   3.975   1.380  14.505
65394W        W33799  26.719   0.408   3.929
65395W        W33800   2.930  34.002  10.806
65396W        W33801  31.622  36.870   2.693
65397W        W33802  22.603  25.684   2.231
65398W        W33803  44.837   9.826  13.446
65399W        W33804  20.129   0.489  14.488
65400W        W33805  36.374  18.648  11.986
65401W        W33806  24.575  11.190   4.839
65402W        W33807  44.680  22.198  12.981
65403W        W33808  10.351  40.132  11.186
65404W        W33809  41.502  29.403   0.626
65405W        W33810  41.387  26.207  14.298
65406W        W33811  22.990  23.139   4.541
65407W        W33812  32.815  25.035   4.829
65408W        W33813   7.003   7.258   3.572
65409W        W33814   2.871   1.003  12.192
65410W        W33815  16.671  43.559  12.530
65411W        W33816   5.773  43.772  14.919
65412W        W33817  11.727   7.607   1.454
65413W        W33818   2.987  31.400  13.895
65414W        W33819  34.093  22.926  11.662
65415W        W33820  44.462  12.088   4.624
65416W        W33821  15.365   7.923   0.398
65417W        W33822  19.828   2.254  12.430
65418W        W33823   1.785  35.355   4.534
65419W        W33824   5.968  14.155   0.782
65420W        W33825  11.530  15.820   4.508
65421W        W33826  39.261  38.779   2.787
65422W        W33827   8.628  23.538  12.773
65423W        W33828  15.583  44.949   4.884
65424W        W33829  27.143  22.159  11.157
65425W        W33830  16.647  40.610  13.303
65426W        W33831  36.835  43.899   2.604
65427W        W33832   6.671   3.885  11.970
65428W        W33833  33.048  26.058  12.622
65429W        W33834   1.517  40.404  14.062
65430W        W33835  26.281  15.690  14.871
65431W        W33836  41.840  26.390  13.529
65432W        W33837   4.902  36.564  11.492
65433W        W33838  39.619  14.572   4.199
65434W        W33839   2.689  22.002  13.844
65435W        W33840   5.324   7.858  11.017
65436W        W33841  35.542  34.112   0.917
65437W        W33842   6.430  40.415   1.969
65438W        W33843  40.901  22.063  11.963
65439W        W33844   3.025  25.075  11.988
65440W        W33845  31.001  25.644  14.869
65441W        W33846  39.418  42.529  13.346
65442W        W33847  37.595  21.539  13.817
65443W        W33848  22.063  36.574  11.474
65444W        W33849  44.798  36.424   4.227
65445W        W33850   6.933  24.222  14.982
65446W        W33851  26.190  23.636  11.952
65447W        W33852  14.736  17.050  11.831
65448W        W33853  24.461  23.624  12.401
65449W        W33854  18.160  23.238   2.492
65450W        W33855  25.530  29.295  11.962
65451W        W33856  23.721  35.199  11.310
65452W        W33857   5.359  14.685  11.530
65453W        W33858   6.748  26.894   4.114
65454W        W33859  26.285   0.142   4.799
65455W        W33860  20.864  24.597   4.085
65456W        W33861  42.850  44.099  14.776
65457W        W33862  24.021  21.725   3.453
65458W        W33863   1.153  14.855  12.602
65459W        W33864  21.444  37.010  12.837
65460W        W33865  29.049  26.655   0.457
65461W        W33866  26.219  20.213   4.401
65462W        W33867  32.979   6.370   5.356
65463W        W33868   7.899  29.266   3.767
65464W        W33869  17.338  11.258   1.778
65465W        W33870  16.174  41.488   1.853
65466W        W33871  44.327  27.584  14.684
65467W        W33872  44.759  16.696  14.886
65468W        W33873  14.590   5.357   4.724
65469W        W33874  31.232  20.188  10.695
65470W        W33875  27.784  17.797   2.611
65471W        W33876  15.445  27.189  11.046
65472W        W33877  10.593  44.523  10.261
65473W        W33878   9.613   2.467   4.148
65474W        W33879  37.387  16.363  14.030
65475W        W33880  17.014   4.272  14.473
65476W        W33881  31.526  35.266   3.147
65477W        W33882   5.097  26.423   3.808
65478W        W33883  32.167  42.985  11.784
65479W        W33884  38.054  32.897  12.390
65480W        W33885   6.301  34.059  12.421
65481W        W33886  22.737  23.817   2.386
65482W        W33887  23.985   5.272  12.512
65483W        W33888  39.357   1.258   4.101
65484W        W33889  20.700  24.787  11.417
65485W        W33890  27.476   7.391  12.966
65486W        W33891   3.901  43.417   2.587
65487W        W33892   9.469  18.650   0.775
65488W        W33893  38.551  26.606  13.520
65489W        W33894  35.967  34.499  13.939
65490W        W33895  24.560  25.211  11.436
65491W        W33896  43.482  10.822   4.982
65492W        W33897  35.364  20.588   2.259
65493W        W33898   8.154  13.235  13.331
65494W        W33899  22.683  27.202  12.181
65495W        W33900  44.325  41.571  13.900
65496W        W33901  21.986   7.661   3.305
65497W        W33902  24.003  36.502   1.613
65498W        W33903   6.813  22.694   3.333
65499W        W33904  10.777  15.493  13.969
65500W        W33905  42.976  22.447   1.395
65501W        W33906   0.828  17.324  11.262
65502W        W33907  12.717  39.297  13.889
65503W        W33908   2.805  17.768  11.694
65504W        W33909   3.038  13.663   4.196
65505W        W33910  37.352  40.545   3.260
65506W        W33911  28.046  25.947   4.641
65507W        W33912  12.682  30.086   1.532
65508W        W33913  23.291  25.463  13.082
65509W        W33914  26.170   3.325   4.522
65510W        W33915  40.618  13.171  12.509
65511W        W33916   0.558   1.420   1.306
65512W        W33917  38.416  21.237  10.576
65513W        W33918  31.561  18.590   4.157
65514W        W33919  23.606  16.298   2.443
65515W        W33920  24.196  40.092   1.325
65516W        W33921  13.492   8.332  14.710
65517W        W33922  27.967  18.803   4.070
65518W        W33923   7.986  26.608  10.620
65519W        W33924  40.272  23.828  14.995
65520W        W33925  19.221   8.168  13.543
65521W        W33926  32.442   0.914   0.506
65522W        W33927  17.266  39.380   1.906
65523W        W33928  35.268   5.810   5.026
65524W        W33929  35.597   8.403  13.743
65525W        W33930  31.544  11.353  11.452
65526W        W33931  28.128  25.616  10.715
65527W        W33932   6.673   5.260  14.479
65528W        W33933   0.382  19.595   2.524
65529W        W33934  27.500   6.269   0.314
65530W        W33935  33.444  37.641  12.477
65531W        W33936  27.869   9.737  12.418
65532W        W33937  16.700  42.860  11.074
65533W        W33938   3.757  26.752  12.873
65534W        W33939   8.300   3.753  12.833
65535W        W33940  15.161  21.980   1.886
65536W        W33941   4.770  30.576   0.070
65537W        W33942  28.780  14.789  13.277
65538W        W33943  30.478  23.465   1.469
65539W        W33944  34.733  36.520  13.226
65540W        W33945  16.552  12.177   2.717
65541W        W33946  24.281  34.607   0.446
65542W        W33947  39.856  44.947   2.231
65543W        W33948   6.654  44.375  12.401
65544W        W33949  37.613  40.277   1.105
65545W        W33950  27.041  32.079  14.579
65546W        W33951  18.759  31.712  14.842
65547W        W33952  34.167  10.307   0.365
65548W        W33953  42.984   3.419   0.671
65549W        W33954  24.882  28.194  13.868
65550W        W33955  23.343  21.141   2.565
65551W        W33956  17.759  14.046   0.889
65552W        W33957  38.564   6.375   0.809
65553W        W33958  19.035  25.928   0.927
65554W        W33959  15.392  40.962   1.969
65555W        W33960   0.882  24.055   1.727
65556W        W33961  29.162  24.155  13.775
65557W        W33962   4.535  36.498  13.457
65558W        W33963  38.390  28.209   1.905
65559W        W33964  35.373  12.106   4.042
65560W        W33965  30.001  12.941   2.389
65561W        W33966  43.845  34.636   3.675
65562W        W33967  27.694  31.431   3.552
65563W        W33968  13.457  24.992  14.976
65564W        W33969  12.601  36.896   1.526
65565W        W33970  17.755  27.502   3.694
65566W        W33971  33.439   4.669  10.437
65567W        W33972  13.661  34.630   2.245
65568W        W33973  26.770  31.000  13.239
65569W        W33974  31.463  30.426  14.105
65570W        W33975   9.366  31.377  10.271
65571W        W33976  18.347  26.003   2.726
65572W        W33977  44.999  14.225  12.465
65573W        W33978  14.847  23.233   3.341
65574W        W33979  40.457  37.525   0.991
65575W        W33980   1.737  15.840   3.183
65576W        W33981  22.030  20.628  12.277
65577W        W33982  42.311  43.281   3.815
65578W        W33983  41.531  34.221  14.430
65579W        W33984  30.484  13.168  11.451
65580W        W33985  25.450  16.487   4.117
65581W        W33986   1.868  15.508   4.456
65582W        W33987  17.236  18.813   1.947
65583W        W33988   8.594  22.673   0.326
65584W        W33989  33.398  29.144   2.650
65585W        W33990  21.032  18.479   4.560
65586W        W33991  30.359  18.685   5.149
65587W        W33992  20.564  15.770  10.622
65588W        W33993   5.228   5.932  13.891
65589W        W33994  31.696   8.816   4.841
65590W        W33995   1.467  17.674   2.585
65591W        W33996   9.099  20.961   3.688
65592W        W33997  24.236  22.781  10.624
65593W        W33998  26.256  44.996  14.074
65594W        W33999  40.747   2.513  10.162
65595W        W34000   6.865  41.812  14.823
65596W        W34001  13.788  37.328   4.680
65597W        W34002  43.550   5.199   3.579
65598W        W34003  26.688  36.872  11.022
65599W        W34004  26.319  17.652  13.098
65600W        W34005  24.222  15.460  11.223
65601W        W34006  18.259  24.225  11.672
65602W        W34007  12.808   3.098   4.934
65603W        W34008  20.344  17.625  10.656
65604W        W34009   0.838  11.857   3.134
65605W        W34010  42.367  15.752  13.903
65606W        W34011  10.245  21.564   0.647
65607W        W34012  25.595   9.734  12.854
65608W        W34013  21.639  26.000  10.799
65609W        W34014  38.462  28.243   4.007
65610W        W34015  26.049  16.751   4.910
65611W        W34016  30.722  41.956   0.421
65612W        W34017  43.137  44.958  11.973
65613W        W34018  28.039  15.729   0.778
65614W        W34019  24.101  10.373  12.436
65615W        W34020   9.147  21.731   3.491
65616W        W34021  39.149  30.562  13.854
65617W        W34022  17.493  43.248  11.606
65618W        W34023  33.010  17.218  12.405
65619W        W34024  26.531  12.786   4.607
65620W        W34025  31.080   7.266  14.731
65621W        W34026   9.166   4.534  14.621
65622W        W34027  33.644  23.715   3.672
65623W        W34028  10.009  38.775  11.667
65624W        W34029   0.318  39.743  14.537
65625W        W34030  18.787  44.867  11.931
65626W        W34031  28.588  19.574  11.117
65627W        W34032  41.893   9.804   0.272
65628W        W34033  43.954  21.584  13.043
65629W        W34034  32.591  17.158  13.523
65630W        W34035   0.725  43.758   2.544
65631W        W34036  39.212  28.350   2.818
65632W        W34037  44.908  28.676   2.691
65633W        W34038   8.727   4.813   0.024
65634W        W34039   8.480  10.857   3.090
65635W        W34040  39.057  30.101   0.189
65636W        W34041  41.018  27.916   3.132
65637W        W34042   0.539  27.545  14.469
65638W        W34043  15.669  37.324   2.353
65639W        W34044  12.552  17.129   4.424
65640W        W34045  25.178  28.639  11.494
65641W        W34046  23.340  30.558  10.618
65642W        W34047   3.497  22.639  13.780
65643W        W34048  16.790   2.412  11.648
65644W        W34049   3.637  12.785  12.080
65645W        W34050  12.804  34.540   0.738
65646W        W34051  13.723  15.486  12.555
65647W        W34052  26.516  23.985   2.476
65648W        W34053  26.741  10.621   0.714
65649W        W34054  44.045  42.819   2.416
65650W        W34055  31.484  41.089  11.424
65651W        W34056  14.562  18.277  13.972
65652W        W34057  31.829  11.702   3.216
65653W        W34058  21.280  23.196   1.745
65654W        W34059  24.592  32.563   1.489
65655W        W34060   6.352   8.142   4.619
65656W        W34061  30.827  27.252   4.477
65657W        W34062   5.415  39.724  13.841
65658W        W34063   3.468  42.125  10.718
65659W        W34064  40.111  19.670   4.542
65660W        W34065  18.680  36.888   2.340
65661W        W34066  26.173  29.462   2.712
65662W        W34067  11.052   0.423   4.037
65663W        W34068  21.645   1.704   2.170
65664W        W34069  35.031  20.694   2.948
65665W        W34070  17.542  22.948   3.194
65666W        W34071  31.704  27.675   4.136
65667W        W34072   9.187  27.979  14.879
65668W        W34073  16.703  38.290   1.652
65669W        W34074  35.864  22.791   3.213
65670W        W34075  38.255   8.640  13.990
65671W        W34076  31.548  22.041  11.806
65672W        W34077  15.752  32.981   3.400
65673W        W34078  29.939  11.753   3.158
65674W        W34079  12.376  39.025  11.147
65675W        W34080  26.462  35.948  13.384
65676W        W34081  41.863  36.977   4.780
65677W        W34082  28.657  20.352  12.990
65678W        W34083   3.520  38.049  13.474
65679W        W34084   8.931  36.465   4.641
65680W        W34085   2.687  29.910   4.219
65681W        W34086  22.612  29.657   0.566
65682W        W34087   7.734   2.925   4.085
65683W        W34088  29.519  27.122  13.653
65684W        W34089  38.035  13.111  10.540
65685W        W34090  12.260  35.571  10.360
65686W        W34091  14.765  13.198   4.617
65687W        W34092  26.311  18.236  11.993
65688W        W34093  20.778   2.035  11.868
65689W        W34094  24.093   2.960  13.352
65690W        W34095  38.621  27.318   4.244
65691W        W34096  22.744  35.611   3.541
65692W        W34097  11.265   8.712  12.049
65693W        W34098  35.399   5.736  11.578
65694W        W34099  25.273  35.237   4.310
65695W        W34100  27.670  29.439   2.808
65696W        W34101   0.197  14.367   2.934
65697W        W34102  25.557  15.674   3.241
65698W        W34103   2.726  43.985   2.700
65699W        W34104   7.694  27.470  11.966
65700W        W34105  28.251  25.171   4.055
65701W        W34106  22.431   0.025  11.038
65702W        W34107   0.307   8.379   4.376
65703W        W34108  35.697  32.799  12.944
65704W        W34109  34.894  33.093   0.449
65705W        W34110  32.045  16.175   1.381
65706W        W34111  31.231   1.787   0.933
65707W        W34112  11.429  30.586  12.052
65708W        W34113  31.534  20.125   2.306
65709W        W34114   0.581  22.750   3.899
65710W        W34115  28.601   8.206  12.834
65711W        W34116  12.110  25.845  14.323
65712W        W34117   8.380  23.190   0.331
65713W        W34118  26.589   8.858   3.528
65714W        W34119  24.129  28.483   4.814
65715W        W34120   3.266  36.762   3.923
65716W        W34121  20.634   2.222  13.740
65717W        W34122  40.594  30.953  11.932
65718W        W34123  28.933  28.568   3.124
65719W        W34124  34.978  40.039  12.030
65720W        W34125  37.879  17.511  11.555
65721W        W34126  21.920  28.649   4.602
65722W        W34127  44.894  22.242   4.010
65723W        W34128  16.823  39.285  11.182
65724W        W34129  39.812  11.740  12.090
65725W        W34130   2.519  21.438  11.527
65726W        W34131  35.840   6.884   3.164
65727W        W34132  12.161  11.064   3.722
65728W        W34133  12.749  40.283  14.292
65729W        W34134  27.157  13.877  11.538
65730W        W34135  22.029  42.447   3.357
65731W        W34136  25.934  13.002  13.934
65732W        W34137  29.028  11.101  13.532
65733W        W34138   2.944   7.637  14.644
65734W        W34139  20.901  18.962  11.044
65735W        W34140   1.759  36.947   3.710
65736W        W34141  44.369  32.084  10.799
65737W        W34142  14.447  44.350  13.866
65738W        W34143   5.246  35.167  14.741
65739W        W34144  23.071  29.652  13.042
65740W        W34145   6.737  36.273  13.972
65741W        W34146  40.057   5.671   0.360
65742W        W34147  29.898  39.002   0.776
65743W        W34148   0.449   8.645   0.578
65744W        W34149   2.949  14.745   0.486
65745W        W34150  37.843   8.529   3.282
65746W        W34151  18.786   6.776  11.973
65747W        W34152  27.499  26.780  11.116
65748W        W34153  10.756   4.346  14.714
65749W        W34154  40.598  14.705   0.283
65750W        W34155  23.592  11.410   4.459
65751W        W34156  38.368  14.324   1.779
65752W        W34157  40.498  24.756  12.696
65753W        W34158  28.968  10.285   1.006
65754W        W34159  21.617  16.674   4.658
65755W        W34160  22.602  19.783  14.506
65756W        W34161   6.177  41.673   3.314
65757W        W34162  17.835  31.017  13.816
65758W        W34163  30.990   3.291   3.833
65759W        W34164  13.784  35.398   2.725
65760W        W34165  24.765   1.045   4.620
65761W        W34166  32.127  44.462  14.778
65762W        W34167  44.829  35.164   2.583
65763W        W34168  25.024  15.628   3.202
65764W        W34169  13.174   8.353  10.787
65765W        W34170  44.665   8.489   0.828
65766W        W34171   2.265  31.652   1.937
65767W        W34172  20.538  28.475   0.972
65768W        W34173  42.032   4.310   3.184
65769W        W34174  19.337  15.038   3.722
65770W        W34175  21.521  44.249  13.464
65771W        W34176  33.158  22.940  13.898
65772W        W34177  30.015  27.182  13.534
65773W        W34178   0.037  19.603   3.643
65774W        W34179  28.398  13.799  13.498
65775W        W34180   8.186  16.116   2.373
65776W        W34181  38.786  32.014   4.707
65777W        W34182  31.046  41.137  13.958
65778W        W34183   0.986  34.556   4.726
65779W        W34184  44.425  40.935   2.793
65780W        W34185  36.480  24.312  11.912
65781W        W34186   5.902  16.264   1.018
65782W        W34187  37.322  39.657   2.855
65783W        W34188  41.488  12.135  14.858
65784W        W34189  41.319  40.953   1.537
65785W        W34190   8.936  13.694   3.303
65786W        W34191  16.295  43.818   1.010
65787W        W34192  42.620   1.819   2.408
65788W        W34193   9.818   0.506   0.419
65789W        W34194  16.739  41.648  12.408
65790W        W34195   3.413  39.789   1.939
65791W        W34196  39.509  23.580  12.215
65792W        W34197  16.385  19.249  11.859
65793W        W34198  40.546  10.410  11.438
65794W        W34199  32.478   7.906  11.053
65795W        W34200  15.771  30.298  12.458
65796W        W34201  27.628  13.147   1.302
65797W        W34202  38.913  25.673   2.018
65798W        W34203  27.564  31.833   3.166
65799W        W34204   4.438  31.346   2.139
65800W        W34205   8.591  31.415  13.464
65801W        W34206   2.136  37.372   0.083
65802W        W34207   4.205  31.543  11.855
65803W        W34208  18.128  14.594  12.007
65804W        W34209  11.109  33.815   3.327
65805W        W34210  12.927  14.186  13.022
65806W        W34211   2.271  24.608   0.324
65807W        W34212  26.518  17.164  13.979
65808W        W34213  38.541   2.673   3.244
65809W        W34214   4.283   5.148  13.502
65810W        W34215  11.850  18.713   0.095
65811W        W34216  12.204  24.712   1.975
65812W        W34217  24.767  43.252  14.890
65813W        W34218   8.786  33.059   2.685
65814W        W34219  16.159  24.644  13.966
65815W        W34220   7.992   7.383  13.794
65816W        W34221  35.821  12.698   4.825
65817W        W34222  40.475  19.814   1.281
65818W        W34223   2.602   5.893   3.341
65819W        W34224  42.789  34.631  12.618
65820W        W34225   2.679  36.472  14.913
65821W        W34226  32.161  34.122   1.472
65822W        W34227   2.797  31.354   4.898
65823W        W34228  19.644  11.291   1.729
65824W        W34229  22.982  23.783   3.211
65825W        W34230  32.470  31.658  14.879
65826W        W34231   7.215  25.973  14.045
65827W        W34232   5.464  26.647   4.083
65828W        W34233   4.174  14.081  13.536
65829W        W34234  28.694  22.988   3.350
65830W        W34235  30.424  14.183   3.674
65831W        W34236  41.101  15.012  12.887
65832W        W34237  10.672  37.334  13.368
65833W        W34238  38.059  41.486  11.144
65834W        W34239   7.224  10.114   4.149
65835W        W34240  39.863   4.385   2.283
65836W        W34241   2.227  34.042  14.519
65837W        W34242  39.619  31.553  12.402
65838W        W34243  35.092  35.837   0.782
65839W        W34244  35.364  27.572  12.375
65840W        W34245  37.447   1.185   2.119
65841W        W34246  20.978  14.363   2.864
65842W        W34247  41.797  11.341  11.186
65843W        W34248  12.454   5.884  14.906
65844W        W34249  17.102  11.150  11.573
65845W        W34250   3.205   8.866   0.957
65846W        W34251  29.150  38.264  14.557
65847W        W34252  20.239  21.093   2.645
65848W        W34253  44.762   1.859   1.137
65849W        W34254   7.917  30.288   9.804
65850W        W34255  10.734  28.747   1.762
65851W        W34256  21.283  28.159   4.528
65852W        W34257  23.539  25.535   0.321
65853W        W34258  23.515  24.262  11.106
65854W        W34259  22.300   2.783  12.874
65855W        W34260  28.713  10.718  14.265
65856W        W34261  25.694   3.256   4.739
65857W        W34262  20.936  14.534  11.136
65858W        W34263   9.397  10.288   2.389
65859W        W34264  27.973  10.604   3.222
65860W        W34265  21.543   8.383   4.628
65861W        W34266   5.024  43.883   1.336
65862W        W34267  12.126  17.384   3.067
65863W        W34268  28.359  23.645  12.328
65864W        W34269  37.849  22.503  14.249
65865W        W34270  22.027  23.523  13.513
65866W        W34271  17.641   1.961   2.351
65867W        W34272  30.127  19.577  14.041
65868W        W34273  17.711  14.810   2.920
65869W        W34274  17.075  33.354  13.774
65870W        W34275  22.283  11.165  11.910
65871W        W34276  43.408   2.748   2.183
65872W        W34277  12.397  29.357  14.511
65873W        W34278   6.935   0.522  12.971
65874W        W34279   7.632   8.383   0.639
65875W        W34280   4.489   3.654  12.119
65876W        W34281  43.173  16.293   0.936
65877W        W34282  25.335   4.123   0.202
65878W        W34283  40.023  42.251  11.868
65879W        W34284   0.560  25.008   0.712
65880W        W34285  21.925  33.096   2.196
65881W        W34286   6.272   6.404   2.793
65882W        W34287  41.293  39.857   3.332
65883W        W34288  11.907  33.262  10.416
65884W        W34289  33.910  32.572  14.007
65885W        W34290   9.828  27.240  14.087
65886W        W34291   8.124  38.766   1.511
65887W        W34292  42.840  30.080   1.272
65888W        W34293  11.133  12.171  10.641
65889W        W34294  16.937  11.680   3.540
65890W        W34295  38.206   1.796   2.842
65891W        W34296  31.416   0.461   1.356
65892W        W34297  15.320   6.634  10.242
65893W        W34298  28.444  11.260  14.891
65894W        W34299  35.055  35.521   4.482
65895W        W34300  33.142  21.623  13.844
65896W        W34301  22.191   4.201   0.286
65897W        W34302  20.719   4.957   3.921
65898W        W34303  26.007  24.052   3.649
65899W        W34304   9.970  16.646  12.538
65900W        W34305   3.746  40.067  13.552
65901W        W34306  21.771  28.791  14.545
65902W        W34307   6.942  30.526  13.120
65903W        W34308  36.135  32.869   3.810
65904W        W34309  29.623  44.766   1.814
65905W        W34310  13.889  43.496  14.007
65906W        W34311  13.811  36.927   4.095
65907W        W34312  42.354  31.197  10.667
65908W        W34313  25.620  19.656  14.668
65909W        W34314   0.927  10.751   0.794
65910W        W34315  25.903  18.086  12.915
65911W        W34316  39.561  35.044  11.696
65912W        W34317  44.557  27.071   3.910
65913W        W34318   6.617   8.747  13.814
65914W        W34319   6.299  29.060   4.111
65915W        W34320  33.253   3.885   4.587
65916W        W34321  29.902   8.617  10.578
65917W        W34322   7.910  43.769   1.376
65918W        W34323   1.831  37.195   0.626
65919W        W34324  16.341  20.553   3.301
65920W        W34325   0.338  12.749   3.760
65921W        W34326  17.077  12.049  10.408
65922W        W34327  24.509   4.373  12.414
65923W        W34328  42.803  18.605   2.726
65924W        W34329  21.113  35.159   0.347
65925W        W34330  37.316  43.810   1.379
65926W        W34331  12.464   9.249  10.697
65927W        W34332  39.496   8.901   4.155
65928W        W34333  35.898   5.090   3.745
65929W        W34334   7.648   4.765   4.561
65930W        W34335  17.029  42.466  11.096
65931W        W34336  30.877   5.330  12.572
65932W        W34337  15.854  23.642   2.569
65933W        W34338   9.314  41.460  13.916
65934W        W34339  30.966  29.389  10.598
65935W        W34340  29.582  35.478   0.391
65936W        W34341  43.931  12.837   3.661
65937W        W34342  20.795   6.271   4.424
65938W        W34343   9.025  21.219  10.821
65939W        W34344  11.863  17.776   4.190
65940W        W34345  31.859   9.362   3.851
65941W        W34346  32.937  31.940  14.817
65942W        W34347  25.718  26.086  13.809
65943W        W34348  17.651   2.361  14.921
65944W        W34349   0.979  19.219   3.534
65945W        W34350  36.168  15.623  11.487
65946W        W34351  18.043  34.163   3.637
65947W        W34352  41.265  40.340  12.509
65948W        W34353   0.330  11.853   0.962
65949W        W34354  16.580  44.304   4.581
65950W        W34355   1.826  11.331   1.416
65951W        W34356  16.173  36.883   0.286
65952W        W34357   5.341  15.899  12.089
65953W        W34358  29.302   3.349  11.955
65954W        W34359   9.431   3.018   4.533
65955W        W34360  27.267   2.791   0.312
65956W        W34361  33.065  21.740   2.828
65957W        W34362   0.744   7.152   9.950
65958W        W34363  28.017  30.823  11.765
65959W        W34364  34.967  26.216  14.983
65960W        W34365  43.346   9.828   4.014
65961W        W34366  36.309  26.470   2.466
65962W        W34367   5.430  43.398  12.187
65963W        W34368  17.623   9.609   5.355
65964W        W34369  30.984  17.502   4.645
65965W        W34370  20.577  13.343  11.472
65966W        W34371  40.475   4.834   0.940
65967W        W34372  28.577  14.601  11.021
65968W        W34373  24.553  37.989  14.661
65969W        W34374   6.784  20.454  11.084
65970W        W34375   1.206  16.547   3.205
65971W        W34376  40.210   2.897  12.499
65972W        W34377   8.255  15.910   0.514
65973W        W34378  35.027   0.905  14.366
65974W        W34379  10.977   2.394   2.234
65975W        W34380  29.571   9.449  10.749
65976W        W34381  12.748   8.217   1.338
65977W        W34382   6.577  18.547   4.692
65978W        W34383   0.001  19.480  14.463
65979W        W34384  31.437  36.809  12.053
65980W        W34385  35.543  42.293  13.543
65981W        W34386  44.857  17.882  11.054
65982W        W34387   3.499  30.944   1.573
65983W        W34388  15.265  24.647   9.846
65984W        W34389  44.118  36.462   3.539
65985W        W34390  27.236  30.345  14.912
65986W        W34391   5.287  17.995   4.256
65987W        W34392   9.160  37.869   1.215
65988W        W34393  28.541  16.984  10.429
65989W        W34394   8.811  22.442   1.738
65990W        W34395  13.321  31.517  11.461
65991W        W34396  44.413  18.988  12.873
65992W        W34397   9.776  40.351  11.058
65993W        W34398   2.367  15.818   0.097
65994W        W34399  36.027   2.162  13.908
65995W        W34400  39.440  42.748  10.615
65996W        W34401   2.309  37.881  12.952
65997W        W34402   5.266  15.681   1.367
65998W        W34403  38.503  10.558  11.489
65999W        W34404   8.948   9.313   1.550
66000W        W34405   2.363   1.717   1.248
66001W        W34406  30.972  11.952  14.684
66002W        W34407   4.293   9.142  10.945
66003W        W34408  39.061  26.961   2.292
66004W        W34409  31.959  33.365  14.111
66005W        W34410  15.669  33.523  12.596
66006W        W34411   2.043  10.196   3.535
66007W        W34412  14.399  27.441   3.711
66008W        W34413  14.791   7.912   2.615
66009W        W34414  32.455  14.688   0.499
66010W        W34415  30.636  10.853   1.194
66011W        W34416  28.113  10.146   3.052
66012W        W34417  29.787  27.484  13.910
66013W        W34418  15.776  21.747  14.366
66014W        W34419   9.718  15.537   0.393
66015W        W34420  26.435  27.790   1.783
66016W        W34421   6.627  17.732  13.453
66017W        W34422   7.182  17.131  12.540
66018W        W34423   6.832  38.487   4.771
66019W        W34424   7.548  20.102  13.166
66020W        W34425  42.087  38.356   0.530
66021W        W34426  13.232   1.035   4.182
66022W        W34427  41.479  24.989  11.620
66023W        W34428  29.568  43.404  11.693
66024W        W34429  42.344  30.582   2.101
66025W        W34430  18.241  34.455   2.202
66026W        W34431  35.540  25.651   4.672
66027W        W34432  42.210  42.442  12.542
66028W        W34433  21.935  16.272   3.249
66029W        W34434  21.027  34.983   3.729
66030W        W34435  23.393  40.480  11.892
66031W        W34436   1.216  43.378   3.283
66032W        W34437   5.190  14.687   4.209
66033W        W34438  25.043  35.930  13.994
66034W        W34439   7.431  34.290  13.180
66035W        W34440  37.128   0.250  14.108
66036W        W34441   5.702  20.298  13.035
66037W        W34442   4.423   7.433  14.843
66038W        W34443   6.779  37.830   3.528
66039W        W34444  38.501  21.011  14.530
66040W        W34445   4.378  39.975   4.128
66041W        W34446  23.853  32.940   3.808
66042W        W34447  33.361  34.650  12.595
66043W        W34448  34.498  21.732  14.017
66044W        W34449  44.180  20.508  12.939
66045W        W34450  19.240  40.983   2.904
66046W        W34451  11.350  43.338   1.030
66047W        W34452   2.247  22.186  14.785
66048W        W34453  29.879  29.089  12.473
66049W        W34454  42.366  37.134  12.242
66050W        W34455  35.736   7.675   0.430
66051W        W34456  29.462  14.207  12.536
66052W        W34457  30.057  32.619  11.451
66053W        W34458  26.131   6.347  10.512
66054W        W34459  13.731  28.233  11.521
66055W        W34460  36.159  24.046  10.731
66056W        W34461  11.527   6.586   1.374
66057W        W34462   6.703  42.084   4.131
66058W        W34463  28.467  23.035  13.210
66059W        W34464  21.174   2.410  11.994
66060W        W34465  32.443   6.598   2.282
66061W        W34466  12.709   5.109   2.666
66062W        W34467  10.577  19.586  12.931
66063W        W34468  31.636  21.156  11.594
66064W        W34469   4.823  39.036  11.128
66065W        W34470  37.086  38.014  14.808
66066W        W34471  44.038  24.976   0.887
66067W        W34472  27.262  17.280   4.125
66068W        W34473  15.743  16.441  12.356
66069W        W34474  27.201   4.823  12.866
66070W        W34475  40.420  22.508  12.982
66071W        W34476   6.206  16.559  11.469
66072W        W34477   5.434  17.333  12.181
66073W        W34478  34.772  16.058   2.744
66074W        W34479  11.263  13.555   4.132
66075W        W34480  21.198  23.043   2.951
66076W        W34481  11.706   2.640  14.657
66077W        W34482  29.917  29.088   4.763
66078W        W34483  26.785  12.572  14.396
66079W        W34484  37.879  33.044   0.343
66080W        W34485  30.702  42.422  12.379
66081W        W34486  36.106  33.466  14.919
66082W        W34487  23.400  43.671  14.663
66083W        W34488  28.616  39.391   1.789
66084W        W34489  35.152   2.725   1.743
66085W        W34490  11.826  32.046  13.268
66086W        W34491  20.772  41.397  11.161
66087W        W34492   0.347  33.878   3.722
66088W        W34493  42.399   2.849   3.757
66089W        W34494  16.746   5.267  10.917
66090W        W34495  33.979  34.508  13.766
66091W        W34496   7.387  21.311  13.726
66092W        W34497  19.412  27.248  10.664
66093W        W34498  28.073  15.098  14.043
66094W        W34499  41.029  10.064  14.626
66095W        W34500   3.010   5.012   5.076
66096W        W34501  11.900  41.662   0.774
66097W        W34502  11.233   2.801   3.692
66098W        W34503  25.236  32.665   0.221
66099W        W34504  44.482  38.079  14.400
66100W        W34505  25.679  31.088   1.159
66101W        W34506   6.717  40.829   0.010
66102W        W34507  29.017  15.171   4.112
66103W        W34508  17.730  31.533   4.546
66104W        W34509  13.205   7.438  11.209
66105W        W34510  17.920   6.214   4.229
66106W        W34511  37.963  41.130   1.366
66107W        W34512  19.554   4.032   0.226
66108W        W34513  40.092   7.287  14.605
66109W        W34514  35.158   4.776  12.404
66110W        W34515  15.703  21.301   4.490
66111W        W34516  30.197  43.038  14.407
66112W        W34517   8.483  30.457  12.973
66113W        W34518  17.799  10.138  11.155
66114W        W34519  39.011  34.620   3.497
66115W        W34520   0.818  22.576  13.994
66116W        W34521  11.256  25.071   2.893
66117W        W34522  33.203   0.036   4.164
66118W        W34523  17.925  37.743  10.349
66119W        W34524  13.036  25.737  13.365
66120W        W34525  22.101  41.856  12.229
66121W        W34526  20.797   3.287   4.221
66122W        W34527  31.748  29.549   1.030
66123W        W34528   7.726  38.847   4.159
66124W        W34529  22.068  34.957  13.381
66125W        W34530  38.557  34.443   4.268
66126W        W34531  42.275  39.883   3.759
66127W        W34532  38.533  18.552   3.808
66128W        W34533  37.684  15.777  11.409
66129W        W34534  44.341   4.703  14.486
66130W        W34535  28.596  21.528  11.964
66131W        W34536  20.992   5.061   2.704
66132W        W34537  27.496   0.533  11.069
66133W        W34538  28.993  31.667   2.483
66134W        W34539  13.574  24.097   2.846
66135W        W34540  38.670   1.775  14.009
66136W        W34541  19.744  16.261   4.342
66137W        W34542  20.237  29.787   3.180
66138W        W34543   6.915   3.927   0.760
66139W        W34544  18.038  28.680  12.892
66140W        W34545  34.183   6.476   3.676
66141W        W34546  41.007  16.489  11.159
66142W        W34547  32.484  26.599  11.009
66143W        W34548  38.276  17.127  10.987
66144W        W34549   8.305  35.313   1.363
66145W        W34550  39.961  21.114  10.435
66146W        W34551  17.419   3.110   3.224
66147W        W34552  42.590  32.175  13.015
66148W        W34553  21.340   7.370   4.609
66149W        W34554   6.339  37.929  11.325
66150W        W34555  14.602  24.623   2.075
66151W        W34556  22.978  20.215  12.644
66152W        W34557  26.083   8.867  12.090
66153W        W34558  35.280  34.339   0.499
66154W        W34559  24.776  18.147  13.669
66155W        W34560  20.631  22.473  13.307
66156W        W34561  10.639  30.914   4.082
66157W        W34562  37.385  31.002  12.357
66158W        W34563   2.301  11.777  12.906
66159W        W34564  29.855  40.704   1.341
66160W        W34565  29.720  34.926   0.415
66161W        W34566  20.160  30.708  12.015
66162W        W34567  18.135  15.791  12.139
66163W        W34568  35.676   3.170   5.020
66164W        W34569   7.766  14.673   0.537
66165W        W34570  30.349  14.090  10.648
66166W        W34571  19.844  25.966  10.480
66167W        W34572  12.063  33.034  12.095
66168W        W34573  33.159   3.464   2.323
66169W        W34574  26.069   8.362  11.044
66170W        W34575  30.088  16.737  14.458
66171W        W34576  24.832  11.335  11.286
66172W        W34577  12.762  27.091   4.814
66173W        W34578  40.244   6.869  14.326
66174W        W34579  15.076   7.947   3.195
66175W        W34580  20.469  36.364  11.973
66176W        W34581  12.112   0.292   1.112
66177W        W34582  10.175   8.227  13.262
66178W        W34583  23.945  11.910   4.813
66179W        W34584  37.906   2.479  11.199
66180W        W34585  18.758   4.243   0.445
66181W        W34586  40.279   3.175   4.102
66182W        W34587  33.966  26.101  13.168
66183W        W34588  24.875  12.131  13.383
66184W        W34589  36.622  19.262   1.310
66185W        W34590  23.588   1.814  12.545
66186W        W34591   1.253  38.921  12.540
66187W        W34592   1.660   5.616  12.532
66188W        W34593  13.711  43.769   5.034
66189W        W34594  44.352   3.863   4.946
66190W        W34595   8.656  12.848   2.088
66191W        W34596   2.191  27.084  11.574
66192W        W34597  29.710   3.961   0.404
66193W        W34598  21.827  16.288  12.972
66194W        W34599  22.922  22.079  12.452
66195W        W34600  10.048  26.542  14.010
66196W        W34601  35.603  22.595  14.837
66197W        W34602  28.061  10.895   0.425
66198W        W34603  40.791  38.958  10.454
66199W        W34604  12.126  24.084  11.407
66200W        W34605   5.781  38.401  11.068
66201W        W34606  13.827  13.876   3.317
66202W        W34607  38.081  19.029   2.596
66203W        W34608  10.490  32.619   5.291
66204W        W34609  14.833  40.590   4.233
66205W        W34610  27.997   2.337   0.275
66206W        W34611  18.410   2.038   5.077
66207W        W34612   8.259  27.676  11.911
66208W        W34613  28.599   9.265  14.918
66209W        W34614  34.409  29.976  13.222
66210W        W34615  31.918  16.810  13.835
66211W        W34616  38.847  40.046  10.810
66212W        W34617  34.719   3.193   0.881
66213W        W34618  41.241  20.614  12.962
66214W        W34619   8.804   3.271   3.481
66215W        W34620  30.536  10.650   3.671
66216W        W34621  42.269  27.991   1.782
66217W        W34622  38.314  27.268   2.867
66218W        W34623  25.510  17.106  13.910
66219W        W34624  34.399  43.262   4.534
66220W        W34625   7.332   0.378  11.581
66221W        W34626  16.076   7.201  11.090
66222W        W34627  33.252  41.108   0.021
66223W        W34628  30.095   5.936  14.860
66224W        W34629  18.597   7.915  11.685
66225W        W34630  15.984  29.549  10.061
66226W        W34631  42.915  39.507   3.244
66227W        W34632  33.477  21.741   1.740
66228W        W34633  30.093   6.931   0.290
66229W        W34634  33.229  22.555   4.227
66230W        W34635  25.426  26.602   4.638
66231W        W34636  32.508  14.370   1.867
66232W        W34637  13.613  34.045   5.035
66233W        W34638   6.794  12.395   1.473
66234W        W34639  14.910  17.850   4.720
66235W        W34640  39.327  40.763   4.486
66236W        W34641  14.697  14.893   0.876
66237W        W34642  31.678  34.740   3.195
66238W        W34643  27.997  35.386   1.047
66239W        W34644  16.636  24.597   1.259
66240W        W34645  28.802  12.932   4.112
66241W        W34646  24.306  29.107  12.980
66242W        W34647  16.406  36.619  14.890
66243W        W34648   4.760  41.487  13.197
66244W        W34649  12.639  27.683  12.882
66245W        W34650   3.339  12.682  14.462
66246W        W34651  42.320  16.171  14.274
66247W        W34652  22.078  38.285  11.145
66248W        W34653  22.741  27.733   0.813
66249W        W34654   1.240   9.756  11.053
66250W        W34655  25.118  34.652  14.602
66251W        W34656  35.020  29.545   0.752
66252W        W34657  28.994  24.703   0.702
66253W        W34658  25.115  14.894  11.181
66254W        W34659  12.201  42.001   1.699
66255W        W34660  34.555   4.225   0.121
66256W        W34661  33.662  21.017  12.597
66257W        W34662  13.914  18.029   2.575
66258W        W34663   2.432  32.629   4.786
66259W        W34664  13.354  24.586  11.897
66260W        W34665   7.521  15.768   0.717
66261W        W34666  18.037  19.294   2.412
66262W        W34667  41.055  16.325  14.775
66263W        W34668  30.047  39.763  11.528
66264W        W34669  13.836  13.128  11.951
66265W        W34670  29.951  23.534  12.487
66266W        W34671  12.144   6.681   3.805
66267W        W34672  16.185   8.068  11.082
66268W        W34673  42.479   5.409  10.403
66269W        W34674   4.038  37.486  14.872
66270W        W34675   3.820  12.820  10.786
66271W        W34676  22.497   7.463   4.060
66272W        W34677  22.901   8.777   3.713
66273W        W34678  27.568   2.403  13.840
66274W        W34679  27.976  11.586   3.831
66275W        W34680   3.054  37.800  13.519
66276W        W34681  33.745   3.432   4.112
66277W        W34682  23.031  25.113   4.296
66278W        W34683  36.536   2.449   2.870
66279W        W34684   1.696   7.212  12.215
66280W        W34685  27.194  34.539   4.695
66281W        W34686  25.680  10.064  10.133
66282W        W34687  26.184  41.400  10.271
66283W        W34688  37.380  37.325   1.322
66284W        W34689  11.688  44.823  11.567
66285W        W34690  11.315  37.814   2.223
66286W        W34691  12.669  43.979   3.147
66287W        W34692  44.187  37.462  11.373
66288W        W34693  33.813   9.394   2.572
66289W        W34694  23.678   5.465  13.516
66290W        W34695  34.073  36.127   2.184
66291W        W34696  16.195   6.314  10.694
66292W        W34697   0.388   7.953   3.184
66293W        W34698  17.058   1.305   1.640
66294W        W34699  10.646   1.102  11.036
66295W        W34700  35.353   2.195  14.706
66296W        W34701   1.586  16.483  12.211
66297W        W34702  18.086  26.629   0.469
66298W        W34703  26.026   7.674   0.390
66299W        W34704  37.415   5.258   1.544
66300W        W34705  33.344   2.266  13.097
66301W        W34706  35.067   1.479  13.373
66302W        W34707  12.310  26.702  14.451
66303W        W34708  19.466   7.052  10.444
66304W        W34709  43.355  18.282   2.334
66305W        W34710   2.292  39.519  13.491
66306W        W34711  12.958  34.104  11.128
66307W        W34712  23.636  19.586   2.748
66308W        W34713  22.831  33.621  14.452
66309W        W34714  40.566  43.336   0.486
66310W        W34715   1.903  19.236  13.642
66311W        W34716   7.418  38.439   0.643
66312W        W34717  16.270   2.940   0.734
66313W        W34718  20.294  11.638  14.847
66314W        W34719   0.883  28.076  13.940
66315W        W34720  33.547   5.658   2.860
66316W        W34721  36.838  13.865   3.329
66317W        W34722   2.444  40.918   1.688
66318W        W34723  15.524  13.812   0.311
66319W        W34724  15.092  34.995   2.910
66320W        W34725  31.064   9.724   3.864
66321W        W34726  26.960  19.612  14.923
66322W        W34727  30.455  40.993  14.084
66323W        W34728  35.356   4.610  14.937
66324W        W34729  30.924  14.306   2.248
66325W        W34730   0.945   3.235   5.016
66326W        W34731  32.081  24.497   1.906
66327W        W34732  41.848   8.287   2.494
66328W        W34733  41.697  41.437   2.814
66329W        W34734  28.020  24.727  13.448
66330W        W34735  15.551  29.885  14.869
66331W        W34736  24.056  16.028   2.678
66332W        W34737  34.343  10.813   0.425
66333W        W34738  14.837   2.459  10.741
66334W        W34739  16.144   3.879   2.550
66335W        W34740  43.929  20.639   4.218
66336W        W34741   6.079  32.071   1.844
66337W        W34742   4.149  20.762  14.421
66338W        W34743  39.415  13.708  13.944
66339W        W34744  20.530  32.049  10.159
66340W        W34745   3.382  19.102  11.373
66341W        W34746  40.740  10.177   2.346
66342W        W34747  27.474  13.907  10.532
66343W        W34748  13.418  23.921  14.386
66344W        W34749   4.898  30.049   4.615
66345W        W34750  28.838  15.635   1.941
66346W        W34751  19.041  15.562   0.069
66347W        W34752  30.787   6.392   0.472
66348W        W34753  21.719  44.931   2.847
66349W        W34754  14.201  16.093  13.994
66350W        W34755  37.516   2.033   1.141
66351W        W34756  13.637  19.816  11.912
66352W        W34757  33.476  34.501   1.309
66353W        W34758   9.255   8.285   1.281
66354W        W34759  30.651  27.702  13.436
66355W        W34760  43.013   1.337  14.364
66356W        W34761  15.646  14.090   4.544
66357W        W34762  14.170   6.467  13.261
66358W        W34763  41.045  18.283  14.146
66359W        W34764  41.811  31.191   3.631
66360W        W34765  39.327   5.920  12.058
66361W        W34766  17.270   0.428   4.849
66362W        W34767  14.637  40.604   2.810
66363W        W34768  29.870  10.174   4.073
66364W        W34769  18.475  10.865   1.214
66365W        W34770  39.082  11.161  11.904
66366W        W34771  22.931  26.486   4.444
66367W        W34772  42.174  38.158  11.190
66368W        W34773  27.147  34.910  10.988
66369W        W34774  15.856  13.664  14.873
66370W        W34775  39.719  19.186  14.755
66371W        W34776  44.882  36.087  13.408
66372W        W34777  29.413   8.097  14.880
66373W        W34778  18.261  39.183   4.601
66374W        W34779  18.997  28.045   1.722
66375W        W34780  10.307  19.097   0.809
66376W        W34781  35.887  39.128   4.341
66377W        W34782  42.325  36.138  11.943
66378W        W34783  33.983  27.209   1.032
66379W        W34784  29.139  14.111  12.031
66380W        W34785  15.053  29.208  14.784
66381W        W34786  23.209  44.544   2.796
66382W        W34787  16.539   9.553  12.612
66383W        W34788  13.399  35.096   1.868
66384W        W34789  22.796  33.331   4.578
66385W        W34790  11.410  35.881   2.421
66386W        W34791   9.984  26.106  14.834
66387W        W34792  44.263  42.923   3.681
66388W        W34793  44.202  15.043   2.699
66389W        W34794  15.095   4.854   1.942
66390W        W34795  37.643  32.198   5.200
66391W        W34796  27.692  10.317  14.923
66392W        W34797  22.553  37.525   0.053
66393W        W34798  25.628  22.070  11.009
66394W        W34799  33.943   4.163  12.471
66395W        W34800   8.172  44.052  14.693
66396W        W34801  29.761  18.456   3.169
66397W        W34802  25.949  36.832   3.370
66398W        W34803   4.102   6.489  14.991
66399W        W34804  34.468  24.021   2.543
66400W        W34805  37.017  28.919   1.013
66401W        W34806  15.525  17.153   4.277
66402W        W34807  39.743  28.708  10.992
66403W        W34808  33.280   2.852   0.764
66404W        W34809  32.437   6.574  13.974
66405W        W34810  42.951  10.133   3.906
66406W        W34811  21.198   0.971   1.922
66407W        W34812  23.039   9.591   4.178
66408W        W34813  28.975  29.851   2.159
66409W        W34814   8.392  17.234  13.272
66410W        W34815  13.499  40.063   4.081
66411W        W34816  28.162  35.425   1.857
66412W        W34817  14.133   8.406  13.409
66413W        W34818  14.218   0.495  14.449
66414W        W34819   4.833   4.754  11.275
66415W        W34820  39.251   6.331   2.369
66416W        W34821  33.313  10.603   0.359
66417W        W34822  37.457   4.739   1.458
66418W        W34823  13.774   2.520   3.647
66419W        W34824  23.171  33.412   0.382
66420W        W34825  31.574  23.119   2.848
66421W        W34826  25.018  22.015   3.172
66422W        W34827  19.305  35.416   1.959
66423W        W34828   5.574  39.907   1.704
66424W        W34829   4.867  17.542  12.927
66425W        W34830  35.275  24.736  13.342
66426W        W34831  34.717  14.596  10.317
66427W        W34832   5.739   5.313   3.810
66428W        W34833  12.788  15.095   3.249
66429W        W34834   1.383  31.843   0.083
66430W        W34835  43.253   7.256   0.983
66431W        W34836  31.890  21.618  12.466
66432W        W34837  34.590  24.243   4.646
66433W        W34838  31.325   7.813   3.966
66434W        W34839  42.535   1.240  14.566
66435W        W34840   6.417  15.069  14.207
66436W        W34841  15.093  36.897  13.836
66437W        W34842  39.758  30.031   3.300
66438W        W34843  43.010  13.239   2.194
66439W        W34844   5.071  19.075   1.083
66440W        W34845  12.331  34.482   2.786
66441W        W34846  29.661  37.568  14.496
66442W        W34847   4.540  35.153  13.438
66443W        W34848   6.604  24.376   0.385
66444W        W34849   4.449  13.523   4.420
66445W        W34850  38.778  21.219  10.954
66446W        W34851  24.095  29.932  10.672
66447W        W34852   9.254  13.065   0.736
66448W        W34853  36.597  43.270  10.660
66449W        W34854  23.110  34.495  12.381
66450W        W34855  33.603  38.384   3.762
66451W        W34856   3.343  13.053  10.689
66452W        W34857  34.566  14.688  14.915
66453W        W34858  20.502  25.650  10.165
66454W        W34859  27.396   4.480   2.860
66455W        W34860  16.805  37.942  11.653
66456W        W34861   2.639  19.795  13.882
66457W        W34862  37.609  14.318   2.219
66458W        W34863   4.890  27.386   3.166
66459W        W34864   6.693  21.703   1.909
66460W        W34865  14.551  26.096  14.771
66461W        W34866  16.786  30.380  13.547
66462W        W34867  33.120  31.180   1.359
66463W        W34868   7.866  22.030   3.918
66464W        W34869  16.119   4.473  13.998
66465W        W34870  26.154  40.060   2.225
66466W        W34871   0.060  11.286   4.911
66467W        W34872  14.778  20.565  13.596
66468W        W34873  37.808  34.060   0.078
66469W        W34874  37.566   8.371   3.718
66470W        W34875   3.224  28.061   4.970
66471W        W34876  37.528  37.439  11.400
66472W        W34877   9.108  33.170  12.990
66473W        W34878  16.521   4.396   4.554
66474W        W34879  19.854  43.091  11.364
66475W        W34880  33.361  13.791   2.713
66476W        W34881  41.935  29.159  13.499
66477W        W34882  26.913  11.654   2.428
66478W        W34883  17.010  17.046   3.098
66479W        W34884  30.769  34.468  11.578
66480W        W34885  31.846  36.433  10.728
66481W        W34886   9.735  42.333   1.124
66482W        W34887  35.044  33.926   0.703
66483W        W34888  28.513  25.600   4.235
66484W        W34889  36.136  40.877   1.019
66485W        W34890  26.159  39.285  10.725
66486W        W34891  16.792  13.984  13.989
66487W        W34892  43.438  10.161  14.863
66488W        W34893  14.199  28.458  11.438
66489W        W34894  19.257   1.136   0.786
66490W        W34895  38.872  41.377   0.763
66491W        W34896  39.622  12.995   4.254
66492W        W34897  22.387  35.087   4.263
66493W        W34898  37.545  40.933   4.252
66494W        W34899  34.902  44.809   3.748
66495W        W34900  33.482  28.203   1.961
66496W        W34901  26.030  37.663   4.465
66497W        W34902  21.038   4.268   1.865
66498W        W34903   5.917   1.020   3.961
66499W        W34904  15.643  41.798  13.427
66500W        W34905  19.943  35.048   1.895
66501W        W34906  37.675  27.381   0.560
66502W        W34907  38.789   8.897  14.332
66503W        W34908  22.752   3.929  12.495
66504W        W34909  11.516  13.876   1.674
66505W        W34910   6.667   7.494   2.127
66506W        W34911   8.742  41.693  10.753
66507W        W34912  21.493  22.612  11.082
66508W        W34913  36.305  42.988  10.976
66509W        W34914  24.771  19.256  12.714
66510W        W34915  40.756  30.458   0.843
66511W        W34916  39.002   8.724   3.389
66512W        W34917  17.320  34.789  13.456
66513W        W34918  38.573   6.369   1.852
66514W        W34919  32.543  12.110  12.948
66515W        W34920  44.163  22.135  13.016
66516W        W34921  37.436   5.480   2.008
66517W        W34922  32.525  41.503  14.812
66518W        W34923   6.318  32.446  13.822
66519W        W34924  33.058  26.949  13.458
66520W        W34925  36.849  21.528  13.446
66521W        W34926  17.686   0.280  10.659
66522W        W34927  41.635  32.017   1.910
66523W        W34928  34.625   0.951   4.212
66524W        W34929   5.454  32.099   0.104
66525W        W34930  42.298  42.887  12.795
66526W        W34931  38.934  30.923  10.100
66527W        W34932  23.526  33.883  14.904
66528W        W34933  30.697  21.615   0.270
66529W        W34934  28.425  41.815   5.188
66530W        W34935  31.961  24.670   4.457
66531W        W34936  33.330  21.986   2.396
66532W        W34937  10.765  38.450  10.539
66533W        W34938  34.480  25.991   3.905
66534W        W34939  16.354  40.860  12.235
66535W        W34940   5.759   7.599   2.073
66536W        W34941   1.900  38.480   4.534
66537W        W34942  12.657  28.243  10.634
66538W        W34943   1.890   3.170  12.930
66539W        W34944   1.065  16.900   5.061
66540W        W34945  44.144   4.305  12.527
66541W        W34946  33.731   0.231  14.490
66542W        W34947  26.605  18.154  13.962
66543W        W34948  34.081   7.575  10.559
66544W        W34949   3.166  34.867  12.060
66545W        W34950  13.019  26.606   3.635
66546W        W34951   4.433  23.042  13.884
66547W        W34952  23.956  32.320   4.524
66548W        W34953  31.099  25.592  13.826
66549W        W34954  38.654  26.620   0.896
66550W        W34955  19.867   8.227   3.218
66551W        W34956   7.965  19.681  10.791
66552W        W34957   4.522  13.787  13.833
66553W        W34958  42.404  24.987   3.616
66554W        W34959   4.551  28.691  11.686
66555W        W34960  10.145  18.676  12.134
66556W        W34961  17.718  43.994  11.193
66557W        W34962   3.874  17.169   0.335
66558W        W34963  25.945  16.969   3.634
66559W        W34964  21.039  29.519  11.129
66560W        W34965  24.536  20.721  12.069
66561W        W34966  28.903  19.748  12.058
66562W        W34967  41.760   0.746  13.740
66563W        W34968  37.772  21.253  11.214
66564W        W34969  17.482  31.125   1.180
66565W        W34970  29.591  18.268  14.260
66566W        W34971   5.517  18.863   3.278
66567W        W34972  39.316  11.761  10.667
66568W        W34973  16.042  22.683   0.426
66569W        W34974  29.878  40.626   2.344
66570W        W34975  37.286   3.328   3.906
66571W        W34976  22.028  18.143  11.722
66572W        W34977  18.131   3.228  14.972
66573W        W34978  25.555  20.932   4.971
66574W        W34979  31.411  33.575  13.690
66575W        W34980  39.522  41.253  10.433
66576W        W34981   9.027   3.988   0.380
66577W        W34982   7.467  22.085   4.236
66578W        W34983  29.135   4.342  11.144
66579W        W34984  10.879   5.730  11.581
66580W        W34985  35.481   3.655  10.363
66581W        W34986  22.427   0.730   4.133
66582W        W34987  28.699  33.639   4.616
66583W        W34988  19.979   0.956  12.425
66584W        W34989  29.525   9.521   2.681
66585W        W34990   9.350  43.759   3.076
66586W        W34991  28.606  16.319   4.578
66587W        W34992   1.517  11.566   0.408
66588W        W34993  44.002  10.015   2.848
66589W        W34994   3.391  25.809  10.665
66590W        W34995  22.910   3.683   1.242
66591W        W34996  40.310  39.769   0.533
66592W        W34997  14.072  24.151   4.553
66593W        W34998  30.850  31.572   1.657
66594W        W34999  18.119  41.518  13.144
66595W        W35000  30.516  15.178   2.857
66596W        W35001  36.006  14.192  10.772
66597W        W35002   6.296   1.507  11.154
66598W        W35003   4.213  29.392  13.570
66599W        W35004   5.351  12.203  11.484
66600W        W35005  29.125  26.527  12.074
66601W        W35006  11.849  20.607   3.218
66602W        W35007  27.325  10.403   1.797
66603W        W35008  27.415   8.026   0.005
66604W        W35009  34.031   3.359  13.084
66605W        W35010  32.560  41.728   4.086
66606W        W35011   1.322  44.843   3.105
66607W        W35012  42.929  16.817  13.108
66608W        W35013  29.775  41.482   2.903
66609W        W35014  40.475  17.220   1.483
66610W        W35015   2.029  39.061  13.523
66611W        W35016  20.575   8.721   2.083
66612W        W35017  20.546  36.397   2.452
66613W        W35018  38.088   3.061  14.488
66614W        W35019  30.733  24.694  14.286
66615W        W35020  12.574   4.375  13.102
66616W        W35021  21.304  29.431  10.697
66617W        W35022  19.380  33.438  11.629
66618W        W35023  20.992  40.771  13.000
66619W        W35024  42.449  30.175  14.553
66620W        W35025  39.828  27.064  11.771
66621W        W35026  16.668   2.977   0.414
66622W        W35027  17.742  39.425  11.479
66623W        W35028  37.780  20.744  11.091
66624W        W35029   3.332  38.977  12.829
66625W        W35030  31.436  18.329   4.615
66626W        W35031  40.385  41.548   3.358
66627W        W35032   0.486  19.345   3.623
66628W        W35033  33.911  18.094   2.170
66629W        W35034  21.762  41.624   3.796
66630W        W35035  16.250  31.590  12.570
66631W        W35036  18.262  36.895   0.204
66632W        W35037  25.573  25.650   1.799
66633W        W35038   2.349   2.977  11.402
66634W        W35039   9.837  10.818   0.779
66635W        W35040  28.048  19.240  12.013
66636W        W35041   9.992  35.066  12.337
66637W        W35042   8.467  17.351  12.034
66638W        W35043  21.592   1.240   4.387
66639W        W35044  14.808  10.328   3.388
66640W        W35045   6.778  18.298  10.717
66641W        W35046   3.805  10.593   2.880
66642W        W35047  21.916  14.765   3.240
66643W        W35048  22.262   5.190  13.227
66644W        W35049  44.898  31.676  10.568
66645W        W35050  12.240  19.330  10.542
66646W        W35051  11.807  38.126  12.525
66647W        W35052  31.531   0.530  14.843
66648W        W35053  20.878  37.902   4.970
66649W        W35054  18.090  37.038  13.495
66650W        W35055  37.824  38.933   1.167
66651W        W35056  29.416  12.235   1.249
66652W        W35057  28.208   2.762  12.316
66653W        W35058  30.093   9.267   1.704
66654W        W35059  44.076  20.091  13.432
66655W        W35060  30.302  33.836   4.194
66656W        W35061  19.489  15.828   1.384
66657W        W35062  17.727   6.957   1.861
66658W        W35063  23.584  18.750  10.460
66659W        W35064  15.243  35.115   1.937
66660W        W35065   0.905   8.655   0.820
66661W        W35066   5.311  39.402   2.863
66662W        W35067  20.724  30.362   0.337
66663W        W35068  24.114  20.701   4.600
66664W        W35069  14.193   9.858  13.761
66665W        W35070  23.343   5.957  13.517
66666W        W35071   2.400  18.082  11.757
66667W        W35072   0.909  26.935  11.348
66668W        W35073   3.307  16.716   4.350
66669W        W35074   7.933  10.100   0.414
66670W        W35075  28.104  12.136  13.891
66671W        W35076  39.263   2.836   2.744
66672W        W35077  28.534  34.635   0.712
66673W        W35078  11.032  25.959   2.680
66674W        W35079  35.071  17.699  11.424
66675W        W35080   1.403   5.255   0.367
66676W        W35081  28.437  10.358  14.539
66677W        W35082  40.522  30.136   4.473
66678W        W35083  19.055  37.722  14.385
66679W        W35084  22.122  11.122   2.339
66680W        W35085  28.337  33.620  10.929
66681W        W35086  16.537  35.336  13.957
66682W        W35087  16.606  33.891  12.555
66683W        W35088  35.690  11.185  12.045
66684W        W35089  28.432   2.650   3.378
66685W        W35090  37.176   0.684  12.838
66686W        W35091  42.486   1.238  10.769
66687W        W35092  33.674  16.137  10.706
66688W        W35093  25.920   4.882   1.522
66689W        W35094  44.581  43.416  13.391
66690W        W35095  16.095   3.046   2.737
66691W        W35096   6.486  24.570  14.043
66692W        W35097   3.663   4.309  11.146
66693W        W35098  41.826   0.272  13.546
66694W        W35099  21.336  33.144   0.371
66695W        W35100  37.974  32.781  13.326
66696W        W35101  29.763  23.754  13.324
66697W        W35102   8.586  34.209   1.394
66698W        W35103  25.546  11.330  14.921
66699W        W35104  25.936  13.411  12.208
66700W        W35105  21.817  43.982  14.031
66701W        W35106  10.927  35.086  11.852
66702W        W35107   3.738  24.825  12.995
66703W        W35108  37.805  31.909  14.835
66704W        W35109  11.707  25.127   2.634
66705W        W35110  33.942  35.123  11.111
66706W        W35111  42.532  21.573  13.415
66707W        W35112  12.418  32.967   0.814
66708W        W35113  42.343   2.915  11.640
66709W        W35114  14.773  18.669   3.682
66710W        W35115  25.959   1.248  11.953
66711W        W35116  12.802  19.244  12.470
66712W        W35117  17.073  12.829  11.146
66713W        W35118  33.903   1.787   2.592
66714W        W35119  38.680  38.874   4.750
66715W        W35120   5.851  28.255   1.392
66716W        W35121   7.250  35.455   3.270
66717W        W35122   4.075  35.915   4.287
66718W        W35123  38.812  25.467  12.049
66719W        W35124   5.006  15.040  11.753
66720W        W35125  33.647  12.417   2.266
66721W        W35126  39.982  14.078   0.782
66722W        W35127  12.988  24.207  14.532
66723W        W35128   4.286  16.150   0.667
66724W        W35129  30.239  37.500   0.342
66725W        W35130  35.586  38.398  14.462
66726W        W35131  13.113   7.610  14.825
66727W        W35132  15.652  32.224  12.501
66728W        W35133  14.245  21.221  11.448
66729W        W35134  16.721  40.084   2.778
66730W        W35135  30.182  34.867  13.642
66731W        W35136  24.714  29.584   2.854
66732W        W35137  43.285  39.397   4.255
66733W        W35138   5.675  28.457   1.829
66734W        W35139  27.934  26.407   3.906
66735W        W35140  26.550   2.005  14.537
66736W        W35141  34.180  13.863   2.394
66737W        W35142  22.546  15.687   0.010
66738W        W35143  22.973   1.486   1.647
66739W        W35144  28.598   9.923  10.969
66740W        W35145   8.772  35.224  11.686
66741W        W35146   5.192   4.853   3.417
66742W        W35147  14.528  10.205  10.998
66743W        W35148  30.158  40.238   0.567
66744W        W35149   7.894   1.796  11.966
66745W        W35150  21.100  14.655  14.981
66746W        W35151  40.746  13.778  11.632
66747W        W35152  29.111  27.676   3.225
66748W        W35153  27.938  35.150  11.974
66749W        W35154   6.741  14.780   0.505
66750W        W35155   4.590  37.383   0.027
66751W        W35156  23.743  11.692  14.114
66752W        W35157  16.526   5.954  10.590
66753W        W35158   5.362   6.245   2.356
66754W        W35159  16.167  41.255   1.361
66755W        W35160   7.910  24.715  12.626
66756W        W35161  22.396  21.177  10.041
66757W        W35162  15.810  27.931  10.769
66758W        W35163  44.926  24.398   3.300
66759W        W35164  10.951   9.095  13.969
66760W        W35165  38.471  19.954   2.662
66761W        W35166  35.098  31.631  11.171
66762W        W35167  29.177  42.488  12.688
66763W        W35168  35.548  26.122   1.081
66764W        W35169  38.426  24.152  13.359
66765W        W35170  15.284  12.663  14.805
66766W        W35171  21.105  30.574   2.682
66767W        W35172  40.798  44.585  12.582
66768W        W35173  31.320  39.376  12.391
66769W        W35174  10.729  14.031   3.755
66770W        W35175  34.454   6.463   4.505
66771W        W35176  37.908  29.441   2.355
66772W        W35177   2.969  14.205   4.053
66773W        W35178  27.481   6.487   3.813
66774W        W35179  28.351  34.531  10.487
66775W        W35180  40.137  40.742   3.232
66776W        W35181  12.120  43.431   1.752
66777W        W35182  32.104  30.439  10.190
66778W        W35183   5.328   5.151   0.813
66779W        W35184   4.495  28.479  12.175
66780W        W35185  31.400   5.087  14.716
66781W        W35186  16.853   4.769   0.493
66782W        W35187   9.031   8.242   2.257
66783W        W35188  16.687  32.927   4.116
66784W        W35189  13.318  42.735   3.724
66785W        W35190  42.984  13.183  11.446
66786W        W35191  10.826  29.191  11.832
66787W        W35192  28.559  25.901  10.578
66788W        W35193  42.877  37.861  13.780
66789W        W35194  44.790   3.741   3.300
66790W        W35195  27.177  27.121  14.352
66791W        W35196  39.364  30.771  14.854
66792W        W35197  35.398  37.171  12.440
66793W        W35198  41.523  24.032   4.648
66794W        W35199  44.487  23.457  13.419
66795W        W35200   1.691   5.105  12.537
66796W        W35201  33.121  25.993   3.823
66797W        W35202  20.163  26.310  13.826
66798W        W35203  35.423  11.374   0.446
66799W        W35204   2.360   9.686  10.668
66800W        W35205  34.954  10.914  12.863
66801W        W35206  26.705  27.568  11.567
66802W        W35207  37.622  28.152   1.462
66803W        W35208  36.973   4.744   1.236
66804W        W35209  18.123  44.623  14.498
66805W        W35210   9.394  13.422   3.327
66806W        W35211  16.391  39.063   4.109
66807W        W35212  14.558  33.380   2.737
66808W        W35213   3.981  24.902  13.435
66809W        W35214  18.202   6.330  14.574
66810W        W35215  21.561  17.315  12.862
66811W        W35216   3.425  13.478   4.530
66812W        W35217  33.030  21.247   4.693
66813W        W35218  29.557  23.260   3.770
66814W        W35219  43.806  43.340   1.315
66815W        W35220  42.939  28.160  12.995
66816W        W35221  43.924  30.959   4.090
66817W        W35222  35.876  43.251  11.989
66818W        W35223  23.732  13.747  11.000
66819W        W35224  12.611  21.079  10.557
66820W        W35225  26.154  35.636   3.995
66821W        W35226  11.823  30.206   3.248
66822W        W35227  41.838  38.268   2.928
66823W        W35228  28.089  15.288  12.115
66824W        W35229  39.437  36.168  14.413
66825W        W35230  19.481  30.854   1.859
66826W        W35231  35.017   4.297   2.772
66827W        W35232  38.068  40.107   1.844
66828W        W35233  34.589   3.252   1.367
66829W        W35234  39.708  44.229   4.162
66830W        W35235  40.950  32.617   1.020
66831W        W35236  17.346  37.156   3.243
66832W        W35237  44.529  18.420   2.149
66833W        W35238  33.384  36.426  12.090
66834W        W35239  30.508  40.031   0.944
66835W        W35240   9.259  33.249   2.746
66836W        W35241   4.439  25.908   4.292
66837W        W35242   5.768  10.835  10.770
66838W        W35243  21.256  34.927  12.549
66839W        W35244  21.975  12.015   0.188
66840W        W35245  24.719  31.928   3.356
66841W        W35246  33.096  40.245  14.388
66842W        W35247   8.267  15.581  13.095
66843W        W35248  15.697   6.251   0.389
66844W        W35249  22.920   3.392  12.651
66845W        W35250  26.018  18.155  11.515
66846W        W35251  36.389  23.112  12.100
66847W        W35252   7.824  16.284  14.866
66848W        W35253   1.426  15.125  12.984
66849W        W35254  27.941  14.651   0.384
66850W        W35255  16.367  43.543  13.812
66851W        W35256  26.448   2.847  11.232
66852W        W35257   1.855  36.137  13.889
66853W        W35258   9.353  42.404  12.610
66854W        W35259   6.362  43.241  11.388
66855W        W35260  17.084  11.661  13.906
66856W        W35261  30.196  25.523  14.251
66857W        W35262  18.241  25.438  14.959
66858W        W35263  11.301  17.919   1.438
66859W        W35264  32.592  21.114  11.429
66860W        W35265  30.971  44.679  13.445
66861W        W35266  14.618  18.688   1.714
66862W        W35267   3.722   0.305  11.026
66863W        W35268  24.147   4.174  14.768
66864W        W35269  20.820   8.010  14.719
66865W        W35270  42.837   4.464   3.785
66866W        W35271  30.886  17.097   1.126
66867W        W35272   9.491   8.975  13.452
66868W        W35273  11.618   1.914   5.065
66869W        W35274  43.478  39.536  13.521
66870W        W35275   8.296  35.810   1.013
66871W        W35276  37.480   5.733  10.509
66872W        W35277  10.858  20.235   0.306
66873W        W35278   6.253  44.018   0.818
66874W        W35279   2.466   5.246   4.611
66875W        W35280   1.351   0.980  10.715
66876W        W35281  36.089   9.221   3.090
66877W        W35282   9.607  22.284   2.747
66878W        W35283  30.644  43.920  14.356
66879W        W35284   1.352  38.632  13.147
66880W        W35285  23.760  11.272  14.931
66881W        W35286  32.186   2.955  12.947
66882W        W35287  19.994  18.048  11.941
66883W        W35288  35.049  28.567   3.165
66884W        W35289  38.356  40.956   4.785
66885W        W35290  25.068  21.161  10.214
66886W        W35291  41.021   8.842  12.896
66887W        W35292  23.059  17.154  11.550
66888W        W35293  32.146   6.033  13.289
66889W        W35294  26.249  38.597  11.562
66890W        W35295  26.993  30.586   3.139
66891W        W35296  14.105  34.467  13.409
66892W        W35297   0.327   9.651   2.208
66893W        W35298  27.116  34.398  13.475
66894W        W35299  35.411  44.310   1.160
66895W        W35300  12.847  26.136   4.750
66896W        W35301  23.430  20.601  11.150
66897W        W35302   3.524  40.241  14.789
66898W        W35303  32.226  12.234   2.440
66899W        W35304  25.122  39.396  11.226
66900W        W35305  29.967   3.248  11.395
66901W        W35306  31.119  22.075  14.577
66902W        W35307  18.913  25.134  10.331
66903W        W35308  23.527   2.409   3.124
66904W        W35309  30.156   9.962  11.222
66905W        W35310  15.683  13.275  10.886
66906W        W35311  27.878  42.043  10.213
66907W        W35312   4.194   5.869  13.822
66908W        W35313  29.514   1.803  11.545
66909W        W35314  11.821   2.655  10.661
66910W        W35315  23.168  26.322  10.132
66911W        W35316  10.209  34.652   1.238
66912W        W35317  13.317  28.378  11.879
66913W        W35318  38.727   8.897   4.908
66914W        W35319  12.867  20.689   4.740
66915W        W35320  24.675  21.182   2.137
66916W        W35321  16.088  22.698  12.744
66917W        W35322  10.895  17.658   3.983
66918W        W35323  41.328  23.467  12.984
66919W        W35324  35.408   0.757   2.756
66920W        W35325  33.003   2.130   3.717
66921W        W35326  30.821  17.562   0.904
66922W        W35327   2.868  24.813   0.946
66923W        W35328  34.310  12.301  13.089
66924W        W35329  27.796  32.969   3.763
66925W        W35330  13.740  16.583   4.145
66926W        W35331  16.344  43.235  13.398
66927W        W35332   7.737  23.730  14.545
66928W        W35333  40.850   9.168  12.102
66929W        W35334  18.624  13.882  14.832
66930W        W35335  13.309  23.745   4.003
66931W        W35336  13.765  33.349   0.341
66932W        W35337   7.126   1.570   3.213
66933W        W35338  12.806   4.527   1.256
66934W        W35339  35.404  44.587   0.130
66935W        W35340  32.073   7.278  14.542
66936W        W35341   6.399  36.079   3.641
66937W        W35342  20.622  20.797   1.399
66938W        W35343  44.190   0.972  11.261
66939W        W35344  32.264  11.342   4.930
66940W        W35345   0.527   8.984   0.962
66941W        W35346   1.457   3.266   0.508
66942W        W35347  34.980   3.305   4.568
66943W        W35348  43.339   1.882   1.294
66944W        W35349   5.720  12.932   2.280
66945W        W35350  34.087  33.600   2.323
66946W        W35351  41.405  15.811   2.778
66947W        W35352   5.213  30.448   0.803
66948W        W35353  11.325  10.447  11.338
66949W        W35354  35.621  40.419  12.450
66950W        W35355  40.433  40.872   2.014
66951W        W35356  30.128  19.675  11.661
66952W        W35357  31.371  33.370  12.752
66953W        W35358  32.621   0.638   2.871
66954W        W35359  35.938  17.518  11.572
66955W        W35360   7.501  14.091   2.647
66956W        W35361  33.059  25.785  12.163
66957W        W35362  31.776  28.391   3.195
66958W        W35363  42.918  24.233  10.635
66959W        W35364  15.034  31.154  14.734
66960W        W35365  39.458  27.039  13.046
66961W        W35366  41.837  41.414  13.822
66962W        W35367   7.359  11.354  12.347
66963W        W35368  23.875  37.329   3.620
66964W        W35369  27.074  40.461   0.695
66965W        W35370  13.414  33.056   1.827
66966W        W35371   3.751   5.747  14.602
66967W        W35372   5.718  16.747   2.328
66968W        W35373  41.453  43.516  13.398
66969W        W35374  11.907  44.799   1.755
66970W        W35375  18.284  10.926   4.596
66971W        W35376  27.013  11.718   1.435
66972W        W35377  18.908  30.194  12.568
66973W        W35378  27.484  11.248  13.856
66974W        W35379  44.509  34.601  14.659
66975W        W35380   1.310  28.646  11.066
66976W        W35381  21.336  15.609  13.330
66977W        W35382  19.237  11.794  12.962
66978W        W35383   0.469   8.481   3.191
66979W        W35384  12.752  11.802  11.212
66980W        W35385   3.483  33.567   1.317
66981W        W35386  37.890  25.493  14.561
66982W        W35387  29.674  26.964   4.306
66983W        W35388  26.078   8.174   4.680
66984W        W35389   2.997   2.369   3.276
66985W        W35390  25.206  21.705   1.828
66986W        W35391  22.506  43.871  13.046
66987W        W35392   9.833  37.370  13.945
66988W        W35393  21.461  34.136   4.259
66989W        W35394  26.717   5.702   2.437
66990W        W35395  39.587   3.273   2.740
66991W        W35396  39.478   0.532   1.722
66992W        W35397  23.628  18.486  11.520
66993W        W35398  38.861  13.595  12.325
66994W        W35399  25.554  29.011  12.377
66995W        W35400  33.710  17.114   3.545
66996W        W35401  32.003  44.885   0.021
66997W        W35402  16.090  34.726   2.144
66998W        W35403  21.629  14.182   1.704
66999W        W35404   7.773  31.541   5.045
67000W        W35405  13.439   3.452   1.369
67001W        W35406  16.267  40.255   1.284
67002W        W35407  21.789  17.874   1.277
67003W        W35408  28.850   4.290   3.202
67004W        W35409   7.218  30.225  14.519
67005W        W35410  10.545  10.841   2.389
67006W        W35411  10.166  20.711   4.099
67007W        W35412  24.763  15.621  14.792
67008W        W35413  21.171   6.969   2.216
67009W        W35414   4.709  36.555   2.789
67010W        W35415  19.350  36.913   1.234
67011W        W35416  13.416  36.078   2.633
67012W        W35417  19.175  40.000   1.267
67013W        W35418  29.095   8.314  14.525
67014W        W35419  31.075  23.954   3.771
67015W        W35420  21.059  13.365   4.680
67016W        W35421   2.020  34.270  14.935
67017W        W35422   2.884  29.079   0.727
67018W        W35423  33.057   7.756  11.338
67019W        W35424  25.184  31.124  11.642
67020W        W35425   2.492  10.788  13.185
67021W        W35426  43.943  40.542  11.169
67022W        W35427  37.615   2.202  13.075
67023W        W35428  44.449  26.906  12.930
67024W        W35429   7.619  15.328   2.361
67025W        W35430  38.692  43.523  11.668
67026W        W35431  31.425   5.747   2.718
67027W        W35432  17.344   4.929   2.158
67028W        W35433  28.398  28.003  11.546
67029W        W35434  20.456  10.681   1.341
67030W        W35435  42.533  44.367   2.963
67031W        W35436  22.476  17.440   0.323
67032W        W35437  43.466  16.515  12.832
67033W        W35438  26.458  18.118   1.814
67034W        W35439  41.001  14.582   4.184
67035W        W35440  44.869  33.555  12.136
67036W        W35441  11.482  15.959   3.443
67037W        W35442  12.258  32.885  14.833
67038W        W35443  32.869  42.489  13.555
67039W        W35444  14.606  37.407  13.595
67040W        W35445   7.421  38.962   3.227
67041W        W35446   1.236  39.477  13.436
67042W        W35447  23.660  21.141  12.377
67043W        W35448  44.283   3.334  12.614
67044W        W35449  34.843  31.577   3.252
67045W        W35450  15.660  15.442  11.385
67046W        W35451  21.685   8.657  13.461
67047W        W35452  17.241  20.197   0.347
67048W        W35453  29.629   0.824  10.716
67049W        W35454  20.147  32.433  12.555
67050W        W35455   4.676   6.972  11.488
67051W        W35456   1.295  35.084   4.036
67052W        W35457  20.731   1.478   4.730
67053W        W35458  38.025  30.179   0.770
67054W        W35459  36.735  41.572   1.019
67055W        W35460  39.309   6.714   3.695
67056W        W35461   4.193  19.328  14.491
67057W        W35462   3.329  10.916   3.604
67058W        W35463  41.020  35.170   2.551
67059W        W35464  34.056  13.739  14.901
67060W        W35465   1.138   9.109   0.712
67061W        W35466  43.798  22.320  13.813
67062W        W35467  25.740  41.023   1.346
67063W        W35468  27.813   0.025  13.397
67064W        W35469  24.417  21.988   3.261
67065W        W35470  33.576  35.741  10.345
67066W        W35471  28.599  33.468  14.428
67067W        W35472  15.621  23.245   5.124
67068W        W35473  43.367  39.037  11.553
67069W        W35474  15.622  36.002   2.650
67070W        W35475  15.444  12.395  14.377
67071W        W35476  25.991  23.548   3.743
67072W        W35477  20.344  26.565  14.240
67073W        W35478   1.403  36.738  14.630
67074W        W35479  24.543   2.135  13.401
67075W        W35480  16.982  40.952   0.957
67076W        W35481  37.804   1.844  12.362
67077W        W35482  37.990  36.889  13.669
67078W        W35483  30.174  34.920   1.354
67079W        W35484  11.267  28.251  14.510
67080W        W35485  14.149   9.411  12.557
67081W        W35486  18.690  42.517   4.536
67082W        W35487  38.130  14.681   2.538
67083W        W35488  41.275  38.369  14.880
67084W        W35489  36.224  34.857  12.644
67085W        W35490   2.669  33.446  13.462
67086W        W35491  13.742  39.804   3.121
67087W        W35492  23.976  32.603   0.808
67088W        W35493  18.579  44.912  13.057
67089W        W35494  34.253   1.474  11.526
67090W        W35495  24.668  23.481   3.241
67091W        W35496   2.188  25.107   0.488
67092W        W35497   7.585   9.355   2.738
67093W        W35498   6.921  40.491  10.994
67094W        W35499   7.092  32.526   4.183
67095W        W35500  11.531  26.607   3.874
67096W        W35501  39.868   4.309  11.552
67097W        W35502   1.945  24.194   0.337
67098W        W35503  42.066   9.748   4.739
67099W        W35504  33.338  41.750  14.959
67100W        W35505  26.013  11.142   2.132
67101W        W35506   9.962  42.331  13.453
67102W        W35507  34.486  37.430   3.509
67103W        W35508  14.149   6.039   4.348
67104W        W35509  12.101   4.450  11.937
67105W        W35510  10.610  10.702  10.736
67106W        W35511   6.914  21.628  12.476
67107W        W35512  40.297  38.057   4.764
67108W        W35513   1.950  16.092  12.131
67109W        W35514  21.757  18.764   1.130
67110W        W35515  20.511  38.411   2.877
67111W        W35516  36.223  28.510  10.996
67112W        W35517  28.887  14.871   0.515
67113W        W35518  32.863  29.898   0.780
67114W        W35519   9.124   3.487   0.363
67115W        W35520  31.977  32.859   1.860
67116W        W35521   3.638   9.186   1.269
67117W        W35522  38.209  26.449  14.911
67118W        W35523  37.359   4.965  12.949
67119W        W35524   1.192  39.865   3.969
67120W        W35525   0.385  44.250   1.730
67121W        W35526  30.459  32.727  11.748
67122W        W35527  20.650  22.971  11.711
67123W        W35528   6.779  39.827   3.800
67124W        W35529  33.603  38.380   3.068
67125W        W35530  40.448  13.246   3.410
67126W        W35531  38.659  43.486   1.314
67127W        W35532  36.861  26.561   0.252
67128W        W35533  17.751  27.723   1.939
67129W        W35534  21.191   6.363   0.969
67130W        W35535  16.202   7.151  10.093
67131W        W35536  26.723   8.773   1.319
67132W        W35537  19.607   2.057   3.918
67133W        W35538   6.107  36.828  12.739
67134W        W35539  10.274  32.182   0.209
67135W        W35540  39.398  21.590  10.387
67136W        W35541  22.739  42.981  11.674
67137W        W35542  34.469  14.699   2.431
67138W        W35543  44.867  30.452   0.225
67139W        W35544  27.402  40.904   2.201
67140W        W35545   4.372  23.175   3.195
67141W        W35546   1.066  24.634   2.776
67142W        W35547  25.633  19.627   4.108
67143W        W35548   7.372  43.180   0.374
67144W        W35549  42.867  42.835   1.261
67145W        W35550  41.828  26.449   1.430
67146W        W35551   3.231  17.904  12.520
67147W        W35552   2.267  31.597   4.653
67148W        W35553  21.533  10.948  14.339
67149W        W35554   6.857  12.826  10.664
67150W        W35555  29.661  18.117   0.760
67151W        W35556  31.541  30.423   4.405
67152W        W35557  34.273   1.935   2.966
67153W        W35558  36.355  17.098  13.796
67154W        W35559   0.772  20.913  13.717
67155W        W35560  34.947  42.160  12.088
67156W        W35561  44.389  10.405   3.098
67157W        W35562  27.025  42.756  14.496
67158W        W35563  37.563  13.136  11.978
67159W        W35564  16.707  37.577   0.737
67160W        W35565  40.557  16.265   0.733
67161W        W35566  41.557  42.898   3.641
67162W        W35567  28.231  22.723   1.168
67163W        W35568  44.908   2.312   3.045
67164W        W35569  33.706  34.565   4.765
67165W        W35570  28.487  42.723  11.743
67166W        W35571  40.796   2.572   4.514
67167W        W35572  39.462  11.102   4.533
67168W        W35573  25.973   9.802   2.397
67169W        W35574  34.093  12.832  12.916
67170W        W35575  30.728  27.903  14.993
67171W        W35576   4.745  41.283  10.676
67172W        W35577  22.857  37.345   3.455
67173W        W35578   5.792  33.637  12.157
67174W        W35579  34.415   1.393   3.329
67175W        W35580  10.858  20.534  11.166
67176W        W35581  11.835   0.006  13.305
67177W        W35582   7.342   0.540  13.382
67178W        W35583  13.855  27.384   2.050
67179W        W35584   6.826   1.759   0.751
67180W        W35585  22.934   5.627  10.549
67181W        W35586  24.136   9.327  13.423
67182W        W35587  23.019  15.749  13.208
67183W        W35588  19.633  42.089  11.510
67184W        W35589  17.279  22.117   3.161
67185W        W35590  41.482  24.653  14.388
67186W        W35591   4.384  21.600   1.216
67187W        W35592  16.382  35.991  13.351
67188W        W35593  25.206  24.224   3.143
67189W        W35594  17.215  10.178   4.336
67190W        W35595  17.488  31.400  13.011
67191W        W35596  13.861  37.390  12.892
67192W        W35597  18.148   0.261  13.685
67193W        W35598  37.885  21.477   1.893
67194W        W35599  36.347   5.148   2.733
67195W        W35600  28.119  35.341  14.453
67196W        W35601  14.417  17.338   9.990
67197W        W35602  27.437   1.719   1.375
67198W        W35603  29.123  29.512   4.136
67199W        W35604  32.230  35.916   2.803
67200W        W35605  20.133   4.426   2.862
67201W        W35606  27.307  31.508  14.230
67202W        W35607  21.756  12.288  11.723
67203W        W35608   1.996  34.983  10.615
67204W        W35609  11.617  35.950   2.889
67205W        W35610   3.233  11.105   0.379
67206W        W35611  14.534  22.285   2.837
67207W        W35612  17.714   3.874   1.829
67208W        W35613  20.653  29.499   3.231
67209W        W35614  34.084  33.564  13.009
67210W        W35615  36.597  39.832  10.473
67211W        W35616  35.574  31.994  13.852
67212W        W35617   6.230  32.010  13.561
67213W        W35618  26.066  44.156  11.114
67214W        W35619   5.768  27.141   3.411
67215W        W35620  10.936  31.040   0.947
67216W        W35621  16.890  28.461  12.158
67217W        W35622  15.262   0.762  10.310
67218W        W35623  10.754  39.586  14.444
67219W        W35624   4.726  15.574  14.487
67220W        W35625  28.997  10.676   3.741
67221W        W35626  40.884  13.872  14.767
67222W        W35627  15.323  42.244   2.145
67223W        W35628  26.229  38.875  12.619
67224W        W35629  38.556   1.750   1.967
67225W        W35630  44.494  27.199   0.839
67226W        W35631  27.631   7.590  14.845
67227W        W35632  36.752  14.318  12.006
67228W        W35633  44.365  25.585  10.606
67229W        W35634  28.153  20.972   4.530
67230W        W35635   8.992   6.331   2.574
67231W        W35636   5.297  29.361   4.837
67232W        W35637  31.994   1.609  14.205
67233W        W35638   4.807  14.889   1.144
67234W        W35639  41.390  14.469   4.515
67235W        W35640  11.334  44.491  12.856
67236W        W35641  20.554  15.228  13.566
67237W        W35642  38.010  14.635  13.429
67238W        W35643  40.781   8.542   3.962
67239W        W35644  37.821  21.197  12.070
67240W        W35645  20.713   4.957  11.422
67241W        W35646  26.425  17.367  14.471
67242W        W35647  10.806  10.973   4.494
67243W        W35648  39.128  27.420   4.060
67244W        W35649   3.118   8.152   2.763
67245W        W35650  21.506  22.323  10.236
67246W        W35651  24.979  14.582   2.226
67247W        W35652   7.990  16.176   2.868
67248W        W35653  22.964   2.115  10.746
67249W        W35654  31.194  18.159   3.311
67250W        W35655  18.277   1.661   3.045
67251W        W35656  36.539  18.724  11.053
67252W        W35657  28.428  30.528  13.846
67253W        W35658  42.703   3.925  14.383
67254W        W35659  29.258  36.007  11.324
67255W        W35660  13.700  11.886  13.832
67256W        W35661  35.359  34.635  12.615
67257W        W35662  10.907  20.787  10.405
67258W        W35663   4.495  23.551  11.921
67259W        W35664  38.051  16.140   1.666
67260W        W35665  14.308   1.022   2.358
67261W        W35666  32.494   1.836  14.893
67262W        W35667  30.135  23.183   4.292
67263W        W35668  43.822  31.579  13.918
67264W        W35669   5.768  29.941  11.736
67265W        W35670  44.823  41.728  13.905
67266W        W35671  17.255  25.589   1.426
67267W        W35672  14.170  43.038  14.085
67268W        W35673  17.264  39.489  12.324
67269W        W35674  41.819  42.719   3.254
67270W        W35675  26.050  39.112   2.234
67271W        W35676  17.859  16.814  12.870
67272W        W35677   9.111  27.579   2.662
67273W        W35678  31.984   0.368   4.738
67274W        W35679   6.863  20.570  13.608
67275W        W35680  10.844   3.035  14.218
67276W        W35681   1.997  34.499  10.800
67277W        W35682  19.114   6.005   2.374
67278W        W35683  34.190   7.394   4.637
67279W        W35684   0.509  13.261  12.856
67280W        W35685   9.876  25.675   3.301
67281W        W35686  32.002  34.477   1.845
67282W        W35687   9.405  10.253   1.502
67283W        W35688  11.311   1.934  11.232
67284W        W35689  16.565  36.026  12.628
67285W        W35690  37.084  41.097   2.330
67286W        W35691  27.416   6.889   2.919
67287W        W35692  23.009   6.845  12.033
67288W        W35693  23.030  31.645   3.646
67289W        W35694  13.535  26.662   3.734
67290W        W35695   6.928  16.754  11.038
67291W        W35696  22.439   7.798  13.630
67292W        W35697  44.441  17.417   2.196
67293W        W35698  43.797  32.924   1.666
67294W        W35699  41.393   4.321  13.361
67295W        W35700  23.013  35.968   3.289
67296W        W35701  24.648   0.845  13.031
67297W        W35702  35.883  27.553   4.703
67298W        W35703  13.501  12.380   4.025
67299W        W35704  13.450   1.758  11.166
67300W        W35705  23.899  36.496   4.550
67301W        W35706  31.159   8.739   4.264
67302W        W35707   8.911  23.206  13.413
67303W        W35708  41.718  43.707   0.919
67304W        W35709  11.853  28.536  13.643
67305W        W35710  21.713  27.084   1.878
67306W        W35711  23.764  32.198  14.925
67307W        W35712  27.215  28.107  14.391
67308W        W35713  38.577   0.460   0.264
67309W        W35714   9.570  18.618   9.801
67310W        W35715  24.992   7.138   2.448
67311W        W35716   4.524   9.260   5.020
67312W        W35717  39.103   5.053  12.491
67313W        W35718  35.582   5.699   2.851
67314W        W35719  35.968  37.530   1.845
67315W        W35720   3.430  38.943  11.526
67316W        W35721  14.808   3.376  12.975
67317W        W35722  44.058  20.133  12.062
67318W        W35723  18.336   5.435  11.482
67319W        W35724  16.003   1.015   5.525
67320W        W35725  13.340   3.872   3.175
67321W        W35726  31.582  40.863   1.680
67322W        W35727   1.846  10.685   2.663
67323W        W35728  14.901   4.399   2.027
67324W        W35729  13.775  42.411   1.206
67325W        W35730  21.134  36.161   3.191
67326W        W35731  18.927  39.748  13.312
67327W        W35732  27.740   8.366  11.493
67328W        W35733  39.026   1.983   4.580
67329W        W35734  12.098  20.568   4.479
67330W        W35735  32.840  16.550   1.918
67331W        W35736  15.521  37.041  14.083
67332W        W35737  38.638   2.236  11.984
67333W        W35738   1.419  25.355   0.921
67334W        W35739  18.226  38.699   4.812
67335W        W35740  33.162   1.315   4.761
67336W        W35741  27.708  23.633  12.891
67337W        W35742  40.014  22.192   1.260
67338W        W35743  39.878  17.210  10.945
67339W        W35744  36.422  12.516  10.164
67340W        W35745  35.012  26.949   0.296
67341W        W35746   7.933  41.836   0.854
67342W        W35747  15.405  41.423  11.120
67343W        W35748  20.094  22.234  13.030
67344W        W35749  43.040  19.129  13.325
67345W        W35750  34.282  38.411   4.148
67346W        W35751  26.116  11.174  13.556
67347W        W35752  14.164   6.217  10.872
67348W        W35753  23.431   6.979  12.883
67349W        W35754  27.952  21.252  11.921
67350W        W35755  11.669  23.028  11.989
67351W        W35756  33.523  15.749  11.516
67352W        W35757  40.850  42.919  13.889
67353W        W35758  22.235  43.791  11.532
67354W        W35759   2.346   8.784  13.522
67355W        W35760  43.891  36.034  13.549
67356W        W35761   4.635   9.916  13.828
67357W        W35762  24.206  13.672   2.327
67358W        W35763  33.636   9.003   2.249
67359W        W35764  28.427  35.692   1.119
67360W        W35765  14.254  17.217  13.155
67361W        W35766  35.306  37.997  14.312
67362W        W35767  33.516  31.536   2.485
67363W        W35768  19.094   8.372   0.058
67364W        W35769  34.561  31.627   0.386
67365W        W35770  33.955  44.947  13.141
67366W        W35771  11.822  10.735  12.096
67367W        W35772  37.912  31.411  11.534
67368W        W35773  35.372   6.309   4.854
67369W        W35774  20.997  20.481  12.012
67370W        W35775  10.446   8.780   9.873
67371W        W35776   6.634  40.407  13.327
67372W        W35777  26.069  42.664   3.785
67373W        W35778   2.803  10.655  11.994
67374W        W35779  32.938  19.208  11.648
67375W        W35780  42.177  13.638   0.203
67376W        W35781  15.750   6.316  14.338
67377W        W35782  25.216   0.747  12.057
67378W        W35783  41.730   7.700  11.824
67379W        W35784   2.447   6.636  11.139
67380W        W35785  11.318  27.594   3.585
67381W        W35786  19.132  40.239   1.767
67382W        W35787  35.969  37.468  13.442
67383W        W35788   8.970  33.958   4.951
67384W        W35789  34.812  44.830   1.342
67385W        W35790  33.076  31.078   3.355
67386W        W35791   6.695  17.154   1.270
67387W        W35792   1.455  43.859  13.529
67388W        W35793  38.212  43.161   3.149
67389W        W35794  17.775  15.804   1.017
67390W        W35795  17.776   1.220  13.935
67391W        W35796  35.996  37.905   0.425
67392W        W35797   0.939   1.525  12.434
67393W        W35798   4.658   9.109  10.552
67394W        W35799  30.279  21.014  14.064
67395W        W35800  26.460  14.051   2.620
67396W        W35801  21.578  28.224   2.772
67397W        W35802  40.069   5.315   4.561
67398W        W35803  18.651  10.889  11.503
67399W        W35804   9.286  27.159  13.875
67400W        W35805  44.007  33.798  11.222
67401W        W35806   1.381   8.947   2.882
67402W        W35807  12.928  10.879   3.694
67403W        W35808  42.568   1.264  14.033
67404W        W35809  43.114  27.647   4.475
67405W        W35810   1.758  39.928  13.958
67406W        W35811  20.526  28.213  12.628
67407W        W35812   8.328  15.226  12.617
67408W        W35813  21.433  14.509  11.181
67409W        W35814   5.935  12.646  14.481
67410W        W35815   7.779  33.076  10.943
67411W        W35816  38.769   3.804  12.973
67412W        W35817  38.766  31.402  10.236
67413W        W35818  42.582  22.921   2.808
67414W        W35819  27.165  23.278  12.082
67415W        W35820  15.584  28.643  10.905
67416W        W35821  34.856  33.007  11.625
67417W        W35822  23.052  30.066  12.732
67418W        W35823   7.494  26.023   1.768
67419W        W35824  35.954  29.777  14.870
67420W        W35825  22.139   0.361   1.350
67421W        W35826  32.011   8.698  12.351
67422W        W35827  18.117  42.326  13.740
67423W        W35828  30.078  32.002   3.175
67424W        W35829   2.233   9.183   3.345
67425W        W35830  11.272  10.364  11.920
67426W        W35831  36.258   0.402   0.432
67427W        W35832  39.133  35.106  12.628
67428W        W35833  14.228  43.747   1.468
67429W        W35834  18.521  28.137   0.272
67430W        W35835   4.832  33.615   4.229
67431W        W35836  39.871  17.349  14.348
67432W        W35837   4.914  38.774   3.759
67433W        W35838  38.101  22.952  11.584
67434W        W35839   2.743  13.489  11.181
67435W        W35840   5.708  37.353  13.444
67436W        W35841  30.591  18.961   1.548
67437W        W35842  43.747   2.363  10.687
67438W        W35843  37.398  25.473  14.393
67439W        W35844   6.265  40.984   0.278
67440W        W35845  31.769  19.331  11.563
67441W        W35846  42.458  12.353   0.325
67442W        W35847   3.294  15.099   3.805
67443W        W35848  44.928  26.020  14.097
67444W        W35849  24.595  29.080   3.058
67445W        W35850   9.112  20.666  12.035
67446W        W35851  42.303  30.090   2.282
67447W        W35852  14.302   7.734   2.392
67448W        W35853  21.490  41.720  14.454
67449W        W35854  33.032   2.986  13.544
67450W        W35855  38.250   4.345   3.619
67451W        W35856  39.943  37.424   0.294
67452W        W35857  23.960   2.367  14.944
67453W        W35858  35.822  21.110   2.780
67454W        W35859  32.915  41.227  14.101
67455W        W35860  26.069  40.758  11.997
67456W        W35861  34.817   2.244   0.834
67457W        W35862   7.293   4.220  13.527
67458W        W35863  13.664  23.277  12.865
67459W        W35864  19.507  33.288   2.104
67460W        W35865  26.066   8.951   3.256
67461W        W35866   6.605  36.151   4.944
67462W        W35867   8.393  37.972   0.244
67463W        W35868   5.328  41.451   1.774
67464W        W35869  42.331  11.590  11.162
67465W        W35870  38.504  13.319   0.047
67466W        W35871  19.767  15.764  11.095
67467W        W35872   5.264  22.718  11.043
67468W        W35873  39.252  12.236   1.722
67469W        W35874  12.626  22.886  11.107
67470W        W35875   8.926   5.924   3.416
67471W        W35876   7.296   0.312   1.783
67472W        W35877  32.377  11.433  11.028
67473W        W35878   0.537  32.474  10.692
67474W        W35879  40.499   0.424   4.414
67475W        W35880   8.766  18.042   0.334
67476W        W35881  28.458  24.510  12.463
67477W        W35882  37.965  20.191   4.089
67478W        W35883   6.709   1.706  11.564
67479W        W35884  18.948  33.170  12.860
67480W        W35885  24.958  24.193   0.722
67481W        W35886  30.389  16.237   0.206
67482W        W35887  14.125  40.813  12.167
67483W        W35888  32.052  22.436  14.335
67484W        W35889  34.329  10.589   1.923
67485W        W35890  24.233  31.948   3.604
67486W        W35891  12.926   6.916   4.154
67487W        W35892   4.455  27.706   3.158
67488W        W35893  40.553  24.618  14.425
67489W        W35894  23.615  38.538  13.834
67490W        W35895  26.898  41.940  10.531
67491W        W35896  41.700  22.117   0.493
67492W        W35897  39.881  26.488  11.221
67493W        W35898  10.148  14.206   3.831
67494W        W35899  18.033  13.163   1.398
67495W        W35900  19.097  23.086   2.230
67496W        W35901  19.625  24.903   2.574
67497W        W35902  41.219  22.068  14.244
67498W        W35903   0.990  30.736  12.941
67499W        W35904  41.969  41.845   4.273
67500W        W35905  41.898  42.557   2.776
67501W        W35906  30.561   7.175  12.434
67502W        W35907  20.356  14.133   3.499
67503W        W35908  34.453   0.315   4.712
67504W        W35909  13.919  16.278  11.911
67505W        W35910  12.803  42.909   4.516
67506W        W35911  36.095  28.471   2.668
67507W        W35912  25.811  23.230  13.351
67508W        W35913   2.873  14.022   2.569
67509W        W35914  25.254   6.651   0.657
67510W        W35915  26.691   9.573  13.806
67511W        W35916  14.080  41.479   3.381
67512W        W35917  24.036   3.070  10.708
67513W        W35918  37.846   9.340  12.975
67514W        W35919  20.258  28.490   3.630
67515W        W35920  38.997   6.731  10.370
67516W        W35921  30.422  42.799  13.182
67517W        W35922  11.238  34.844  12.664
67518W        W35923  12.798  13.453   3.873
67519W        W35924  31.419  14.145  12.999
67520W        W35925  15.158  21.488  13.339
67521W        W35926   3.662  13.548  11.533
67522W        W35927  37.796  27.475   2.343
67523W        W35928  35.633  34.841  10.702
67524W        W35929  31.843  12.420  14.699
67525W        W35930   8.003  25.612  11.101
67526W        W35931  40.399   2.893   0.893
67527W        W35932   7.751   0.246   2.314
67528W        W35933  18.663  23.218  14.404
67529W        W35934  32.451   4.915   4.095
67530W        W35935  33.608  19.815  11.324
67531W        W35936  38.563  40.647   2.493
67532W        W35937  37.400  19.269   3.150
67533W        W35938  34.492   0.808   1.575
67534W        W35939  40.019  25.232  12.121
67535W        W35940  41.936   5.005   0.079
67536W        W35941  14.325   5.279   0.763
67537W        W35942  28.871  39.001   3.160
67538W        W35943  39.521  36.519  14.805
67539W        W35944   7.730  25.487  14.132
67540W        W35945   0.428  33.468   2.760
67541W        W35946  14.081  25.581   4.668
67542W        W35947   3.536  33.430   4.162
67543W        W35948  18.287  31.398   2.125
67544W        W35949  30.606   9.690   4.601
67545W        W35950  11.231  31.388   4.619
67546W        W35951   5.272  25.427  14.443
67547W        W35952  25.872  36.916  14.276
67548W        W35953  19.729  13.808  13.266
67549W        W35954  44.418  40.520  14.935
67550W        W35955  31.386  19.586   5.006
67551W        W35956  23.105  37.925   2.308
67552W        W35957  33.986   6.765  13.125
67553W        W35958   1.035  30.872   3.843
67554W        W35959  16.742  25.878  14.918
67555W        W35960   5.940  26.431   0.016
67556W        W35961  20.678  39.337   3.390
67557W        W35962  21.253  44.249   0.354
67558W        W35963  42.212  27.085   2.929
67559W        W35964   0.949  30.445   4.763
67560W        W35965  18.273  21.101   5.072
67561W        W35966   2.359  26.037   1.459
67562W        W35967   6.775  22.710   4.046
67563W        W35968  23.786   5.725  11.578
67564W        W35969  38.886  25.869  14.423
67565W        W35970   6.250  33.128  12.591
67566W        W35971   7.478  12.755  14.280
67567W        W35972   1.717  34.875  11.041
67568W        W35973  14.157  24.606   4.286
67569W        W35974  33.379  43.996   3.007
67570W        W35975   0.459  16.660  11.496
67571W        W35976  35.945  32.413   3.685
67572W        W35977  17.224  13.215  11.465
67573W        W35978  27.370   4.493  10.677
67574W        W35979  26.102  25.738  14.425
67575W        W35980  28.732  36.505  12.931
67576W        W35981   2.752  10.766   2.101
67577W        W35982   7.671   8.194   2.029
67578W        W35983   3.625  23.313   3.498
67579W        W35984   5.348   7.487  13.956
67580W        W35985  20.297   4.257  13.973
67581W        W35986  23.430  44.518  13.886
67582W        W35987  35.664  15.915  14.093
67583W        W35988  21.018   8.381  11.408
67584W        W35989  21.176   0.184  10.426
67585W        W35990  40.580  10.540   2.696
67586W        W35991  41.383  10.412  14.460
67587W        W35992  29.059  43.264   4.673
67588W        W35993  27.525  15.294   1.683
67589W        W35994   7.285   4.667   1.185
67590W        W35995  43.022  36.026   0.509
67591W        W35996  25.541  34.055  10.391
67592W        W35997   2.172  27.849  13.798
67593W        W35998   8.469  18.642  14.857
67594W        W35999  19.320  31.725  13.471
67595W        W36000  43.523  13.201   1.743
67596W        W36001  31.481   3.256   1.478
67597W        W36002  42.844  13.875  12.524
67598W        W36003   9.201   5.644  12.886
67599W        W36004  17.622  24.193  13.303
67600W        W36005  40.992  43.791   3.257
67601W        W36006  32.244  28.149  11.151
67602W        W36007  38.498  12.159   3.582
67603W        W36008   7.804  43.433  11.163
67604W        W36009  29.495   5.352  11.373
67605W        W36010  15.802  23.147   3.775
67606W        W36011  40.837  40.492   4.124
67607W        W36012  23.674  31.433  13.111
67608W        W36013  43.262  27.518   0.692
67609W        W36014  15.240  31.749   3.297
67610W        W36015   2.012  35.524  11.822
67611W        W36016  20.006  12.209   1.871
67612W        W36017   6.329  21.709  14.900
67613W        W36018  17.274  10.011   5.353
67614W        W36019  21.803  28.040   0.961
67615W        W36020  43.371  13.368   3.163
67616W        W36021  36.824  30.372  11.882
67617W        W36022   2.485  32.020   3.800
67618W        W36023  22.807   7.858  11.141
67619W        W36024  33.966  22.933   1.315
67620W        W36025  34.668  11.748   0.749
67621W        W36026  29.208  12.869   1.821
67622W        W36027  27.245  20.837  13.543
67623W        W36028  26.512  16.677   3.210
67624W        W36029  13.720  31.835   4.512
67625W        W36030  17.690  13.160   4.574
67626W        W36031  25.148  16.842  10.404
67627W        W36032  24.949  39.360   4.372
67628W        W36033  23.282   2.086   0.184
67629W        W36034   6.746  24.114   3.647
67630W        W36035  16.806  11.988  12.046
67631W        W36036  43.273  10.324   1.869
67632W        W36037  35.157  16.392   3.720
67633W        W36038  23.533  44.427  13.378
67634W        W36039  30.153   9.213  11.621
67635W        W36040  36.861   9.715   1.318
67636W        W36041  34.047   8.650   2.357
67637W        W36042  23.144  37.814   0.026
67638W        W36043  18.367  27.576   1.253
67639W        W36044   1.377  18.348   4.867
67640W        W36045   3.248  21.263  13.039
67641W        W36046  10.433  23.729  14.837
67642W        W36047  14.397   1.912   1.037
67643W        W36048  27.352  39.042   0.900
67644W        W36049  26.170  21.192  11.131
67645W        W36050  28.359  41.012   2.293
67646W        W36051  24.056  24.305   3.679
67647W        W36052  35.787  28.620  11.224
67648W        W36053  38.634  23.633  10.934
67649W        W36054   5.707   2.977   1.997
67650W        W36055   3.378  23.715  13.804
67651W        W36056  24.064  19.009  11.557
67652W        W36057  30.643  14.612   0.955
67653W        W36058  25.594  33.005  11.073
67654W        W36059  40.092  25.978   0.343
67655W        W36060  35.581   6.800   1.400
67656W        W36061  31.154   8.737  14.938
67657W        W36062  36.905  34.936  11.460
67658W        W36063  18.965  33.553  14.473
67659W        W36064  32.604  26.538   3.126
67660W        W36065  20.774  32.434   3.781
67661W        W36066  26.742  38.059   4.654
67662W        W36067  21.540   4.922   1.361
67663W        W36068  28.218  42.367   2.962
67664W        W36069   2.084  25.023  14.100
67665W        W36070   3.445  14.212  11.468
67666W        W36071  39.625  26.005  14.013
67667W        W36072  17.971   4.679   0.750
67668W        W36073  38.016  18.296  11.931
67669W        W36074  18.074  36.894   2.575
67670W        W36075  27.133  31.970  10.485
67671W        W36076  19.497  40.122   3.989
67672W        W36077  12.724  44.980   0.890
67673W        W36078  19.348   8.367   3.272
67674W        W36079  33.124   9.551   3.131
67675W        W36080  16.646  35.997   0.993
67676W        W36081  16.589  37.515  11.462
67677W        W36082  11.470   3.829   5.567
67678W        W36083  14.367   9.774   0.281
67679W        W36084  42.819   2.719  10.683
67680W        W36085  14.087  37.595   3.160
67681W        W36086  15.520  25.779  14.789
67682W        W36087  31.418  33.942   2.573
67683W        W36088  43.491  16.542  11.933
67684W        W36089   1.347  21.960   2.144
67685W        W36090  26.306   5.363   2.379
67686W        W36091   4.449  12.696   4.170
67687W        W36092  41.927  37.650   3.575
67688W        W36093   3.722  15.789   4.170
67689W        W36094   1.135  22.498   4.614
67690W        W36095  12.417   9.823  13.963
67691W        W36096  11.546   5.254   3.194
67692W        W36097  38.078   4.792  11.844
67693W        W36098  21.805  29.392  12.503
67694W        W36099  26.203   1.357   1.776
67695W        W36100  15.232   0.249  10.264
67696W        W36101  38.339   2.865  13.238
67697W        W36102  15.761  33.409  12.119
67698W        W36103  25.225   5.309   1.825
67699W        W36104  25.039  35.709   4.410
67700W        W36105  20.488  28.273  10.489
67701W        W36106  16.883  39.032   3.204
67702W        W36107  39.507  35.081  10.691
67703W        W36108  17.554  32.607   0.583
67704W        W36109  13.065  35.846  10.649
67705W        W36110  20.223  16.074  14.072
67706W        W36111   4.420  30.840   2.245
67707W        W36112  29.457  11.681   2.434
67708W        W36113  42.746  12.071  13.028
67709W        W36114   5.498  43.795  14.406
67710W        W36115  25.655  23.518   2.440
67711W        W36116  16.292   0.119   0.942
67712W        W36117   8.377  23.696  11.208
67713W        W36118   9.225  26.598  11.960
67714W        W36119  32.445  34.115  10.989
67715W        W36120  26.442   2.262  11.790
67716W        W36121  30.422  38.328  12.870
67717W        W36122   9.748  44.841   1.160
67718W        W36123   5.845  18.637  12.481
67719W        W36124  43.265   3.586  12.493
67720W        W36125  38.877  37.092   2.108
67721W        W36126  20.121   9.614  12.085
67722W        W36127   3.979  15.963  10.061
67723W        W36128  14.797  29.970   3.228
67724W        W36129  36.847  31.670  12.925
67725W        W36130  22.483  30.964  11.171
67726W        W36131  44.987  36.513  10.704
67727W        W36132   9.771  23.129  11.100
67728W        W36133  41.710  33.011   4.242
67729W        W36134  33.441   1.240   0.363
67730W        W36135  20.610  21.574   0.446
67731W        W36136  19.474   1.908  11.473
67732W        W36137  16.047  18.141  13.438
67733W        W36138  39.862  32.734  12.112
67734W        W36139  29.923  21.797  13.185
67735W        W36140   7.200  35.019   2.979
67736W        W36141  40.287   3.364  11.141
67737W        W36142  43.928  13.748   2.302
67738W        W36143   2.228  40.036   5.108
67739W        W36144  16.938  17.081   0.440
67740W        W36145  37.946   4.777   1.651
67741W        W36146  23.703  17.135   1.948
67742W        W36147  31.930   9.704   4.244
67743W        W36148  15.417  13.643   2.958
67744W        W36149  25.887  13.219   0.910
67745W        W36150  22.768  27.294   0.379
67746W        W36151   6.277   8.605  11.226
67747W        W36152  42.787  31.167   4.517
67748W        W36153   5.361  13.273  12.556
67749W        W36154   5.784  44.445   0.950
67750W        W36155  37.069  43.851  14.782
67751W        W36156  44.021  37.366  14.796
67752W        W36157  34.299  10.233  11.590
67753W        W36158  12.939   7.617   1.990
67754W        W36159  14.330  43.182   3.648
67755W        W36160  40.877   9.830   0.982
67756W        W36161  10.879  28.054   3.022
67757W        W36162  20.540  15.748  12.880
67758W        W36163  17.591  15.294  10.684
67759W        W36164  44.044   7.387   0.578
67760W        W36165  29.481   4.305   4.136
67761W        W36166  14.083  25.366   1.263
67762W        W36167  39.110  42.559   1.166
67763W        W36168  34.624  42.233  14.832
67764W        W36169  19.228  13.616   4.575
67765W        W36170  40.816   9.711  13.902
67766W        W36171   7.170   0.006  14.993
67767W        W36172  13.234  14.106  14.381
67768W        W36173  15.704  40.362  14.917
67769W        W36174  13.786  20.037  11.465
67770W        W36175   0.827  15.712  12.141
67771W        W36176   4.337  35.834  10.757
67772W        W36177  10.316  41.848  10.658
67773W        W36178   8.307  40.236  12.457
67774W        W36179   8.688  32.691  10.258
67775W        W36180  12.827  28.769   4.943
67776W        W36181   8.806  29.891   0.443
67777W        W36182   2.320  32.550  11.543
67778W        W36183  31.279  32.819  14.779
67779W        W36184   8.300  17.808   0.512
67780W        W36185   9.409  39.578   4.562
67781W        W36186  25.636   9.585   1.728
67782W        W36187  37.530  10.217  13.950
67783W        W36188  16.199  22.396   3.733
67784W        W36189   5.766  31.472   1.361
67785W        W36190  20.499  25.691   2.272
67786W        W36191  42.456  34.480  12.001
67787W        W36192   4.742  39.843   0.439
67788W        W36193  24.989  37.040  11.781
67789W        W36194  15.084  43.453  11.508
67790W        W36195  18.950  28.702   1.919
67791W        W36196  27.686  12.778  12.187
67792W        W36197  44.977  35.795   4.887
67793W        W36198  10.655  16.586   1.810
67794W        W36199  31.079   5.142  14.043
67795W        W36200  19.370  19.065   4.793
67796W        W36201  24.365  18.064  13.969
67797W        W36202  20.460  31.721  12.105
67798W        W36203  14.650   8.811  13.483
67799W        W36204  29.149  20.257  14.412
67800W        W36205  17.074   8.213   4.064
67801W        W36206  29.257   7.467  11.560
67802W        W36207  12.835  18.682  12.452
67803W        W36208  26.243   1.212   3.158
67804W        W36209  18.542  30.268  12.940
67805W        W36210  23.278   5.777  11.617
67806W        W36211  33.384  37.564  11.151
67807W        W36212   3.653  35.974   4.572
67808W        W36213  31.134  18.287  10.261
67809W        W36214   0.982  30.697  11.997
67810W        W36215  38.912  39.864   2.234
67811W        W36216  38.293  10.228   3.634
67812W        W36217  11.916  38.666   4.167
67813W        W36218  12.723  23.788  14.419
67814W        W36219  38.034  39.557  10.606
67815W        W36220   7.443   7.155   2.384
67816W        W36221  18.595  37.145  14.877
67817W        W36222   7.174  29.462   2.729
67818W        W36223  22.551  20.500  12.622
67819W        W36224   0.164  22.567   1.813
67820W        W36225  13.573  11.341   3.852
67821W        W36226  39.103  40.755  11.670
67822W        W36227   8.598  39.005   4.382
67823W        W36228  27.721  27.467  11.587
67824W        W36229  40.594  35.101   4.001
67825W        W36230  32.617  30.024  14.085
67826W        W36231   1.356  27.195  14.818
67827W        W36232  29.966   5.223  10.498
67828W        W36233  20.479  25.822  13.429
67829W        W36234  29.039  18.777  11.087
67830W        W36235  12.230  27.229   0.198
67831W        W36236  20.736  29.542  14.439
67832W        W36237  10.881  42.217   1.840
67833W        W36238  42.992   1.988   2.041
67834W        W36239  23.035  11.057  14.054
67835W        W36240  12.130  34.912  12.850
67836W        W36241   6.322  29.791   3.126
67837W        W36242  42.759  11.124  13.918
67838W        W36243  33.896  28.970   2.459
67839W        W36244  39.744   5.441  11.080
67840W        W36245   3.258   4.383  12.826
67841W        W36246   4.720   7.865  14.834
67842W        W36247   9.258  10.374   2.880
67843W        W36248  39.477  19.718  13.535
67844W        W36249  34.211  34.546   4.984
67845W        W36250  44.319  38.260  14.909
67846W        W36251  17.860  10.167   2.567
67847W        W36252  33.297  42.261   0.890
67848W        W36253  13.148  41.822   2.583
67849W        W36254  35.522  14.093   0.200
67850W        W36255  34.881  19.163   1.197
67851W        W36256  16.196   7.268  13.817
67852W        W36257  37.043  39.536   1.257
67853W        W36258  24.605  24.788   0.076
67854W        W36259  12.287   8.089   3.575
67855W        W36260  21.646  11.357   0.636
67856W        W36261  30.874   6.146  10.747
67857W        W36262  15.988  29.540  10.783
67858W        W36263  44.941  12.311  10.493
67859W        W36264  14.597   6.753   3.259
67860W        W36265  21.565  13.327  14.068
67861W        W36266  17.245  14.357  13.831
67862W        W36267  13.873  13.264   4.191
67863W        W36268  29.552   6.859   4.051
67864W        W36269  34.888  11.701  10.847
67865W        W36270  39.356  14.929  13.119
67866W        W36271   2.487  22.213  10.668
67867W        W36272  18.129  32.440  13.711
67868W        W36273  29.529  11.630  12.998
67869W        W36274  41.919   9.808   3.319
67870W        W36275  34.813  21.576  11.999
67871W        W36276   4.332  27.431   2.673
67872W        W36277  18.545  39.840   1.700
67873W        W36278  32.679  37.602  12.951
67874W        W36279  28.234   2.343   1.826
67875W        W36280   8.082  35.157  12.037
67876W        W36281  11.328  27.717   1.279
67877W        W36282  31.488  33.990  11.378
67878W        W36283  17.581  20.703   4.074
67879W        W36284  24.567   1.203   0.528
67880W        W36285  21.028  22.199  10.349
67881W        W36286  17.183  35.835   2.699
67882W        W36287  22.257  28.643  14.926
67883W        W36288  24.756  25.281   2.367
67884W        W36289  19.082  13.847   4.110
67885W        W36290  30.979   9.657  11.403
67886W        W36291   0.825  17.665  12.500
67887W        W36292   0.482  38.823  13.296
67888W        W36293  31.812  40.039  13.425
67889W        W36294  28.173  11.663   2.840
67890W        W36295   9.164  23.031   3.232
67891W        W36296   9.889  37.834  12.038
67892W        W36297   8.063  30.958   3.669
67893W        W36298  34.696  37.458  10.522
67894W        W36299  29.428  13.239   1.560
67895W        W36300  32.108  17.118  10.099
67896W        W36301  22.549  26.934  13.952
67897W        W36302  39.537   5.276  11.531
67898W        W36303  11.052  40.849  12.115
67899W        W36304  13.802  10.332   3.792
67900W        W36305  38.095  22.381   4.445
67901W        W36306  25.790  33.110   3.697
67902W        W36307   2.900  27.420  13.044
67903W        W36308   6.144  29.550   0.509
67904W        W36309   9.789  19.113  10.397
67905W        W36310   4.261  39.750   2.543
67906W        W36311   0.978  10.235  14.550
67907W        W36312  35.100  39.623  11.082
67908W        W36313  44.574  32.188   0.707
67909W        W36314   8.918  25.516   2.127
67910W        W36315  34.375   4.417  10.725
67911W        W36316  39.583   4.322   3.175
67912W        W36317  12.810   0.914  14.480
67913W        W36318  33.690   1.802   4.253
67914W        W36319  39.870  27.902  14.556
67915W        W36320   6.656   2.661   1.048
67916W        W36321  34.056  37.414  10.358
67917W        W36322  19.762  23.627  12.163
67918W        W36323  23.263  18.457   1.444
67919W        W36324  25.186  26.339  11.546
67920W        W36325  36.567  43.754  14.868
67921W        W36326  28.111  18.490   1.282
67922W        W36327  25.736  36.519   2.163
67923W        W36328   8.682   9.359   1.121
67924W        W36329  16.306  18.775   0.348
67925W        W36330  43.423  20.992   3.682
67926W        W36331  40.393   3.414  12.449
67927W        W36332   6.730  21.501  11.301
67928W        W36333  22.495  43.303  13.629
67929W        W36334  40.579  44.213   0.364
67930W        W36335   8.433  35.801   1.530
67931W        W36336  36.383  18.423   4.654
67932W        W36337   0.034  33.414  13.987
67933W        W36338  17.286  22.641   1.017
67934W        W36339   8.947  40.552   0.305
67935W        W36340  34.601  34.453  11.404
67936W        W36341  21.155   2.878   2.153
67937W        W36342  39.113  23.449  12.560
67938W        W36343  13.344  13.361   4.196
67939W        W36344  25.554  16.391  11.575
67940W        W36345   2.183  26.941   3.714
67941W        W36346   0.313  13.340  14.878
67942W        W36347   3.684  16.055  10.882
67943W        W36348  35.993   9.956  11.116
67944W        W36349  35.038  35.163   1.668
67945W        W36350  40.530  18.467   2.357
67946W        W36351  14.705  24.053  11.670
67947W        W36352  22.780  26.462  13.962
67948W        W36353  17.344  24.695  14.497
67949W        W36354  25.619  32.870  11.590
67950W        W36355   8.895  10.725   1.561
67951W        W36356  43.725  10.987   1.814
67952W        W36357  31.860   7.142  11.945
67953W        W36358  26.657  16.112  11.132
67954W        W36359   0.390  22.057  11.542
67955W        W36360   3.948   7.403   1.283
67956W        W36361  38.070  27.614  12.994
67957W        W36362  16.284   1.824  12.251
67958W        W36363  32.104  44.093   4.261
67959W        W36364  13.722  27.121  13.915
67960W        W36365  21.093  40.374   4.602
67961W        W36366  17.420  39.963   4.568
67962W        W36367  14.647  19.714   1.760
67963W        W36368  33.063  31.595   0.264
67964W        W36369  21.156   9.408   2.696
67965W        W36370   6.145  22.103   3.704
67966W        W36371  10.625  28.490  12.933
67967W        W36372  16.611  26.278   2.086
67968W        W36373   8.381  39.996   3.081
67969W        W36374  26.492  14.344  10.734
67970W        W36375  35.684   6.300   0.203
67971W        W36376   7.795  42.334   0.758
67972W        W36377  42.825  17.840  12.032
67973W        W36378  25.825  32.154  12.063
67974W        W36379   5.229  13.629   0.387
67975W        W36380   0.218  27.685   3.701
67976W        W36381  15.095  34.659  13.106
67977W        W36382  12.396  34.149   3.687
67978W        W36383   6.506   2.830  11.090
67979W        W36384  42.585  28.970  14.246
67980W        W36385  14.266  21.216  13.689
67981W        W36386  18.753  19.655  14.547
67982W        W36387  35.014  22.296  14.210
67983W        W36388  17.483   6.912  11.510
67984W        W36389   2.411  34.551   3.628
67985W        W36390  40.969  30.650  14.906
67986W        W36391  29.511  36.816   2.413
67987W        W36392   5.518  43.721   1.243
67988W        W36393   2.405  12.841   4.626
67989W        W36394   1.940  40.547   4.094
67990W        W36395  21.560   1.835   0.403
67991W        W36396  44.484  12.134   3.297
67992W        W36397   0.341  39.734   0.379
67993W        W36398  31.151  25.611  14.371
67994W        W36399  23.737   5.418  12.071
67995W        W36400  41.244  43.376  10.575
67996W        W36401   7.881   4.977   0.549
67997W        W36402  26.062  14.316   1.814
67998W        W36403  11.270  11.804  12.598
67999W        W36404  26.601  39.811   2.852
68000W        W36405  13.935  25.015   3.639
68001W        W36406  27.958  22.041  14.999
68002W        W36407  44.797   4.003   2.322
68003W        W36408  10.128  43.932   0.409
68004W        W36409  40.532  12.166  12.612
68005W        W36410  24.209  16.262   1.740
68006W        W36411  40.009   7.561  12.475
68007W        W36412  44.402   5.903   1.765
68008W        W36413   6.279  18.190  10.159
68009W        W36414  37.492  18.571  11.154
68010W        W36415  32.999  36.336  13.840
68011W        W36416  35.515  21.100   0.272
68012W        W36417  14.376  23.171  11.465
68013W        W36418   6.192   2.838   1.757
68014W        W36419  10.751  23.257   0.402
68015W        W36420  10.578  23.722   2.659
68016W        W36421  13.296  40.045  11.196
68017W        W36422  32.665   9.712  11.861
68018W        W36423  37.910  41.998  13.787
68019W        W36424  11.421  20.980  12.466
68020W        W36425  15.905  28.262  10.399
68021W        W36426  26.130  26.957  11.914
68022W        W36427  31.663  33.115  10.826
68023W        W36428  39.413  43.482  13.419
68024W        W36429  22.274  41.197  14.894
68025W        W36430  43.029  43.716   4.094
68026W        W36431  25.011  37.923   0.567
68027W        W36432   3.997  37.530  11.612
68028W        W36433  36.462  17.786  12.192
68029W        W36434  15.680  32.558   0.519
68030W        W36435  33.118  31.857   2.874
68031W        W36436  14.774   5.826   3.330
68032W        W36437  44.463  27.567   1.771
68033W        W36438  25.277  33.540  12.085
68034W        W36439  39.827   6.320   4.796
68035W        W36440   6.494  36.363   4.089
68036W        W36441  34.429  15.184  14.740
68037W        W36442  19.217  14.263   2.802
68038W        W36443  32.902  12.671   3.822
68039W        W36444   9.136  31.485   1.792
68040W        W36445  39.859  29.427   3.367
68041W        W36446  31.457  44.515  14.342
68042W        W36447   6.402  21.568  13.502
68043W        W36448  19.782  37.391   3.374
68044W        W36449  16.810  20.628   3.482
68045W        W36450   1.745   3.450  10.685
68046W        W36451   9.722   9.199   0.256
68047W        W36452  19.058   7.654   0.222
68048W        W36453  39.324  34.609  10.908
68049W        W36454  22.493  32.569   2.441
68050W        W36455  36.153   7.203  14.274
68051W        W36456   7.847  44.423   3.575
68052W        W36457  38.555  41.296   4.447
68053W        W36458  22.147   1.975   0.837
68054W        W36459  39.938  41.484  12.982
68055W        W36460  31.171  28.199   2.306
68056W        W36461  28.061  35.313   2.344
68057W        W36462   4.175  40.857  12.070
68058W        W36463  30.529  42.426   0.364
68059W        W36464  39.328   6.729   1.648
68060W        W36465  11.455  41.281   1.621
68061W        W36466   1.620  26.000  13.733
68062W        W36467  22.970  32.480   2.642
68063W        W36468   6.000  22.495  10.412
68064W        W36469  24.772  22.082  12.159
68065W        W36470  34.195  19.592   0.306
68066W        W36471   8.766  37.835   4.607
68067W        W36472  15.239  15.273   1.913
68068W        W36473  43.232  44.343  13.402
68069W        W36474  11.749  25.606   1.714
68070W        W36475   6.916  18.821  14.403
68071W        W36476  31.590  28.731   3.571
68072W        W36477  11.734   9.292   3.272
68073W        W36478  15.352  18.751  12.519
68074W        W36479  19.761  38.916   0.614
68075W        W36480  44.214  15.670  13.499
68076W        W36481  29.208   6.304  13.976
68077W        W36482  28.177   0.509  14.786
68078W        W36483  10.461   2.348   2.321
68079W        W36484  12.808  28.523   3.400
68080W        W36485   5.923  20.976  11.611
68081W        W36486  44.323  11.385  13.817
68082W        W36487  18.773   0.815   0.787
68083W        W36488  42.477   3.369   4.638
68084W        W36489  42.621  11.700   1.703
68085W        W36490  14.741  26.971  10.717
68086W        W36491  43.255   6.261   1.794
68087W        W36492   3.855  14.797  13.563
68088W        W36493  43.061  14.876  12.020
68089W        W36494   2.104  37.634   4.100
68090W        W36495  19.571   7.135  14.959
68091W        W36496  27.740  20.287  11.522
68092W        W36497  34.642  14.230   1.234
68093W        W36498  16.384  24.570   2.687
68094W        W36499  36.632  33.430  14.839
68095W        W36500   4.540  28.982  12.401
68096W        W36501  14.320  31.615  14.412
68097W        W36502   9.063   0.390   5.141
68098W        W36503   2.138  35.503  12.982
68099W        W36504  31.426  28.112  11.820
68100W        W36505  32.323  10.301  14.954
68101W        W36506   6.795  18.034   2.175
68102W        W36507   8.537   8.102  10.827
68103W        W36508  31.439  28.073  13.568
68104W        W36509  41.112  40.384  11.615
68105W        W36510  29.465  15.682  13.336
68106W        W36511  23.387  13.752  14.433
68107W        W36512   3.467  22.150   0.578
68108W        W36513  28.591  22.444  10.445
68109W        W36514  30.944  36.837   2.350
68110W        W36515   1.235  17.649  11.231
68111W        W36516  44.424  23.229  10.042
68112W        W36517  37.652  28.465   1.053
68113W        W36518  31.739   6.151   4.428
68114W        W36519   3.826  30.217  12.308
68115W        W36520  42.358  27.598   4.056
68116W        W36521   9.675  42.005  11.852
68117W        W36522  41.694  10.954  12.610
68118W        W36523  21.977  28.548   2.762
68119W        W36524  16.074  41.322   4.549
68120W        W36525  24.077  17.718   2.441
68121W        W36526  24.997  38.560  12.061
68122W        W36527  43.230  40.985   3.038
68123W        W36528   2.755   8.301   4.595
68124W        W36529  43.421  35.277  11.055
68125W        W36530  14.235  13.770   3.626
68126W        W36531  17.095  25.649  13.403
68127W        W36532  35.588  31.634  14.870
68128W        W36533  10.125  12.566  13.889
68129W        W36534   0.892  14.513   3.629
68130W        W36535   1.962  38.446  12.083
68131W        W36536  40.805  32.885  12.900
68132W        W36537  37.641  32.513   2.948
68133W        W36538  22.207  31.352   1.848
68134W        W36539  13.211   0.086   0.351
68135W        W36540  36.937   4.204  12.120
68136W        W36541  11.614  16.257   4.746
68137W        W36542   8.289  10.745  11.476
68138W        W36543  26.895  35.114  12.486
68139W        W36544   7.297  21.349   3.693
68140W        W36545   5.713  21.885   1.325
68141W        W36546  14.685   2.715   0.966
68142W        W36547  17.668  22.457   3.069
68143W        W36548  18.860   1.049  11.081
68144W        W36549   8.314  33.058  13.537
68145W        W36550  13.197   4.383  10.287
68146W        W36551  10.274  28.711   0.494
68147W        W36552  29.419  15.512   2.941
68148W        W36553  30.388  38.183   2.397
68149W        W36554  27.599  25.235   1.206
68150W        W36555   0.025  36.307  11.708
68151W        W36556  36.124  14.193   4.168
68152W        W36557  16.194  35.514  13.375
68153W        W36558  33.464  23.017   2.470
68154W        W36559  44.655  17.079  14.240
68155W        W36560   6.463  42.538   9.946
68156W        W36561  16.375   2.997   1.229
68157W        W36562   5.825  18.623   1.646
68158W        W36563  40.586  18.232   1.567
68159W        W36564  11.667   6.829   0.923
68160W        W36565  43.337  18.133   1.276
68161W        W36566  37.565  28.749  10.482
68162W        W36567   5.697  16.645   0.751
68163W        W36568  17.860  20.989  12.353
68164W        W36569  23.811  10.248  12.015
68165W        W36570   2.782  16.124  12.523
68166W        W36571   9.293  22.579   1.867
68167W        W36572  19.187   2.982  10.979
68168W        W36573  27.719  16.226   2.636
68169W        W36574   5.937  30.531  10.624
68170W        W36575  16.394   8.397   1.343
68171W        W36576  12.778   0.901  12.981
68172W        W36577  44.938  20.510   2.702
68173W        W36578  38.491  35.828   4.184
68174W        W36579  23.777  40.350  13.329
68175W        W36580  29.616  35.107   3.388
68176W        W36581  34.591  11.548   2.324
68177W        W36582   8.778  12.559  14.411
68178W        W36583  31.686  27.430   0.683
68179W        W36584  12.882   3.324   0.063
68180W        W36585  18.274  31.961  13.888
68181W        W36586  16.665  10.442   1.354
68182W        W36587   8.184  23.505  13.051
68183W        W36588  11.431  22.245  11.590
68184W        W36589  28.972   8.722   4.133
68185W        W36590  10.650  33.112  13.292
68186W        W36591  33.021  34.652  12.217
68187W        W36592  39.073   5.212   3.672
68188W        W36593  26.883  29.341   2.177
68189W        W36594   8.241  13.584  10.724
68190W        W36595  21.582   3.890   2.296
68191W        W36596  41.500  40.163   4.248
68192W        W36597  22.628  12.000  11.248
68193W        W36598  24.220  25.010   1.833
68194W        W36599  28.646  14.788   2.783
68195W        W36600   0.582  34.816  13.326
68196W        W36601  33.475  22.843  12.855
68197W        W36602  23.618  33.400  13.399
68198W        W36603  37.175  21.118   3.687
68199W        W36604   6.514  29.090  11.372
68200W        W36605  44.627  28.091   4.324
68201W        W36606  42.256  14.294   2.918
68202W        W36607  25.572  39.300  12.966
68203W        W36608  18.601  42.549  14.386
68204W        W36609   1.505  20.301   4.630
68205W        W36610  31.840  10.183  12.982
68206W        W36611  21.296  32.886  11.647
68207W        W36612  32.914   2.519  13.306
68208W        W36613  19.644   4.752   4.586
68209W        W36614   5.776  44.489   1.478
68210W        W36615   9.830  17.604   1.736
68211W        W36616  31.852  25.133   3.290
68212W        W36617  23.223  19.287   2.218
68213W        W36618  24.608   8.143   0.789
68214W        W36619  13.185  22.230  11.225
68215W        W36620  28.145  11.801   0.450
68216W        W36621   6.021  14.216   2.011
68217W        W36622  19.957  22.407  11.547
68218W        W36623   0.254  16.091   2.016
68219W        W36624  15.243  17.433   3.954
68220W        W36625   9.544  25.609  10.625
68221W        W36626   5.963  17.868  14.798
68222W        W36627  16.965  30.513   1.898
68223W        W36628  16.845  26.702  13.486
68224W        W36629  15.591  13.719  10.642
68225W        W36630  28.374  44.929   0.333
68226W        W36631  39.868  41.657  14.527
68227W        W36632   2.833   5.753   2.859
68228W        W36633  28.552  19.121   0.917
68229W        W36634  28.958   6.221   3.825
68230W        W36635  28.242  42.465  12.167
68231W        W36636   0.751   6.217   1.837
68232W        W36637  24.013  44.564   1.904
68233W        W36638  20.890  44.979   3.306
68234W        W36639   9.918   6.470  13.093
68235W        W36640  13.991  35.722  11.514
68236W        W36641  35.371  22.751  13.498
68237W        W36642  26.165   1.300  14.334
68238W        W36643   4.987  25.594   3.927
68239W        W36644  25.414  25.644  11.832
68240W        W36645  36.143   9.789   2.811
68241W        W36646  40.604  29.783  14.377
68242W        W36647  40.125  27.564  12.501
68243W        W36648  14.710  29.985   1.868
68244W        W36649  12.708  44.517  13.482
68245W        W36650  11.743  22.289  11.171
68246W        W36651  37.905  35.536   0.482
68247W        W36652  33.721  39.382   1.607
68248W        W36653   8.935  21.059  12.392
68249W        W36654   0.038  22.558  10.559
68250W        W36655  22.054  37.780  11.154
68251W        W36656  32.897   8.176   0.301
68252W        W36657   1.919  22.603   4.565
68253W        W36658  14.820   2.852   2.749
68254W        W36659  11.081  42.974  11.426
68255W        W36660   7.245  32.334  11.209
68256W        W36661  43.939   5.904   0.888
68257W        W36662  20.605   7.081   1.691
68258W        W36663  16.115   7.787  14.489
68259W        W36664   0.736  39.874  13.944
68260W        W36665  24.365  24.584  14.611
68261W        W36666  12.887   2.159   5.030
68262W        W36667  41.397  24.381  14.817
68263W        W36668  27.902  37.923  10.244
68264W        W36669  11.138  37.255   1.323
68265W        W36670   7.293  33.376   1.415
68266W        W36671  18.720  44.721   4.099
68267W        W36672  10.557   1.315  10.578
68268W        W36673  32.626  28.505   4.481
68269W        W36674  15.567  30.862   4.569
68270W        W36675   4.681  18.657  14.331
68271W        W36676  17.335  14.203   4.587
68272W        W36677  15.315  15.044   0.716
68273W        W36678  28.047  38.347   3.266
68274W        W36679  37.645  16.054   1.367
68275W        W36680  28.054   4.127  11.100
68276W        W36681  18.224  34.122  14.317
68277W        W36682  14.605  25.918   1.143
68278W        W36683   0.968   0.752   0.697
68279W        W36684   8.083  21.479   1.402
68280W        W36685  17.748  28.443  11.108
68281W        W36686  19.049  28.418  11.134
68282W        W36687  22.467  37.447   1.760
68283W        W36688   8.427  25.649   1.886
68284W        W36689   0.838  25.448  13.809
68285W        W36690   9.317  19.327   4.833
68286W        W36691  37.585   4.400  12.510
68287W        W36692   6.581  42.963  10.227
68288W        W36693   4.307  31.774   4.128
68289W        W36694  11.456  42.058   0.424
68290W        W36695   9.842  17.998  14.038
68291W        W36696  36.304   0.241   3.216
68292W        W36697  36.859  10.766   4.512
68293W        W36698  17.601  44.846   2.885
68294W        W36699  11.137  29.229   4.537
68295W        W36700   7.131  14.896   4.042
68296W        W36701  39.389  32.132   0.749
68297W        W36702   9.162  28.861   3.639
68298W        W36703  23.682  34.364  11.816
68299W        W36704  40.375  28.685  10.650
68300W        W36705   7.179  41.796  13.305
68301W        W36706   9.260  15.923  14.152
68302W        W36707  27.092  12.623   2.080
68303W        W36708  37.348   0.328   2.311
68304W        W36709   3.968  38.112   3.214
68305W        W36710  26.747   2.903  13.962
68306W        W36711  17.711  18.185  13.026
68307W        W36712  14.569  11.328   2.853
68308W        W36713  41.230   1.426   3.643
68309W        W36714  23.853  31.629  12.148
68310W        W36715  13.794  35.301  10.106
68311W        W36716  37.169   2.818  14.898
68312W        W36717  18.024   9.729   4.991
68313W        W36718  30.545  16.256  11.423
68314W        W36719  34.567  42.373  14.323
68315W        W36720  35.126   6.220   1.918
68316W        W36721  39.333   9.844   4.262
68317W        W36722  10.967  24.716   0.555
68318W        W36723  21.533  19.232  13.956
68319W        W36724  35.891  28.040   1.338
68320W        W36725  34.344  27.456   4.736
68321W        W36726  36.247  27.733  13.913
68322W        W36727  21.812  35.970  12.194
68323W        W36728  32.262  44.437   1.089
68324W        W36729  39.300   2.206   3.112
68325W        W36730   9.608  22.995  12.098
68326W        W36731  27.141  19.430  14.450
68327W        W36732  14.089  28.437   4.877
68328W        W36733  16.816  17.326   3.858
68329W        W36734  39.597   9.580   3.898
68330W        W36735   6.278  37.819  12.632
68331W        W36736   4.053  13.261   3.637
68332W        W36737  14.281  20.128   4.705
68333W        W36738  33.882   6.007  12.412
68334W        W36739  16.577  34.004   1.124
68335W        W36740  38.660  16.597  14.082
68336W        W36741   1.049  42.172   2.622
68337W        W36742  40.766  25.671  10.754
68338W        W36743   8.427  36.946   2.180
68339W        W36744  21.989  15.039   2.829
68340W        W36745  13.255  23.250  14.795
68341W        W36746   8.820  28.596  12.459
68342W        W36747  12.933  27.417   2.627
68343W        W36748   4.256   2.379  10.885
68344W        W36749  14.666  44.740   4.602
68345W        W36750  34.559  38.441  14.304
68346W        W36751   6.740  29.923   1.163
68347W        W36752   4.662   5.847   4.497
68348W        W36753  16.830  13.117   1.760
68349W        W36754  19.816  44.518  13.947
68350W        W36755  16.033  19.660   2.739
68351W        W36756   3.463  32.781  14.427
68352W        W36757  20.345  19.062   4.328
68353W        W36758  19.754  18.782   1.726
68354W        W36759   4.177  43.201  14.937
68355W        W36760  12.599  40.366   2.671
68356W        W36761  37.107  12.363   1.515
68357W        W36762   0.422  33.548  14.399
68358W        W36763  34.101  15.327  13.408
68359W        W36764  44.831  32.040   4.607
68360W        W36765  22.376  35.327   1.310
68361W        W36766  40.286  34.661  12.683
68362W        W36767  30.950  25.232   0.673
68363W        W36768  27.970  30.479  12.160
68364W        W36769  44.550  36.415  14.900
68365W        W36770   4.242  26.231   0.776
68366W        W36771  40.828  41.325   3.081
68367W        W36772  26.163  14.265   4.656
68368W        W36773  24.730  33.539  12.127
68369W        W36774   0.716  30.642  14.850
68370W        W36775  15.200  36.320  14.470
68371W        W36776  38.455  32.393  11.021
68372W        W36777   2.144  22.766   2.692
68373W        W36778   5.394  33.146  13.047
68374W        W36779  43.871   0.409   2.550
68375W        W36780   7.583  28.496   0.224
68376W        W36781  36.835  41.785  11.426
68377W        W36782   3.924   8.260   3.247
68378W        W36783  31.648  22.064  14.836
68379W        W36784  17.704   9.179  11.533
68380W        W36785   2.691  43.640   2.300
68381W        W36786  14.746  11.898  14.432
68382W        W36787  15.217   5.045   2.403
68383W        W36788  18.536   7.130   3.953
68384W        W36789  44.847  10.300   1.142
68385W        W36790  24.086  43.010  14.764
68386W        W36791  13.442  29.123   0.460
68387W        W36792   7.366  19.582   2.893
68388W        W36793  38.449   6.407   0.278
68389W        W36794  15.991  10.901   0.227
68390W        W36795  19.156  37.919  13.036
68391W        W36796  11.214  25.845   3.653
68392W        W36797   9.920   9.433  14.836
68393W        W36798  14.659  26.312   3.304
68394W        W36799   7.347  27.149  13.129
68395W        W36800  35.384  11.810  10.818
68396W        W36801   4.677   6.357  14.958
68397W        W36802  14.264  17.230   1.476
68398W        W36803  26.969   5.272  12.831
68399W        W36804  14.142  28.618   3.885
68400W        W36805   7.927  16.087  12.499
68401W        W36806  33.061   3.194   1.881
68402W        W36807  15.250  35.313   0.565
68403W        W36808   9.038   5.139  14.798
68404W        W36809  39.771  17.996  10.859
68405W        W36810  15.223   4.386   1.628
68406W        W36811  40.073  40.635  10.657
68407W        W36812  23.697  20.983   4.463
68408W        W36813  24.965  37.166   0.803
68409W        W36814  17.620  39.037   4.884
68410W        W36815  43.279  34.383   2.753
68411W        W36816   6.375  43.817   4.730
68412W        W36817   1.022  41.637  14.409
68413W        W36818  25.405  14.074   0.607
68414W        W36819  32.647  42.837  12.921
68415W        W36820  13.708   1.472   0.814
68416W        W36821  38.788  35.205   2.383
68417W        W36822   3.530  16.045   0.833
68418W        W36823   6.008   1.925   0.941
68419W        W36824  22.577  13.585  13.872
68420W        W36825  32.599  17.278   0.780
68421W        W36826  15.804  38.158  13.417
68422W        W36827  21.514   2.422  11.130
68423W        W36828  39.539  43.557  12.493
68424W        W36829  13.160  32.604   1.824
68425W        W36830  10.966  11.269  10.952
68426W        W36831  43.838   4.815   3.173
68427W        W36832  39.052   6.453   0.414
68428W        W36833  10.833   2.463   3.570
68429W        W36834  39.695  41.745  13.340
68430W        W36835   3.162  28.943  12.931
68431W        W36836  21.143  18.504  14.456
68432W        W36837   2.334  17.358   0.266
68433W        W36838  11.922  32.670   1.470
68434W        W36839  16.216  11.734   4.678
68435W        W36840  12.352  32.312  13.393
68436W        W36841  35.395  10.108  12.932
68437W        W36842  36.354  41.459  12.812
68438W        W36843  26.097   7.884  11.225
68439W        W36844  41.874  19.139  14.230
68440W        W36845  29.503   8.265   4.521
68441W        W36846  43.031  12.416  13.803
68442W        W36847  29.195  31.583   4.517
68443W        W36848   3.908  15.375   4.462
68444W        W36849  38.960  40.963  13.503
68445W        W36850  41.619  20.599   1.302
68446W        W36851  26.698  21.204  11.098
68447W        W36852  34.775   5.790  12.540
68448W        W36853  25.188  32.859  12.558
68449W        W36854  13.072   1.992   4.568
68450W        W36855  31.944  11.759  13.897
68451W        W36856  11.696  42.559   1.660
68452W        W36857   9.788  16.769  11.128
68453W        W36858   0.303  31.383  11.528
68454W        W36859   3.701   7.892   2.370
68455W        W36860  25.134   2.753   4.610
68456W        W36861  11.163   5.466   0.141
68457W        W36862  14.803   8.623  10.441
68458W        W36863  35.538   7.416  11.647
68459W        W36864  31.143  35.760  11.215
68460W        W36865  19.676  16.273   3.344
68461W        W36866  10.897  33.902  14.870
68462W        W36867  43.376   0.968  10.918
68463W        W36868   0.639  37.686   0.973
68464W        W36869  44.518   8.037  11.882
68465W        W36870  14.141  35.331  11.229
68466W        W36871   5.323   5.896   1.084
68467W        W36872  40.455  44.757  14.696
68468W        W36873  44.799  18.350  11.255
68469W        W36874  40.255  23.288  10.312
68470W        W36875  25.160  30.401   3.110
68471W        W36876  17.916  40.990  12.926
68472W        W36877  34.611  12.793  12.969
68473W        W36878   3.344   6.229   3.987
68474W        W36879  15.087  33.386   0.370
68475W        W36880  37.877  27.240  12.419
68476W        W36881   4.981   9.344  12.749
68477W        W36882   8.330  17.658  13.568
68478W        W36883  12.618  27.991   4.244
68479W        W36884   8.782  17.718   1.786
68480W        W36885  31.160  43.027  11.938
68481W        W36886  43.086  13.685  12.977
68482W        W36887  33.548  38.980   1.870
68483W        W36888  43.140  25.209  10.750
68484W        W36889  15.026  30.852  10.511
68485W        W36890  18.354  37.946  11.617
68486W        W36891  14.507  24.970  13.002
68487W        W36892  43.534  28.617   1.921
68488W        W36893  41.013  30.947   2.165
68489W        W36894  41.876   8.018  14.770
68490W        W36895   5.995  40.078   3.274
68491W        W36896   3.747  32.016  14.720
68492W        W36897  31.880  44.962  12.480
68493W        W36898   0.349  33.067  10.575
68494W        W36899  38.064  34.358   1.021
68495W        W36900  44.312  36.840   0.832
68496W        W36901  37.578  22.161   4.417
68497W        W36902  10.125  44.445   3.237
68498W        W36903  13.958  30.393  12.678
68499W        W36904  13.230   2.230   1.738
68500W        W36905  19.202  20.979   2.267
68501W        W36906  31.669  10.682  14.320
68502W        W36907  34.422  16.333  13.340
68503W        W36908  13.940  39.553  13.496
68504W        W36909  10.412   1.241  14.613
68505W        W36910  10.732  42.668   0.832
68506W        W36911  21.526  31.201   2.584
68507W        W36912  25.139  40.126   2.216
68508W        W36913  25.656  12.569   2.188
68509W        W36914  29.999   8.643  14.339
68510W        W36915   7.241  39.748  10.585
68511W        W36916  43.888   9.348   3.632
68512W        W36917  21.633  16.101   0.807
68513W        W36918  40.542  29.354  12.576
68514W        W36919  18.175  33.965  11.965
68515W        W36920  23.556  36.542   4.174
68516W        W36921  24.120  18.574   4.670
68517W        W36922  39.072   1.760   1.946
68518W        W36923   2.313   7.837  13.411
68519W        W36924   4.743   7.985   3.801
68520W        W36925  42.295   5.544   2.525
68521W        W36926  28.482   5.740  10.691
68522W        W36927  43.523  24.922   4.202
68523W        W36928  36.841  12.436  13.953
68524W        W36929  14.625  29.381   1.278
68525W        W36930   2.944  40.832   0.003
68526W        W36931  19.180  29.206  12.435
68527W        W36932  32.999  37.843   1.456
68528W        W36933  21.683  43.897   2.398
68529W        W36934  10.807  19.445  12.057
68530W        W36935  31.408   6.024  13.902
68531W        W36936  12.602  39.792   2.022
68532W        W36937  37.802  43.470   3.160
68533W        W36938   1.706  39.374  12.731
68534W        W36939  26.507   6.144  12.944
68535W        W36940  36.058  18.078  11.130
68536W        W36941  28.799   8.885   4.613
68537W        W36942  39.048   2.681   3.185
68538W        W36943  14.230  20.917   3.275
68539W        W36944  40.347  13.735   0.601
68540W        W36945  24.783  42.494   2.885
68541W        W36946  24.081   2.481  12.503
68542W        W36947  12.199  12.613   3.855
68543W        W36948  11.455  11.044  10.694
68544W        W36949  40.257   9.324  14.789
68545W        W36950  34.809  25.563   1.196
68546W        W36951  11.075  35.429   2.285
68547W        W36952  27.229  32.992  11.294
68548W        W36953  33.848   0.456   4.044
68549W        W36954   6.829   0.856  13.987
68550W        W36955  34.040  38.909   4.504
68551W        W36956  25.761   3.403  14.763
68552W        W36957  38.562  27.037  10.693
68553W        W36958  20.539  40.738  10.902
68554W        W36959   5.739  30.204  12.187
68555W        W36960  24.927  29.948  13.221
68556W        W36961  30.217  19.381   4.065
68557W        W36962  40.292  30.030  12.121
68558W        W36963  19.090   5.639  12.438
68559W        W36964  43.474   3.682   3.798
68560W        W36965   2.297  31.460  11.371
68561W        W36966   8.678   9.824   0.853
68562W        W36967  30.630  13.555   2.178
68563W        W36968  15.540  16.598   0.069
68564W        W36969  36.557   4.288   2.944
68565W        W36970  22.293  20.127   0.438
68566W        W36971  23.769  27.718   2.129
68567W        W36972  34.815  33.527  13.741
68568W        W36973  40.018  22.711   1.267
68569W        W36974   3.577  15.346   2.822
68570W        W36975  21.620  25.788  13.906
68571W        W36976   6.676  44.468   3.698
68572W        W36977  44.171  36.838  13.175
68573W        W36978  16.926  36.932   1.056
68574W        W36979   7.705  27.935   1.644
68575W        W36980  17.104   8.144   3.184
68576W        W36981  30.075  10.278   4.541
68577W        W36982  37.310   3.369   5.017
68578W        W36983  36.863  31.540   1.364
68579W        W36984  12.110  15.327   5.040
68580W        W36985  22.772   3.438   3.283
68581W        W36986  40.936  44.460  13.976
68582W        W36987  22.719  34.644   3.276
68583W        W36988  43.116   3.160  13.477
68584W        W36989  44.927  17.516  10.682
68585W        W36990  37.494  25.926   0.451
68586W        W36991   2.348  26.309   2.425
68587W        W36992  15.730  34.082  10.784
68588W        W36993  40.978  16.539   0.642
68589W        W36994   2.359  24.657   3.686
68590W        W36995  27.469  21.763  11.607
68591W        W36996  21.767  21.599   4.988
68592W        W36997  35.905  13.189  13.573
68593W        W36998   9.165  15.115  11.979
68594W        W36999  35.767  38.167   3.599
68595W        W37000   4.326  13.871  12.862
68596W        W37001  32.335   6.115   2.447
68597W        W37002  23.197   3.110   2.399
68598W        W37003  24.597  17.339   5.037
68599W        W37004  25.364   3.694  11.566
68600W        W37005  43.716  14.289   0.864
68601W        W37006  30.632  33.796   0.335
68602W        W37007  22.037  21.678  12.382
68603W        W37008   0.386  22.744   1.267
68604W        W37009   1.932  20.494   4.898
68605W        W37010  32.594  36.049   1.316
68606W        W37011  24.736   2.231   2.343
68607W        W37012  30.289  14.893  12.263
68608W        W37013  39.114   2.992   5.472
68609W        W37014  31.537   4.002  11.133
68610W        W37015  33.528  22.576   2.193
68611W        W37016   9.316  30.180   0.398
68612W        W37017  15.218  33.241  12.601
68613W        W37018  11.400  18.252  11.501
68614W        W37019  17.874   5.372   4.331
68615W        W37020   2.413  10.990  10.746
68616W        W37021   8.752  31.074   2.317
68617W        W37022   0.956   9.978   4.772
68618W        W37023  25.592  23.193   0.195
68619W        W37024  18.664   5.616  11.096
68620W        W37025  37.921   0.010  13.495
68621W        W37026  13.270  40.848   3.136
68622W        W37027  21.566  10.305  11.559
68623W        W37028  32.665  37.996   3.869
68624W        W37029   7.338  28.807  13.415
68625W        W37030  29.983  32.142   2.673
68626W        W37031  22.566  20.712  13.636
68627W        W37032   9.950  17.124   1.986
68628W        W37033  23.719  19.605   4.165
68629W        W37034  43.306  19.120   3.396
68630W        W37035  31.895  33.190   2.271
68631W        W37036  24.724   1.229   1.969
68632W        W37037  37.285  22.484   2.398
68633W        W37038   8.609  32.037   5.059
68634W        W37039  35.365   0.068  13.764
68635W        W37040  20.543   3.596   3.818
68636W        W37041   3.678  28.192  12.040
68637W        W37042  43.344  20.838  11.853
68638W        W37043  43.956   2.664   3.305
68639W        W37044  12.095  16.341  12.009
68640W        W37045   7.964  18.558  13.976
68641W        W37046   8.190  36.913   4.546
68642W        W37047  43.714  16.064  12.394
68643W        W37048  19.551   2.270  14.446
68644W        W37049  36.579   6.608  10.399
68645W        W37050  26.962   1.275  13.426
68646W        W37051   4.872   7.752  13.352
68647W        W37052   9.114  10.398  14.037
68648W        W37053  15.712   0.855   5.125
68649W        W37054  41.777   5.856   1.676
68650W        W37055  40.360  33.526  10.531
68651W        W37056   7.678  44.294   2.071
68652W        W37057  14.361  39.582  12.186
68653W        W37058  12.750  42.777   3.131
68654W        W37059   4.335  10.860  13.301
68655W        W37060  34.666   5.270   4.698
68656W        W37061  37.934  17.043   3.810
68657W        W37062  40.634   9.937  14.319
68658W        W37063  17.802  13.332   4.074
68659W        W37064  25.729  42.949   0.375
68660W        W37065  42.384  11.091  11.095
68661W        W37066  38.162  12.534   0.188
68662W        W37067  29.678   7.845  12.814
68663W        W37068   5.729  28.388   2.677
68664W        W37069  23.135  21.525   3.850
68665W        W37070   2.783  11.322  14.419
68666W        W37071  36.356  21.362  13.447
68667W        W37072   6.044  43.609  11.597
68668W        W37073   9.811  13.156  11.170
68669W        W37074  32.041  27.455  12.164
68670W        W37075  31.632  27.125  12.265
68671W        W37076  34.398   6.364  10.561
68672W        W37077  39.957  39.872  14.755
68673W        W37078  28.221  18.260  13.500
68674W        W37079   8.476   5.309   4.770
68675W        W37080  35.626  12.178   1.178
68676W        W37081   7.165  13.298   2.363
68677W        W37082  15.840  30.100  13.993
68678W        W37083   7.769  23.136  10.612
68679W        W37084  25.385  42.429   4.550
68680W        W37085   8.835  33.491  12.671
68681W        W37086  24.737  31.836  13.729
68682W        W37087   4.279   6.007   3.088
68683W        W37088  42.783  33.092  10.247
68684W        W37089  19.021   6.240   2.933
68685W        W37090  43.859  28.452  12.890
68686W        W37091  14.284  36.201   3.893
68687W        W37092  41.570  15.695  14.299
68688W        W37093  24.354   9.213   4.394
68689W        W37094  33.726  33.798  11.563
68690W        W37095  44.541  39.967  13.041
68691W        W37096   0.892  33.862  14.250
68692W        W37097   0.415  33.144   1.352
68693W        W37098  12.838  15.503  11.385
68694W        W37099  26.907  37.592  12.450
68695W        W37100  34.133  38.112  13.635
68696W        W37101  44.190   8.262  14.929
68697W        W37102   6.722   8.776   2.840
68698W        W37103  24.232  21.050  11.663
68699W        W37104  31.609   1.344   0.318
68700W        W37105  35.426  39.604  12.709
68701W        W37106  28.059   6.567  14.777
68702W        W37107   6.839  44.270   3.250
68703W        W37108  17.024   2.772   3.130
68704W        W37109  25.695  13.842  11.508
68705W        W37110  15.110  25.885   0.812
68706W        W37111  28.134   3.122  13.100
68707W        W37112  38.511  42.817   1.824
68708W        W37113  17.621  30.470  14.094
68709W        W37114   5.129  22.497   2.544
68710W        W37115  16.040  21.211   0.169
68711W        W37116   8.718  39.320   3.177
68712W        W37117  39.996  23.887   2.269
68713W        W37118   8.178  13.721  12.548
68714W        W37119  42.727  10.926  11.874
68715W        W37120  36.382  11.646  11.715
68716W        W37121  16.209   7.351  14.822
68717W        W37122  37.881  41.757  14.589
68718W        W37123  29.366  38.867   3.226
68719W        W37124   8.084  22.756   0.292
68720W        W37125  36.314  14.438   1.883
68721W        W37126  10.594   6.180  12.414
68722W        W37127  28.006  19.834  11.181
68723W        W37128   8.622   8.590  14.997
68724W        W37129  37.820   3.226  12.954
68725W        W37130  28.196  23.804   4.253
68726W        W37131  13.453  24.766  10.989
68727W        W37132  16.516  42.715   3.676
68728W        W37133  26.043  38.137  14.293
68729W        W37134  40.086  37.977   3.852
68730W        W37135  21.982  16.494   4.172
68731W        W37136  10.590   0.877  13.466
68732W        W37137  32.670  29.073   4.532
68733W        W37138   5.805   2.889   3.970
68734W        W37139  27.925   0.488  13.597
68735W        W37140  14.652  20.252   2.616
68736W        W37141  22.448  38.035  13.325
68737W        W37142  15.709  43.017  11.958
68738W        W37143  11.866  26.968   0.422
68739W        W37144  10.807  21.528  14.799
68740W        W37145   0.316   8.750  13.523
68741W        W37146  30.831  32.675  10.835
68742W        W37147  39.282  35.772   0.488
68743W        W37148  34.966  10.823  11.506
68744W        W37149  27.113   4.841  11.874
68745W        W37150  24.964   8.437  14.058
68746W        W37151  34.171  26.543  12.968
68747W        W37152  18.611   8.356   1.801
68748W        W37153  25.671  24.436  14.564
68749W        W37154   4.377  33.884   4.175
68750W        W37155   0.759  43.312   0.699
68751W        W37156   0.878  15.224  12.853
68752W        W37157  24.878   1.811   4.769
68753W        W37158  44.056  29.337   1.350
68754W        W37159  26.508  34.011   2.303
68755W        W37160  18.973  19.614   0.018
68756W        W37161  26.485   6.259   0.505
68757W        W37162  39.832  22.170  13.994
68758W        W37163  40.066  31.506   1.296
68759W        W37164  36.957  22.946   1.562
68760W        W37165   7.658  34.127   3.297
68761W        W37166  18.582  43.697  12.590
68762W        W37167  10.257  24.046  10.672
68763W        W37168  14.665  18.148  10.042
68764W        W37169   3.164  32.876   1.871
68765W        W37170  18.602  33.433  12.539
68766W        W37171  40.972  18.040   1.286
68767W        W37172  19.626  38.126  13.029
68768W        W37173  14.240  36.845  14.469
68769W        W37174   4.348  42.477   3.277
68770W        W37175  34.201   5.195  13.434
68771W        W37176  36.917  42.980   3.231
68772W        W37177  34.036  16.771   2.577
68773W        W37178  33.575   7.276   4.040
68774W        W37179  27.964  23.769   1.278
68775W        W37180  31.223  23.108   0.442
68776W        W37181   1.788   7.601  13.445
68777W        W37182  44.243  41.443  14.857
68778W        W37183  14.766  15.910   1.236
68779W        W37184  39.375  10.419   0.416
68780W        W37185   4.289  28.732  14.406
68781W        W37186   0.231  11.121  11.073
68782W        W37187   0.854  17.036   2.377
68783W        W37188   9.209   6.801  14.436
68784W        W37189   3.917  37.422   1.511
68785W        W37190  22.581   7.527   2.343
68786W        W37191  35.250  35.981  14.868
68787W        W37192  20.536  20.286   4.470
68788W        W37193  28.493  36.827   1.641
68789W        W37194  35.008  42.932   0.899
68790W        W37195   5.214  10.827  11.634
68791W        W37196  26.958   4.172   0.900
68792W        W37197  17.549  12.626  11.053
68793W        W37198  33.069  15.823   2.320
68794W        W37199   4.833  34.059  12.917
68795W        W37200   4.437  19.634  14.892
68796W        W37201   4.499  35.034  14.328
68797W        W37202  39.272  42.829   2.245
68798W        W37203  15.780  15.325  11.890
68799W        W37204  19.653  39.439   4.538
68800W        W37205  15.754  38.585   0.278
68801W        W37206   9.691  10.674  10.372
68802W        W37207  17.032  20.801   2.193
68803W        W37208  40.427  31.148  10.591
68804W        W37209  21.103  38.086   4.529
68805W        W37210  22.248  20.307  11.864
68806W        W37211  37.047  22.293  14.766
68807W        W37212   7.477  15.751   3.229
68808W        W37213  10.111  18.975  12.547
68809W        W37214  11.315  31.945   0.519
68810W        W37215  38.035  31.416   4.648
68811W        W37216  42.297   2.148   1.704
68812W        W37217   5.471  35.630  14.463
68813W        W37218   9.353   0.322  14.469
68814W        W37219  44.626  31.989  11.787
68815W        W37220  22.300  13.479   0.215
68816W        W37221  20.797   6.436   2.327
68817W        W37222   0.282   1.250   2.225
68818W        W37223  20.405  27.166   4.573
68819W        W37224   5.741  21.027   3.207
68820W        W37225  40.506   5.923   2.459
68821W        W37226  26.582   5.826   0.813
68822W        W37227  26.595  26.269   3.008
68823W        W37228   5.034  23.362  11.544
68824W        W37229  37.608  40.546  11.600
68825W        W37230  21.709   8.737   4.995
68826W        W37231   9.258  27.486   3.672
68827W        W37232  34.234  29.440  12.389
68828W        W37233  12.713  31.066  11.390
68829W        W37234   5.313  21.472  12.790
68830W        W37235   9.136   4.942   3.636
68831W        W37236  26.096   7.892   4.223
68832W        W37237   7.145  18.515  10.374
68833W        W37238  32.342  44.029  13.487
68834W        W37239  18.168   5.950  14.243
68835W        W37240  36.662  40.401   0.292
68836W        W37241  19.730  13.036   3.521
68837W        W37242   3.257  34.356   2.721
68838W        W37243  20.327   2.427  12.390
68839W        W37244  34.532  44.042   1.456
68840W        W37245  30.703  44.372  11.030
68841W        W37246  35.863  42.763  11.138
68842W        W37247   0.878  35.480   1.221
68843W        W37248  29.942  14.631   1.297
68844W        W37249  41.417  37.856  10.800
68845W        W37250   2.144   1.752  13.428
68846W        W37251   7.474  41.746   1.790
68847W        W37252  25.568   5.362  10.810
68848W        W37253  13.721  23.767   4.639
68849W        W37254  44.369  30.287   0.381
68850W        W37255  44.930  35.047   1.770
68851W        W37256  20.242  12.461  10.214
68852W        W37257  16.003  28.212   4.033
68853W        W37258  16.864   7.157   1.888
68854W        W37259  40.456  19.299   4.101
68855W        W37260  36.327  42.947  14.832
68856W        W37261  13.363  15.451   0.987
68857W        W37262  34.633   7.613   0.051
68858W        W37263  38.383   9.060  11.215
68859W        W37264  37.599  23.549   3.410
68860W        W37265  11.736   7.311  12.967
68861W        W37266  30.190  42.344  12.362
68862W        W37267  32.054   1.410   1.019
68863W        W37268  16.337  10.719  10.220
68864W        W37269   5.234  33.631  12.858
68865W        W37270   7.686  40.004  11.729
68866W        W37271  27.688  16.528  13.090
68867W        W37272  42.860   7.811   3.527
68868W        W37273  22.993  34.962   1.886
68869W        W37274   5.707  42.890   3.862
68870W        W37275  32.096  12.668   4.899
68871W        W37276   3.182  40.950  11.960
68872W        W37277  28.558  24.665   2.621
68873W        W37278   5.529  30.844  11.106
68874W        W37279  32.489  35.864   3.675
68875W        W37280  14.319  15.714   0.303
68876W        W37281  10.709   2.734  12.116
68877W        W37282  33.969   7.744   2.004
68878W        W37283  18.066   3.842  11.735
68879W        W37284  22.639  30.509   1.472
68880W        W37285  22.259  18.284  14.431
68881W        W37286   1.254   7.412   3.151
68882W        W37287  17.257  43.824   3.114
68883W        W37288  24.942   2.768  12.450
68884W        W37289  17.038  26.189  13.572
68885W        W37290  30.428  41.827  13.052
68886W        W37291  22.094   0.727  12.047
68887W        W37292  29.105  20.557  11.656
68888W        W37293  42.052  41.825   0.871
68889W        W37294  28.793  20.690   0.877
68890W        W37295  20.210  29.263   3.084
68891W        W37296   5.178  24.037   2.693
68892W        W37297   7.099  16.820  11.523
68893W        W37298  34.904  23.265  14.506
68894W        W37299   9.271  34.200   4.615
68895W        W37300  35.242  18.048  12.603
68896W        W37301   0.249  12.630  13.529
68897W        W37302   0.202  40.415  11.572
68898W        W37303  31.149  44.964   3.162
68899W        W37304  36.986   7.748  13.646
68900W        W37305   3.965   9.163   5.580
68901W        W37306  18.147  17.912  12.084
68902W        W37307  17.845   7.128   2.729
68903W        W37308  13.828  22.211   0.878
68904W        W37309  42.253  31.177  11.696
68905W        W37310  29.951  43.813   2.572
68906W        W37311  15.516  29.348  12.786
68907W        W37312  43.147  41.020  11.068
68908W        W37313   2.804  32.998  10.498
68909W        W37314  33.498  40.317   1.838
68910W        W37315  41.360  22.186   0.120
68911W        W37316  42.082   3.889   2.268
68912W        W37317   6.314  43.218   2.566
68913W        W37318  18.970  40.977   1.257
68914W        W37319  24.118   8.698  14.000
68915W        W37320  17.140  27.402   4.184
68916W        W37321  31.042   5.838  12.540
68917W        W37322  24.171  34.079   3.402
68918W        W37323  41.676  31.495  13.492
68919W        W37324  33.175  15.626   0.991
68920W        W37325  35.627  12.310   0.257
68921W        W37326   1.446  39.975  14.859
68922W        W37327  25.177  10.437   3.223
68923W        W37328  41.527  41.849   2.542
68924W        W37329  28.986   2.180   2.211
68925W        W37330  43.576  37.722   2.864
68926W        W37331  28.544  40.085   4.003
68927W        W37332  27.079  30.049   4.560
68928W        W37333  26.679  23.088  13.958
68929W        W37334  22.507  21.228   1.405
68930W        W37335   4.234  36.261  12.563
68931W        W37336   8.387  15.095  13.099
68932W        W37337  30.140  12.702   4.706
68933W        W37338   0.970  16.975  10.901
68934W        W37339   0.286  34.939  12.026
68935W        W37340   9.295  38.398   2.960
68936W        W37341  40.597  26.137   0.251
68937W        W37342  35.551  22.489   4.269
68938W        W37343  41.251  13.359   2.831
68939W        W37344  22.823   7.111  14.830
68940W        W37345   8.962   3.796  13.204
68941W        W37346  34.848   1.373  14.451
68942W        W37347   9.841  38.479   5.040
68943W        W37348  30.713  21.651   2.709
68944W        W37349  14.661  23.093   1.950
68945W        W37350   3.196  33.810   2.126
68946W        W37351  30.471   3.349   1.327
68947W        W37352   7.203   1.979   0.506
68948W        W37353  19.852  22.922  11.600
68949W        W37354  10.298  21.546  13.012
68950W        W37355   9.780  41.772  14.021
68951W        W37356  18.301  38.486  10.704
68952W        W37357  23.533  10.305  14.563
68953W        W37358   0.444  44.783  11.624
68954W        W37359   4.477  20.259  10.573
68955W        W37360  12.520  23.947  13.327
68956W        W37361  42.782  34.149  11.376
68957W        W37362  31.787  30.095  10.446
68958W        W37363  13.833   1.720  14.407
68959W        W37364   5.982   5.204   4.311
68960W        W37365  24.910   4.844  11.669
68961W        W37366   5.262  19.397   0.252
68962W        W37367   1.272  44.950   0.068
68963W        W37368  26.139   5.463  11.436
68964W        W37369   6.380   8.662   2.233
68965W        W37370  38.882  19.719  12.955
68966W        W37371  22.586  34.982   3.771
68967W        W37372  34.642  30.497   3.720
68968W        W37373   5.966   9.597  13.462
68969W        W37374  36.277  18.838   2.847
68970W        W37375  42.434  33.630   3.286
68971W        W37376   8.173  44.256   3.157
68972W        W37377  18.723  10.216   4.490
68973W        W37378  29.911  36.378   2.212
68974W        W37379   2.429   2.929  10.905
68975W        W37380  13.320  23.171  13.401
68976W        W37381  40.508   6.951  10.250
68977W        W37382   4.753  41.441   2.080
68978W        W37383  24.958  24.552  11.150
68979W        W37384  34.328  39.493  13.586
68980W        W37385  33.913  26.488   3.225
68981W        W37386  13.616  26.165  13.792
68982W        W37387   5.440  13.699   1.432
68983W        W37388  38.830  31.490  12.877
68984W        W37389  28.851  32.298  11.998
68985W        W37390  13.072  24.022   2.887
68986W        W37391  38.469  20.123   4.719
68987W        W37392  11.239  28.955  12.831
68988W        W37393  28.288  27.664   4.504
68989W        W37394  10.753  44.494   2.332
68990W        W37395  30.717   2.332   2.201
68991W        W37396  23.073  14.842  12.136
68992W        W37397  22.617   0.935  14.827
68993W        W37398  15.642  12.618   1.750
68994W        W37399   6.131  15.527   4.147
68995W        W37400  38.881   6.272   4.458
68996W        W37401   2.834   9.607  11.932
68997W        W37402   6.368   5.377  11.861
68998W        W37403   1.766  25.518  12.166
68999W        W37404  27.872  29.570   0.219
69000W        W37405  13.812  41.988  14.942
69001W        W37406   0.332  32.102   4.790
69002W        W37407   7.324   6.961   1.694
69003W        W37408  39.844  37.345  14.241
69004W        W37409  31.862   6.777  14.362
69005W        W37410   4.254   2.361  14.362
69006W        W37411  10.678  37.400  13.914
69007W        W37412  15.327  39.404  14.817
69008W        W37413   9.692  10.439  11.537
69009W        W37414  19.670   5.742  13.426
69010W        W37415   4.626  38.215   0.275
69011W        W37416   1.777  19.124   4.158
69012W        W37417  42.952   3.671  10.754
69013W        W37418   0.712  41.219   4.275
69014W        W37419  28.216   4.141   3.786
69015W        W37420  33.181  10.899  14.503
69016W        W37421   4.428  14.111  10.650
69017W        W37422  30.209   6.910  11.090
69018W        W37423  37.836  15.645   2.427
69019W        W37424  25.967   0.778   2.950
69020W        W37425  33.699  44.964   4.089
69021W        W37426  20.764  27.651   2.888
69022W        W37427  15.919  20.883   4.683
69023W        W37428  28.188  37.540   0.971
69024W        W37429  13.808   6.917   1.955
69025W        W37430   2.517  43.438   4.510
69026W        W37431  32.999   9.035  10.641
69027W        W37432  40.224  36.412  13.928
69028W        W37433  23.101  27.861   3.620
69029W        W37434  19.037  27.627  13.408
69030W        W37435   5.266  23.987   0.927
69031W        W37436  15.511   6.792  13.470
69032W        W37437   1.268  36.842   2.756
69033W        W37438  31.924  11.162  11.732
69034W        W37439  31.440  19.299  10.647
69035W        W37440  24.533   5.263  12.581
69036W        W37441  12.744  29.447   2.097
69037W        W37442   8.854  34.780   4.261
69038W        W37443  20.056  37.622  12.653
69039W        W37444   7.732  21.068   3.667
69040W        W37445  41.648   1.637  12.421
69041W        W37446  31.282  37.964   0.007
69042W        W37447  19.082  21.191  13.546
69043W        W37448  19.675   5.802  11.045
69044W        W37449   4.265  10.163  11.594
69045W        W37450  29.950  18.452  13.574
69046W        W37451  19.453   9.144   0.003
69047W        W37452  44.325  24.506  12.026
69048W        W37453  43.099  12.647  11.197
69049W        W37454  38.470  25.092  12.078
69050W        W37455  24.520  26.866   0.916
69051W        W37456  29.104  28.703  12.947
69052W        W37457  29.581  16.722   0.795
69053W        W37458  42.437  18.176   1.666
69054W        W37459  43.430   5.317  11.803
69055W        W37460  14.243  44.866   4.304
69056W        W37461  18.523  27.249  14.064
69057W        W37462   3.344   2.702  14.983
69058W        W37463  35.893  28.921   3.660
69059W        W37464  33.142  29.429  11.988
69060W        W37465  42.427  38.515   1.803
69061W        W37466  41.756   5.964  11.919
69062W        W37467  28.494  13.893   0.542
69063W        W37468  25.474   9.707  12.362
69064W        W37469  43.438  20.860   1.493
69065W        W37470  12.346  43.059   0.250
69066W        W37471  34.924  14.802  11.685
69067W        W37472  12.277  18.592  11.091
69068W        W37473   4.356  34.655  13.375
69069W        W37474  14.747  43.207   4.552
69070W        W37475   5.561  13.266   3.098
69071W        W37476  31.079  23.894  10.981
69072W        W37477  43.410  44.406  11.502
69073W        W37478  28.715   0.350   2.627
69074W        W37479  25.223  10.572  14.528
69075W        W37480   9.964  35.393  14.505
69076W        W37481   1.620   7.070   2.966
69077W        W37482  27.556  17.103  12.033
69078W        W37483  18.557  11.826   3.729
69079W        W37484  20.522   0.331   2.398
69080W        W37485   2.902  12.603   4.587
69081W        W37486   5.177   2.472  14.517
69082W        W37487  32.107  38.437   2.560
69083W        W37488   3.314  35.508   0.355
69084W        W37489  12.367  14.804   2.804
69085W        W37490  23.093  37.857   4.667
69086W        W37491   3.774  23.294  11.112
69087W        W37492  12.222  44.985   0.251
69088W        W37493  20.109  16.997   0.919
69089W        W37494  13.415  22.019  14.455
69090W        W37495  25.847  25.832   3.305
69091W        W37496   4.034  37.508  10.642
69092W        W37497  23.940  41.360  14.343
69093W        W37498  25.096   6.766  13.739
69094W        W37499  40.306  30.456  11.134
69095W        W37500  18.759  24.966  13.874
69096W        W37501   4.134  16.702  12.040
69097W        W37502  38.360  17.940   0.938
69098W        W37503  29.844  10.337  12.872
69099W        W37504  30.870   0.256   0.506
69100W        W37505  15.972  17.602  13.534
69101W        W37506   5.683  13.172   4.499
69102W        W37507  26.605  34.399  13.723
69103W        W37508  29.931  19.181   0.755
69104W        W37509  37.406  41.598  14.373
69105W        W37510  31.912  38.314  12.954
69106W        W37511   3.250  26.595  12.942
69107W        W37512   3.411   7.309   3.124
69108W        W37513  18.496   3.219  14.270
69109W        W37514   9.159  26.838  14.938
69110W        W37515  37.021  23.685  14.309
69111W        W37516   6.305  34.058  13.395
69112W        W37517   6.900  18.287  14.495
69113W        W37518  18.706  41.586   2.655
69114W        W37519  39.726   1.507   1.831
69115W        W37520  11.563   4.265  12.807
69116W        W37521  41.604   2.664   1.892
69117W        W37522  16.643  15.795  11.603
69118W        W37523  40.538  15.188   0.477
69119W        W37524  43.959  16.076   2.656
69120W        W37525  11.118  16.708  13.535
69121W        W37526  10.255  15.595  11.032
69122W        W37527  37.549  12.162   4.454
69123W        W37528  30.195  39.937   4.739
69124W        W37529   3.226  39.394   2.198
69125W        W37530   0.379  16.031   2.906
69126W        W37531  13.251  20.057  12.671
69127W        W37532  10.626  19.217  10.818
69128W        W37533  13.519   2.705  10.284
69129W        W37534  10.459  11.020  14.275
69130W        W37535  27.341   5.152   0.956
69131W        W37536  14.127  33.608   2.862
69132W        W37537  36.316  22.503  12.624
69133W        W37538  41.676  17.532  13.851
69134W        W37539  17.856  14.157  10.654
69135W        W37540  22.695  31.674   4.036
69136W        W37541  28.155  34.585  14.988
69137W        W37542  24.671  32.079   1.245
69138W        W37543   3.380  31.226  10.664
69139W        W37544  12.478   5.291  14.406
69140W        W37545  33.068  18.348   3.124
69141W        W37546   8.863  29.183   2.760
69142W        W37547  31.086  11.697   2.428
69143W        W37548  29.503  25.738   3.642
69144W        W37549  43.962  39.521   0.228
69145W        W37550   3.474  17.569   3.308
69146W        W37551  38.099  23.777  14.661
69147W        W37552  22.181  41.896   0.867
69148W        W37553   1.108  23.581   2.856
69149W        W37554  10.145  20.433  11.605
69150W        W37555  36.901   4.738  12.812
69151W        W37556  40.101  44.413   1.343
69152W        W37557   0.856  35.305  11.057
69153W        W37558  40.854   3.275   4.100
69154W        W37559  10.598  11.580   0.363
69155W        W37560  38.065  35.990   2.211
69156W        W37561   5.321   1.280  10.965
69157W        W37562  15.426  39.560  13.351
69158W        W37563   4.107  19.196  12.565
69159W        W37564  33.591  31.449  14.275
69160W        W37565   4.318  30.334  13.412
69161W        W37566   6.216   9.107  13.634
69162W        W37567  13.423  18.356   3.116
69163W        W37568  22.261   2.182  12.063
69164W        W37569   7.664  33.158  11.444
69165W        W37570  44.998  24.065   1.376
69166W        W37571  22.177  34.410  12.512
69167W        W37572  20.820  40.891  10.483
69168W        W37573  14.122  16.748  12.930
69169W        W37574  40.479  29.931  14.900
69170W        W37575  23.257  41.809   4.314
69171W        W37576  44.173  16.064   0.792
69172W        W37577  41.801  40.813   2.203
69173W        W37578  43.640  41.234   5.087
69174W        W37579  20.302  14.826  13.815
69175W        W37580  12.170  17.658  11.423
69176W        W37581  23.732   7.590   0.873
69177W        W37582  23.575  29.426   2.858
69178W        W37583  39.995  24.903  12.511
69179W        W37584  33.253   4.665  12.764
69180W        W37585   8.192  32.203  11.108
69181W        W37586  18.792  29.664   1.762
69182W        W37587  17.524  43.863   1.890
69183W        W37588  13.315  28.697  10.931
69184W        W37589  44.081   7.142   2.963
69185W        W37590  38.483   3.197  11.487
69186W        W37591  44.261   4.659   0.424
69187W        W37592  16.879  29.967  14.919
69188W        W37593   9.776  16.076   4.047
69189W        W37594  35.866  14.720  13.951
69190W        W37595  40.873  23.247   2.102
69191W        W37596   5.106  44.964  14.978
69192W        W37597  34.530   7.429  12.115
69193W        W37598   4.247  29.944  13.882
69194W        W37599  42.322   3.482  14.346
69195W        W37600  37.819  21.756  14.791
69196W        W37601  23.267  33.488  14.715
69197W        W37602  17.459  10.249  12.065
69198W        W37603  26.145  29.590  12.873
69199W        W37604  10.069   0.440   5.007
69200W        W37605  29.026  19.642   0.465
69201W        W37606   1.395  28.960   0.954
69202W        W37607   5.311   0.091  13.082
69203W        W37608   2.362   6.699   0.511
69204W        W37609  33.948  31.466  12.466
69205W        W37610  12.395  27.214  12.058
69206W        W37611   7.780  17.249  14.591
69207W        W37612  25.266  35.464  14.066
69208W        W37613   8.358  19.323   0.384
69209W        W37614   3.919  28.060   2.411
69210W        W37615  20.019  33.102   3.860
69211W        W37616  32.179  40.986  10.849
69212W        W37617  22.700  41.362  10.578
69213W        W37618  38.175  14.274   4.121
69214W        W37619   0.234  14.257  14.774
69215W        W37620  35.381  15.363  12.103
69216W        W37621  43.483  16.582   1.828
69217W        W37622  35.103  41.913   2.564
69218W        W37623  37.156  32.653  12.014
69219W        W37624  21.266  18.661  12.184
69220W        W37625  42.330   4.330  13.763
69221W        W37626  15.059   9.123  14.401
69222W        W37627  29.058  37.815  12.919
69223W        W37628  43.933  28.079  12.536
69224W        W37629  22.852  37.824   0.469
69225W        W37630   3.693   9.743  12.826
69226W        W37631   3.973   8.741   1.318
69227W        W37632  11.544  10.353  13.867
69228W        W37633   8.214  20.746   0.017
69229W        W37634  21.723  14.161  10.452
69230W        W37635  42.506  22.288  11.965
69231W        W37636  28.536  31.031  12.603
69232W        W37637  34.591  44.290   0.056
69233W        W37638  10.443  32.458   1.359
69234W        W37639  16.132  23.164  12.973
69235W        W37640   1.074  30.854   1.451
69236W        W37641   1.348  26.769  13.838
69237W        W37642  29.887   2.633   1.435
69238W        W37643  14.825  32.847   1.828
69239W        W37644  17.549  18.127   2.230
69240W        W37645  36.520  10.681  14.461
69241W        W37646  41.340   6.238  14.845
69242W        W37647  27.814   8.681   4.562
69243W        W37648   5.765  44.484  10.645
69244W        W37649  18.628  36.074   2.796
69245W        W37650  20.998  32.004   3.988
69246W        W37651  17.329  35.508  11.873
69247W        W37652  38.037  43.943  12.172
69248W        W37653  37.391  29.779   3.191
69249W        W37654  37.403   1.399  14.755
69250W        W37655   1.854  19.169   3.643
69251W        W37656  40.234  20.087   3.754
69252W        W37657  21.621  11.753  11.827
69253W        W37658  41.895   6.383   2.738
69254W        W37659   4.649  10.809   4.068
69255W        W37660  31.508   9.934   2.464
69256W        W37661  21.307  24.039  14.744
69257W        W37662   7.797   7.874  12.413
69258W        W37663  41.256  26.927   3.252
69259W        W37664  22.551  11.862   2.005
69260W        W37665   2.191  22.540  14.342
69261W        W37666   2.149  44.041  10.951
69262W        W37667  16.802  18.455   0.388
69263W        W37668  31.055  44.509   1.772
69264W        W37669  40.399  39.309  14.241
69265W        W37670  28.000   6.441   2.348
69266W        W37671  31.383   7.950  12.636
69267W        W37672  14.678  14.213   2.003
69268W        W37673  35.930  21.217  10.859
69269W        W37674  23.775  21.179  14.349
69270W        W37675  38.936  29.528   1.704
69271W        W37676  10.603  44.017   4.560
69272W        W37677  28.659  18.983  14.957
69273W        W37678  27.073  38.912   1.344
69274W        W37679  19.739   4.978   1.770
69275W        W37680  37.041  26.948  14.471
69276W        W37681  40.746   8.699  13.780
69277W        W37682  28.115  17.985  11.378
69278W        W37683  34.428  18.171   1.979
69279W        W37684   4.913  17.626  10.633
69280W        W37685  41.455  16.274   2.367
69281W        W37686   0.400  24.143   3.968
69282W        W37687  22.185  11.656  12.997
69283W        W37688   7.210  36.679  13.388
69284W        W37689   8.319  31.849   0.280
69285W        W37690   3.205   8.693   3.328
69286W        W37691  38.209  27.014  13.472
69287W        W37692  37.617  32.240  10.598
69288W        W37693  18.529   0.537   2.395
69289W        W37694  29.070  11.737  11.481
69290W        W37695  35.495   9.478  13.791
69291W        W37696  13.775  31.394   3.297
69292W        W37697  24.397  28.461  10.769
69293W        W37698  43.910  39.771   0.737
69294W        W37699  17.312  40.768  12.100
69295W        W37700   5.307   6.770   3.078
69296W        W37701  12.267  14.791   4.405
69297W        W37702  23.232  31.515   0.653
69298W        W37703  31.599   9.058  10.351
69299W        W37704  19.030  38.157   4.526
69300W        W37705  43.462   6.707   2.705
69301W        W37706  20.045  17.186  10.751
69302W        W37707  43.003  10.424  11.265
69303W        W37708  34.956  36.814  12.491
69304W        W37709  29.531  37.999  12.002
69305W        W37710  13.733  18.556   3.747
69306W        W37711  14.096  10.800  13.593
69307W        W37712  16.363  38.518   1.153
69308W        W37713  27.435  12.910   4.430
69309W        W37714  18.295  14.092   3.851
69310W        W37715  15.482  43.261  12.402
69311W        W37716   4.895  40.069   4.195
69312W        W37717  40.524  43.771  14.697
69313W        W37718  13.047   9.740   3.207
69314W        W37719  32.629  13.674   4.215
69315W        W37720  43.645   7.684   4.493
69316W        W37721  30.091  14.032  11.098
69317W        W37722  40.576  42.242   2.788
69318W        W37723  21.626  42.037   1.001
69319W        W37724  37.899  39.252   4.696
69320W        W37725  31.910  15.767   1.661
69321W        W37726  27.272  28.193   0.149
69322W        W37727  42.838   9.173   3.555
69323W        W37728   5.775  21.245  12.991
69324W        W37729  20.232  43.790   2.265
69325W        W37730  14.270  29.514   1.889
69326W        W37731  35.531  13.426   0.962
69327W        W37732  43.329  36.786   2.568
69328W        W37733   8.667  41.737   1.352
69329W        W37734  19.859  31.821   1.830
69330W        W37735  28.569  16.234   2.200
69331W        W37736   9.302  24.902  11.213
69332W        W37737   8.827   8.249   4.988
69333W        W37738  15.268  23.989  10.707
69334W        W37739  39.427  16.848  13.552
69335W        W37740  13.626  41.555  12.521
69336W        W37741  18.698  44.445  12.863
69337W        W37742  23.569  17.067   1.412
69338W        W37743   4.222  25.839  12.044
69339W        W37744  31.280  24.001   4.575
69340W        W37745   3.330   9.808  11.940
69341W        W37746  25.623  10.846  13.681
69342W        W37747  13.822  16.570   1.265
69343W        W37748  14.783   8.629   0.476
69344W        W37749  44.677  36.886  13.085
69345W        W37750  17.905  34.333   5.173
69346W        W37751  39.817  41.289  13.556
69347W        W37752  19.656  38.582  12.833
69348W        W37753  38.686  28.210  12.947
69349W        W37754   6.631  38.572  10.681
69350W        W37755  29.322  32.078  12.174
69351W        W37756  12.560  22.583  13.062
69352W        W37757   6.633  24.933   2.311
69353W        W37758  18.786  44.435  13.866
69354W        W37759  14.816   2.467  12.981
69355W        W37760  28.814  32.178  11.055
69356W        W37761   6.993  39.413   0.461
69357W        W37762   1.696  16.726  12.991
69358W        W37763   3.245  35.821   3.551
69359W        W37764  43.139  26.773  10.710
69360W        W37765  30.271   6.463   1.391
69361W        W37766  10.929   3.463  14.891
69362W        W37767  41.289   5.700  10.311
69363W        W37768  36.933  20.703  10.631
69364W        W37769   7.045  19.066   3.358
69365W        W37770  34.777  23.506  11.612
69366W        W37771  40.102  18.154   1.776
69367W        W37772  15.777  44.218   3.683
69368W        W37773  44.078  17.047   2.281
69369W        W37774  19.203  17.071   4.637
69370W        W37775  26.218  20.973   3.647
69371W        W37776  26.201   6.579  12.961
69372W        W37777  42.260   0.821  10.999
69373W        W37778  24.305  11.067  11.964
69374W        W37779   6.401  37.549  13.075
69375W        W37780  12.665  16.192  12.522
69376W        W37781  21.598  21.716   5.494
69377W        W37782   4.329   1.717   0.505
69378W        W37783   1.769  12.411  10.798
69379W        W37784  31.424  33.011   2.165
69380W        W37785   5.870   6.018   1.383
69381W        W37786  41.057   2.354  12.866
69382W        W37787  25.686  12.597   2.701
69383W        W37788  39.178  26.601   0.895
69384W        W37789  23.741  21.660   2.703
69385W        W37790  20.319   1.760  13.627
69386W        W37791  11.644  32.181  11.564
69387W        W37792  21.290  16.807   2.837
69388W        W37793  33.662  33.969  10.677
69389W        W37794  34.028  15.724   1.604
69390W        W37795  32.116  32.485  14.220
69391W        W37796  43.458  24.955  13.882
69392W        W37797  17.331  30.993  13.831
69393W        W37798  32.120   0.504   0.670
69394W        W37799  14.783  19.724   4.617
69395W        W37800  30.169   9.182   0.204
69396W        W37801  23.052  41.401   3.835
69397W        W37802  12.654  34.058   0.572
69398W        W37803  37.200   8.713   1.373
69399W        W37804  21.079  15.862   2.668
69400W        W37805   9.664  28.525  13.835
69401W        W37806  18.584  40.796   3.274
69402W        W37807  38.847  19.631  10.478
69403W        W37808  16.564  10.291  11.613
69404W        W37809  34.982  28.741   1.741
69405W        W37810  33.332  42.623  14.895
69406W        W37811  32.347   2.006   3.127
69407W        W37812   3.925   5.500  13.573
69408W        W37813  13.836   5.246  11.960
69409W        W37814   7.669  29.878  12.145
69410W        W37815  25.899  15.044  11.381
69411W        W37816  39.400   0.251  14.036
69412W        W37817   5.186  19.670  11.973
69413W        W37818  42.316  17.535   3.479
69414W        W37819  25.019  13.837   0.279
69415W        W37820  20.098  18.140   4.625
69416W        W37821  36.591   8.938  12.456
69417W        W37822   3.734  29.604  13.504
69418W        W37823  38.255  17.118   3.431
69419W        W37824  24.211  31.416  14.970
69420W        W37825   5.649  12.320   0.919
69421W        W37826  35.968  34.068  11.061
69422W        W37827  13.669  30.556  11.672
69423W        W37828   0.446   0.063  10.843
69424W        W37829   1.054  21.026  10.941
69425W        W37830  17.265  44.023  13.746
69426W        W37831   1.101  40.564  11.208
69427W        W37832  15.061   2.332   1.643
69428W        W37833  32.957  40.361   4.501
69429W        W37834  33.979  37.005   2.486
69430W        W37835   6.781  19.355  10.662
69431W        W37836  36.067  20.386  13.013
69432W        W37837  38.336   2.422   0.344
69433W        W37838  41.323  35.394  12.068
69434W        W37839  23.794  11.663  12.592
69435W        W37840   4.577  10.838   0.338
69436W        W37841  27.130   1.057  13.885
69437W        W37842  43.895  31.018   0.995
69438W        W37843   0.903  29.493   2.433
69439W        W37844  27.074  38.564  13.053
69440W        W37845  11.307   1.691  10.370
69441W        W37846  34.446  23.076  13.588
69442W        W37847  12.712   6.276  11.962
69443W        W37848  38.939  12.161   0.301
69444W        W37849   1.517  41.572  12.053
69445W        W37850  40.464  43.900  11.111
69446W        W37851  37.475  18.255   4.692
69447W        W37852  44.075  34.830   0.881
69448W        W37853  26.351  28.697  12.196
69449W        W37854  33.345  14.290  11.133
69450W        W37855   6.243  12.811  14.875
69451W        W37856  15.535  34.118   0.792
69452W        W37857  36.585   8.251  11.406
69453W        W37858  41.924   3.602   5.168
69454W        W37859  22.102   3.256   1.624
69455W        W37860  34.613  23.994  13.780
69456W        W37861  35.123  34.086   3.783
69457W        W37862  21.144   8.224  10.830
69458W        W37863  32.540  29.356   0.362
69459W        W37864  23.566   9.811  11.316
69460W        W37865  23.567  27.453  14.829
69461W        W37866   3.341  40.585   0.717
69462W        W37867  11.698  14.150  12.038
69463W        W37868  13.770  44.820   4.123
69464W        W37869  26.500  22.267  13.351
69465W        W37870  30.137   1.742  12.886
69466W        W37871   7.268  17.758   3.482
69467W        W37872  15.565  37.475  11.399
69468W        W37873  24.012  26.485   0.264
69469W        W37874  19.217  40.766   1.657
69470W        W37875   4.276  38.410   4.382
69471W        W37876  31.388  13.116  12.882
69472W        W37877   8.970  31.940   1.576
69473W        W37878  40.995  20.006   4.053
69474W        W37879  18.616  11.137   2.448
69475W        W37880  29.077   0.400   0.212
69476W        W37881  14.237  11.541   4.725
69477W        W37882  15.359   6.348   3.067
69478W        W37883  44.991  42.406  11.549
69479W        W37884  33.888  40.522   4.830
69480W        W37885   0.906  37.833   1.891
69481W        W37886   6.468  13.894   2.252
69482W        W37887  23.083  22.192   1.332
69483W        W37888  16.755  17.516  11.929
69484W        W37889  11.670  25.402   1.262
69485W        W37890   7.731  43.932  11.383
69486W        W37891  12.959  28.966   0.487
69487W        W37892  27.935  39.100  12.072
69488W        W37893  14.554   3.228  13.424
69489W        W37894  15.773   7.682   1.636
69490W        W37895  41.038   2.273   2.819
69491W        W37896  34.862  14.728  13.048
69492W        W37897  27.431  26.986  12.449
69493W        W37898  38.510  12.681   1.633
69494W        W37899   6.220  32.944   2.684
69495W        W37900   0.011  38.473   3.788
69496W        W37901  30.421  43.566   0.317
69497W        W37902  10.656  25.072   0.287
69498W        W37903  44.119  40.808   4.261
69499W        W37904   6.044  32.397   3.375
69500W        W37905  41.415  41.001   0.505
69501W        W37906  16.717   9.677   0.855
69502W        W37907   5.630  14.107   3.357
69503W        W37908  21.299  37.398   3.768
69504W        W37909  11.206  27.860   4.301
69505W        W37910  38.913  23.097   0.139
69506W        W37911  21.009   6.138  11.606
69507W        W37912  36.597   0.003  11.515
69508W        W37913  14.878  16.791  13.892
69509W        W37914   9.877   0.070   0.155
69510W        W37915  19.689  21.806   4.617
69511W        W37916   1.010   1.207   0.405
69512W        W37917  20.621  21.600  12.782
69513W        W37918  31.432  20.316  14.956
69514W        W37919  35.401  10.272   2.714
69515W        W37920  20.543  37.541  14.958
69516W        W37921  21.097  22.268   9.797
69517W        W37922   9.071  23.602   2.268
69518W        W37923  39.052  17.556  13.857
69519W        W37924  34.907   7.786   4.126
69520W        W37925  37.529  41.907  14.923
69521W        W37926   2.427  26.692  14.574
69522W        W37927  33.584   0.986  10.731
69523W        W37928  12.203  30.037  12.906
69524W        W37929  33.913  19.323   1.887
69525W        W37930  17.966   2.464  14.493
69526W        W37931   3.388  15.653  12.844
69527W        W37932  11.851  24.518  11.233
69528W        W37933   4.973  32.253   0.040
69529W        W37934  32.913   6.746  13.829
69530W        W37935  31.985  39.727  14.876
69531W        W37936  35.077  34.556  11.763
69532W        W37937  37.530  16.143   3.645
69533W        W37938  22.592  16.849   3.032
69534W        W37939  43.611  21.595  12.501
69535W        W37940  41.373   7.735   3.685
69536W        W37941   0.230  39.721   3.222
69537W        W37942   1.333  11.633   4.240
69538W        W37943   2.828  10.389  14.055
69539W        W37944   8.226  15.547  13.608
69540W        W37945   9.995  26.530  10.006
69541W        W37946  43.930  17.673  13.297
69542W        W37947  21.303  34.009  11.947
69543W        W37948  26.559  44.032  14.273
69544W        W37949   2.861  22.790  13.448
69545W        W37950  38.068  24.877  13.808
69546W        W37951  40.137  10.797   2.236
69547W        W37952  43.196  34.943  10.675
69548W        W37953  29.603   2.552   0.973
69549W        W37954   0.402  12.106   0.496
69550W        W37955  10.267  24.981  13.060
69551W        W37956   7.547  36.890  14.335
69552W        W37957   2.267  26.589   1.757
69553W        W37958   8.212  10.745   2.166
69554W        W37959  19.715  10.871  10.603
69555W        W37960  41.204   7.621  11.166
69556W        W37961  34.200  30.147  11.170
69557W        W37962   7.759  28.940  13.062
69558W        W37963  26.122  23.433  11.494
69559W        W37964  25.199  10.634  13.424
69560W        W37965  21.491  32.616  12.357
69561W        W37966   3.866  17.594  13.017
69562W        W37967  37.107   9.181   2.047
69563W        W37968   4.366  21.868  12.950
69564W        W37969   5.457   8.659  11.581
69565W        W37970  14.873   6.658  10.581
69566W        W37971   1.236  24.116  14.749
69567W        W37972  39.335  34.125   1.702
69568W        W37973   5.436  10.208   1.791
69569W        W37974   2.703  19.685  10.602
69570W        W37975  10.780  20.213   4.603
69571W        W37976  25.092   8.429  12.741
69572W        W37977   1.812  41.391   4.074
69573W        W37978  23.064  11.838   2.817
69574W        W37979   4.447  43.550  10.664
69575W        W37980  37.611  29.445  14.832
69576W        W37981  16.512  41.822   0.653
69577W        W37982   9.406   6.476  11.915
69578W        W37983  10.693  12.083   0.223
69579W        W37984  14.958  35.615   1.318
69580W        W37985  43.016   3.508   3.632
69581W        W37986  35.184   6.199  14.365
69582W        W37987  24.139  38.254   3.836
69583W        W37988   2.207   4.835   2.734
69584W        W37989  44.873  21.099  12.505
69585W        W37990  28.156  13.126   0.163
69586W        W37991  20.769   6.403  11.972
69587W        W37992   1.438  21.631   1.429
69588W        W37993  38.365  27.506  12.574
69589W        W37994  15.226   1.835   1.365
69590W        W37995   5.635  24.138   1.769
69591W        W37996  16.338   8.952   1.907
69592W        W37997  33.986  34.605   1.247
69593W        W37998  42.988  10.040   5.382
69594W        W37999  11.540  10.064   4.069
69595W        W38000  27.658   7.267  10.688
69596W        W38001  40.825  12.708   1.355
69597W        W38002   1.510  16.889  12.557
69598W        W38003   0.374  31.894  14.406
69599W        W38004  13.070  39.891   4.371
69600W        W38005   0.089   5.820  10.193
69601W        W38006  43.908  12.826   1.960
69602W        W38007  20.566  25.721  12.569
69603W        W38008  32.734  29.380   4.123
69604W        W38009  18.214   2.570   4.230
69605W        W38010   5.804  25.578   0.491
69606W        W38011  12.490  17.621  11.829
69607W        W38012  13.755  41.166   4.132
69608W        W38013  21.667  30.532  11.545
69609W        W38014  26.143  39.277  13.651
69610W        W38015   4.346  39.888  11.003
69611W        W38016  10.848  28.440  10.701
69612W        W38017  40.327  32.071   2.163
69613W        W38018   2.989  18.514   4.048
69614W        W38019  20.061   9.332  10.804
69615W        W38020  41.255  14.309  11.152
69616W        W38021  20.223  13.918  11.577
69617W        W38022   1.927  37.344  12.495
69618W        W38023  31.830   3.794  11.507
69619W        W38024  17.880  31.725   3.551
69620W        W38025   1.173  43.441   4.104
69621W        W38026  15.473  23.202  11.140
69622W        W38027   1.919   9.868   4.555
69623W        W38028  35.352   5.590  13.877
69624W        W38029  17.879  27.470   1.280
69625W        W38030  24.814  26.533   4.520
69626W        W38031  16.318  26.240  11.851
69627W        W38032   4.007  41.547  10.243
69628W        W38033  29.976  42.490   3.173
69629W        W38034  21.082  41.048   2.778
69630W        W38035   5.793   2.462  13.885
69631W        W38036  33.820  23.239  14.361
69632W        W38037   5.732  33.980  11.736
69633W        W38038  44.177   5.166  12.505
69634W        W38039  35.054  14.527  14.916
69635W        W38040   0.653  17.160  12.618
69636W        W38041  33.784   9.717   1.144
69637W        W38042   3.255  14.541  14.162
69638W        W38043  31.602  37.096  14.970
69639W        W38044  14.029  16.131   3.292
69640W        W38045  17.874  31.046   2.590
69641W        W38046  40.562  21.589   2.322
69642W        W38047  26.260  44.241  12.882
69643W        W38048  22.388  36.366   0.262
69644W        W38049  15.397   6.636  14.921
69645W        W38050  11.093  22.741  11.393
69646W        W38051   8.167   8.396  10.639
69647W        W38052   3.282   8.963   4.237
69648W        W38053  40.795   0.799   4.185
69649W        W38054  29.678  26.774   4.803
69650W        W38055  40.590  29.392  13.461
69651W        W38056  17.361  15.247   2.331
69652W        W38057   7.734  11.884   4.776
69653W        W38058  21.956   4.352   2.283
69654W        W38059   7.089  23.054  14.893
69655W        W38060  22.727  34.434  12.042
69656W        W38061  11.820  11.440  10.618
69657W        W38062  16.325  40.520   0.300
69658W        W38063  30.163  19.772   4.893
69659W        W38064  27.074  35.052   0.310
69660W        W38065  37.274  32.921   0.303
69661W        W38066  29.740  44.580  11.060
69662W        W38067  34.528  41.832  13.031
69663W        W38068  13.080  28.988  14.100
69664W        W38069  33.157   4.430  14.598
69665W        W38070  25.126  22.985  14.422
69666W        W38071  37.776  31.562   2.666
69667W        W38072  38.281  30.680   2.207
69668W        W38073  37.212   9.209   0.672
69669W        W38074  36.796  24.512  11.542
69670W        W38075  15.137  19.745   4.184
69671W        W38076   1.929  12.096   4.079
69672W        W38077  34.514  25.103  11.144
69673W        W38078  13.050  32.155   0.743
69674W        W38079   8.824  30.266  14.045
69675W        W38080   5.394  43.081  14.012
69676W        W38081  39.911  33.275  12.789
69677W        W38082  27.985  43.903  11.163
69678W        W38083  28.425  37.652  12.402
69679W        W38084   6.714  27.422   2.376
69680W        W38085  15.296   6.781  13.000
69681W        W38086  38.472  19.687   3.112
69682W        W38087  26.399  13.194  12.157
69683W        W38088  22.671  36.304   1.838
69684W        W38089  39.027   8.155   0.397
69685W        W38090   7.434  15.091   1.173
69686W        W38091  37.417  27.755  10.694
69687W        W38092   6.355  38.548   1.959
69688W        W38093   3.461  21.069  13.958
69689W        W38094   9.366  19.172   2.848
69690W        W38095   0.257   6.491   4.184
69691W        W38096  43.828  32.902  13.066
69692W        W38097   1.406  27.293  10.753
69693W        W38098   1.614  34.513  11.680
69694W        W38099  16.032   4.973  13.035
69695W        W38100  37.851  35.339   0.960
69696W        W38101  26.522  35.642  12.975
69697W        W38102   7.160   9.712   3.798
69698W        W38103   9.898  13.580   3.256
69699W        W38104   5.453  32.576  11.531
69700W        W38105  12.778   0.020  13.529
69701W        W38106  42.463  19.096   3.270
69702W        W38107  19.044   3.426  11.181
69703W        W38108   3.527  19.639   2.434
69704W        W38109  30.169  38.388  11.567
69705W        W38110  31.903  44.443   1.889
69706W        W38111  24.545  44.810  12.518
69707W        W38112  37.024   2.393   5.615
69708W        W38113  30.102  27.088  14.048
69709W        W38114  35.829   5.749   1.731
69710W        W38115  15.061  39.494  12.956
69711W        W38116   1.124  16.679  12.310
69712W        W38117   7.671   2.776   1.877
69713W        W38118  11.931  11.743   3.208
69714W        W38119  33.621  26.222   3.722
69715W        W38120   0.989  22.119   2.478
69716W        W38121  13.673   6.298  10.776
69717W        W38122  38.200   1.525   1.676
69718W        W38123  34.794  37.780  12.603
69719W        W38124  32.610  28.946  12.587
69720W        W38125  16.171   3.874   0.721
69721W        W38126  44.395  15.386   5.044
69722W        W38127  39.967  26.231  11.924
69723W        W38128   8.321   5.721  10.660
69724W        W38129   0.910  26.020   3.511
69725W        W38130   1.940  20.117  13.080
69726W        W38131  22.985   2.960   3.272
69727W        W38132  24.714  14.625   2.732
69728W        W38133  44.727  40.805   1.407
69729W        W38134  19.686   6.537  13.073
69730W        W38135  37.933   7.687   2.746
69731W        W38136  28.312  18.661   0.847
69732W        W38137  37.631  39.014  14.015
69733W        W38138  16.048  34.482  10.763
69734W        W38139  24.644  26.574  13.023
69735W        W38140  39.368   7.139  13.396
69736W        W38141  13.080   6.365   0.105
69737W        W38142  36.832   5.205  14.542
69738W        W38143   6.352  34.939  13.878
69739W        W38144  18.137  16.661  11.623
69740W        W38145  25.026  26.683   4.959
69741W        W38146  22.292  14.278   3.893
69742W        W38147  41.767  25.004  10.398
69743W        W38148  35.239  35.614  14.274
69744W        W38149  26.646  36.718   4.615
69745W        W38150  40.793  36.783   4.604
69746W        W38151  41.466   9.846  13.574
69747W        W38152  18.331  43.345  12.049
69748W        W38153  28.340  43.350   1.714
69749W        W38154  11.870  28.067  13.865
69750W        W38155  36.898  27.653   2.207
69751W        W38156  27.593  16.542  12.130
69752W        W38157  18.205  11.422  12.085
69753W        W38158  21.885  25.157  12.094
69754W        W38159  39.037  35.275   0.730
69755W        W38160  39.457   1.756   5.017
69756W        W38161  15.599  13.823  14.406
69757W        W38162  11.206  15.628  11.954
69758W        W38163  26.762  39.292  14.002
69759W        W38164  17.535  27.248  14.351
69760W        W38165  12.837  19.789  13.495
69761W        W38166  14.627   0.281  14.688
69762W        W38167  27.494  33.867  10.817
69763W        W38168   5.299  11.283   1.362
69764W        W38169  19.140   4.879  14.971
69765W        W38170  35.070  24.725   1.397
69766W        W38171  40.411  39.780  14.507
69767W        W38172  13.701  31.064  11.064
69768W        W38173   3.681   0.484  13.416
69769W        W38174  14.117  27.652   1.666
69770W        W38175  23.042  38.568  10.732
69771W        W38176  37.136   3.235  11.625
69772W        W38177   2.383  22.450   0.228
69773W        W38178  40.057   1.879   1.766
69774W        W38179  39.365   7.786   3.684
69775W        W38180  34.591  35.900  12.096
69776W        W38181   7.707  36.061   3.778
69777W        W38182   8.197  20.624  14.510
69778W        W38183   5.665  23.166   0.912
69779W        W38184  21.052  13.671  14.913
69780W        W38185   8.624  14.440  12.456
69781W        W38186  17.725  22.945  13.497
69782W        W38187  39.868  42.151  13.565
69783W        W38188  36.529  27.671   2.866
69784W        W38189  19.744   8.929  10.663
69785W        W38190  18.735  24.517   1.827
69786W        W38191  15.662  33.296   0.066
69787W        W38192  11.598  24.353   4.016
69788W        W38193  27.878  31.424   3.072
69789W        W38194  25.915  44.706  14.952
69790W        W38195  14.628  34.619   3.206
69791W        W38196  31.174  28.614  11.128
69792W        W38197   6.490  23.695   4.365
69793W        W38198   4.243  25.337   1.352
69794W        W38199  26.143  21.475  10.695
69795W        W38200   8.127  35.853  11.223
69796W        W38201  23.175  30.538  14.083
69797W        W38202  23.407  37.458  12.627
69798W        W38203  27.697   6.211   0.979
69799W        W38204   9.428  25.082   5.119
69800W        W38205  32.586  43.746   2.696
69801W        W38206  12.794  12.161  12.016
69802W        W38207  17.294   6.050  14.495
69803W        W38208  33.865  23.821  13.472
69804W        W38209  10.901   3.845   4.223
69805W        W38210  30.381  12.550  12.584
69806W        W38211  35.379  15.138  10.680
69807W        W38212  34.425  41.746   4.952
69808W        W38213   4.990  12.757   3.716
69809W        W38214  28.520  39.891   4.605
69810W        W38215  34.929  36.188   0.437
69811W        W38216   8.638  31.401   1.912
69812W        W38217  44.086  33.920  12.518
69813W        W38218  25.834  39.341   4.524
69814W        W38219   5.475  21.092   0.723
69815W        W38220  18.615  30.981   3.284
69816W        W38221  26.386  27.294   4.523
69817W        W38222  45.000  34.254   3.156
69818W        W38223  13.519  39.971   3.571
69819W        W38224  41.930  40.131  13.013
69820W        W38225  26.948  14.604   1.333
69821W        W38226  41.728   1.738  11.030
69822W        W38227   9.376   9.414  10.698
69823W        W38228   8.642  13.961   5.425
69824W        W38229  20.133   2.312   0.760
69825W        W38230  35.753  13.269   3.614
69826W        W38231   2.045  40.056   1.483
69827W        W38232   0.021  25.790   1.093
69828W        W38233  13.835  12.755   4.216
69829W        W38234   8.409  39.535   4.533
69830W        W38235   6.822  11.982   2.367
69831W        W38236  14.263  27.985   4.656
69832W        W38237  33.884  34.314   1.662
69833W        W38238  25.724  30.383  11.189
69834W        W38239  37.897  18.638  14.443
69835W        W38240  21.176  26.093  14.661
69836W        W38241  24.635   5.791   3.880
69837W        W38242   4.884   3.375  14.795
69838W        W38243  21.045  38.023   3.194
69839W        W38244  23.955  12.815  12.885
69840W        W38245  27.477  43.504  14.329
69841W        W38246  14.368   7.351  12.883
69842W        W38247  43.881   2.490  12.405
69843W        W38248   8.059  20.066  13.313
69844W        W38249  37.088   3.774  12.363
69845W        W38250  21.108  17.358  11.651
69846W        W38251  13.540  38.504   3.258
69847W        W38252  34.387   2.366  12.361
69848W        W38253  33.155  13.145   2.140
69849W        W38254  19.874  36.890   3.584
69850W        W38255   6.470   3.439   1.105
69851W        W38256   8.375  14.144   1.650
69852W        W38257  43.851  42.701   1.649
69853W        W38258  40.408  21.594   0.530
69854W        W38259  32.060   1.637  10.615
69855W        W38260  27.733  37.774   3.681
69856W        W38261  10.863   0.904   4.149
69857W        W38262   8.142  21.221  14.821
69858W        W38263  15.280  36.578  12.931
69859W        W38264  31.063  42.825  10.231
69860W        W38265  41.823  19.043   4.547
69861W        W38266  10.076  15.133  10.842
69862W        W38267   6.872  24.559   4.867
69863W        W38268  29.504   5.211   2.860
69864W        W38269  37.968  23.932  11.578
69865W        W38270   7.659  35.124   4.813
69866W        W38271  41.049  15.530  12.997
69867W        W38272  36.135  15.074  14.226
69868W        W38273  26.283  19.923   2.645
69869W        W38274  11.917  43.458  11.238
69870W        W38275  31.596  21.016   1.912
69871W        W38276  19.237  12.550  13.581
69872W        W38277   1.488  32.654   4.152
69873W        W38278  29.467   1.401   4.180
69874W        W38279  31.184   2.154  12.222
69875W        W38280  28.002  24.108  10.420
69876W        W38281  44.267  33.062   1.789
69877W        W38282  23.163  24.267  14.972
69878W        W38283  10.207  17.452   4.992
69879W        W38284  21.944   9.198  11.126
69880W        W38285  13.806   6.142  13.075
69881W        W38286   0.458  32.338  12.726
69882W        W38287  35.507  11.196  14.958
69883W        W38288  20.613  20.297   1.667
69884W        W38289  11.137   7.892   2.726
69885W        W38290  43.097  11.543  14.867
69886W        W38291   2.424  37.080  11.075
69887W        W38292  34.543  33.501   3.659
69888W        W38293   0.865  41.882  12.948
69889W        W38294  15.120  40.278   0.942
69890W        W38295  35.038  27.127  14.325
69891W        W38296  41.366  23.761   2.429
69892W        W38297  38.260  20.235  12.023
69893W        W38298   3.763  40.556   2.319
69894W        W38299  17.866   6.976  14.967
69895W        W38300  37.463  38.154   3.920
69896W        W38301  36.458  29.232  13.875
69897W        W38302  35.260  28.594   0.379
69898W        W38303   0.661  24.068  10.522
69899W        W38304  14.658  23.561  12.871
69900W        W38305  23.935  44.074   3.779
69901W        W38306  38.428  42.270   1.011
69902W        W38307  22.736  15.230  12.353
69903W        W38308  25.600   8.053  11.293
69904W        W38309  22.152  34.623   0.397
69905W        W38310  16.575   7.668   3.610
69906W        W38311  42.831  15.582   2.749
69907W        W38312   4.411   4.670  11.584
69908W        W38313  10.316  21.118  11.084
69909W        W38314  34.362  32.560   1.798
69910W        W38315  43.771  20.334  13.889
69911W        W38316   4.315   9.012   4.626
69912W        W38317  17.755   9.111  11.030
69913W        W38318  35.549  38.152   4.080
69914W        W38319   3.947   6.313  11.849
69915W        W38320  20.470   0.996  12.353
69916W        W38321  15.806  19.622   0.342
69917W        W38322   0.046  32.346   3.157
69918W        W38323  13.747  14.825   0.710
69919W        W38324  29.383  42.608  12.103
69920W        W38325  38.857  28.894  14.687
69921W        W38326  11.131  14.603   1.438
69922W        W38327   3.237   2.979  13.010
69923W        W38328   5.956  31.619  13.808
69924W        W38329   7.818  25.330   0.019
69925W        W38330  16.883  26.113   0.800
69926W        W38331  13.389   0.250   3.252
69927W        W38332  17.574  31.429  13.989
69928W        W38333  29.492  14.880   3.788
69929W        W38334   0.695  14.680  10.655
69930W        W38335  15.996  26.097   1.868
69931W        W38336  24.260  33.596   4.533
69932W        W38337  26.661  41.197  14.742
69933W        W38338   2.874  24.603  14.018
69934W        W38339   5.215  14.158   0.284
69935W        W38340  43.454  13.896   4.088
69936W        W38341  37.189  30.401  14.014
69937W        W38342  27.346  30.525  14.453
69938W        W38343  22.744  41.863   4.328
69939W        W38344   2.291  32.000  12.536
69940W        W38345  43.763   2.163   4.696
69941W        W38346  42.495  13.756  14.795
69942W        W38347   2.830  41.884  13.031
69943W        W38348   5.630  29.451  11.760
69944W        W38349  29.229  39.401   3.259
69945W        W38350   2.754  13.034   4.291
69946W        W38351  43.691  44.345  11.934
69947W        W38352  18.159  38.983   0.884
69948W        W38353  10.704   9.064   1.955
69949W        W38354  25.895  10.510  14.940
69950W        W38355  23.514   1.092   3.287
69951W        W38356  18.664  19.581   4.615
69952W        W38357  11.454  27.884   0.326
69953W        W38358  21.436  32.056   4.279
69954W        W38359  43.595  27.396   1.411
69955W        W38360   2.236  11.837   4.576
69956W        W38361   7.617  35.674  11.480
69957W        W38362  41.852  18.301   0.810
69958W        W38363  11.106  42.456  14.109
69959W        W38364   4.591  44.662  14.369
69960W        W38365  25.837  11.714   0.651
69961W        W38366  16.760  31.800  14.848
69962W        W38367  17.706  21.579  11.158
69963W        W38368  25.459  43.489   2.331
69964W        W38369  44.769  19.022   2.584
69965W        W38370  30.940  34.257  14.374
69966W        W38371   2.187  43.337   0.028
69967W        W38372   5.912   3.985  12.809
69968W        W38373  18.075   3.082   4.997
69969W        W38374  14.183  42.778   1.227
69970W        W38375  11.343   0.070   2.662
69971W        W38376   7.327  43.244  11.246
69972W        W38377  39.220  35.537  10.446
69973W        W38378  24.945   7.701   1.801
69974W        W38379  31.466  20.862   4.818
69975W        W38380  36.503  23.557   2.737
69976W        W38381  19.762  41.766   3.812
69977W        W38382  35.108  24.297  14.903
69978W        W38383  37.838  43.408  12.061
69979W        W38384  30.994  17.085   1.634
69980W        W38385  42.243  30.559   4.156
69981W        W38386  24.585   2.448   4.196
69982W        W38387   1.162   3.248   2.381
69983W        W38388  28.218  18.082   0.367
69984W        W38389  27.209  25.178  13.780
69985W        W38390  24.446  29.147  14.981
69986W        W38391  38.267   4.382   2.240
69987W        W38392  21.235  42.087   4.141
69988W        W38393  29.475  28.135  10.857
69989W        W38394  10.399   1.140  12.694
69990W        W38395   2.930  40.020   2.719
69991W        W38396  11.761  44.786   2.736
69992W        W38397   2.231  14.276  13.535
69993W        W38398  37.478  32.589  14.992
69994W        W38399  17.037   3.847  11.967
69995W        W38400   1.549   9.395   2.178
69996W        W38401  44.111  43.173   3.253
69997W        W38402  38.435  31.195  11.432
69998W        W38403   7.134  18.974  12.557
69999W        W38404  40.744  35.400   3.604
70000W        W38405  32.548  11.417   2.129
70001W        W38406   2.936  17.694  14.063
70002W        W38407  16.651  25.736   4.010
70003W        W38408  10.606  25.685   0.797
70004W        W38409  29.987  43.304   2.847
70005W        W38410   2.468  38.875  14.364
70006W        W38411  13.681   6.192   4.527
70007W        W38412  19.208  41.570  14.774
70008W        W38413  30.416  33.028   4.775
70009W        W38414  29.082   1.628  11.718
70010W        W38415  14.279  38.608   0.018
70011W        W38416  39.500   3.929   0.994
70012W        W38417  21.604  14.105   0.701
70013W        W38418  20.057   9.185  12.406
70014W        W38419   0.785   9.845  11.544
70015W        W38420  21.455  10.031   0.240
70016W        W38421  20.281  15.239  12.429
70017W        W38422   3.554   5.120   1.295
70018W        W38423  10.652  18.416  13.194
70019W        W38424   9.349  25.094  10.723
70020W        W38425  31.729  14.775  10.618
70021W        W38426  40.641  39.463  11.565
70022W        W38427  30.362  22.561   2.688
70023W        W38428  38.596   5.390  13.243
70024W        W38429  36.379   2.998  13.833
70025W        W38430  44.464  27.110  10.647
70026W        W38431  21.124  38.845  13.551
70027W        W38432  11.770  37.159   0.985
70028W        W38433   3.817   1.189  11.602
70029W        W38434  44.213  38.973   1.891
70030W        W38435  42.004  40.692   3.140
70031W        W38436  15.726   2.440  10.614
70032W        W38437  32.286  36.897   4.637
70033W        W38438  40.773   4.797   1.375
70034W        W38439  32.527  36.168   4.973
70035W        W38440  16.331  20.324   0.421
70036W        W38441  18.087  30.127  14.588
70037W        W38442  15.586  11.764  13.886
70038W        W38443   1.981   3.177  11.082
70039W        W38444   4.156  32.515  13.499
70040W        W38445   5.704  12.072  10.738
70041W        W38446   3.850   1.426   3.149
70042W        W38447  28.520  37.603   2.253
70043W        W38448  25.423  15.144   3.949
70044W        W38449  20.432  23.421   0.429
70045W        W38450  21.822  24.036  11.425
70046W        W38451  40.968  25.760   2.475
70047W        W38452  26.074   4.982  13.862
70048W        W38453  33.083  33.165   1.823
70049W        W38454  25.978  41.220   4.956
70050W        W38455   4.903  22.835  11.514
70051W        W38456  37.853  18.842  14.936
70052W        W38457   8.383  19.220   2.688
70053W        W38458  28.573  34.257  12.030
70054W        W38459  42.973  14.360  10.677
70055W        W38460  29.644  13.559   0.789
70056W        W38461  25.612   6.380   0.997
70057W        W38462  30.104  15.840   3.119
70058W        W38463  31.184  25.055  11.604
70059W        W38464  19.534  32.004   3.141
70060W        W38465   5.283   4.764  10.506
70061W        W38466   9.686  25.398   2.211
70062W        W38467  12.291   1.064   0.229
70063W        W38468  36.774  34.698  10.319
70064W        W38469  15.662  34.124   2.635
70065W        W38470  10.420  39.353  14.779
70066W        W38471   7.881  42.821  13.963
70067W        W38472  24.526  15.125  14.790
70068W        W38473  12.618  17.500   3.102
70069W        W38474   7.443  34.737  14.906
70070W        W38475  25.733  17.566  13.923
70071W        W38476  20.801   9.667  13.740
70072W        W38477  15.871  19.327  11.082
70073W        W38478  33.900  17.291   0.817
70074W        W38479  29.074  36.655   2.688
70075W        W38480   3.988  28.924  12.434
70076W        W38481  29.660   7.262   1.446
70077W        W38482  19.630  18.255  12.774
70078W        W38483  38.007  23.051   0.723
70079W        W38484   5.947  26.203  11.651
70080W        W38485   1.288   4.638   3.196
70081W        W38486  42.459  11.035   2.218
70082W        W38487  26.464   6.338   3.699
70083W        W38488   4.047  23.018   4.363
70084W        W38489  38.695  20.597   4.739
70085W        W38490   0.734  10.642  13.534
70086W        W38491  13.577  31.410   3.779
70087W        W38492  39.894  43.679   1.893
70088W        W38493  33.802  24.943   4.764
70089W        W38494  32.897  31.201   1.832
70090W        W38495  20.532  12.831   4.105
70091W        W38496  42.047  22.538   1.271
70092W        W38497  39.438  17.855  13.638
70093W        W38498  25.768  10.372   0.983
70094W        W38499  11.070  37.375  11.596
70095W        W38500  35.387  34.464   5.127
70096W        W38501  19.470  39.504  13.792
70097W        W38502  13.276   1.417  12.867
70098W        W38503  18.272   6.361  11.415
70099W        W38504  17.545  33.139   1.385
70100W        W38505  10.856   5.216  11.523
70101W        W38506   4.785   3.882  11.768
70102W        W38507  33.134   4.794  11.706
70103W        W38508  38.785  31.036   2.593
70104W        W38509  17.487  10.578  10.265
70105W        W38510   5.429  41.062   0.393
70106W        W38511   6.437  33.903   4.647
70107W        W38512  15.289  43.236  11.088
70108W        W38513   4.942  28.957   2.272
70109W        W38514  30.154  27.910  11.908
70110W        W38515  11.164  43.506  13.107
70111W        W38516  12.590  41.391  10.716
70112W        W38517  31.961   6.507  11.172
70113W        W38518  30.728  28.031  13.011
70114W        W38519  21.026  42.648   4.853
70115W        W38520  43.609   7.327   3.112
70116W        W38521   8.392  34.581  10.637
70117W        W38522  19.033  31.785  13.012
70118W        W38523  18.517  25.870   3.545
70119W        W38524  41.285  26.404   4.186
70120W        W38525  39.427  41.024   1.428
70121W        W38526  24.189   3.707  12.898
70122W        W38527  36.005  39.658   1.815
70123W        W38528  41.233  39.023   5.533
70124W        W38529  34.207  31.971  14.013
70125W        W38530  13.384  40.383   4.626
70126W        W38531   3.493  15.210   1.144
70127W        W38532   5.385  28.110   2.337
70128W        W38533  10.230  34.459  11.924
70129W        W38534  22.757  29.112  11.187
70130W        W38535   9.548  27.694   4.173
70131W        W38536  40.105  26.092   1.695
70132W        W38537  24.488  12.580  11.140
70133W        W38538  44.962  29.074   2.249
70134W        W38539  27.207  32.439   4.483
70135W        W38540  25.649  28.898  13.934
70136W        W38541  40.427   4.675  12.060
70137W        W38542   6.981  32.372   0.814
70138W        W38543  35.492  32.327   3.489
70139W        W38544  25.062   9.982   2.320
70140W        W38545  30.164   9.731   2.864
70141W        W38546   8.758  19.805  14.425
70142W        W38547  44.325  22.233  10.661
70143W        W38548   5.265  36.312   0.326
70144W        W38549  33.898  22.747  12.554
70145W        W38550   0.919  40.369  12.920
70146W        W38551  19.097  36.078   4.282
70147W        W38552  11.225  39.611   3.796
70148W        W38553  43.005  27.987   1.325
70149W        W38554  23.419  23.793   4.754
70150W        W38555  40.021   8.331   1.931
70151W        W38556  43.862  14.192   3.278
70152W        W38557   5.854  31.147  13.348
70153W        W38558  38.857  11.911  13.541
70154W        W38559  26.680  12.642  13.516
70155W        W38560   1.332  33.499  11.251
70156W        W38561  42.759  17.098   2.877
70157W        W38562  22.260  34.421  10.790
70158W        W38563   7.159  24.158  14.069
70159W        W38564  16.196  11.745   1.913
70160W        W38565  10.417  33.946  13.670
70161W        W38566  44.011  33.242   0.329
70162W        W38567  36.577  28.098   0.273
70163W        W38568  44.862  41.020   0.552
70164W        W38569  13.885  20.709  10.983
70165W        W38570  14.780   4.763  13.458
70166W        W38571  43.895  30.982  13.564
70167W        W38572   5.121  20.140  11.717
70168W        W38573  37.758  20.568  11.595
70169W        W38574  11.221  15.659   0.843
70170W        W38575   4.252  30.908  12.510
70171W        W38576  16.216   0.871  13.153
70172W        W38577  11.260  25.188   2.294
70173W        W38578   2.723   1.421   0.750
70174W        W38579   0.110  29.320  10.645
70175W        W38580  20.808  31.421  13.549
70176W        W38581  19.710  30.784   5.181
70177W        W38582  26.511  40.886   2.725
70178W        W38583  31.058  44.204  14.320
70179W        W38584  32.973  21.721  11.937
70180W        W38585   0.357  35.890   3.305
70181W        W38586   5.134  34.481   0.808
70182W        W38587  27.586   1.894  14.788
70183W        W38588  43.720  38.457   1.219
70184W        W38589  31.115  44.326   4.142
70185W        W38590  14.833  27.655  12.093
70186W        W38591  17.355  39.039  14.887
70187W        W38592  43.975   2.225  11.119
70188W        W38593   0.776  29.511   3.395
70189W        W38594  25.665  41.063   2.265
70190W        W38595  10.598   8.228  14.548
70191W        W38596  11.668  12.096  14.322
70192W        W38597  30.875   3.822   4.193
70193W        W38598  26.817  39.122   0.933
70194W        W38599  44.727  42.616  11.163
70195W        W38600  29.498  17.632  13.433
70196W        W38601  15.670  14.128  11.300
70197W        W38602  14.599  19.160   0.873
70198W        W38603  20.823  37.540  13.935
70199W        W38604   1.490  11.119   4.099
70200W        W38605  12.247  20.976   0.361
70201W        W38606  17.854  39.540  10.980
70202W        W38607   2.517  26.495   0.420
70203W        W38608   6.708  44.342  10.679
70204W        W38609  13.708  19.516   0.883
70205W        W38610   5.242  28.336  12.789
70206W        W38611  44.841  20.746   4.181
70207W        W38612  29.070  17.736  12.825
70208W        W38613  19.847   1.102  11.067
70209W        W38614  20.605  35.066  10.689
70210W        W38615   4.395  37.283   1.657
70211W        W38616  16.078  36.876  10.810
70212W        W38617  13.587   4.298  13.070
70213W        W38618  11.078  34.931   0.034
70214W        W38619  43.952  38.550  12.292
70215W        W38620  44.005  18.786  14.732
70216W        W38621  16.250  13.685   3.304
70217W        W38622  29.169  17.837   3.245
70218W        W38623  20.633   2.515  11.404
70219W        W38624  13.210  27.070   3.777
70220W        W38625  21.655  30.108  13.865
70221W        W38626   4.368  33.362   4.339
70222W        W38627   3.911  29.424  12.528
70223W        W38628  41.011  12.498  12.106
70224W        W38629   6.776  31.620   3.758
70225W        W38630  28.571  34.139   2.734
70226W        W38631  23.456   7.849   2.203
70227W        W38632  25.043   5.324  10.964
70228W        W38633  31.123  17.229  12.305
70229W        W38634  30.481  32.744   1.862
70230W        W38635  40.971  41.742  11.227
70231W        W38636  38.173  19.565  11.613
70232W        W38637  17.452  25.162   3.426
70233W        W38638  14.520  36.764   2.709
70234W        W38639  41.791  27.523  12.574
70235W        W38640  31.470  42.510  10.313
70236W        W38641  17.553  44.830   1.746
70237W        W38642  13.569  27.024  10.758
70238W        W38643  40.477  37.631   4.155
70239W        W38644  31.867  21.106   4.057
70240W        W38645  39.314  43.732  11.984
70241W        W38646  24.524  44.806   4.165
70242W        W38647  38.798  21.798   2.777
70243W        W38648  23.697  39.770   4.475
70244W        W38649  42.917  36.181   3.007
70245W        W38650  25.576  21.382   4.140
70246W        W38651  16.065  19.491  10.636
70247W        W38652  16.858   2.690   3.754
70248W        W38653   1.787  32.439   4.534
70249W        W38654  15.040  34.438   1.293
70250W        W38655   8.138   1.151  14.907
70251W        W38656  37.797  24.709  14.986
70252W        W38657  34.017  25.149   0.253
70253W        W38658  17.951  42.848   2.935
70254W        W38659  18.312  44.662   3.325
70255W        W38660  31.907  28.068  12.012
70256W        W38661  44.796  21.754  11.602
70257W        W38662  43.323  10.392   0.326
70258W        W38663  28.823   2.983  11.172
70259W        W38664   1.925  32.769  10.622
70260W        W38665  39.879  42.019  10.667
70261W        W38666  13.287  17.099  14.926
70262W        W38667  22.061  29.721  13.983
70263W        W38668   4.418  15.207   3.327
70264W        W38669  13.479  17.141   3.261
70265W        W38670  17.825  10.200  14.316
70266W        W38671  40.976  21.749  12.582
70267W        W38672  23.639   8.151   0.779
70268W        W38673   6.667  17.682   4.692
70269W        W38674  19.846   4.096  13.797
70270W        W38675  36.875  14.098  14.781
70271W        W38676  11.257  19.020  12.604
70272W        W38677  23.268  30.657   4.557
70273W        W38678  24.771  21.110  11.843
70274W        W38679  39.811  31.015   1.944
70275W        W38680   2.501  27.987   2.714
70276W        W38681  34.060   0.719  12.453
70277W        W38682  17.268  36.612  13.882
70278W        W38683  33.078  37.349   1.570
70279W        W38684  34.806  13.160   2.599
70280W        W38685  36.456  34.375  14.023
70281W        W38686  37.476  37.096  11.773
70282W        W38687  18.898  28.043   2.743
70283W        W38688   5.792  43.462   2.699
70284W        W38689  38.458  41.230   3.400
70285W        W38690  33.129  13.360  11.065
70286W        W38691   5.576   6.979   0.414
70287W        W38692  14.689  19.243  10.722
70288W        W38693  31.128  37.014   1.234
70289W        W38694   6.716  14.720   4.343
70290W        W38695   0.375   5.246   2.309
70291W        W38696  21.066  42.549   1.366
70292W        W38697  19.934   6.793   2.386
70293W        W38698   8.310  44.270  12.387
70294W        W38699  18.521   0.829   2.871
70295W        W38700  34.490  17.909   0.985
70296W        W38701  36.318  20.181  14.916
70297W        W38702  13.698  18.276   2.161
70298W        W38703  14.124  39.907  10.589
70299W        W38704  42.700  44.125  10.144
70300W        W38705  44.505  28.010   0.002
70301W        W38706  31.191  28.888   0.198
70302W        W38707  22.222  43.324  12.206
70303W        W38708  34.151   2.826  11.484
70304W        W38709   3.522   9.418   4.313
70305W        W38710   4.640  24.678  13.039
70306W        W38711  15.222  15.211  14.281
70307W        W38712  23.976  13.241   0.739
70308W        W38713  23.552  18.734  13.942
70309W        W38714   6.235  43.567  12.354
70310W        W38715   1.496  15.778  12.395
70311W        W38716  29.065  40.500   4.067
70312W        W38717  17.699  36.005  11.346
70313W        W38718   6.642  32.106   3.138
70314W        W38719  27.920  20.092   1.223
70315W        W38720  36.623   8.555  14.938
70316W        W38721  15.647  22.759  13.385
70317W        W38722   8.696  25.248   1.684
70318W        W38723  39.850  33.139   3.809
70319W        W38724  28.445  29.026   3.709
70320W        W38725   2.353   0.291  13.409
70321W        W38726  19.346  44.350   1.785
70322W        W38727  20.654  22.940  10.076
70323W        W38728  42.668  23.900   1.384
70324W        W38729  32.834  37.339   5.010
70325W        W38730  26.702  34.125   2.798
70326W        W38731  34.540  24.107   3.066
70327W        W38732  41.333  44.934  14.565
70328W        W38733  19.036  35.556  12.437
70329W        W38734  27.208  19.793  13.447
70330W        W38735   0.424  18.888   3.883
70331W        W38736   3.779   1.819  14.255
70332W        W38737  12.499  44.923  12.549
70333W        W38738  16.658  41.146  12.523
70334W        W38739  35.051  15.812   3.107
70335W        W38740  24.059  40.036  14.494
70336W        W38741  37.051  38.928   0.541
70337W        W38742  11.229   5.467   1.122
70338W        W38743  17.788  29.141   4.029
70339W        W38744  21.565  44.164  14.444
70340W        W38745  15.531  18.644  10.722
70341W        W38746   4.318   9.382   9.668
70342W        W38747   3.316  24.262   5.036
70343W        W38748  32.372  38.461   1.222
70344W        W38749  36.423  23.559   0.341
70345W        W38750   8.193  25.952  10.603
70346W        W38751  42.614   9.256  12.460
70347W        W38752  36.094   4.167  12.654
70348W        W38753  19.567  28.225   1.171
70349W        W38754  40.482  11.166  11.940
70350W        W38755  15.319   1.270   4.121
70351W        W38756   9.888   9.972  11.432
70352W        W38757   7.598  11.310   1.187
70353W        W38758   6.496  22.474   3.683
70354W        W38759  19.778  22.468   0.218
70355W        W38760  35.157  27.621  14.333
70356W        W38761  16.144  31.431  12.094
70357W        W38762   8.247  44.077   3.636
70358W        W38763  11.212  31.937   4.489
70359W        W38764   9.166   8.771  14.001
70360W        W38765   5.801  30.234   0.780
70361W        W38766   5.293   1.781  11.601
70362W        W38767  17.649  33.460   2.774
70363W        W38768  19.066  11.998  10.764
70364W        W38769   7.312  36.513   2.780
70365W        W38770   7.203  32.031  10.772
70366W        W38771  38.817  27.562   1.854
70367W        W38772  11.568   7.358  11.531
70368W        W38773  40.771  19.847  12.985
70369W        W38774  30.022  24.623  11.995
70370W        W38775  40.295  18.625  12.578
70371W        W38776  15.723  10.772   4.982
70372W        W38777   4.878  11.103   1.144
70373W        W38778  26.007   5.366   0.609
70374W        W38779  37.664  17.220   4.657
70375W        W38780  37.294   7.229   1.351
70376W        W38781  16.960  22.279  13.490
70377W        W38782  40.452   8.473   2.223
70378W        W38783  29.509  36.931  12.912
70379W        W38784  39.448  23.130   1.828
70380W        W38785  39.546  25.464   4.188
70381W        W38786  13.391   6.614   4.254
70382W        W38787  17.672  21.987   2.151
70383W        W38788  25.630  44.779   3.940
70384W        W38789  22.973  33.924  11.538
70385W        W38790  33.564  19.699  11.894
70386W        W38791  18.586   1.347   0.932
70387W        W38792  15.793   4.903  10.064
70388W        W38793  36.874  39.787   1.699
70389W        W38794  34.595  12.080   2.276
70390W        W38795  40.385  27.061  14.530
70391W        W38796  25.102  33.575   3.114
70392W        W38797   6.877  29.192  12.204
70393W        W38798  28.982  43.772  11.980
70394W        W38799   8.852  32.621   5.373
70395W        W38800   9.391   5.322  13.542
70396W        W38801  23.234  40.036  12.816
70397W        W38802   2.694  39.788  14.390
70398W        W38803   1.710  29.504   1.891
70399W        W38804  25.491  23.718   2.875
70400W        W38805  33.069  27.113   2.547
70401W        W38806   0.771  28.592   0.517
70402W        W38807  35.886  40.477  11.977
70403W        W38808   0.066  21.468   3.653
70404W        W38809  31.575  34.512  11.161
70405W        W38810   0.572  36.962   3.187
70406W        W38811  44.913  35.601   3.424
70407W        W38812  15.375  37.864  11.653
70408W        W38813  15.478   0.387  12.883
70409W        W38814  18.852  17.307  10.749
70410W        W38815   3.354  13.812  12.215
70411W        W38816  32.653  25.665  14.639
70412W        W38817  39.577  33.603  12.974
70413W        W38818  30.714  16.209   1.771
70414W        W38819  26.210  27.515   4.029
70415W        W38820  22.036  26.726   1.485
70416W        W38821  32.668  14.402  10.622
70417W        W38822  18.275  29.926  13.577
70418W        W38823   9.278  40.565   4.186
70419W        W38824  29.486  36.985   0.350
70420W        W38825  32.034  15.621  10.791
70421W        W38826  40.116  20.582  12.008
70422W        W38827   7.320   6.075  12.640
70423W        W38828  43.462   6.242   1.322
70424W        W38829  20.639  44.130   3.577
70425W        W38830  36.566  27.137  11.178
70426W        W38831  14.770  42.996  14.922
70427W        W38832  40.612  22.087  12.701
70428W        W38833   4.334  31.847  13.941
70429W        W38834  25.717  13.551  14.763
70430W        W38835  23.758  41.913   2.984
70431W        W38836  21.420   5.907   4.846
70432W        W38837  11.381  26.008   1.837
70433W        W38838  33.990  26.114   1.286
70434W        W38839  38.113  28.497   0.822
70435W        W38840  21.824  37.952  14.772
70436W        W38841  41.525  33.249   3.002
70437W        W38842  17.144   0.021  11.109
70438W        W38843  35.068  24.125   4.816
70439W        W38844  32.453  36.493   3.040
70440W        W38845  13.217  22.086   1.974
70441W        W38846  41.932  40.596  14.333
70442W        W38847  15.652   5.342   1.776
70443W        W38848  23.481  15.727  11.979
70444W        W38849  13.501  11.413   1.822
70445W        W38850  39.069   8.251   3.624
70446W        W38851   2.527  14.842  12.481
70447W        W38852  43.382  22.765   2.349
70448W        W38853  25.474   5.390   4.683
70449W        W38854  12.328  16.190  12.971
70450W        W38855   4.921   3.898   2.686
70451W        W38856  44.201   9.281   2.432
70452W        W38857   4.917   8.512  14.899
70453W        W38858  17.228  24.551   2.941
70454W        W38859  29.405   8.584   0.131
70455W        W38860  41.001  34.395   3.033
70456W        W38861  11.086  10.172   2.748
70457W        W38862   7.786   4.969   1.050
70458W        W38863  16.724  27.093   4.188
70459W        W38864  16.596  33.506  13.626
70460W        W38865  35.234  38.935   3.767
70461W        W38866  10.755  24.162  13.956
70462W        W38867  22.102  14.080  14.371
70463W        W38868   9.817  30.146   0.618
70464W        W38869   0.406  28.601   0.154
70465W        W38870  26.127  10.704  14.513
70466W        W38871   4.207   4.085  11.923
70467W        W38872  25.031  41.223   4.041
70468W        W38873  32.105  28.209   4.615
70469W        W38874   4.426   7.436  13.923
70470W        W38875   2.004   1.023   2.769
70471W        W38876  40.582  33.980  14.344
70472W        W38877  43.040  37.718   2.928
70473W        W38878   5.235  24.278  13.899
70474W        W38879  19.331   5.382   1.657
70475W        W38880  19.576   5.426  13.866
70476W        W38881   2.182  44.269   3.240
70477W        W38882   7.480  42.851   0.951
70478W        W38883  26.914  41.908   1.841
70479W        W38884  35.176  43.807   4.138
70480W        W38885   8.653  43.383   4.633
70481W        W38886  42.473  41.744  11.176
70482W        W38887   9.291  43.790  14.347
70483W        W38888  34.303  42.490   0.694
70484W        W38889  11.302  33.351   0.908
70485W        W38890  37.123  23.223   3.700
70486W        W38891  32.439   7.178  14.904
70487W        W38892   6.416  33.247   2.307
70488W        W38893   3.760  10.715   2.374
70489W        W38894  13.811  39.016  10.703
70490W        W38895  13.315  18.172  12.594
70491W        W38896   6.327   2.252  10.604
70492W        W38897  12.390  16.082   0.412
70493W        W38898  34.821  27.966   0.294
70494W        W38899  32.390  39.262   3.880
70495W        W38900  29.615  13.887  13.445
70496W        W38901   9.968  12.166  11.645
70497W        W38902  10.836  44.242  12.864
70498W        W38903  30.796  10.647   4.921
70499W        W38904   5.151  33.856  14.417
70500W        W38905  12.465  18.081   4.204
70501W        W38906  40.353  28.749  11.612
70502W        W38907  10.192   5.165   0.208
70503W        W38908  33.419  29.581   0.095
70504W        W38909   7.842  29.617   4.138
70505W        W38910  10.475  34.157  14.682
70506W        W38911  13.880  10.677  13.137
70507W        W38912  34.704  23.563   2.336
70508W        W38913  11.712   7.322   4.491
70509W        W38914  16.322  28.588   2.706
70510W        W38915  11.985   8.280  11.968
70511W        W38916  19.842  22.679  13.994
70512W        W38917  38.740  44.383  13.494
70513W        W38918  10.112  34.937   4.026
70514W        W38919  18.067  22.320   3.569
70515W        W38920  15.504  24.656  12.516
70516W        W38921   8.796  41.206   3.729
70517W        W38922  40.925  15.639   2.882
70518W        W38923  10.138   3.819   1.876
70519W        W38924   5.456  25.464  12.171
70520W        W38925  38.270  29.243   2.058
70521W        W38926  16.728   9.935  11.931
70522W        W38927  37.571  12.719  14.363
70523W        W38928  28.424  21.294  12.839
70524W        W38929   2.516  33.881  13.014
70525W        W38930  28.931  20.274  12.055
70526W        W38931  32.119  10.742  14.595
70527W        W38932  32.730  17.973   0.708
70528W        W38933   0.876  23.232   4.822
70529W        W38934   9.363  41.070   4.177
70530W        W38935  26.898  22.175  10.709
70531W        W38936  26.012  31.637   1.302
70532W        W38937  19.600  38.693   5.067
70533W        W38938  22.315  11.594  14.022
70534W        W38939  16.783   1.751  14.886
70535W        W38940  24.544   4.686   1.371
70536W        W38941  33.560  12.948  13.352
70537W        W38942   9.768  29.398   0.260
70538W        W38943  19.211   1.317   3.852
70539W        W38944   9.443   1.359   3.328
70540W        W38945   2.917  16.034  14.471
70541W        W38946  10.175   1.923   1.613
70542W        W38947  35.866   6.803   0.279
70543W        W38948  15.957  20.873  14.654
70544W        W38949  12.584  21.607  13.221
70545W        W38950  14.693  17.102   4.728
70546W        W38951  41.481  21.724  11.277
70547W        W38952   9.676   4.003  13.953
70548W        W38953  32.215  13.568  11.294
70549W        W38954  10.741  31.961   2.415
70550W        W38955  38.342   6.933   4.995
70551W        W38956  19.012   6.741  13.791
70552W        W38957  40.822  41.108  10.449
70553W        W38958  14.178   3.406   2.008
70554W        W38959  40.434  16.797  14.287
70555W        W38960  31.960  33.628  12.138
70556W        W38961  20.984  14.882   2.886
70557W        W38962  27.477  19.957   4.152
70558W        W38963  22.816  31.794  14.840
70559W        W38964  39.453  21.389   4.832
70560W        W38965   4.897  15.609  12.821
70561W        W38966   1.775   4.866   2.441
70562W        W38967  35.318   2.883   3.277
70563W        W38968  36.239  27.049  13.660
70564W        W38969  40.970  12.026  14.806
70565W        W38970  11.644  32.997  14.450
70566W        W38971  39.036  19.663   0.806
70567W        W38972   1.468  17.583  11.695
70568W        W38973  35.900  32.711  11.117
70569W        W38974  38.098  35.869   3.028
70570W        W38975  25.266  26.442   2.990
70571W        W38976  12.211  14.670  14.854
70572W        W38977  24.771  36.317   3.132
70573W        W38978  17.851  30.110   3.814
70574W        W38979  33.091  16.045   2.781
70575W        W38980  40.568  14.294  14.085
70576W        W38981  34.980  31.602   1.022
70577W        W38982  30.388  35.876   1.859
70578W        W38983  39.347   5.397  11.989
70579W        W38984  16.113   8.754  12.501
70580W        W38985  12.885   4.310  11.644
70581W        W38986  35.871  35.833  10.565
70582W        W38987  29.471  27.186  10.883
70583W        W38988   7.398  15.553  14.946
70584W        W38989  15.470  30.889  10.805
70585W        W38990   2.217  23.455  14.334
70586W        W38991  20.282  42.881   2.312
70587W        W38992   2.916  17.045  12.513
70588W        W38993  35.500  10.926  11.631
70589W        W38994  12.810  30.865  12.018
70590W        W38995   5.481  32.249   4.138
70591W        W38996  25.022  41.947   3.698
70592W        W38997  21.163  21.605  13.598
70593W        W38998  27.255  19.009   1.254
70594W        W38999  26.295   4.113   4.977
70595W        W39000  27.557  40.082   2.798
70596W        W39001  11.645  40.652   0.975
70597W        W39002  20.675  23.950  13.901
70598W        W39003   1.973  16.585   4.570
70599W        W39004  27.675  18.989  11.222
70600W        W39005   0.762  34.050   1.577
70601W        W39006   4.262  37.026  14.752
70602W        W39007  42.249  44.720  12.982
70603W        W39008  26.974  44.345  12.487
70604W        W39009  15.164  36.855   4.741
70605W        W39010  31.240  26.109  13.762
70606W        W39011  33.533   3.693  12.042
70607W        W39012   8.708  15.409  13.900
70608W        W39013  11.581  31.724  12.848
70609W        W39014  11.620   2.666   2.418
70610W        W39015  26.696   8.763  13.608
70611W        W39016  35.426  20.566  10.986
70612W        W39017   3.339  29.052   3.003
70613W        W39018  15.814  40.942  12.214
70614W        W39019  25.086  29.562  11.909
70615W        W39020  38.371   6.281   1.365
70616W        W39021  28.469  21.538   3.250
70617W        W39022   5.474  43.282   3.572
70618W        W39023  31.025  35.195  14.489
70619W        W39024   6.634  43.742   1.663
70620W        W39025  15.734  28.583   4.338
70621W        W39026  17.308   9.901  13.434
70622W        W39027  17.571   7.618  13.535
70623W        W39028   6.188  20.594   1.404
70624W        W39029  38.902  33.427  14.361
70625W        W39030  18.124   6.964   2.171
70626W        W39031  32.638  21.461   2.682
70627W        W39032   8.267  23.194  12.645
70628W        W39033  29.097  37.275  11.294
70629W        W39034  28.648  20.274   2.751
70630W        W39035   3.675  42.955   0.961
70631W        W39036  20.800  16.423  13.091
70632W        W39037  11.875   9.741   0.796
70633W        W39038   2.257  23.961   4.223
70634W        W39039   2.281  18.155   0.708
70635W        W39040   9.714   4.213   2.899
70636W        W39041   7.347  34.534  10.692
70637W        W39042  40.834   9.944  12.935
70638W        W39043  36.856  21.273   0.343
70639W        W39044  32.952  30.043  12.515
70640W        W39045  32.977   6.848   3.682
70641W        W39046  28.007  22.427  14.425
70642W        W39047  38.403  17.091   2.198
70643W        W39048  20.587  18.486   4.237
70644W        W39049  28.749  18.668   2.260
70645W        W39050  11.058  42.653  13.272
70646W        W39051  13.777  28.940   1.386
70647W        W39052  36.588  19.107  12.038
70648W        W39053  38.990  13.812   0.858
70649W        W39054  21.335  37.328  13.240
70650W        W39055  31.048  13.278  14.244
70651W        W39056  39.391  17.612   2.612
70652W        W39057  30.950  22.520  14.856
70653W        W39058  20.283  30.067   2.737
70654W        W39059  11.262   1.329   0.712
70655W        W39060  13.098  38.811   3.151
70656W        W39061  15.863  13.356  14.411
70657W        W39062  18.585  23.771   0.200
70658W        W39063  31.092  15.301   3.637
70659W        W39064  42.401  21.755  13.871
70660W        W39065  29.715  39.113   4.138
70661W        W39066  33.528  11.002   2.423
70662W        W39067   9.108   7.794  13.106
70663W        W39068  19.817  31.195  11.584
70664W        W39069  38.368  24.047  10.735
70665W        W39070  26.741  30.978  12.014
70666W        W39071  29.639  36.695  13.377
70667W        W39072  43.995  24.937   2.763
70668W        W39073  18.058  12.610   2.082
70669W        W39074  42.758   1.409   3.655
70670W        W39075  33.319  39.342  13.501
70671W        W39076  35.862  13.404  12.030
70672W        W39077   3.275  10.451   1.169
70673W        W39078  33.730  39.104  12.378
70674W        W39079  32.562  38.844   3.617
70675W        W39080  16.215  13.706   4.158
70676W        W39081  18.560  37.021  10.601
70677W        W39082  30.975  11.799   1.476
70678W        W39083  11.895  28.434  12.472
70679W        W39084  39.027  10.446  13.803
70680W        W39085   6.442  11.873  14.469
70681W        W39086  37.004  35.255  13.924
70682W        W39087  44.458  13.370   1.425
70683W        W39088  33.741  35.614   2.166
70684W        W39089  11.111   6.665  12.611
70685W        W39090   3.780  35.413  12.445
70686W        W39091  44.702  13.270   4.255
70687W        W39092  19.992   4.237  12.132
70688W        W39093   8.489  15.630  11.706
70689W        W39094  19.313  18.433  13.741
70690W        W39095   9.403   9.375  14.753
70691W        W39096   7.881  23.518  12.000
70692W        W39097  39.893  38.175   1.229
70693W        W39098   9.490  33.144  10.650
70694W        W39099  36.561  24.448   2.141
70695W        W39100  42.368  32.000  11.153
70696W        W39101  34.412  15.306  11.671
70697W        W39102  35.621  41.505   3.187
70698W        W39103   2.833  42.474   1.753
70699W        W39104  15.873  27.739   4.196
70700W        W39105   3.913   5.674   1.025
70701W        W39106  40.000  15.332  11.132
70702W        W39107  40.813  15.235   1.126
70703W        W39108  40.944  12.202   4.129
70704W        W39109  43.671  21.809  13.949
70705W        W39110  41.485  21.070  14.404
70706W        W39111  17.288  28.746  11.991
70707W        W39112  25.661   9.593   0.443
70708W        W39113  31.156  42.128  11.517
70709W        W39114  28.711   1.208  14.347
70710W        W39115  42.829   7.426  12.459
70711W        W39116  40.398  15.974  10.633
70712W        W39117  30.568  43.608  11.550
70713W        W39118   9.818  36.309  13.024
70714W        W39119  35.476  15.664  10.796
70715W        W39120   5.307  25.658   4.340
70716W        W39121   9.122  43.682  13.727
70717W        W39122  18.321   6.411  10.898
70718W        W39123  21.791  26.089  13.320
70719W        W39124  15.640  26.710  12.647
70720W        W39125  16.193  18.052  11.220
70721W        W39126   1.118  32.449  10.664
70722W        W39127  19.014   9.623   0.838
70723W        W39128  30.826   9.566   0.011
70724W        W39129  37.930  12.267   5.022
70725W        W39130  18.310  40.423  10.634
70726W        W39131  13.682  25.712  14.541
70727W        W39132  32.421   2.307  10.640
70728W        W39133   2.044  40.343  14.077
70729W        W39134  33.840  16.526  12.051
70730W        W39135  13.297   2.640  12.399
70731W        W39136  39.243  28.209  11.130
70732W        W39137  11.111  13.305  14.319
70733W        W39138  25.816   1.452   3.332
70734W        W39139  34.829  38.922  11.575
70735W        W39140  23.510   3.660  11.095
70736W        W39141  30.207  15.800   4.006
70737W        W39142  16.568  15.319  14.419
70738W        W39143  44.401  36.015   2.885
70739W        W39144   6.992  15.803   3.113
70740W        W39145   6.990  33.543   0.028
70741W        W39146  27.868  18.055   3.552
70742W        W39147  30.263  18.276  10.355
70743W        W39148  20.644  27.393   1.458
70744W        W39149  44.311   0.315   5.519
70745W        W39150   8.281  13.540   9.765
70746W        W39151  25.532  37.914  13.369
70747W        W39152   4.511  29.140   3.730
70748W        W39153  14.513   1.316   3.278
70749W        W39154  13.703   7.873   2.568
70750W        W39155  31.132   0.541  11.501
70751W        W39156  34.556  17.792  12.098
70752W        W39157  18.725   2.937  11.222
70753W        W39158  21.054   7.580  12.547
70754W        W39159  31.316  10.148   3.694
70755W        W39160  17.096  39.661   0.918
70756W        W39161  33.522  42.581  14.395
70757W        W39162  37.661  30.701  10.442
70758W        W39163  29.733  26.086  11.899
70759W        W39164  16.176  44.752   0.537
70760W        W39165  31.394  26.229   1.537
70761W        W39166  38.717  26.023   1.692
70762W        W39167  21.228   6.628   2.622
70763W        W39168  30.161  17.711   1.390
70764W        W39169  25.135  12.736  14.019
70765W        W39170  26.750  10.608  10.758
70766W        W39171  25.217   9.691  14.305
70767W        W39172   4.325  10.795  13.804
70768W        W39173  11.328  16.253   4.311
70769W        W39174  36.340  36.311  11.277
70770W        W39175  26.627  37.897  11.680
70771W        W39176  30.167  16.793  10.616
70772W        W39177  14.199  27.097   2.345
70773W        W39178   2.979  24.584  11.727
70774W        W39179  27.237  15.060   4.711
70775W        W39180  39.642   1.559   0.833
70776W        W39181  30.243   2.709  13.861
70777W        W39182  34.106  23.989  13.899
70778W        W39183  32.532  25.924   4.576
70779W        W39184  26.503  20.065  12.545
70780W        W39185  41.965  20.802  14.387
70781W        W39186  22.846   1.709  13.367
70782W        W39187  33.133  43.784  13.086
70783W        W39188  21.164  34.397  14.453
70784W        W39189  31.000   8.338  12.873
70785W        W39190  40.266  27.665   2.186
70786W        W39191   2.965  32.915   2.353
70787W        W39192  21.300  15.963   0.261
70788W        W39193  28.040  16.327  12.319
70789W        W39194   4.939   6.268   3.293
70790W        W39195  13.592  26.655   0.535
70791W        W39196  29.903  28.229   3.706
70792W        W39197   5.389   4.371  13.841
70793W        W39198  29.246   5.280  14.005
70794W        W39199  37.612  35.024  10.411
70795W        W39200  15.903  30.099  12.966
70796W        W39201  16.855  28.621   0.057
70797W        W39202  19.701  34.727  13.332
70798W        W39203  29.991  27.988   0.639
70799W        W39204   2.414  19.546   2.663
70800W        W39205  29.437  24.481  14.754
70801W        W39206   7.182  42.684   0.362
70802W        W39207   3.165   7.665   4.439
70803W        W39208  21.916   8.723  12.925
70804W        W39209  20.807   4.238  14.000
70805W        W39210  10.046  44.917  14.394
70806W        W39211  33.614   0.179  12.776
70807W        W39212  31.349  18.431   1.828
70808W        W39213  24.676  31.673   0.899
70809W        W39214  25.031  41.779  12.748
70810W        W39215  18.381  16.504  11.193
70811W        W39216  30.460  15.119   0.883
70812W        W39217  30.196  17.146   3.588
70813W        W39218   3.942   0.029  13.577
70814W        W39219  34.088  21.065   1.482
70815W        W39220   9.230  34.686   3.686
70816W        W39221  23.450  39.275   2.316
70817W        W39222  23.457  21.643  14.282
70818W        W39223  20.971   0.024   2.431
70819W        W39224  10.840  29.997   3.108
70820W        W39225  34.779   7.728  14.558
70821W        W39226  12.594  14.975   3.733
70822W        W39227  24.590   5.343  11.527
70823W        W39228  37.049  15.700   1.290
70824W        W39229   0.315   9.438   3.261
70825W        W39230  10.671  33.004  11.130
70826W        W39231  27.084  13.895  11.012
70827W        W39232  24.762  37.179   1.832
70828W        W39233  41.143  24.554   0.230
70829W        W39234   1.313  13.249  11.696
70830W        W39235  38.483  17.186   1.692
70831W        W39236  44.575  30.629   4.016
70832W        W39237  22.100   0.816  14.585
70833W        W39238  28.726  43.771  11.469
70834W        W39239  10.800   8.967   0.869
70835W        W39240  15.735  30.603   3.629
70836W        W39241  25.271   9.338   2.190
70837W        W39242  14.689   1.498  12.934
70838W        W39243  22.356  36.983  10.944
70839W        W39244  27.102  30.969  13.945
70840W        W39245  10.808  12.615   4.180
70841W        W39246   8.352  31.901  13.501
70842W        W39247  13.069   2.820   0.051
70843W        W39248  13.587  32.633  11.089
70844W        W39249  16.146   9.742   4.354
70845W        W39250  21.792  11.632  13.934
70846W        W39251  42.316  21.038   3.680
70847W        W39252  18.571   4.865   2.590
70848W        W39253  15.392  42.307  12.567
70849W        W39254  24.973  18.852  11.958
70850W        W39255  19.002  37.517   0.688
70851W        W39256  33.271  37.622   2.428
70852W        W39257  25.825  29.644   3.298
70853W        W39258  36.134  42.394   1.264
70854W        W39259  28.491  24.252   1.971
70855W        W39260  15.530  30.125   0.350
70856W        W39261  10.292  35.478   1.646
70857W        W39262  33.593  36.389   1.782
70858W        W39263  37.582  17.246   2.817
70859W        W39264  42.776  14.708   0.375
70860W        W39265   6.577  31.983   1.491
70861W        W39266  32.588  42.269  12.188
70862W        W39267  28.951   1.391  13.488
70863W        W39268  37.901  21.516  12.478
70864W        W39269  35.004  11.949  12.052
70865W        W39270  42.862  42.788  13.600
70866W        W39271   9.411  20.604  11.122
70867W        W39272  11.309  27.717  10.771
70868W        W39273  31.365  37.504  11.020
70869W        W39274  40.050  25.636   2.812
70870W        W39275   3.906  14.305   4.500
70871W        W39276  44.941  26.927  14.531
70872W        W39277   1.233   8.236  13.018
70873W        W39278  32.086  31.137   1.374
70874W        W39279   4.254  24.937   2.741
70875W        W39280  10.250  18.329   4.601
70876W        W39281   5.788  25.184  12.971
70877W        W39282   9.755  10.334  13.593
70878W        W39283  13.131  19.012   0.415
70879W        W39284  37.989  26.685  11.037
70880W        W39285  18.223  17.334   2.181
70881W        W39286   2.569  16.831   2.776
70882W        W39287   2.732  41.076  12.144
70883W        W39288   3.914  44.042   3.225
70884W        W39289  24.895   7.021  12.676
70885W        W39290  16.956  28.127   3.227
70886W        W39291  17.876  33.747  11.590
70887W        W39292  29.635  18.973   3.074
70888W        W39293   9.578  33.637  10.742
70889W        W39294  40.287  39.495   4.103
70890W        W39295  28.116   6.492   0.844
70891W        W39296  42.809  31.135   3.171
70892W        W39297  11.858  27.088  12.027
70893W        W39298   8.366  37.093   0.374
70894W        W39299  27.488  35.949  14.968
70895W        W39300   2.835  26.775   4.007
70896W        W39301  26.664  32.007   0.598
70897W        W39302   7.710  19.278   0.813
70898W        W39303  35.473  31.344  14.416
70899W        W39304  30.035  11.409  12.400
70900W        W39305  40.491  34.929  11.508
70901W        W39306  13.112   1.893   1.361
70902W        W39307  43.392  14.774   4.305
70903W        W39308  44.154  34.678  13.827
70904W        W39309  19.006  38.839  12.154
70905W        W39310   4.345  32.154  11.213
70906W        W39311  20.279  30.463  12.662
70907W        W39312  42.819   6.289   3.752
70908W        W39313  40.988  23.398  14.372
70909W        W39314   6.506  37.853  13.484
70910W        W39315  36.684  38.515  11.857
70911W        W39316   5.862  28.218  10.237
70912W        W39317   5.929  16.181  11.724
70913W        W39318  32.422  11.044   1.205
70914W        W39319  19.549  42.178   1.434
70915W        W39320  19.331   8.358  11.695
70916W        W39321  37.385  20.819   4.081
70917W        W39322   7.257  27.243  11.249
70918W        W39323  27.722  29.620  13.013
70919W        W39324  20.280  14.999   0.854
70920W        W39325  21.648  11.255   1.664
70921W        W39326  36.124   8.639  14.816
70922W        W39327  11.803   4.706  10.822
70923W        W39328   6.674  15.114   4.668
70924W        W39329  34.209  18.610   1.266
70925W        W39330  14.189  44.839  13.801
70926W        W39331  24.273  16.897  14.330
70927W        W39332  44.746   6.502   2.677
70928W        W39333  25.662  33.424  13.334
70929W        W39334  30.098   7.317   2.411
70930W        W39335  24.606   8.238   4.582
70931W        W39336  26.229  16.539  11.972
70932W        W39337  21.705   0.873  14.918
70933W        W39338   3.649   0.222   2.188
70934W        W39339   3.911   1.870  14.759
70935W        W39340  35.830  42.270  12.362
70936W        W39341   0.904   3.863   4.384
70937W        W39342  24.276   1.064   3.705
70938W        W39343   0.742  33.979   4.445
70939W        W39344  18.151   0.219   2.294
70940W        W39345  31.368  10.876  12.416
70941W        W39346   0.231  42.431  12.326
70942W        W39347   8.204  14.112  11.582
70943W        W39348  37.935  38.895  13.551
70944W        W39349  41.572  14.303  10.719
70945W        W39350  43.634   6.004  12.545
70946W        W39351  19.034  17.874  11.556
70947W        W39352   5.892  38.934   2.394
70948W        W39353  44.545  24.837   0.293
70949W        W39354   2.874  31.360  14.950
70950W        W39355  13.823  27.612   2.509
70951W        W39356  12.868  43.895   2.661
70952W        W39357  15.284  15.332  10.593
70953W        W39358  19.041  11.294   4.383
70954W        W39359  25.423  36.847   0.872
70955W        W39360  26.180  37.356   2.365
70956W        W39361  35.294  37.597   1.019
70957W        W39362  41.239   2.793  14.848
70958W        W39363  15.179  11.274   0.204
70959W        W39364   8.196  35.908   4.704
70960W        W39365  28.201   7.351   2.855
70961W        W39366  24.174  27.917   2.437
70962W        W39367  21.041   0.837  11.564
70963W        W39368  23.331  41.790  12.109
70964W        W39369  25.611  40.869   4.191
70965W        W39370  28.861  18.667   0.911
70966W        W39371  37.988  39.799  11.162
70967W        W39372   8.714  19.436  11.149
70968W        W39373  42.786   0.728   2.771
70969W        W39374  35.833  14.909  14.960
70970W        W39375  32.870  35.836  11.793
70971W        W39376   1.755  30.091   1.330
70972W        W39377  33.878  13.124   4.708
70973W        W39378  20.546  15.786   2.819
70974W        W39379  44.848  43.157  14.675
70975W        W39380   5.503   5.307  12.277
70976W        W39381  39.307  30.029  13.732
70977W        W39382  28.493  20.225  10.368
70978W        W39383  36.677   0.767  11.052
70979W        W39384  13.496  27.884   0.841
70980W        W39385   5.054   2.981   4.876
70981W        W39386  42.973  22.280  11.671
70982W        W39387  29.423  19.120  12.419
70983W        W39388  25.691   1.411  14.131
70984W        W39389  29.121  29.388  11.678
70985W        W39390  36.061  40.373   1.182
70986W        W39391  21.944  34.459   0.910
70987W        W39392  40.053   9.393   1.032
70988W        W39393  14.991  44.255  14.097
70989W        W39394  43.859  32.481  14.252
70990W        W39395   3.401  38.499  10.549
70991W        W39396  29.751  31.864  14.951
70992W        W39397  13.160  30.114  11.587
70993W        W39398  39.316  19.239   1.003
70994W        W39399  30.623  22.207  14.360
70995W        W39400  12.370  35.453  13.800
70996W        W39401  25.500  32.461   2.914
70997W        W39402  32.105  38.795   3.349
70998W        W39403  17.565  30.168  14.574
70999W        W39404  36.570  32.870   4.618
71000W        W39405   0.291   1.929   4.118
71001W        W39406  20.453   9.287  11.157
71002W        W39407  22.702  27.097   3.185
71003W        W39408   1.886  26.066  10.313
71004W        W39409  13.124  17.201  11.118
71005W        W39410  21.919  40.845   3.480
71006W        W39411   0.301  31.423  13.809
71007W        W39412  28.119  30.330  11.704
71008W        W39413  33.409  40.262  11.126
71009W        W39414  42.052   2.622  12.585
71010W        W39415  27.236   3.495   4.423
71011W        W39416  14.655   0.730   2.653
71012W        W39417  31.030  31.960  11.507
71013W        W39418  26.890  11.853  10.312
71014W        W39419  31.497  44.532  13.539
71015W        W39420   0.396  37.334   2.669
71016W        W39421   0.947  23.364   4.298
71017W        W39422  36.990   2.956   5.038
71018W        W39423   6.424  25.781   0.844
71019W        W39424  12.697  18.018   3.097
71020W        W39425  26.101  25.517   0.519
71021W        W39426   9.405   2.412  12.062
71022W        W39427  32.221  42.333   2.830
71023W        W39428  37.470  32.436   1.433
71024W        W39429  25.095  44.681   2.873
71025W        W39430  37.108   8.104  12.836
71026W        W39431  27.077  27.941  13.312
71027W        W39432  21.692   6.635  13.973
71028W        W39433  28.747  43.853   3.387
71029W        W39434  19.893   2.359   2.459
71030W        W39435   7.381  40.837   3.876
71031W        W39436  32.941   3.263  10.414
71032W        W39437  24.862  14.577   4.531
71033W        W39438   6.877   8.287   2.755
71034W        W39439   2.768  36.650   4.132
71035W        W39440  32.179  28.197   0.944
71036W        W39441  44.960  44.279   4.628
71037W        W39442  33.403  29.552  11.547
71038W        W39443  16.945  41.810  13.531
71039W        W39444  21.995  44.238  12.422
71040W        W39445  38.899  21.019   2.362
71041W        W39446  33.085  13.618  11.534
71042W        W39447  17.277  12.579   3.344
71043W        W39448  18.180  28.921  14.420
71044W        W39449  26.236  36.357   0.467
71045W        W39450  30.230  44.791   4.488
71046W        W39451  42.505   3.961  12.898
71047W        W39452  32.605  34.449  13.506
71048W        W39453  24.973  25.107  11.146
71049W        W39454  14.623  15.842   4.053
71050W        W39455  43.429  40.943   4.727
71051W        W39456  33.400  40.142   4.620
71052W        W39457   2.020   3.230   2.767
71053W        W39458  15.074  39.401  10.468
71054W        W39459  24.702  22.098   2.305
71055W        W39460  42.449  37.624  12.023
71056W        W39461  39.494  26.844  11.190
71057W        W39462  19.003  34.857   5.002
71058W        W39463  26.157  20.843   0.936
71059W        W39464  38.985  26.661  11.225
71060W        W39465  15.198   0.016  10.707
71061W        W39466   5.953   5.731   0.547
71062W        W39467   7.737  21.025   9.869
71063W        W39468  18.588  37.936   2.187
71064W        W39469  19.197  24.968   3.298
71065W        W39470  12.184   5.573  13.056
71066W        W39471  19.063  37.013  10.719
71067W        W39472  12.078  13.953   0.829
71068W        W39473  11.332  41.968   4.167
71069W        W39474  10.704  36.988   1.334
71070W        W39475   6.640  12.187   4.641
71071W        W39476  38.478  12.814  14.895
71072W        W39477  24.206   3.277  12.091
71073W        W39478   0.109  20.094   1.814
71074W        W39479   3.795   5.495   1.549
71075W        W39480  37.922  39.290  12.112
71076W        W39481  15.695  14.957  11.507
71077W        W39482  38.279  34.862   4.166
71078W        W39483  33.369  17.013  10.674
71079W        W39484  41.027  35.017   4.843
71080W        W39485  16.336  24.233   0.380
71081W        W39486   1.025  42.296   1.670
71082W        W39487  20.049  11.620  10.995
71083W        W39488  23.999  20.029   4.244
71084W        W39489  12.159  18.614   1.947
71085W        W39490  28.552  31.784   3.612
71086W        W39491  20.779  34.664   3.384
71087W        W39492  43.640   9.420  10.665
71088W        W39493  10.866  27.015  10.993
71089W        W39494  33.036  39.351  11.832
71090W        W39495  32.058  25.155  11.315
71091W        W39496  35.084  43.568  14.607
71092W        W39497  13.653  44.544   4.569
71093W        W39498  18.563  19.073   3.863
71094W        W39499  19.331  35.510  14.514
71095W        W39500  43.808   3.478  12.437
71096W        W39501  39.494  36.174  13.408
71097W        W39502   2.787  17.708  14.985
71098W        W39503  13.850  33.692   1.403
71099W        W39504  39.560  15.073  13.791
71100W        W39505  31.924  26.629  13.971
71101W        W39506  35.920   2.356   2.965
71102W        W39507  12.267   9.801  11.839
71103W        W39508  11.287  42.345  14.592
71104W        W39509  29.432  27.871  13.842
71105W        W39510   8.396  11.273  12.424
71106W        W39511  20.410  39.451  13.955
71107W        W39512  28.159  43.325   0.984
71108W        W39513  26.315  16.200   3.254
71109W        W39514  33.160  13.685  13.860
71110W        W39515  23.250  15.246  11.017
71111W        W39516  41.302   6.837  13.424
71112W        W39517   2.328  44.333   4.144
71113W        W39518   0.515  22.072   2.284
71114W        W39519  28.671  23.205   4.650
71115W        W39520  42.260  29.403  11.018
71116W        W39521  40.414  28.647   4.818
71117W        W39522  17.393  19.254  13.954
71118W        W39523  12.287   2.417   2.536
71119W        W39524  10.114  22.724   3.389
71120W        W39525   2.470   3.296  14.524
71121W        W39526  24.112   3.245   2.725
71122W        W39527  24.219   0.724  11.104
71123W        W39528  35.648  28.525   1.339
71124W        W39529   3.111  14.328  11.026
71125W        W39530  43.790  14.975  14.564
71126W        W39531  29.190  38.418  12.222
71127W        W39532  39.876  11.194  10.776
71128W        W39533  42.137  39.627  11.707
71129W        W39534  35.889  13.820   1.039
71130W        W39535  38.462  33.408   0.313
71131W        W39536  38.477  43.959  11.916
71132W        W39537  35.803  40.811   2.802
71133W        W39538   3.268  30.123   2.492
71134W        W39539  27.506  18.696  13.116
71135W        W39540  42.046   6.796  12.921
71136W        W39541  18.205  30.634   0.443
71137W        W39542  30.993  30.737  12.826
71138W        W39543   2.786  10.272   1.372
71139W        W39544  44.882  42.151   1.420
71140W        W39545  16.565  17.997  12.016
71141W        W39546  21.663  41.996  14.894
71142W        W39547  18.777  26.665  12.570
71143W        W39548  34.855  37.720   3.740
71144W        W39549  17.498  39.736   2.714
71145W        W39550  29.555   2.492  10.829
71146W        W39551  10.220  19.614   0.690
71147W        W39552  19.254  16.164   2.577
71148W        W39553  23.811  40.357   2.233
71149W        W39554  15.233  11.476   4.301
71150W        W39555  15.219  43.039   1.408
71151W        W39556  32.404  43.755  11.985
71152W        W39557  29.916  12.459   1.884
71153W        W39558  30.902  16.258  11.071
71154W        W39559  19.661  15.066   1.654
71155W        W39560  23.905   1.777  14.428
71156W        W39561  12.639  29.472  11.969
71157W        W39562   5.706  13.010  11.094
71158W        W39563  19.664   7.824  10.991
71159W        W39564  41.682  15.702   3.197
71160W        W39565   2.864  12.900  12.531
71161W        W39566  35.201  27.685   0.835
71162W        W39567  18.538  25.443   3.833
71163W        W39568  27.940  29.419  10.130
71164W        W39569  39.128  44.417   0.347
71165W        W39570   6.681   2.937  13.783
71166W        W39571   0.284   8.301  10.339
71167W        W39572  16.518   1.499   4.542
71168W        W39573  25.990   2.802  10.969
71169W        W39574  39.377  26.995   2.690
71170W        W39575  30.482  12.832   3.272
71171W        W39576  20.472  26.584   0.151
71172W        W39577  11.329  29.175  11.850
71173W        W39578  20.787  37.582   3.251
71174W        W39579  43.729  41.304  13.931
71175W        W39580  41.572  20.528  13.352
71176W        W39581  44.219  20.146   1.510
71177W        W39582   5.793  16.726   1.815
71178W        W39583  29.099  18.631  12.527
71179W        W39584  12.401  33.696   3.406
71180W        W39585  44.931  23.757   0.955
71181W        W39586  36.072   8.845   2.189
71182W        W39587   1.418  17.385   1.648
71183W        W39588   7.787  14.369   1.747
71184W        W39589   1.768  37.957   3.804
71185W        W39590  12.427  11.227   0.486
71186W        W39591  11.158  20.202   2.725
71187W        W39592  25.244  37.999  14.118
71188W        W39593   1.907  27.003  11.169
71189W        W39594  26.270  21.712  12.015
71190W        W39595  40.900  30.103  13.867
71191W        W39596  19.176  22.128  12.489
71192W        W39597  16.107   5.243   0.244
71193W        W39598  27.766  38.150  13.442
71194W        W39599   0.024  12.144  11.000
71195W        W39600  29.144  18.503   1.884
71196W        W39601  36.061  16.271   3.291
71197W        W39602  11.299  40.053   2.880
71198W        W39603  21.307  11.744  13.059
71199W        W39604   6.747  28.635   9.973
71200W        W39605   7.672  29.646  10.837
71201W        W39606  10.222  41.274   3.667
71202W        W39607  39.523   1.322  13.422
71203W        W39608  22.787  25.229  12.351
71204W        W39609  31.842  33.405   3.794
71205W        W39610   0.744  16.744   4.318
71206W        W39611  33.838  43.726   3.838
71207W        W39612  18.666  14.773   2.534
71208W        W39613  12.665  34.058   0.058
71209W        W39614  14.543  34.682   5.075
71210W        W39615  17.236  20.230   3.046
71211W        W39616  19.258  14.121   4.521
71212W        W39617  23.752  10.287   2.705
71213W        W39618  43.558  18.515  12.101
71214W        W39619  37.249  36.304   1.291
71215W        W39620  12.842  31.544  11.201
71216W        W39621  29.592   8.949   1.806
71217W        W39622  44.480  39.365   2.288
71218W        W39623  30.713  23.636  14.309
71219W        W39624   9.897  26.836  14.461
71220W        W39625  44.541  10.220  12.908
71221W        W39626  44.371   9.532  13.419
71222W        W39627  41.469   3.218   9.738
71223W        W39628  21.979   5.943   0.443
71224W        W39629  21.976  42.961  13.958
71225W        W39630  33.041   1.535   0.261
71226W        W39631  14.196  10.166  10.593
71227W        W39632  12.829  44.491   3.153
71228W        W39633  44.568   0.086   4.376
71229W        W39634  25.669  38.440  10.658
71230W        W39635  29.036  16.782   2.879
71231W        W39636  44.330  18.009  13.266
71232W        W39637  25.109  40.638  13.475
71233W        W39638   2.893   4.136  10.677
71234W        W39639  27.489  44.376  12.468
71235W        W39640  42.994  23.197   4.129
71236W        W39641  21.106  19.259   1.723
71237W        W39642  30.664  22.996  12.128
71238W        W39643  38.084  41.485   3.692
71239W        W39644  29.137  40.905   2.554
71240W        W39645   0.669  41.338   1.870
71241W        W39646  20.133   3.148   3.095
71242W        W39647  41.684  40.343  10.743
71243W        W39648  17.177  28.494  13.085
71244W        W39649  26.598   0.035  12.780
71245W        W39650  36.874  11.745   2.833
71246W        W39651  30.202   6.315  12.147
71247W        W39652  43.479  33.879   3.227
71248W        W39653  12.308  44.393  11.970
71249W        W39654  26.933  29.913   2.568
71250W        W39655  27.433  26.719  12.002
71251W        W39656  38.999  35.842   3.064
71252W        W39657  31.513  22.030   4.331
71253W        W39658  38.775  15.634  14.910
71254W        W39659  10.604  15.678   9.645
71255W        W39660  31.781  15.227   1.252
71256W        W39661  10.073   4.663  14.435
71257W        W39662  11.735  27.438   1.803
71258W        W39663  33.957  44.758  12.651
71259W        W39664  33.406  27.647   3.665
71260W        W39665  19.549  30.161  13.801
71261W        W39666  41.944  26.206   4.604
71262W        W39667  10.592  11.335   2.699
71263W        W39668  26.168  30.251  14.042
71264W        W39669  26.239  38.173   4.555
71265W        W39670  20.058  13.375  11.554
71266W        W39671  27.170  12.913  13.518
71267W        W39672   1.044   2.440   0.445
71268W        W39673  11.597  17.351   4.415
71269W        W39674  14.237   2.455   0.343
71270W        W39675   3.697  24.248   4.350
71271W        W39676  19.398  26.979   2.773
71272W        W39677  10.242  22.994  11.575
71273W        W39678  30.566  43.238   0.774
71274W        W39679  16.565  20.201  11.637
71275W        W39680   4.015  32.108   4.885
71276W        W39681  18.307  24.528   3.718
71277W        W39682  34.281  41.361   2.708
71278W        W39683  19.158  37.366  13.022
71279W        W39684  41.334  11.671   1.408
71280W        W39685  35.593   1.220   2.638
71281W        W39686   7.263  23.726   3.719
71282W        W39687  43.003   6.890   4.536
71283W        W39688  12.190   9.601   1.301
71284W        W39689  44.469  28.247   3.447
71285W        W39690  26.479  30.374   3.174
71286W        W39691  41.786   9.580  11.723
71287W        W39692  12.423  14.100  13.025
71288W        W39693  19.599  37.378   2.469
71289W        W39694  40.045  43.736  14.450
71290W        W39695  34.993   4.990   1.376
71291W        W39696  31.530  41.369   3.727
71292W        W39697  40.987   3.097   2.869
71293W        W39698   8.347  39.490   2.044
71294W        W39699  35.081  21.027  10.715
71295W        W39700  13.625  23.043   4.141
71296W        W39701  40.325  42.125  11.477
71297W        W39702   5.524  30.645  13.058
71298W        W39703  37.770  24.938  11.643
71299W        W39704  32.964  29.696  10.706
71300W        W39705  26.540  19.044  12.486
71301W        W39706  19.708  40.861   1.250
71302W        W39707   8.293  27.208  12.624
71303W        W39708   3.621   4.474  14.351
71304W        W39709  22.233  22.667   4.931
71305W        W39710  10.027   2.504  12.503
71306W        W39711  38.011  24.531   4.511
71307W        W39712  40.999  19.710  10.634
71308W        W39713   8.882  22.658  14.896
71309W        W39714  29.699  42.945  14.364
71310W        W39715  16.801   3.874   0.401
71311W        W39716  14.844  31.007   1.509
71312W        W39717   0.488  10.858  12.655
71313W        W39718  44.809  25.162  13.136
71314W        W39719  27.931   6.203   3.774
71315W        W39720  23.634   2.716  13.439
71316W        W39721  10.709  17.827   1.846
71317W        W39722  37.664  20.218  11.211
71318W        W39723  30.180  13.902   1.654
71319W        W39724  18.082  27.033  12.272
71320W        W39725  19.178  25.247   9.891
71321W        W39726   9.791  22.762   1.855
71322W        W39727  36.339  17.876  13.084
71323W        W39728  40.461  35.645  12.710
71324W        W39729   0.777  44.515   1.474
71325W        W39730  16.227  11.715  12.804
71326W        W39731  34.129  30.184   0.465
71327W        W39732  38.642  13.162  11.662
71328W        W39733   4.666  40.056  13.432
71329W        W39734   8.424  34.440  13.833
71330W        W39735  31.042  38.637  12.980
71331W        W39736   7.626   8.621   3.304
71332W        W39737  20.531  29.892   4.813
71333W        W39738  39.552   6.464   4.101
71334W        W39739  28.774  36.943  14.306
71335W        W39740  25.408  34.407   2.512
71336W        W39741   1.348  13.285  11.180
71337W        W39742  36.531  19.750  13.470
71338W        W39743  24.973  17.727  12.867
71339W        W39744  33.505  17.105   0.520
71340W        W39745   2.089  14.735  12.211
71341W        W39746  11.345  24.499  11.158
71342W        W39747   2.316   7.095   3.205
71343W        W39748  20.489   9.504  12.457
71344W        W39749  21.301   0.284   2.769
71345W        W39750  36.612  22.619  11.226
71346W        W39751   9.263  39.250  14.335
71347W        W39752   4.890  23.354   3.296
71348W        W39753  39.369   6.001  12.575
71349W        W39754  14.780   8.215   1.807
71350W        W39755  20.773  43.294  12.328
71351W        W39756  30.289  44.177   2.423
71352W        W39757   4.972  32.251   2.672
71353W        W39758  27.176  16.643   1.036
71354W        W39759  10.267  41.633   3.233
71355W        W39760  32.207  34.103   4.130
71356W        W39761  40.368  34.438   4.534
71357W        W39762  20.192  33.389  12.692
71358W        W39763   9.452  20.773   2.834
71359W        W39764  16.614  30.611  11.525
71360W        W39765  29.290   5.591  11.813
71361W        W39766  41.165  29.925  14.304
71362W        W39767  25.168  34.465  12.021
71363W        W39768  28.931  14.067   3.622
71364W        W39769  42.476  22.830  13.824
71365W        W39770  26.563  40.962  10.721
71366W        W39771   7.763  26.513   2.831
71367W        W39772  13.316  19.827   0.790
71368W        W39773  27.944  31.194   0.004
71369W        W39774  33.431  22.530  12.424
71370W        W39775  35.957  17.829   1.290
71371W        W39776  42.942   4.173   1.416
71372W        W39777  10.295  21.101   2.191
71373W        W39778  26.299  34.449  11.655
71374W        W39779  11.902   9.841   4.357
71375W        W39780  29.889  17.153   2.664
71376W        W39781   8.979   2.201   4.637
71377W        W39782  10.626  22.037   3.730
71378W        W39783  44.018  12.579  13.048
71379W        W39784   0.809  34.117  11.995
71380W        W39785  25.117   2.028   1.536
71381W        W39786  16.726  40.780   0.498
71382W        W39787   2.837  34.997  13.592
71383W        W39788   3.926  25.042  11.610
71384W        W39789  16.168  13.196   3.529
71385W        W39790  40.754  12.766  13.283
71386W        W39791   4.756  22.285   2.220
71387W        W39792  42.297  12.340  12.915
71388W        W39793  11.435  11.372   0.493
71389W        W39794  42.899  32.685   4.602
71390W        W39795  19.559   0.953   3.711
71391W        W39796   6.078  13.268  10.811
71392W        W39797  43.160  25.168   0.768
71393W        W39798  39.607   8.236   3.581
71394W        W39799  34.171  35.922  13.536
71395W        W39800  23.969  34.933  12.267
71396W        W39801   4.866   7.748  13.859
71397W        W39802  39.610  29.093  12.599
71398W        W39803  42.869   8.649  13.006
71399W        W39804  29.064  44.203  11.693
71400W        W39805  31.165  14.680   0.919
71401W        W39806  43.985  23.258  13.403
71402W        W39807  12.306  13.066  13.496
71403W        W39808  36.338   2.877   4.598
71404W        W39809  42.777  26.386  14.387
71405W        W39810  21.288  27.152  11.872
71406W        W39811   6.584   0.507  11.114
71407W        W39812  41.474  10.064  11.105
71408W        W39813  40.464  14.186  14.562
71409W        W39814  15.073  29.962   3.691
71410W        W39815  14.386  38.842   1.403
71411W        W39816  41.407  12.950  10.629
71412W        W39817  35.043  12.744   0.770
71413W        W39818  28.366  39.071  12.476
71414W        W39819   9.261  12.276  13.403
71415W        W39820   4.238  35.474   2.320
71416W        W39821  15.072  20.545   4.531
71417W        W39822   8.989  11.724  14.334
71418W        W39823  38.562   1.260  12.849
71419W        W39824   6.332   1.752   1.887
71420W        W39825  15.108  44.763   3.387
71421W        W39826  40.181  21.793   4.069
71422W        W39827  38.084  37.825  10.852
71423W        W39828  35.763  10.549   5.003
71424W        W39829  25.672  21.014   0.839
71425W        W39830  27.842  43.507  10.338
71426W        W39831  12.208  40.812  10.955
71427W        W39832  15.787  25.546  10.261
71428W        W39833  31.276   1.437  14.907
71429W        W39834  30.200  29.636  11.078
71430W        W39835   0.682  32.172   2.340
71431W        W39836  20.931  36.152   1.055
71432W        W39837   7.571  44.699  12.991
71433W        W39838  39.618  42.798   1.848
71434W        W39839  11.396  10.744   1.405
71435W        W39840   3.948   1.029   2.763
71436W        W39841  37.298  14.421  11.184
71437W        W39842  22.999  44.951   4.142
71438W        W39843  25.278  12.181   3.411
71439W        W39844  31.617  23.999   0.816
71440W        W39845  23.214  41.847  13.283
71441W        W39846  22.948  32.110   4.136
71442W        W39847  31.570   4.952   2.186
71443W        W39848  12.054  13.083  10.736
71444W        W39849  17.071  23.183   3.212
71445W        W39850  38.145   1.663  14.053
71446W        W39851  17.266  17.215   1.722
71447W        W39852  34.444   9.338   0.387
71448W        W39853  17.236  38.837   1.200
71449W        W39854  23.306  41.062   4.582
71450W        W39855  18.226  17.022   0.113
71451W        W39856  36.062   9.360   4.595
71452W        W39857  25.234  17.011   2.898
71453W        W39858  11.097  19.130   2.696
71454W        W39859  17.661  41.964  12.442
71455W        W39860  36.264  24.103  14.153
71456W        W39861  37.314   6.963  13.372
71457W        W39862   8.763  18.094  10.697
71458W        W39863   1.313   0.418  11.620
71459W        W39864  38.614  25.042  14.549
71460W        W39865  27.654  14.659   2.638
71461W        W39866  42.827  22.489  14.834
71462W        W39867  27.136  29.083  13.433
71463W        W39868  32.320  41.885   0.961
71464W        W39869   2.641   6.999  13.536
71465W        W39870  19.681   1.982  13.783
71466W        W39871  36.525  28.092  12.121
71467W        W39872  28.750  16.826   4.556
71468W        W39873   1.189  27.776  13.449
71469W        W39874  12.242  33.564   2.478
71470W        W39875  32.634  34.978  14.986
71471W        W39876  15.244  23.660  14.560
71472W        W39877  24.635  35.096   4.771
71473W        W39878  23.379  40.999   0.830
71474W        W39879  17.299  24.277  11.257
71475W        W39880  37.414  22.220  11.968
71476W        W39881  26.122  10.886   3.948
71477W        W39882   6.239  27.925   1.337
71478W        W39883   4.882   1.708  12.880
71479W        W39884  29.668  40.543  12.952
71480W        W39885  13.719   9.935  14.997
71481W        W39886   3.689  30.036   4.213
71482W        W39887   8.313  12.215  13.176
71483W        W39888  25.863   6.628   3.749
71484W        W39889  36.863  29.898  12.134
71485W        W39890  43.477  20.665   2.483
71486W        W39891  25.742   1.713   9.871
71487W        W39892   3.023  29.981  10.878
71488W        W39893   4.602   1.253   2.256
71489W        W39894  32.094   6.962  13.909
71490W        W39895   9.638  33.871  12.895
71491W        W39896   5.411  26.106   4.100
71492W        W39897  15.614  12.607   2.713
71493W        W39898   4.859  36.302  11.971
71494W        W39899  24.433  33.715   3.662
71495W        W39900   0.324  37.044  11.128
71496W        W39901  29.705  29.872  12.494
71497W        W39902  27.520  10.423   3.065
71498W        W39903  28.335  10.576   2.827
71499W        W39904  30.970  26.108  12.851
71500W        W39905   0.014  10.775  12.447
71501W        W39906   7.062  42.170   0.380
71502W        W39907  11.538  37.037  12.995
71503W        W39908  12.227   0.205   1.625
71504W        W39909  16.328  38.592  13.047
71505W        W39910   7.414   5.329   2.330
71506W        W39911  28.530  10.434  13.328
71507W        W39912  12.073  36.990  12.991
71508W        W39913  29.542  12.873   4.140
71509W        W39914  17.734   5.066   0.474
71510W        W39915   6.745  36.025   4.422
71511W        W39916  37.439   2.840   3.859
71512W        W39917  39.864  28.145   0.988
71513W        W39918  33.428   0.523   4.358
71514W        W39919   8.128  42.939   4.243
71515W        W39920  17.760  28.734   1.435
71516W        W39921  14.152  43.311   2.752
71517W        W39922  24.536  32.919   1.877
71518W        W39923  11.632  41.547  14.806
71519W        W39924  34.612  14.310  14.251
71520W        W39925  10.218  18.832   0.283
71521W        W39926  24.088  22.897   2.798
71522W        W39927  26.117  28.094   2.205
71523W        W39928  17.155  20.229   3.545
71524W        W39929  36.327  43.152  13.917
71525W        W39930   5.197  15.652  11.645
71526W        W39931  19.124  38.548  13.810
71527W        W39932   5.620  38.967   2.838
71528W        W39933  12.154  28.270   4.293
71529W        W39934  40.910  38.629   3.650
71530W        W39935  20.437   8.447   4.255
71531W        W39936   4.851  14.053   5.057
71532W        W39937  39.275   2.224  10.267
71533W        W39938  42.834  29.084   0.168
71534W        W39939   3.689  34.381   0.980
71535W        W39940   6.199  21.430   1.054
71536W        W39941  30.862  30.164   2.318
71537W        W39942   8.834  35.517   1.684
71538W        W39943   1.449  28.900   2.741
71539W        W39944  18.206  14.780   0.558
71540W        W39945  19.595  44.956   3.633
71541W        W39946  43.828   1.261  14.775
71542W        W39947  31.293  34.452  11.603
71543W        W39948  23.679  23.987  10.699
71544W        W39949  11.827  12.125   4.537
71545W        W39950  18.248  39.456   2.293
71546W        W39951  38.020  35.582   1.382
71547W        W39952  14.434   0.631  12.837
71548W        W39953   1.032  20.137  13.116
71549W        W39954  13.268  31.242   0.081
71550W        W39955  27.625  32.939  12.672
71551W        W39956  25.162  27.745  11.520
71552W        W39957  43.560   7.850   0.234
71553W        W39958  17.822  10.920  10.029
71554W        W39959  25.001  10.898   0.468
71555W        W39960  24.971   9.199   1.788
71556W        W39961  44.433  22.658   2.514
71557W        W39962  23.996  10.068   4.155
71558W        W39963   6.889  32.953  14.790
71559W        W39964  11.626  22.238   3.633
71560W        W39965   3.016  22.652   1.106
71561W        W39966   5.157   6.264   5.158
71562W        W39967  44.298  12.447   1.833
71563W        W39968  19.566  33.782  10.809
71564W        W39969   3.463  23.798   2.665
71565W        W39970  20.858  27.171  11.581
71566W        W39971  35.094  38.005   1.284
71567W        W39972  29.005  38.647   3.530
71568W        W39973   8.489  18.565  13.082
71569W        W39974  14.583  37.310   5.039
71570W        W39975   4.179  33.748  10.000
71571W        W39976  13.078  15.569   1.397
71572W        W39977  44.388  11.030  10.233
71573W        W39978   0.797   2.406  14.990
71574W        W39979  38.267  39.023   1.430
71575W        W39980  16.359  14.645   0.919
71576W        W39981  29.630  34.886   2.931
71577W        W39982  37.808  30.771  12.513
71578W        W39983  43.840  43.996   4.399
71579W        W39984   1.923  34.190   2.246
71580W        W39985  22.203  39.415   1.419
71581W        W39986  30.935  16.362  13.562
71582W        W39987   8.284   1.049  14.424
71583W        W39988   9.935  17.573  12.207
71584W        W39989   3.728  42.312  13.549
71585W        W39990  14.145   0.287  13.537
71586W        W39991  28.886  12.618   3.720
71587W        W39992   9.013   0.266   2.829
71588W        W39993  42.016  30.947  14.011
71589W        W39994  29.073  19.301  11.137
71590W        W39995   9.740  35.280   4.111
71591W        W39996  34.857  31.047  13.368
71592W        W39997   5.941  12.108  14.457
71593W        W39998  35.032  12.243  10.763
71594W        W39999  22.567  19.813  13.994
71595W        W40000   2.742  13.803   3.781
71596W        W40001   4.520  36.460   2.313
71597W        W40002   0.301   5.904  13.912
71598W        W40003   6.293  40.018   3.855
71599W        W40004   5.602  30.582  14.804
71600W        W40005  24.743   2.928  13.012
71601W        W40006  13.256  42.960   5.285
71602W        W40007  22.780  21.289   4.335
71603W        W40008   8.992  42.665  13.501
71604W        W40009  31.722  41.020  14.547
71605W        W40010   6.608   7.779   0.828
71606W        W40011  11.204  37.040  14.860
71607W        W40012  41.843   6.299   0.398
71608W        W40013  42.040  38.695   0.149
71609W        W40014  10.354  19.745  13.590
71610W        W40015  16.289  11.220  13.962
71611W        W40016  26.519  29.953  12.858
71612W        W40017   9.161  44.810  14.438
71613W        W40018  20.697  10.773  13.393
71614W        W40019  14.033   6.439  10.423
71615W        W40020  12.389  22.050  14.535
71616W        W40021  29.022   2.748  11.641
71617W        W40022   9.259  26.312   1.249
71618W        W40023   9.381  38.837   1.433
71619W        W40024  17.268   1.567  14.741
71620W        W40025  27.653  10.099  13.248
71621W        W40026  26.873  37.056   3.261
71622W        W40027  41.283  36.670  13.884
71623W        W40028  32.608  27.692   3.286
71624W        W40029  14.306  42.001  10.757
71625W        W40030  32.492  36.531  11.164
71626W        W40031  32.397  44.949   3.850
71627W        W40032  28.000  14.467   2.290
71628W        W40033   6.837  19.688   2.823
71629W        W40034  26.386  17.914  10.016
71630W        W40035  35.209  19.038   0.810
71631W        W40036   2.305   0.373   3.624
71632W        W40037   3.006  25.611   0.425
71633W        W40038   5.296  19.007  14.933
71634W        W40039  40.057   8.864   3.177
71635W        W40040   7.787   3.401  14.391
71636W        W40041  35.550  10.656  14.479
71637W        W40042  36.761  37.009   1.958
71638W        W40043  34.884   0.496  13.452
71639W        W40044   0.521   5.839   0.753
71640W        W40045  15.679  18.183  11.466
71641W        W40046  14.611  26.204  13.915
71642W        W40047  32.016  36.710   1.075
71643W        W40048  31.111  22.598   3.685
71644W        W40049  16.109  27.975  14.331
71645W        W40050  40.019  20.445   1.002
71646W        W40051  25.481  43.235   4.669
71647W        W40052  29.782  41.910  10.516
71648W        W40053   6.243  30.344   1.954
71649W        W40054  26.257  41.764   1.341
71650W        W40055   7.943  35.456   4.512
71651W        W40056   0.250  24.281  12.720
71652W        W40057   3.220  29.654  13.404
71653W        W40058  33.053  10.396  13.441
71654W        W40059  11.355  15.772   4.986
71655W        W40060   8.401  22.778   1.686
71656W        W40061  23.682  14.468   0.326
71657W        W40062  18.987  12.390  11.546
71658W        W40063   3.278  38.767  12.367
71659W        W40064   1.588  24.168  13.868
71660W        W40065  30.494  29.908   0.687
71661W        W40066   8.731  26.596   5.100
71662W        W40067   4.123   0.780  11.645
71663W        W40068  16.936  25.173  15.000
71664W        W40069  44.483   4.630   2.780
71665W        W40070  33.371   3.320   3.735
71666W        W40071  13.013  13.048  11.013
71667W        W40072  12.815  20.087  10.576
71668W        W40073  34.966   3.315   3.221
71669W        W40074  25.038   5.458   3.782
71670W        W40075  35.551  30.838  12.069
71671W        W40076   2.074   8.075   4.968
71672W        W40077  18.082   4.735  10.313
71673W        W40078  25.557  17.585  10.073
71674W        W40079   2.780   5.632  14.341
71675W        W40080  23.232  36.966   4.188
71676W        W40081   5.670  41.815   3.336
71677W        W40082  42.809  40.538   4.191
71678W        W40083  28.987  21.587   3.882
71679W        W40084   4.171  35.426   4.160
71680W        W40085  41.222  13.875  11.483
71681W        W40086  21.710  30.629  11.028
71682W        W40087  44.432  39.422  13.335
71683W        W40088   7.737  19.452  12.098
71684W        W40089  23.494  20.562  10.649
71685W        W40090  23.710  25.934   4.160
71686W        W40091  11.406  13.647   2.113
71687W        W40092   4.691   9.427   3.315
71688W        W40093  32.136  13.783   1.296
71689W        W40094   3.250  20.261  12.836
71690W        W40095  16.776  29.546   0.261
71691W        W40096  44.503  13.844   1.625
71692W        W40097  36.371  30.951  12.544
71693W        W40098  22.611  36.517   3.230
71694W        W40099   1.915  10.837  10.731
71695W        W40100  12.683  18.582   2.864
71696W        W40101  36.389  18.375  11.394
71697W        W40102  35.067  36.416  11.975
71698W        W40103  39.991   3.338   1.779
71699W        W40104  19.717  13.211   3.992
71700W        W40105  15.850  19.664   4.457
71701W        W40106  25.598  17.567  14.844
71702W        W40107  33.285  34.296  12.950
71703W        W40108  22.635  17.499  10.933
71704W        W40109  31.216  43.500   0.042
71705W        W40110  10.123   6.076  14.795
71706W        W40111   3.421  44.295  11.981
71707W        W40112  23.679   0.898   2.842
71708W        W40113   3.714  33.934  14.317
71709W        W40114  32.608   1.955  14.385
71710W        W40115  14.593  41.831   2.293
71711W        W40116  38.333  37.108  11.251
71712W        W40117  12.345   4.859   2.386
71713W        W40118  37.638   3.893   1.789
71714W        W40119  19.229  17.960  14.014
71715W        W40120   9.474  26.418   0.800
71716W        W40121  39.289  25.732   3.273
71717W        W40122  35.891  26.810  10.468
71718W        W40123  19.516  33.276  11.156
71719W        W40124   6.354   3.288   3.177
71720W        W40125  16.105  32.403   0.770
71721W        W40126   8.732  12.748   3.378
71722W        W40127  19.362   5.209   0.758
71723W        W40128  19.733  42.600   0.340
71724W        W40129  43.733  44.046   3.023
71725W        W40130  25.655  26.997  12.148
71726W        W40131  21.947  26.656  11.360
71727W        W40132  28.688  35.614   4.587
71728W        W40133  11.833  20.593   1.456
71729W        W40134  43.267  36.014  11.534
71730W        W40135  12.314   2.991  10.660
71731W        W40136  21.110  35.281  11.978
71732W        W40137  21.519  32.908  11.171
71733W        W40138   1.886  30.398   4.956
71734W        W40139  27.835  38.078  11.118
71735W        W40140  22.500  40.176   0.791
71736W        W40141  27.210  22.678  14.317
71737W        W40142   0.764  35.937   1.760
71738W        W40143  17.795   5.759   3.945
71739W        W40144  10.413   3.807   4.118
71740W        W40145  26.918  14.053  12.093
71741W        W40146  15.769  24.920  12.865
71742W        W40147  19.041  33.975   1.932
71743W        W40148  19.705  30.605   4.104
71744W        W40149  30.380  28.213   0.232
71745W        W40150  42.397  42.839   4.127
71746W        W40151  30.986  41.515   0.396
71747W        W40152  41.294  34.900   0.673
71748W        W40153   2.705   9.954  14.293
71749W        W40154  34.657  44.233  12.421
71750W        W40155  34.893  39.301   3.655
71751W        W40156  21.768  36.874   2.745
71752W        W40157  31.534  35.779   0.388
71753W        W40158  28.576  34.979  13.152
71754W        W40159  41.931   8.871   1.234
71755W        W40160  33.171  18.580   1.407
71756W        W40161  17.778  23.238   0.325
71757W        W40162  39.016  17.669   4.507
71758W        W40163  11.099  18.794   2.266
71759W        W40164  31.727   3.237   3.210
71760W        W40165  41.088   8.926   3.316
71761W        W40166  43.961  19.323   1.880
71762W        W40167  41.810  43.782  13.755
71763W        W40168   7.241  37.556   1.387
71764W        W40169  14.591  33.913   2.688
71765W        W40170   3.110  39.399  14.761
71766W        W40171  34.455  32.382  11.943
71767W        W40172   4.315  32.015  13.436
71768W        W40173  16.156  31.914  13.028
71769W        W40174  31.019  40.005  10.648
71770W        W40175   0.497  13.808  12.031
71771W        W40176   1.337  40.634  13.055
71772W        W40177  26.259   3.076  13.878
71773W        W40178  44.841   5.671  14.821
71774W        W40179  25.146   8.411  10.689
71775W        W40180  37.551  21.462   2.692
71776W        W40181  14.675   1.394  14.045
71777W        W40182   4.004  42.869  11.048
71778W        W40183  21.797   7.424   1.451
71779W        W40184  17.256  21.663   0.943
71780W        W40185  37.089  28.448   3.315
71781W        W40186  41.981  20.833   1.654
71782W        W40187  36.623  30.919  11.672
71783W        W40188   7.803  18.315  14.493
71784W        W40189  33.761  12.335   1.394
71785W        W40190  20.834  38.389  14.468
71786W        W40191   7.033  33.200  13.842
71787W        W40192  24.100   5.020   5.378
71788W        W40193  30.277  36.116  11.479
71789W        W40194  21.190  34.462   2.623
71790W        W40195  43.752  17.800  13.931
71791W        W40196  34.942  27.702  10.464
71792W        W40197  44.754  19.288  12.619
71793W        W40198  44.382  22.135   4.109
71794W        W40199  35.771   6.447   3.403
71795W        W40200  25.164  16.892   0.186
71796W        W40201  36.748  13.969   5.099
71797W        W40202  37.987  18.330   1.842
71798W        W40203  44.644  15.076   3.679
71799W        W40204   2.772  42.743   3.699
71800W        W40205   5.952   6.176   3.152
71801W        W40206  22.823  25.996  11.514
71802W        W40207  19.442  41.806  12.660
71803W        W40208   4.872  38.168  10.710
71804W        W40209   4.752   3.483   3.716
71805W        W40210  41.032  12.115  12.452
71806W        W40211   8.427  23.484   2.696
71807W        W40212  39.504   2.023   5.444
71808W        W40213  11.842  29.695   4.159
71809W        W40214  31.413   3.344  14.937
71810W        W40215  11.246   3.860  14.975
71811W        W40216  26.411  37.025   0.701
71812W        W40217   1.337  24.494  11.466
71813W        W40218  40.384  25.240   1.901
71814W        W40219  35.531   0.398   0.849
71815W        W40220  24.052  18.572  11.261
71816W        W40221   5.299  39.939  11.562
71817W        W40222  22.089  39.006  10.627
71818W        W40223  27.778  32.637  11.401
71819W        W40224  10.871  15.961  11.360
71820W        W40225  41.984  43.404  13.424
71821W        W40226  13.798  29.971   0.345
71822W        W40227  28.007  22.036   0.569
71823W        W40228  23.644  44.682  12.440
71824W        W40229  17.731  37.709   2.712
71825W        W40230  24.272  21.913  12.154
71826W        W40231  23.560  35.656   4.166
71827W        W40232   7.832  25.142  14.515
71828W        W40233  34.863  16.818  11.942
71829W        W40234  36.946  24.701  14.471
71830W        W40235  41.027  29.890  10.867
71831W        W40236  44.904  33.869  12.992
71832W        W40237  35.462  17.959  13.061
71833W        W40238  25.533  36.649   4.673
71834W        W40239  20.731   9.815   1.318
71835W        W40240   8.619  41.939   3.189
71836W        W40241  14.395  31.668  12.406
71837W        W40242  12.796   7.856  12.435
71838W        W40243  29.983  16.520   0.430
71839W        W40244  17.763  38.554   4.634
71840W        W40245  31.337  27.525  12.464
71841W        W40246   6.869  31.159   4.938
71842W        W40247   7.743   6.272   4.163
71843W        W40248  34.804  15.542  14.775
71844W        W40249  43.947  42.489   0.784
71845W        W40250  25.395   2.348   3.171
71846W        W40251  42.412   6.874  14.422
71847W        W40252  41.495  34.816  12.390
71848W        W40253  17.785  43.500  10.795
71849W        W40254  13.412  35.062  11.210
71850W        W40255  39.383  34.202   0.748
71851W        W40256  43.999  31.068  14.060
71852W        W40257   9.750  22.249  11.264
71853W        W40258  37.159  36.733  11.661
71854W        W40259  14.075   5.666   0.519
71855W        W40260  42.908  17.649   0.258
71856W        W40261  16.266  36.397  10.845
71857W        W40262  41.137  19.547   0.782
71858W        W40263  14.526  42.175  13.536
71859W        W40264  23.802  33.146  12.367
71860W        W40265  42.972  20.430  11.098
71861W        W40266  10.688  44.773   1.744
71862W        W40267  36.526  32.387  11.469
71863W        W40268  28.451   8.079   4.581
71864W        W40269  34.294  16.707  10.709
71865W        W40270  31.196  16.174   1.975
71866W        W40271  16.819  25.934  13.996
71867W        W40272  10.745  39.353  10.918
71868W        W40273  40.756  10.747   1.217
71869W        W40274  12.238   3.801   2.786
71870W        W40275  16.571  27.628   1.984
71871W        W40276  25.723  37.261   3.540
71872W        W40277   9.490  31.594   5.049
71873W        W40278  14.761  30.792   1.961
71874W        W40279  17.346  36.614   3.244
71875W        W40280  36.568  35.969  14.524
71876W        W40281  41.927  11.750   0.911
71877W        W40282  29.374  43.300  13.961
71878W        W40283  43.085  16.646  14.413
71879W        W40284  10.864  16.266  12.450
71880W        W40285   0.753  15.144   2.802
71881W        W40286  28.447  14.095   2.692
71882W        W40287  24.114  19.143  12.047
71883W        W40288  20.174   6.794  14.453
71884W        W40289  30.707  29.573  11.938
71885W        W40290   7.244  43.999  14.838
71886W        W40291  33.019  44.966   0.471
71887W        W40292  16.674   3.705   0.867
71888W        W40293   4.778  39.801  11.748
71889W        W40294   4.662  42.222   0.659
71890W        W40295  14.149  21.004  10.622
71891W        W40296  21.837   6.876  13.508
71892W        W40297  26.933   4.688  10.458
71893W        W40298   8.357  44.921   2.934
71894W        W40299  44.652   4.716  10.791
71895W        W40300  36.595  22.071  11.030
71896W        W40301  33.523  44.708   1.740
71897W        W40302  32.121  34.006   0.253
71898W        W40303  40.541  38.909  12.927
71899W        W40304  43.427   7.375   0.479
71900W        W40305  19.983  37.064  11.165
71901W        W40306  42.471  29.001   4.577
71902W        W40307  20.767   9.364   0.019
71903W        W40308  29.987  25.770  11.578
71904W        W40309   9.962   1.415  12.683
71905W        W40310   8.296  41.047   0.292
71906W        W40311  24.532  15.856   0.843
71907W        W40312   8.087  14.713  13.984
71908W        W40313  35.073  37.537   2.871
71909W        W40314  38.627  27.620  14.525
71910W        W40315   6.885  42.479   1.545
71911W        W40316  32.430  34.920  14.482
71912W        W40317  41.891  43.635   3.160
71913W        W40318  21.136  25.177   1.849
71914W        W40319   2.032  14.239   4.050
71915W        W40320   5.832   3.830  10.847
71916W        W40321  13.278  13.229   4.713
71917W        W40322  30.522   9.845  11.616
71918W        W40323  17.138  34.344  13.611
71919W        W40324  29.613  21.128  10.948
71920W        W40325  42.822  33.492   4.474
71921W        W40326  32.292  14.304   2.347
71922W        W40327  40.679  24.476   2.141
71923W        W40328  36.634  32.620   2.436
71924W        W40329  29.808  21.559   4.568
71925W        W40330   5.305  27.124  10.817
71926W        W40331   5.847  22.071  10.720
71927W        W40332  20.693  39.331   2.487
71928W        W40333  21.789  20.683   3.100
71929W        W40334  25.687  25.543   2.318
71930ION    NA+40335  14.439   9.167  14.874
71931ION    NA+40336   7.230  25.706   3.618
71932ION    NA+40337  40.820  10.986   2.600
71933ION    NA+40338  23.096  18.151   4.643
71934ION    NA+40339  15.201   9.859  14.985
71935ION    NA+40340  36.451  11.207  14.337
71936ION    NA+40341  30.690   0.924   3.177
71937ION    NA+40342  26.856  32.176  11.307
71938ION    NA+40343   7.269  10.566   0.790
71939ION    NA+40344  44.724  34.028  10.738
71940ION    NA+40345  36.485   6.478  12.278
71941ION    NA+40346   9.653  44.119   0.469
71942ION    NA+40347  27.496  13.357  13.529
71943ION    NA+40348  21.233  20.874  10.729
71944ION    NA+40349  38.400  22.801   3.211
71945ION    NA+40350  13.095   7.353  12.048
71946ION    NA+40351  20.369  27.028   3.695
71947ION    NA+40352  32.679  15.695   1.909
71948ION    NA+40353  11.654  22.608   1.475
71949ION    NA+40354  18.117  35.641   5.481
71950ION    NA+40355  20.003   5.217  13.001
71951ION    NA+40356  16.803  36.322   2.344
71952ION    NA+40357  15.735  18.892   2.128
71953ION    NA+40358   0.994  35.792  11.094
71954ION    NA+40359  26.836  16.781  12.194
71955ION    NA+40360  42.805   5.121   4.406
71956ION    NA+40361  41.119  13.059   1.603
71957ION    NA+40362  39.522  19.643  14.927
71958ION    NA+40363  29.079   4.723   4.988
71959ION    NA+40364  18.048   3.430  11.428
71960ION    NA+40365  24.414  16.345   2.950
71961ION    NA+40366  22.525  43.619  14.512
71962ION    NA+40367  41.934   0.713  12.422
71963ION    NA+40368   9.608  25.508   0.926
71964ION    NA+40369   2.408  13.387   0.898
71965ION    NA+40370  31.083   0.627  14.600
71966ION    NA+40371  17.505  36.097   3.373
71967ION    NA+40372  27.437  38.661  12.686
71968ION    NA+40373  15.848   8.554  13.637
71969ION    NA+40374   2.199  37.139  13.480
71970ION    NA+40375  41.217  21.357   0.679
71971ION    NA+40376  12.822  11.826  13.622
71972ION    NA+40377  26.981  41.908  11.048
71973ION    NA+40378  44.416   2.701   1.945
71974ION    NA+40379  34.531  23.684   4.646
71975ION    NA+40380  20.017   8.258  12.186
71976ION    NA+40381  29.109   0.472   3.018
71977ION    NA+40382  19.519  30.226   3.755
71978ION    NA+40383   6.370  21.458  10.530
71979ION    NA+40384  23.211  41.505  11.642
71980ION    NA+40385  31.459   2.679  11.020
71981ION    NA+40386   0.145  26.188   1.494
71982ION    NA+40387  34.944   5.087  10.759
71983ION    NA+40388  28.399  20.253  13.825
71984ION    NA+40389  25.146  21.708  12.458
71985ION    NA+40390  36.972  43.746   1.758
71986ION    NA+40391  31.540  21.858   0.883
71987ION    NA+40392   9.144  33.096  14.415
71988ION    NA+40393  25.490  31.786  11.873
71989ION    NA+40394  42.473  26.560   3.817
71990ION    NA+40395  11.718  19.429  11.225
71991ION    NA+40396  17.458   1.359  12.565
71992ION    NA+40397  32.133  31.369  11.089
71993ION    NA+40398  17.674  16.836  10.782
71994ION    NA+40399   2.518  34.540   4.559
71995ION    NA+40400  15.577   9.140  14.400
71996ION    NA+40401  10.880  42.116   2.378
71997ION    NA+40402  35.313  41.860   2.070
71998ION    NA+40403  28.157  31.868   0.405
71999ION    NA+40404  13.165  12.312   2.908
72000ION    NA+40405  21.052  15.164  13.343
72001ION    NA+40406  11.881   5.364   3.592
72002ION    NA+40407   4.205   1.416  14.051
72003ION    NA+40408  37.278  17.879   2.161
72004ION    NA+40409   8.856  42.214   1.220
72005ION    NA+40410  18.343  18.890   4.271
72006ION    NA+40411   7.204  21.738   1.816
72007ION    NA+40412  15.894  28.939   3.420
72008ION    NA+40413  21.238  43.107   4.540
72009ION    NA+40414   7.609  26.509   1.547
72010ION    NA+40415   4.435  15.107  10.638
72011ION    NA+40416  31.568  10.382  10.394
72012ION    NA+40417  30.839  43.066  13.126
72013ION    NA+40418  28.001   9.314  13.715
72014ION    NA+40419   3.121  20.581  14.916
72015ION    NA+40420  44.525  40.711  14.468
72016ION    NA+40421  23.702  43.396  11.016
72017ION    NA+40422  10.915  23.908   1.222
72018ION    NA+40423  20.020   1.262   4.160
72019ION    NA+40424  10.550  18.873  13.393
72020ION    NA+40425  10.510   8.153  12.371
72021ION    NA+40426  20.701  33.504  14.242
72022ION    NA+40427  30.942   0.685  10.808
72023ION    NA+40428  44.358  11.795  11.339
72024ION    NA+40429  31.624   9.520   0.889
72025ION    NA+40430  30.668  38.578   1.263
72026ION    NA+40431  31.417  43.605   3.171
72027ION    NA+40432  42.437  24.327  12.310
72028ION    NA+40433  32.881  25.166   2.649
72029ION    NA+40434  31.182  42.035   0.191
72030ION    NA+40435  29.519  31.703  10.709
72031ION    NA+40436  16.443  24.413   1.732
72032ION    NA+40437   8.615  26.046   0.120
72033ION    NA+40438   4.708  18.586  12.861
72034ION    NA+40439   2.060  36.630   2.850
72035ION    NA+40440  16.546  40.789  10.322
72036ION    NA+40441  39.727  21.410  11.150
72037ION    NA+40442  17.521  14.320   3.098
72038ION    NA+40443  16.031  29.028   4.265
72039ION    NA+40444  29.126   8.184   4.085
72040ION    NA+40445  11.351  22.404   0.768
72041ION    NA+40446  38.047   5.458  12.420
72042ION    NA+40447  33.487  22.723   1.277
72043ION    NA+40448  40.630  27.963  10.080
72044ION    NA+40449  44.486  25.777  13.802
72045ION    NA+40450  27.655   2.335  11.120
72046ION    NA+40451  20.731  32.193  14.888
72047ION    NA+40452  39.996  11.374  13.951
72048ION    NA+40453  24.718  39.899  13.314
72049ION    NA+40454  41.386  44.014  13.603
72050ION    NA+40455  39.812  44.227  12.014
72051ION    NA+40456  35.462  11.523   3.140
72052ION    NA+40457   9.390  10.642  12.180
72053ION    NA+40458  11.582  37.814   4.821
72054ION    NA+40459  44.567  27.420   1.296
72055ION    NA+40460  17.962  33.674  14.215
72056ION    NA+40461  39.519  38.784   0.121
72057ION    NA+40462  22.128  14.837   2.369
72058ION    NA+40463  41.510  20.854   2.034
72059ION    NA+40464  12.839  40.516   2.249
72060ION    NA+40465  41.967  18.880  12.944
72061ION    NA+40466   3.345   3.248  13.779
72062ION    NA+40467  26.425  37.206   4.610
72063ION    NA+40468   2.342  18.116   3.409
72064ION    NA+40469  17.715  38.945  14.267
72065ION    NA+40470   1.491  12.673  13.049
72066ION    NA+40471  37.814  30.494   4.103
72067ION    NA+40472  22.735  36.702   2.214
72068ION    NA+40473  37.373  43.171   3.740
72069ION    NA+40474  19.304  31.203  11.687
72070ION    NA+40475   9.731  33.406   3.912
72071ION    NA+40476  44.167  20.210   4.039
72072ION    NA+40477  17.159  20.108  14.307
72073ION    NA+40478   1.635  39.996   0.848
72074ION    NA+40479  26.036  16.160   4.632
72075ION    NA+40480  21.033  23.965   1.127
72076ION    NA+40481  14.868  20.218  11.942
72077ION    NA+40482  31.090  12.936   0.046
72078ION    NA+40483  28.121  11.914  14.365
72079ION    NA+40484  19.264  13.719   2.815
72080ION    NA+40485  30.502  29.878  14.743
72081ION    NA+40486   2.413  40.908   2.647
72082ION    NA+40487  11.149  13.909   2.926
72083ION    NA+40488  26.154  28.962   0.368
72084ION    NA+40489  40.121  19.319   3.646
72085ION    NA+40490  30.772  44.791  14.798
72086ION    NA+40491   6.970  34.627   3.232
72087ION    NA+40492  19.162  41.453   4.956
72088ION    NA+40493  24.973  38.297   3.267
72089ION    NA+40494  26.134   2.631   2.339
72090ION    NA+40495  44.017  21.907  10.888
72091ION    NA+40496   7.935  35.200   2.185
72092ION    NA+40497  15.867  16.998  10.406
72093ION    NA+40498  14.650  28.108  14.444
72094ION    NA+40499  20.164  33.055  10.404
72095ION    NA+40500  42.141   1.942   2.321
72096ION    NA+40501  16.194  25.338   3.299
72097ION    NA+40502  31.082   0.246   3.798
72098ION    NA+40503  24.516  22.298  13.058
72099ION    NA+40504   2.716  42.452  12.001
72100ION    NA+40505   5.373  17.023   1.968
72101ION    NA+40506  24.527  19.428   4.494
72102ION    NA+40507  26.025  12.134   3.877
72103ION    NA+40508  18.954  35.535  13.778
72104ION    NA+40509  33.670  34.056   3.075
72105ION    NA+40510  33.468   5.610  13.096
72106ION    NA+40511  28.977  24.780  13.359
72107ION    NA+40512  26.173  16.725  12.786
72108ION    NA+40513  16.884   4.395  11.466
72109ION    NA+40514   4.766  19.607   0.316
72110ION    NA+40515  12.102  15.826  11.945
72111ION    NA+40516  37.601  33.911  11.704
72112ION    NA+40517   0.144  22.383  12.829
72113ION    NA+40518  13.024  31.265   0.788
72114ION    NA+40519  12.656  34.709  12.895
72115ION    NA+40520  25.882  33.273  11.456
72116ION    NA+40521  31.813   7.600  10.712
72117ION    NA+40522   6.117  26.692   9.953
72118ION    NA+40523  27.243  31.939   2.463
72119ION    NA+40524  20.685  38.347  13.133
72120ION    NA+40525  41.285  39.165   4.281
72121ION    NA+40526  38.177  42.453  11.123
72122ION    NA+40527  44.022  17.425  14.874
72123ION    NA+40528  31.103  22.961   2.290
72124ION    NA+40529   3.702  42.713  11.849
72125ION    NA+40530  33.564  28.211  13.433
72126ION    NA+40531  37.813  14.370   3.671
72127ION    NA+40532  34.870  12.637  12.559
72128ION    NA+40533  43.024  36.000  12.196
72129ION    NA+40534  17.038  36.919  11.051
72130ION    NA+40535   3.988  25.685  13.896
72131ION    NA+40536   2.371  36.074  12.589
72132ION    NA+40537  10.248  24.588   5.147
72133ION    NA+40538  27.620   2.728   1.180
72134ION    NA+40539  32.307  15.660  13.505
72135ION    NA+40540  28.902  27.699  14.062
72136ION    NA+40541  40.499   9.529   1.849
72137ION    NA+40542  20.011  42.721  14.918
72138ION    NA+40543   0.007  19.978  14.278
72139ION    NA+40544  11.782  42.097   2.453
72140ION    NA+40545  22.266  29.841  12.372
72141ION    NA+40546  24.539  39.830   4.379
72142ION    NA+40547  25.185  25.661  10.942
72143ION    NA+40548  29.877  12.022  11.054
72144ION    NA+40549   8.124   8.488   3.271
72145ION    NA+40550   8.199  32.101   1.958
72146ION    NA+40551  33.763  17.752   2.562
72147ION    NA+40552   2.299  42.889   4.653
72148ION    NA+40553  31.177  10.446   2.316
72149ION    NA+40554  43.495   7.483   2.265
72150ION    NA+40555  25.450  18.476  13.041
72151ION    NA+40556  43.000  31.371   4.076
72152ION    NA+40557   0.752  31.825   3.177
72153ION    NA+40558  28.586  10.910  11.974
72154ION    NA+40559   2.908  38.928   0.482
72155ION    NA+40560  27.412  37.225   4.455
72156ION    NA+40561  17.170  31.287  12.069
72157ION    NA+40562  29.567   1.456   0.520
72158ION    NA+40563   2.904  11.338   1.809
72159ION    NA+40564  16.691  15.147   1.441
72160ION    NA+40565  30.958  26.743   4.523
72161ION    NA+40566  23.791   9.901  14.388
72162ION    NA+40567  33.575  42.490   4.305
72163ION    NA+40568   3.437  32.184  11.349
72164ION    NA+40569  31.307  18.802  13.150
72165ION    NA+40570  19.751  15.152   3.995
72166ION    NA+40571  35.950  35.186   1.667
72167ION    NA+40572   5.983   5.140  12.114
72168ION    NA+40573  25.314  24.518   3.550
72169ION    NA+40574  11.803  23.551  10.764
72170ION    NA+40575  10.708  13.345  12.167
72171ION    NA+40576  18.905  27.114   2.836
72172ION    NA+40577  44.318  36.870  11.356
72173ION    NA+40578   6.227  37.479  11.060
72174ION    NA+40579  17.142  11.439   0.946
72175ION    NA+40580   6.802  18.965   3.808
72176ION    NA+40581  31.276   8.801  14.437
72177ION    NA+40582  29.596  44.276   1.956
72178ION    NA+40583   7.926  39.945  14.670
72179ION    NA+40584   1.251  44.752  11.139
72180ION    NA+40585   6.354  20.455  10.197
72181ION    NA+40586  42.952  28.250  14.050
72182ION    NA+40587  30.751  41.322   1.667
72183ION    NA+40588  12.221  11.859   1.608
72184ION    NA+40589  16.642  23.294   2.012
72185ION    NA+40590   9.099  24.980  14.065
72186ION    NA+40591   1.730  33.951  11.620
72187ION    NA+40592  43.190   5.884  14.908
72188ION    NA+40593  18.170  34.286  13.431
72189ION    NA+40594  27.224  11.499  14.215
72190ION    NA+40595  40.778  17.642   2.879
72191ION    NA+40596   9.582  10.671  10.876
72192ION    NA+40597  31.519   4.286  14.002
72193ION    NA+40598  35.075  14.973   4.561
72194ION    NA+40599  20.187   7.756   0.384
72195ION    NA+40600  30.044   1.871  14.404
72196ION    NA+40601  27.791  39.378  13.159
72197ION    NA+40602  29.608  39.765  13.474
72198ION    NA+40603  22.203  29.546  14.497
72199ION    NA+40604  38.684  12.410   0.818
72200ION    NA+40605  21.046   5.125  11.804
72201ION    NA+40606  13.837   2.449  11.767
72202ION    NA+40607  42.287  35.604  12.568
72203ION    NA+40608  24.769  27.070  13.162
72204ION    NA+40609   7.402   8.790  14.428
72205ION    NA+40610  14.051  32.636   3.410
72206ION    NA+40611  34.752  32.943   0.947
72207ION    NA+40612  22.350  37.695   0.517
72208ION    NA+40613  15.647  14.570   1.899
72209ION    NA+40614  10.717  20.491  13.961
72210ION    NA+40615   9.171  12.887  14.258
72211ION    NA+40616   6.097  22.279  11.143
72212ION    NA+40617  14.868  41.767  13.582
72213ION    NA+40618  12.902  23.439   0.140
72214ION    NA+40619  35.044  25.730   4.699
72215ION    NA+40620  20.696   8.358  11.012
72216ION    NA+40621  11.273  21.884   1.412
72217ION    NA+40622   2.460  38.742  13.423
72218ION    NA+40623  34.837  35.576  13.253
72219ION    NA+40624   2.084  39.424   3.506
72220ION    NA+40625  39.163  36.381  12.283
72221ION    NA+40626   7.859  11.282  13.699
72222ION    NA+40627  20.058  36.055   1.969
72223ION    NA+40628   4.064  24.721   1.186
72224ION    NA+40629  27.035  43.842  13.484
72225ION    NA+40630  43.362  13.755  13.412
72226ION    NA+40631   0.010  32.414   0.940
72227ION    NA+40632  12.036  32.209   1.182
72228ION    NA+40633   2.829  41.332  13.108
72229ION    NA+40634  33.025  22.345  11.090
72230ION    NA+40635  12.932  32.740  14.501
72231ION    NA+40636  23.753  12.553  14.138
72232ION    NA+40637   9.377  32.067  14.035
72233ION    NA+40638  23.252  15.896   3.144
72234ION    NA+40639  20.450  42.037  13.333
72235ION    NA+40640  39.276  35.462  13.874
72236ION    NA+40641  36.586  13.279   1.301
72237ION    NA+40642  37.028  35.456   3.573
72238ION    NA+40643   2.246  21.168  14.505
72239ION    NA+40644  26.547  30.178  14.776
72240ION    NA+40645  22.939  16.883   0.770
72241ION    NA+40646  21.068  42.635  13.069
72242ION    NA+40647  44.808  33.493  13.537
72243ION    NA+40648  30.068  33.019   2.001
72244ION    NA+40649  43.019  20.677   2.194
72245ION    NA+40650   0.788  11.760   2.623
72246ION    NA+40651  35.146  12.095   1.378
72247ION    NA+40652  14.666  37.920   4.213
72248ION    NA+40653  34.098  10.105  11.084
72249ION    NA+40654  10.222  32.840   3.250
72250ION    NA+40655  12.601   5.791  11.647
72251ION    NA+40656  31.964   4.585   2.123
72252ION    NA+40657  22.605  42.321   4.129
72253ION    NA+40658  19.813  14.132  11.795
72254ION    NA+40659  22.212  16.123   2.032
72255ION    NA+40660   6.008   3.869   2.044
72256ION    NA+40661  35.913  19.206  13.258
72257ION    NA+40662   7.043  11.242  12.753
72258ION    NA+40663  22.908  18.717  13.048
72259ION    NA+40664   9.855  30.422  11.142
72260ION    NA+40665  19.225  20.649  11.496
72261ION    NA+40666   3.634   4.740  14.805
72262ION    NA+40667  36.599  39.351  10.679
72263ION    NA+40668   6.842  14.817  10.631
72264ION    NA+40669  26.508  33.907  13.856
72265ION    NA+40670  39.916  10.685  10.463
72266ION    NA+40671   8.389  26.355  11.506
72267ION    NA+40672  28.454  23.133  12.695
72268ION    NA+40673  35.527  22.431   3.322
72269ION    NA+40674   7.404  44.002  10.570
72270ION    NA+40675  17.115  39.375   2.839
72271ION    NA+40676   6.215   0.955  14.844
72272ION    NA+40677  22.633  44.322   1.018
72273ION    NA+40678  30.871   2.560   4.969
72274ION    NA+40679   5.299  29.171  12.960
72275ION    NA+40680  25.919  25.999   1.988
72276ION    NA+40681  21.293  20.024   2.883
72277ION    NA+40682  34.506   2.765   3.444
72278ION    NA+40683   4.564   5.204   2.430
72279ION    NA+40684  31.544  22.436   4.657
72280ION    NA+40685  42.620  40.518  10.755
72281ION    NA+40686  10.609  30.769  10.584
72282ION    NA+40687  20.164  37.105  12.595
72283ION    NA+40688  27.634  36.030   2.367
72284ION    NA+40689   8.871   8.426  11.047
72285ION    NA+40690  14.375  27.507  12.314
72286ION    NA+40691  41.798  24.049  14.841
72287ION    NA+40692   4.781  44.531  14.824
72288ION    NA+40693  25.367  21.125   2.786
72289ION    NA+40694  29.623   6.635  11.919
72290ION    NA+40695  25.189   6.261  10.496
72291ION    NA+40696  24.176  41.021   4.991
72292ION    NA+40697   2.348   9.706   3.286
72293ION    NA+40698  44.186  18.583   3.565
72294ION    NA+40699  23.492  32.613  11.252
72295ION    NA+40700   5.872   2.718  13.439
72296ION    NA+40701  39.094   7.450  13.072
72297ION    NA+40702  21.256  10.344  11.995
72298ION    NA+40703  44.559   7.812   3.965
72299ION    NA+40704  39.554  16.497  13.984
72300ION    NA+40705  22.584  11.790  12.201
72301ION    NA+40706   2.257   9.129   1.494
72302ION    NA+40707   3.642  13.958  13.513
72303ION    NA+40708  31.495   2.236   0.825
72304ION    NA+40709   2.375  23.837  13.389
72305ION    NA+40710  33.054  10.232   1.430
72306ION    NA+40711  32.677  28.560  12.245
72307ION    NA+40712  13.543   2.446   5.605
72308ION    NA+40713  12.296  43.307  12.532
72309ION    NA+40714  11.564  10.795  11.666
72310ION    NA+40715  19.839   2.224  13.339
72311ION    NA+40716  11.466  24.046  14.814
72312ION    NA+40717  23.239  30.159  13.232
72313ION    NA+40718  25.654  26.132  11.700
72314ION    NA+40719   4.844   4.744   1.491
72315ION    NA+40720  15.172  38.072   2.465
72316ION    NA+40721   8.033  11.488  12.736
72317ION    NA+40722  14.903  28.287  12.728
72318ION    NA+40723  37.249   3.606   4.305
72319ION    NA+40724   9.964  25.547  11.496
72320ION    NA+40725  22.210   2.655   1.512
72321ION    NA+40726   5.244  11.203  10.498
72322ION    NA+40727   3.185  26.533   2.768
72323ION    NA+40728  44.208  16.775   3.862
72324ION    NA+40729  36.790  17.361   3.481
72325ION    NA+40730   7.750  37.530  11.029
72326ION    NA+40731  39.030  42.179  11.673
72327ION    NA+40732  22.591  16.287  10.628
72328ION    NA+40733   8.089  19.326   2.243
72329ION    NA+40734  20.288  32.940   2.541
72330ION    NA+40735  23.287  40.799  12.536
72331ION    NA+40736   6.778  20.458  12.121
72332ION    NA+40737  32.012  28.552  10.764
72333ION    NA+40738  40.323   4.548  14.777
72334ION    NA+40739   0.311   1.452   0.826
72335ION    NA+40740  24.160  24.223  11.551
72336ION    NA+40741   1.817   4.737  10.294
72337ION    NA+40742  31.452  24.304  14.858
72338ION    NA+40743  24.513  27.800   4.108
72339ION    NA+40744  25.583  32.404  12.871
72340ION    NA+40745  22.905   8.834   2.521
72341ION    NA+40746  18.578  38.781   9.856
72342ION    NA+40747  40.188  23.993   1.337
72343ION    NA+40748  43.737  33.133   4.520
72344ION    NA+40749  26.728  23.061  11.847
72345ION    NA+40750  44.874  44.417  14.262
72346ION    NA+40751  33.239  29.586   3.469
72347ION    NA+40752  29.551  24.043   3.276
72348ION    NA+40753  11.044  44.768  14.585
72349ION    NA+40754  41.185  32.651  11.213
72350ION    NA+40755  21.459   9.905  10.708
72351ION    NA+40756  13.175   7.267   0.186
72352ION    NA+40757   5.760  25.012   0.360
72353ION    NA+40758  17.201  12.806  12.129
72354ION    NA+40759   9.447   9.239   1.563
72355ION    NA+40760  18.868  25.142   0.945
72356ION    NA+40761  41.646   2.949  12.451
72357ION    NA+40762  39.082   6.342   0.937
72358ION    NA+40763  41.531  27.173  12.105
72359ION    NA+40764  43.986  35.179  13.943
72360ION    NA+40765  43.561  12.742  11.412
72361ION    NA+40766  17.196   1.162   0.664
72362ION    NA+40767  28.707  42.964  12.691
72363ION    NA+40768  26.553  32.496   0.388
72364ION    NA+40769  44.404   4.797   1.774
72365ION    NA+40770   9.617  31.237   4.716
72366ION    NA+40771  42.463   1.687  13.673
72367ION    NA+40772   1.934  44.756   2.454
72368ION    NA+40773  24.497   6.735  12.080
72369ION    NA+40774  13.023   4.401  10.788
72370ION    NA+40775  17.220  24.234  14.217
72371ION    NA+40776  25.807  36.633  11.261
72372ION    NA+40777  36.612   3.914   5.148
72373ION    NA+40778  25.717  30.740   9.652
72374ION    NA+40779  23.374  11.308   3.568
72375ION    NA+40780  42.567  22.363   4.343
72376ION    NA+40781  36.611   4.972   2.326
72377ION    NA+40782  24.883  12.258   1.795
72378ION    NA+40783  26.675  44.871  12.278
72379ION    NA+40784  38.123   7.178  12.981
72380ION    NA+40785   5.894   0.503  10.590
72381ION    NA+40786  41.099   8.707   4.459
72382ION    NA+40787  31.638   3.651   2.424
72383ION    NA+40788  37.472  41.300   3.611
72384ION    NA+40789   7.678  12.098  12.027
72385ION    NA+40790  43.821   5.954  11.660
72386ION    NA+40791  12.858  24.253   2.124
72387ION    NA+40792  20.813  33.135   0.221
72388ION    NA+40793  44.467  41.139   4.762
72389ION    NA+40794  23.389  19.221   1.039
72390ION    NA+40795  15.475   7.695  10.321
72391ION    NA+40796  11.431  34.613  14.844
72392ION    NA+40797  42.298  42.909  14.440
72393ION    NA+40798   4.387  33.180  14.438
72394ION    NA+40799   2.334  24.554  10.665
72395ION    NA+40800   4.996  17.572  12.052
72396ION    NA+40801  11.913  32.360   3.322
72397ION    NA+40802  29.374  37.488  13.602
72398ION    NA+40803   0.838  33.521  13.273
72399ION    NA+40804  34.139  13.032  13.393
72400ION    NA+40805  14.399   7.128  14.360
72401ION    NA+40806  30.448  18.059   2.949
72402ION    NA+40807  26.104   8.943   9.818
72403ION    NA+40808  41.951  33.167   3.806
72404ION    NA+40809  44.696  33.869   4.639
72405ION    NA+40810  10.615  35.045  10.567
72406ION    NA+40811  39.102  27.399   9.755
72407ION    NA+40812  44.257  15.242  11.611
72408ION    NA+40813   4.386  30.078  10.620
72409ION    NA+40814   6.709  40.691   2.910
72410ION    NA+40815  10.130  26.698   4.382
72411ION    NA+40816  37.520  27.447  11.208
72412ION    NA+40817  42.744  39.102  12.575
72413ION    NA+40818  16.732  39.654  14.561
72414ION    NA+40819  28.897  31.433   3.362
72415ION    NA+40820  35.590  10.332  12.494
72416ION    NA+40821  31.407  38.128   3.149
72417ION    NA+40822  21.528  36.717   2.317
72418ION    NA+40823  12.609   2.030  11.361
72419ION    NA+40824   6.761  39.088  13.724
72420ION    NA+40825  11.378   7.847   4.665
72421ION    NA+40826   5.381  20.290  10.787
72422ION    NA+40827   3.810   7.217  12.653
72423ION    NA+40828  40.951  19.429   1.747
72424ION    NA+40829  42.186   0.683  13.414
72425ION    NA+40830  44.439  38.781   1.405
72426ION    NA+40831  30.095   6.348  14.521
72427ION    NA+40832  37.345  36.079  11.182
72428ION    NA+40833  22.722  10.889  14.422
72429ION    NA+40834  15.618  18.094  12.962
72430ION    NA+40835  21.694  14.590   1.251
72431ION    NA+40836  44.519   3.695   1.983
72432ION    NA+40837  15.249  32.822   4.539
72433ION    NA+40838  36.642  37.245   1.490
72434ION    NA+40839  43.308  44.715  11.108
72435ION    NA+40840  27.925   3.442  13.444
72436ION    NA+40841  16.544  22.986   1.158
72437ION    NA+40842  25.732  33.839  10.814
72438ION    NA+40843   8.596  20.604   1.392
72439ION    NA+40844   9.166  32.962   0.408
72440ION    NA+40845   0.307  27.177   2.982
72441ION    NA+40846  13.722  38.574  13.558
72442ION    NA+40847  43.783  10.871  12.882
72443ION    NA+40848  10.310   1.970  12.050
72444ION    NA+40849  28.965  38.499   3.021
72445ION    NA+40850  27.959  44.574  13.145
72446ION    NA+40851  36.353   8.903   9.705
72447ION    NA+40852  41.837  19.571  12.232
72448ION    NA+40853  23.438  13.424  13.716
72449ION    NA+40854   7.415  25.227  11.547
72450ION    NA+40855  32.879  29.758   2.235
72451ION    NA+40856   1.289   4.801  14.423
72452ION    NA+40857  15.426  24.851   0.760
72453ION    NA+40858  42.514  39.871   1.869
72454ION    NA+40859  22.057   6.764   4.627
72455ION    NA+40860  12.397  39.531  14.670
72456ION    NA+40861  34.111  39.512  12.562
72457ION    NA+40862   4.868  34.783  13.565
72458ION    NA+40863   0.377  18.461  11.499
72459ION    NA+40864   1.224  10.087   0.981
72460ION    NA+40865  17.516  22.589  13.145
72461ION    NA+40866  12.530   3.382  11.488
72462ION    NA+40867  26.240  35.235  14.091
72463ION    NA+40868  25.413  10.543   0.545
72464ION    NA+40869  16.570  23.475  12.898
72465ION    NA+40870   1.871  32.827  12.404
72466ION    NA+40871   2.018  32.923   4.652
72467ION    NA+40872  19.585   2.541   4.131
72468ION    NA+40873  42.025  23.574  11.106
72469ION    NA+40874   6.439   3.373  13.938
72470ION    NA+40875  21.359  12.820   0.252
72471ION    NA+40876   6.627  23.294  13.105
72472ION    NA+40877   1.867  19.686  12.825
72473ION    NA+40878   3.136  19.336  12.523
72474ION    NA+40879  11.772  11.280  13.313
72475ION    NA+40880  23.426   1.060   1.261
72476ION    NA+40881  19.225  31.962   4.047
72477ION    NA+40882  19.112  30.084   0.497
72478ION    NA+40883  25.423  36.515   1.701
72479ION    NA+40884  16.925  16.272  11.163
72480ION    NA+40885  30.449   3.756  13.491
72481ION    NA+40886  36.801   1.157  13.838
72482ION    NA+40887   8.253  11.417   4.612
72483ION    NA+40888  41.755  11.662   4.454
72484ION    NA+40889  15.239  24.494  13.498
72485ION    NA+40890   3.276  22.424   0.137
72486ION    NA+40891  13.801  27.696   5.110
72487ION    NA+40892  19.508  27.725  11.551
72488ION    NA+40893  37.598  14.665   0.345
72489ION    NA+40894  19.869  23.737   3.823
72490ION    NA+40895  41.894  35.609   1.205
72491ION    NA+40896   6.688   1.276   3.172
72492ION    NA+40897  14.179  12.784   4.748
72493ION    NA+40898   1.216  15.853  13.338
72494ION    NA+40899  17.052  12.538   3.807
72495ION    NA+40900  30.604  19.507   2.876
72496ION    NA+40901  25.967  43.173   3.615
72497ION    NA+40902  17.973  15.055  13.930
72498ION    NA+40903  29.547  19.492  11.134
72499ION    NA+40904  33.481  29.160  13.738
72500ION    NA+40905   2.481  37.587  12.545
72501ION    NA+40906   7.795  36.581   3.721
72502ION    NA+40907  19.618  17.954   4.714
72503ION    NA+40908   3.150   4.062   4.703
72504ION    NA+40909  44.847   7.464   0.943
72505ION    NA+40910  16.764  19.632   4.093
72506ION    NA+40911  12.230  27.981  14.256
72507ION    NA+40912  22.663  35.738   2.517
72508ION    NA+40913   1.026  40.870  12.587
72509ION    NA+40914  41.891  35.089  11.231
72510ION    NA+40915  22.617   8.661  13.441
72511ION    NA+40916  42.224  15.365   2.354
72512ION    NA+40917  11.008  42.129  12.846
72513ION    NA+40918  44.820  20.833   2.040
72514ION    NA+40919  23.507  17.880  12.765
72515ION    NA+40920   7.814  44.244  13.477
72516ION    NA+40921  43.650  38.230   2.992
72517ION    NA+40922  36.979  18.250   4.536
72518ION    NA+40923  28.286  38.895   5.375
72519ION    NA+40924  34.586  37.853  14.937
72520ION    NA+40925  18.451  12.788   0.089
72521ION    NA+40926  11.412  29.454  11.353
72522ION    NA+40927  29.291  24.564   2.164
72523ION    NA+40928  34.035  18.223   3.402
72524ION    NA+40929   9.545  17.589   3.361
72525ION    NA+40930  23.081  21.553   1.308
72526ION    NA+40931  28.562  36.637   2.116
72527ION    NA+40932   4.243  26.917  13.001
72528ION    NA+40933  29.494  32.125   2.881
72529ION    NA+40934  22.634   1.899  10.276
72530ION    NA+40935  12.710  43.352   0.476
72531ION    NA+40936  18.000  28.172   3.148
72532ION    NA+40937  35.040  38.054   4.107
72533ION    NA+40938  34.933  13.911   1.532
72534ION    NA+40939  22.925  31.513  10.754
72535ION    NA+40940  39.376  25.824  12.492
72536ION    NA+40941  11.387  30.035  10.382
72537ION    NA+40942  43.279  44.597   4.698
72538ION    NA+40943   0.350  13.885  13.796
72539ION    NA+40944  24.691  23.858  14.415
72540ION    NA+40945  23.090  10.592   0.303
72541ION    NA+40946  18.625  18.268  11.244
72542ION    NA+40947  16.999  12.995   0.663
72543ION    NA+40948  35.939  18.356  13.860
72544ION    NA+40949  23.172  16.754   3.732
72545ION    NA+40950  10.491  10.713   4.112
72546ION    NA+40951  11.586  32.998  13.489
72547ION    NA+40952  19.626  36.667  10.295
72548ION    NA+40953   6.793  29.981   3.101
72549ION    NA+40954  37.809   6.542   4.680
72550ION    NA+40955  13.653  12.857  11.507
72551ION    NA+40956  12.768  34.460   4.506
72552ION    NA+40957  27.093  42.288   3.169
72553ION    NA+40958  19.626  24.551   0.109
72554ION    NA+40959  17.872  25.543  11.222
72555ION    NA+40960  12.250   0.682   4.081
72556ION    NA+40961  17.038  44.750  13.296
72557ION    NA+40962  39.369   2.959   4.521
72558ION    NA+40963   6.683  18.527  10.146
72559ION    NA+40964  23.640  28.570   3.381
72560ION    NA+40965  25.612  31.262  11.147
72561ION    NA+40966  23.703  12.838   1.421
72562ION    NA+40967  39.931  30.632  13.408
72563ION    NA+40968   7.806  34.446   2.878
72564ION    NA+40969  37.458   6.723  11.461
72565ION    NA+40970  25.821  19.977   3.385
72566ION    NA+40971  39.775  11.221  11.296
72567ION    NA+40972  23.997  28.503   4.313
72568ION    NA+40973  32.779   2.943   0.834
72569ION    NA+40974  10.652  10.933   0.263
72570ION    NA+40975  12.411  25.424  14.509
72571ION    NA+40976   7.973   7.087   3.202
72572ION    NA+40977   0.512  26.715   2.073
72573ION    NA+40978  21.372  42.543   3.928
72574ION    NA+40979  20.737   8.227   1.915
72575ION    NA+40980  22.988  37.233  12.132
72576ION    NA+40981  24.082  35.083   5.064
72577ION    NA+40982   5.714  35.120  13.135
72578ION    NA+40983  27.525  37.739  13.203
72579ION    NA+40984  11.840  38.232  13.675
72580ION    NA+40985  41.094  26.424   3.613
72581ION    NA+40986  28.159  40.474   2.362
72582ION    NA+40987   9.922  27.892   9.994
72583ION    NA+40988  36.182  10.311  10.313
72584ION    NA+40989  42.206  22.016   0.422
72585ION    NA+40990  40.501  10.435   1.928
72586ION    NA+40991  31.088  42.617  11.571
72587ION    NA+40992  43.033  10.671   3.677
72588ION    NA+40993  17.105   3.083   1.741
72589ION    NA+40994  31.579  37.415   3.731
72590ION    NA+40995  33.208  15.014   0.980
72591ION    NA+40996  44.182  24.278  12.497
72592ION    NA+40997  30.755  24.345   3.758
72593ION    NA+40998   4.550   9.945  12.594
72594ION    NA+40999  32.574   1.433   0.474
72595ION    NA+41000   7.619   0.669  12.449
72596ION    NA+41001   4.493  37.000   3.714
72597ION    NA+41002   8.639   2.657   0.379
72598ION    NA+41003  19.167   0.554   2.799
72599ION    NA+41004  40.400   1.607   3.008
72600ION    NA+41005  19.923  39.142   2.521
72601ION    NA+41006  19.534   9.044   0.503
72602ION    NA+41007  24.669   4.517   2.332
72603ION    NA+41008  43.268  43.793   0.066
72604ION    NA+41009  44.048  21.282  14.270
72605ION    NA+41010  10.704  39.340  11.421
72606ION    NA+41011  12.009  26.451   3.655
72607ION    NA+41012   5.513   1.218   0.985
72608ION    NA+41013  42.732  23.219   1.403
72609ION    NA+41014   8.716  20.838  13.837
72610ION    NA+41015  24.014  35.361  10.900
72611ION    NA+41016  26.391   8.127   3.033
72612ION    NA+41017  13.072   6.707  12.811
72613ION    NA+41018   7.293  23.483  14.692
72614ION    NA+41019  31.108  32.505  12.332
72615ION    NA+41020  33.344   7.634  13.859
72616ION    NA+41021  14.120  19.826   1.775
72617ION    NA+41022  33.360  16.085   1.202
72618ION    NA+41023  43.144  20.142   4.195
72619ION    NA+41024  13.346  15.409  14.268
72620ION    NA+41025   9.605   2.410   0.249
72621ION    NA+41026  18.630  38.841   0.657
72622ION    NA+41027  44.440  10.995  11.724
72623ION    NA+41028  18.731   3.317   4.579
72624ION    NA+41029  26.728   1.637   2.021
72625ION    NA+41030  32.554  37.119  13.902
72626ION    NA+41031  18.135  21.777  12.365
72627ION    NA+41032   4.903  35.420  14.401
72628ION    NA+41033  26.896  36.921  12.930
72629ION    NA+41034  32.315  33.559   3.629
72630ION    NA+41035  25.283  18.205  12.093
72631ION    NA+41036   0.542  29.421   0.417
72632ION    NA+41037  10.222  38.726  13.133
72633ION    NA+41038  17.275  31.523  10.728
72634ION    NA+41039   5.862  32.734   0.320
72635ION    NA+41040   5.596  25.965  10.765
72636ION    NA+41041  10.381  16.673   2.259
72637ION    NA+41042   1.778   2.627   3.917
72638ION    NA+41043  26.150  12.260  12.960
72639ION    NA+41044  21.545  31.079  12.295
72640ION    NA+41045  12.223  43.904   0.977
72641ION    NA+41046   2.084   5.776   3.224
72642ION    NA+41047  10.746  33.001   4.087
72643ION    NA+41048  14.753  26.594  12.037
72644ION    NA+41049   9.719  30.215   1.991
72645ION    NA+41050   4.009   1.477   0.938
72646ION    NA+41051  11.613  31.214  12.820
72647ION    NA+41052   4.399   9.655  11.098
72648ION    NA+41053  21.087  36.950  11.599
72649ION    NA+41054  43.264  29.204  12.956
72650ION    NA+41055  30.279  14.877   4.083
72651ION    NA+41056  23.797  19.416  11.239
72652ION    NA+41057  23.228  26.765   1.821
72653ION    NA+41058  24.808  22.550  14.491
72654ION    NA+41059  37.097  38.499  12.159
72655ION    NA+41060  42.386  14.103  12.243
72656ION    NA+41061  18.785   3.587   0.753
72657ION    NA+41062  13.492  27.986  12.678
72658ION    NA+41063  41.481  44.193   1.057
72659ION    NA+41064  13.803  43.836   2.395
72660ION    NA+41065  19.725  15.594   5.287
72661ION    NA+41066  13.906  37.862  11.705
72662ION    NA+41067  24.559  34.875   0.799
72663ION    NA+41068  26.604  20.184   0.481
72664ION    NA+41069  42.772  29.460  11.109
72665ION    NA+41070   5.310  25.855   3.589
72666ION    NA+41071   4.170  36.774  12.541
72667ION    NA+41072   1.827  39.122   1.723
72668ION    NA+41073  28.747  41.951   9.741
72669ION    NA+41074  13.636  17.093   0.672
72670ION    NA+41075  42.726  29.182   3.689
72671ION    NA+41076  26.835  13.704   5.332
72672ION    NA+41077  32.503  29.063   1.797
72673ION    NA+41078  36.427  20.661   1.610
72674ION    NA+41079   5.807  42.307   0.314
72675ION    NA+41080  33.053  17.787   0.269
72676ION    NA+41081   9.953  13.534   5.394
72677ION    NA+41082  24.782   7.280   1.549
72678ION    NA+41083  37.745  32.029  12.266
72679ION    NA+41084  24.524  18.782  11.502
72680ION    NA+41085  41.740   2.553   0.502
72681ION    NA+41086   8.429  44.460  14.862
72682ION    NA+41087  42.980  24.121   4.004
72683ION    NA+41088  30.868  34.179   2.314
72684ION    NA+41089  44.750  41.304   3.484
72685ION    NA+41090  15.703  36.708   5.001
72686ION    NA+41091  15.273  28.225   4.687
72687ION    NA+41092   5.097  41.937   4.753
72688ION    NA+41093  21.096  43.102   1.410
72689ION    NA+41094  12.896  34.910  14.580
72690ION    NA+41095  19.267   7.581  13.000
72691ION    NA+41096  36.980  25.182  14.194
72692ION    NA+41097  40.061   7.914  12.109
72693ION    NA+41098  15.578  19.861   3.462
72694ION    NA+41099   0.808   9.396  14.381
72695ION    NA+41100   5.469   9.783   1.257
72696ION    NA+41101   0.406  16.988   4.030
72697ION    NA+41102   9.554   8.416  14.986
72698ION    NA+41103  37.528  42.298   3.624
72699ION    NA+41104   2.855  22.077   1.763
72700ION    NA+41105  11.220   5.855  13.374
72701ION    NA+41106  20.355  11.482   5.053
72702ION    NA+41107  32.463  21.631  11.507
72703ION    NA+41108   8.501  39.614   1.543
72704ION    NA+41109  25.405  15.192   2.557
72705ION    NA+41110  20.566  16.536   3.066
72706ION    NA+41111  38.704   0.741  12.706
72707ION    NA+41112   2.179  25.283   4.578
72708ION    NA+41113  35.554  41.975  10.782
72709ION    NA+41114   3.165  25.612  13.111
72710ION    NA+41115   9.543  12.897  13.303
72711ION    NA+41116  35.902   7.895   3.150
72712ION    NA+41117  43.262  41.434   3.281
72713ION    NA+41118  37.521  32.754  10.849
72714ION    NA+41119  29.257  40.845  12.817
72715ION    NA+41120  17.683  23.494   1.908
72716ION    NA+41121  25.075  20.956  10.710
72717ION    NA+41122  22.104   3.128   2.908
72718ION    NA+41123  44.723  30.226  12.107
72719ION    NA+41124  29.587  44.950  12.117
72720ION    NA+41125  39.044  40.246  11.546
72721ION    NA+41126  16.307  39.371   1.651
72722ION    NA+41127  10.498  31.996   3.336
72723ION    NA+41128  20.439  19.602   4.308
72724ION    NA+41129  26.670  16.774   0.927
72725ION    NA+41130  35.950  42.654  12.750
72726ION    NA+41131  21.286  38.399  11.355
72727ION    NA+41132   4.476  22.371  13.117
72728ION    NA+41133  42.870  27.384   1.781
72729ION    NA+41134  42.347   1.743   3.281
72730ION    NA+41135  43.669  31.069   3.097
72731ION    NA+41136   8.125  30.132  14.935
72732ION    NA+41137  35.643  40.683   2.235
72733ION    NA+41138  21.471   9.477   1.696
72734ION    NA+41139  12.257  19.290  13.375
72735ION    NA+41140  42.517  34.942   3.698
72736ION    NA+41141  25.085   9.942   3.254
72737ION    NA+41142  44.706  15.059   4.739
72738ION    NA+41143  21.517  12.513   1.991
72739ION    NA+41144   4.773  17.633   2.487
72740ION    NA+41145  18.441  17.477  13.337
72741ION    NA+41146   8.901  11.105   2.975
72742ION    NA+41147  18.266  20.945  12.660
72743ION    NA+41148   7.344  21.030   0.453
72744ION    NA+41149  14.784  33.838  12.695
72745ION    NA+41150   7.974   1.336   0.361
72746ION    NA+41151   6.297  35.342   4.230
72747ION    NA+41152  18.549  18.334  10.244
72748ION    NA+41153   7.779  38.096   4.871
72749ION    NA+41154  28.440   5.758  11.584
72750ION    NA+41155   7.152  27.006  14.493
72751ION    NA+41156  10.877  31.624  11.388
72752ION    NA+41157   2.989  35.498  13.740
72753ION    NA+41158  25.351  25.952   3.192
72754ION    NA+41159   3.736  18.118  13.374
72755ION    NA+41160   4.866  41.528   1.155
72756ION    NA+41161  24.504  31.136  14.506
72757ION    NA+41162  19.172   0.236   0.268
72758ION    NA+41163  15.201  19.185  13.655
72759ION    NA+41164  35.817  29.072  10.995
72760ION    NA+41165  34.138  41.012  14.829
72761ION    NA+41166  27.843  27.621  12.871
72762ION    NA+41167  31.231  41.996   3.824
72763ION    NA+41168  13.510   9.254  11.903
72764ION    NA+41169  34.921  14.292  13.331
72765ION    NA+41170   5.995  43.339   2.181
72766ION    NA+41171  22.617  23.069   1.059
72767ION    NA+41172  12.293  27.372   1.467
72768ION    NA+41173  17.591  21.537  14.580
72769ION    NA+41174  11.117  27.157   2.804
72770ION    NA+41175  44.936  42.133  12.053
72771ION    NA+41176  35.307  42.539  11.994
72772ION    NA+41177  25.955  33.420   2.792
72773ION    NA+41178   8.580   6.035   1.262
72774ION    NA+41179  41.485  14.719   2.165
72775ION    NA+41180  43.342  24.218  14.991
72776ION    NA+41181  32.811  44.503  13.553
72777ION    NA+41182   6.899   3.061   5.077
72778ION    NA+41183  38.764  31.305  14.180
72779ION    NA+41184  39.439  23.850   2.354
72780ION    NA+41185  28.713   6.506   4.924
72781ION    NA+41186   1.258  21.254  12.381
72782ION    NA+41187   3.783  21.749  11.139
72783ION    NA+41188  40.562  25.101   2.798
72784ION    NA+41189  28.937   0.564  14.717
72785ION    NA+41190  26.966  41.597  12.045
72786ION    NA+41191   3.821  32.163   2.485
72787ION    NA+41192   5.762   2.013   0.257
72788ION    NA+41193   9.430   4.095  14.478
72789ION    NA+41194  28.183  23.918   1.711
72790ION    NA+41195  23.989   8.696  14.794
72791ION    NA+41196  34.588  35.191  14.665
72792ION    NA+41197  41.568  44.725  10.334
72793ION    NA+41198  19.039  26.403   2.270
72794ION    NA+41199   7.568  39.637  10.991
72795ION    NA+41200  15.342  11.834  11.619
72796ION    NA+41201  15.436   3.990  11.154
72797ION    NA+41202  22.209  28.956   0.742
72798ION    NA+41203   8.303  42.876   2.885
72799ION    NA+41204  42.838   3.611  13.156
72800ION    NA+41205  22.322   8.682  11.951
72801ION    NA+41206  19.907   3.971   1.554
72802ION    NA+41207  44.128  41.527  11.167
72803ION    NA+41208   9.266  18.975   5.210
72804ION    NA+41209  31.204  41.226   0.781
72805ION    NA+41210  43.033  20.903  10.253
72806ION    NA+41211  10.727  40.637   0.367
72807ION    NA+41212  12.403  13.810   3.172
72808ION    NA+41213   8.242  16.557   1.425
72809ION    NA+41214   9.458  27.603  14.093
72810ION    NA+41215  39.003  13.187  11.026
72811ION    NA+41216   7.361   3.781  13.022
72812ION    NA+41217   1.671  26.523  14.569
72813ION    NA+41218  14.515  11.429   1.624
72814ION    NA+41219  14.022  25.060   4.545
72815ION    NA+41220  15.187  42.870  12.543
72816ION    NA+41221  42.559  37.383  11.310
72817ION    NA+41222  43.383  42.762   1.941
72818ION    NA+41223   4.944   0.840  13.160
72819ION    NA+41224  13.831   5.712  14.363
72820ION    NA+41225  27.403  43.722   0.261
72821ION    NA+41226  32.212  25.323   3.613
72822ION    NA+41227   7.749   6.387  11.834
72823ION    NA+41228  14.077  20.393   3.184
72824ION    NA+41229  17.329  30.504   3.179
72825ION    NA+41230  31.849  37.725  10.107
72826ION    NA+41231  28.567  15.598  12.938
72827ION    NA+41232  32.658  21.241  13.290
72828ION    NA+41233   6.183  14.783  14.646
72829ION    NA+41234  26.814  31.087   2.765
72830ION    NA+41235  20.871  35.996   1.559
72831ION    NA+41236  18.155  27.436   1.756
72832ION    NA+41237  43.410  36.914   3.607
72833ION    NA+41238  37.784  25.832   0.904
72834ION    NA+41239  19.446  27.567   4.417
72835ION    NA+41240  11.375  30.630  13.863
72836ION    NA+41241  23.579  20.701   1.473
72837ION    NA+41242   5.308  43.419   1.613
72838ION    NA+41243  31.350   4.123   0.848
72839ION    NA+41244  11.788  27.093   4.389
72840ION    NA+41245  31.829  20.329   4.515
72841ION    NA+41246  18.727  15.719  10.164
72842ION    NA+41247  33.817  25.669  13.396
72843ION    NA+41248   8.953  43.189  12.221
72844ION    NA+41249  35.429  11.671  14.388
72845ION    NA+41250  14.876   6.081  10.886
72846ION    NA+41251  44.553  11.940   0.035
72847ION    NA+41252  28.830   9.541  13.440
72848ION    NA+41253   5.766  30.129   1.296
72849ION    NA+41254   7.800  22.567   0.781
72850ION    NA+41255   4.130  29.990   3.330
72851ION    NA+41256  22.610   0.204  13.501
72852ION    NA+41257   1.760  24.680   0.156
72853ION    NA+41258  13.166  30.634   3.774
72854ION    NA+41259  35.584   8.800  12.408
72855ION    NA+41260  23.284   0.239  11.819
72856ION    NA+41261  22.599  31.575  13.013
72857ION    NA+41262  37.834  27.499   1.810
72858ION    NA+41263  17.895  28.319  12.413
72859ION    NA+41264  36.203  31.463  10.714
72860ION    NA+41265  23.225  22.034   0.217
72861ION    NA+41266  37.277  24.892   2.219
72862ION    NA+41267  43.419   0.696   2.457
72863ION    NA+41268  15.994   7.217  12.641
72864ION    NA+41269   5.045  14.551   1.937
72865ION    NA+41270  38.260  15.104  13.386
72866ION    NA+41271  10.419  14.918  13.142
72867ION    NA+41272  39.010  34.787  11.353
72868ION    NA+41273  36.730  43.418   4.716
72869ION    NA+41274  39.818  16.205  13.065
72870ION    NA+41275   7.448  20.227   3.713
72871ION    NA+41276  32.718  15.916  11.812
72872ION    NA+41277  13.819  32.117  11.071
72873ION    NA+41278   4.229  25.202   2.290
72874ION    NA+41279  29.340  24.751  10.739
72875ION    NA+41280  21.916  44.151   4.583
72876ION    NA+41281  27.635   7.924  11.742
72877ION    NA+41282  27.490  17.688  11.667
72878ION    NA+41283  25.177  44.906   0.295
72879ION    NA+41284  27.043  12.580   4.364
72880ION    NA+41285  18.789  21.984   4.832
72881ION    NA+41286  29.050  19.262  14.575
72882ION    NA+41287  42.063  39.105  10.464
72883ION    NA+41288  39.180  29.065  13.699
72884ION    NA+41289  41.085  21.621  11.617
72885ION    NA+41290  38.876  24.949  11.197
72886ION    NA+41291   0.041   4.158  14.464
72887ION    NA+41292  21.592  16.736   3.278
72888ION    NA+41293  29.600  11.928   1.640
72889ION    NA+41294  17.261  23.885  11.582
72890ION    NA+41295  20.830   2.393  13.265
72891ION    NA+41296  41.795  28.195  10.334
72892ION    NA+41297  40.712  15.392   0.021
72893ION    NA+41298  33.957   0.261   3.047
72894ION    NA+41299  12.173  15.706   2.347
72895ION    NA+41300  15.057  20.444   2.991
72896ION    NA+41301  10.938   1.838  13.931
72897ION    NA+41302   5.038  11.197  14.198
72898ION    NA+41303   8.132  24.340   1.834
72899ION    NA+41304  19.860   0.670  10.783
72900ION    NA+41305  24.962  34.832   4.326
72901ION    NA+41306  44.332  43.337  14.620
72902ION    NA+41307  16.378   6.973   1.945
72903ION    NA+41308   6.505  24.594  12.457
72904ION    NA+41309  31.553  17.698  14.861
72905ION    NA+41310  14.525  28.422   1.130
72906ION    NA+41311  26.959   1.609   1.134
72907ION    NA+41312  16.726   5.496  10.464
72908ION    NA+41313  13.829  34.981  10.922
72909ION    NA+41314  38.318  25.777  11.133
72910ION    NA+41315   1.836  15.195  13.780
72911ION    NA+41316   8.565  14.620  13.143
72912ION    NA+41317  43.334   2.571   0.836
72913ION    NA+41318   3.425  11.669  10.590
72914ION    NA+41319  19.718  36.053  12.967
72915ION    NA+41320  39.349  43.426  14.509
72916ION    NA+41321  24.396   1.272   1.380
72917ION    NA+41322  33.199   4.404   1.451
72918ION    NA+41323   4.092  44.462  11.060
72919ION    NA+41324   8.428  19.490  10.724
72920ION    NA+41325  17.712   9.656   0.612
72921ION    NA+41326  43.100  41.532  11.169
72922ION    NA+41327  13.853  38.155  12.660
72923ION    NA+41328  38.923  35.599   3.984
72924ION    NA+41329  35.586  19.035   4.353
72925ION    NA+41330   0.311  43.274  11.593
72926ION    NA+41331  28.111  35.230   4.089
72927ION    NA+41332  29.656  27.941  12.948
72928ION    NA+41333  11.881   6.789  10.958
72929ION    NA+41334  39.243  30.131   3.675
72930ION    NA+41335  35.292   8.967   4.339
72931ION    NA+41336   1.484  36.742   1.423
72932ION    NA+41337  26.185   1.926  12.158
72933ION    NA+41338  31.482  39.371   0.340
72934ION    NA+41339  20.244  44.774  14.031
72935ION    NA+41340  22.629  44.497   2.045
72936ION    NA+41341  44.479  16.655  13.730
72937ION    NA+41342  30.066   4.168   1.247
72938ION    NA+41343  34.217  36.079   0.826
72939ION    NA+41344  34.386  13.718  11.033
72940ION    NA+41345   4.724  35.988   3.496
72941ION    NA+41346   2.163  41.957  13.514
72942ION    NA+41347  30.691  26.556  14.565
72943ION    NA+41348   2.695  26.715  10.278
72944ION    NA+41349   5.714  18.683   0.659
72945ION    NA+41350  42.480   7.459   0.310
72946ION    NA+41351  20.169   6.008   1.909
72947ION    NA+41352  21.921  17.789   3.472
72948ION    NA+41353  33.675  22.595   4.547
72949ION    NA+41354  26.623  28.602   1.177
72950ION    NA+41355  35.984  19.582  10.776
72951ION    NA+41356  42.431   4.253  11.003
72952ION    NA+41357   9.946  20.250  12.024
72953ION    NA+41358  13.794   2.308  12.767
72954ION    NA+41359  25.389  43.746   4.587
72955ION    NA+41360  36.201  17.212  14.279
72956ION    NA+41361  10.791  25.887  10.849
72957ION    NA+41362   1.186   7.083   1.267
72958ION    NA+41363  13.755  25.406   3.339
72959ION    NA+41364  39.851  41.753   4.233
72960ION    NA+41365  13.769   4.632   5.318
72961ION    NA+41366  23.847  16.834   0.250
72962ION    NA+41367  24.226  36.737   2.701
72963ION    NA+41368   3.879  37.035   0.081
72964ION    NA+41369  37.447  41.974  14.026
72965ION    NA+41370  13.972   0.682   2.121
72966ION    NA+41371  39.333   7.688  10.663
72967ION    NA+41372  19.252  21.789  14.425
72968ION    NA+41373  10.484  26.773  11.198
72969ION    NA+41374  26.579  15.755  12.831
72970ION    NA+41375  18.560  20.765  10.757
72971ION    NA+41376  24.751  17.241   2.659
72972ION    NA+41377  30.176   0.618   4.000
72973ION    NA+41378  14.278  32.551  14.389
72974ION    NA+41379  25.665  10.736  13.166
72975ION    NA+41380  30.664  30.367   2.775
72976ION    NA+41381   6.234  41.555  12.395
72977ION    NA+41382  38.743  11.223   2.091
72978ION    NA+41383  15.224  15.810  12.861
72979ION    NA+41384  14.710   3.800   4.354
72980ION    NA+41385  33.159   8.831  11.902
72981ION    NA+41386  39.542  32.373   2.758
72982ION    NA+41387  43.649  29.302  13.987
72983ION    NA+41388  30.215  38.835   2.008
72984ION    NA+41389  10.429  17.723   4.153
72985ION    NA+41390  22.279  10.360   0.857
72986ION    NA+41391  23.838  22.624  14.260
72987ION    NA+41392  36.202   5.189  14.352
72988ION    NA+41393  21.138  32.390  11.671
72989ION    NA+41394  34.162   7.782  12.107
72990ION    NA+41395  36.015  22.186  14.864
72991ION    NA+41396   1.675   4.278  13.572
72992ION    NA+41397  33.027   2.562  14.943
72993ION    NA+41398  12.266  13.394   3.967
72994ION    NA+41399  20.126  22.542   2.772
72995ION    NA+41400  30.660  11.601  14.388
72996ION    NA+41401  43.099  30.201  10.368
72997ION    NA+41402  23.621   5.169   1.960
72998ION    NA+41403   9.026   8.397   0.835
72999ION    NA+41404  18.712  17.161   1.974
73000ION    NA+41405   4.286  29.091  12.819
73001ION    NA+41406   6.112  16.399   2.222
73002ION    NA+41407  14.531   7.814  10.011
73003ION    NA+41408  11.415  32.168  10.934
73004ION    NA+41409  18.284  20.886   1.996
73005ION    NA+41410  19.258  42.063  14.912
73006ION    NA+41411  22.553  22.977   2.128
73007ION    NA+41412  34.402  32.845   3.391
73008ION    NA+41413  43.338  13.927   1.359
73009ION    NA+41414   6.501   7.385   3.653
73010ION    NA+41415  23.881   6.979  13.129
73011ION    NA+41416  26.418  18.811  14.484
73012ION    NA+41417  10.118  15.163  12.356
73013ION    NA+41418  18.933  15.316  12.035
73014ION    NA+41419   4.828  21.115  13.122
73015ION    NA+41420  29.794  21.601  13.641
73016ION    NA+41421  25.425  30.676  14.445
73017ION    NA+41422   6.857  43.436  12.964
73018ION    NA+41423  13.207  41.840  13.884
73019ION    NA+41424   9.371  40.937   1.230
73020ION    NA+41425  29.167  10.262   2.097
73021ION    NA+41426   6.442   6.217  14.422
73022ION    NA+41427   2.711  37.107   1.158
73023ION    NA+41428  33.383  20.398   1.495
73024ION    NA+41429   7.966  36.023  12.858
73025ION    NA+41430  43.609  15.300  14.933
73026ION    NA+41431   5.458  11.231  11.377
73027ION    NA+41432  28.923   5.599   5.288
73028ION    NA+41433  23.970  35.299  12.634
73029ION    NA+41434   8.149  25.983  12.403
73030ION    NA+41435  25.060   2.975  10.292
73031ION    NA+41436  19.028  31.283  10.343
73032ION    NA+41437  12.661  31.174  14.953
73033ION    NA+41438  20.153   9.895  11.477
73034ION    NA+41439  22.437  31.763   3.563
73035ION    NA+41440  15.819  17.231  14.742
73036ION    NA+41441   3.372  20.807   1.305
73037ION    NA+41442  19.047   5.872   4.921
73038ION    NA+41443  17.339  43.303  12.089
73039ION    NA+41444  38.076  32.332  11.372
73040ION    NA+41445  11.618  40.752   1.877
73041ION    NA+41446  16.844  10.911  11.981
73042ION    NA+41447  15.966  12.816   0.863
73043ION    NA+41448  23.815  42.154  11.537
73044ION    NA+41449  11.744  31.632   2.650
73045ION    NA+41450  27.346   7.219  11.093
73046ION    NA+41451  38.266  22.000   2.599
73047ION    NA+41452  32.923  24.395   0.830
73048ION    NA+41453  29.339  36.584   0.650
73049ION    NA+41454   9.447  39.692   0.334
73050ION    NA+41455  10.280   0.885  14.959
73051ION    NA+41456   1.339   1.926   3.273
73052ION    NA+41457  12.697  42.317   3.352
73053ION    NA+41458   6.450   0.306  12.936
73054ION    NA+41459   8.920  27.895   3.661
73055ION    NA+41460  23.527  40.502  14.930
73056ION    NA+41461  17.784  41.368  13.987
73057ION    NA+41462  33.281   1.401  14.100
73058ION    NA+41463  38.925  15.649  14.006
73059ION    NA+41464   4.566   1.810   4.649
73060ION    NA+41465   2.003  25.458   2.691
73061ION    NA+41466  11.486  43.368  10.326
73062ION    NA+41467  12.069   2.324   3.905
73063ION    NA+41468  26.088  24.255   3.180
73064ION    NA+41469  24.148  24.683   0.890
73065ION    NA+41470  37.357  41.605   1.703
73066ION    NA+41471  14.789  44.695   1.830
73067ION    NA+41472  36.985   2.860   0.377
73068ION    NA+41473  16.072   4.266  12.035
73069ION    NA+41474  23.037  11.691   2.305
73070ION    NA+41475  10.301   9.724   0.942
73071ION    NA+41476  23.910   6.350   1.808
73072ION    NA+41477  17.642  26.015   4.687
73073ION    NA+41478  11.782  28.186  10.349
73074ION    NA+41479  31.894  23.352   3.188
73075ION    NA+41480  14.945  24.288   4.621
73076ION    NA+41481   9.563  31.099  12.214
73077ION    NA+41482  16.102  11.300  13.464
73078ION    NA+41483  30.752  40.929   5.072
73079ION    NA+41484   4.443  12.532   1.664
73080ION    NA+41485  10.969  23.794   3.498
73081ION    NA+41486  15.661   3.493  12.518
73082ION    NA+41487  10.860  26.011   4.604
73083ION    NA+41488  31.904  26.151  14.405
73084ION    NA+41489  43.432  17.261   9.909
73085ION    NA+41490   4.216  29.950  14.860
73086ION    NA+41491  43.293  43.799   9.821
73087ION    NA+41492  38.330  28.913  14.775
73088ION    NA+41493  26.779  22.492  14.537
73089ION    NA+41494  17.307  38.579   4.363
73090ION    NA+41495  18.868   1.320  12.906
73091ION    NA+41496  23.767   3.023  11.962
73092ION    NA+41497   5.907  23.891   2.165
73093ION    NA+41498  30.359   5.445   3.462
73094ION    NA+41499  11.611   6.499   9.924
73095ION    NA+41500   3.176  22.574   2.878
73096ION    NA+41501  18.737  38.088  11.309
73097ION    NA+41502  27.227   7.589   0.193
73098ION    NA+41503  30.504  25.457  14.960
73099ION    NA+41504  15.081   5.527   0.266
73100ION    NA+41505  32.986  44.226   2.435
73101ION    NA+41506  17.536  24.906   3.847
73102ION    NA+41507   2.160  35.274   0.908
73103ION    NA+41508  19.562  14.916  12.701
73104ION    NA+41509  12.493  28.184  12.699
73105ION    NA+41510   8.356  25.038   4.119
73106ION    NA+41511  38.896  43.114  11.342
73107ION    NA+41512   0.351  39.227   3.303
73108ION    NA+41513  23.677  13.699   3.339
73109ION    NA+41514  35.929  43.956  14.063
73110ION    NA+41515  15.386  24.794   1.658
73111ION    NA+41516  37.676  16.775  14.157
73112ION    NA+41517  38.778  38.604  13.625
73113ION    NA+41518  38.019  39.634  12.530
73114ION    NA+41519  31.952   7.756   3.676
73115ION    NA+41520  27.058  16.013   3.874
73116ION    NA+41521  19.063   3.664  10.687
73117ION    NA+41522  40.491  11.881  14.984
73118ION    NA+41523   7.290  44.037  11.642
73119ION    NA+41524  17.524  30.997  13.353
73120ION    NA+41525  20.613  17.462   2.690
73121ION    NA+41526  16.870  37.995  14.915
73122ION    NA+41527  32.399  40.416   0.782
73123ION    NA+41528   2.908  44.997  10.674
73124ION    NA+41529  31.036  11.304  12.154
73125ION    NA+41530  10.792  39.339   4.537
73126ION    NA+41531   8.239  38.445   0.095
73127ION    NA+41532  11.215   7.484   1.390
73128ION    NA+41533  35.138   0.287   3.762
73129ION    NA+41534  21.314  22.574  11.585
73130ION    NA+41535  25.764  22.412  14.232
73131ION    NA+41536  31.624  32.534  13.188
73132ION    NA+41537   4.313  33.317   5.109
73133ION    NA+41538  41.479  14.423   3.630
73134ION    NA+41539   1.202  32.276   2.292
73135ION    NA+41540   5.359  21.304   2.730
73136ION    NA+41541  36.827  31.390  11.492
73137ION    NA+41542   2.402  11.647   5.014
73138ION    NA+41543  37.984  39.292   0.362
73139ION    NA+41544  24.959  22.517   2.119
73140ION    NA+41545  28.007   7.038  11.464
73141ION    NA+41546  11.568   5.163   1.357
73142ION    NA+41547  18.581  34.874   9.663
73143ION    NA+41548  36.005  27.002   1.243
73144ION    NA+41549  30.983  27.163   3.632
73145ION    NA+41550  29.629  44.344  12.732
73146ION    NA+41551  44.512  30.197   3.670
73147ION    NA+41552   8.326  10.192   1.949
73148ION    NA+41553  33.656  19.279   2.907
73149ION    NA+41554  33.010  44.953   2.966
73150ION    NA+41555  39.559  34.203  14.399
73151ION    NA+41556  33.120   5.374   1.869
73152ION    NA+41557  40.915  25.476   4.115
73153ION    NA+41558  18.206  22.361  13.687
73154ION    NA+41559   7.642  21.390  14.682
73155ION    NA+41560  28.213  29.014  11.387
73156ION    NA+41561   5.988  11.982   3.137
73157ION    NA+41562  24.722   1.650  13.401
73158ION    NA+41563   1.880  16.578   1.853
73159ION    NA+41564  41.523   8.497   3.660
73160ION    NA+41565  40.586  38.633  12.471
73161ION    NA+41566  43.335  13.269  12.231
73162ION    NA+41567  19.978  12.753  12.185
73163ION    NA+41568   7.213  26.339  13.273
73164ION    NA+41569  27.642  37.702  14.701
73165ION    NA+41570  33.072  36.329   1.239
73166ION    NA+41571  18.722  39.406   4.463
73167ION    NA+41572  11.260  21.723  12.927
73168ION    NA+41573  11.122  31.914   1.459
73169ION    NA+41574  14.951  24.982   3.655
73170ION    NA+41575  36.413   3.709  14.356
73171ION    NA+41576  35.630  29.082  14.492
73172ION    NA+41577   0.091  33.760   3.292
73173ION    NA+41578  25.513   0.109   4.999
73174ION    NA+41579   9.330  13.965  12.853
73175ION    NA+41580  43.033   3.464  12.026
73176ION    NA+41581  14.613  10.327   2.919
73177ION    NA+41582  21.985  28.750   3.242
73178ION    NA+41583  37.329   4.520  13.902
73179ION    NA+41584   0.478   2.208   3.697
73180ION    NA+41585  30.275  26.997   2.256
73181ION    NA+41586  28.164  29.337  13.174
73182ION    NA+41587   3.845  36.040  14.988
73183ION    NA+41588  26.103  36.087  14.175
73184ION    NA+41589   2.433  17.159  14.434
73185ION    NA+41590  35.177   4.009   1.338
73186ION    NA+41591  34.497  35.061   4.307
73187ION    NA+41592  32.247  18.595  13.420
73188ION    NA+41593   3.331  44.825  14.186
73189ION    NA+41594  23.424   1.235   2.157
73190ION    NA+41595   7.831  26.860   4.984
73191ION    NA+41596  20.255   1.251  11.924
73192ION    NA+41597  34.499  31.542   1.892
73193ION    NA+41598   6.178  14.045   0.320
73194ION    NA+41599  40.628   2.804   4.088
73195ION    NA+41600  19.159  42.627   0.547
73196ION    NA+41601   5.395   0.441  11.455
73197ION    NA+41602  27.901   7.119  13.293
73198ION    NA+41603  30.621  26.159  13.650
73199ION    NA+41604  42.883  20.969  11.617
73200ION    NA+41605  16.786  18.966  13.402
73201ION    NA+41606  41.575  30.698  12.805
73202ION    NA+41607  42.927  24.972  11.150
73203ION    NA+41608  44.428  22.369   1.273
73204ION    NA+41609  22.780  37.098  14.840
73205ION    NA+41610  37.695  19.708  11.515
73206ION    NA+41611  15.627   2.776  13.948
73207ION    NA+41612  20.432   3.970   0.298
73208ION    NA+41613  29.451  44.720   0.025
73209ION    NA+41614  15.608  44.798   3.577
73210ION    NA+41615  37.891  21.648  14.269
73211ION    NA+41616  22.428  29.076  13.399
73212ION    NA+41617  14.034   6.397   2.659
73213ION    NA+41618  29.087   9.845  11.196
73214ION    NA+41619  12.693  29.387  14.936
73215ION    NA+41620  24.943  14.525  13.526
73216ION    NA+41621  32.896  24.301  14.453
73217ION    NA+41622  38.844  11.815  11.675
73218ION    NA+41623  15.220  13.208   3.154
73219ION    NA+41624  25.732  40.515   2.945
73220ION    NA+41625  16.881  25.703   0.421
73221ION    NA+41626  37.090  18.172   3.546
73222ION    NA+41627  20.320  40.762   4.528
73223ION    NA+41628  22.613   0.976  12.866
73224ION    NA+41629  18.578   8.226  11.257
73225ION    NA+41630  12.310  31.031   1.928
73226ION    NA+41631  43.508  29.556   4.229
73227ION    NA+41632  12.080  22.231   2.721
73228ION    NA+41633  43.915  35.657   0.716
73229ION    NA+41634  22.702  36.685  10.733
73230ION    NA+41635  11.110   8.196   2.276
73231ION    NA+41636  24.459  32.226  14.211
73232ION    NA+41637  15.227  38.422  14.449
73233ION    NA+41638  21.382  39.840  13.299
73234ION    NA+41639  33.916  27.205   2.354
73235ION    NA+41640  23.572   3.892  10.012
73236ION    NA+41641  25.937   7.568  12.606
73237ION    NA+41642  40.177  14.105   2.194
73238ION    NA+41643  39.977  43.742  10.788
73239ION    NA+41644  20.281   8.830  14.773
73240ION    NA+41645   0.840  29.536  12.835
73241ION    NA+41646  35.874   0.350  11.105
73242ION    NA+41647  16.802   9.491  12.185
73243ION    NA+41648   5.955   9.846  11.041
73244ION    NA+41649   7.418   1.071   2.294
73245ION    NA+41650  43.277  20.341  13.120
73246ION    NA+41651  35.457   3.337   3.071
73247ION    NA+41652  41.176  32.428   2.531
73248ION    NA+41653  11.238   5.131  14.742
73249ION    NA+41654   2.517  42.185   3.103
73250ION    NA+41655  32.183   9.540  14.032
73251ION    NA+41656   9.351  10.876  13.152
73252ION    NA+41657  41.108  38.871  10.853
73253ION    NA+41658  39.505  34.169  10.619
73254ION    NA+41659  34.380  40.500   1.804
73255ION    NA+41660   2.226  29.671   1.047
73256ION    NA+41661   6.113   6.389  10.748
73257ION    NA+41662   9.131  37.335  13.072
73258ION    NA+41663  38.852  16.341  13.288
73259ION    NA+41664   7.880   9.863  10.565
73260ION    NA+41665  35.616  21.633  13.060
73261ION    NA+41666  44.822  14.527   1.977
73262ION    NA+41667   1.367   7.487   5.199
73263ION    NA+41668  16.210  12.201  13.958
73264ION    NA+41669  31.543   6.821  10.825
73265ION    NA+41670  27.445   5.720   3.067
73266ION    NA+41671  14.419  20.038  10.835
73267ION    NA+41672  35.794  13.834   1.557
73268ION    NA+41673   6.942  14.997  13.456
73269ION    NA+41674  30.309  22.388  13.981
73270ION    NA+41675  34.791  22.774   3.583
73271ION    NA+41676  41.190  12.562  14.766
73272ION    NA+41677  14.135  13.260   3.720
73273ION    NA+41678  26.403  21.637  11.114
73274ION    NA+41679   5.443  34.744  11.500
73275ION    NA+41680  41.031   6.453   1.904
73276ION    NA+41681  10.260  37.534  14.237
73277ION    NA+41682  40.103   8.875  12.909
73278ION    NA+41683  13.888  11.911  10.294
73279ION    NA+41684  19.125  23.181  12.005
73280ION    NA+41685   0.707  22.542  11.095
73281ION    NA+41686  32.620  43.763   0.492
73282ION    NA+41687   1.998  13.920   3.271
73283ION    NA+41688  42.032   2.666   4.711
73284ION    NA+41689   0.400  37.402  10.691
73285ION    NA+41690  18.610  44.690   2.674
73286ION    NA+41691  11.915   6.876   1.790
73287ION    NA+41692  18.674  22.203   2.203
73288ION    NA+41693  25.658  11.797   1.141
73289ION    NA+41694  22.483  16.488   4.407
73290ION    NA+41695  33.848   2.558  14.016
73291ION    NA+41696  33.908  13.334  11.971
73292ION    NA+41697  41.396  24.523   3.752
73293ION    NA+41698  28.345  36.145  12.576
73294ION    NA+41699  12.585   9.612  13.353
73295ION    NA+41700  25.435  10.821  11.796
73296ION    NA+41701  35.402  39.961  12.346
73297ION    NA+41702  17.233  39.618  13.697
73298ION    NA+41703  15.695  11.874   0.665
73299ION    NA+41704  37.438   2.157   2.661
73300ION    NA+41705  31.689  24.653   3.937
73301ION    NA+41706  18.123  16.544  13.505
73302ION    NA+41707  35.596  41.828  14.821
73303ION    NA+41708  15.399  34.129   3.093
73304ION    NA+41709  13.051  19.309  14.970
73305ION    NA+41710  37.471  39.867   2.410
73306ION    NA+41711  13.711   2.262   1.903
73307ION    NA+41712  30.646  18.837   2.109
73308ION    NA+41713  27.421  35.798  12.411
73309ION    NA+41714  39.381   4.260  13.434
73310ION    NA+41715   6.409  35.978  12.800
73311ION    NA+41716  19.570   4.207   0.755
73312ION    NA+41717  15.406  12.465  12.899
73313ION    NA+41718  21.268  26.571  12.597
73314ION    NA+41719  23.477   4.443  12.254
73315ION    NA+41720  14.037  10.718   2.201
73316ION    NA+41721  20.004  33.207  13.589
73317ION    NA+41722  26.355  31.550   2.003
73318ION    NA+41723   6.390  20.404  14.049
73319ION    NA+41724  13.282   6.828  13.781
73320ION    NA+41725  11.824   0.239   2.462
73321ION    NA+41726  26.921  19.291  10.699
73322ION    NA+41727  28.931  21.798   0.796
73323ION    NA+41728  15.036  21.165  12.958
73324ION    NA+41729  14.852   6.056  12.853
73325ION    NA+41730  27.549  35.641   1.167
73326ION    NA+41731  36.848  23.259  11.201
73327ION    NA+41732  32.772  16.888   2.816
73328ION    NA+41733  44.374  13.749   2.646
73329ION    NA+41734  28.554   0.920   2.316
73330ION    NA+41735  35.094   1.874   4.231
73331ION    NA+41736  14.115   1.561   0.195
73332ION    NA+41737  25.755  40.072   0.133
73333ION    NA+41738  36.836   1.100   0.417
73334ION    NA+41739  41.988  36.370  14.808
73335ION    NA+41740   5.311  44.188   0.973
73336ION    NA+41741  14.108  16.875  10.718
73337ION    NA+41742   1.295  33.979   0.273
73338ION    NA+41743   9.371   1.696  10.575
73339ION    NA+41744  42.994  38.054   1.153
73340ION    NA+41745  40.439  37.797  12.134
73341ION    NA+41746   3.268  30.975   5.085
73342ION    NA+41747  11.730   6.173  11.957
73343ION    NA+41748  13.650  42.935  12.424
73344ION    NA+41749  44.333  10.228  10.934
73345ION    NA+41750  32.275  14.634  11.681
73346ION    NA+41751   5.466  44.856  14.172
73347ION    NA+41752  25.592  43.430  13.993
73348ION    NA+41753  41.056  26.242   1.940
73349ION    NA+41754  10.510   6.311   4.513
73350ION    NA+41755  32.509  17.086  14.452
73351ION    NA+41756   4.114  37.265   2.522
73352ION    NA+41757  44.518   1.385  11.325
73353ION    NA+41758   6.794  15.565   2.684
73354ION    NA+41759  23.357  29.562   1.349
73355ION    NA+41760  42.660  34.148   0.654
73356ION    NA+41761   1.013  24.144   0.564
73357ION    NA+41762  10.089  16.228  11.937
73358ION    NA+41763  37.448  38.393  14.800
73359ION    NA+41764  17.742  37.866  12.896
73360ION    NA+41765  26.678  26.886  13.018
73361ION    NA+41766   1.265   9.257   3.268
73362ION    NA+41767  44.408  36.909  13.631
73363ION    NA+41768  21.650  28.501  13.147
73364ION    NA+41769  29.150  35.539  11.510
73365ION    NA+41770  36.770   7.443  10.676
73366ION    NA+41771  10.588   1.292  13.136
73367ION    NA+41772  32.390  16.872   4.791
73368ION    NA+41773   8.851  39.213  11.968
73369ION    NA+41774   2.682  14.197  13.792
73370ION    NA+41775   7.235  43.970   0.950
73371ION    NA+41776   3.743  28.284  14.821
73372ION    NA+41777   5.433  16.072  12.733
73373ION    NA+41778  17.798  10.623  12.068
73374ION    NA+41779  31.341  10.294  13.003
73375ION    NA+41780  25.881  21.511   1.237
73376ION    NA+41781  11.827  19.481  10.232
73377ION    NA+41782   0.493   7.310   0.166
73378ION    NA+41783   5.307  32.420   1.319
73379ION    NA+41784  40.256   0.331  11.945
73380ION    NA+41785  17.625   4.098   0.065
73381ION    NA+41786   1.194  32.517   3.748
73382ION    NA+41787  27.947  38.271  13.937
73383ION    NA+41788   1.003  18.370   3.230
73384ION    NA+41789  18.811   9.229  14.404
73385ION    NA+41790  29.008  35.807  13.572
73386ION    NA+41791  33.254   8.422  14.318
73387ION    NA+41792  28.391  11.700  10.803
73388ION    NA+41793  42.144  22.462  12.290
73389ION    NA+41794  15.131  23.226  13.943
73390ION    NA+41795  22.901  32.765   2.188
73391ION    NA+41796  15.015  39.898  10.696
73392ION    NA+41797  38.394  27.111   0.943
73393ION    NA+41798  20.541  10.228  14.088
73394ION    NA+41799   8.222  42.914  14.341
73395ION    NA+41800  22.557  18.208  12.398
73396ION    NA+41801  14.338   6.729  10.742
73397ION    NA+41802  42.896  25.985  12.519
73398ION    NA+41803  36.024  42.383  13.738
73399ION    NA+41804  15.596  31.655  13.105
73400ION    NA+41805   4.689  17.214   4.095
73401ION    NA+41806   9.223  11.083  11.431
73402ION    NA+41807   3.321   9.317  11.845
73403ION    NA+41808  31.436  26.435   3.701
73404ION    NA+41809  35.489  18.966   3.290
73405ION    NA+41810  28.812  12.577  14.078
73406ION    NA+41811  27.278  11.299  12.599
73407ION    NA+41812   3.303  21.087  11.974
73408ION    NA+41813  19.869   6.037   0.207
73409ION    NA+41814  27.664  14.977  11.397
73410ION    NA+41815  20.699   5.451   3.205
73411ION    NA+41816  14.536   5.015  13.834
73412ION    NA+41817  43.587  31.135  12.217
73413ION    NA+41818  25.721  11.149   3.737
73414ION    NA+41819  34.113  28.561   4.976
73415ION    NA+41820   0.985  13.472  12.475
73416ION    NA+41821  27.650  21.270   3.615
73417ION    NA+41822  17.619  25.134   0.858
73418ION    NA+41823  44.812  22.756  11.962
73419ION    NA+41824  23.350   6.350  10.874
73420ION    NA+41825  41.909  12.272  12.580
73421ION    NA+41826   5.169  11.598  14.982
73422ION    NA+41827  27.415  28.721  11.048
73423ION    NA+41828  11.148  20.114   1.816
73424ION    NA+41829  40.630  22.037   0.652
73425ION    NA+41830  42.654  10.016  14.028
73426ION    NA+41831  13.272  15.637   3.885
73427ION    NA+41832   2.541  25.968  14.842
73428ION    NA+41833   6.630  25.581  11.528
73429ION    NA+41834  33.494  40.050  11.983
73430ION    NA+41835  40.769  15.929   4.521
73431ION    NA+41836  41.285  30.456  13.731
73432ION    NA+41837  33.672  36.210   2.503
73433ION    NA+41838  33.510  44.518   3.047
73434ION    NA+41839  16.911   1.380  11.016
73435ION    NA+41840   8.404  18.133   2.184
73436ION    NA+41841  14.383  33.996  14.961
73437ION    NA+41842  11.184  11.853   3.747
73438ION    NA+41843  42.272  36.245  11.237
73439ION    NA+41844  34.065  19.709  14.473
73440ION    NA+41845   9.523   1.489  13.005
73441ION    NA+41846   7.945  28.625  11.535
73442ION    NA+41847  41.128  12.292   0.636
73443ION    NA+41848   9.407  28.640  13.369
73444ION    NA+41849  19.778  35.740  14.342
73445ION    NA+41850  32.554  14.135   3.219
73446ION    NA+41851  40.000  22.183   2.632
73447ION    NA+41852  23.626  43.377  12.085
73448ION    NA+41853  25.090  27.708  11.021
73449ION    NA+41854  41.279   5.694  13.172
73450ION    NA+41855  34.379   1.355  14.235
73451ION    NA+41856  26.815  13.073   2.238
73452ION    NA+41857  15.692   2.440   4.386
73453ION    NA+41858  23.889  13.770  14.539
73454ION    NA+41859  22.949   7.653  13.543
73455ION    NA+41860  20.643  33.921  10.658
73456ION    NA+41861  42.444  26.212   4.615
73457ION    NA+41862   2.172  22.803   1.580
73458ION    NA+41863  31.211   7.823   3.123
73459ION    NA+41864   9.308  26.862  12.423
73460ION    NA+41865  24.061   0.453  12.417
73461ION    NA+41866  40.254  36.666  11.246
73462ION    NA+41867  13.587  14.711  10.666
73463ION    NA+41868  15.632  43.581  13.916
73464ION    NA+41869   8.405  29.964  13.909
73465ION    NA+41870  25.407  41.997   3.335
73466ION    NA+41871  13.054   4.417  12.149
73467ION    NA+41872   3.576   8.873  13.547
73468ION    NA+41873  13.249  10.233   0.074
73469ION    NA+41874   3.909  14.968  12.423
73470ION    NA+41875  19.844  41.804  11.081
73471ION    NA+41876   8.860  21.737  10.825
73472ION    NA+41877  10.237   8.358   1.821
73473ION    NA+41878  31.357   4.236  14.990
73474ION    NA+41879  20.575  42.711  11.632
73475ION    NA+41880   1.214   3.519   0.930
73476ION    NA+41881  40.920  28.189  12.285
73477ION    NA+41882  26.249  33.605   1.177
73478ION    NA+41883  16.858  35.633  10.964
73479ION    NA+41884  30.938   2.787   2.336
73480ION    NA+41885  12.918   5.481   2.955
73481ION    NA+41886  10.947  37.732  13.047
73482ION    NA+41887  27.812  36.468  13.358
73483ION    NA+41888  11.576  10.300  13.350
73484ION    NA+41889  37.684  10.048   2.063
73485ION    NA+41890  40.094  33.354  13.789
73486ION    NA+41891  25.919   9.419   3.428
73487ION    NA+41892  23.657   6.016  12.978
73488ION    NA+41893  17.365  19.401  11.797
73489ION    NA+41894  20.758  18.525  12.306
73490ION    NA+41895   7.883   4.400   2.504
73491ION    NA+41896  22.259  28.072   4.881
73492ION    NA+41897  18.886  18.163   3.710
73493ION    NA+41898  18.181  20.228  14.200
73494ION    NA+41899   5.443  10.515  13.589
73495ION    NA+41900  39.147   7.577   5.172
73496ION    NA+41901  13.660   9.276  12.682
73497ION    NA+41902  12.729  23.541  11.623
73498ION    NA+41903  42.132  25.824   2.808
73499ION    NA+41904   8.124  14.413   3.355
73500ION    NA+41905  14.244  12.806  12.854
73501ION    NA+41906  42.293   1.239   0.029
73502ION    NA+41907  35.097  18.639  11.168
73503ION    NA+41908  22.727  39.059  14.928
73504ION    NA+41909  21.525  33.924   0.408
73505ION    NA+41910   6.220  42.350   5.149
73506ION    NA+41911  37.105   7.422   3.683
73507ION    NA+41912   1.551  36.992  12.732
73508ION    NA+41913  23.622  37.342   5.087
73509ION    NA+41914  26.780  10.090  13.861
73510ION    NA+41915  37.820  38.276   3.581
73511ION    NA+41916  13.043   6.282  14.598
73512ION    NA+41917  43.443  39.877   2.971
73513ION    NA+41918  29.583  26.741  12.212
73514ION    NA+41919  19.211  41.371   2.554
73515ION    NA+41920  17.957   5.168  14.954
73516ION    NA+41921  19.040  41.227  11.231
73517ION    NA+41922  19.218   8.780  12.484
73518ION    NA+41923  42.456  37.527   3.695
73519ION    NA+41924  21.726  43.412  12.940
73520ION    NA+41925  34.050   0.999   0.311
73521ION    NA+41926  25.658  22.821   0.551
73522ION    NA+41927  11.198  12.737  11.530
73523ION    NA+41928  23.785   4.197  11.335
73524ION    NA+41929  21.142  30.798  13.036
73525ION    NA+41930  27.793  11.158  13.282
73526ION    NA+41931  43.822   8.487   4.007
73527ION    NA+41932  23.566   9.651   1.859
73528ION    NA+41933  33.568  34.964  10.771
73529ION    NA+41934  32.404   7.006  11.038
73530ION    NA+41935  17.505  19.013  12.708
73531ION    NA+41936  39.085  37.015   1.644
73532ION    NA+41937  27.196  20.608  13.038
73533ION    NA+41938  32.420  37.398   2.730
73534ION    NA+41939  41.497  17.687   4.101
73535ION    NA+41940  32.542   9.421   0.261
73536ION    NA+41941  22.540  43.086   3.064
73537ION    NA+41942  44.739   0.121   1.071
73538ION    NA+41943   8.311  19.012  11.595
73539ION    NA+41944  16.321  14.622   3.777
73540ION    NA+41945  44.021  13.346   1.801
73541ION    NA+41946  20.736  39.890  12.722
73542ION    NA+41947  19.274   6.634  12.403
73543ION    NA+41948  10.869  41.705   4.220
73544ION    NA+41949  18.001  15.298   0.646
73545ION    NA+41950  31.663  38.991  12.425
73546ION    NA+41951  42.019  39.447   3.664
73547ION    NA+41952   3.564  27.775  11.420
73548ION    NA+41953  43.990  27.258  10.567
73549ION    NA+41954  38.561  35.848   2.748
73550ION    NA+41955  12.601  21.620   4.331
73551ION    NA+41956  39.585  36.630  13.050
73552ION    NA+41957   4.208   8.779  14.897
73553ION    NA+41958  19.045  37.197  12.545
73554ION    NA+41959   8.768  15.916   0.324
73555ION    NA+41960   1.046  19.738  11.611
73556ION    NA+41961   1.539   8.956  13.403
73557ION    NA+41962  20.834   5.603  10.054
73558ION    NA+41963  40.197  38.573  11.552
73559ION    NA+41964   6.871  22.907   0.403
73560ION    NA+41965  12.116  18.234   3.756
73561ION    NA+41966  41.476  16.575   3.303
73562ION    NA+41967  37.805  17.623   3.112
73563ION    NA+41968  44.743  24.261  11.597
73564ION    NA+41969  15.158  13.320  10.943
73565ION    NA+41970  19.066  20.878   9.646
73566ION    NA+41971  43.124   1.490   4.080
73567ION    NA+41972  12.629  13.154  13.096
73568ION    NA+41973  30.179  36.096   0.414
73569ION    NA+41974  28.284   2.855  14.178
73570ION    NA+41975  10.686  12.920   2.292
73571ION    NA+41976  23.478  32.129   0.350
73572ION    NA+41977  34.634  15.141   3.259
73573ION    NA+41978  17.602   7.199   2.288
73574ION    NA+41979  33.565  16.320  14.780
73575ION    NA+41980  21.890  11.700   1.110
73576ION    NA+41981  20.294  42.412   1.611
73577ION    NA+41982  16.364  10.708  14.510
73578ION    NA+41983  27.579  29.086   4.437
73579ION    NA+41984  14.234   6.175  12.219
73580ION    NA+41985  43.466  43.319   4.659
73581ION    NA+41986  40.758  25.374   1.543
73582ION    NA+41987   9.993  12.537   2.600
73583ION    NA+41988  23.599  34.838   1.221
73584ION    NA+41989  24.944  31.634   0.446
73585ION    NA+41990  38.659  26.208  14.833
73586ION    NA+41991  12.165   2.320   3.046
73587ION    NA+41992  30.696  17.051  14.109
73588ION    NA+41993  21.479  16.079  10.671
73589ION    NA+41994   2.614  23.027   0.138
73590ION    NA+41995  32.138  12.996   2.778
73591ION    NA+41996  25.299  29.487   3.191
73592ION    NA+41997   7.315   7.836   3.285
73593ION    NA+41998  25.048  39.800  14.253
73594ION    NA+41999  27.617   1.792   4.249
73595ION    NA+42000   3.770  30.545   4.119
73596ION    NA+42001  12.119  13.398  10.074
73597ION    NA+42002  39.386   9.764  14.335
73598ION    NA+42003  13.013  40.797  13.884
73599ION    NA+42004  29.531   2.179  12.738
73600ION    NA+42005  28.046   7.620  10.882
73601ION    NA+42006  39.326   3.154   3.179
73602ION    NA+42007  11.174  40.830   4.959
73603ION    NA+42008  22.091  28.872  10.639
73604ION    NA+42009  38.018  24.215  14.946
73605ION    NA+42010   8.161  38.226  11.126
73606ION    NA+42011  27.605  15.820  11.717
73607ION    NA+42012   7.497  42.597   3.627
73608ION    NA+42013   9.354  28.147  10.778
73609ION    NA+42014   7.456  30.888  13.984
73610ION    NA+42015  37.667   0.763   2.380
73611ION    NA+42016  26.116  14.330  13.713
73612ION    NA+42017  14.971   6.478   4.100
73613ION    NA+42018  16.267   6.228   1.188
73614ION    NA+42019  14.046  34.609  12.163
73615ION    NA+42020  23.295  35.894  10.882
73616ION    NA+42021   1.912  22.621  11.048
73617ION    NA+42022  39.340  41.192  11.421
73618ION    NA+42023  25.926   1.670   0.857
73619ION    NA+42024  29.297  25.362   0.705
73620ION    NA+42025  21.236   7.701  13.479
73621ION    NA+42026  10.413  42.535  11.217
73622ION    NA+42027  21.213   3.945   0.922
73623ION    NA+42028   3.936  16.673   1.215
73624ION    NA+42029   4.729   0.385   4.101
73625ION    NA+42030  37.532  44.001  11.111
73626ION    NA+42031  28.955  25.015  14.331
73627ION    NA+42032  31.743   7.209   1.671
73628ION    NA+42033  33.606  18.297  12.120
73629ION    NA+42034   2.004  18.671   4.250
73630ION    NA+42035  24.974  24.936   1.393
73631ION    NA+42036   1.192  43.388   1.372
73632ION    NA+42037   5.587  39.341   2.408
73633ION    NA+42038   7.637  38.045  11.684
73634ION    NA+42039  38.268  21.229  11.089
73635ION    NA+42040  43.916  43.996   2.514
73636ION    NA+42041  39.464  41.126   2.344
73637ION    NA+42042  17.340   5.060  13.207
73638ION    NA+42043   1.521  40.261   4.125
73639ION    NA+42044   7.044  28.970  10.723
73640ION    NA+42045  38.899  41.995   0.345
73641ION    NA+42046  24.732   8.876  11.611
73642ION    NA+42047   9.198  19.474  11.575
73643ION    NA+42048  39.542  31.914  11.001
73644ION    NA+42049  36.296  33.502  12.593
73645ION    NA+42050  41.133  42.860  14.329
73646ION    NA+42051  44.232   1.854   1.097
73647ION    NA+42052  19.536   2.661   2.211
73648ION    NA+42053  15.299  37.825   3.445
73649ION    NA+42054   6.813  23.048  11.173
73650ION    NA+42055  24.832  20.295  12.043
73651ION    NA+42056   1.331  22.719  11.856
73652ION    NA+42057   3.097  10.135   0.348
73653ION    NA+42058  11.040  26.317   3.443
73654ION    NA+42059  32.505  23.718   4.063
73655ION    NA+42060  15.111  33.411   3.727
73656ION    NA+42061  40.302   5.709   1.491
73657ION    NA+42062  16.614  43.459   0.432
73658ION    NA+42063   0.353   9.943   3.321
73659ION    NA+42064  25.010   0.893  10.642
73660ION    NA+42065  34.331  22.482  12.419
73661ION    NA+42066  24.960  26.665  11.218
73662ION    NA+42067  16.646  29.095   0.029
73663ION    NA+42068   8.587  44.767   1.284
73664ION    NA+42069  37.429  23.205  10.367
73665ION    NA+42070   7.240  34.660   5.292
73666ION    NA+42071  10.973  27.612   0.891
73667ION    NA+42072  21.281  24.921  13.931
73668ION    NA+42073   9.667  37.835  11.590
73669ION    NA+42074  31.164  20.780   1.779
73670ION    NA+42075   5.938   4.133  10.419
73671ION    NA+42076  41.838  27.756   0.946
73672ION    NA+42077  44.721  41.167   1.040
73673ION    NA+42078  33.609  42.547  13.433
73674ION    NA+42079  24.357  17.588   0.302
73675ION    NA+42080  18.660  20.960  14.146
73676ION    NA+42081  22.667  26.640  13.482
73677ION    NA+42082  10.435  42.499  13.578
73678ION    NA+42083  27.244  27.752  10.874
73679ION    NA+42084  13.509  27.986   3.629
73680ION    NA+42085  37.454  15.525   3.147
73681ION    NA+42086   2.390   4.988  13.255
73682ION    NA+42087   6.311  40.612  14.799
73683ION    NA+42088  43.491  28.627   0.190
73684ION    NA+42089   7.363  31.470  14.211
73685ION    NA+42090   8.866  41.728  13.924
73686ION    NA+42091  14.796  40.479   5.370
73687ION    NA+42092   4.221  30.565  12.950
73688ION    NA+42093  38.653  11.183   0.835
73689ION    NA+42094  26.875  41.552   2.218
73690ION    NA+42095  16.599   8.908   1.271
73691ION    NA+42096  23.065  19.853  13.797
73692ION    NA+42097  22.474  36.453  11.774
73693ION    NA+42098  15.323  35.457   2.741
73694ION    NA+42099  24.150  30.409   0.802
73695ION    NA+42100  32.073  40.811  11.946
73696ION    NA+42101  34.582  43.002   2.479
73697ION    NA+42102  23.251  30.232  11.006
73698ION    NA+42103   7.724  22.144  13.392
73699ION    NA+42104  13.042  38.428  11.392
73700ION    NA+42105  37.124   1.008  12.430
73701ION    NA+42106  40.596  42.253   4.092
73702ION    NA+42107  23.601   7.028   2.628
73703ION    NA+42108  36.324  31.255   1.806
73704ION    NA+42109  44.322  42.808   4.579
73705ION    NA+42110  30.678  35.925  12.552
73706ION    NA+42111  26.547  36.338   3.809
73707ION    NA+42112  29.694  40.051   2.791
73708ION    NA+42113   1.560  25.448   1.772
73709ION    NA+42114   2.723   0.360  12.397
73710ION    NA+42115   5.085   8.309  11.625
73711ION    NA+42116  44.469  42.132  13.886
73712ION    NA+42117  12.875  36.628  13.522
73713ION    NA+42118  16.717  40.223  11.507
73714ION    NA+42119  41.449  30.361   1.660
73715ION    NA+42120  33.653  35.387   3.226
73716ION    NA+42121  12.143   5.784   2.723
73717ION    NA+42122  21.194  10.309   2.571
73718ION    NA+42123  16.795  34.304  12.792
73719ION    NA+42124   1.805  42.813  14.466
73720ION    NA+42125  28.369  16.274   9.837
73721ION    NA+42126  10.595  35.595   2.433
73722ION    NA+42127  21.329  20.776   1.744
73723ION    NA+42128  33.796  36.130  11.129
73724ION    NA+42129  25.021  20.297   5.328
73725ION    NA+42130  33.022  28.799  14.900
73726ION    NA+42131  16.946  19.524  12.570
73727ION    NA+42132  20.130  13.523   0.731
73728ION    NA+42133  33.316   0.612  14.939
73729ION    NA+42134  25.511  20.151   0.989
73730ION    NA+42135   2.770  14.201  12.772
73731ION    NA+42136   9.451  18.495  11.715
73732ION    NA+42137  25.736   7.334   0.742
73733ION    NA+42138  36.433  44.554  13.179
73734ION    NA+42139  23.045  40.871   1.797
73735ION    NA+42140  23.018  30.596   3.262
73736ION    NA+42141  12.805  14.794   0.778
73737ION    NA+42142  12.413  24.864   0.929
73738ION    NA+42143  30.607  28.381  12.353
73739ION    NA+42144  28.190   0.466   3.432
73740ION    NA+42145   2.008  26.704   3.309
73741ION    NA+42146  32.109  37.515  11.585
73742ION    NA+42147  25.315   3.901   0.902
73743ION    NA+42148  19.222  11.427   3.045
73744ION    NA+42149  12.115  27.118   2.326
73745ION    NA+42150  21.364   4.699   0.069
73746ION    NA+42151   1.041  35.969   1.303
73747ION    NA+42152  16.906  10.136   1.008
73748ION    NA+42153   5.703  11.855   4.922
73749ION    NA+42154  33.619  41.792   1.751
73750ION    NA+42155  34.181  28.409  12.671
73751ION    NA+42156  34.439  18.740  11.007
73752ION    NA+42157  34.947  25.306  11.338
73753ION    NA+42158   6.196  31.589  11.860
73754ION    NA+42159  36.786  26.916  10.749
73755ION    NA+42160  23.282   6.866  14.751
73756ION    NA+42161  24.684  36.379   0.417
73757ION    NA+42162   7.414  32.381  13.021
73758ION    NA+42163  27.791  18.591  10.733
73759ION    CL-42164   6.672   0.044   1.405
73760ION    CL-42165   9.163  37.153   2.695
73761ION    CL-42166   1.300  13.276  12.225
73762ION    CL-42167  33.871  35.809   0.745
73763ION    CL-42168   1.263  29.573  14.533
73764ION    CL-42169  17.947  34.307  11.563
73765ION    CL-42170   6.104  27.906  13.202
73766ION    CL-42171  12.311  16.439   4.842
73767ION    CL-42172   4.088   4.722  14.831
73768ION    CL-42173  38.944  14.174   9.872
73769ION    CL-42174   9.259  34.477   4.167
73770ION    CL-42175  23.091   0.192   0.476
73771ION    CL-42176  42.638  28.473  14.274
73772ION    CL-42177  44.744   3.256  14.045
73773ION    CL-42178  35.286  16.376  11.894
73774ION    CL-42179  39.439  36.561  12.622
73775ION    CL-42180   2.650   6.798  11.587
73776ION    CL-42181   6.967  22.260   3.577
73777ION    CL-42182  15.424  34.545  10.268
73778ION    CL-42183  25.350   6.594  10.767
73779ION    CL-42184  25.032  11.439   5.011
73780ION    CL-42185  19.270   0.232   1.293
73781ION    CL-42186   5.943  10.734   5.073
73782ION    CL-42187  37.522  24.902  12.938
73783ION    CL-42188   1.820  26.947  14.580
73784ION    CL-42189  36.049  31.123   0.218
73785ION    CL-42190  38.443  27.442  11.632
73786ION    CL-42191  10.118  37.898  13.976
73787ION    CL-42192  30.376  26.023  11.161
73788ION    CL-42193  29.985  38.568  10.653
73789ION    CL-42194  16.241  37.839  12.035
73790ION    CL-42195   1.474  28.668  11.624
73791ION    CL-42196   8.737  41.390   2.210
73792ION    CL-42197  40.753  17.135  13.431
73793ION    CL-42198  44.936  12.015   0.257
73794ION    CL-42199   9.465  35.080   9.914
73795ION    CL-42200  37.151  41.636   2.114
73796ION    CL-42201   0.159  21.937  12.868
73797ION    CL-42202  12.226  27.301   1.918
73798ION    CL-42203  34.707  18.401  11.224
73799ION    CL-42204  18.534  20.733   2.343
73800ION    CL-42205  35.590  26.622  11.274
73801ION    CL-42206  44.066  29.460  13.933
73802ION    CL-42207   2.003   0.985   4.110
73803ION    CL-42208   3.151  35.869  13.549
73804ION    CL-42209  40.721  13.240   1.733
73805ION    CL-42210  33.804  21.151   4.178
73806ION    CL-42211  39.308  30.336   3.274
73807ION    CL-42212  27.787   7.356  11.190
73808ION    CL-42213  24.251  30.948  11.546
73809ION    CL-42214  10.801  24.986  14.790
73810ION    CL-42215  40.223  40.152  10.758
73811ION    CL-42216  35.821  28.956  10.543
73812ION    CL-42217   2.415   2.938  10.111
73813ION    CL-42218  31.196  43.718   2.800
73814ION    CL-42219  17.898  22.492  13.377
73815ION    CL-42220  21.505  43.663  14.363
73816ION    CL-42221  35.247  22.703   3.563
73817ION    CL-42222   4.205  24.302   1.081
73818ION    CL-42223  43.228  12.848   3.224
73819ION    CL-42224  37.319  36.234  11.601
73820ION    CL-42225  25.621   0.633   3.679
73821ION    CL-42226  39.988  28.896   2.288
73822ION    CL-42227  35.370  13.981   1.638
73823ION    CL-42228   9.624  11.457  14.266
73824ION    CL-42229  26.359  12.192   4.191
73825ION    CL-42230   3.762  11.603   2.437
73826ION    CL-42231  33.907  22.113  10.646
73827ION    CL-42232   7.066  20.356   3.902
73828ION    CL-42233  26.750  37.820   3.695
73829ION    CL-42234  30.260  19.338   3.108
73830ION    CL-42235  42.108  36.242  10.814
73831ION    CL-42236  23.711  32.958  11.429
73832ION    CL-42237  17.124   6.527   4.565
73833ION    CL-42238  23.770  37.759   4.919
73834ION    CL-42239  34.301  16.300  12.081
73835ION    CL-42240  43.683  42.472   2.099
73836ION    CL-42241   6.107  18.758   0.463
73837ION    CL-42242   6.307  17.747   0.510
73838ION    CL-42243  36.778  18.192   4.935
73839ION    CL-42244  24.984  26.172   3.325
73840ION    CL-42245  33.323   4.023   1.650
73841ION    CL-42246   3.633  32.455   2.191
73842ION    CL-42247  24.206  30.928  14.768
73843ION    CL-42248   5.914  40.746  10.796
73844ION    CL-42249  44.702   1.355  10.922
73845ION    CL-42250   5.449  11.202  10.917
73846ION    CL-42251  13.595  24.133  12.624
73847ION    CL-42252   7.709  18.828  12.507
73848ION    CL-42253  40.484  38.216  12.309
73849ION    CL-42254  41.580   2.433   0.100
73850ION    CL-42255  11.503  23.827  12.615
73851ION    CL-42256  15.981  43.733  14.163
73852ION    CL-42257  18.472  20.552  14.073
73853ION    CL-42258  35.191   4.911   0.814
73854ION    CL-42259  17.552  24.528  14.027
73855ION    CL-42260  40.120  18.285  14.369
73856ION    CL-42261  26.252   4.045  14.785
73857ION    CL-42262  37.894  29.555  11.176
73858ION    CL-42263  30.906   7.679   2.818
73859ION    CL-42264  28.824  35.753  11.285
73860ION    CL-42265  42.844   9.653  14.209
73861ION    CL-42266   9.960  44.394   0.644
73862ION    CL-42267   4.712  18.744   1.211
73863ION    CL-42268  23.642  30.336  13.144
73864ION    CL-42269  42.138  37.345  11.459
73865ION    CL-42270  10.108   2.913  12.948
73866ION    CL-42271  37.416   2.904   1.830
73867ION    CL-42272   9.955  25.291   1.103
73868ION    CL-42273   4.239  40.891  13.174
73869ION    CL-42274  40.659  40.878  11.761
73870ION    CL-42275   5.644  10.117  11.211
73871ION    CL-42276  18.261  27.667   0.326
73872ION    CL-42277  41.120   9.628  14.968
73873ION    CL-42278  19.646   4.654   2.797
73874ION    CL-42279  27.599  37.703  10.601
73875ION    CL-42280  20.459  36.019   1.754
73876ION    CL-42281  14.600   6.430  10.959
73877ION    CL-42282  43.844  18.181  11.209
73878ION    CL-42283  13.982  14.616  14.395
73879ION    CL-42284   6.860  32.736   2.638
73880ION    CL-42285  20.769  21.828   1.324
73881ION    CL-42286   4.980   5.123   2.586
73882ION    CL-42287  29.133   3.429   0.961
73883ION    CL-42288   2.480  16.796  14.179
73884ION    CL-42289   2.178  41.401   4.732
73885ION    CL-42290  18.448   1.477  12.818
73886ION    CL-42291  32.073  23.135  11.503
73887ION    CL-42292  43.294  22.215  14.875
73888ION    CL-42293  23.649  29.510  14.799
73889ION    CL-42294  43.479  33.060   4.897
73890ION    CL-42295  16.308  42.092  14.091
73891ION    CL-42296  18.426   6.564  10.193
73892ION    CL-42297  43.897  23.540   3.355
73893ION    CL-42298  36.435  44.857  12.846
73894ION    CL-42299  10.798   7.055  11.930
73895ION    CL-42300  19.825   1.305   4.574
73896ION    CL-42301  41.173  10.966   2.892
73897ION    CL-42302  31.255  42.006  14.752
73898ION    CL-42303   8.635  26.127  14.680
73899ION    CL-42304  39.238  13.791  11.372
73900ION    CL-42305  28.916  30.701  13.815
73901ION    CL-42306  13.312   2.502  10.717
73902ION    CL-42307  27.092  34.097   1.906
73903ION    CL-42308  19.581   0.599  11.133
73904ION    CL-42309   1.629   3.402  12.520
73905ION    CL-42310  31.401  41.501  11.094
73906ION    CL-42311   6.424  40.521   3.207
73907ION    CL-42312  23.097  29.473   0.994
73908ION    CL-42313  41.703  27.613   2.403
73909ION    CL-42314  20.875  27.980  10.205
73910ION    CL-42315  20.396  41.034  10.102
73911ION    CL-42316  19.200  24.630  14.992
73912ION    CL-42317  43.263  43.283   4.251
73913ION    CL-42318  27.216  38.563  12.291
73914ION    CL-42319  25.816  41.067  10.875
73915ION    CL-42320  17.598  38.515  14.296
73916ION    CL-42321  44.545  40.773   0.912
73917ION    CL-42322   6.316   3.974   1.720
73918ION    CL-42323   6.815  28.149   3.605
73919ION    CL-42324  32.799  17.075  12.948
73920ION    CL-42325  37.215  21.340   4.144
73921ION    CL-42326  31.161   1.068  14.518
73922ION    CL-42327  21.511  30.431   5.168
73923ION    CL-42328  17.726  15.505  13.027
73924ION    CL-42329  28.282  39.017  10.971
73925ION    CL-42330  16.273  42.915  14.658
73926ION    CL-42331  22.956  20.616  11.814
73927ION    CL-42332  19.243  21.171   3.783
73928ION    CL-42333  28.646  23.564   4.250
73929ION    CL-42334  33.641  27.557   2.327
73930ION    CL-42335  31.430   9.149   0.695
73931ION    CL-42336  34.678  35.921  13.489
73932ION    CL-42337  26.307  34.645   0.876
73933ION    CL-42338   7.363  23.544  14.255
73934ION    CL-42339  17.463  19.729  10.013
73935ION    CL-42340  44.665  21.206   1.833
73936ION    CL-42341  16.588  23.121   1.591
73937ION    CL-42342  36.881  41.722  10.592
73938ION    CL-42343  28.907  31.441  14.488
73939ION    CL-42344   5.288  36.566   1.242
73940ION    CL-42345  33.417  39.442  14.014
73941ION    CL-42346  28.100  28.683   1.704
73942ION    CL-42347  21.669  39.435   1.423
73943ION    CL-42348  18.008  21.088   1.698
73944ION    CL-42349  31.358  21.444   0.916
73945ION    CL-42350  19.398  26.339   4.249
73946ION    CL-42351   1.006  25.159   2.756
73947ION    CL-42352   5.187  44.591  14.644
73948ION    CL-42353  26.063  14.346  14.160
73949ION    CL-42354  19.890  25.213  12.651
73950ION    CL-42355  16.340  17.078   2.405
73951ION    CL-42356  13.894  17.235  10.568
73952ION    CL-42357   3.743  13.394   0.430
73953ION    CL-42358  38.081  29.112  14.462
73954ION    CL-42359  21.872   9.561   1.900
73955ION    CL-42360  13.975  32.595   2.970
73956ION    CL-42361  38.001  44.961  11.843
73957ION    CL-42362  37.505   3.235   4.343
73958ION    CL-42363  40.440  15.641   4.640
73959ION    CL-42364   2.938  20.719   1.362
73960ION    CL-42365  17.297  31.414  14.444
73961ION    CL-42366  38.356   5.898   3.215
73962ION    CL-42367  40.001  22.140   3.086
73963ION    CL-42368  13.272  43.577   3.244
73964ION    CL-42369  41.814  26.741  13.961
73965ION    CL-42370   9.149  15.901   0.044
73966ION    CL-42371   1.934  34.709   2.232
73967ION    CL-42372  27.648   6.893  13.001
73968ION    CL-42373  10.830  25.663   1.678
73969ION    CL-42374  36.798  26.693  10.354
73970ION    CL-42375  30.261  26.969   0.875
73971ION    CL-42376  28.464  21.974  12.165
73972ION    CL-42377  30.106  42.920  12.413
73973ION    CL-42378  21.180  24.071   4.856
73974ION    CL-42379  14.214  20.736  14.912
73975ION    CL-42380  42.008  22.378   9.623
73976ION    CL-42381   9.284  10.993  10.984
73977ION    CL-42382  14.591   6.059  12.478
73978ION    CL-42383  18.220  29.698   3.078
73979ION    CL-42384  27.784  15.401  14.906
73980ION    CL-42385  38.053   6.005   2.214
73981ION    CL-42386  10.868   7.617   0.328
73982ION    CL-42387  16.803  15.941  13.878
73983ION    CL-42388  40.637  10.756   2.234
73984ION    CL-42389  28.196  23.466   1.755
73985ION    CL-42390  39.319  11.355   3.230
73986ION    CL-42391  31.262   4.080   0.405
73987ION    CL-42392  33.399  36.289  11.248
73988ION    CL-42393   6.663  18.687  13.466
73989ION    CL-42394  43.537  16.658   0.921
73990ION    CL-42395  20.232   4.736  10.443
73991ION    CL-42396   0.312  27.758  14.937
73992ION    CL-42397  31.557  14.906   2.741
73993ION    CL-42398  27.783  28.867  11.344
73994ION    CL-42399   4.272  40.120   1.537
73995ION    CL-42400   9.865   0.837  14.782
73996ION    CL-42401  16.745   4.477   3.537
73997ION    CL-42402  43.465  32.198  14.513
73998ION    CL-42403  35.970  27.891   3.694
73999ION    CL-42404  43.350  32.323  11.994
74000ION    CL-42405  33.884  10.651  13.680
74001ION    CL-42406  30.721   7.625   0.989
74002ION    CL-42407  18.106  28.118  12.761
74003ION    CL-42408   3.723  22.346   0.143
74004ION    CL-42409  22.220  29.924  11.933
74005ION    CL-42410   0.132  15.220  14.426
74006ION    CL-42411  19.436  16.516  12.910
74007ION    CL-42412  10.849  42.603  11.160
74008ION    CL-42413  23.943  20.777  13.129
74009ION    CL-42414   4.331  11.910  13.935
74010ION    CL-42415  18.891  23.927  14.069
74011ION    CL-42416   2.024  26.449   3.677
74012ION    CL-42417  18.630  34.863   2.117
74013ION    CL-42418  18.841  37.677  11.481
74014ION    CL-42419  31.433  12.713  11.152
74015ION    CL-42420  41.787  14.530  11.118
74016ION    CL-42421  24.372  34.221  12.892
74017ION    CL-42422  26.674  29.390  11.568
74018ION    CL-42423  44.076  21.396  14.700
74019ION    CL-42424   6.890   4.496  14.881
74020ION    CL-42425   5.316  27.643  14.518
74021ION    CL-42426  37.873  44.545  12.743
74022ION    CL-42427  31.687  41.616   5.466
74023ION    CL-42428   8.968  14.742  11.638
74024ION    CL-42429  29.128  31.919  10.692
74025ION    CL-42430  41.897   4.030   4.339
74026ION    CL-42431  25.270  10.770   0.902
74027ION    CL-42432  41.551  12.961   1.717
74028ION    CL-42433  32.144   0.152   5.198
74029ION    CL-42434  15.627   3.803   2.420
74030ION    CL-42435  37.483  11.256   5.075
74031ION    CL-42436   8.973  34.183   1.778
74032ION    CL-42437  23.499  27.583  11.552
74033ION    CL-42438  15.780  28.587   3.157
74034ION    CL-42439  43.531   3.522   2.854
74035ION    CL-42440  33.413  21.046  10.792
74036ION    CL-42441   7.024  34.965   0.822
74037ION    CL-42442  37.173  16.056   1.676
74038ION    CL-42443   5.999  20.561  14.197
74039ION    CL-42444  16.068  37.877   5.161
74040ION    CL-42445  17.008   6.761   0.720
74041ION    CL-42446  43.250  12.732   0.519
74042ION    CL-42447  34.379  32.071  11.483
74043ION    CL-42448   0.084  38.950   3.077
74044ION    CL-42449  23.345  40.932   3.681
74045ION    CL-42450   4.371   3.284  14.823
74046ION    CL-42451  36.568  25.352  14.135
74047ION    CL-42452  34.894  43.301   0.518
74048ION    CL-42453  12.277   1.813  11.569
74049ION    CL-42454  38.678  11.031   2.490
74050ION    CL-42455  20.294  44.774   4.712
74051ION    CL-42456   2.862  11.727   4.971
74052ION    CL-42457  39.507  32.442  11.850
74053ION    CL-42458  36.864  23.840   4.875
74054ION    CL-42459  14.692  42.184  14.535
74055ION    CL-42460  21.864   1.367   3.861
74056ION    CL-42461  37.419   2.322  11.366
74057ION    CL-42462  20.178  30.144  13.320
74058ION    CL-42463   1.867  19.593   1.681
74059ION    CL-42464  27.534  41.684   4.119
74060ION    CL-42465  43.394  38.108   0.953
74061ION    CL-42466   2.034  36.566   4.586
74062ION    CL-42467  30.168  23.469  13.460
74063ION    CL-42468  30.634  20.337   0.650
74064ION    CL-42469  28.865  23.073  12.864
74065ION    CL-42470  28.133  24.352   1.577
74066ION    CL-42471  29.992   2.261   2.944
74067ION    CL-42472  30.938   9.049  14.598
74068ION    CL-42473   9.178   8.626  10.795
74069ION    CL-42474  32.861  44.052  13.565
74070ION    CL-42475  32.734  14.700   5.115
74071ION    CL-42476   8.764  24.070  14.549
74072ION    CL-42477  25.213  10.508   4.748
74073ION    CL-42478  34.977  27.177   3.118
74074ION    CL-42479  33.476  18.482   1.844
74075ION    CL-42480   6.883   7.953   0.417
74076ION    CL-42481  42.020   3.222   3.763
74077ION    CL-42482  21.512  21.990  14.603
74078ION    CL-42483  29.108  19.124   3.048
74079ION    CL-42484  44.690  26.274   1.553
74080ION    CL-42485  21.460  40.034  10.415
74081ION    CL-42486   1.762  13.573   3.091
74082ION    CL-42487  19.347   2.927  14.430
74083ION    CL-42488  37.105  17.723   3.460
74084ION    CL-42489   3.744  19.195   2.641
74085ION    CL-42490  11.376  43.831   2.349
74086ION    CL-42491  30.209  22.934  10.626
74087ION    CL-42492  43.491  44.403   4.344
74088ION    CL-42493  12.644  43.026  12.541
74089ION    CL-42494  42.026  25.379   2.808
74090ION    CL-42495  13.460   9.018  10.515
74091ION    CL-42496  13.137  11.367   3.582
74092ION    CL-42497  31.166  10.236  13.412
74093ION    CL-42498  41.541  32.602  14.357
74094ION    CL-42499  21.338  44.891  12.498
74095ION    CL-42500   5.575  34.218  14.378
74096ION    CL-42501  19.384   2.261   2.339
74097ION    CL-42502  18.833   3.146   0.792
74098ION    CL-42503  23.170   9.576  12.040
74099ION    CL-42504   3.218   4.845  14.651
74100ION    CL-42505  44.855   7.035  13.490
74101ION    CL-42506   5.467   5.128   4.234
74102ION    CL-42507  43.518  35.720   0.911
74103ION    CL-42508   1.494  28.896  13.807
74104ION    CL-42509  32.663   0.202   3.123
74105ION    CL-42510  23.686  43.997   4.863
74106ION    CL-42511  44.498  16.409  14.102
74107ION    CL-42512  43.982  18.552  10.300
74108ION    CL-42513  35.367  28.710   3.634
74109ION    CL-42514  42.028  25.727  13.851
74110ION    CL-42515  18.693  38.495  11.113
74111ION    CL-42516  29.159  12.793  14.263
74112ION    CL-42517  18.605   4.907   3.105
74113ION    CL-42518  40.119  31.533  12.568
74114ION    CL-42519   4.807  23.045   0.535
74115ION    CL-42520  11.511   8.016   2.359
74116ION    CL-42521  42.596   5.437   4.679
74117ION    CL-42522  43.269   4.498  11.514
74118ION    CL-42523  26.587   5.679  12.220
74119ION    CL-42524  36.300  20.238   1.543
74120ION    CL-42525  18.007  34.702  13.421
74121ION    CL-42526  17.642  36.048   5.126
74122ION    CL-42527  11.340   7.912  13.468
74123ION    CL-42528  26.465  16.678  12.439
74124ION    CL-42529  38.528   9.002   2.744
74125ION    CL-42530  40.473   4.355  14.391
74126ION    CL-42531  34.026   6.209   0.824
74127ION    CL-42532   2.241   6.138   3.017
74128ION    CL-42533   0.688   5.920  10.752
74129ION    CL-42534  31.003   0.172  14.698
74130ION    CL-42535  14.322  19.182  14.952
74131ION    CL-42536  20.311  38.595  13.056
74132ION    CL-42537  12.927   1.018   3.353
74133ION    CL-42538  32.899  22.774  11.070
74134ION    CL-42539  21.549  23.469  14.785
74135ION    CL-42540  37.859  21.946   2.411
74136ION    CL-42541  23.269  32.514   2.160
74137ION    CL-42542   1.176  12.134   9.844
74138ION    CL-42543  31.547   7.866   0.455
74139ION    CL-42544  30.812  33.576  12.857
74140ION    CL-42545  38.520  33.258   2.271
74141ION    CL-42546  32.713   0.375  12.488
74142ION    CL-42547  12.873  29.006   1.398
74143ION    CL-42548  16.717  41.165   0.099
74144ION    CL-42549  26.031   2.489   2.751
74145ION    CL-42550  34.006  28.642   4.519
74146ION    CL-42551  10.258   7.885  12.065
74147ION    CL-42552   5.207   2.692   2.153
74148ION    CL-42553  42.675  29.350   1.750
74149ION    CL-42554  27.402  12.417   4.619
74150ION    CL-42555  40.719  10.449  14.372
74151ION    CL-42556   4.480  29.103   1.001
74152ION    CL-42557  13.299  22.997   1.507
74153ION    CL-42558  33.337   8.082  14.006
74154ION    CL-42559   5.252  36.661  13.083
74155ION    CL-42560  43.936  11.408   4.962
74156ION    CL-42561   0.522  37.843   3.713
74157ION    CL-42562  33.347   4.862   5.030
74158ION    CL-42563  43.309   6.903   4.089
74159ION    CL-42564  15.037  42.180  13.596
74160ION    CL-42565  27.725   7.352   2.373
74161ION    CL-42566  42.270   6.268   4.733
74162ION    CL-42567  33.910  22.133  14.392
74163ION    CL-42568   9.541  20.546   4.306
74164ION    CL-42569  43.271  33.185  11.494
74165ION    CL-42570  18.683  37.639  14.764
74166ION    CL-42571   1.988  20.457   1.191
74167ION    CL-42572  22.499   2.986   3.062
74168ION    CL-42573  25.801  12.162   3.478
74169ION    CL-42574  42.606  35.851  12.356
74170ION    CL-42575   8.862  42.183   3.645
74171ION    CL-42576  19.701  39.890  10.747
74172ION    CL-42577  17.901  24.958   3.576
74173ION    CL-42578  22.888  21.764   0.330
74174ION    CL-42579  33.656  13.220   1.441
74175ION    CL-42580   8.841  21.219  14.033
74176ION    CL-42581  19.238  11.592  10.491
74177ION    CL-42582  37.459  37.112  12.298
74178ION    CL-42583  16.298  17.100  12.180
74179ION    CL-42584  32.844  32.701  11.408
74180ION    CL-42585  33.900   4.921  14.090
74181ION    CL-42586  36.082   2.960  12.150
74182ION    CL-42587  35.208  34.129  12.473
74183ION    CL-42588  17.707  15.616   0.536
74184ION    CL-42589  44.574  39.244  12.874
74185ION    CL-42590  20.709  15.105  13.065
74186ION    CL-42591  13.189  24.667   0.726
74187ION    CL-42592  10.105  14.092   9.729
74188ION    CL-42593  43.741  30.311   1.393
74189ION    CL-42594  21.061  39.724  12.995
74190ION    CL-42595  42.773  39.260  12.989
74191ION    CL-42596  15.512  43.043   2.279
74192ION    CL-42597  12.390  28.309  13.956
74193ION    CL-42598  44.142   7.377  14.735
74194ION    CL-42599  29.504  23.983  14.725
74195ION    CL-42600   5.043  16.004  12.504
74196ION    CL-42601  25.048  31.212   3.597
74197ION    CL-42602  22.700  12.858   0.908
74198ION    CL-42603   2.833  39.766   2.265
74199ION    CL-42604   3.369  31.831  14.385
74200ION    CL-42605   7.058  42.818  10.334
74201ION    CL-42606  38.205   2.289   4.971
74202ION    CL-42607   2.282  39.604   3.146
74203ION    CL-42608  30.442   5.641  12.582
74204ION    CL-42609  10.921   6.195   2.428
74205ION    CL-42610  42.502  29.630  11.424
74206ION    CL-42611   7.151  31.068  14.275
74207ION    CL-42612  11.327  42.118   2.469
74208ION    CL-42613  35.578   6.905   2.713
74209ION    CL-42614  36.734  29.323   1.197
74210ION    CL-42615  39.751   4.357   0.861
74211ION    CL-42616  20.838   0.443   0.854
74212ION    CL-42617  33.931  38.355   1.298
74213ION    CL-42618  18.026  11.484  14.519
74214ION    CL-42619  13.767  13.442   1.889
74215ION    CL-42620  35.902   4.099   3.995
74216ION    CL-42621  39.790  18.073   4.852
74217ION    CL-42622  41.001  39.518   0.947
74218ION    CL-42623  32.631  29.432   2.033
74219ION    CL-42624  40.648   8.191  10.915
74220ION    CL-42625   1.565   0.728  12.941
74221ION    CL-42626  44.604  10.701   4.731
74222ION    CL-42627  20.517  15.291   0.364
74223ION    CL-42628  34.371  19.200  13.322
74224ION    CL-42629  10.006  32.925   9.929
74225ION    CL-42630  14.580  24.519  12.331
74226ION    CL-42631   7.223  25.294   3.792
74227ION    CL-42632   0.974   3.950  10.733
74228ION    CL-42633  41.473  20.993   1.611
74229ION    CL-42634  12.099  12.227   1.383
74230ION    CL-42635  31.111  39.985   2.221
74231ION    CL-42636   0.650  13.223   3.055
74232ION    CL-42637  33.205  37.548   1.054
74233ION    CL-42638  11.598  19.371   2.825
74234ION    CL-42639  40.317  19.517   3.287
74235ION    CL-42640   0.717  28.145   4.214
74236ION    CL-42641  20.815  42.290  13.223
74237ION    CL-42642  23.712  35.438  12.970
74238ION    CL-42643  14.888  24.349  13.267
74239ION    CL-42644  10.863   4.802   4.178
74240ION    CL-42645  31.571   1.259  11.795
74241ION    CL-42646  42.708  21.411   1.582
74242ION    CL-42647  17.144   9.806  13.926
74243ION    CL-42648  28.100  34.799   2.256
74244ION    CL-42649  28.910   9.984   2.352
74245ION    CL-42650  39.971  19.078   4.004
74246ION    CL-42651  42.863  38.477   4.114
74247ION    CL-42652  38.295  35.685   5.030
74248ION    CL-42653  39.170   4.641   3.054
74249ION    CL-42654  27.863   1.659   2.757
74250ION    CL-42655  15.811  27.589   3.217
74251ION    CL-42656   9.195  31.890  10.297
74252ION    CL-42657  22.159  37.904   0.171
74253ION    CL-42658   5.694  10.827   4.018
74254ION    CL-42659  35.486  39.888  10.899
74255ION    CL-42660  44.473  11.424  11.575
74256ION    CL-42661  24.688  16.091   1.685
74257ION    CL-42662  21.306  42.701   4.350
74258ION    CL-42663  11.771  38.274  14.115
74259ION    CL-42664  38.657  38.187  13.733
74260ION    CL-42665  38.602   0.632  12.276
74261ION    CL-42666  14.264  18.550   2.367
74262ION    CL-42667  27.108  31.809  11.255
74263ION    CL-42668  19.784  39.268  14.745
74264ION    CL-42669  43.734  33.702  12.215
74265ION    CL-42670  22.525   2.885   1.300
74266ION    CL-42671  36.435  15.884   0.764
74267ION    CL-42672  41.636   3.853  10.326
74268ION    CL-42673  22.831  20.123   0.376
74269ION    CL-42674  34.375   7.976  10.441
74270ION    CL-42675   9.820  30.143   2.430
74271ION    CL-42676   0.595  14.952   3.648
74272ION    CL-42677  42.419   9.746   1.904
74273ION    CL-42678  12.285  24.513  12.514
74274ION    CL-42679   0.842   2.047   4.843
74275ION    CL-42680  41.726  18.468  11.646
74276ION    CL-42681   3.848   3.371  11.524
74277ION    CL-42682  21.546  22.811  14.033
74278ION    CL-42683  37.456  42.745   3.604
74279ION    CL-42684  25.795  38.847  12.900
74280ION    CL-42685  18.747   2.705  10.759
74281ION    CL-42686   9.747   2.437   4.992
74282ION    CL-42687   4.058  31.911   2.780
74283ION    CL-42688   5.916  36.824   0.215
74284ION    CL-42689  10.643  24.039   3.682
74285ION    CL-42690  14.056  30.118   1.140
74286ION    CL-42691   4.657   9.915  11.355
74287ION    CL-42692  32.901  40.271   2.683
74288ION    CL-42693  17.133  36.515   0.338
74289ION    CL-42694  44.976  22.902   3.214
74290ION    CL-42695  41.935  41.152  13.366
74291ION    CL-42696  36.833   9.188  11.443
74292ION    CL-42697  12.840  27.723  10.647
74293ION    CL-42698  21.947  33.470  10.679
74294ION    CL-42699  24.728  15.651  11.131
74295ION    CL-42700  12.807  31.165   0.385
74296ION    CL-42701   3.087  23.741  12.050
74297ION    CL-42702  37.652  28.786   3.345
74298ION    CL-42703  27.042  20.085   2.149
74299ION    CL-42704  14.822  30.337   9.969
74300ION    CL-42705  22.495  19.766   4.702
74301ION    CL-42706  29.022  36.871   0.516
74302ION    CL-42707  27.331   6.499   0.750
74303ION    CL-42708  15.429  43.436  13.537
74304ION    CL-42709  19.287  42.457   0.142
74305ION    CL-42710  43.779   0.431   0.704
74306ION    CL-42711  36.554   3.288  14.315
74307ION    CL-42712  27.186  29.036  10.786
74308ION    CL-42713  38.751  44.914   1.238
74309ION    CL-42714  15.899  34.287  11.726
74310ION    CL-42715  33.939   5.577   4.658
74311ION    CL-42716  14.298  36.932   3.163
74312ION    CL-42717  30.752  28.803  12.415
74313ION    CL-42718   8.347  32.662   3.162
74314ION    CL-42719  42.994  23.530   1.216
74315ION    CL-42720   5.973   5.586  12.151
74316ION    CL-42721  27.230   1.338   0.870
74317ION    CL-42722  18.125  21.372  12.576
74318ION    CL-42723  30.491  24.728   3.720
74319ION    CL-42724  12.462  24.181   4.175
74320ION    CL-42725  26.132   3.351  11.688
74321ION    CL-42726  22.526  42.815   0.488
74322ION    CL-42727  25.191  42.568  10.397
74323ION    CL-42728  29.366  35.725  14.075
74324ION    CL-42729   0.891  38.109  11.636
74325ION    CL-42730   9.857  39.914  13.571
74326ION    CL-42731  42.053   5.340  11.579
74327ION    CL-42732   2.045  40.173   0.813
74328ION    CL-42733  27.301  28.189  10.984
74329ION    CL-42734   6.312  10.416   2.688
74330ION    CL-42735  34.715   1.214   1.815
74331ION    CL-42736  22.156  12.595  14.369
74332ION    CL-42737  12.623  37.036   2.015
74333ION    CL-42738  17.621  37.673  12.512
74334ION    CL-42739   2.350  15.589   2.318
74335ION    CL-42740  31.453  37.711   3.411
74336ION    CL-42741  40.400  36.249  11.175
74337ION    CL-42742   0.075  21.065  11.101
74338ION    CL-42743   0.379  19.152  13.392
74339ION    CL-42744   9.173  42.813  12.128
74340ION    CL-42745  38.337  27.961   4.970
74341ION    CL-42746  12.862  16.860   4.107
74342ION    CL-42747  40.561   9.079   1.838
74343ION    CL-42748  19.524  27.890   2.192
74344ION    CL-42749  30.060  25.984   1.603
74345ION    CL-42750   4.545   1.424   4.916
74346ION    CL-42751  35.616  41.441  14.595
74347ION    CL-42752  28.646  26.032   0.269
74348ION    CL-42753  34.266  29.819  12.733
74349ION    CL-42754  26.838  24.889  14.015
74350ION    CL-42755   8.698  35.374  13.476
74351ION    CL-42756   5.661   2.968  14.945
74352ION    CL-42757   4.234  22.546  13.448
74353ION    CL-42758  42.979  36.597   1.950
74354ION    CL-42759  24.138  43.401  11.114
74355ION    CL-42760   3.950  37.669   2.339
74356ION    CL-42761  29.676  44.737  12.511
74357ION    CL-42762  18.283  40.005   0.965
74358ION    CL-42763  36.176  38.961   0.300
74359ION    CL-42764  25.901  10.378  13.039
74360ION    CL-42765  22.665  43.198  14.574
74361ION    CL-42766  21.279  31.332   1.477
74362ION    CL-42767  42.186  34.095  11.248
74363ION    CL-42768  36.577   6.914  12.328
74364ION    CL-42769  22.596  10.137   3.057
74365ION    CL-42770   5.552   0.311  14.072
74366ION    CL-42771   3.929   8.696  13.758
74367ION    CL-42772  14.199   1.580  14.755
74368ION    CL-42773  17.029  35.197  10.692
74369ION    CL-42774   9.831  31.599   4.567
74370ION    CL-42775   8.757  14.830  10.466
74371ION    CL-42776  10.396  43.445   1.242
74372ION    CL-42777  12.391  13.575   3.560
74373ION    CL-42778  30.983  38.264   3.014
74374ION    CL-42779  18.091   8.469   2.684
74375ION    CL-42780  33.947  27.016   4.487
74376ION    CL-42781  12.346  37.959   0.840
74377ION    CL-42782  10.232  18.586  13.523
74378ION    CL-42783   4.130  42.807  11.920
74379ION    CL-42784   5.090  37.561   0.733
74380ION    CL-42785  32.736  38.468   3.313
74381ION    CL-42786   5.366  13.881  13.136
74382ION    CL-42787  40.963  29.460  11.848
74383ION    CL-42788  11.615   3.889   1.749
74384ION    CL-42789  15.735  30.740   0.239
74385ION    CL-42790   6.933   5.935  11.469
74386ION    CL-42791  28.394   6.980   1.730
74387ION    CL-42792  18.205  23.643  14.792
74388ION    CL-42793  32.175  39.276   4.811
74389ION    CL-42794  37.983  32.365  12.437
74390ION    CL-42795   1.054  21.600  12.576
74391ION    CL-42796  31.564  23.905  11.118
74392ION    CL-42797  21.485   9.295   3.371
74393ION    CL-42798  26.384  26.914  14.898
74394ION    CL-42799  39.935  23.643   1.454
74395ION    CL-42800  28.100  44.575   4.640
74396ION    CL-42801  35.102  15.420   4.508
74397ION    CL-42802  13.917  25.162   0.251
74398ION    CL-42803  42.578   8.502   4.160
74399ION    CL-42804  22.092  33.729   1.873
74400ION    CL-42805  22.522   1.509  10.032
74401ION    CL-42806   6.746  11.777   1.881
74402ION    CL-42807  24.112  33.560   3.162
74403ION    CL-42808   9.706  30.695  12.388
74404ION    CL-42809  19.076  13.715  14.621
74405ION    CL-42810  27.966  42.316   0.434
74406ION    CL-42811   8.041  11.812  10.381
74407ION    CL-42812  24.267  41.021   4.536
74408ION    CL-42813  37.998   8.804  11.477
74409ION    CL-42814  34.313  14.899  10.310
74410ION    CL-42815  30.909  34.623   2.345
74411ION    CL-42816  33.211  19.265   2.943
74412ION    CL-42817  11.928  31.501  10.938
74413ION    CL-42818   3.832  25.106   1.103
74414ION    CL-42819  17.779  18.637  12.746
74415ION    CL-42820  26.603  19.605  10.728
74416ION    CL-42821   9.963   9.369  13.937
74417ION    CL-42822  21.281  38.193  10.957
74418ION    CL-42823  25.222  16.366  10.637
74419ION    CL-42824  21.340  25.296  12.632
74420ION    CL-42825  34.088  44.612   4.114
74421ION    CL-42826  19.989  32.815  13.809
74422ION    CL-42827  17.071  34.225  12.452
74423ION    CL-42828  36.073  22.768  12.986
74424ION    CL-42829   7.025  25.416  11.681
74425ION    CL-42830  17.205  32.386   1.679
74426ION    CL-42831   7.747  19.509   2.021
74427ION    CL-42832  25.731  24.428   3.400
74428ION    CL-42833  25.183  21.516   2.904
74429ION    CL-42834  38.602   6.239  14.357
74430ION    CL-42835  19.128  35.185   2.923
74431ION    CL-42836  33.096  20.715   1.623
74432ION    CL-42837  22.830  13.607  12.473
74433ION    CL-42838  31.654  35.861  11.932
74434ION    CL-42839  25.686   0.068   2.127
74435ION    CL-42840  38.016   6.674   0.145
74436ION    CL-42841  10.317  26.944  11.572
74437ION    CL-42842  44.226  15.385  11.190
74438ION    CL-42843  13.290  20.774   5.023
74439ION    CL-42844  16.702  16.375  10.791
74440ION    CL-42845   7.875  14.320   5.012
74441ION    CL-42846  34.434   1.038   0.550
74442ION    CL-42847  33.791  14.216  12.566
74443ION    CL-42848  12.618   9.437  12.944
74444ION    CL-42849   2.363  44.688  11.516
74445ION    CL-42850  40.528   6.735   0.804
74446ION    CL-42851   2.533  44.795  10.537
74447ION    CL-42852  34.860  18.917  10.894
74448ION    CL-42853  40.813  42.836   2.247
74449ION    CL-42854   4.785  41.557  12.576
74450ION    CL-42855   4.830  33.578   2.941
74451ION    CL-42856  29.927  44.015   2.102
74452ION    CL-42857   5.473  27.934   3.823
74453ION    CL-42858  20.217   0.470  10.583
74454ION    CL-42859  17.145  13.084  13.919
74455ION    CL-42860  10.177  23.123  12.927
74456ION    CL-42861  14.170  20.081  13.479
74457ION    CL-42862  23.683  26.139  10.170
74458ION    CL-42863  33.603  39.881   4.239
74459ION    CL-42864  20.373  31.257   3.270
74460ION    CL-42865  31.493   9.153  11.971
74461ION    CL-42866  44.963  18.292   1.380
74462ION    CL-42867  26.259   6.476   4.147
74463ION    CL-42868  17.761   7.149  14.487
74464ION    CL-42869   1.450  17.144  12.107
74465ION    CL-42870  33.105  26.425  13.538
74466ION    CL-42871   0.641  25.006  12.470
74467ION    CL-42872  10.717  41.299  13.942
74468ION    CL-42873  25.888  11.728  12.109
74469ION    CL-42874  31.845   7.170  10.893
74470ION    CL-42875  20.123  42.402   2.028
74471ION    CL-42876  44.923  43.057   0.382
74472ION    CL-42877  25.070   8.980  11.898
74473ION    CL-42878  22.144   7.793   1.367
74474ION    CL-42879  18.664  13.862  11.138
74475ION    CL-42880  11.657  22.092   2.727
74476ION    CL-42881   5.942  11.219   2.087
74477ION    CL-42882  18.370   8.268   3.643
74478ION    CL-42883  12.812  29.510  12.459
74479ION    CL-42884  31.884  29.514  11.527
74480ION    CL-42885  32.123  18.528  14.503
74481ION    CL-42886  10.003  42.101  14.873
74482ION    CL-42887  33.169   8.721  14.653
74483ION    CL-42888  20.226  17.128  12.873
74484ION    CL-42889  23.396  38.233   0.263
74485ION    CL-42890  42.158   7.671   1.704
74486ION    CL-42891   3.252  42.845   9.922
74487ION    CL-42892  36.591  16.055   2.541
74488ION    CL-42893  19.107  38.092   3.372
74489ION    CL-42894  28.128  35.460  13.937
74490ION    CL-42895  34.530  28.130  12.700
74491ION    CL-42896  40.824  32.699   2.597
74492ION    CL-42897  27.940  41.239   3.260
74493ION    CL-42898   6.143  31.078  14.634
74494ION    CL-42899   0.376  26.150   1.073
74495ION    CL-42900  13.249  30.097  11.081
74496ION    CL-42901   4.021  14.593  12.204
74497ION    CL-42902  40.877  28.227   0.870
74498ION    CL-42903  24.323  28.200   4.209
74499ION    CL-42904  16.145  42.475   0.828
74500ION    CL-42905  29.935   4.038   4.283
74501ION    CL-42906   5.926  31.233  11.878
74502ION    CL-42907   7.320  40.005  11.032
74503ION    CL-42908  42.431   7.255   9.842
74504ION    CL-42909   1.981   1.441   0.348
74505ION    CL-42910  16.753   0.774   3.055
74506ION    CL-42911  22.930  26.433   1.797
74507ION    CL-42912  11.440  33.532   1.384
74508ION    CL-42913  13.587   8.832  12.653
74509ION    CL-42914  37.360   2.287   4.976
74510ION    CL-42915  43.360  30.505   0.489
74511ION    CL-42916  24.086  28.178  14.997
74512ION    CL-42917  19.082  25.075  12.008
74513ION    CL-42918  22.225  24.260   3.185
74514ION    CL-42919  11.154  44.724   0.025
74515ION    CL-42920  26.276  44.477   2.727
74516ION    CL-42921  19.687   4.096   1.179
74517ION    CL-42922   6.703  31.436  12.925
74518ION    CL-42923  41.823  10.296   0.212
74519ION    CL-42924  37.735  32.447  11.101
74520ION    CL-42925  28.062  41.338  11.035
74521ION    CL-42926  24.945  35.024   3.924
74522ION    CL-42927  10.424  37.189   4.050
74523ION    CL-42928  15.079  34.528  11.207
74524ION    CL-42929   0.602  19.702  11.602
74525ION    CL-42930   8.545  30.811  11.511
74526ION    CL-42931   2.829  13.724  10.727
74527ION    CL-42932  43.797  29.221  11.028
74528ION    CL-42933   3.635  12.052  10.684
74529ION    CL-42934  10.680   6.167  11.347
74530ION    CL-42935  18.245  16.868  12.080
74531ION    CL-42936  18.423  16.837   2.075
74532ION    CL-42937  23.714   2.305   0.401
74533ION    CL-42938  29.129  16.691  11.631
74534ION    CL-42939  44.048  21.823  10.429
74535ION    CL-42940  11.063   1.844  14.963
74536ION    CL-42941   7.132  10.151   0.884
74537ION    CL-42942  44.392   8.384  11.484
74538ION    CL-42943  30.661  40.952   1.898
74539ION    CL-42944  24.998  26.735  13.346
74540ION    CL-42945  39.608   4.505   1.839
74541ION    CL-42946  15.310  20.171   3.261
74542ION    CL-42947  38.329  39.787  13.740
74543ION    CL-42948  10.623   3.347   3.955
74544ION    CL-42949  21.931   9.181   4.834
74545ION    CL-42950  33.669   0.865   0.074
74546ION    CL-42951  28.358  40.251  10.805
74547ION    CL-42952  40.622   6.266  11.371
74548ION    CL-42953   5.879  15.355  11.361
74549ION    CL-42954  38.377  11.766   3.244
74550ION    CL-42955  12.924  27.670  14.510
74551ION    CL-42956  25.972  38.254   1.903
74552ION    CL-42957  11.665   3.184   2.482
74553ION    CL-42958  21.061  18.467  11.013
74554ION    CL-42959  42.626  18.793  12.072
74555ION    CL-42960  23.363  27.424   4.905
74556ION    CL-42961   7.811  39.299   3.351
74557ION    CL-42962   7.011  20.651   4.985
74558ION    CL-42963  10.175  31.622  13.193
74559ION    CL-42964  38.872  17.894  11.240
74560ION    CL-42965  44.761  30.204  10.717
74561ION    CL-42966  31.815   2.961  11.063
74562ION    CL-42967  33.381  23.637  12.583
74563ION    CL-42968  12.120   0.537   2.315
74564ION    CL-42969  11.854   0.707   4.289
74565ION    CL-42970  34.004  19.103   0.310
74566ION    CL-42971   1.298  22.067   3.749
74567ION    CL-42972  17.701  38.206   2.869
74568ION    CL-42973  26.618   0.369   2.405
74569ION    CL-42974  38.702  26.652  14.872
74570ION    CL-42975  30.501  12.347   3.109
74571ION    CL-42976   9.375  10.794  11.753
74572ION    CL-42977  28.982  11.196   4.090
74573ION    CL-42978  20.521  43.072  11.891
74574ION    CL-42979  27.625  15.384  11.593
74575ION    CL-42980  36.428  17.084   3.444
74576ION    CL-42981  30.378  38.718   1.584
74577ION    CL-42982   5.733   8.037   1.820
74578ION    CL-42983  30.891  42.651  13.295
74579ION    CL-42984  17.021   5.808  10.349
74580ION    CL-42985   8.852  13.180  12.022
74581ION    CL-42986  26.102  15.722   3.281
74582ION    CL-42987  11.593   0.350   9.894
74583ION    CL-42988  43.135   7.165  14.570
74584ION    CL-42989  33.588  42.871  13.127
74585ION    CL-42990  36.360   9.809   2.353
74586ION    CL-42991   0.954  29.052  10.798
74587ION    CL-42992   8.785  17.606   0.604
74588ION    CL-42993  34.361  23.610   1.004
74589ION    CL-42994  33.525  16.615  13.867
74590ION    CL-42995   5.055  11.323  14.636
74591ION    CL-42996  18.657  27.145  12.214
74592ION    CL-42997  26.912   1.725   1.595
74593ION    CL-42998  28.646  27.889  14.377
74594ION    CL-42999  12.704  39.856  14.628
74595ION    CL-43000   3.432   7.069  12.469
74596ION    CL-43001  32.792   3.785   4.365
74597ION    CL-43002  17.156   4.766   4.616
74598ION    CL-43003   1.234  36.382   1.300
74599ION    CL-43004  19.255  23.550   1.423
74600ION    CL-43005  43.007   4.829   4.125
74601ION    CL-43006  24.648  37.499  14.762
74602ION    CL-43007   4.247  31.507   0.947
74603ION    CL-43008  22.423  41.360   5.206
74604ION    CL-43009  10.901  35.914   2.323
74605ION    CL-43010  43.961  40.031  12.037
74606ION    CL-43011   7.837  21.176   4.822
74607ION    CL-43012  36.483  28.733   2.931
74608ION    CL-43013  44.109  34.707   3.227
74609ION    CL-43014  26.542  21.583  12.451
74610ION    CL-43015  23.389   1.181   1.696
74611ION    CL-43016  14.723  13.728   1.820
74612ION    CL-43017  18.950  35.578   5.124
74613ION    CL-43018  12.921  26.665   4.590
74614ION    CL-43019  37.475  31.119  13.893
74615ION    CL-43020  34.500  22.214   0.504
74616ION    CL-43021   4.291   7.060   1.596
74617ION    CL-43022  34.072  33.657  12.009
74618ION    CL-43023  40.213   1.198   3.032
74619ION    CL-43024  26.257   5.946  11.315
74620ION    CL-43025   0.462   6.143  14.346
74621ION    CL-43026  18.103  40.777  12.019
74622ION    CL-43027  19.820  15.027   3.568
74623ION    CL-43028  19.753   6.375   0.490
74624ION    CL-43029  35.440   6.593  14.701
74625ION    CL-43030  11.153  21.217   2.731
74626ION    CL-43031  12.682  21.529  11.725
74627ION    CL-43032  29.872  44.226  10.719
74628ION    CL-43033  27.122   5.615   1.186
74629ION    CL-43034   4.301   1.825  14.205
74630ION    CL-43035  10.236  10.743  13.832
74631ION    CL-43036  38.020  21.342   1.290
74632ION    CL-43037  19.981  37.801  10.676
74633ION    CL-43038  12.121  13.017   4.171
74634ION    CL-43039  34.038   4.790  11.658
74635ION    CL-43040  17.441  19.365  12.266
74636ION    CL-43041  21.107   9.322   1.469
74637ION    CL-43042   3.750  43.348  10.586
74638ION    CL-43043  24.199   6.681  11.747
74639ION    CL-43044  42.467   5.437   3.032
74640ION    CL-43045  34.226   8.620   2.865
74641ION    CL-43046   9.868  34.957   1.492
74642ION    CL-43047  15.539  18.687   1.780
74643ION    CL-43048  23.200  38.232  13.962
74644ION    CL-43049   3.946  26.695   5.093
74645ION    CL-43050  39.931  13.805   1.973
74646ION    CL-43051  21.640  43.441  11.424
74647ION    CL-43052  28.172  19.583   0.011
74648ION    CL-43053  30.621  30.304  14.674
74649ION    CL-43054  43.866  11.248  13.103
74650ION    CL-43055  21.009  38.039  13.050
74651ION    CL-43056  23.215   3.746  14.302
74652ION    CL-43057  14.644  31.905   1.336
74653ION    CL-43058  23.069  33.778   4.071
74654ION    CL-43059   3.972  27.705  11.252
74655ION    CL-43060  16.161   0.648   4.871
74656ION    CL-43061  37.496  27.732   1.991
74657ION    CL-43062  27.556  39.555  11.506
74658ION    CL-43063   7.080  22.715  11.016
74659ION    CL-43064  27.510  31.882  14.528
74660ION    CL-43065  12.176   7.790   3.131
74661ION    CL-43066  35.844  21.336  13.303
74662ION    CL-43067   8.605  11.525   4.889
74663ION    CL-43068   3.844  37.006   2.802
74664ION    CL-43069   6.524  34.674   3.311
74665ION    CL-43070  30.063  29.525  12.847
74666ION    CL-43071  23.702  12.837   0.976
74667ION    CL-43072  38.031   0.532   2.507
74668ION    CL-43073   4.087  33.315  14.742
74669ION    CL-43074  19.172  26.085   1.976
74670ION    CL-43075  22.948  23.433  11.936
74671ION    CL-43076  39.429  43.025  14.692
74672ION    CL-43077  12.359   3.770  11.346
74673ION    CL-43078  37.521  19.118   5.062
74674ION    CL-43079  24.082  42.532   0.013
74675ION    CL-43080  44.234  25.711   0.433
74676ION    CL-43081  27.575  24.298  10.686
74677ION    CL-43082  42.735  30.370   1.828
74678ION    CL-43083  20.043  12.143   3.653
74679ION    CL-43084  39.058  23.020  12.871
74680ION    CL-43085  25.146  32.184   2.219
74681ION    CL-43086   8.432  42.813  13.960
74682ION    CL-43087   0.253  13.495   4.949
74683ION    CL-43088   7.672   9.299   4.294
74684ION    CL-43089  15.034   8.843   3.129
74685ION    CL-43090  25.386  25.265  10.886
74686ION    CL-43091   7.842  16.152  14.332
74687ION    CL-43092   5.658  12.503  11.003
74688ION    CL-43093  34.038  20.981  12.951
74689ION    CL-43094   8.670  41.284  14.865
74690ION    CL-43095  41.146  25.432   0.263
74691ION    CL-43096   4.830   1.245  11.169
74692ION    CL-43097  28.833  14.288   5.051
74693ION    CL-43098  14.345  22.185  12.211
74694ION    CL-43099  36.631  40.568  13.910
74695ION    CL-43100  11.581  35.965   3.883
74696ION    CL-43101   8.110  26.493   5.013
74697ION    CL-43102  37.318  21.325   0.528
74698ION    CL-43103  20.079  19.446   4.558
74699ION    CL-43104  19.904  32.780   2.711
74700ION    CL-43105  28.089   9.800   5.013
74701ION    CL-43106  41.618  11.918   4.112
74702ION    CL-43107   5.136  12.819  14.013
74703ION    CL-43108   0.128   4.848  10.272
74704ION    CL-43109  24.075   8.560  12.504
74705ION    CL-43110   3.300  20.986  14.860
74706ION    CL-43111   9.610  39.302   0.194
74707ION    CL-43112  37.741  34.086  12.091
74708ION    CL-43113  37.053  42.509  11.993
74709ION    CL-43114   1.294  43.074   2.565
74710ION    CL-43115  30.689  16.144  12.385
74711ION    CL-43116   9.088  42.219  13.029
74712ION    CL-43117  16.986  18.627  13.648
74713ION    CL-43118  43.452  30.773  12.439
74714ION    CL-43119  37.815  37.836   3.666
74715ION    CL-43120  10.684   0.940   0.160
74716ION    CL-43121  16.015   9.213   4.999
74717ION    CL-43122  25.513   1.544   1.000
74718ION    CL-43123  32.008  20.223   0.724
74719ION    CL-43124  33.489   9.175   3.250
74720ION    CL-43125   2.130  19.829  13.932
74721ION    CL-43126  36.042  10.832   4.437
74722ION    CL-43127  23.879  26.022  11.529
74723ION    CL-43128   0.440   0.193   3.788
74724ION    CL-43129  26.191  32.247   0.460
74725ION    CL-43130   9.792  31.364  11.914
74726ION    CL-43131  27.570  12.395   3.159
74727ION    CL-43132   0.015  17.277   1.428
74728ION    CL-43133   8.145  27.944  10.248
74729ION    CL-43134  31.071  25.083   2.748
74730ION    CL-43135  21.287  13.537  14.461
74731ION    CL-43136  31.436  24.866  12.047
74732ION    CL-43137  25.829  40.521   2.507
74733ION    CL-43138  12.906  40.927   4.967
74734ION    CL-43139  22.008   5.719  10.746
74735ION    CL-43140  30.564  23.911   3.799
74736ION    CL-43141   7.350  26.219   1.323
74737ION    CL-43142   4.891  19.073   3.141
74738ION    CL-43143   6.238   4.178  10.757
74739ION    CL-43144  38.192  40.043  12.489
74740ION    CL-43145  15.410  29.670   5.199
74741ION    CL-43146  34.228  41.385   0.060
74742ION    CL-43147  17.520  30.482   2.778
74743ION    CL-43148  39.333  29.982   4.095
74744ION    CL-43149  11.728  28.523   9.992
74745ION    CL-43150  33.570  37.679   1.975
74746ION    CL-43151   8.273   2.658   3.444
74747ION    CL-43152  23.623  35.582  10.828
74748ION    CL-43153   8.031   8.928   3.264
74749ION    CL-43154  31.925  25.048   3.836
74750ION    CL-43155  36.988  28.359  14.795
74751ION    CL-43156   0.862  30.965  13.389
74752ION    CL-43157   9.886   8.629   0.200
74753ION    CL-43158  32.835  43.001  12.432
74754ION    CL-43159  10.143  32.868   1.337
74755ION    CL-43160  10.500   8.596   2.099
74756ION    CL-43161  28.006  35.578   3.828
74757ION    CL-43162  34.862   9.065   4.405
74758ION    CL-43163  32.433  32.035   0.901
74759ION    CL-43164  40.490  26.121  10.689
74760ION    CL-43165  26.656  25.068   9.868
74761ION    CL-43166  17.553  36.226  10.371
74762ION    CL-43167  14.382   8.481  11.667
74763ION    CL-43168  35.894  27.778  12.489
74764ION    CL-43169  41.254  44.421   0.732
74765ION    CL-43170  11.307   4.035   3.715
74766ION    CL-43171   1.522  43.128  13.144
74767ION    CL-43172  42.565  22.395   4.817
74768ION    CL-43173  18.669  13.271  13.053
74769ION    CL-43174  31.712  22.276   0.832
74770ION    CL-43175  44.958  20.423   2.187
74771ION    CL-43176  18.204  40.317  13.381
74772ION    CL-43177  43.043   7.467   2.293
74773ION    CL-43178  19.955  26.554  11.151
74774ION    CL-43179  34.844  28.061   1.207
74775ION    CL-43180  10.331  37.578  14.700
74776ION    CL-43181  35.534  23.488   4.512
74777ION    CL-43182  27.509  30.455   3.189
74778ION    CL-43183  11.752  20.714   0.440
74779ION    CL-43184   0.376  26.298   1.940
74780ION    CL-43185  23.236  18.959   1.368
74781ION    CL-43186   4.948  10.828   5.092
74782ION    CL-43187   6.905   6.445   3.216
74783ION    CL-43188  25.706  35.436   0.360
74784ION    CL-43189  10.968  44.150   0.823
74785ION    CL-43190  15.103  12.835   0.273
74786ION    CL-43191  12.064  27.607  14.010
74787ION    CL-43192   2.651   6.054  12.485
74788ION    CL-43193  23.325   1.239   2.601
74789ION    CL-43194  35.962  24.480  13.952
74790ION    CL-43195   6.290   3.927   2.719
74791ION    CL-43196  25.895  30.296   4.670
74792ION    CL-43197  34.594   3.203  14.862
74793ION    CL-43198  21.766  37.329   3.538
74794ION    CL-43199   6.810  27.464  11.053
74795ION    CL-43200  32.463   2.165   2.661
74796ION    CL-43201  31.062   5.136  11.918
74797ION    CL-43202   2.778  36.852   3.648
74798ION    CL-43203  21.727   9.613  10.908
74799ION    CL-43204  27.098  39.747   2.633
74800ION    CL-43205   5.598  16.050  13.157
74801ION    CL-43206  10.437   9.097   3.782
74802ION    CL-43207   1.150  18.887  13.971
74803ION    CL-43208  32.425  34.927   1.832
74804ION    CL-43209  15.440  18.901  13.906
74805ION    CL-43210  42.424  37.296   0.074
74806ION    CL-43211   9.188  36.411   0.508
74807ION    CL-43212  31.476  34.063  14.406
74808ION    CL-43213   8.595  15.504   0.475
74809ION    CL-43214   8.893  39.656  12.011
74810ION    CL-43215   2.785   9.600  12.867
74811ION    CL-43216  15.739  32.885   1.878
74812ION    CL-43217  40.055  11.271  11.638
74813ION    CL-43218   7.668  35.488   4.062
74814ION    CL-43219  25.796   9.337   2.163
74815ION    CL-43220  17.575  42.929  12.013
74816ION    CL-43221  30.388  30.907   5.125
74817ION    CL-43222   4.550  37.059   2.469
74818ION    CL-43223  28.924  33.199   5.052
74819ION    CL-43224   7.413  34.549   3.089
74820ION    CL-43225  17.292   2.713   1.573
74821ION    CL-43226   4.733  14.391   2.225
74822ION    CL-43227   7.799   4.832  14.557
74823ION    CL-43228  38.824   4.294  12.072
74824ION    CL-43229  33.447   8.915   4.943
74825ION    CL-43230  21.476  17.762   3.498
74826ION    CL-43231  38.410  19.186   3.167
74827ION    CL-43232  40.872  20.793  10.916
74828ION    CL-43233  15.049  40.837  14.984
74829ION    CL-43234   8.235  39.725   1.197
74830ION    CL-43235  28.126  32.700   1.689
74831ION    CL-43236   4.326  36.716   1.467
74832ION    CL-43237  22.774   1.571   3.410
74833ION    CL-43238   5.742   6.062   3.919
74834ION    CL-43239  15.667  35.252  11.603
74835ION    CL-43240  21.092  27.667   1.444
74836ION    CL-43241  24.342  18.225   4.143
74837ION    CL-43242  37.358   9.762   2.167
74838ION    CL-43243  22.124  16.572   4.668
74839ION    CL-43244   9.718  14.842   9.793
74840ION    CL-43245   1.700  12.428  13.363
74841ION    CL-43246  34.610  42.856  13.046
74842ION    CL-43247  42.938   8.673  14.380
74843ION    CL-43248  41.476  20.904   5.025
74844ION    CL-43249  14.091   4.337   5.110
74845ION    CL-43250  13.860  10.449   4.703
74846ION    CL-43251  13.172  38.357  10.970
74847ION    CL-43252  28.557  22.086  14.354
74848ION    CL-43253   0.526  33.625   3.282
74849ION    CL-43254   0.726  24.489   0.569
74850ION    CL-43255  21.529  32.474  11.872
74851ION    CL-43256  16.401  19.171  13.554
74852ION    CL-43257  10.181  35.460   2.566
74853ION    CL-43258  42.406  29.966  13.572
74854ION    CL-43259  13.032  10.553   4.152
74855ION    CL-43260  34.634  44.733  14.808
74856ION    CL-43261   8.999   4.369  10.655
74857ION    CL-43262   2.078  14.282   3.535
74858ION    CL-43263  33.862  29.355  13.866
74859ION    CL-43264   0.711  42.648   4.176
74860ION    CL-43265  22.780  17.335   1.741
74861ION    CL-43266   3.876  33.399   4.957
74862ION    CL-43267  34.884  21.566   3.552
74863ION    CL-43268   0.275  36.605   4.696
74864ION    CL-43269  10.430  32.435   3.241
74865ION    CL-43270  12.764  14.051  11.515
74866ION    CL-43271  30.115  30.684  12.415
74867ION    CL-43272  33.857  33.127   2.297
74868ION    CL-43273  27.651  38.968  12.972
74869ION    CL-43274  16.965  41.955  11.166
74870ION    CL-43275  41.295  23.770  12.575
74871ION    CL-43276   6.768  11.076  10.644
74872ION    CL-43277  18.957  26.747   2.572
74873ION    CL-43278  27.480  44.915   0.894
74874ION    CL-43279   3.512  39.767   3.817
74875ION    CL-43280  43.480  42.475  12.882
74876ION    CL-43281  37.608  15.112  10.692
74877ION    CL-43282  20.132  21.798  10.549
74878ION    CL-43283  40.029   8.062  11.689
74879ION    CL-43284  22.106  38.468  13.414
74880ION    CL-43285   5.686  38.061   2.746
74881ION    CL-43286   7.261  41.001  11.107
74882ION    CL-43287   0.063   1.471   4.275
74883ION    CL-43288  10.344   8.318  12.781
74884ION    CL-43289  35.975  16.783   1.269
74885ION    CL-43290  30.320   4.160  13.353
74886ION    CL-43291   9.742  25.488   4.378
74887ION    CL-43292  29.634  42.575   1.383
74888ION    CL-43293  37.479  27.185  14.277
74889ION    CL-43294  29.044  18.150   2.834
74890ION    CL-43295  25.479  23.777  12.521
74891ION    CL-43296  31.317   3.347  12.476
74892ION    CL-43297   7.423  11.175  11.444
74893ION    CL-43298  37.664  41.595   1.365
74894ION    CL-43299  17.691   3.653   0.070
74895ION    CL-43300  27.535   2.197   4.072
74896ION    CL-43301  37.102   2.123   2.370
74897ION    CL-43302   8.278  37.749   1.569
74898ION    CL-43303  42.827  11.411  11.143
74899ION    CL-43304  28.434   9.425  13.632
74900ION    CL-43305   3.661  14.376  13.356
74901ION    CL-43306  12.503  43.595   0.798
74902ION    CL-43307  44.105  31.242   1.423
74903ION    CL-43308  15.256  31.298  10.598
74904ION    CL-43309  30.461  30.891   4.128
74905ION    CL-43310   4.806  41.681  14.049
74906ION    CL-43311  27.807  39.806  13.318
74907ION    CL-43312   0.168  30.267  12.129
74908ION    CL-43313   7.713   4.028   2.684
74909ION    CL-43314  31.540   9.975   0.896
74910ION    CL-43315  16.099  15.139  14.677
74911ION    CL-43316  40.875  18.994   1.677
74912ION    CL-43317  33.814   2.996  13.928
74913ION    CL-43318  35.126  44.340  11.482
74914ION    CL-43319  34.702  30.645  13.089
74915ION    CL-43320  35.539  41.887   1.686
74916ION    CL-43321  37.081  24.515   2.073
74917ION    CL-43322  12.092   3.367   3.928
74918ION    CL-43323  38.268  13.383   1.880
74919ION    CL-43324  38.810  36.145  12.104
74920ION    CL-43325  11.408  22.299   1.225
74921ION    CL-43326  37.283  10.654  12.503
74922ION    CL-43327  35.281  33.337   2.926
74923ION    CL-43328  21.010  37.304   4.193
74924ION    CL-43329  21.568  14.448  14.773
74925ION    CL-43330  38.137   2.372  13.930
74926ION    CL-43331  24.335   8.662  11.544
74927ION    CL-43332   9.819  17.682  11.238
74928ION    CL-43333  19.773  13.295   0.593
74929ION    CL-43334  35.729  15.495  11.723
74930ION    CL-43335  34.120  11.358  12.912
74931ION    CL-43336  12.313  44.048   5.180
74932ION    CL-43337  39.251  28.852   2.963
74933ION    CL-43338  32.364   9.947  14.049
74934ION    CL-43339  41.381  31.028  10.625
74935ION    CL-43340  32.113  24.226  12.670
74936ION    CL-43341   8.569  16.330   0.428
74937ION    CL-43342  41.543  34.443   0.527
74938ION    CL-43343  35.809  15.111   1.140
74939ION    CL-43344  37.535  20.372   0.317
74940ION    CL-43345  25.820  33.462  11.049
74941ION    CL-43346  14.730  22.783   0.741
74942ION    CL-43347   0.711  19.845   4.847
74943ION    CL-43348  36.134  20.087   2.849
74944ION    CL-43349  16.086  12.929   4.789
74945ION    CL-43350   9.680  44.394  12.517
74946ION    CL-43351  13.273  31.528   1.065
74947ION    CL-43352  38.801  11.826   4.159
74948ION    CL-43353  16.897  43.559   0.101
74949ION    CL-43354  31.161  26.781   3.820
74950ION    CL-43355  21.645  13.160   0.315
74951ION    CL-43356  17.595  40.790   3.702
74952ION    CL-43357  26.147   0.219   0.222
74953ION    CL-43358  37.477  27.336  13.114
74954ION    CL-43359  10.504   2.178  12.395
74955ION    CL-43360  44.588   0.179   1.489
74956ION    CL-43361  24.114  44.888  13.593
74957ION    CL-43362   1.862  13.776  11.165
74958ION    CL-43363   4.834  32.672  12.461
74959ION    CL-43364  30.720  32.980   2.830
74960ION    CL-43365  35.787   5.021  14.365
74961ION    CL-43366  27.319  35.604   4.883
74962ION    CL-43367  40.930  21.700   0.600
74963ION    CL-43368   1.492   1.551   3.462
74964ION    CL-43369  40.192   7.866   2.251
74965ION    CL-43370   6.310  41.175  12.167
74966ION    CL-43371  13.063  24.416   1.759
74967ION    CL-43372   4.910  41.813   4.359
74968ION    CL-43373  22.716  18.524  12.684
74969ION    CL-43374  33.553  37.511   2.961
74970ION    CL-43375  13.553   8.246  11.158
74971ION    CL-43376  36.433  42.332  10.001
74972ION    CL-43377   8.460  13.024   1.279
74973ION    CL-43378   6.288   5.641   3.194
74974ION    CL-43379  18.575  35.141   4.517
74975ION    CL-43380  18.539  20.625   4.238
74976ION    CL-43381  24.641  34.408   3.198
74977ION    CL-43382  36.695   1.072  12.534
74978ION    CL-43383  16.252  38.139  11.065
74979ION    CL-43384  10.841  44.941  14.216
74980ION    CL-43385  25.559   4.145   1.187
74981ION    CL-43386  11.527  11.594  13.107
74982ION    CL-43387  28.211  23.338  11.222
74983ION    CL-43388  41.650  40.196  13.439
74984ION    CL-43389  37.952   4.376   4.059
74985ION    CL-43390  26.102  36.635  11.598
74986ION    CL-43391  31.747  38.046  10.415
74987ION    CL-43392  22.153  35.417  12.499
74988ION    CL-43393  24.947  39.840   4.554
74989ION    CL-43394  20.936  32.254   1.220
74990ION    CL-43395  22.459  13.208   2.546
74991ION    CL-43396  10.340  34.562   4.289
74992ION    CL-43397  40.807  43.147  14.434
74993ION    CL-43398  24.109  42.486  11.630
74994ION    CL-43399  29.148  42.307   2.600
74995ION    CL-43400  11.584  39.685   4.979
74996ION    CL-43401   2.914  11.387  13.378
74997ION    CL-43402  14.665  11.012   0.528
74998ION    CL-43403  43.934  22.035  11.317
74999ION    CL-43404  38.536  30.335   0.748
75000ION    CL-43405  39.780  25.937  12.334
75001ION    CL-43406  36.791  39.061  10.382
75002ION    CL-43407  28.606  17.653   2.037
75003ION    CL-43408  22.234  40.486   3.254
75004ION    CL-43409  42.791  24.262   2.803
75005ION    CL-43410  17.732  36.881  13.839
75006ION    CL-43411  12.174   8.861  10.869
75007ION    CL-43412  26.499   5.611   1.968
75008ION    CL-43413   9.473   7.271   0.211
75009ION    CL-43414  20.552  10.175  13.644
75010ION    CL-43415  16.657  20.977  12.163
75011ION    CL-43416  23.028  25.044   2.780
75012ION    CL-43417   9.773   4.995   4.806
75013ION    CL-43418  36.963  28.177   3.738
75014ION    CL-43419   3.881  36.582  12.821
75015ION    CL-43420  22.177  29.448  13.374
75016ION    CL-43421  25.927  18.351  10.228
75017ION    CL-43422  32.042   1.768   5.048
75018ION    CL-43423  35.400  36.075   1.604
75019ION    CL-43424  37.284   4.454  11.041
75020ION    CL-43425  15.347  24.773   1.201
75021ION    CL-43426  40.255  41.960   4.177
75022ION    CL-43427   9.622  30.177   1.548
75023ION    CL-43428  21.162   7.713  14.997
75024ION    CL-43429   8.545  39.600   2.743
75025ION    CL-43430  41.053  12.359   0.159
75026ION    CL-43431  27.418  30.042  11.423
75027ION    CL-43432  44.555  27.596  12.459
75028ION    CL-43433  26.905  32.812   4.714
75029ION    CL-43434  36.093   2.741   4.127
75030ION    CL-43435  31.587   5.363   4.079
75031ION    CL-43436  19.098  28.682  12.520
75032ION    CL-43437  41.546  27.743   4.658
75033ION    CL-43438  28.206  11.349  13.277
75034ION    CL-43439  23.429  22.011  12.420
75035ION    CL-43440   1.268  28.152   2.301
75036ION    CL-43441  22.676  16.779  13.833
75037ION    CL-43442  40.448   9.991   1.804
75038ION    CL-43443  30.737  26.342  13.260
75039ION    CL-43444  25.944   6.228   2.805
75040ION    CL-43445  27.973  15.961   5.379
75041ION    CL-43446   8.625  44.001   3.277
75042ION    CL-43447   4.004  22.540   4.835
75043ION    CL-43448   7.828  38.591   0.189
75044ION    CL-43449  43.430  36.861   4.049
75045ION    CL-43450  42.902  15.988   4.111
75046ION    CL-43451   8.709  24.393  13.060
75047ION    CL-43452   2.929   1.748   0.271
75048ION    CL-43453  42.570  22.191   3.928
75049ION    CL-43454  41.116   6.111   5.186
75050ION    CL-43455  41.781   0.128  10.283
75051ION    CL-43456  32.912  29.334   0.800
75052ION    CL-43457  34.072   2.866   3.397
75053ION    CL-43458  31.141  27.540  13.408
75054ION    CL-43459  44.029  26.974  14.239
75055ION    CL-43460  28.934  34.118   4.888
75056ION    CL-43461  42.664  15.408   2.292
75057ION    CL-43462  18.253  42.373  11.168
75058ION    CL-43463  14.122  24.497  14.299
75059ION    CL-43464   0.361  28.502  12.028
75060ION    CL-43465  17.249  19.515  11.374
75061ION    CL-43466  19.262  11.545   3.474
75062ION    CL-43467  30.297   7.716  10.646
75063ION    CL-43468  36.831  27.454  12.360
75064ION    CL-43469   0.586  33.094  11.045
75065ION    CL-43470  30.979  23.161  14.990
75066ION    CL-43471  13.224  21.053   2.616
75067ION    CL-43472  18.143  29.891  11.569
75068ION    CL-43473   4.868  32.187  11.587
75069ION    CL-43474  33.647  44.397  12.443
75070ION    CL-43475   2.250  23.195  12.086
75071ION    CL-43476  35.496   3.634  14.872
75072ION    CL-43477   9.829  17.814   0.783
75073ION    CL-43478  31.127  15.732   0.739
75074ION    CL-43479  17.145  24.846   4.070
75075ION    CL-43480   8.127  14.674  13.223
75076ION    CL-43481  18.018  12.844   0.195
75077ION    CL-43482  27.423  32.877  14.469
75078ION    CL-43483  34.741  18.022  12.531
75079ION    CL-43484   7.890  19.644   4.665
75080ION    CL-43485  13.079  33.094  14.268
75081ION    CL-43486   8.768  13.489   2.216
75082ION    CL-43487  40.891  23.851   2.801
75083ION    CL-43488   2.182  29.835   1.460
75084ION    CL-43489  29.696   1.788   0.790
75085ION    CL-43490   4.678  14.211   3.283
75086ION    CL-43491  12.041  28.107  14.683
75087ION    CL-43492  38.405   7.839  14.602
75088ION    CL-43493  20.113  24.098   3.910
75089ION    CL-43494  19.596   6.366  12.568
75090ION    CL-43495  16.539  43.766   1.974
75091ION    CL-43496  39.901  43.971   0.852
75092ION    CL-43497  44.092  44.115   2.119
75093ION    CL-43498  33.230  36.562   0.888
75094ION    CL-43499   7.984  32.455   2.128
75095ION    CL-43500   8.841  11.108   3.421
75096ION    CL-43501  25.005   5.758   1.940
75097ION    CL-43502  10.690  35.939  14.531
75098ION    CL-43503  21.911   1.457   0.373
75099ION    CL-43504   9.308  19.523  13.371
75100ION    CL-43505  32.404  19.978  12.406
75101ION    CL-43506  38.484  11.860  11.939
75102ION    CL-43507  38.067  26.004   1.205
75103ION    CL-43508   3.085  29.096   4.897
75104ION    CL-43509  38.780   0.800  13.152
75105ION    CL-43510   6.646  17.753   4.163
75106ION    CL-43511  24.491  19.872   4.446
75107ION    CL-43512   8.081  28.605   0.364
75108ION    CL-43513  21.025   1.881   1.832
75109ION    CL-43514   2.073   1.750   9.756
75110ION    CL-43515  17.878  14.494   1.796
75111ION    CL-43516  27.444   1.945  11.092
75112ION    CL-43517   4.404   2.728   4.194
75113ION    CL-43518  31.001  40.531   9.679
75114ION    CL-43519  43.546  17.336  10.355
75115ION    CL-43520   3.582  19.309  12.532
75116ION    CL-43521  12.619  19.420  14.931
75117ION    CL-43522  17.163  19.284  12.916
75118ION    CL-43523  38.096   9.017   4.984
75119ION    CL-43524  36.623  23.969  14.527
75120ION    CL-43525  39.937  22.251   2.187
75121ION    CL-43526  14.261   6.860  14.030
75122ION    CL-43527  18.668  12.415  12.537
75123ION    CL-43528  33.197   7.208  13.777
75124ION    CL-43529  30.002  38.925   2.399
75125ION    CL-43530  31.762  38.432   3.090
75126ION    CL-43531   2.589  37.103   1.589
75127ION    CL-43532   0.305  43.710  13.496
75128ION    CL-43533   3.457  10.249   4.638
75129ION    CL-43534  38.759   2.281  10.270
75130ION    CL-43535  17.105  39.861  14.692
75131ION    CL-43536  24.278  31.948  13.910
75132ION    CL-43537  40.983   3.291   5.034
75133ION    CL-43538  10.263  38.151   4.367
75134ION    CL-43539   5.575  44.512  13.876
75135ION    CL-43540  32.593   6.357   9.792
75136ION    CL-43541  12.032   2.213   3.467
75137ION    CL-43542  32.191  12.158   3.416
75138ION    CL-43543   3.912   3.451   1.252
75139ION    CL-43544  35.562  15.593  14.465
75140ION    CL-43545   1.402  42.839  12.194
75141ION    CL-43546  36.164  11.938  12.112
75142ION    CL-43547  16.270  14.780   5.117
75143ION    CL-43548  41.397   5.901  13.550
75144ION    CL-43549  11.210  40.929   1.926
75145ION    CL-43550  18.265  43.369   2.157
75146ION    CL-43551  17.790  28.590  12.064
75147ION    CL-43552  20.283  26.659   0.645
75148ION    CL-43553  29.192  14.712   1.915
75149ION    CL-43554  41.279   8.613   4.029
75150ION    CL-43555   2.731  27.150  10.418
75151ION    CL-43556   2.464  37.888   3.236
75152ION    CL-43557  44.659  33.873   3.197
75153ION    CL-43558  43.875  25.711  10.724
75154ION    CL-43559   1.249  44.246   5.065
75155ION    CL-43560   1.605   9.259   4.565
75156ION    CL-43561  37.890  27.397   3.183
75157ION    CL-43562  25.077   5.906  10.122
75158ION    CL-43563   7.714   1.057   0.594
75159ION    CL-43564  41.740  23.251   3.756
75160ION    CL-43565  42.604  26.341   4.195
75161ION    CL-43566  41.846   6.671   3.206
75162ION    CL-43567  17.180   2.576  14.836
75163ION    CL-43568  13.436   9.430  12.311
75164ION    CL-43569  15.403  22.225   1.496
75165ION    CL-43570   3.138  29.440  10.992
75166ION    CL-43571  27.476  11.085  12.947
75167ION    CL-43572  43.452  16.840  11.508
75168ION    CL-43573  35.468  26.696   5.028
75169ION    CL-43574  32.090  42.770  13.860
75170ION    CL-43575   8.866   4.147   2.772
75171ION    CL-43576  31.073   2.440  11.076
75172ION    CL-43577  19.462  39.826  13.352
75173ION    CL-43578  44.140  26.739   4.748
75174ION    CL-43579   5.563  34.577   3.019
75175ION    CL-43580   3.505  32.211  10.907
75176ION    CL-43581   3.410   1.516  11.480
75177ION    CL-43582  37.933  31.589   3.235
75178ION    CL-43583   0.251  29.826   2.071
75179ION    CL-43584   9.236  40.048   4.224
75180ION    CL-43585  43.515  26.954  11.835
75181ION    CL-43586   7.860  37.907  11.296
75182ION    CL-43587  28.166  39.074   2.598
75183ION    CL-43588  40.983   8.948   4.857
75184ION    CL-43589   5.548  18.020   5.036
75185ION    CL-43590  32.250  35.374  10.425
75186ION    CL-43591  24.961  41.666  10.763
75187ION    CL-43592   5.121  20.584  11.005
75188ION    CL-43593   1.515  44.816   2.602
75189ION    CL-43594   9.784  42.953  10.345
75190ION    CL-43595  31.453   1.800   2.058
75191ION    CL-43596   6.321  27.010  11.895
75192ION    CL-43597  11.068  31.964  11.149
75193ION    CL-43598  43.794  20.442  11.177
75194ION    CL-43599  21.953  26.683   4.449
75195ION    CL-43600  44.126  27.475   1.338
75196ION    CL-43601  35.257  14.895   9.980
75197ION    CL-43602  10.695   0.112   0.825
75198ION    CL-43603  32.620  33.242   3.516
75199ION    CL-43604  22.074  31.127  13.992
75200ION    CL-43605  35.575   4.465   4.984
75201ION    CL-43606  31.339  27.452   0.261
75202ION    CL-43607  24.065   8.371   4.080
75203ION    CL-43608  15.720  21.051   0.533
75204ION    CL-43609  26.196  24.567  12.164
75205ION    CL-43610  34.746   4.129   1.341
75206ION    CL-43611  30.357  15.647   2.686
75207ION    CL-43612  14.669  15.442   5.074
75208ION    CL-43613  16.529  17.823  11.529
75209ION    CL-43614  37.320  22.625   2.910
75210ION    CL-43615  21.282  27.435   0.276
75211ION    CL-43616  12.989  23.356   0.573
75212ION    CL-43617  26.135  42.458   0.876
75213ION    CL-43618  24.111  17.205   0.278
75214ION    CL-43619  14.891  34.006  13.095
75215ION    CL-43620  32.058   9.308   1.431
75216ION    CL-43621  22.293  44.346   2.302
75217ION    CL-43622   6.382  16.730   0.382
75218ION    CL-43623  28.895  19.046   4.086
75219ION    CL-43624  44.968  20.927  14.729
75220ION    CL-43625   6.933  28.362  14.388
75221ION    CL-43626  23.531  34.306   2.837
75222ION    CL-43627  21.928  19.933  14.785
75223ION    CL-43628  12.131  20.152   3.150
75224ION    CL-43629   5.837  38.749   3.637
75225ION    CL-43630   3.481   6.396   3.501
75226ION    CL-43631  26.490  41.626   2.005
75227ION    CL-43632  15.771  31.755  12.709
75228ION    CL-43633  20.072   8.603   4.777
75229ION    CL-43634  42.622   3.235  13.266
75230ION    CL-43635  41.709  43.966   1.382
75231ION    CL-43636  32.147  37.869  11.314
75232ION    CL-43637   6.804  23.201   3.188
75233ION    CL-43638  43.405  26.627   2.913
75234ION    CL-43639  16.549  19.527  12.311
75235ION    CL-43640  30.620  14.519  10.562
75236ION    CL-43641  13.811  10.208  11.561
75237ION    CL-43642  24.548   8.114   2.971
75238ION    CL-43643  44.635   3.658   1.551
75239ION    CL-43644  33.446  36.578   2.619
75240ION    CL-43645  10.247  37.089  14.093
75241ION    CL-43646  42.200   2.023  13.535
75242ION    CL-43647  21.530   7.270   3.248
75243ION    CL-43648  44.892  20.666   0.691
75244ION    CL-43649  43.470  41.804   3.107
75245ION    CL-43650   2.455   8.735   4.614
75246ION    CL-43651  27.347  44.278  10.835
75247ION    CL-43652  19.399  40.305  14.561
75248ION    CL-43653   2.489  33.089  14.452
75249ION    CL-43654  25.973  20.662   4.785
75250ION    CL-43655  35.626   0.703  10.993
75251ION    CL-43656  16.817   8.184  12.891
75252ION    CL-43657   5.637   3.591   2.072
75253ION    CL-43658  15.875  17.131  10.840
75254ION    CL-43659  30.012  39.870  12.023
75255ION    CL-43660  30.700  27.098   2.165
75256ION    CL-43661  38.485  16.194   3.975
75257ION    CL-43662  35.456  19.520   2.316
75258ION    CL-43663  42.529   6.628  13.969
75259ION    CL-43664  11.560   5.253   5.054
75260ION    CL-43665  34.032  18.942  10.901
75261ION    CL-43666   0.359  38.751  14.260
75262ION    CL-43667  16.651  44.568  11.596
75263ION    CL-43668  19.559  40.298   3.259
75264ION    CL-43669   5.527  24.302  11.842
75265ION    CL-43670   5.741  32.662   3.697
75266ION    CL-43671  22.559  39.061   2.352
75267ION    CL-43672  17.130  42.561  12.894
75268ION    CL-43673  19.012  25.478   1.198
75269ION    CL-43674  37.202  28.452   1.342
75270ION    CL-43675  17.965   7.268  10.733
75271ION    CL-43676  27.432   3.444   4.931
75272ION    CL-43677  31.559   7.805   3.443
75273ION    CL-43678  10.729  11.702  12.404
75274ION    CL-43679  39.874  33.315  13.398
75275ION    CL-43680  16.158  10.856  10.692
75276ION    CL-43681  18.605   5.670   1.106
75277ION    CL-43682  29.061  29.685   2.823
75278ION    CL-43683  41.564  10.589  13.856
75279ION    CL-43684  17.958   0.922   3.811
75280ION    CL-43685  32.645  44.915  13.445
75281ION    CL-43686  11.910  36.224   2.541
75282ION    CL-43687  26.431   1.364   2.243
75283ION    CL-43688   3.293  11.345   1.591
75284ION    CL-43689  30.422   5.537   3.028
75285ION    CL-43690   1.715  40.507   1.740
75286ION    CL-43691  36.174  28.975  11.286
75287ION    CL-43692  29.426   8.513   4.090
75288ION    CL-43693   2.075   4.873   0.539
75289ION    CL-43694  42.229  42.582   1.310
75290ION    CL-43695   7.655  31.293  13.898
75291ION    CL-43696   9.452   8.886   1.837
75292ION    CL-43697  38.774  30.870  14.076
75293ION    CL-43698  18.033  23.223   1.970
75294ION    CL-43699  31.161  18.990   4.617
75295ION    CL-43700  27.206  29.437   2.589
75296ION    CL-43701  22.485  14.324  13.386
75297ION    CL-43702  29.429  28.244   1.852
75298ION    CL-43703   9.951   1.265   3.296
75299ION    CL-43704  33.128  44.522   2.765
75300ION    CL-43705   9.665  23.508   3.286
75301ION    CL-43706  23.448   6.456  14.816
75302ION    CL-43707  21.540  20.401   1.618
75303ION    CL-43708  38.387   3.405   0.050
75304ION    CL-43709   8.635   5.034   1.542
75305ION    CL-43710  39.906  22.763   3.892
75306ION    CL-43711  15.303  40.300   3.461
75307ION    CL-43712  18.682   0.213  10.926
75308ION    CL-43713  28.668   4.426  14.812
75309ION    CL-43714   0.445   5.825   1.672
75310ION    CL-43715  35.445  29.301  11.163
75311ION    CL-43716   6.215  39.065   4.948
75312ION    CL-43717  37.413   8.957   2.848
75313ION    CL-43718  34.123  36.834  14.778
75314ION    CL-43719   7.347   1.870  10.712
75315ION    CL-43720  24.157  19.632  14.551
75316ION    CL-43721  13.650   7.658  13.348
75317ION    CL-43722  38.288   2.895   2.320
75318ION    CL-43723  23.784  10.224  11.506
75319ION    CL-43724  38.872   5.816   9.862
75320ION    CL-43725  27.038  35.360  11.222
75321ION    CL-43726  44.853   0.721  14.291
75322ION    CL-43727  40.641  32.071   5.048
75323ION    CL-43728   0.321  23.895  13.085
75324ION    CL-43729  33.527  36.873  13.520
75325ION    CL-43730  39.430   2.723  11.480
75326ION    CL-43731   4.217   2.200  10.380
75327ION    CL-43732   1.799  33.805  14.342
75328ION    CL-43733  31.288  24.439   3.841
75329ION    CL-43734  23.246   0.425  11.415
75330ION    CL-43735  27.187  43.769   0.650
75331ION    CL-43736  17.336   2.363   2.508
75332ION    CL-43737  16.352  36.087   3.285
75333ION    CL-43738  23.734   2.581  11.889
75334ION    CL-43739   9.415  17.717  14.835
75335ION    CL-43740  34.417  26.666  11.801
75336ION    CL-43741  27.017   2.129   2.504
75337ION    CL-43742  32.001  33.880   3.715
75338ION    CL-43743  12.137  17.066  10.173
75339ION    CL-43744  41.211  15.714  12.134
75340ION    CL-43745  31.057  12.451   3.934
75341ION    CL-43746  12.209  33.701  14.287
75342ION    CL-43747  12.469   5.562   2.956
75343ION    CL-43748  23.049   6.070  11.084
75344ION    CL-43749  17.691   7.094   3.969
75345ION    CL-43750  15.657  38.605  11.720
75346ION    CL-43751  33.836  18.138  11.774
75347ION    CL-43752  27.403   7.853   0.511
75348ION    CL-43753  37.865  38.236  14.803
75349ION    CL-43754  36.023  35.850   0.855
75350ION    CL-43755  40.120   4.839   0.066
75351ION    CL-43756  22.259  16.553   2.146
75352ION    CL-43757  11.999  25.324  14.371
75353ION    CL-43758  11.051   1.069  11.358
75354ION    CL-43759  13.849  36.811   2.160
75355ION    CL-43760  25.486  29.608   4.065
75356ION    CL-43761  23.489  41.823  11.481
75357ION    CL-43762  10.173  15.089  12.801
75358ION    CL-43763  32.770  32.916   2.218
75359ION    CL-43764  23.707   4.236   3.427
75360ION    CL-43765   3.889  16.423   0.848
75361ION    CL-43766  21.234  44.670   9.922
75362ION    CL-43767  16.054  21.708  12.480
75363ION    CL-43768   9.734   7.168  14.252
75364ION    CL-43769  41.429  42.550  12.061
75365ION    CL-43770  24.173   2.031   9.723
75366ION    CL-43771   2.304   4.512   2.249
75367ION    CL-43772   8.170  35.668  12.679
75368ION    CL-43773  17.334   0.933  12.616
75369ION    CL-43774  44.858  36.057   2.615
75370ION    CL-43775  30.169  28.205   4.928
75371ION    CL-43776   5.343  14.842   1.752
75372ION    CL-43777  41.097   7.039   5.010
75373ION    CL-43778  26.520  38.003   0.362
75374ION    CL-43779  43.906   7.670   2.202
75375ION    CL-43780  17.170  32.489   0.220
75376ION    CL-43781  17.243   6.969  12.602
75377ION    CL-43782  24.725   3.918  12.594
75378ION    CL-43783  42.009  22.114  12.042
75379ION    CL-43784  36.446  37.064   1.133
75380ION    CL-43785  22.163  26.086   0.029
75381ION    CL-43786  25.765   7.333  12.269
75382ION    CL-43787   6.962   6.289  13.463
75383ION    CL-43788  23.619   6.556  10.561
75384ION    CL-43789  43.288  43.447  13.017
75385ION    CL-43790  13.553  17.318  12.405
75386ION    CL-43791  12.010  31.067  12.669
75387ION    CL-43792  27.674   3.266   3.610
75388ION    CL-43793  23.681   4.694  14.419
75389ION    CL-43794   2.164  17.288   4.431
75390ION    CL-43795  11.135  12.669  13.588
75391ION    CL-43796  21.406  30.997  12.722
75392ION    CL-43797  25.535  31.505  11.522
75393ION    CL-43798  16.828  33.681   3.133
75394ION    CL-43799  14.838  28.454  12.299
75395ION    CL-43800  44.887   4.431  14.146
75396ION    CL-43801  19.184  31.435  14.773
75397ION    CL-43802   0.078   3.182   4.146
75398ION    CL-43803  12.585  40.320   1.936
75399ION    CL-43804  40.020  12.139   4.614
75400ION    CL-43805  38.049  32.920  14.819
75401ION    CL-43806   0.969   3.410   3.712
75402ION    CL-43807  17.192  23.782  14.052
75403ION    CL-43808   9.875   2.894  10.752
75404ION    CL-43809   4.335   0.319   3.901
75405ION    CL-43810  27.575  28.866   4.846
75406ION    CL-43811  13.214  19.352   5.382
75407ION    CL-43812  20.438   6.363   1.950
75408ION    CL-43813  43.818   5.519  12.603
75409ION    CL-43814  15.439  35.746   3.061
75410ION    CL-43815  20.647  19.937   4.086
75411ION    CL-43816  44.577  18.374   3.512
75412ION    CL-43817  17.042  10.098   1.431
75413ION    CL-43818  37.528  11.873  14.453
75414ION    CL-43819  37.054  16.737  11.980
75415ION    CL-43820  16.622   1.185   4.984
75416ION    CL-43821   9.370   2.704  11.637
75417ION    CL-43822  38.285  12.556   0.674
75418ION    CL-43823  10.654  40.858  14.986
75419ION    CL-43824  10.925   8.313  12.213
75420ION    CL-43825   8.724   9.268  14.299
75421ION    CL-43826   6.946   2.481  12.471
75422ION    CL-43827   0.022   2.516  13.433
75423ION    CL-43828  43.436  36.128  12.340
75424ION    CL-43829  44.888  15.038  12.447
75425ION    CL-43830  10.728  15.019  10.336
75426ION    CL-43831   5.695  43.350   1.841
75427ION    CL-43832  44.021  38.438   2.853
75428ION    CL-43833  38.061   9.330  13.491
75429ION    CL-43834  23.184   1.298   4.942
75430ION    CL-43835  35.421  28.921  12.087
75431ION    CL-43836   8.992  31.311  12.495
75432ION    CL-43837  26.365   1.789   0.822
75433ION    CL-43838  43.821  34.635  12.563
75434ION    CL-43839  42.527  41.473   3.147
75435ION    CL-43840  29.450  10.493   1.827
75436ION    CL-43841  23.528  39.284   4.580
75437ION    CL-43842  12.397  21.599   3.934
75438ION    CL-43843  31.056  19.456   0.915
75439ION    CL-43844   6.929  18.631  14.885
75440ION    CL-43845   4.392  28.073  12.531
75441ION    CL-43846   1.910  41.591  13.572
75442ION    CL-43847   0.659  36.683   3.643
75443ION    CL-43848  15.948  29.141   3.833
75444ION    CL-43849  41.079  12.348   1.088
75445ION    CL-43850  26.906  13.019   4.320
75446ION    CL-43851  34.601  37.974   2.681
75447ION    CL-43852  27.130  15.106  10.281
75448ION    CL-43853  26.779   3.987   5.128
75449ION    CL-43854   7.550  31.968  12.921
75450ION    CL-43855  23.534  22.703  13.942
75451ION    CL-43856  38.159  16.395   0.755
75452ION    CL-43857  12.588  42.719  10.354
75453ION    CL-43858   5.005  34.842  11.541
75454ION    CL-43859  41.445  37.473  14.851
75455ION    CL-43860  12.108  17.891  12.674
75456ION    CL-43861  34.460   6.102  11.545
75457ION    CL-43862  42.294  28.745   2.880
75458ION    CL-43863  20.862  34.831   2.350
75459ION    CL-43864  39.354   7.268  10.466
75460ION    CL-43865  27.246   5.602   4.340
75461ION    CL-43866  32.595  44.245   4.135
75462ION    CL-43867  30.092  11.821  10.719
75463ION    CL-43868  30.422  37.507  14.818
75464ION    CL-43869  17.880  29.359   2.201
75465ION    CL-43870  35.388   1.229   0.311
75466ION    CL-43871  15.045   6.674   4.496
75467ION    CL-43872   5.561  38.664  10.693
75468ION    CL-43873   8.372  24.202   2.184
75469ION    CL-43874  41.910  41.328  11.171
75470ION    CL-43875  38.609  43.472   5.102
75471ION    CL-43876   9.314   1.451  11.658
75472ION    CL-43877   2.871  22.655   0.181
75473ION    CL-43878  32.844  30.147  13.598
75474ION    CL-43879  28.702   2.695  14.145
75475ION    CL-43880  19.524  32.589   1.520
75476ION    CL-43881  39.296   7.965  11.017
75477ION    CL-43882  21.728  21.265   2.832
75478ION    CL-43883   4.849  28.724   3.712
75479ION    CL-43884  20.365  18.313  12.353
75480ION    CL-43885   3.241  22.444  13.387
75481ION    CL-43886  19.946   5.696  14.913
75482ION    CL-43887  33.025  44.788  10.856
75483ION    CL-43888  34.497  15.583   1.375
75484ION    CL-43889  19.844  38.979   2.108
75485ION    CL-43890   4.514  29.743   2.381
75486ION    CL-43891   5.746  37.648  13.902
75487ION    CL-43892  37.641   4.655  14.193
75488ION    CL-43893  28.112  28.904  13.073
75489ION    CL-43894  19.754  20.484   3.126
75490ION    CL-43895   9.221  44.863   4.520
75491ION    CL-43896  16.638   9.148   0.892
75492ION    CL-43897  39.398   7.155   5.107
75493ION    CL-43898  14.284   2.794   2.696
75494ION    CL-43899  33.632  44.955   3.157
75495ION    CL-43900  26.995  30.331   4.114
75496ION    CL-43901  26.089  35.636  14.246
75497ION    CL-43902  24.463   7.573   1.671
75498ION    CL-43903  35.591  11.691  13.020
75499ION    CL-43904   4.498   3.770  13.603
75500ION    CL-43905  32.819  15.890  12.246
75501ION    CL-43906   4.181  40.398  12.306
75502ION    CL-43907   6.371  39.592   3.573
75503ION    CL-43908  21.056   5.573  10.476
75504ION    CL-43909  32.899  28.179  12.320
75505ION    CL-43910  31.535  24.664   0.113
75506ION    CL-43911  10.390  12.580   2.383
75507ION    CL-43912  23.948  12.401  14.512
75508ION    CL-43913  20.130  27.424  10.573
75509ION    CL-43914   4.472  31.488   4.985
75510ION    CL-43915  44.585  42.802   2.380
75511ION    CL-43916  39.411  33.746  10.726
75512ION    CL-43917  43.310  31.335   3.121
75513ION    CL-43918  32.721  14.629  11.635
75514ION    CL-43919  44.563  23.957  11.313
75515ION    CL-43920  11.305   8.615  14.726
75516ION    CL-43921  43.349  41.048   3.525
75517ION    CL-43922  18.764  34.355  10.953
75518ION    CL-43923  22.703  14.968   4.874
75519ION    CL-43924  16.519   7.024   5.230
75520ION    CL-43925  44.382  39.732   0.437
75521ION    CL-43926  22.211  14.761  10.976
75522ION    CL-43927  32.511  12.324   4.754
75523ION    CL-43928  39.917  26.878   1.344
75524ION    CL-43929  35.180   8.863   2.689
75525ION    CL-43930  10.761  17.500  14.023
75526ION    CL-43931  29.551   5.748  10.838
75527ION    CL-43932  32.290  33.503  12.603
75528ION    CL-43933  35.546  24.786   4.114
75529ION    CL-43934   6.122   8.590   4.768
75530ION    CL-43935  14.985  43.253  12.660
75531ION    CL-43936  10.844  10.581   0.062
75532ION    CL-43937  10.509  15.305   4.961
75533ION    CL-43938  33.641  11.191   1.757
75534ION    CL-43939  35.191  31.519  12.536
75535ION    CL-43940   6.620  26.146  14.477
75536ION    CL-43941  27.436   6.009   2.724
75537ION    CL-43942  29.583  40.929  12.526
75538ION    CL-43943  17.709  28.161   2.809
75539ION    CL-43944  32.834   3.360   0.979
75540ION    CL-43945   7.958  29.653  11.749
75541ION    CL-43946  16.832  13.154   2.802
75542ION    CL-43947   1.627   3.654   0.814
75543ION    CL-43948  30.362  31.727   1.805
75544ION    CL-43949  17.336  35.728   3.186
75545ION    CL-43950  42.197  26.275   2.770
75546ION    CL-43951  40.494  38.935   1.583
75547ION    CL-43952  20.072  29.381  12.157
75548ION    CL-43953   6.630  23.468  11.156
75549ION    CL-43954  36.730   0.674   0.517
75550ION    CL-43955   8.470  34.162  11.110
75551ION    CL-43956  12.146  25.684  12.850
75552ION    CL-43957  20.232  29.040   3.639
75553ION    CL-43958  42.179  40.454  10.766
75554ION    CL-43959  18.579  23.747   0.713
75555ION    CL-43960  32.675  30.768   3.151
75556ION    CL-43961  23.966   0.583  12.832
75557ION    CL-43962  15.295  13.201   4.841
75558ION    CL-43963   2.374   1.960   2.699
75559ION    CL-43964   4.032  28.006   3.313
75560ION    CL-43965  34.727  12.287  12.797
75561ION    CL-43966  40.577   8.867   3.123
75562ION    CL-43967  37.412   8.609  14.508
75563ION    CL-43968  33.049  43.389  11.458
75564ION    CL-43969  44.855  34.829   1.299
75565ION    CL-43970  42.601  41.007   4.359
75566ION    CL-43971  41.738  30.557   4.106
75567ION    CL-43972  12.806  44.223   2.252
75568ION    CL-43973  29.078  32.115  13.423
75569ION    CL-43974  16.909  24.394  14.529
75570ION    CL-43975  43.330  12.126   3.914
75571ION    CL-43976  32.897   2.057  11.748
75572ION    CL-43977  43.069   9.531  12.393
75573ION    CL-43978  26.213  19.997   3.601
75574ION    CL-43979  11.606  23.032   4.137
75575ION    CL-43980   7.450  21.225   0.058
75576ION    CL-43981  19.266   1.118  12.828
75577ION    CL-43982  24.160  23.272  11.524
75578ION    CL-43983  24.307   4.646   2.561
75579ION    CL-43984  11.170   1.390   2.830
75580ION    CL-43985  40.966   1.198  10.939
75581ION    CL-43986  31.883   2.456   0.833
75582ION    CL-43987  14.800  10.218   1.386
75583ION    CL-43988  16.777  22.130   0.450
75584ION    CL-43989  24.293  28.641  11.250
75585ION    CL-43990   4.216  23.335  14.367
75586ION    CL-43991   2.431  34.412   0.293
75587ION    CL-43992  13.257  15.238  11.472
  45.00000  45.00000  15.00000
